chitosan Film  in water:acetic acid 2%
18931
    1CHTO  H203    1   6.065   7.126   2.314 -0.8977 -0.0103 -0.9710
    1CHTO   O82    2   6.070   7.035   2.290 -0.3135 -0.3436  0.4021
    1CHTO  C123    3   6.196   6.981   2.334 -0.0465 -0.5064 -0.2520
    1CHTO  H227    4   6.236   7.047   2.412  0.3882  1.4983 -2.1329
    1CHTO   O77    5   6.178   6.845   2.394  0.0579  0.1788 -0.4327
    1CHTO  C118    6   6.293   6.777   2.446  0.4505 -0.0177  0.1405
    1CHTO  H222    7   6.317   6.845   2.530  1.0812  0.3228 -0.3065
    1CHTO  C125    8   6.249   6.641   2.510 -0.6928 -0.6666  0.4880
    1CHTO   O84    9   6.203   6.556   2.402  0.4115 -0.2338  0.7768
    1CHTO  H205   10   6.158   6.480   2.434 -2.0022 -0.2593 -2.4455
    1CHTO  C114   11   6.396   6.761   2.337 -0.2110 -0.3842  0.2544
    1CHTO  H218   12   6.355   6.695   2.261 -2.9644  1.2698  0.2403
    1CHTO  C116   13   6.442   6.891   2.269  0.1778  0.2591 -0.3840
    1CHTO  H220   14   6.496   6.960   2.337 -0.1122 -0.5439  0.6754
    1CHTO   O79   15   6.523   6.860   2.165 -0.1974 -0.3803 -0.2266
    1CHTO  H201   16   6.609   6.895   2.180 -1.3269  1.7543  1.4591
    1CHTO  C120   17   6.305   6.968   2.217 -0.2795 -0.1251 -0.4972
    1CHTO  H224   18   6.264   6.898   2.141 -0.2701  0.6926 -1.2604
    1CHTO   N21   19   6.339   7.105   2.166  0.0339  0.2691 -0.6726
    1CHTO  H211   20   6.252   7.168   2.159 -0.5987 -0.5186  0.0560
    1CHTO  H212   21   6.393   7.102   2.072  1.3015 -1.9490  0.0860
    1CHTO   O75   22   6.508   6.713   2.416 -0.2455  0.0406  0.4294
    1CHTO  C112   23   6.576   6.584   2.381 -0.2228  1.1940 -0.1510
    1CHTO  H216   24   6.551   6.566   2.276 -0.3190  2.0432 -0.2776
    1CHTO   O73   25   6.523   6.481   2.464 -0.2862 -0.3921  0.0122
    1CHTO  C113   26   6.574   6.351   2.428 -0.1338  0.8707 -0.3388
    1CHTO  H217   27   6.553   6.340   2.320  0.1557  0.5614 -0.3651
    1CHTO  C124   28   6.491   6.252   2.511  0.2799  0.4338  1.1022
    1CHTO   O83   29   6.354   6.243   2.469 -0.7848 -0.2960 -0.0438
    1CHTO  H204   30   6.325   6.160   2.437 -0.6463 -0.5179  0.3934
    1CHTO  C109   31   6.729   6.345   2.463  0.0653  0.4155  0.4550
    1CHTO  H213   32   6.738   6.367   2.570  0.7667 -0.1376  0.5055
    1CHTO  C110   33   6.800   6.456   2.386  0.4355 -0.0105 -0.6410
    1CHTO  H214   34   6.811   6.424   2.282 -0.2435  3.0220 -1.7039
    1CHTO   O78   35   6.935   6.465   2.437  0.3750 -0.5223  0.1632
    1CHTO  H200   36   6.985   6.390   2.410 -0.7512 -0.6979 -1.4806
    1CHTO  C111   37   6.733   6.594   2.399  0.1623 -0.0484 -0.0829
    1CHTO  H215   38   6.744   6.627   2.503  0.3724  0.6359 -0.3223
    1CHTO   N19   39   6.794   6.701   2.315  0.6227 -0.2564  0.5317
    1CHTO  H207   40   6.879   6.742   2.367 -0.6716  0.0670  2.4302
    1CHTO  H208   41   6.813   6.674   2.212 -1.6437 -1.2644  0.3434
    1CHTO   O74   42   6.780   6.214   2.438  0.0131 -0.7081  0.7190
    1CHTO  C115   43   6.870   6.150   2.530  0.0293 -0.3785  0.2084
    1CHTO  H219   44   6.874   6.201   2.627 -0.4368 -0.5426  0.3174
    1CHTO   O76   45   6.821   5.990   2.566 -0.1725  0.4990  0.0800
    1CHTO  C122   46   6.828   5.903   2.453  0.1828 -0.4269 -0.0324
    1CHTO  H226   47   6.734   5.909   2.398  0.8400  0.7084 -1.0648
    1CHTO  C126   48   6.840   5.753   2.503 -0.2946  0.3770 -0.2103
    1CHTO   O85   49   6.951   5.734   2.595 -0.2156 -0.3389 -0.1576
    1CHTO  H206   50   6.943   5.649   2.632 -0.8291 -0.4691 -0.5763
    1CHTO  C121   51   6.944   5.938   2.358  0.1577 -0.2767  0.0559
    1CHTO  H225   52   6.986   5.840   2.325 -2.1718 -0.8666 -1.3199
    1CHTO   O81   53   6.900   5.999   2.235  0.5912 -0.0929  0.2452
    1CHTO  H202   54   6.863   6.084   2.249 -0.9425 -0.7975  0.5611
    1CHTO  C119   55   7.057   6.012   2.424  0.0666 -0.8113 -0.2617
    1CHTO  H223   56   7.083   5.963   2.518  0.3436  1.5294  0.9354
    1CHTO  C117   57   7.011   6.155   2.466 -0.0766 -0.1548  0.3361
    1CHTO  H221   58   6.999   6.220   2.379  1.3166 -0.6570 -0.2539
    1CHTO   N20   59   7.110   6.225   2.558  0.1197 -0.1919 -0.1474
    1CHTO  H209   60   7.119   6.163   2.646  2.6028 -0.6692 -0.6903
    1CHTO  H210   61   7.068   6.321   2.583  0.2688 -0.7884  2.4853
    1CHTO   O80   62   7.188   5.998   2.330  0.4391  0.6109 -0.0488
    1CHTO  C103   63   7.305   5.907   2.380 -0.0648 -0.6067  0.0236
    1CHTO  H190   64   7.321   5.918   2.487 -0.9013 -1.2255  0.2214
    1CHTO  C101   65   7.299   5.754   2.351 -0.2181 -0.3213 -0.6904
    1CHTO  H188   66   7.278   5.737   2.245  2.0063  1.0280 -1.3903
    1CHTO   O68   67   7.199   5.698   2.429 -0.0350 -0.3407 -0.0311
    1CHTO  H168   68   7.221   5.623   2.481 -1.2003 -0.4959  0.2477
    1CHTO   C99   69   7.444   5.687   2.364 -0.5114  0.1369  0.8167
    1CHTO  H186   70   7.475   5.694   2.470  1.6619 -1.2510  0.2977
    1CHTO   N17   71   7.451   5.543   2.319  0.0431 -0.4966 -0.2619
    1CHTO  H174   72   7.447   5.468   2.396 -3.0157  0.0188  0.1784
    1CHTO  H175   73   7.533   5.525   2.251  1.1501  0.5298  0.7859
    1CHTO   C97   74   7.545   5.778   2.283  0.2805  0.4371 -0.0363
    1CHTO  H184   75   7.533   5.783   2.173 -0.4424  2.1840  0.1024
    1CHTO   O64   76   7.548   5.905   2.340  0.2501  0.1978 -0.4296
    1CHTO  C104   77   7.427   5.975   2.309 -0.9328 -0.5544 -0.4231
    1CHTO  H191   78   7.404   5.973   2.202  0.1432  0.5451 -0.6967
    1CHTO  C108   79   7.436   6.126   2.355  0.3458 -0.5002  0.1540
    1CHTO   O71   80   7.510   6.197   2.256 -0.0036 -0.8959  0.3290
    1CHTO  H171   81   7.455   6.254   2.207  1.9868  0.9140  0.1104
    1CHTO   O62   82   7.684   5.746   2.320  0.1270 -0.1868 -0.0828
    1CHTO   C91   83   7.784   5.764   2.220  0.1363 -0.2377 -0.0847
    1CHTO  H178   84   7.741   5.825   2.142 -2.4764 -0.9789  0.7164
    1CHTO   C92   85   7.818   5.626   2.152  0.8508 -0.0725 -0.0113
    1CHTO  H179   86   7.726   5.571   2.128  0.9961 -0.5254  0.4592
    1CHTO   O66   87   7.873   5.653   2.018  1.3614  0.1543 -0.4504
    1CHTO  H166   88   7.890   5.573   1.972  1.1319 -0.9107  1.2315
    1CHTO   C93   89   7.915   5.535   2.230  0.1891 -0.1593  0.2797
    1CHTO  H180   90   7.939   5.452   2.161  1.9944 -0.8064  1.6378
    1CHTO   N16   91   7.853   5.465   2.351  0.4937 -0.1946 -0.2040
    1CHTO  H172   92   7.925   5.465   2.432  0.5336  0.8448 -0.2266
    1CHTO  H173   93   7.814   5.368   2.328  1.8317 -0.5442 -1.0091
    1CHTO   C94   94   8.048   5.614   2.263  0.3847  0.0319  0.4185
    1CHTO  H181   95   8.074   5.608   2.368  0.5974  0.1268  0.3729
    1CHTO   O61   96   8.042   5.756   2.238 -0.0086 -0.1846 -0.3982
    1CHTO   C95   97   7.918   5.829   2.271 -0.7264  0.3229 -0.4656
    1CHTO  H182   98   7.917   5.839   2.380  1.0408  2.0769 -0.5880
    1CHTO  C106   99   7.919   5.966   2.216  0.3450  0.0047  0.1824
    1CHTO   O69  100   8.013   6.044   2.299 -0.0683  0.1058  0.6626
    1CHTO  H169  101   7.963   6.063   2.376 -0.4598 -0.8350  0.6489
    1CHTO   O63  102   8.160   5.548   2.175  0.5862  0.3746 -0.1994
    1CHTO   C96  103   8.290   5.544   2.244 -0.7129  0.7632 -0.5002
    1CHTO  H183  104   8.264   5.534   2.349  1.9277  1.0686  0.2015
    1CHTO   C98  105   8.388   5.662   2.219 -0.5244 -0.2362 -0.5047
    1CHTO  H185  106   8.339   5.758   2.238 -0.8419 -0.7512  1.4112
    1CHTO   O67  107   8.497   5.669   2.320 -0.2169  0.0106  0.4247
    1CHTO  H167  108   8.447   5.675   2.399  0.2043  2.4455  0.5311
    1CHTO  C102  109   8.465   5.657   2.073  0.1031 -0.7563 -0.0743
    1CHTO  H189  110   8.548   5.729   2.081 -1.3915  1.0921 -0.9112
    1CHTO   N18  111   8.386   5.712   1.961  0.6965 -0.4932  0.6303
    1CHTO  H176  112   8.411   5.816   1.946 -0.9244 -0.1928 -0.1420
    1CHTO  H177  113   8.281   5.701   1.985  0.3235 -1.0090 -1.1456
    1CHTO  C105  114   8.518   5.514   2.041 -0.2134 -0.1777  0.0718
    1CHTO  H192  115   8.533   5.507   1.933  1.1538 -1.1212  0.3038
    1CHTO   O65  116   8.435   5.407   2.080 -0.0831 -0.6626  0.3541
    1CHTO  C100  117   8.358   5.404   2.202 -0.3574 -0.5638 -0.0133
    1CHTO  H187  118   8.281   5.329   2.179  0.8739 -1.4001 -1.4633
    1CHTO  C107  119   8.451   5.347   2.317 -0.0132 -0.2369  0.1536
    1CHTO   O70  120   8.468   5.209   2.309 -0.2429  0.1503  0.5732
    1CHTO  H170  121   8.468   5.178   2.221  1.7329 -0.0354  0.6087
    1CHTO   O57  122   8.659   5.501   2.133 -0.1347 -0.6000  0.7207
    1CHTO   C85  123   8.786   5.511   2.064 -1.2195  0.5292 -0.4771
    1CHTO  H157  124   8.779   5.596   1.993  0.7647  0.8802 -0.2784
    1CHTO   C83  125   8.807   5.387   1.966  0.2890  0.5169  0.8375
    1CHTO  H155  126   8.727   5.390   1.892  0.9036  0.7216  0.1634
    1CHTO   O56  127   8.798   5.260   2.032  0.1113  0.3809  0.6101
    1CHTO  H135  128   8.780   5.187   1.975 -1.8289  0.2616  1.3404
    1CHTO   C81  129   8.942   5.411   1.887  0.3786 -0.3890  0.4782
    1CHTO  H153  130   8.936   5.508   1.837  2.5692 -0.1778  0.5797
    1CHTO   N14  131   8.982   5.313   1.781  0.8389  0.2512 -0.4825
    1CHTO  H141  132   9.072   5.260   1.805  2.5149  1.7725 -3.1362
    1CHTO  H142  133   8.898   5.248   1.776  0.8819  0.2250 -0.8682
    1CHTO   C79  134   9.061   5.420   2.001 -0.0830  0.6358 -0.2299
    1CHTO  H151  135   9.152   5.447   1.948  0.1629 -0.5643 -0.4268
    1CHTO   O52  136   9.029   5.534   2.086 -0.2133 -0.1941 -0.1093
    1CHTO   C86  137   8.906   5.518   2.155 -0.3968 -0.0374 -0.5901
    1CHTO  H158  138   8.925   5.423   2.208  0.5340 -0.0568 -0.9344
    1CHTO   C90  139   8.885   5.622   2.276  1.9239  0.1785 -0.4053
    1CHTO   O60  140   8.967   5.591   2.395  0.6226  0.3484 -0.0046
    1CHTO  H138  141   9.059   5.598   2.378  0.5479  0.7958 -0.2275
    1CHTO   O50  142   9.085   5.304   2.082 -0.0157  0.2691 -0.2008
    1CHTO   C73  143   9.195   5.216   2.092  0.0245  0.8846  0.4359
    1CHTO  H145  144   9.255   5.207   1.999 -2.8154 -0.8523 -1.2959
    1CHTO   C74  145   9.135   5.079   2.124 -0.4274  0.3203 -0.4303
    1CHTO  H146  146   9.058   5.059   2.048 -2.1130  1.3058  0.9747
    1CHTO   O54  147   9.244   4.981   2.110  0.6252 -0.0146  0.5692
    1CHTO  H133  148   9.202   4.904   2.143  0.3437  0.0025  0.2552
    1CHTO   C75  149   9.078   5.078   2.270  0.0995  0.1880 -0.0889
    1CHTO  H147  150   8.992   5.146   2.277  2.4970  3.5038 -1.3148
    1CHTO   N13  151   9.033   4.938   2.299 -0.5418  0.3171  0.4579
    1CHTO  H139  152   8.928   4.940   2.325 -0.7160  1.6626 -0.2864
    1CHTO  H140  153   9.037   4.869   2.216  1.7342  0.5832  0.3295
    1CHTO   C76  154   9.188   5.133   2.371  0.2774 -0.7176 -0.2727
    1CHTO  H148  155   9.275   5.069   2.364  0.8487 -0.3840  2.9316
    1CHTO   O49  156   9.224   5.264   2.338 -0.0447 -0.3106  0.2325
    1CHTO   C77  157   9.287   5.271   2.205  0.1261 -0.5955 -0.5660
    1CHTO  H149  158   9.378   5.211   2.206  1.1097  0.8810  0.7172
    1CHTO   C88  159   9.337   5.411   2.174 -0.4121 -0.6856 -0.2409
    1CHTO   O58  160   9.435   5.489   2.284  0.0148 -0.9975  0.1870
    1CHTO  H136  161   9.382   5.521   2.355  0.7484 -2.2583  1.3180
    1CHTO   O51  162   9.122   5.146   2.540 -0.4783 -0.2902  0.6528
    1CHTO   C78  163   9.038   5.268   2.579 -0.3057 -0.2889  0.0310
    1CHTO  H150  164   9.016   5.329   2.489  0.3413 -0.4169 -0.2180
    1CHTO   C80  165   9.120   5.356   2.674  0.1288 -0.5734 -0.1965
    1CHTO  H152  166   9.156   5.293   2.758 -0.5472 -0.4896  0.1536
    1CHTO   O55  167   9.233   5.399   2.599 -0.4346 -0.7992  0.0610
    1CHTO  H134  168   9.311   5.409   2.650 -0.0040 -1.3085 -0.5001
    1CHTO   C84  169   9.038   5.474   2.735  0.3989 -0.2065 -0.6119
    1CHTO  H156  170   9.003   5.534   2.650 -1.8358 -1.3768 -0.5641
    1CHTO   N15  171   9.115   5.563   2.824 -0.1387  0.0204  0.1136
    1CHTO  H143  172   9.200   5.604   2.774  0.5485 -1.2390  0.2212
    1CHTO  H144  173   9.062   5.646   2.866  0.1387  1.2435 -1.8741
    1CHTO   C87  174   8.912   5.419   2.796 -0.2661 -0.2318 -0.5389
    1CHTO  H159  175   8.937   5.348   2.875 -1.7703  1.0971  1.1949
    1CHTO   O53  176   8.831   5.354   2.682  0.7698  0.1367  0.4883
    1CHTO   C82  177   8.896   5.234   2.638 -1.3153  0.3132 -0.1281
    1CHTO  H154  178   8.905   5.167   2.723  1.4419  0.0699 -0.5662
    1CHTO   C89  179   8.805   5.164   2.537 -0.0554  0.8336  0.1141
    1CHTO   O59  180   8.773   5.239   2.417  0.1296 -0.0992 -0.9740
    1CHTO  H137  181   8.683   5.266   2.418 -0.4454 -1.8395  2.1397
    1CHTO   O45  182   8.820   5.540   2.860  0.1642  0.2104  0.5098
    1CHTO   C67  183   8.769   5.641   2.765  0.4822  0.6996 -0.6646
    1CHTO  H124  184   8.842   5.645   2.684  1.3483  0.2016  0.0876
    1CHTO   C65  185   8.628   5.589   2.711  0.2743 -0.7105  0.1519
    1CHTO  H122  186   8.622   5.487   2.749 -1.8322 -0.0335  1.7295
    1CHTO   O44  187   8.645   5.563   2.569  0.5378  0.0735 -0.1770
    1CHTO  H102  188   8.582   5.498   2.546 -0.2478  0.8855 -0.3411
    1CHTO   C63  189   8.507   5.680   2.755 -0.0805  0.0668 -0.3921
    1CHTO  H120  190   8.502   5.677   2.863 -0.1958  1.0853 -0.3612
    1CHTO   N11  191   8.372   5.626   2.723 -0.6606 -0.3996  0.2456
    1CHTO  H108  192   8.294   5.667   2.783 -0.0711  0.2089  0.6006
    1CHTO  H109  193   8.373   5.520   2.736  2.4118 -0.4824 -0.2241
    1CHTO   C61  194   8.549   5.825   2.714  0.4000  0.5168  0.2600
    1CHTO  H118  195   8.469   5.892   2.749 -0.0188 -0.0625  0.4105
    1CHTO   O40  196   8.669   5.874   2.767 -0.4791 -0.2979  0.2724
    1CHTO   C68  197   8.760   5.783   2.833  0.2514 -0.1526  0.1139
    1CHTO  H125  198   8.728   5.772   2.939 -1.4611  0.5534 -0.3111
    1CHTO   C72  199   8.897   5.849   2.836 -0.4345  0.3995 -1.0910
    1CHTO   O48  200   8.896   5.953   2.928 -0.5535 -0.4604 -0.4558
    1CHTO  H105  201   8.955   6.018   2.897  0.0016 -0.3741  0.7697
    1CHTO   O38  202   8.561   5.837   2.575  0.5910 -0.0035 -0.0744
    1CHTO   C55  203   8.550   5.966   2.520  0.0785 -1.0588  0.2106
    1CHTO  H112  204   8.565   6.047   2.592 -3.5495 -0.3404  0.2317
    1CHTO   C56  205   8.406   5.973   2.449 -0.6435  0.1696  0.0381
    1CHTO  H113  206   8.386   5.881   2.392 -0.7289  1.3427 -1.8693
    1CHTO   O42  207   8.304   5.985   2.549 -0.2695  0.5044 -0.1862
    1CHTO  H100  208   8.224   5.972   2.501  0.0484  0.3555 -0.6846
    1CHTO   C57  209   8.382   6.094   2.354  0.1953 -0.0642  0.3280
    1CHTO  H114  210   8.296   6.153   2.387 -0.2607 -0.2106 -0.5944
    1CHTO   N10  211   8.341   6.047   2.214  0.9942 -0.1907 -0.3092
    1CHTO  H106  212   8.435   6.023   2.165  2.4995  3.7213  0.4923
    1CHTO  H107  213   8.296   6.130   2.161 -1.3681 -2.3441 -1.7917
    1CHTO   C58  214   8.506   6.188   2.349  0.4260  0.2624  0.3661
    1CHTO  H115  215   8.493   6.262   2.268 -1.7367  0.7650  1.1434
    1CHTO   O37  216   8.634   6.121   2.348  0.0848  0.1602 -0.2148
    1CHTO   C59  217   8.649   5.990   2.407 -0.7809  0.5315  0.4576
    1CHTO  H116  218   8.640   5.914   2.329 -1.8730  2.6787 -1.5523
    1CHTO   C70  219   8.787   5.981   2.468 -0.1648  0.7766  0.0446
    1CHTO   O46  220   8.824   6.084   2.565 -0.0758  0.2436 -0.2151
    1CHTO  H103  221   8.895   6.040   2.608 -0.7406 -2.4282 -1.7408
    1CHTO   O39  222   8.498   6.286   2.505  0.6991  0.2364  0.1228
    1CHTO   C60  223   8.424   6.409   2.487 -0.3946 -0.0856 -0.3756
    1CHTO  H117  224   8.421   6.436   2.382 -1.1808 -0.4740 -0.4568
    1CHTO   C62  225   8.284   6.391   2.533 -0.6044  0.8292 -0.6767
    1CHTO  H119  226   8.235   6.311   2.474 -0.5309  0.6750 -0.5271
    1CHTO   O43  227   8.280   6.359   2.675 -0.2074  0.0201 -0.2607
    1CHTO  H101  228   8.346   6.294   2.687  0.0950  0.2172 -0.8004
    1CHTO   C66  229   8.196   6.523   2.494  0.7007 -0.1992 -0.6149
    1CHTO  H123  230   8.210   6.548   2.389  2.0398  2.5939  0.1776
    1CHTO   N12  231   8.051   6.502   2.505 -0.0488  0.1366  0.5968
    1CHTO  H110  232   8.001   6.515   2.410  1.5889  3.0448  0.0889
    1CHTO  H111  233   7.999   6.556   2.583 -1.9452 -0.7792  0.0194
    1CHTO   C69  234   8.256   6.643   2.568 -0.2634  0.4047 -0.3413
    1CHTO  H126  235   8.249   6.634   2.679 -2.1743  0.1803 -0.4782
    1CHTO   O41  236   8.400   6.661   2.543  0.3661  0.3634 -0.3019
    1CHTO   C64  237   8.494   6.527   2.556 -0.5807 -0.1405 -0.1555
    1CHTO  H121  238   8.513   6.491   2.659 -0.1353  2.6588  0.7873
    1CHTO   C71  239   8.631   6.540   2.481  0.1788  0.8264  0.2787
    1CHTO   O47  240   8.707   6.648   2.538 -0.1613  0.0100 -0.3201
    1CHTO  H104  241   8.770   6.672   2.473  1.7153 -0.6184  1.2242
    1CHTO   O34  242   8.181   6.779   2.536  0.0872  0.3513 -0.1456
    1CHTO   C49  243   8.153   6.917   2.632  0.5213 -0.5194 -0.8317
    1CHTO   H91  244   8.187   6.892   2.732 -1.1997 -0.1606 -0.1432
    1CHTO   C47  245   8.005   6.955   2.635  0.0148 -0.7567  0.1511
    1CHTO   H89  246   7.989   7.036   2.709 -0.4017  0.3522 -1.1200
    1CHTO   O33  247   7.935   6.839   2.670 -0.1483 -0.2733  0.1496
    1CHTO   H70  248   7.883   6.858   2.745  0.6573  2.6557  0.0513
    1CHTO   C45  249   7.960   7.021   2.500 -0.2925 -0.1387 -0.5531
    1CHTO   H87  250   7.990   6.948   2.423 -0.3021 -2.0336  1.1947
    1CHTO    N8  251   7.818   7.046   2.477  0.6554 -0.0949 -0.2491
    1CHTO   H75  252   7.768   7.031   2.572 -0.6256 -2.8274 -1.2930
    1CHTO   H76  253   7.776   6.969   2.414  0.9390 -2.1599  2.0213
    1CHTO   C43  254   8.047   7.146   2.455  0.7819  0.1319 -0.0211
    1CHTO   H85  255   8.017   7.173   2.353 -0.0322 -2.3782 -0.4758
    1CHTO   O29  256   8.183   7.104   2.459 -0.0461 -0.1602 -0.0112
    1CHTO   C50  257   8.239   7.032   2.572 -0.0203  0.6923 -0.7300
    1CHTO   H92  258   8.333   6.989   2.537 -0.5554 -0.6900 -0.4820
    1CHTO   C54  259   8.286   7.132   2.678  0.4384  0.8827  0.8642
    1CHTO   O36  260   8.353   7.062   2.787 -0.2545 -0.9185  0.3272
    1CHTO   H72  261   8.289   7.011   2.833  2.4496 -4.1117  0.7030
    1CHTO   O27  262   8.025   7.256   2.541 -0.1943  0.3926  0.0427
    1CHTO   C37  263   8.008   7.393   2.502  0.2565 -0.0476  0.0311
    1CHTO   H79  264   8.005   7.392   2.392 -2.3750 -1.0906  0.0739
    1CHTO   C38  265   7.878   7.446   2.572 -0.1183 -0.2711 -0.0839
    1CHTO   H80  266   7.862   7.393   2.667 -0.1974 -0.3497 -0.1403
    1CHTO   O31  267   7.762   7.398   2.508 -0.3715  0.4898 -0.4048
    1CHTO   H68  268   7.775   7.356   2.425  1.5386  0.8305 -0.3073
    1CHTO   C39  269   7.879   7.606   2.576 -0.2211  0.5388  0.0629
    1CHTO   H81  270   7.846   7.644   2.480 -0.8066  0.6774  0.3125
    1CHTO    N7  271   7.770   7.655   2.664 -0.1305 -0.0200 -0.4260
    1CHTO   H73  272   7.790   7.606   2.758  0.3336  1.5987  0.3497
    1CHTO   H74  273   7.670   7.655   2.623 -1.4829 -2.5185  2.6221
    1CHTO   C40  274   8.020   7.666   2.625 -0.4355  0.0742 -0.1284
    1CHTO   H82  275   8.045   7.646   2.729  3.2178 -0.6454 -1.1011
    1CHTO   O26  276   8.114   7.613   2.537 -0.2550  0.0455  0.0634
    1CHTO   C41  277   8.138   7.473   2.555  0.5327  0.2626 -0.1144
    1CHTO   H83  278   8.163   7.445   2.659 -1.2208  0.1009  0.2709
    1CHTO   C52  279   8.260   7.437   2.472  0.3043  0.5998  0.0043
    1CHTO   O35  280   8.373   7.523   2.528 -0.2280 -0.4662 -0.0059
    1CHTO   H71  281   8.360   7.616   2.534 -0.5930 -0.5970  1.2764
    1CHTO   O28  282   8.029   7.811   2.621  0.4187  0.2771 -0.3679
    1CHTO   C42  283   8.031   7.888   2.498 -0.4003 -0.5700  0.5687
    1CHTO   H84  284   7.985   7.825   2.422 -1.2872 -1.8624  2.1376
    1CHTO   C44  285   8.165   7.945   2.442  0.4880  0.0095  0.0457
    1CHTO   H86  286   8.202   8.008   2.523  0.0444 -1.0278  1.0629
    1CHTO   O32  287   8.255   7.836   2.413 -0.1928  0.2413  0.0207
    1CHTO   H69  288   8.272   7.781   2.487  1.4344 -0.2111 -0.6604
    1CHTO   C48  289   8.149   8.040   2.320 -0.0861 -0.2262 -0.3610
    1CHTO   H90  290   8.132   7.969   2.239 -1.1325 -0.6965  0.2599
    1CHTO    N9  291   8.275   8.112   2.279 -0.0504  0.2107 -0.1490
    1CHTO   H77  292   8.363   8.087   2.337 -0.0217  0.2291 -0.1840
    1CHTO   H78  293   8.302   8.115   2.175 -3.1790  1.5788 -0.9712
    1CHTO   C51  294   8.023   8.148   2.335 -0.3734  0.0029  0.0118
    1CHTO   H93  295   8.054   8.226   2.405  0.8114 -1.9299  1.6978
    1CHTO   O30  296   7.913   8.082   2.382  0.1918  0.5572  0.3863
    1CHTO   C46  297   7.932   8.007   2.515 -0.0564  0.4811  0.1739
    1CHTO   H88  298   7.978   8.080   2.582  1.3083 -0.8466  0.6912
    1CHTO   C53  299   7.783   7.973   2.567  0.5314 -0.2351  0.3584
    1CHTO   O72  300   7.712   8.094   2.608 -0.2397  0.2937 -0.0578
    1CHTO  H199  301   7.758   8.148   2.670  0.8666 -0.2136 -0.4236
    1CHTO   O22  302   7.998   8.200   2.206 -0.7507  0.5723  0.2520
    1CHTO   C31  303   7.877   8.248   2.143 -0.1588  0.2294  0.1080
    1CHTO   H59  304   7.806   8.270   2.225 -0.2973  1.4301 -0.3282
    1CHTO   C29  305   7.909   8.389   2.071 -0.0496  0.7419  0.0615
    1CHTO   H57  306   7.988   8.366   1.998 -0.2013 -0.8660  0.4020
    1CHTO   O21  307   7.960   8.477   2.169 -0.6687 -0.3271  0.1373
    1CHTO   H37  308   7.962   8.566   2.141 -1.0268 -0.8218 -1.5450
    1CHTO   C27  309   7.784   8.438   1.983 -0.2027 -0.9528 -0.8859
    1CHTO   H55  310   7.710   8.483   2.050  0.3859 -2.1010  0.5523
    1CHTO    N5  311   7.823   8.544   1.883 -0.6293  0.4875  0.3961
    1CHTO   H43  312   7.783   8.643   1.898  0.2877  1.1986 -1.7450
    1CHTO   H44  313   7.790   8.509   1.786 -1.0836  0.5753  0.5173
    1CHTO   C25  314   7.720   8.318   1.911  0.0080  0.5143  0.5994
    1CHTO   H53  315   7.801   8.271   1.853 -0.0934 -0.1452  0.9832
    1CHTO   O17  316   7.698   8.212   2.000  0.4803 -0.7550 -0.2686
    1CHTO   C32  317   7.814   8.144   2.051 -0.1028  0.3038 -0.3842
    1CHTO   H60  318   7.885   8.116   1.973  1.0316 -0.8359  1.0222
    1CHTO   C36  319   7.771   8.015   2.122 -0.3497  0.5049  0.7893
    1CHTO   O25  320   7.667   8.047   2.216 -0.2062  0.0170 -0.2685
    1CHTO   H40  321   7.579   8.051   2.184 -0.3139  2.4127  0.2689
    1CHTO   O15  322   7.580   8.364   1.837 -0.3277  0.1389  0.2492
    1CHTO   C19  323   7.539   8.287   1.716  0.3292  0.4292 -0.3860
    1CHTO   H47  324   7.433   8.310   1.698  0.4151  0.1996 -1.2529
    1CHTO   C20  325   7.604   8.352   1.587  0.4970  0.0605 -0.5038
    1CHTO   H48  326   7.714   8.345   1.588  0.5551  0.9146  0.4372
    1CHTO   O19  327   7.573   8.493   1.595  0.2567 -0.1475  0.7718
    1CHTO   H35  328   7.483   8.505   1.572  0.1918 -1.0894  0.5218
    1CHTO   C21  329   7.559   8.282   1.446  0.2513  0.0232 -0.2864
    1CHTO   H49  330   7.452   8.296   1.435  0.3469  0.0966 -1.1393
    1CHTO    N4  331   7.635   8.321   1.323  0.2172  0.0168  0.4011
    1CHTO   H41  332   7.582   8.278   1.239  2.5610 -1.8537 -0.1762
    1CHTO   H42  333   7.636   8.428   1.313  1.0181 -0.0912 -0.7490
    1CHTO   C22  334   7.560   8.131   1.470  1.5101  0.0408  0.3056
    1CHTO   H50  335   7.659   8.087   1.461  1.1120 -0.7266 -0.3780
    1CHTO   O14  336   7.499   8.083   1.594  0.2060  0.3767 -0.2142
    1CHTO   C23  337   7.552   8.128   1.716 -1.0091 -0.2542  0.2299
    1CHTO   H51  338   7.656   8.096   1.733 -0.0833  2.4201 -0.0394
    1CHTO   C34  339   7.471   8.076   1.836 -0.3057  0.0645 -0.2699
    1CHTO   O23  340   7.521   7.946   1.869  0.1716  0.1801 -0.0411
    1CHTO   H38  341   7.509   7.934   1.961  1.4723 -1.7839 -0.0874
    1CHTO   O16  342   7.470   8.059   1.385  0.0325  0.0440 -0.0206
    1CHTO   C24  343   7.530   7.920   1.300  0.9290 -0.3999  0.4085
    1CHTO   H52  344   7.636   7.903   1.318  1.1780 -0.9287 -1.4084
    1CHTO   C26  345   7.509   7.946   1.148  0.0737 -0.1859 -0.0169
    1CHTO   H54  346   7.399   7.956   1.138  0.0527 -1.6785 -1.3244
    1CHTO   O20  347   7.589   8.066   1.121  0.0091  0.8988 -0.5806
    1CHTO   H36  348   7.531   8.135   1.095 -0.7247  1.9142  3.4067
    1CHTO   C30  349   7.546   7.821   1.061 -0.0317  1.1414 -0.0977
    1CHTO   H58  350   7.655   7.811   1.071 -0.0360 -1.3592 -2.0555
    1CHTO    N6  351   7.513   7.834   0.917  0.4419 -0.4418  0.1461
    1CHTO   H45  352   7.580   7.767   0.865 -2.1459 -2.7828 -0.3523
    1CHTO   H46  353   7.412   7.811   0.886  0.3550 -0.4602  0.4468
    1CHTO   C33  354   7.493   7.691   1.123  0.2607  0.0799  0.1479
    1CHTO   H61  355   7.385   7.687   1.102  0.7692 -1.4242 -2.3318
    1CHTO   O18  356   7.515   7.687   1.269 -0.3904 -0.1870  0.5531
    1CHTO   C28  357   7.457   7.793   1.342  0.4440 -0.2194  0.5863
    1CHTO   H56  358   7.353   7.806   1.315  0.4316 -0.2368  0.6270
    1CHTO   C35  359   7.473   7.764   1.492  0.3102  0.9339 -0.4646
    1CHTO   O24  360   7.405   7.640   1.520 -0.0763 -0.3667 -0.4994
    1CHTO   H39  361   7.466   7.581   1.559 -0.2025  1.3192  2.4175
    1CHTO    O9  362   7.554   7.579   1.057  0.1841  0.4288 -0.3202
    1CHTO   C13  363   7.499   7.424   1.133 -0.4583 -0.0687  0.2180
    1CHTO   H26  364   7.397   7.446   1.170 -1.8113 -1.7810 -2.3717
    1CHTO   C11  365   7.605   7.376   1.247 -0.0963  0.0517 -0.1365
    1CHTO   H24  366   7.583   7.418   1.346  3.5771  2.1783 -0.1649
    1CHTO    O8  367   7.743   7.418   1.220  0.0248  0.2532  0.7330
    1CHTO    H3  368   7.809   7.401   1.285  1.3172 -2.4031 -1.1434
    1CHTO    C9  369   7.593   7.220   1.257  0.0073  0.0718  0.2658
    1CHTO   H22  370   7.485   7.207   1.265 -0.0717  1.3499  1.4883
    1CHTO    N2  371   7.657   7.158   1.377 -0.2360 -0.4600 -0.2344
    1CHTO   H10  372   7.763   7.137   1.376 -0.4685 -1.7221  0.7728
    1CHTO   H11  373   7.604   7.076   1.424  2.9447 -1.6378  1.4286
    1CHTO    C7  374   7.632   7.156   1.123 -0.3793  0.4997  0.3936
    1CHTO   H20  375   7.558   7.074   1.117  1.1946 -0.9033 -0.2060
    1CHTO    O4  376   7.611   7.245   1.013  0.7523  0.0439 -0.4499
    1CHTO   C14  377   7.479   7.319   1.020  0.6215  0.0025 -0.0817
    1CHTO   H27  378   7.394   7.249   1.037  0.8836 -0.6715 -1.5226
    1CHTO   C18  379   7.458   7.388   0.885 -0.3310 -0.5904  0.3557
    1CHTO   O13  380   7.333   7.462   0.883  0.3629 -0.3984 -0.2376
    1CHTO    H7  381   7.322   7.464   0.790 -1.4250  1.4901 -0.0278
    1CHTO    O2  382   7.807   7.100   1.114 -0.7648 -0.1557  0.1352
    1CHTO    C1  383   7.848   7.005   1.019  0.6529  0.2972 -0.5610
    1CHTO   H14  384   7.923   7.061   0.960  1.3156 -2.0025 -1.9782
    1CHTO    C2  385   7.738   6.938   0.922  0.3393 -0.4456  0.5518
    1CHTO   H15  386   7.654   6.915   0.990  1.2730 -0.6713  1.6309
    1CHTO    O6  387   7.694   7.035   0.825  0.1391 -0.2179  0.0975
    1CHTO    H1  388   7.614   7.072   0.857  0.1003 -0.9601  0.8773
    1CHTO    C3  389   7.788   6.800   0.845 -0.4864  0.5857  0.7891
    1CHTO   H16  390   7.832   6.833   0.750  0.0507  0.3574  0.9513
    1CHTO    N1  391   7.674   6.721   0.797  0.1252 -0.2800 -0.0852
    1CHTO    H8  392   7.719   6.650   0.729  2.0891  1.1173 -0.2512
    1CHTO    H9  393   7.606   6.782   0.739 -0.0290  1.8935  2.2747
    1CHTO    C4  394   7.893   6.712   0.926 -0.3307 -0.2037  0.6790
    1CHTO   H17  395   7.841   6.665   1.010 -2.3072  0.8468  0.0751
    1CHTO    O1  396   7.990   6.802   0.987 -0.0582  0.8913 -0.1031
    1CHTO    C5  397   7.940   6.896   1.083  0.7665  0.1459 -0.5381
    1CHTO   H18  398   7.887   6.845   1.164 -2.3101  1.8051 -1.3936
    1CHTO   C16  399   8.066   6.968   1.141  0.3052 -0.8497 -0.5456
    1CHTO   O11  400   8.139   6.888   1.229  0.0610 -0.5036  0.0549
    1CHTO    H5  401   8.202   6.843   1.176 -1.1657 -1.6213 -0.5006
    1CHTO    O3  402   7.967   6.620   0.843 -0.7393 -0.0681  0.3882
    1CHTO    C6  403   8.050   6.521   0.900 -0.4804 -0.7378  0.0469
    1CHTO   H19  404   8.079   6.544   1.002  1.4846  0.3828 -0.7402
    1CHTO    C8  405   7.972   6.389   0.915 -0.4926  0.4421 -0.4969
    1CHTO   H21  406   7.922   6.368   0.820 -0.7305  2.4133 -0.8324
    1CHTO    O7  407   7.863   6.410   1.008 -0.6184 -0.1534 -0.5864
    1CHTO    H2  408   7.798   6.464   0.965 -2.2211 -1.3225  0.3301
    1CHTO   C12  409   8.071   6.272   0.961  0.0036 -0.2129 -0.1543
    1CHTO   H25  410   8.104   6.297   1.064  1.6085  0.7602 -0.8849
    1CHTO    N3  411   8.001   6.135   0.970 -0.1479  0.1868 -0.3150
    1CHTO   H12  412   8.078   6.064   0.993 -1.4879 -1.0407  0.4772
    1CHTO   H13  413   7.938   6.102   0.889 -0.7642  0.8820 -0.1261
    1CHTO   C15  414   8.185   6.269   0.857  0.2080  0.5507 -0.9644
    1CHTO   H28  415   8.146   6.248   0.757 -0.7626  2.5772 -1.0402
    1CHTO   O10  416   8.297   6.163   0.893  0.1182 -0.3408  0.4204
    1CHTO    H4  417   8.260   6.093   0.943  2.0209 -1.6064  0.0949
    1CHTO    O5  418   8.258   6.399   0.850  0.4226 -0.0413  0.0287
    1CHTO   C10  419   8.181   6.509   0.815  0.3523 -0.2145  0.0730
    1CHTO   H23  420   8.151   6.502   0.710  0.3058  0.4732  0.0394
    1CHTO   C17  421   8.257   6.642   0.820  0.2010 -1.1407 -0.2404
    1CHTO   O12  422   8.372   6.626   0.737 -0.2055 -0.0679 -0.1200
    1CHTO    H6  423   8.369   6.697   0.675  3.2467  0.5367  0.3104
    2CHTO  H203  424   7.370   4.831   2.401  2.3781  2.9440  2.9181
    2CHTO   O82  425   7.324   4.824   2.483 -0.1713  0.1197  1.3467
    2CHTO  C123  426   7.216   4.922   2.493 -0.2325  0.1165  0.2916
    2CHTO  H227  427   7.259   5.018   2.459 -0.9477  0.1018 -0.6708
    2CHTO   O77  428   7.134   4.862   2.387 -0.1665 -0.4843  1.0501
    2CHTO  C118  429   6.998   4.897   2.365  0.4767 -0.5947 -0.2940
    2CHTO  H222  430   6.985   5.003   2.338  0.0118  0.0076  2.1200
    2CHTO  C125  431   6.952   4.809   2.240  0.1062 -0.2697  0.3582
    2CHTO   O84  432   6.972   4.669   2.272  0.1739 -0.4378  0.3270
    2CHTO  H205  433   7.063   4.658   2.253 -0.0392 -0.5393 -0.6640
    2CHTO  C114  434   6.928   4.872   2.494 -0.2533 -0.1744 -0.3213
    2CHTO  H218  435   6.941   4.767   2.519 -0.0754 -0.0506  0.1109
    2CHTO  C116  436   6.995   4.962   2.604  0.1957 -0.2899 -0.3924
    2CHTO  H220  437   6.977   5.068   2.577  1.3712  0.1089  0.3595
    2CHTO   O79  438   6.922   4.940   2.728  0.1695  0.2512  0.1154
    2CHTO  H201  439   6.968   4.965   2.806 -0.1631 -1.7790  1.0033
    2CHTO  C120  440   7.142   4.928   2.627 -0.3240  0.5412 -0.1142
    2CHTO  H224  441   7.146   4.825   2.668  0.0027  0.0752 -1.2845
    2CHTO   N21  442   7.222   5.016   2.717  0.1285 -0.1914  1.2093
    2CHTO  H211  443   7.160   5.059   2.794 -0.4030 -2.0019  1.8101
    2CHTO  H212  444   7.302   4.955   2.756  2.1042  2.3578  1.3628
    2CHTO   O75  445   6.790   4.903   2.458 -0.2765 -0.5078 -0.1346
    2CHTO  C112  446   6.680   4.819   2.508  0.5785 -0.7594 -0.7542
    2CHTO  H216  447   6.707   4.782   2.608  0.7971 -0.8801 -0.8578
    2CHTO   O73  448   6.670   4.711   2.416 -0.6180  0.0006  0.3196
    2CHTO  C113  449   6.576   4.610   2.462  0.1323  0.0962 -0.4670
    2CHTO  H217  450   6.616   4.575   2.559 -1.2749 -0.8520 -0.2162
    2CHTO  C124  451   6.581   4.490   2.367 -0.4869  0.3083 -0.3084
    2CHTO   O83  452   6.560   4.516   2.225  0.2289  0.3168 -0.3567
    2CHTO  H204  453   6.605   4.450   2.177 -1.0425  0.3730 -1.6699
    2CHTO  C109  454   6.433   4.676   2.481  0.4149 -0.3379  0.3319
    2CHTO  H213  455   6.398   4.713   2.383 -2.1598  0.3027  1.4475
    2CHTO  C110  456   6.443   4.797   2.584 -0.4632 -0.7879  0.2605
    2CHTO  H214  457   6.485   4.770   2.680 -0.4905 -1.5567  0.0588
    2CHTO   O78  458   6.314   4.845   2.614 -0.2665  0.2474 -0.2790
    2CHTO  H200  459   6.256   4.843   2.540 -1.6552  0.4865  0.7789
    2CHTO  C111  460   6.540   4.895   2.516 -0.3010 -0.3386  0.2291
    2CHTO  H215  461   6.505   4.922   2.415 -0.8988 -0.7551  0.3197
    2CHTO   N19  462   6.559   5.025   2.590 -1.0451  0.4405  0.2941
    2CHTO  H207  463   6.635   5.029   2.667  0.5214 -1.3234 -1.1211
    2CHTO  H208  464   6.470   5.075   2.628 -0.9829 -0.8178  2.1292
    2CHTO   O74  465   6.332   4.581   2.524  1.0985 -0.4532 -0.3172
    2CHTO  C115  466   6.215   4.565   2.421  0.2846  0.0202  0.0765
    2CHTO  H219  467   6.203   4.653   2.357  0.4485 -0.3971 -0.5334
    2CHTO   O76  468   6.242   4.445   2.324  0.0776  0.0360 -0.8675
    2CHTO  C122  469   6.151   4.451   2.216 -0.2959 -0.6505  0.0444
    2CHTO  H226  470   6.159   4.360   2.157  2.4917  0.1762 -0.9322
    2CHTO  C126  471   6.191   4.566   2.122 -0.2281  0.5805 -0.5787
    2CHTO   O85  472   6.319   4.529   2.066  0.1273 -0.5480  0.0049
    2CHTO  H206  473   6.368   4.608   2.054  0.0425 -0.4429  0.3304
    2CHTO  C121  474   5.995   4.465   2.257 -0.2455 -0.8129 -0.3116
    2CHTO  H225  475   5.934   4.506   2.173 -1.6010 -1.3774  0.3788
    2CHTO   O81  476   5.949   4.329   2.283  0.0339 -0.0290  0.2719
    2CHTO  H202  477   5.865   4.310   2.246 -0.4186  0.1433  1.2022
    2CHTO  C119  478   5.965   4.569   2.371  0.2207  1.0602 -0.4583
    2CHTO  H223  479   5.990   4.664   2.325  0.4621  0.0365 -2.4935
    2CHTO  C117  480   6.076   4.559   2.490  0.0175 -0.0078 -0.1749
    2CHTO  H221  481   6.096   4.470   2.549  1.5324  0.8433  0.6299
    2CHTO   N20  482   6.052   4.665   2.596 -0.2580 -0.1184 -0.1508
    2CHTO  H209  483   6.139   4.728   2.611  1.7149 -2.2478 -2.2983
    2CHTO  H210  484   6.016   4.614   2.684 -0.4750 -0.6850 -0.5691
    2CHTO   O80  485   5.807   4.575   2.398 -0.1425  0.3894  0.4910
    2CHTO  C103  486   5.720   4.651   2.298 -0.2818 -0.3802 -0.5878
    2CHTO  H190  487   5.778   4.692   2.215  2.8478 -0.8545  1.2971
    2CHTO  C101  488   5.612   4.572   2.240  0.2437 -0.4796 -0.0553
    2CHTO  H188  489   5.570   4.525   2.329  0.3483  0.5242  0.5267
    2CHTO   O68  490   5.676   4.455   2.155 -0.2078  0.0526 -1.0546
    2CHTO  H168  491   5.703   4.496   2.074 -1.8748  1.4872 -0.9128
    2CHTO   C99  492   5.499   4.664   2.163 -0.6077  0.2815 -0.8208
    2CHTO  H186  493   5.545   4.713   2.074  1.8516 -3.0253 -1.4760
    2CHTO   N17  494   5.388   4.578   2.107 -0.8269  0.1079 -0.4461
    2CHTO  H174  495   5.422   4.502   2.038 -2.1595 -1.0280  0.1234
    2CHTO  H175  496   5.326   4.531   2.182  0.0617  1.1332  0.9665
    2CHTO   C97  497   5.443   4.774   2.263  0.3881 -0.5271 -0.3382
    2CHTO  H184  498   5.388   4.720   2.341  0.0983 -0.3348 -0.4087
    2CHTO   O64  499   5.557   4.848   2.313 -0.4792  0.5433  0.1807
    2CHTO  C104  500   5.660   4.769   2.382  0.2925  0.2263 -0.4423
    2CHTO  H191  501   5.616   4.729   2.473  0.1453  0.8795 -0.2294
    2CHTO  C108  502   5.761   4.874   2.428  0.1815 -0.2322 -0.3190
    2CHTO   O71  503   5.701   4.960   2.531 -0.3167 -0.0389  0.6649
    2CHTO  H171  504   5.738   4.969   2.616 -1.8441  3.6595  1.0422
    2CHTO   O62  505   5.346   4.861   2.196  0.1639 -0.6911 -0.3621
    2CHTO   C91  506   5.253   4.947   2.280 -0.0302 -0.1280 -0.7014
    2CHTO  H178  507   5.244   4.906   2.381  2.5911 -0.1647 -0.4431
    2CHTO   C92  508   5.106   4.942   2.217 -0.4251 -1.0236 -0.5844
    2CHTO  H179  509   5.069   4.841   2.198 -1.0924 -1.0030  0.6131
    2CHTO   O66  510   5.018   5.008   2.312 -0.0455  0.7089  0.4619
    2CHTO  H166  511   5.015   5.101   2.300 -2.3916  0.9171  2.3917
    2CHTO   C93  512   5.100   5.015   2.079 -0.3393 -0.2530  0.0651
    2CHTO  H180  513   4.997   5.048   2.061  0.1927  0.1836 -2.3477
    2CHTO   N16  514   5.137   4.932   1.967  0.2680  0.2548  0.7494
    2CHTO  H172  515   5.055   4.863   1.949  0.2223  0.7842 -1.2080
    2CHTO  H173  516   5.160   4.991   1.879  2.8871 -0.1340  1.1338
    2CHTO   C94  517   5.192   5.146   2.082 -0.0523 -0.2390  0.0164
    2CHTO  H181  518   5.292   5.127   2.041 -1.0179 -2.0738 -1.5465
    2CHTO   O61  519   5.216   5.194   2.214 -0.6074 -0.3286 -0.4833
    2CHTO   C95  520   5.300   5.100   2.288 -0.5510 -0.0480 -0.3339
    2CHTO  H182  521   5.397   5.100   2.239  0.9090 -2.3642  2.4650
    2CHTO  C106  522   5.332   5.132   2.433 -0.4327  0.0395  0.2681
    2CHTO   O69  523   5.425   5.046   2.506  0.1213  0.1799  0.0604
    2CHTO  H169  524   5.443   4.963   2.467  1.2282 -0.0121  0.9511
    2CHTO   O63  525   5.112   5.252   1.988 -0.3641 -0.1935  0.4163
    2CHTO   C96  526   5.073   5.395   2.057 -0.2540  0.1478 -0.1345
    2CHTO  H183  527   5.145   5.433   2.130  0.7666  0.7909 -1.4529
    2CHTO   C98  528   4.933   5.387   2.124 -0.0499  0.3107 -1.0291
    2CHTO  H185  529   4.865   5.337   2.053 -0.3779 -0.2692 -0.3155
    2CHTO   O67  530   4.937   5.297   2.241 -0.3223 -0.4198  0.1108
    2CHTO  H167  531   4.948   5.209   2.210 -1.5463  0.1504 -2.1068
    2CHTO  C102  532   4.867   5.531   2.171 -0.0223 -0.0001  0.0112
    2CHTO  H189  533   4.930   5.567   2.254 -0.4073 -0.2575  0.4135
    2CHTO   N18  534   4.727   5.533   2.223 -0.4964  0.0475 -0.3266
    2CHTO  H176  535   4.658   5.582   2.155 -1.2403  0.5156  0.7429
    2CHTO  H177  536   4.689   5.433   2.241 -1.1569 -0.1764 -2.7670
    2CHTO  C105  537   4.894   5.637   2.056 -0.0097 -1.0862  0.4991
    2CHTO  H192  538   4.833   5.616   1.968  0.7182  1.4435 -0.6524
    2CHTO   O65  539   5.033   5.628   2.020  0.6311 -0.1771 -0.1170
    2CHTO  C100  540   5.063   5.511   1.951  0.1881 -0.2211  0.6241
    2CHTO  H187  541   4.983   5.491   1.878 -1.7843 -1.6422  3.0633
    2CHTO  C107  542   5.197   5.523   1.881  0.3324 -0.0478 -0.3775
    2CHTO   O70  543   5.175   5.612   1.776 -0.0487 -0.1792 -0.5991
    2CHTO  H170  544   5.173   5.553   1.703  3.1269 -2.2920  0.8888
    2CHTO   O57  545   4.859   5.790   2.111 -0.5523  0.4743 -0.1202
    2CHTO   C85  546   4.802   5.897   2.030  0.5844  0.6056 -0.1587
    2CHTO  H157  547   4.708   5.860   1.983  1.3878 -0.8696 -0.6527
    2CHTO   C83  548   4.898   5.929   1.914  0.2496 -0.1813  0.0859
    2CHTO  H155  549   4.918   5.841   1.853 -0.3221 -1.6304  1.9432
    2CHTO   O56  550   5.032   5.965   1.954  0.3137  0.6007 -0.9433
    2CHTO  H135  551   5.060   5.910   2.024  0.0186  0.1528 -1.1719
    2CHTO   C81  552   4.826   6.036   1.829  0.4343 -0.6053 -0.1909
    2CHTO  H153  553   4.730   5.993   1.799 -0.2797  2.0414 -1.8495
    2CHTO   N14  554   4.899   6.066   1.702  0.4464  0.1423 -0.6060
    2CHTO  H141  555   4.944   5.979   1.658  0.6409 -0.8105  1.3936
    2CHTO  H142  556   4.823   6.099   1.635  0.4484 -1.7214 -1.5746
    2CHTO   C79  557   4.808   6.168   1.920  0.3085  0.1899  0.1028
    2CHTO  H151  558   4.736   6.230   1.868  0.1198 -0.3523 -0.2936
    2CHTO   O52  559   4.725   6.133   2.037  0.1245 -0.5256  0.0648
    2CHTO   C86  560   4.784   6.023   2.114  0.2240  0.1362  0.5045
    2CHTO  H158  561   4.883   6.062   2.145  1.8316 -3.1625 -0.3252
    2CHTO   C90  562   4.701   5.989   2.236  0.0430 -0.4238 -0.8291
    2CHTO   O60  563   4.720   6.085   2.339 -0.3487 -0.1631 -0.7057
    2CHTO  H138  564   4.682   6.050   2.417 -1.2357 -0.5570 -1.3017
    2CHTO   O50  565   4.931   6.240   1.941 -0.2371 -0.1006 -0.2709
    2CHTO   C73  566   4.986   6.373   1.934  0.6707  0.2061  0.1258
    2CHTO  H145  567   4.913   6.436   1.988  0.7027 -0.1557  0.5851
    2CHTO   C74  568   4.996   6.436   1.785 -0.2229 -0.1920  0.3168
    2CHTO  H146  569   4.899   6.428   1.735 -1.0769  0.0845  1.8861
    2CHTO   O54  570   5.028   6.579   1.814 -0.4367 -0.0350  0.1049
    2CHTO  H133  571   4.971   6.623   1.874 -1.7757  1.2308 -2.0217
    2CHTO   C75  572   5.115   6.362   1.707  0.8582  0.5322  0.5191
    2CHTO  H147  573   5.087   6.256   1.695 -0.2053  0.8140  0.4620
    2CHTO   N13  574   5.135   6.407   1.565  0.1723  0.5632  0.4446
    2CHTO  H139  575   5.099   6.335   1.492  1.2265  0.9682 -0.4915
    2CHTO  H140  576   5.086   6.502   1.551 -0.8947  0.2143  1.6838
    2CHTO   C76  577   5.245   6.368   1.788 -0.6696 -0.8004 -0.3914
    2CHTO  H148  578   5.267   6.475   1.796  0.8876 -1.2363  1.3218
    2CHTO   O49  579   5.217   6.311   1.922 -0.8036 -0.0023  0.1225
    2CHTO   C77  580   5.121   6.385   2.005  0.0654  0.2815 -0.7662
    2CHTO  H149  581   5.136   6.491   2.027 -0.8631  0.1613  0.5148
    2CHTO   C88  582   5.119   6.315   2.144 -0.0050  0.2488  0.3555
    2CHTO   O58  583   5.000   6.373   2.226  0.2693 -0.3478  0.1266
    2CHTO  H136  584   4.994   6.329   2.308 -2.2216  2.2542  1.4193
    2CHTO   O51  585   5.361   6.286   1.738  0.0873 -0.0145 -0.0552
    2CHTO   C78  586   5.442   6.182   1.839  0.2048  0.4099  0.2005
    2CHTO  H150  587   5.391   6.159   1.935  2.2867 -0.7271  1.0540
    2CHTO   C80  588   5.577   6.248   1.867  0.3728 -0.2283 -0.2595
    2CHTO  H152  589   5.622   6.274   1.769 -1.0200  3.6385  0.0339
    2CHTO   O55  590   5.540   6.370   1.931 -0.0978  0.3260 -0.4420
    2CHTO  H134  591   5.615   6.419   1.961  1.9471 -1.9797 -1.5726
    2CHTO   C84  592   5.662   6.160   1.962 -0.4373  0.1338 -0.5795
    2CHTO  H156  593   5.614   6.149   2.060 -1.1458  1.8812 -0.7203
    2CHTO   N15  594   5.793   6.217   1.988 -0.2168  0.4240 -0.4899
    2CHTO  H143  595   5.809   6.305   1.930  1.2962 -0.4321 -1.4074
    2CHTO  H144  596   5.808   6.238   2.092  0.2220  2.6730 -0.9760
    2CHTO   C87  597   5.670   6.018   1.907  0.1922  0.2170 -0.1074
    2CHTO  H159  598   5.749   6.000   1.833 -0.7342  1.5961 -1.4782
    2CHTO   O53  599   5.536   5.959   1.853  0.2314 -0.3037 -0.3908
    2CHTO   C82  600   5.459   6.050   1.768  0.7527 -0.1337  0.4586
    2CHTO  H154  601   5.510   6.056   1.672 -0.8046  0.6502 -0.3486
    2CHTO   C89  602   5.324   5.993   1.733  0.2370  0.1244 -0.1336
    2CHTO   O59  603   5.266   6.061   1.621 -0.1839  0.4150  0.1356
    2CHTO  H137  604   5.259   6.152   1.645 -0.9970  1.1606 -2.7244
    2CHTO   O45  605   5.704   5.893   2.033  0.0391 -0.0281 -0.3424
    2CHTO   C67  606   5.600   5.870   2.127  0.1574 -0.1364 -0.8286
    2CHTO  H124  607   5.532   5.955   2.127  0.9867  0.5301 -1.0432
    2CHTO   C65  608   5.507   5.743   2.091  0.0464  0.1292 -0.0090
    2CHTO  H122  609   5.552   5.703   2.000  0.1240  0.2697 -0.0343
    2CHTO   O44  610   5.378   5.788   2.064 -0.2382  0.5278 -0.4771
    2CHTO  H102  611   5.351   5.768   1.977  0.8544 -2.8462 -0.1252
    2CHTO   C63  612   5.519   5.629   2.201  0.3144 -0.4312 -0.2806
    2CHTO  H120  613   5.622   5.592   2.198 -0.0738 -1.5185 -0.3615
    2CHTO   N11  614   5.445   5.496   2.191  0.5977  0.3119 -0.1622
    2CHTO  H108  615   5.415   5.464   2.289  0.6076  0.0575 -0.2424
    2CHTO  H109  616   5.476   5.419   2.123 -0.4209  1.0786 -1.5087
    2CHTO   C61  617   5.496   5.702   2.340 -0.2120  0.6216  0.0853
    2CHTO  H118  618   5.532   5.637   2.421  0.7364 -1.3685 -1.8685
    2CHTO   O40  619   5.557   5.829   2.367  0.0042  0.2233 -0.1098
    2CHTO   C68  620   5.662   5.857   2.272  0.0088  0.5144 -0.3738
    2CHTO  H125  621   5.730   5.769   2.269 -0.6857 -0.0113 -0.8982
    2CHTO   C72  622   5.745   5.971   2.319  0.2429  0.1443 -0.1287
    2CHTO   O48  623   5.810   5.952   2.440  0.0079  0.2018 -0.2228
    2CHTO  H105  624   5.900   5.933   2.422 -0.0259 -0.9077  0.7404
    2CHTO   O38  625   5.350   5.724   2.351 -0.2935 -0.1231 -0.1557
    2CHTO   C55  626   5.287   5.700   2.476 -0.2356  0.1116  0.1377
    2CHTO  H112  627   5.350   5.732   2.560 -2.7404  1.0750  1.7417
    2CHTO   C56  628   5.231   5.547   2.493  0.1889  0.2619 -0.2612
    2CHTO  H113  629   5.180   5.509   2.403 -0.9564  0.4275  0.3071
    2CHTO   O42  630   5.351   5.471   2.507  0.1145 -0.6366 -0.3307
    2CHTO  H100  631   5.394   5.495   2.587  0.3221 -2.4804  0.1178
    2CHTO   C57  632   5.135   5.532   2.622  0.3486 -0.0622  0.2462
    2CHTO  H114  633   5.196   5.545   2.712 -0.2819  2.9703  0.2706
    2CHTO   N10  634   5.065   5.409   2.627  0.0175  0.1295 -0.3954
    2CHTO  H106  635   5.034   5.379   2.726  2.1042  0.1156  0.2707
    2CHTO  H107  636   4.979   5.415   2.563  0.4573  0.1438 -0.9831
    2CHTO   C58  637   5.029   5.650   2.616 -0.1392 -0.0823 -0.0897
    2CHTO  H115  638   4.983   5.650   2.515 -1.4451  0.2387  0.5020
    2CHTO   O37  639   5.103   5.771   2.621  0.4143  0.1993  0.8097
    2CHTO   C59  640   5.167   5.800   2.487 -0.2193  0.1489  0.8629
    2CHTO  H116  641   5.105   5.794   2.398  0.2755  1.8667  0.3815
    2CHTO   C70  642   5.214   5.947   2.489  0.4604 -0.7199 -0.2676
    2CHTO   O46  643   5.105   6.037   2.516  0.7966  0.4666 -0.1957
    2CHTO  H103  644   5.124   6.102   2.581  1.0943  0.0528  0.1264
    2CHTO   O39  645   4.935   5.652   2.730  0.0280 -0.0746  0.6922
    2CHTO   C60  646   4.830   5.754   2.710  0.3127  0.6440  0.5797
    2CHTO  H117  647   4.869   5.845   2.664  1.4921 -0.6715 -1.0789
    2CHTO   C62  648   4.711   5.702   2.617 -0.2543 -0.1549 -0.3970
    2CHTO  H119  649   4.761   5.679   2.520  1.0937 -1.8991  0.6586
    2CHTO   O43  650   4.656   5.589   2.677  0.3685 -0.0706  0.0986
    2CHTO  H101  651   4.602   5.545   2.614  0.5882  0.9945 -0.8481
    2CHTO   C66  652   4.595   5.819   2.606 -0.3487 -0.0120  0.0189
    2CHTO  H123  653   4.643   5.905   2.560 -1.0771 -0.1160 -0.9407
    2CHTO   N12  654   4.479   5.793   2.518  0.3714 -0.2089 -0.0160
    2CHTO  H110  655   4.444   5.871   2.450  0.8584 -0.8292 -0.9857
    2CHTO  H111  656   4.494   5.697   2.472  1.4307  0.3261 -0.8012
    2CHTO   C69  657   4.545   5.868   2.748  0.0714  0.1499 -0.2195
    2CHTO  H126  658   4.499   5.776   2.789 -0.7281 -0.6656 -2.8621
    2CHTO   O41  659   4.645   5.898   2.843  0.1206  0.0038 -0.0464
    2CHTO   C64  660   4.780   5.797   2.853  0.1154 -0.2777  0.6925
    2CHTO  H121  661   4.757   5.708   2.914  0.1599 -2.4459 -2.3404
    2CHTO   C71  662   4.893   5.874   2.932  0.0759  0.2948 -0.5567
    2CHTO   O47  663   4.876   5.866   3.073 -0.0901  0.0319 -0.4416
    2CHTO  H104  664   4.856   5.779   3.102  0.1093 -0.0707 -0.6046
    2CHTO   O34  665   4.443   5.973   2.741 -0.0061 -0.1670  0.6272
    2CHTO   C49  666   4.466   6.118   2.734  0.9633  0.2533 -0.1353
    2CHTO   H91  667   4.565   6.137   2.775  0.2434 -3.2400  3.6517
    2CHTO   C47  668   4.363   6.188   2.826  0.4632  0.6774 -0.1130
    2CHTO   H89  669   4.388   6.296   2.833 -1.7866  1.3917 -2.3328
    2CHTO   O33  670   4.373   6.129   2.959  0.6419 -0.1368 -0.1383
    2CHTO   H70  671   4.408   6.196   3.015  0.2206 -1.9915  2.4696
    2CHTO   C45  672   4.215   6.182   2.761  0.0386 -0.2184  0.2577
    2CHTO   H87  673   4.187   6.077   2.741 -0.6633  0.2844 -1.4501
    2CHTO    N8  674   4.117   6.242   2.847  0.5710  0.1813  0.0915
    2CHTO   H75  675   4.113   6.195   2.944 -1.9173  1.7832  0.8328
    2CHTO   H76  676   4.026   6.230   2.790  0.2454 -0.2552  0.7066
    2CHTO   C43  677   4.222   6.240   2.608  0.2456 -0.4656  0.2183
    2CHTO   H85  678   4.123   6.231   2.563 -0.2447 -3.2470  1.7200
    2CHTO   O29  679   4.321   6.168   2.534 -0.1410  0.2155  0.8838
    2CHTO   C50  680   4.456   6.167   2.590 -0.2540 -0.2497  0.2248
    2CHTO   H92  681   4.506   6.091   2.527  0.1166 -0.0116  0.2283
    2CHTO   C54  682   4.548   6.298   2.566 -0.4632  0.2011 -0.0359
    2CHTO   O36  683   4.685   6.256   2.575 -0.5493  0.0709 -0.3545
    2CHTO   H72  684   4.694   6.202   2.651 -0.4197 -0.5219 -0.7880
    2CHTO   O27  685   4.251   6.379   2.609 -0.0760 -0.1384  0.1691
    2CHTO   C37  686   4.206   6.501   2.551  0.0216  0.2554 -0.1400
    2CHTO   H79  687   4.244   6.507   2.448  0.0032  0.6026 -0.1273
    2CHTO   C38  688   4.048   6.515   2.539 -0.5345 -0.8804 -0.1747
    2CHTO   H80  689   3.995   6.489   2.632 -0.1474  2.3733  0.9900
    2CHTO   O31  690   4.018   6.413   2.437  0.2415  0.4394 -0.0692
    2CHTO   H68  691   3.925   6.401   2.426  0.3700 -1.5920  0.7885
    2CHTO   C39  692   4.006   6.666   2.500 -0.9828  0.2960 -0.3594
    2CHTO   H81  693   4.035   6.692   2.398  0.7269 -0.8591 -0.1902
    2CHTO    N7  694   3.859   6.684   2.504 -0.5196 -0.4709 -0.5043
    2CHTO   H73  695   3.830   6.784   2.476  1.7035  0.6899  1.1862
    2CHTO   H74  696   3.821   6.618   2.428  0.9944 -1.8754 -0.0677
    2CHTO   C40  697   4.068   6.764   2.600  0.8482  0.4388  0.6521
    2CHTO   H82  698   4.029   6.751   2.700  2.8872 -0.4610  1.3558
    2CHTO   O26  699   4.205   6.746   2.597 -0.2946 -0.0509 -0.0235
    2CHTO   C41  700   4.263   6.617   2.636 -0.4949  0.7979 -0.3903
    2CHTO   H83  701   4.248   6.607   2.744 -0.7214 -1.1001 -0.5808
    2CHTO   C52  702   4.417   6.633   2.607  0.1127  0.5537  0.5493
    2CHTO   O35  703   4.488   6.702   2.724 -0.8816  0.3751 -0.3558
    2CHTO   H71  704   4.574   6.735   2.705 -1.4982  1.6705 -0.9781
    2CHTO   O28  705   4.047   6.906   2.570  0.3920 -0.1030  0.4637
    2CHTO   C42  706   4.095   7.009   2.660 -0.4971  0.6429 -0.7338
    2CHTO   H84  707   4.073   7.100   2.605 -0.2410  2.2597  1.7773
    2CHTO   C44  708   4.248   7.016   2.681  0.5242  0.1758  0.1064
    2CHTO   H86  709   4.282   6.917   2.713 -0.8265  0.6205  3.1120
    2CHTO   O32  710   4.294   7.033   2.547 -0.6734 -0.1240 -0.3184
    2CHTO   H69  711   4.380   6.994   2.550 -0.6050  0.1069  0.8094
    2CHTO   C48  712   4.297   7.127   2.785  0.3416 -0.0811  0.6491
    2CHTO   H90  713   4.279   7.223   2.737  0.0785  0.3676  1.6249
    2CHTO    N9  714   4.444   7.118   2.823 -1.0926  0.6451 -0.6411
    2CHTO   H77  715   4.480   7.020   2.793 -0.0136  0.7008  0.4511
    2CHTO   H78  716   4.509   7.202   2.803  2.1752 -1.9271 -1.2562
    2CHTO   C51  717   4.210   7.120   2.917 -0.1819 -1.0043 -0.7769
    2CHTO   H93  718   4.239   7.034   2.978  0.3516  0.0116  0.4387
    2CHTO   O30  719   4.064   7.115   2.884 -0.2104 -0.2325 -0.6461
    2CHTO   C46  720   4.017   7.016   2.793  0.0948 -0.2623  0.4382
    2CHTO   H88  721   4.041   6.920   2.839 -2.7653 -0.3692  1.8153
    2CHTO   C53  722   3.870   7.043   2.765 -0.4178  0.0852 -0.5495
    2CHTO   O72  723   3.798   7.017   2.883  0.0743 -0.0021  0.4917
    2CHTO  H199  724   3.713   6.980   2.871  0.5702 -0.2710 -2.3564
    2CHTO   O22  725   4.221   7.243   2.989 -0.1515 -0.1754 -0.0092
    2CHTO   C31  726   4.186   7.236   3.137 -0.3614  0.0480 -0.2209
    2CHTO   H59  727   4.166   7.341   3.165 -3.2859 -0.3435 -0.6750
    2CHTO   C29  728   4.057   7.152   3.175  0.3561 -1.3756  0.1553
    2CHTO   H57  729   4.048   7.059   3.117  1.1244 -1.6020  0.4015
    2CHTO   O21  730   3.945   7.225   3.122 -0.1774  0.4052 -0.2059
    2CHTO   H37  731   3.927   7.307   3.164 -2.3843  0.0460 -0.3794
    2CHTO   C27  732   4.038   7.129   3.330  0.1492 -0.1405 -0.4210
    2CHTO   H55  733   4.008   7.226   3.373 -0.2706  0.1863 -1.4337
    2CHTO    N5  734   3.923   7.036   3.356 -0.2948 -0.0014  0.0890
    2CHTO   H43  735   3.886   7.006   3.260  0.2620 -0.0505 -0.1154
    2CHTO   H44  736   3.843   7.086   3.408  0.0930  0.9360 -0.1994
    2CHTO   C25  737   4.169   7.070   3.386  0.0007 -0.7572 -0.5872
    2CHTO   H53  738   4.204   6.985   3.325  0.7735 -0.8931  0.0231
    2CHTO   O17  739   4.273   7.166   3.358 -0.1392  0.3627 -0.2107
    2CHTO   C32  740   4.315   7.185   3.220 -0.1704 -0.7101 -0.0728
    2CHTO   H60  741   4.356   7.098   3.168  0.9189  1.2128 -2.5831
    2CHTO   C36  742   4.415   7.302   3.235  0.3442  0.4971 -0.1248
    2CHTO   O25  743   4.361   7.418   3.294  0.1833 -0.2229 -0.8453
    2CHTO   H40  744   4.325   7.399   3.379 -1.5093  0.2062 -1.4419
    2CHTO   O15  745   4.170   7.040   3.531  0.1147  0.5585 -0.1534
    2CHTO   C19  746   4.160   6.905   3.592  0.3571  0.4850 -0.4320
    2CHTO   H47  747   4.076   6.854   3.542 -0.8470 -0.4460  2.3846
    2CHTO   C20  748   4.287   6.806   3.592  0.2671  0.5020  0.0793
    2CHTO   H48  749   4.367   6.846   3.656  0.8249 -0.8629  0.2703
    2CHTO   O19  750   4.320   6.802   3.455  0.4854 -0.3357  0.2599
    2CHTO   H35  751   4.398   6.754   3.435 -1.2162 -2.7165 -0.9392
    2CHTO   C21  752   4.245   6.660   3.657 -0.0572  0.3856  0.0631
    2CHTO   H49  753   4.169   6.612   3.595  0.8498  1.4535 -1.9180
    2CHTO    N4  754   4.366   6.578   3.666  0.4632  0.1111 -0.2735
    2CHTO   H41  755   4.402   6.566   3.564 -0.4151  1.9835 -0.8162
    2CHTO   H42  756   4.343   6.480   3.705 -2.2281  1.2268  1.0096
    2CHTO   C22  757   4.181   6.693   3.792 -0.1889 -0.5532  0.1432
    2CHTO   H50  758   4.260   6.728   3.859  0.9640 -2.4060 -0.2051
    2CHTO   O14  759   4.076   6.781   3.779 -0.1362 -0.3172  0.9809
    2CHTO   C23  760   4.103   6.913   3.742 -0.4311 -0.4796  0.3797
    2CHTO   H51  761   4.175   6.960   3.811 -1.0286  1.1137 -0.0563
    2CHTO   C34  762   3.973   6.994   3.736 -0.2993 -0.4914 -0.2474
    2CHTO   O23  763   3.905   7.005   3.861 -0.1009 -0.3844  0.0118
    2CHTO   H38  764   3.869   7.091   3.876  2.6155  0.6289  1.1606
    2CHTO   O16  765   4.128   6.580   3.861  0.2817  0.3949 -0.0984
    2CHTO   C24  766   4.123   6.605   4.028 -0.5648  0.0898 -1.3942
    2CHTO   H52  767   4.142   6.710   4.054  1.3412 -0.5424 -0.0842
    2CHTO   C26  768   4.233   6.519   4.093  0.1500  0.0029  0.2294
    2CHTO   H54  769   4.209   6.413   4.072  0.4830  0.2021 -1.2102
    2CHTO   O20  770   4.357   6.553   4.024  0.1847  0.3456 -0.2714
    2CHTO   H36  771   4.424   6.589   4.080 -1.3378  0.0425  1.8005
    2CHTO   C30  772   4.230   6.552   4.242  0.7517 -0.9377  0.3247
    2CHTO   H58  773   4.265   6.652   4.269  0.8504  0.1461 -3.4870
    2CHTO    N6  774   4.325   6.468   4.318 -0.5794  0.1824  0.0744
    2CHTO   H45  775   4.428   6.473   4.284  0.4182 -0.4901  2.8255
    2CHTO   H46  776   4.298   6.363   4.317 -0.8945  0.2619  0.1185
    2CHTO   C33  777   4.085   6.543   4.308  0.0068 -0.3525  0.1198
    2CHTO   H61  778   4.052   6.439   4.324 -1.8144  0.2721  0.6010
    2CHTO   O18  779   3.987   6.614   4.234  0.0235 -0.2411  0.1177
    2CHTO   C28  780   3.991   6.563   4.099  0.1960 -1.0204  0.3995
    2CHTO   H56  781   3.983   6.454   4.103  2.2692 -1.2185 -0.1321
    2CHTO   C35  782   3.873   6.617   4.008  0.7933 -0.2424 -1.2355
    2CHTO   O24  783   3.840   6.757   4.024  0.7204 -0.2588 -0.1795
    2CHTO   H39  784   3.785   6.787   3.955  1.3191  1.7536  0.2000
    2CHTO    O9  785   4.098   6.597   4.442 -0.3773  0.1184  0.3264
    2CHTO   C13  786   3.953   6.617   4.541 -0.0383 -0.9128 -0.1290
    2CHTO   H26  787   3.881   6.534   4.527 -2.8838  1.5760 -0.6711
    2CHTO   C11  788   3.887   6.759   4.511  0.3322  0.2041  0.7836
    2CHTO   H24  789   3.842   6.754   4.411  2.4970 -1.6985 -0.1257
    2CHTO    O8  790   3.985   6.862   4.504 -0.0299  0.5103 -0.0366
    2CHTO    H3  791   4.054   6.842   4.444 -0.3079  1.3616 -0.6484
    2CHTO    C9  792   3.778   6.778   4.617  0.1108 -0.0853  0.4963
    2CHTO   H22  793   3.709   6.692   4.605  1.0554 -0.5357 -1.8639
    2CHTO    N2  794   3.695   6.898   4.592 -0.2912 -0.8626  0.2889
    2CHTO   H10  795   3.661   6.882   4.491 -0.8558 -0.9074  0.4810
    2CHTO   H11  796   3.608   6.899   4.657 -1.5534 -0.0207 -1.3546
    2CHTO    C7  797   3.854   6.785   4.755 -0.2951 -0.3477 -0.2501
    2CHTO   H20  798   3.769   6.800   4.825 -0.6831  1.1653 -1.0241
    2CHTO    O4  799   3.916   6.662   4.793 -0.6559  0.4843  0.2849
    2CHTO   C14  800   4.005   6.599   4.693  0.0940  0.0859 -0.1929
    2CHTO   H27  801   4.003   6.493   4.726  0.1376  1.0691  3.1783
    2CHTO   C18  802   4.155   6.642   4.716 -0.3052  0.1602 -0.2113
    2CHTO   O13  803   4.204   6.639   4.850 -0.1973 -0.3507  0.8264
    2CHTO    H7  804   4.230   6.551   4.869 -0.8175 -0.7323 -0.0744
    2CHTO    O2  805   3.962   6.908   4.760 -0.2132 -0.2822  0.1123
    2CHTO    C1  806   3.960   6.985   4.888 -0.2410 -0.2579 -0.4730
    2CHTO   H14  807   3.956   6.914   4.974 -1.3235  1.3390  0.8306
    2CHTO    C2  808   3.836   7.089   4.897  0.6370  0.3301  0.6728
    2CHTO   H15  809   3.853   7.140   4.801  0.8451  0.5738  0.8362
    2CHTO    O6  810   3.712   7.013   4.898  0.1262  0.3657  0.0892
    2CHTO    H1  811   3.644   7.067   4.862  0.2538  0.8052  0.5044
    2CHTO    C3  812   3.856   7.195   5.013 -0.0935  0.4751 -0.2595
    2CHTO   H16  813   3.853   7.123   5.096 -1.2791 -0.0935 -0.7894
    2CHTO    N1  814   3.743   7.294   5.035  0.1964 -0.3537 -0.2295
    2CHTO    H8  815   3.690   7.315   4.944 -1.8023  1.1921  1.2362
    2CHTO    H9  816   3.677   7.274   5.118 -0.3529 -0.9807 -0.8117
    2CHTO    C4  817   4.003   7.258   5.011 -0.5298 -0.2605 -0.4792
    2CHTO   H17  818   4.016   7.314   4.919 -1.2134  0.5888 -0.0716
    2CHTO    O1  819   4.098   7.149   5.008 -0.0383 -0.4421  0.0856
    2CHTO    C5  820   4.091   7.067   4.897  0.8951 -0.2315 -0.9235
    2CHTO   H18  821   4.105   7.142   4.818  0.9029  0.1505 -0.5597
    2CHTO   C16  822   4.219   6.975   4.893  0.4355 -0.3788 -0.5611
    2CHTO   O11  823   4.335   7.060   4.889 -0.0884  0.5416 -0.5154
    2CHTO    H5  824   4.365   7.067   4.801  0.5924 -2.6301 -0.6045
    2CHTO    O3  825   4.046   7.332   5.128  0.4872 -0.1736  0.0618
    2CHTO    C6  826   4.128   7.451   5.080 -0.1077 -0.4471  0.2176
    2CHTO   H19  827   4.143   7.450   4.972  0.8406  1.4589  0.3127
    2CHTO    C8  828   4.060   7.590   5.113  0.4800  0.1016 -0.3419
    2CHTO   H21  829   4.050   7.601   5.221  1.8612 -1.3235 -0.0480
    2CHTO    O7  830   3.931   7.587   5.039  0.3538 -0.5660 -0.0927
    2CHTO    H2  831   3.867   7.644   5.077  1.6443 -0.7793  2.5451
    2CHTO   C12  832   4.155   7.712   5.078 -0.7983  0.5161  0.4539
    2CHTO   H25  833   4.153   7.704   4.968 -1.0485 -0.6807  0.5348
    2CHTO    N3  834   4.103   7.850   5.107 -0.1104 -0.1930 -0.1239
    2CHTO   H12  835   4.182   7.908   5.153 -2.4434  3.4984 -0.5624
    2CHTO   H13  836   4.081   7.894   5.011  0.0376 -0.4065 -0.2577
    2CHTO   C15  837   4.303   7.687   5.123  0.3507 -0.5457  0.0104
    2CHTO   H28  838   4.322   7.706   5.229  0.7097  0.5052 -0.2418
    2CHTO   O10  839   4.418   7.776   5.044  0.1899 -0.1911 -0.2469
    2CHTO    H4  840   4.457   7.829   5.111  1.4659 -0.7531 -0.5281
    2CHTO    O5  841   4.345   7.556   5.081  0.0073 -0.1540 -0.3495
    2CHTO   C10  842   4.271   7.449   5.145  0.0049 -0.4378 -0.0365
    2CHTO   H23  843   4.260   7.458   5.253  1.3990 -1.7262  0.2344
    2CHTO   C17  844   4.357   7.322   5.110  0.2520  0.0141 -0.2139
    2CHTO   O12  845   4.480   7.320   5.182  0.2812 -0.3055 -0.1006
    2CHTO    H6  846   4.550   7.340   5.123 -0.9495 -0.9711 -1.8386
    3CHTO  H203  847   8.702   1.384   1.417  0.8457  0.3835 -0.5216
    3CHTO   O82  848   8.643   1.331   1.367 -0.1544  1.1460 -0.1811
    3CHTO  C123  849   8.534   1.284   1.449 -0.5437 -0.4669  0.2543
    3CHTO  H227  850   8.577   1.256   1.546 -0.3971 -1.3269 -0.0557
    3CHTO   O77  851   8.448   1.399   1.474 -0.0956 -0.4384  0.3553
    3CHTO  C118  852   8.337   1.387   1.562 -0.8843 -0.2949  0.7628
    3CHTO  H222  853   8.369   1.350   1.661 -0.2203 -0.6532  0.4145
    3CHTO  C125  854   8.272   1.531   1.590  0.4955 -0.5125 -0.0315
    3CHTO   O84  855   8.369   1.606   1.657 -0.6335  0.2137  0.4219
    3CHTO  H205  856   8.347   1.696   1.643  0.5078  0.2180 -1.5887
    3CHTO  C114  857   8.239   1.287   1.501 -0.4499  0.4651 -0.2044
    3CHTO  H218  858   8.201   1.332   1.410  0.1370  0.0930 -0.6337
    3CHTO  C116  859   8.315   1.151   1.467 -0.2461 -0.1520 -0.1600
    3CHTO  H220  860   8.327   1.095   1.562  2.8975 -0.4687 -0.6838
    3CHTO   O79  861   8.211   1.078   1.397  0.1982  1.1058  0.0684
    3CHTO  H201  862   8.251   1.016   1.340  1.4162  0.7355  1.2914
    3CHTO  C120  863   8.443   1.172   1.383 -0.2417 -0.0565  0.8789
    3CHTO  H224  864   8.408   1.200   1.282 -2.7738 -0.4393  1.6203
    3CHTO   N21  865   8.508   1.038   1.370 -0.1306 -0.4240 -0.4276
    3CHTO  H211  866   8.567   1.033   1.280 -2.1829  0.3385 -1.8787
    3CHTO  H212  867   8.559   1.022   1.464 -2.1182 -0.2433  0.7273
    3CHTO   O75  868   8.143   1.268   1.597 -0.3445 -0.0264  0.2774
    3CHTO  C112  869   7.987   1.266   1.525  0.0918  0.7625  0.2151
    3CHTO  H216  870   7.995   1.229   1.422  1.0567  0.2596  0.4651
    3CHTO   O73  871   7.934   1.401   1.527  0.0315 -0.1082 -0.2525
    3CHTO  C113  872   7.793   1.410   1.486  0.9916 -0.1675  0.2230
    3CHTO  H217  873   7.787   1.365   1.385  2.3367  0.1138  0.0071
    3CHTO  C124  874   7.753   1.559   1.489 -0.0485  0.5841 -0.1590
    3CHTO   O83  875   7.754   1.617   1.618  0.2728 -0.0529  0.6248
    3CHTO  H204  876   7.679   1.585   1.664 -2.4426  2.7622 -1.6257
    3CHTO  C109  877   7.695   1.332   1.570  0.2577  1.0131 -0.8341
    3CHTO  H213  878   7.698   1.374   1.672 -1.4603  0.5621 -0.5845
    3CHTO  C110  879   7.745   1.180   1.577 -0.1972  0.4998 -0.3173
    3CHTO  H214  880   7.720   1.134   1.482 -2.5278  1.7746 -0.3508
    3CHTO   O78  881   7.668   1.110   1.681 -0.3805  0.0008 -0.5002
    3CHTO  H200  882   7.677   1.151   1.765  0.2924  0.5714 -0.8452
    3CHTO  C111  883   7.900   1.166   1.612  0.4553 -0.3114 -0.3720
    3CHTO  H215  884   7.911   1.190   1.719 -0.3445 -0.7051 -0.1977
    3CHTO   N19  885   7.943   1.025   1.599  0.1559 -0.0327 -0.1496
    3CHTO  H207  886   8.049   1.027   1.617  0.1548 -0.4340 -0.0817
    3CHTO  H208  887   7.894   0.959   1.669 -2.4131  0.5492 -1.3337
    3CHTO   O74  888   7.564   1.344   1.512 -0.1546  0.2295  0.2022
    3CHTO  C115  889   7.431   1.344   1.616 -0.4018 -0.5025  0.0694
    3CHTO  H219  890   7.456   1.313   1.717  0.0211  2.7095  1.0045
    3CHTO   O76  891   7.371   1.497   1.633  0.0379  0.3299 -0.7111
    3CHTO  C122  892   7.239   1.505   1.682 -0.2966  0.0672 -0.0596
    3CHTO  H226  893   7.219   1.611   1.665 -1.6770 -0.1250  0.3200
    3CHTO  C126  894   7.231   1.481   1.839 -0.1522 -0.2526 -0.1765
    3CHTO   O85  895   7.102   1.495   1.902  0.2111 -0.0790  0.1482
    3CHTO  H206  896   7.055   1.568   1.867 -1.3666 -1.1370  0.0034
    3CHTO  C121  897   7.138   1.413   1.600 -0.1371  0.2627  0.0066
    3CHTO  H225  898   7.041   1.423   1.654 -0.5224 -0.8581 -0.4483
    3CHTO   O81  899   7.119   1.468   1.468 -0.0860 -0.0778 -0.1461
    3CHTO  H202  900   7.072   1.409   1.411  1.4790 -0.5048 -1.0285
    3CHTO  C119  901   7.181   1.266   1.613  0.8412  0.3519 -0.6454
    3CHTO  H223  902   7.197   1.243   1.718 -0.3247 -0.5989 -0.6567
    3CHTO  C117  903   7.321   1.245   1.552 -0.7118 -0.5322  0.0211
    3CHTO  H221  904   7.326   1.274   1.447  2.5938 -2.3511 -0.3803
    3CHTO   N20  905   7.364   1.106   1.550  0.6718  0.3506 -0.4044
    3CHTO  H209  906   7.459   1.097   1.601  0.5078  0.9989  0.0287
    3CHTO  H210  907   7.386   1.064   1.453 -2.6914 -1.1943 -0.5601
    3CHTO   O80  908   7.072   1.166   1.570 -0.1040  0.0101  0.5369
    3CHTO  C103  909   6.935   1.171   1.637 -0.3772  0.2887  0.6183
    3CHTO  H190  910   6.931   1.226   1.731 -2.2811 -0.2914  0.8900
    3CHTO  C101  911   6.821   1.229   1.549 -0.5627 -0.3571 -0.0638
    3CHTO  H188  912   6.844   1.200   1.446  3.8037 -0.4661  0.8821
    3CHTO   O68  913   6.824   1.381   1.564  0.5408 -0.1251 -0.0539
    3CHTO  H168  914   6.896   1.419   1.517 -1.0416  0.0454 -2.4390
    3CHTO   C99  915   6.676   1.175   1.581  0.1279  0.0578  0.0750
    3CHTO  H186  916   6.632   1.217   1.674 -1.4291  0.2268 -0.7128
    3CHTO   N17  917   6.570   1.214   1.480 -0.3588  0.0263 -0.0166
    3CHTO  H174  918   6.477   1.183   1.527  0.2289  0.1233  1.2394
    3CHTO  H175  919   6.576   1.318   1.452  1.6517 -0.1108 -0.1048
    3CHTO   C97  920   6.677   1.023   1.601 -1.2879 -0.2845  0.2170
    3CHTO  H184  921   6.706   0.977   1.505 -1.1395 -0.8727  0.5421
    3CHTO   O64  922   6.772   0.992   1.709 -0.0264  0.2895 -0.5601
    3CHTO  C104  923   6.906   1.020   1.675  0.0402  0.1913  0.1397
    3CHTO  H191  924   6.933   0.962   1.586  0.0019 -1.5086  1.2209
    3CHTO  C108  925   7.003   0.978   1.792 -0.1627 -0.4869  0.4571
    3CHTO   O71  926   6.995   0.833   1.800 -0.1226 -0.4828  0.9794
    3CHTO  H171  927   6.931   0.806   1.863 -3.6246  2.7582 -0.9742
    3CHTO   O62  928   6.551   0.981   1.653 -0.5819 -1.1103  0.2794
    3CHTO   C91  929   6.502   0.855   1.613 -0.2654  0.6632  0.5736
    3CHTO  H178  930   6.539   0.844   1.511  0.8542  0.1897  1.0205
    3CHTO   C92  931   6.351   0.876   1.603  0.4619  0.1795  0.5281
    3CHTO  H179  932   6.306   0.914   1.696 -0.6760 -0.5783  0.3001
    3CHTO   O66  933   6.326   0.972   1.507  0.3439 -0.2675  0.0090
    3CHTO  H166  934   6.239   0.978   1.474  1.2770 -0.2230 -2.5832
    3CHTO   C93  935   6.281   0.736   1.568  0.2236 -0.6187 -0.3367
    3CHTO  H180  936   6.322   0.715   1.468  0.9698 -0.3887 -0.0751
    3CHTO   N16  937   6.139   0.748   1.552  0.1628 -0.2330  0.3702
    3CHTO  H172  938   6.092   0.652   1.537  0.8833 -0.6022  0.4843
    3CHTO  H173  939   6.095   0.794   1.639 -0.2165  1.2486 -0.5868
    3CHTO   C94  940   6.324   0.624   1.666 -0.3591  0.5406 -0.4973
    3CHTO  H181  941   6.246   0.601   1.738 -0.7015 -1.3436 -1.4419
    3CHTO   O61  942   6.437   0.655   1.747  0.0758  0.1411  0.1213
    3CHTO   C95  943   6.542   0.735   1.691  1.0436 -0.8125  0.8928
    3CHTO  H182  944   6.605   0.777   1.769 -0.7481  0.5520  1.6216
    3CHTO  C106  945   6.637   0.637   1.612 -0.7277 -0.1408  0.1001
    3CHTO   O69  946   6.738   0.690   1.521  0.3913  0.6234  0.0500
    3CHTO  H169  947   6.691   0.736   1.454 -2.2439 -1.6983  0.2397
    3CHTO   O63  948   6.365   0.495   1.571  0.0737  0.1755 -0.5565
    3CHTO   C96  949   6.268   0.361   1.571  0.0188  0.6586 -0.4672
    3CHTO  H183  950   6.310   0.293   1.498 -0.3287 -0.1272  0.0526
    3CHTO   C98  951   6.114   0.373   1.544 -0.2117 -0.9987 -0.3343
    3CHTO  H185  952   6.067   0.444   1.614  2.5395 -1.2107  1.7957
    3CHTO   O67  953   6.104   0.437   1.419  0.1044  0.2603  0.2874
    3CHTO  H167  954   6.073   0.525   1.428  0.0887  0.2057  0.7990
    3CHTO  C102  955   6.036   0.238   1.551  0.1835  0.0681  0.5700
    3CHTO  H189  956   6.073   0.181   1.464  1.1014  0.5281  0.6491
    3CHTO   N18  957   5.889   0.244   1.533 -0.1488  0.2850  0.0928
    3CHTO  H176  958   5.835   0.317   1.592 -0.9442  0.2703 -0.6102
    3CHTO  H177  959   5.858   0.272   1.433 -1.5395 -1.2234  0.0678
    3CHTO  C105  960   6.071   0.162   1.682 -0.0629 -0.5925 -0.1254
    3CHTO  H192  961   6.035   0.217   1.770  1.9296  1.6902 -0.6756
    3CHTO   O65  962   6.221   0.156   1.685 -0.1839 -0.4367  0.4821
    3CHTO  C100  963   6.282   0.287   1.699  0.9162  0.1788  0.6148
    3CHTO  H187  964   6.233   0.353   1.772 -0.5983 -0.6417  0.3553
    3CHTO  C107  965   6.431   0.259   1.741  0.5744 -0.6624  0.6579
    3CHTO   O70  966   6.502   0.160   1.664 -0.0614 -0.3629 -0.1012
    3CHTO  H170  967   6.594   0.155   1.681  0.3097  1.9930 -1.1848
    3CHTO   O57  968   6.010   0.012   1.682  0.2658 -0.1088 -0.2070
    3CHTO   C85  969   5.994  -0.062   1.805  0.5100 -0.2890 -0.3629
    3CHTO  H157  970   6.000  -0.158   1.749  3.0095  0.2095 -1.0117
    3CHTO   C83  971   5.855  -0.032   1.869  0.3242  0.4293 -0.2826
    3CHTO  H155  972   5.779  -0.056   1.795  0.6993 -0.5140 -0.3640
    3CHTO   O56  973   5.842   0.112   1.888 -0.3402  0.6014 -0.6062
    3CHTO  H135  974   5.761   0.123   1.934  0.4488  3.6058  0.2228
    3CHTO   C81  975   5.837  -0.119   1.992 -0.4885 -0.3502 -0.5508
    3CHTO  H153  976   5.856  -0.222   1.959 -2.1965 -0.4449 -1.2741
    3CHTO   N14  977   5.695  -0.116   2.029 -0.0666 -0.2139  0.2813
    3CHTO  H141  978   5.628  -0.134   1.948  1.1379 -0.6659 -0.6298
    3CHTO  H142  979   5.659  -0.166   2.117  0.6669 -1.1984  0.0310
    3CHTO   C79  980   5.941  -0.074   2.103  0.0069 -0.3737  0.1422
    3CHTO  H151  981   5.905  -0.117   2.196  1.6032  1.0063  1.4173
    3CHTO   O52  982   6.074  -0.117   2.050  0.1421  0.1433  0.1042
    3CHTO   C86  983   6.113  -0.051   1.922 -0.0562 -0.0218 -0.5003
    3CHTO  H158  984   6.128   0.054   1.954  0.7860 -1.1984  3.1819
    3CHTO   C90  985   6.249  -0.103   1.881 -0.0111 -0.1759  0.4160
    3CHTO   O60  986   6.253  -0.223   1.803 -0.0397  0.8288 -0.2483
    3CHTO  H138  987   6.213  -0.298   1.842  1.9112 -0.2116 -0.2087
    3CHTO   O50  988   5.940   0.069   2.131  0.7653 -0.1308  0.0044
    3CHTO   C73  989   5.949   0.152   2.247  0.1380 -0.2071  0.1874
    3CHTO  H145  990   6.031   0.126   2.315 -1.9192 -0.3621  2.6616
    3CHTO   C74  991   5.816   0.152   2.326 -0.4126 -0.0960 -0.1065
    3CHTO  H146  992   5.800   0.047   2.357 -2.6226  0.0626 -0.5627
    3CHTO   O54  993   5.832   0.229   2.447 -0.0043 -0.0053  0.9008
    3CHTO  H133  994   5.749   0.232   2.491  0.4325 -0.6388  1.7969
    3CHTO   C75  995   5.695   0.198   2.230 -0.4138  0.0119  0.2624
    3CHTO  H147  996   5.693   0.130   2.144 -0.2131  0.8397 -0.4016
    3CHTO   N13  997   5.558   0.192   2.287  0.3592 -0.0561  0.1716
    3CHTO  H139  998   5.487   0.189   2.205  2.3236  1.9997 -1.6649
    3CHTO  H140  999   5.548   0.113   2.360  1.2420 -1.4040 -1.1289
    3CHTO   C76 1000   5.737   0.346   2.187 -0.1258 -0.3787  0.7770
    3CHTO  H148 1001   5.740   0.401   2.281  3.2749  2.7734 -1.0523
    3CHTO   O49 1002   5.866   0.357   2.125 -0.7382  0.5992  0.5817
    3CHTO   C77 1003   5.975   0.298   2.190  0.6746  0.5881 -0.0916
    3CHTO  H149 1004   5.992   0.370   2.270 -0.0200  0.0709  0.5331
    3CHTO   C88 1005   6.102   0.308   2.098 -0.1261  0.0130  0.6156
    3CHTO   O58 1006   6.207   0.284   2.161 -0.5992 -0.0782  0.3316
    3CHTO  H136 1007   6.283   0.266   2.109 -0.7325 -0.9508  0.4257
    3CHTO   O51 1008   5.620   0.415   2.068 -1.0090 -0.1524 -0.4853
    3CHTO   C78 1009   5.648   0.563   2.040 -1.0694 -0.0646  0.1814
    3CHTO  H150 1010   5.746   0.596   2.081 -0.8031 -1.9915  1.1372
    3CHTO   C80 1011   5.535   0.652   2.101 -0.1645  0.1339  0.2347
    3CHTO  H152 1012   5.437   0.619   2.059  0.8350  0.8846 -2.8398
    3CHTO   O55 1013   5.534   0.631   2.243 -0.0897 -0.2570 -0.4778
    3CHTO  H134 1014   5.462   0.677   2.282 -0.8284 -2.6536  1.1362
    3CHTO   C84 1015   5.565   0.804   2.071 -0.1475 -0.0179 -0.7204
    3CHTO  H156 1016   5.655   0.827   2.129 -1.2966 -0.4924  1.3034
    3CHTO   N15 1017   5.463   0.905   2.129 -0.0145 -0.0875 -0.3954
    3CHTO  H143 1018   5.379   0.851   2.168 -1.1494  1.4804 -0.6067
    3CHTO  H144 1019   5.505   0.960   2.210 -2.9503 -0.4841  1.4677
    3CHTO   C87 1020   5.587   0.834   1.921 -0.4537 -0.2247 -1.0954
    3CHTO  H159 1021   5.498   0.822   1.859  0.9546  0.4917 -3.3013
    3CHTO   O53 1022   5.704   0.728   1.875 -0.6175  0.1304 -0.4500
    3CHTO   C82 1023   5.672   0.592   1.893  0.4848  0.8498  0.1335
    3CHTO  H154 1024   5.579   0.573   1.839  0.3542  3.1955 -0.5220
    3CHTO   C89 1025   5.778   0.508   1.826 -0.2055 -0.1612 -0.3456
    3CHTO   O59 1026   5.761   0.526   1.687  0.4477  0.1224 -0.6535
    3CHTO  H137 1027   5.790   0.447   1.646 -1.6238 -0.5913 -0.7935
    3CHTO   O45 1028   5.639   0.986   1.886 -0.1272 -0.5505 -0.3890
    3CHTO   C67 1029   5.773   1.012   1.885  0.3497  1.1026 -0.5833
    3CHTO  H124 1030   5.836   0.929   1.918 -0.7778  0.7985  0.8465
    3CHTO   C65 1031   5.809   1.051   1.734 -0.9961  0.8003  0.8158
    3CHTO  H122 1032   5.711   1.078   1.694 -0.6840 -2.5528 -2.5637
    3CHTO   O44 1033   5.845   0.923   1.672  0.3330 -0.1244 -0.5166
    3CHTO  H102 1034   5.866   0.941   1.582  0.6541 -3.2457 -1.1115
    3CHTO   C63 1035   5.920   1.166   1.721 -0.1671  0.3818  0.2759
    3CHTO  H120 1036   5.875   1.264   1.738 -0.5544  0.2756 -0.1324
    3CHTO   N11 1037   5.990   1.181   1.585  0.4007 -0.0991 -0.1257
    3CHTO  H108 1038   5.995   1.284   1.557 -0.7932  0.0511  0.1892
    3CHTO  H109 1039   6.082   1.127   1.589 -0.7284 -1.9690  1.2501
    3CHTO   C61 1040   6.027   1.151   1.839  0.1924 -0.1168 -0.3740
    3CHTO  H118 1041   6.094   1.238   1.838  1.7317 -1.2735  0.1735
    3CHTO   O40 1042   5.953   1.156   1.972 -0.3058 -0.2255  0.1855
    3CHTO   C68 1043   5.812   1.133   1.983  0.1646 -0.2820 -0.1244
    3CHTO  H125 1044   5.749   1.219   1.953 -0.5716 -0.7678  0.0236
    3CHTO   C72 1045   5.782   1.099   2.132 -0.3945 -1.1543 -0.5016
    3CHTO   O48 1046   5.846   1.187   2.228  0.3946  0.2014 -0.1158
    3CHTO  H105 1047   5.824   1.276   2.208  0.9458  0.5020  0.5963
    3CHTO   O38 1048   6.105   1.030   1.841  0.1482 -0.3702 -0.2473
    3CHTO   C55 1049   6.190   0.997   1.953 -0.1098 -0.4006  0.8210
    3CHTO  H112 1050   6.132   1.026   2.042 -1.6135 -1.8153  0.3271
    3CHTO   C56 1051   6.326   1.080   1.938  0.3224 -0.0459  0.3762
    3CHTO  H113 1052   6.357   1.071   1.833  1.5746 -0.1594  0.7516
    3CHTO   O42 1053   6.296   1.219   1.953  0.2316 -0.4019  0.5141
    3CHTO  H100 1054   6.226   1.242   1.894 -0.6101  1.0977  2.0590
    3CHTO   C57 1055   6.433   1.021   2.037 -0.6243 -0.1140  0.3014
    3CHTO  H114 1056   6.399   1.057   2.134  0.8786 -1.1688  1.2573
    3CHTO   N10 1057   6.569   1.085   2.032 -0.2585  0.0687 -0.1919
    3CHTO  H106 1058   6.640   1.004   2.018 -0.8111 -0.4176 -0.2240
    3CHTO  H107 1059   6.598   1.141   2.120  0.0387  2.6635 -1.8969
    3CHTO   C58 1060   6.438   0.864   2.039 -0.0951 -0.5762  0.4437
    3CHTO  H115 1061   6.466   0.824   1.940  1.7422 -2.1627  1.5863
    3CHTO   O37 1062   6.302   0.824   2.076  0.0059 -0.8075 -0.6085
    3CHTO   C59 1063   6.204   0.839   1.974 -0.0610 -0.1644 -0.0360
    3CHTO  H116 1064   6.222   0.789   1.879  1.3406  0.4279 -0.1069
    3CHTO   C70 1065   6.066   0.789   2.021  0.1722  0.6911  0.2904
    3CHTO   O46 1066   6.062   0.645   2.029  0.3414  0.1023 -0.2885
    3CHTO  H103 1067   5.983   0.619   2.073 -2.1458  2.5904 -3.0606
    3CHTO   O39 1068   6.536   0.795   2.143  0.2205  0.3196  0.5932
    3CHTO   C60 1069   6.554   0.656   2.107  0.3716  0.2554  0.1501
    3CHTO  H117 1070   6.474   0.627   2.039  0.9132 -1.5162  0.2419
    3CHTO   C62 1071   6.698   0.638   2.038  0.1131  0.8391 -0.6240
    3CHTO  H119 1072   6.697   0.681   1.935 -1.1195  1.4113 -0.3843
    3CHTO   O43 1073   6.807   0.697   2.113 -0.6880  0.5573 -0.3253
    3CHTO  H101 1074   6.806   0.659   2.198  1.8159  1.0312 -0.0642
    3CHTO   C66 1075   6.731   0.477   2.015  0.1886  0.2814 -0.5993
    3CHTO  H123 1076   6.650   0.438   1.954 -0.0678 -0.8989  0.4907
    3CHTO   N12 1077   6.860   0.457   1.945  0.1422  0.2762 -0.6025
    3CHTO  H110 1078   6.879   0.354   1.918 -0.6307  0.1504 -0.6762
    3CHTO  H111 1079   6.880   0.526   1.864  1.2440 -0.3490 -0.8718
    3CHTO   C69 1080   6.723   0.404   2.156  0.3000 -0.4418 -0.1006
    3CHTO  H126 1081   6.800   0.442   2.226 -1.0261 -1.3316  1.8926
    3CHTO   O41 1082   6.574   0.441   2.220 -0.7888  0.1903  0.0614
    3CHTO   C64 1083   6.539   0.569   2.237  0.3797  0.3291 -0.1616
    3CHTO  H121 1084   6.608   0.603   2.317  0.1199  1.6110 -0.4687
    3CHTO   C71 1085   6.397   0.581   2.301  0.0578  0.1066 -0.2826
    3CHTO   O47 1086   6.372   0.715   2.351  0.0216  0.3211 -0.4435
    3CHTO  H104 1087   6.339   0.765   2.279  2.1532  0.0935 -1.6156
    3CHTO   O34 1088   6.742   0.243   2.153 -0.3125 -0.2491  0.0660
    3CHTO   C49 1089   6.788   0.122   2.077  0.1309 -0.1332  0.0856
    3CHTO   H91 1090   6.862   0.152   2.003  0.5780 -1.2132  0.0798
    3CHTO   C47 1091   6.671   0.075   1.991 -0.5857  0.0899  0.2590
    3CHTO   H89 1092   6.664   0.149   1.909 -1.8679 -1.3554 -0.9831
    3CHTO   O33 1093   6.550   0.081   2.068  0.6018 -0.0470 -0.3874
    3CHTO   H70 1094   6.492   0.018   2.031  2.7073 -2.2754 -0.0589
    3CHTO   C45 1095   6.694  -0.083   1.948 -0.5210  0.7067  0.4650
    3CHTO   H87 1096   6.669  -0.146   2.035  2.1168 -0.2219  0.6112
    3CHTO    N8 1097   6.607  -0.129   1.831 -0.4291 -0.4263 -0.2101
    3CHTO   H75 1098   6.574  -0.039   1.782 -3.4182 -2.4860 -2.1125
    3CHTO   H76 1099   6.685  -0.167   1.767  2.2113  3.5135  0.4578
    3CHTO   C43 1100   6.861  -0.123   1.952  0.0573  0.0841 -0.0160
    3CHTO   H85 1101   6.865  -0.229   1.928  2.8627 -0.5815  2.9806
    3CHTO   O29 1102   6.902  -0.096   2.087  0.2210 -0.1325 -0.0697
    3CHTO   C50 1103   6.844   0.011   2.160  0.0413 -0.3196  0.7568
    3CHTO   H92 1104   6.769  -0.035   2.226 -0.2114 -3.2046 -1.4388
    3CHTO   C54 1105   6.948   0.076   2.254 -0.9380 -0.5856  0.3761
    3CHTO   O36 1106   7.008   0.004   2.364 -0.2554  0.5925 -0.2763
    3CHTO   H72 1107   7.100   0.012   2.380 -0.8162  0.2159  3.5273
    3CHTO   O27 1108   6.932  -0.044   1.855 -0.3354 -0.1602 -0.1089
    3CHTO   C37 1109   7.041   0.038   1.826 -0.3881 -0.0160 -0.4734
    3CHTO   H79 1110   7.046   0.132   1.884  1.7326 -1.0871  1.1451
    3CHTO   C38 1111   7.178  -0.029   1.854 -0.4042  0.4189 -0.3208
    3CHTO   H80 1112   7.177  -0.129   1.809  0.5646 -0.1118  0.8097
    3CHTO   O31 1113   7.198  -0.053   1.995 -0.4995  0.1663 -0.6100
    3CHTO   H68 1114   7.226  -0.141   2.012 -0.8906 -0.3072 -2.3770
    3CHTO   C39 1115   7.294   0.062   1.796  0.3763 -0.0493 -0.2967
    3CHTO   H81 1116   7.305   0.153   1.855  0.5399 -0.1076 -0.2349
    3CHTO    N7 1117   7.427  -0.017   1.804  0.4330 -0.4203 -0.3715
    3CHTO   H73 1118   7.514   0.045   1.791 -1.2381  2.4514  1.5958
    3CHTO   H74 1119   7.419  -0.056   1.904  0.1528  0.6544  0.0276
    3CHTO   C40 1120   7.264   0.107   1.645  0.3886  0.5887 -0.9194
    3CHTO   H82 1121   7.271   0.013   1.590  0.1953  0.0111  0.0189
    3CHTO   O26 1122   7.132   0.163   1.634  0.3169 -0.1940 -0.5441
    3CHTO   C41 1123   7.026   0.076   1.677  0.7110 -0.2755  0.7812
    3CHTO   H83 1124   7.033  -0.024   1.632  2.1366  0.4646 -0.6776
    3CHTO   C52 1125   6.889   0.135   1.635  0.0965 -0.0270 -0.3599
    3CHTO   O35 1126   6.846   0.240   1.705 -0.0704 -0.2442 -0.9095
    3CHTO   H71 1127   6.916   0.293   1.737  0.5286 -0.2056 -2.2622
    3CHTO   O28 1128   7.366   0.203   1.613  0.1707  0.4136  1.1204
    3CHTO   C42 1129   7.361   0.321   1.518  0.2496  0.7772  0.0594
    3CHTO   H84 1130   7.462   0.320   1.476 -0.1524 -0.8084 -0.9234
    3CHTO   C44 1131   7.336   0.456   1.597 -0.6225  0.3814  0.3052
    3CHTO   H86 1132   7.233   0.458   1.632 -0.7788 -0.0196 -0.1336
    3CHTO   O32 1133   7.433   0.459   1.704  0.1906  0.2250 -0.2598
    3CHTO   H69 1134   7.423   0.384   1.761  1.4779  0.1790 -0.0767
    3CHTO   C48 1135   7.353   0.585   1.512  0.1378  0.2417 -0.1591
    3CHTO   H90 1136   7.450   0.594   1.463 -0.2355 -0.3443 -1.0301
    3CHTO    N9 1137   7.334   0.717   1.590 -0.1534  0.0786  0.5358
    3CHTO   H77 1138   7.230   0.715   1.620 -0.2340  0.4849  0.2931
    3CHTO   H78 1139   7.406   0.716   1.671 -1.1232  0.2777  1.4162
    3CHTO   C51 1140   7.260   0.565   1.379 -0.6137 -0.1852 -0.6458
    3CHTO   H93 1141   7.155   0.559   1.408 -0.4657  0.9811  0.1157
    3CHTO   O30 1142   7.302   0.444   1.302 -0.3657  0.0473  0.4725
    3CHTO   C46 1143   7.260   0.315   1.395 -0.3888  0.2530 -0.0564
    3CHTO   H88 1144   7.159   0.326   1.434 -0.2025 -0.2734  0.5915
    3CHTO   C53 1145   7.286   0.180   1.319 -0.1124  0.3181 -0.0783
    3CHTO   O72 1146   7.416   0.150   1.273 -0.2056 -0.4752  0.4188
    3CHTO  H199 1147   7.453   0.211   1.212 -4.3414  0.9932 -0.8248
    3CHTO   O22 1148   7.278   0.683   1.299 -0.3570  0.3806 -0.3004
    3CHTO   C31 1149   7.182   0.724   1.194  0.4953 -0.1302  0.5745
    3CHTO   H59 1150   7.137   0.631   1.153 -1.7708  1.7479 -1.3971
    3CHTO   C29 1151   7.065   0.806   1.254  0.4805  0.8459  0.3315
    3CHTO   H57 1152   7.101   0.886   1.321  1.1182  0.4678  0.4508
    3CHTO   O21 1153   6.991   0.720   1.339  0.3678  0.4104 -0.1797
    3CHTO   H37 1154   7.047   0.681   1.404 -2.1216 -1.9951  0.6070
    3CHTO   C27 1155   6.969   0.871   1.142 -0.5063  0.2916  0.1294
    3CHTO   H55 1156   6.919   0.789   1.089 -0.1959  0.7813 -0.9225
    3CHTO    N5 1157   6.866   0.955   1.206  0.4084 -0.0960  0.0503
    3CHTO   H43 1158   6.880   1.061   1.224  0.2445 -0.0240 -0.2486
    3CHTO   H44 1159   6.774   0.944   1.151  0.1135  0.6636  0.3793
    3CHTO   C25 1160   7.060   0.941   1.037 -1.5427  0.0070 -0.1165
    3CHTO   H53 1161   7.117   1.018   1.091 -2.6090  0.4897  0.3174
    3CHTO   O17 1162   7.144   0.829   0.981  0.3179  0.5819 -0.2600
    3CHTO   C32 1163   7.253   0.787   1.070 -0.1494 -0.2431 -0.0371
    3CHTO   H60 1164   7.310   0.874   1.104  0.8070 -0.9010  0.0800
    3CHTO   C36 1165   7.340   0.698   0.985 -0.3542 -0.0859 -0.0088
    3CHTO   O25 1166   7.444   0.631   1.063  0.3034  0.0778  0.2923
    3CHTO   H40 1167   7.493   0.578   1.002 -0.1201  2.3439 -2.1171
    3CHTO   O15 1168   6.967   1.008   0.928 -0.1719 -0.0673 -0.2926
    3CHTO   C19 1169   6.932   1.103   0.827  0.4911 -0.5270  0.3335
    3CHTO   H47 1170   6.887   1.044   0.746  1.1847  1.5996 -1.6733
    3CHTO   C20 1171   6.836   1.217   0.875 -0.0479  0.1282  0.1466
    3CHTO   H48 1172   6.880   1.272   0.960 -1.7080  2.1445 -0.2588
    3CHTO   O19 1173   6.714   1.152   0.926 -0.3290 -0.1769 -0.1223
    3CHTO   H35 1174   6.634   1.189   0.893  0.3232  1.3022 -0.0702
    3CHTO   C21 1175   6.815   1.325   0.765 -0.1424  0.5367  0.1165
    3CHTO   H49 1176   6.747   1.281   0.691  0.8608  0.8789 -1.0167
    3CHTO    N4 1177   6.737   1.438   0.814  0.1595 -0.6106  0.3833
    3CHTO   H41 1178   6.794   1.520   0.857  1.3644 -1.4636  0.4271
    3CHTO   H42 1179   6.666   1.477   0.743 -1.2564 -1.4412  1.3067
    3CHTO   C22 1180   6.941   1.366   0.697  0.2480 -0.5472  0.7920
    3CHTO   H50 1181   7.001   1.424   0.767  1.2119  0.3389 -0.7414
    3CHTO   O14 1182   7.021   1.252   0.658  0.7791 -0.0996 -0.1136
    3CHTO   C23 1183   7.068   1.166   0.763  0.1057  0.2623  0.0969
    3CHTO   H51 1184   7.125   1.225   0.835 -0.8861 -0.0330  1.1489
    3CHTO   C34 1185   7.143   1.047   0.695 -0.1672 -1.1020  0.4800
    3CHTO   O23 1186   7.251   1.097   0.612  0.2239  0.2372 -0.5433
    3CHTO   H38 1187   7.300   1.024   0.581 -1.2605 -1.9861  2.1561
    3CHTO   O16 1188   6.911   1.438   0.578  0.3245 -0.3779  0.0384
    3CHTO   C24 1189   7.014   1.547   0.545 -0.2848 -0.2847  0.0753
    3CHTO   H52 1190   7.100   1.550   0.611  0.2582  0.3968 -0.6465
    3CHTO   C26 1191   6.931   1.683   0.545  1.1156  0.5262 -0.0124
    3CHTO   H54 1192   6.855   1.682   0.464  1.3439  1.6252 -0.2548
    3CHTO   O20 1193   6.883   1.714   0.676  0.3154  0.0323 -0.3561
    3CHTO   H36 1194   6.842   1.635   0.707  0.5044  0.4884  1.0930
    3CHTO   C30 1195   7.017   1.806   0.507  0.2855  0.7225  0.1628
    3CHTO   H58 1196   7.086   1.822   0.591  0.7472 -0.4721  0.0236
    3CHTO    N6 1197   6.940   1.938   0.496  0.3564 -0.2706 -0.3895
    3CHTO   H45 1198   6.879   1.950   0.408 -0.7512  0.3844  0.4597
    3CHTO   H46 1199   7.010   2.017   0.518 -0.8356  0.3919  1.0958
    3CHTO   C33 1200   7.101   1.778   0.376 -0.1120 -0.7733 -1.3902
    3CHTO   H61 1201   7.029   1.782   0.294 -1.3145 -0.7119 -0.3454
    3CHTO   O18 1202   7.166   1.648   0.374 -0.5691  0.1594 -0.3245
    3CHTO   C28 1203   7.078   1.532   0.400  1.3970 -0.3560  0.1048
    3CHTO   H56 1204   6.995   1.525   0.330 -0.1364  0.7767  1.7790
    3CHTO   C35 1205   7.158   1.398   0.389  0.1509  0.4981 -0.3307
    3CHTO   O24 1206   7.075   1.281   0.371 -0.0020  0.2487 -0.4461
    3CHTO   H39 1207   7.129   1.212   0.338 -0.6916 -0.3134 -0.4076
    3CHTO    O9 1208   7.201   1.884   0.353  0.4984 -0.3144 -0.3058
    3CHTO   C13 1209   7.334   1.890   0.452  0.7777  0.7659  1.1813
    3CHTO   H26 1210   7.302   1.877   0.558  0.5126 -3.2945  0.6611
    3CHTO   C11 1211   7.395   2.036   0.424  0.2852  0.4739  0.5943
    3CHTO   H24 1212   7.311   2.101   0.453  0.1475 -0.3770  2.1090
    3CHTO    O8 1213   7.417   2.046   0.284 -0.4927 -0.1001  0.4166
    3CHTO    H3 1214   7.341   2.079   0.239 -1.6823  1.1520  3.2006
    3CHTO    C9 1215   7.521   2.050   0.511  0.7225  0.4165 -0.5075
    3CHTO   H22 1216   7.491   2.024   0.613  1.7741  0.7805 -0.1016
    3CHTO    N2 1217   7.579   2.186   0.525  0.2809  0.4764  0.2706
    3CHTO   H10 1218   7.499   2.253   0.500 -2.6237 -2.5689  1.1220
    3CHTO   H11 1219   7.619   2.210   0.623  0.5629 -0.6812  0.4511
    3CHTO    C7 1220   7.621   1.942   0.473 -0.9504 -0.1075  0.2535
    3CHTO   H20 1221   7.693   1.944   0.557  1.1059  0.2116 -1.4620
    3CHTO    O4 1222   7.565   1.809   0.474 -0.3671 -0.0982  0.1316
    3CHTO   C14 1223   7.436   1.774   0.431 -0.5848  0.3815  0.9736
    3CHTO   H27 1224   7.396   1.684   0.483  0.3659 -0.2593  0.6084
    3CHTO   C18 1225   7.432   1.744   0.279 -0.0114  0.0701  0.2389
    3CHTO   O13 1226   7.518   1.633   0.253 -0.0271 -0.4480  0.3666
    3CHTO    H7 1227   7.476   1.573   0.195  0.2492  2.0028 -2.4962
    3CHTO    O2 1228   7.695   1.959   0.321 -0.3957 -0.2853  0.1385
    3CHTO    C1 1229   7.778   1.852   0.274 -0.5943 -0.0396  0.8539
    3CHTO   H14 1230   7.734   1.753   0.297  1.7288 -1.3509 -0.1842
    3CHTO    C2 1231   7.922   1.861   0.350  0.6653 -0.1824  0.1673
    3CHTO   H15 1232   7.962   1.957   0.316 -0.9534 -0.1033 -1.5982
    3CHTO    O6 1233   7.910   1.859   0.497  0.9118 -0.1633 -0.5768
    3CHTO    H1 1234   7.981   1.908   0.533 -1.7469  2.0398  1.8786
    3CHTO    C3 1235   8.019   1.752   0.283 -0.3481  0.4237  0.5228
    3CHTO   H16 1236   7.981   1.653   0.313  3.2288 -0.1340  3.4699
    3CHTO    N1 1237   8.157   1.760   0.330  0.3246 -0.2861  0.4237
    3CHTO    H8 1238   8.202   1.663   0.315  0.3869 -0.3541  1.0580
    3CHTO    H9 1239   8.216   1.831   0.273 -4.6627  1.2472 -3.1627
    3CHTO    C4 1240   8.015   1.759   0.127  0.1744 -0.3689 -0.2691
    3CHTO   H17 1241   8.082   1.838   0.090 -1.5204  2.2816  2.1243
    3CHTO    O1 1242   7.884   1.769   0.069  0.3347 -0.1320  0.3570
    3CHTO    C5 1243   7.795   1.872   0.122  0.4123  0.5365  0.2306
    3CHTO   H18 1244   7.836   1.973   0.126  0.4854  0.4992  0.4531
    3CHTO   C16 1245   7.666   1.879   0.040 -0.6962 -0.2038  0.1421
    3CHTO   O11 1246   7.607   2.004   0.061  0.4556 -0.1464  0.1430
    3CHTO    H5 1247   7.557   2.009   0.140  0.2589  0.9805 -0.0365
    3CHTO    O3 1248   8.061   1.637   0.065  0.2042 -0.4403 -0.1736
    3CHTO    C6 1249   8.076   1.636  -0.084 -0.2641 -0.6788 -0.6528
    3CHTO   H19 1250   8.020   1.715  -0.135  0.1693  0.3955  0.5056
    3CHTO    C8 1251   8.221   1.646  -0.121  0.0559  0.6043  0.0204
    3CHTO   H21 1252   8.283   1.587  -0.052  0.0309  1.9846  1.2464
    3CHTO    O7 1253   8.252   1.788  -0.101 -0.3615  0.2190  0.1472
    3CHTO    H2 1254   8.329   1.802  -0.050 -0.3537  1.1176 -0.1023
    3CHTO   C12 1255   8.262   1.596  -0.268  0.1614 -0.0422  0.9380
    3CHTO   H25 1256   8.223   1.673  -0.338  1.0447 -0.1970  0.2634
    3CHTO    N3 1257   8.411   1.592  -0.281 -0.4237 -0.2291  0.5347
    3CHTO   H12 1258   8.432   1.539  -0.373  1.5660 -0.0626  0.8581
    3CHTO   H13 1259   8.450   1.692  -0.299  0.0395 -0.3670  0.7550
    3CHTO   C15 1260   8.194   1.456  -0.300 -0.3660  0.6317  0.5355
    3CHTO   H28 1261   8.236   1.377  -0.239  1.3790  2.2182  1.4340
    3CHTO   O10 1262   8.187   1.405  -0.439 -0.0783  0.4221  0.7734
    3CHTO    H4 1263   8.233   1.459  -0.500 -0.8396  1.6471  1.2564
    3CHTO    O5 1264   8.054   1.471  -0.276 -0.1711  0.2534 -0.3574
    3CHTO   C10 1265   8.022   1.494  -0.136 -0.5877  0.5064  0.3401
    3CHTO   H23 1266   8.064   1.408  -0.084  1.0576  1.5463  0.7789
    3CHTO   C17 1267   7.868   1.488  -0.109  0.7283  0.5186 -0.5183
    3CHTO   O12 1268   7.800   1.573  -0.200  0.1070 -0.1683 -0.5322
    3CHTO    H6 1269   7.772   1.517  -0.269  0.1953  2.1231 -2.5078
    4CHTO  H203 1270   6.858   7.435   2.220  0.2390  1.1215 -1.8290
    4CHTO   O82 1271   6.940   7.472   2.195  0.7742  1.2246  0.0711
    4CHTO  C123 1272   6.927   7.615   2.226 -0.1768  0.4951  0.6769
    4CHTO  H227 1273   6.863   7.624   2.315  0.5710 -2.5610  1.6063
    4CHTO   O77 1274   7.059   7.661   2.253  0.4985 -0.5035 -0.0564
    4CHTO  C118 1275   7.061   7.801   2.285  0.3414 -0.0349  0.2166
    4CHTO  H222 1276   7.007   7.820   2.379 -0.3358  1.6088 -0.5015
    4CHTO  C125 1277   7.213   7.830   2.298  0.1245  0.1875  0.7546
    4CHTO   O84 1278   7.257   7.795   2.426  0.9680  0.5011  0.0182
    4CHTO  H205 1279   7.310   7.718   2.422 -1.6114 -1.4775  2.3566
    4CHTO  C114 1280   6.999   7.892   2.177 -0.1724  0.0881 -0.0097
    4CHTO  H218 1281   7.059   7.893   2.086 -0.1658  1.5845 -0.0013
    4CHTO  C116 1282   6.859   7.849   2.138  0.1245  0.4871 -0.1327
    4CHTO  H220 1283   6.795   7.870   2.226  3.3623  0.0998  2.3936
    4CHTO   O79 1284   6.797   7.912   2.020 -0.5696 -0.1732 -0.3448
    4CHTO  H201 1285   6.841   7.881   1.942  1.1967  0.3766  0.4024
    4CHTO  C120 1286   6.863   7.695   2.104 -0.0394 -0.4498  0.2501
    4CHTO  H224 1287   6.921   7.692   2.010 -0.6808 -1.1835 -0.1322
    4CHTO   N21 1288   6.729   7.637   2.068  0.3578 -0.0745  0.4302
    4CHTO  H211 1289   6.711   7.536   2.102  0.1536 -0.2048 -0.0568
    4CHTO  H212 1290   6.695   7.668   1.971 -0.3415 -0.8994  0.4077
    4CHTO   O75 1291   7.006   8.026   2.236  0.0865 -0.4285 -0.7739
    4CHTO  C112 1292   7.052   8.150   2.143  0.1124 -0.0393  0.6170
    4CHTO  H216 1293   7.038   8.128   2.036  0.0301 -2.2655  1.0516
    4CHTO   O73 1294   7.190   8.185   2.179 -0.0264  0.2172  0.0895
    4CHTO  C113 1295   7.261   8.291   2.111  0.6111 -0.0919  0.3578
    4CHTO  H217 1296   7.268   8.269   2.003 -0.8499 -0.0829  0.2532
    4CHTO  C124 1297   7.403   8.291   2.173  0.4072 -0.1927  0.7562
    4CHTO   O83 1298   7.486   8.395   2.129  0.4303 -1.0007 -0.1424
    4CHTO  H204 1299   7.523   8.439   2.203  0.7145 -3.5798  1.3054
    4CHTO  C109 1300   7.179   8.422   2.130  0.2180 -0.1232 -0.3517
    4CHTO  H213 1301   7.192   8.452   2.235 -3.1224  3.3081 -0.8144
    4CHTO  C110 1302   7.021   8.406   2.105 -0.0433 -0.6912 -0.2318
    4CHTO  H214 1303   7.007   8.409   1.997 -1.2237  0.7836 -0.0413
    4CHTO   O78 1304   6.959   8.523   2.161  0.3406 -0.1245 -0.5173
    4CHTO  H200 1305   6.866   8.522   2.152  0.2915 -0.3673  0.0205
    4CHTO  C111 1306   6.965   8.277   2.173 -0.3035  0.2363 -0.0841
    4CHTO  H215 1307   6.965   8.289   2.282  1.1463 -3.3594  0.3956
    4CHTO   N19 1308   6.823   8.250   2.130 -0.2179  0.5945  0.3663
    4CHTO  H207 1309   6.774   8.206   2.216 -1.3474  2.8174  0.9153
    4CHTO  H208 1310   6.808   8.192   2.041 -1.7180 -0.0132  0.9920
    4CHTO   O74 1311   7.240   8.531   2.038  0.2346 -0.0778  0.1137
    4CHTO  C115 1312   7.231   8.676   2.086  0.3950 -0.1586  0.0127
    4CHTO  H219 1313   7.159   8.692   2.167  0.0366 -1.6249 -0.0169
    4CHTO   O76 1314   7.369   8.726   2.142  0.1507 -0.0111 -0.1571
    4CHTO  C122 1315   7.472   8.735   2.042 -0.2637  0.7433  0.2498
    4CHTO  H226 1316   7.497   8.635   2.006 -1.5165  0.8968 -1.0898
    4CHTO  C126 1317   7.605   8.782   2.122  0.2738 -0.4589 -0.5030
    4CHTO   O85 1318   7.609   8.914   2.182  0.4330 -0.1439  0.3156
    4CHTO  H206 1319   7.649   8.971   2.119  3.7873 -1.1118  1.4327
    4CHTO  C121 1320   7.430   8.834   1.923 -1.1895  0.1406  0.1023
    4CHTO  H225 1321   7.497   8.922   1.924  0.4647 -1.0913 -0.3538
    4CHTO   O81 1322   7.462   8.769   1.802  0.7687 -0.9076 -0.6553
    4CHTO  H202 1323   7.482   8.832   1.736  1.8443 -0.3231  0.2143
    4CHTO  C119 1324   7.284   8.884   1.937 -0.9354 -0.5935  0.3591
    4CHTO  H223 1325   7.274   8.947   2.024  0.3271  2.2161 -1.4688
    4CHTO  C117 1326   7.188   8.760   1.952 -0.7278 -0.0872  0.0929
    4CHTO  H221 1327   7.192   8.693   1.866  1.6567  0.0699  0.0436
    4CHTO   N20 1328   7.042   8.792   1.966 -0.5182 -0.4568  0.4233
    4CHTO  H209 1329   7.026   8.885   1.912 -0.2839 -0.6919 -0.0518
    4CHTO  H210 1330   6.979   8.719   1.917  1.4141 -0.8078 -1.6179
    4CHTO   O80 1331   7.246   8.989   1.827  0.9435 -0.3625 -0.1047
    4CHTO  C103 1332   7.237   9.135   1.862 -0.1817 -0.0961 -0.3777
    4CHTO  H190 1333   7.184   9.155   1.955  1.3475  0.3393  0.4143
    4CHTO  C101 1334   7.382   9.200   1.874 -0.1591 -0.3860  0.2094
    4CHTO  H188 1335   7.445   9.153   1.799  1.1519 -0.0104  1.0591
    4CHTO   O68 1336   7.438   9.157   2.004 -0.3901 -0.1976  0.1943
    4CHTO  H168 1337   7.427   9.065   2.020  0.0798 -0.2086  0.4779
    4CHTO   C99 1338   7.374   9.355   1.878  0.3859 -1.7352  0.4409
    4CHTO  H186 1339   7.314   9.382   1.968  2.6533  2.8420  0.7452
    4CHTO   N17 1340   7.505   9.436   1.873  0.9477 -0.7375  0.1913
    4CHTO  H174 1341   7.562   9.408   1.786  0.4993  0.3486 -0.4547
    4CHTO  H175 1342   7.564   9.427   1.964  0.2904 -1.5710  0.5384
    4CHTO   C97 1343   7.286   9.402   1.754  0.6331  1.0366  0.5714
    4CHTO  H184 1344   7.336   9.368   1.663 -1.1115 -1.2046  0.4021
    4CHTO   O64 1345   7.159   9.331   1.765 -0.2441 -0.5399 -0.4546
    4CHTO  C104 1346   7.161   9.193   1.742 -0.1197 -0.2887  0.1198
    4CHTO  H191 1347   7.204   9.153   1.650  1.1807 -0.1338  0.6554
    4CHTO  C108 1348   7.009   9.177   1.727 -1.2871  0.3435 -0.6356
    4CHTO   O71 1349   6.958   9.042   1.693 -0.0228  0.0558  0.7625
    4CHTO  H171 1350   6.999   8.993   1.625 -0.7671  0.3334  0.1118
    4CHTO   O62 1351   7.246   9.538   1.748  0.2210  0.5797 -0.5609
    4CHTO   C91 1352   7.224   9.588   1.612  0.2910  0.3611 -0.8638
    4CHTO  H178 1353   7.227   9.501   1.548  1.7716 -0.0569 -0.2377
    4CHTO   C92 1354   7.349   9.663   1.557 -0.6086 -0.4557 -0.1818
    4CHTO  H179 1355   7.374   9.744   1.627 -2.2374 -0.5550  0.5464
    4CHTO   O66 1356   7.465   9.577   1.558  0.0482 -0.3066 -0.0194
    4CHTO  H166 1357   7.461   9.511   1.491 -3.1681  0.1364 -0.3443
    4CHTO   C93 1358   7.324   9.709   1.408  0.6373  0.0593 -0.7001
    4CHTO  H180 1359   7.333   9.620   1.344  1.4422 -0.1722 -0.2778
    4CHTO   N16 1360   7.431   9.801   1.354 -0.6048 -0.6980  0.0023
    4CHTO  H172 1361   7.516   9.749   1.314  0.1861  1.0236 -0.6112
    4CHTO  H173 1362   7.447   9.875   1.431 -0.5919 -1.7688  1.0421
    4CHTO   C94 1363   7.179   9.780   1.390 -0.2031  0.2602 -0.6533
    4CHTO  H181 1364   7.174   9.874   1.447  4.1825  0.5307 -0.5365
    4CHTO   O61 1365   7.078   9.700   1.450  0.0695  0.0274 -0.5529
    4CHTO   C95 1366   7.098   9.678   1.593 -0.1012 -0.1794 -0.6583
    4CHTO  H182 1367   7.107   9.774   1.642  1.5893  0.2251 -1.7169
    4CHTO  C106 1368   6.965   9.610   1.640 -0.1219  0.5245 -0.0864
    4CHTO   O69 1369   6.961   9.579   1.780 -0.0708  0.3787  0.2882
    4CHTO  H169 1370   6.904   9.507   1.801 -1.9707  1.0634 -2.2841
    4CHTO   O63 1371   7.155   9.807   1.223  0.6037  0.5983  0.1998
    4CHTO   C96 1372   7.180   9.678   1.125 -0.2043 -0.4335 -0.4115
    4CHTO  H183 1373   7.276   9.638   1.156  0.9366  1.5142 -1.3094
    4CHTO   C98 1374   7.178   9.728   0.969  0.9181  0.5326  0.0243
    4CHTO  H185 1375   7.084   9.779   0.944  0.4792  0.4434  1.4334
    4CHTO   O67 1376   7.277   9.828   0.954  0.6973  0.5189 -0.2839
    4CHTO  H167 1377   7.246   9.916   0.963  0.6936  0.5766 -0.8212
    4CHTO  C102 1378   7.201   9.605   0.870 -0.4472 -0.3224  0.2343
    4CHTO  H189 1379   7.309   9.584   0.875 -0.5421 -0.6355  1.0942
    4CHTO   N18 1380   7.182   9.633   0.726 -0.3774 -0.0586  0.5446
    4CHTO  H176 1381   7.270   9.659   0.669  1.2161 -1.1985  2.4043
    4CHTO  H177 1382   7.103   9.700   0.695 -0.6507  0.1472  1.6550
    4CHTO  C105 1383   7.121   9.478   0.913  0.0710  0.1874  0.6835
    4CHTO  H192 1384   7.068   9.436   0.828  1.6564 -0.1886 -0.1361
    4CHTO   O65 1385   7.023   9.511   1.017  0.1544  0.1217  0.3197
    4CHTO  C100 1386   7.075   9.562   1.137  0.4307 -0.1863 -0.6498
    4CHTO  H187 1387   6.990   9.612   1.186  0.8688 -0.4508  0.4048
    4CHTO  C107 1388   7.127   9.440   1.231  0.2641 -0.0389  0.1548
    4CHTO   O70 1389   7.021   9.345   1.251  0.3457 -0.0210  0.3169
    4CHTO  H170 1390   7.037   9.290   1.325 -2.0168 -0.7384  0.3202
    4CHTO   O57 1391   7.213   9.379   0.947 -0.2500  0.4198  0.4271
    4CHTO   C85 1392   7.207   9.247   0.891  0.0933  0.3918  1.1797
    4CHTO  H157 1393   7.111   9.235   0.837  0.1456  0.7939  0.9976
    4CHTO   C83 1394   7.203   9.143   1.006  0.0914  1.0215 -0.1718
    4CHTO  H155 1395   7.110   9.171   1.055 -1.8751 -1.8683 -2.0603
    4CHTO   O56 1396   7.312   9.172   1.098  0.6410  0.3348 -0.3044
    4CHTO  H135 1397   7.336   9.094   1.145  1.9003  0.4181 -0.7934
    4CHTO   C81 1398   7.199   8.998   0.950  0.5959 -0.4336  0.1435
    4CHTO  H153 1399   7.112   8.993   0.884 -0.5562  0.2093  1.5728
    4CHTO   N14 1400   7.171   8.890   1.044 -0.1695  0.3461 -0.2614
    4CHTO  H141 1401   7.197   8.917   1.145  1.9992 -0.5844 -0.5277
    4CHTO  H142 1402   7.225   8.803   1.013 -1.0853  0.7575 -3.1161
    4CHTO   C79 1403   7.320   8.970   0.855 -0.8660  0.1996 -0.1769
    4CHTO  H151 1404   7.300   8.874   0.808  1.1688 -1.0412  1.4060
    4CHTO   O52 1405   7.312   9.074   0.747  0.1394  0.0339  0.0663
    4CHTO   C86 1406   7.330   9.205   0.807  0.3349  0.0406 -0.3104
    4CHTO  H158 1407   7.418   9.194   0.873  0.4912 -1.6013 -0.7870
    4CHTO   C90 1408   7.373   9.313   0.708 -0.2480  0.1262  0.0968
    4CHTO   O60 1409   7.504   9.278   0.657  0.5400  0.8647 -0.1292
    4CHTO  H138 1410   7.502   9.192   0.621  0.2091  1.7401 -2.3269
    4CHTO   O50 1411   7.452   8.968   0.916 -0.4586  0.0631 -0.3368
    4CHTO   C73 1412   7.594   8.940   0.946 -0.2500  0.1785 -0.1853
    4CHTO  H145 1413   7.619   8.984   1.044 -0.4610 -2.8726  1.2719
    4CHTO   C74 1414   7.683   9.022   0.842  0.1960  0.0266  0.0915
    4CHTO  H146 1415   7.654   9.128   0.841 -1.3388 -0.3754  0.7887
    4CHTO   O54 1416   7.817   9.025   0.890 -0.1511 -0.0170 -0.4024
    4CHTO  H133 1417   7.819   9.067   0.974 -0.1808  1.2201 -1.0091
    4CHTO   C75 1418   7.673   8.956   0.698  0.0166  0.0556 -0.4992
    4CHTO  H147 1419   7.565   8.968   0.676  0.1238  1.1562 -0.4949
    4CHTO   N13 1420   7.744   9.016   0.592  0.0005 -0.3525  0.0984
    4CHTO  H139 1421   7.802   9.104   0.616 -1.4308  0.0102  2.2946
    4CHTO  H140 1422   7.753   8.989   0.488 -0.8504 -2.3886  0.5379
    4CHTO   C76 1423   7.708   8.798   0.708  1.1695  0.4314  0.2776
    4CHTO  H148 1424   7.810   8.791   0.745  2.1827  0.1335 -2.3906
    4CHTO   O49 1425   7.616   8.738   0.811  0.3086  0.3982  0.5725
    4CHTO   C77 1426   7.629   8.791   0.944  0.1376 -0.5659 -0.0524
    4CHTO  H149 1427   7.727   8.779   0.989 -0.9003 -2.4736  1.7533
    4CHTO   C88 1428   7.535   8.702   1.024 -0.6149  0.1991  0.7086
    4CHTO   O58 1429   7.566   8.587   1.049 -0.4503  0.0497  0.0035
    4CHTO  H136 1430   7.493   8.530   1.065 -0.6460  0.0979 -0.7067
    4CHTO   O51 1431   7.682   8.725   0.575  0.4137 -0.0187 -0.0479
    4CHTO   C78 1432   7.814   8.686   0.501 -0.0668  0.3460 -0.0209
    4CHTO  H150 1433   7.897   8.755   0.524  0.2995 -0.4181  1.0181
    4CHTO   C80 1434   7.785   8.696   0.350  0.2815 -0.1841  0.9851
    4CHTO  H152 1435   7.685   8.650   0.337 -0.2000  0.9546  0.6391
    4CHTO   O55 1436   7.764   8.832   0.315 -0.0234  0.2100 -0.2927
    4CHTO  H134 1437   7.761   8.837   0.222 -2.1222 -0.9142 -0.3281
    4CHTO   C84 1438   7.887   8.624   0.254  0.6853  0.9883  0.1516
    4CHTO  H156 1439   7.977   8.684   0.255  0.9806  0.5825 -1.2147
    4CHTO   N15 1440   7.835   8.603   0.115  0.0806  0.0265  0.1207
    4CHTO  H143 1441   7.893   8.666   0.051 -0.0669 -0.5456 -0.5751
    4CHTO  H144 1442   7.730   8.619   0.102 -0.3042  0.0158  2.8933
    4CHTO   C87 1443   7.927   8.485   0.303 -0.7569  0.5412  0.3064
    4CHTO  H159 1444   7.850   8.408   0.302  0.0090 -0.3110  2.9318
    4CHTO   O53 1445   7.966   8.503   0.454 -0.2678 -0.6082  0.7658
    4CHTO   C82 1446   7.846   8.537   0.530  0.2071 -0.5318 -0.2799
    4CHTO  H154 1447   7.763   8.471   0.505 -1.0057  1.5343 -1.9994
    4CHTO   C89 1448   7.879   8.513   0.682  0.5101 -0.2615 -0.7568
    4CHTO   O59 1449   8.002   8.580   0.715  0.2810 -0.4336 -0.2617
    4CHTO  H137 1450   8.049   8.537   0.784 -0.1825 -1.0396 -0.3225
    4CHTO   O45 1451   8.086   8.430   0.220  0.3337 -1.1397  0.5889
    4CHTO   C67 1452   8.153   8.318   0.285  0.4725  0.1931  0.4909
    4CHTO  H124 1453   8.224   8.271   0.217  1.1244  1.5786  0.2107
    4CHTO   C65 1454   8.237   8.358   0.415  0.2664  0.3014  0.2210
    4CHTO  H122 1455   8.217   8.460   0.445  0.3359  0.5017 -0.3954
    4CHTO   O44 1456   8.369   8.363   0.377  0.1721 -0.1899  0.0489
    4CHTO  H102 1457   8.392   8.291   0.322  1.4667  0.0239  0.2909
    4CHTO   C63 1458   8.210   8.264   0.542 -0.3009  0.1792  0.5551
    4CHTO  H120 1459   8.109   8.283   0.577 -0.6554  0.6873 -0.7138
    4CHTO   N11 1460   8.295   8.286   0.665  0.2274 -0.6313 -0.1766
    4CHTO  H108 1461   8.397   8.279   0.633 -0.5138 -1.1089 -2.5101
    4CHTO  H109 1462   8.264   8.224   0.747  0.1529  0.6694  0.7904
    4CHTO   C61 1463   8.213   8.112   0.496 -0.0119  0.4734  0.2230
    4CHTO  H118 1464   8.183   8.048   0.580  0.0240 -0.3723 -0.4042
    4CHTO   O40 1465   8.117   8.079   0.392  0.5584 -0.7273  0.8511
    4CHTO   C68 1466   8.055   8.200   0.326 -0.3035 -0.1634  0.1166
    4CHTO  H125 1467   7.970   8.231   0.391 -0.0768 -2.3911  1.5414
    4CHTO   C72 1468   7.994   8.144   0.195 -0.0687 -0.2959 -0.5351
    4CHTO   O48 1469   7.891   8.046   0.226 -0.6217 -0.4108 -0.6259
    4CHTO  H105 1470   7.909   7.981   0.291 -2.8898  1.2658  1.7380
    4CHTO   O38 1471   8.345   8.075   0.443 -0.0280  0.4709 -0.3138
    4CHTO   C55 1472   8.360   7.931   0.443  0.0166 -0.1847  0.4139
    4CHTO  H112 1473   8.263   7.879   0.438 -0.0046  0.0395 -1.7233
    4CHTO   C56 1474   8.447   7.882   0.562 -0.2396 -0.0529  0.3305
    4CHTO  H113 1475   8.547   7.926   0.555  0.7315 -1.6717  3.4002
    4CHTO   O42 1476   8.391   7.909   0.692 -0.3256 -0.7915 -0.1298
    4CHTO  H100 1477   8.309   7.865   0.702 -0.1503 -0.8207  1.2497
    4CHTO   C57 1478   8.470   7.725   0.544  0.5797 -0.1402 -1.5562
    4CHTO  H114 1479   8.369   7.687   0.553 -0.2477  2.2563 -0.2180
    4CHTO   N10 1480   8.558   7.670   0.652 -0.3369  0.1501  0.1124
    4CHTO  H106 1481   8.497   7.621   0.727  1.6318  0.5341  2.0146
    4CHTO  H107 1482   8.609   7.753   0.699  0.3877  1.5349 -3.0258
    4CHTO   C58 1483   8.523   7.680   0.407 -0.4534  0.5318 -0.0905
    4CHTO  H115 1484   8.623   7.724   0.391  0.4263 -0.7934  1.5924
    4CHTO   O37 1485   8.438   7.733   0.304 -0.1646 -0.5654 -0.1720
    4CHTO   C59 1486   8.425   7.878   0.310 -0.1923  0.6645 -0.2813
    4CHTO  H116 1487   8.527   7.914   0.298  0.9779 -2.3828  0.1915
    4CHTO   C70 1488   8.337   7.910   0.190 -0.2539 -0.1634 -0.6939
    4CHTO   O46 1489   8.208   7.859   0.193  0.7649  0.0857  0.4114
    4CHTO  H103 1490   8.214   7.772   0.159 -2.0289  0.0621 -0.1594
    4CHTO   O39 1491   8.531   7.515   0.376  0.6743 -0.2869  0.2643
    4CHTO   C60 1492   8.413   7.445   0.415 -1.0640 -0.0066 -0.0002
    4CHTO  H117 1493   8.384   7.473   0.516  1.8792  0.9646  0.6254
    4CHTO   C62 1494   8.290   7.478   0.330 -0.7202 -0.2452 -0.2967
    4CHTO  H119 1495   8.269   7.587   0.325 -1.1034 -0.4061 -2.4992
    4CHTO   O43 1496   8.335   7.462   0.190  0.5989  0.2794 -0.6872
    4CHTO  H101 1497   8.283   7.513   0.131 -1.0823  0.7265  1.1394
    4CHTO   C66 1498   8.163   7.390   0.386  0.3963  1.1271 -0.3643
    4CHTO  H123 1499   8.141   7.425   0.487  0.4532 -0.3869  0.1876
    4CHTO   N12 1500   8.044   7.418   0.309 -0.5076 -0.1586  0.7080
    4CHTO  H110 1501   8.064   7.460   0.212  0.2174 -3.1707 -0.5234
    4CHTO  H111 1502   7.977   7.480   0.367 -1.8080 -1.1327  0.2861
    4CHTO   C69 1503   8.203   7.240   0.383 -0.4180 -0.7914 -0.2027
    4CHTO  H126 1504   8.226   7.213   0.278 -0.0427 -1.5082  0.0659
    4CHTO   O41 1505   8.317   7.215   0.482 -0.1982 -0.2533  0.9848
    4CHTO   C64 1506   8.446   7.299   0.417 -0.2270 -0.0435  0.8304
    4CHTO  H121 1507   8.464   7.273   0.311 -1.0282 -1.3297  0.9830
    4CHTO   C71 1508   8.572   7.264   0.505  0.6556  0.7449  0.4739
    4CHTO   O47 1509   8.602   7.120   0.499  1.1738 -0.0567  0.1299
    4CHTO  H104 1510   8.662   7.101   0.570  1.1057  2.4898  0.9055
    4CHTO   O34 1511   8.068   7.146   0.435 -0.0084  0.5872  0.1516
    4CHTO   C49 1512   8.059   7.000   0.459  0.3217  0.6452  0.9029
    4CHTO   H91 1513   8.144   6.952   0.410  0.6902 -0.4809  2.6179
    4CHTO   C47 1514   7.934   6.949   0.384 -0.5236 -0.3032  0.3310
    4CHTO   H89 1515   7.939   6.956   0.273 -0.3391  0.0383  0.3603
    4CHTO   O33 1516   7.831   7.032   0.424  0.4398  0.0773 -0.2812
    4CHTO   H70 1517   7.853   7.122   0.412 -1.4185  0.5703 -0.0639
    4CHTO   C45 1518   7.903   6.797   0.420 -0.5405 -0.1939 -0.3446
    4CHTO   H87 1519   7.818   6.802   0.489  0.4139  0.3083  0.8183
    4CHTO    N8 1520   7.868   6.719   0.297  0.1576 -0.5351  0.4079
    4CHTO   H75 1521   7.929   6.630   0.304  0.1973 -0.4737  0.8551
    4CHTO   H76 1522   7.892   6.787   0.217  0.6149 -2.4621 -1.1451
    4CHTO   C43 1523   8.009   6.726   0.518  0.2961  0.3225 -0.3269
    4CHTO   H85 1524   7.966   6.633   0.556  1.9021 -1.7292 -3.2696
    4CHTO   O29 1525   8.049   6.814   0.628  0.3724 -0.4860  0.0677
    4CHTO   C50 1526   8.050   6.955   0.605  0.4993  0.0409 -0.5036
    4CHTO   H92 1527   7.969   7.004   0.662 -0.8478 -1.0575 -1.4512
    4CHTO   C54 1528   8.172   7.021   0.678 -0.0792  0.0010 -0.4450
    4CHTO   O36 1529   8.156   7.015   0.822  0.2553 -0.2916 -0.1618
    4CHTO   H72 1530   8.233   7.053   0.860  0.3911 -0.8331  0.1042
    4CHTO   O27 1531   8.123   6.686   0.445 -0.6938 -0.4673 -0.0658
    4CHTO   C37 1532   8.227   6.619   0.352  0.0434 -0.1918 -0.6948
    4CHTO   H79 1533   8.202   6.628   0.245  4.4865 -0.5617 -1.8469
    4CHTO   C38 1534   8.367   6.681   0.380 -0.0603 -0.0074 -0.1923
    4CHTO   H80 1535   8.373   6.723   0.481  2.0612 -0.8516  0.0608
    4CHTO   O31 1536   8.374   6.792   0.286  0.1359 -0.2977 -0.3593
    4CHTO   H68 1537   8.295   6.841   0.297 -0.9097 -2.1439  0.4397
    4CHTO   C39 1538   8.487   6.587   0.345 -0.9839  0.5404 -0.0122
    4CHTO   H81 1539   8.485   6.588   0.236 -2.8032  0.2727  0.0065
    4CHTO    N7 1540   8.614   6.647   0.393  0.4473 -0.1584  0.0282
    4CHTO   H73 1541   8.624   6.750   0.363  4.4462 -0.4852  0.0241
    4CHTO   H74 1542   8.626   6.633   0.500  1.8148 -0.2273 -0.1231
    4CHTO   C40 1543   8.467   6.439   0.396  0.1859  0.2509  0.4402
    4CHTO   H82 1544   8.469   6.439   0.505 -0.9896  1.7236  0.4874
    4CHTO   O26 1545   8.338   6.384   0.344  0.2130  0.3182  0.5636
    4CHTO   C41 1546   8.224   6.469   0.393 -0.6721  0.4462 -0.6991
    4CHTO   H83 1547   8.231   6.474   0.503 -0.5749  2.3500 -0.7662
    4CHTO   C52 1548   8.082   6.409   0.351  0.4301 -0.0991  0.2630
    4CHTO   O35 1549   8.056   6.272   0.390 -0.6915 -0.3337 -0.0377
    4CHTO   H71 1550   8.100   6.210   0.336  0.6441 -0.5558  1.2671
    4CHTO   O28 1551   8.553   6.350   0.337 -0.3559 -0.2154  0.1369
    4CHTO   C42 1552   8.585   6.217   0.388  0.2604  0.2048 -0.5099
    4CHTO   H84 1553   8.664   6.179   0.323 -0.5482 -1.2043 -0.6847
    4CHTO   C44 1554   8.463   6.112   0.367  0.1078  0.0967  0.1909
    4CHTO   H86 1555   8.377   6.143   0.427 -0.1486  1.9579 -1.0861
    4CHTO   O32 1556   8.429   6.129   0.227  0.0044  0.5399 -0.4615
    4CHTO   H69 1557   8.507   6.126   0.174 -0.4158  0.7126 -1.1050
    4CHTO   C48 1558   8.504   5.963   0.406  0.2596 -0.2767  0.3780
    4CHTO   H90 1559   8.565   5.925   0.324 -1.4129  1.6737 -1.8417
    4CHTO    N9 1560   8.395   5.859   0.401 -0.4871  0.3410  0.0950
    4CHTO   H77 1561   8.376   5.809   0.495 -0.2957  0.2002  0.0586
    4CHTO   H78 1562   8.407   5.794   0.315 -0.4624  1.2733 -0.6125
    4CHTO   C51 1563   8.582   5.951   0.547  0.0312 -0.0314 -0.8388
    4CHTO   H93 1564   8.509   5.963   0.627 -0.1572 -0.3673 -0.9573
    4CHTO   O30 1565   8.687   6.045   0.565  1.0594 -0.1525 -0.7738
    4CHTO   C46 1566   8.636   6.205   0.539 -0.3427  0.7040  0.2315
    4CHTO   H88 1567   8.555   6.227   0.609 -0.4715  0.6290  0.1061
    4CHTO   C53 1568   8.763   6.306   0.557 -0.0861  0.0656 -0.9607
    4CHTO   O72 1569   8.790   6.325   0.697  0.6441 -0.3954  0.2172
    4CHTO  H199 1570   8.850   6.257   0.720  1.9215  0.9162  0.9206
    4CHTO   O22 1571   8.649   5.823   0.551 -0.1251 -0.5828 -0.0181
    4CHTO   C31 1572   8.690   5.770   0.684  0.1323 -0.5493  0.4797
    4CHTO   H59 1573   8.682   5.858   0.750 -2.4171  1.6468 -2.6187
    4CHTO   C29 1574   8.594   5.665   0.732 -0.1191  0.3039 -0.1145
    4CHTO   H57 1575   8.599   5.582   0.660 -0.7922  0.3154 -0.1813
    4CHTO   O21 1576   8.462   5.709   0.725  0.6658 -0.0034  0.8981
    4CHTO   H37 1577   8.398   5.641   0.727 -0.8988  1.3590 -1.0995
    4CHTO   C27 1578   8.629   5.616   0.873 -0.0261  0.5916 -0.5366
    4CHTO   H55 1579   8.601   5.699   0.939 -0.7847  0.0549 -0.1737
    4CHTO    N5 1580   8.559   5.492   0.916  0.5316  0.0197  0.8052
    4CHTO   H43 1581   8.456   5.522   0.908  0.1697 -1.1204  1.0061
    4CHTO   H44 1582   8.584   5.417   0.842 -0.0469 -1.2507  1.8630
    4CHTO   C25 1583   8.792   5.592   0.895  0.0985 -0.1827 -1.1494
    4CHTO   H53 1584   8.812   5.491   0.857  0.5504 -0.7907  0.6690
    4CHTO   O17 1585   8.872   5.688   0.826 -0.1445 -0.0553 -0.0804
    4CHTO   C32 1586   8.833   5.714   0.690  0.6597 -0.3606  1.0546
    4CHTO   H60 1587   8.830   5.617   0.639  0.6435 -0.7760  1.8426
    4CHTO   C36 1588   8.946   5.805   0.633  0.2334  0.1465 -0.3044
    4CHTO   O25 1589   9.018   5.745   0.535 -0.1877  0.0206  0.4198
    4CHTO   H40 1590   9.086   5.799   0.500 -0.1397  0.3667  1.0263
    4CHTO   O15 1591   8.822   5.597   1.032 -0.0221 -0.1731 -0.1298
    4CHTO   C19 1592   8.811   5.708   1.121  0.3299 -0.7822 -0.0823
    4CHTO   H47 1593   8.877   5.674   1.202  4.5852  1.6109 -2.3582
    4CHTO   C20 1594   8.877   5.842   1.069  0.4057 -0.2666 -0.4419
    4CHTO   H48 1595   8.834   5.870   0.971  0.3705 -1.0948 -0.6703
    4CHTO   O19 1596   9.018   5.817   1.065 -0.3339 -0.2012 -0.0666
    4CHTO   H35 1597   9.070   5.865   1.003 -2.3697  0.0909 -1.5671
    4CHTO   C21 1598   8.844   5.968   1.160 -0.2471 -0.0833  0.5780
    4CHTO   H49 1599   8.895   5.955   1.256 -0.4541 -0.8473  0.5869
    4CHTO    N4 1600   8.893   6.094   1.100  0.1715 -0.0558  0.1285
    4CHTO   H41 1601   8.829   6.171   1.139  1.2616  0.9153  0.0093
    4CHTO   H42 1602   8.995   6.111   1.132  0.0834 -0.6439  0.7574
    4CHTO   C22 1603   8.698   5.970   1.209 -0.4254  0.3091 -0.1430
    4CHTO   H50 1604   8.627   5.980   1.127 -1.6270  0.7438  0.9403
    4CHTO   O14 1605   8.679   5.842   1.276 -0.3153  0.7916 -0.3682
    4CHTO   C23 1606   8.670   5.735   1.191 -0.2036  0.3004  0.3493
    4CHTO   H51 1607   8.593   5.757   1.115  0.3374 -1.3234 -0.7228
    4CHTO   C34 1608   8.625   5.613   1.275 -0.3954  0.4631  0.4514
    4CHTO   O23 1609   8.496   5.621   1.343 -0.1707  0.2867 -0.3928
    4CHTO   H38 1610   8.436   5.625   1.271 -1.1286 -0.6607  0.3430
    4CHTO   O16 1611   8.676   6.062   1.317 -0.6003 -0.0342  0.1499
    4CHTO   C24 1612   8.535   6.130   1.294 -0.3937  0.0633 -0.3414
    4CHTO   H52 1613   8.469   6.070   1.231 -3.0795 -0.0724  2.4994
    4CHTO   C26 1614   8.551   6.264   1.220  0.8511 -0.0859 -0.4718
    4CHTO   H54 1615   8.622   6.331   1.272 -1.1814  0.7836  1.2937
    4CHTO   O20 1616   8.593   6.229   1.088  0.3200 -0.1117 -0.6295
    4CHTO   H36 1617   8.675   6.183   1.085  0.1762 -0.3580 -0.8935
    4CHTO   C30 1618   8.411   6.340   1.212  0.8753 -1.0015 -1.0903
    4CHTO   H58 1619   8.341   6.290   1.144 -0.0611 -1.0744 -0.0761
    4CHTO    N6 1620   8.435   6.474   1.156 -0.1892 -0.0739 -0.3620
    4CHTO   H45 1621   8.339   6.522   1.139  0.4754  1.0751 -0.9889
    4CHTO   H46 1622   8.491   6.540   1.220  0.2378 -1.1552  0.3798
    4CHTO   C33 1623   8.346   6.347   1.358  0.0511  0.6798  0.1647
    4CHTO   H61 1624   8.416   6.401   1.424 -1.7658  1.2749  1.6332
    4CHTO   O18 1625   8.333   6.214   1.411  0.0799 -0.5096 -0.4897
    4CHTO   C28 1626   8.458   6.151   1.434 -0.0332  0.3565 -1.1078
    4CHTO   H56 1627   8.515   6.221   1.495  0.0801  0.3463 -1.2019
    4CHTO   C35 1628   8.438   6.015   1.494  0.2263 -0.2240 -0.2240
    4CHTO   O24 1629   8.543   5.939   1.529  0.6177  0.3942  0.3126
    4CHTO   H39 1630   8.587   5.920   1.448 -1.4117  2.7209 -1.4046
    4CHTO    O9 1631   8.218   6.417   1.359  0.6117 -0.1216  0.0852
    4CHTO   C13 1632   8.176   6.492   1.512 -0.6760 -0.2058 -0.0804
    4CHTO   H26 1633   8.192   6.420   1.595  0.4558 -1.0747 -1.0478
    4CHTO   C11 1634   8.024   6.544   1.509 -0.1151 -0.4189  0.6000
    4CHTO   H24 1635   7.957   6.457   1.499 -0.5944  0.1663 -1.4354
    4CHTO    O8 1636   8.007   6.618   1.386  0.0201  0.7139  0.4058
    4CHTO    H3 1637   8.013   6.566   1.308 -1.3177 -0.1950  0.8861
    4CHTO    C9 1638   7.984   6.616   1.638  0.2109  0.1944  0.8312
    4CHTO   H22 1639   7.994   6.538   1.715 -0.6714 -2.1111 -1.3121
    4CHTO    N2 1640   7.849   6.666   1.647 -0.6162 -0.3221  0.1722
    4CHTO   H10 1641   7.836   6.741   1.724  1.6666  1.2954 -0.9470
    4CHTO   H11 1642   7.817   6.703   1.550  0.0629 -0.8665 -0.2584
    4CHTO    C7 1643   8.094   6.728   1.677  0.0153 -0.3187  0.5625
    4CHTO   H20 1644   8.138   6.684   1.769  1.7744 -0.2198 -0.2114
    4CHTO    O4 1645   8.198   6.739   1.577 -0.4958 -0.1523 -0.2031
    4CHTO   C14 1646   8.270   6.618   1.554 -0.7655  0.5985  0.7569
    4CHTO   H27 1647   8.316   6.596   1.653 -1.3731  1.3649  1.2213
    4CHTO   C18 1648   8.384   6.655   1.462 -0.5872 -0.0097  0.2113
    4CHTO   O13 1649   8.512   6.670   1.521  0.3933 -0.4497  0.3065
    4CHTO    H7 1650   8.580   6.691   1.460  1.0815 -2.7940  0.2057
    4CHTO    O2 1651   8.035   6.875   1.708 -0.5702  0.1454 -0.0659
    4CHTO    C1 1652   8.134   6.975   1.729 -0.4392  0.4705 -0.1134
    4CHTO   H14 1653   8.213   6.949   1.655 -0.1567  2.7343 -0.6367
    4CHTO    C2 1654   8.201   6.997   1.870 -0.0276 -0.7614  0.0875
    4CHTO   H15 1655   8.106   6.986   1.923  0.8772  0.6325  2.0744
    4CHTO    O6 1656   8.286   6.887   1.897 -0.0853 -0.3380  0.0192
    4CHTO    H1 1657   8.376   6.906   1.917  0.1706 -1.3651 -0.1235
    4CHTO    C3 1658   8.281   7.141   1.890  0.0592 -0.2315 -0.1959
    4CHTO   H16 1659   8.376   7.129   1.836  0.7208 -1.3734  1.1873
    4CHTO    N1 1660   8.311   7.167   2.036 -0.6424 -0.0298 -0.6101
    4CHTO    H8 1661   8.222   7.187   2.093 -0.1378 -0.0414  0.1955
    4CHTO    H9 1662   8.377   7.251   2.047 -0.8861 -0.2429  3.0163
    4CHTO    C4 1663   8.208   7.271   1.830 -0.0507  0.4087 -0.2056
    4CHTO   H17 1664   8.123   7.299   1.893 -0.5947 -1.6560  0.0164
    4CHTO    O1 1665   8.168   7.237   1.698 -0.2637 -0.2137  0.3747
    4CHTO    C5 1666   8.084   7.122   1.681  0.1696  0.3772 -0.1426
    4CHTO   H18 1667   7.993   7.131   1.740 -0.4738  1.4194 -1.2796
    4CHTO   C16 1668   8.049   7.120   1.528 -0.5030 -0.0659  0.1034
    4CHTO   O11 1669   7.935   7.038   1.499 -0.5749  0.0557 -0.2698
    4CHTO    H5 1670   7.965   6.980   1.432 -0.4917 -1.0160  0.6832
    4CHTO    O3 1671   8.308   7.380   1.813  0.5352  0.6996  0.4119
    4CHTO    C6 1672   8.254   7.515   1.835 -0.9098 -0.2111 -0.0333
    4CHTO   H19 1673   8.146   7.527   1.838 -0.8771  0.0448  0.1434
    4CHTO    C8 1674   8.311   7.571   1.975  0.0696 -0.0628 -0.2422
    4CHTO   H21 1675   8.417   7.550   1.989  0.0100 -0.4121 -0.3052
    4CHTO    O7 1676   8.236   7.512   2.072  0.8821  0.2936 -0.7738
    4CHTO    H2 1677   8.259   7.422   2.079 -1.0410 -0.1122  1.0455
    4CHTO   C12 1678   8.309   7.726   1.974  0.8527 -0.3930 -0.6119
    4CHTO   H25 1679   8.202   7.754   1.968  0.5067 -1.3618  0.7815
    4CHTO    N3 1680   8.354   7.784   2.107  0.5085 -0.4979 -0.0401
    4CHTO   H12 1681   8.286   7.765   2.189 -1.0918 -0.7524 -1.3860
    4CHTO   H13 1682   8.459   7.774   2.130  0.6586  0.4754 -0.2732
    4CHTO   C15 1683   8.383   7.784   1.851 -0.7298  0.2572 -0.2745
    4CHTO   H28 1684   8.491   7.766   1.852 -0.6815  0.6049  1.1886
    4CHTO   O10 1685   8.359   7.947   1.836 -0.2554  0.1281  0.6793
    4CHTO    H4 1686   8.277   7.961   1.879  0.5918  3.2340  1.3856
    4CHTO    O5 1687   8.320   7.744   1.724 -0.0524 -0.0038  0.0551
    4CHTO   C10 1688   8.315   7.600   1.715 -0.5664 -0.2329  0.3256
    4CHTO   H23 1689   8.422   7.581   1.712 -0.2543  1.6157 -0.9700
    4CHTO   C17 1690   8.245   7.561   1.581 -0.2213 -0.2712  0.1590
    4CHTO   O12 1691   8.331   7.572   1.465  0.0846 -0.1072  0.5344
    4CHTO    H6 1692   8.270   7.586   1.396  0.7852 -1.9020 -0.4774
    5CHTO  H203 1693   9.011   3.523   0.882 -1.4495  0.1107 -2.4752
    5CHTO   O82 1694   8.929   3.555   0.915 -0.5020 -0.0668  0.1454
    5CHTO  C123 1695   8.886   3.465   1.017 -0.3642 -0.5035  0.2343
    5CHTO  H227 1696   8.903   3.362   0.982 -0.7328 -0.3390 -0.4301
    5CHTO   O77 1697   8.975   3.507   1.132 -0.1717 -0.7599 -0.0041
    5CHTO  C118 1698   8.965   3.421   1.251  0.4257 -0.3861  1.0888
    5CHTO  H222 1699   8.984   3.317   1.219  2.6864 -0.1074  1.5128
    5CHTO  C125 1700   9.069   3.460   1.362  0.0471  0.7148 -0.0693
    5CHTO   O84 1701   9.206   3.444   1.313 -0.0659  0.2237  0.1722
    5CHTO  H205 1702   9.215   3.498   1.237 -1.3983 -0.4604 -0.5055
    5CHTO  C114 1703   8.826   3.429   1.310  0.4044 -0.5811 -0.0446
    5CHTO  H218 1704   8.817   3.531   1.348 -1.4124 -0.4784 -0.7082
    5CHTO  C116 1705   8.715   3.414   1.196 -0.0213 -1.0623  0.0599
    5CHTO  H220 1706   8.702   3.305   1.180  1.7873 -1.6337  2.1331
    5CHTO   O79 1707   8.595   3.467   1.258  0.2549  0.0126  0.0730
    5CHTO  H201 1708   8.579   3.436   1.345 -2.0299  2.3759  0.5420
    5CHTO  C120 1709   8.744   3.495   1.061 -1.0741 -0.4602 -0.2562
    5CHTO  H224 1710   8.742   3.605   1.071 -0.8003 -0.5202  0.5347
    5CHTO   N21 1711   8.635   3.473   0.956  0.7366 -0.1585  0.8852
    5CHTO  H211 1712   8.683   3.477   0.860  1.4783 -1.4469  1.1940
    5CHTO  H212 1713   8.569   3.557   0.973  1.2205  0.3302  0.3575
    5CHTO   O75 1714   8.808   3.325   1.410 -0.3010  0.5294 -0.0664
    5CHTO  C112 1715   8.671   3.321   1.506 -0.0562  0.3620 -0.1256
    5CHTO  H216 1716   8.582   3.294   1.448 -0.2348 -0.2224  0.4198
    5CHTO   O73 1717   8.655   3.448   1.572  0.2358  0.0173  0.4860
    5CHTO  C113 1718   8.531   3.457   1.638  0.6213  0.3552 -0.0671
    5CHTO  H217 1719   8.449   3.453   1.563  2.3949 -0.0693 -2.0103
    5CHTO  C124 1720   8.525   3.600   1.694 -0.0090 -0.1530  0.6044
    5CHTO   O83 1721   8.642   3.645   1.767 -0.0226 -0.3156 -0.0619
    5CHTO  H204 1722   8.613   3.696   1.839 -1.7426 -3.5659  1.6435
    5CHTO  C109 1723   8.525   3.355   1.754  0.7453  0.6118  0.1229
    5CHTO  H213 1724   8.602   3.389   1.825  0.7492  1.2094 -0.1645
    5CHTO  C110 1725   8.552   3.215   1.695 -0.3970 -0.4761 -0.0262
    5CHTO  H214 1726   8.466   3.195   1.631 -0.6433  1.0316 -0.1860
    5CHTO   O78 1727   8.561   3.114   1.805  0.3983  0.2726 -0.3922
    5CHTO  H200 1728   8.524   3.032   1.780  0.1778  0.3581 -0.3462
    5CHTO  C111 1729   8.686   3.211   1.614 -1.0379 -0.8069 -0.7437
    5CHTO  H215 1730   8.766   3.239   1.683 -1.3765 -2.6928  0.4689
    5CHTO   N19 1731   8.725   3.080   1.560 -0.1870  0.4435  1.0795
    5CHTO  H207 1732   8.792   3.032   1.630 -0.8670 -0.2221  1.2897
    5CHTO  H208 1733   8.643   3.013   1.538  0.2491  0.3165 -0.2088
    5CHTO   O74 1734   8.397   3.359   1.807 -0.5766 -0.2968  0.6526
    5CHTO  C115 1735   8.381   3.336   1.975 -0.4508 -0.5739 -0.0317
    5CHTO  H219 1736   8.457   3.268   2.013  0.3930  1.8801  2.8765
    5CHTO   O76 1737   8.405   3.469   2.063 -0.3327  0.4823  0.5339
    5CHTO  C122 1738   8.335   3.584   2.014 -0.3187  0.4860 -0.6804
    5CHTO  H226 1739   8.368   3.613   1.915 -2.3319 -1.6432 -2.0206
    5CHTO  C126 1740   8.356   3.705   2.114  1.0208  0.3068  0.1158
    5CHTO   O85 1741   8.485   3.759   2.091 -0.2287 -0.2575 -0.3752
    5CHTO  H206 1742   8.480   3.806   2.010  1.3634  1.5856  0.5522
    5CHTO  C121 1743   8.175   3.543   1.994 -0.1829 -0.1984 -0.3878
    5CHTO  H225 1744   8.110   3.616   2.048 -0.1578  0.4241 -1.1951
    5CHTO   O81 1745   8.136   3.560   1.856 -0.6294  0.3554  0.0378
    5CHTO  H202 1746   8.051   3.522   1.845 -1.4696  1.7875  1.3820
    5CHTO  C119 1747   8.138   3.402   2.047 -0.5275  0.1122  0.4071
    5CHTO  H223 1748   8.167   3.401   2.152 -0.7801 -0.7832  0.4749
    5CHTO  C117 1749   8.231   3.285   1.988 -0.4629 -0.5217  0.1282
    5CHTO  H221 1750   8.201   3.256   1.888 -0.0454  0.2387 -0.2243
    5CHTO   N20 1751   8.221   3.155   2.069 -0.0675  0.0710  0.2519
    5CHTO  H209 1752   8.268   3.157   2.167  0.9534 -0.4487 -0.2145
    5CHTO  H210 1753   8.120   3.116   2.069  0.4166 -1.2325  0.6980
    5CHTO   O80 1754   7.990   3.367   2.066  0.2247 -0.2759 -0.0168
    5CHTO  C103 1755   7.874   3.402   1.945  0.6022  0.1244  0.6461
    5CHTO  H190 1756   7.898   3.500   1.904  1.1442 -0.8971 -1.5801
    5CHTO  C101 1757   7.862   3.300   1.828  0.6166 -0.0359 -0.1904
    5CHTO  H188 1758   7.866   3.204   1.879 -1.7719  0.2381  0.5426
    5CHTO   O68 1759   7.985   3.302   1.707  0.6536  0.6057  0.1632
    5CHTO  H168 1760   8.073   3.301   1.741  1.2621  0.6175 -1.3925
    5CHTO   C99 1761   7.716   3.299   1.762 -0.0000 -0.0940 -0.2352
    5CHTO  H186 1762   7.701   3.389   1.698 -1.6385  0.9847  1.5944
    5CHTO   N17 1763   7.684   3.171   1.689  0.5964 -0.0114 -0.0006
    5CHTO  H174 1764   7.629   3.197   1.600  0.1472 -1.6416 -0.2033
    5CHTO  H175 1765   7.765   3.105   1.666  0.5534  0.8978 -2.8962
    5CHTO   C97 1766   7.606   3.311   1.874  0.4631 -0.3774 -0.1121
    5CHTO  H184 1767   7.614   3.219   1.933  0.5159 -1.2373 -1.4556
    5CHTO   O64 1768   7.630   3.426   1.953  0.3628  0.4557  0.0215
    5CHTO  C104 1769   7.748   3.421   2.033 -0.1640 -0.2974  0.3927
    5CHTO  H191 1770   7.748   3.346   2.113  0.5470  0.6285  1.2734
    5CHTO  C108 1771   7.747   3.556   2.103  0.0520  0.0581 -0.3383
    5CHTO   O71 1772   7.840   3.577   2.210 -0.4262  0.0393 -0.2181
    5CHTO  H171 1773   7.923   3.609   2.183 -0.1597  0.4500  1.0566
    5CHTO   O62 1774   7.473   3.327   1.815 -0.0345 -0.1049 -0.6938
    5CHTO   C91 1775   7.353   3.280   1.878 -0.1633  0.0626  0.1862
    5CHTO  H178 1776   7.351   3.312   1.982 -0.6406  0.3498  0.0878
    5CHTO   C92 1777   7.315   3.128   1.881  0.5767  0.1601 -0.4218
    5CHTO  H179 1778   7.323   3.090   1.778 -0.4742  0.9166 -0.7982
    5CHTO   O66 1779   7.415   3.053   1.947  0.4528  1.0617 -0.4531
    5CHTO  H166 1780   7.497   3.062   1.903  0.3182  2.0308 -0.5196
    5CHTO   C93 1781   7.173   3.094   1.946  0.0012 -0.1762  0.1768
    5CHTO  H180 1782   7.180   3.113   2.055  2.1792  1.1489 -0.1635
    5CHTO   N16 1783   7.130   2.952   1.933 -0.2027  0.5793 -0.0033
    5CHTO  H172 1784   7.124   2.923   1.829 -1.9533 -0.9943  0.4922
    5CHTO  H173 1785   7.198   2.888   1.986 -0.0601  1.2934  0.6881
    5CHTO   C94 1786   7.068   3.194   1.876  0.8501 -0.1209 -0.4683
    5CHTO  H181 1787   7.063   3.176   1.769 -0.9556  0.2951 -0.4661
    5CHTO   O61 1788   7.112   3.333   1.893  0.5775  0.3460  1.0869
    5CHTO   C95 1789   7.233   3.369   1.831 -0.2479 -0.0573  0.6611
    5CHTO  H182 1790   7.224   3.373   1.723 -0.2171  0.0417  0.6623
    5CHTO  C106 1791   7.247   3.520   1.881 -0.0392  0.4002  0.2269
    5CHTO   O69 1792   7.354   3.602   1.820 -0.1853  0.1790  0.0301
    5CHTO  H169 1793   7.397   3.561   1.748  1.3724 -0.8469  1.5195
    5CHTO   O63 1794   6.910   3.183   1.950  0.3096  0.4498  0.8035
    5CHTO   C96 1795   6.789   3.170   1.821  0.3469 -0.1211  0.1495
    5CHTO  H183 1796   6.840   3.142   1.728  1.1759 -0.4807  0.7022
    5CHTO   C98 1797   6.731   3.308   1.789  0.6251  0.0722  0.1051
    5CHTO  H185 1798   6.693   3.350   1.883 -1.1694  0.1165 -0.6229
    5CHTO   O67 1799   6.836   3.393   1.746  0.4278  0.0398 -0.0103
    5CHTO  H167 1800   6.803   3.457   1.685 -1.1393 -4.0040 -3.6181
    5CHTO  C102 1801   6.619   3.299   1.675 -0.2392 -0.4897 -0.3806
    5CHTO  H189 1802   6.669   3.292   1.577 -1.6619  0.1257 -1.1689
    5CHTO   N18 1803   6.537   3.423   1.672  0.0218  0.0553 -0.2218
    5CHTO  H176 1804   6.468   3.420   1.755  0.9291  1.7936  0.6379
    5CHTO  H177 1805   6.594   3.515   1.677 -0.6351  0.4049  1.1596
    5CHTO  C105 1806   6.532   3.172   1.700 -0.2340 -0.0764  0.3831
    5CHTO  H192 1807   6.447   3.205   1.760  0.1603  1.3767  0.1708
    5CHTO   O65 1808   6.583   3.057   1.766  0.6389 -0.7746 -0.0229
    5CHTO  C100 1809   6.673   3.081   1.872 -0.0635 -0.0229 -0.6876
    5CHTO  H187 1810   6.626   3.150   1.944  0.0953  0.6849 -1.2540
    5CHTO  C107 1811   6.709   2.944   1.935  0.5894  0.7892  0.4753
    5CHTO   O70 1812   6.586   2.883   1.988  0.4402 -0.0115 -0.7313
    5CHTO  H170 1813   6.595   2.797   2.024 -0.6446 -0.0828 -0.6323
    5CHTO   O57 1814   6.483   3.125   1.561  0.1283  0.1780 -0.0191
    5CHTO   C85 1815   6.359   3.048   1.547 -0.2202  0.3157 -0.3899
    5CHTO  H157 1816   6.278   3.102   1.600 -0.1826 -0.7186  0.7310
    5CHTO   C83 1817   6.354   2.903   1.613 -0.4234 -0.0550  0.0872
    5CHTO  H155 1818   6.344   2.916   1.721 -1.2082 -0.6048  0.0881
    5CHTO   O56 1819   6.483   2.841   1.597 -0.0773 -0.7255  0.0480
    5CHTO  H135 1820   6.498   2.841   1.504  1.3872 -0.1778  0.2657
    5CHTO   C81 1821   6.238   2.815   1.565  1.0126 -0.1471  0.2418
    5CHTO  H153 1822   6.148   2.873   1.588  1.9515  1.7670 -0.7952
    5CHTO   N14 1823   6.214   2.685   1.625  0.1118  0.3473  0.3601
    5CHTO  H141 1824   6.238   2.691   1.729 -0.8267  1.0476  0.5401
    5CHTO  H142 1825   6.283   2.617   1.580  0.2233  1.2150 -0.8229
    5CHTO   C79 1826   6.254   2.801   1.414  0.6767  0.7362  0.1187
    5CHTO  H151 1827   6.174   2.735   1.380 -0.1245  1.6453  0.2346
    5CHTO   O52 1828   6.244   2.933   1.350  0.6095  0.2940  0.1706
    5CHTO   C86 1829   6.329   3.042   1.395  0.1585  0.2576  0.0535
    5CHTO  H158 1830   6.426   3.023   1.345  1.0370 -0.2291  1.9156
    5CHTO   C90 1831   6.276   3.176   1.335 -0.3427 -0.1727  0.3435
    5CHTO   O60 1832   6.365   3.289   1.360  0.4779 -0.0249  0.9403
    5CHTO  H138 1833   6.409   3.282   1.443  1.1070 -1.7015  0.5015
    5CHTO   O50 1834   6.378   2.734   1.370 -0.1811 -0.6770  0.7646
    5CHTO   C73 1835   6.382   2.651   1.255 -0.1646  0.1298  0.3115
    5CHTO  H145 1836   6.314   2.688   1.177  1.4199  0.9915 -0.6938
    5CHTO   C74 1837   6.342   2.498   1.287  0.1887 -0.5367  0.4559
    5CHTO  H146 1838   6.240   2.505   1.327  0.1912  0.3493  0.3082
    5CHTO   O54 1839   6.347   2.429   1.161 -0.2951 -0.3804 -0.1331
    5CHTO  H133 1840   6.272   2.375   1.145 -0.1432 -0.7844  0.5033
    5CHTO   C75 1841   6.443   2.431   1.393  0.0928 -0.5570  0.1312
    5CHTO  H147 1842   6.432   2.491   1.485 -1.4894  1.2844 -1.2184
    5CHTO   N13 1843   6.412   2.287   1.426 -0.9558 -0.0439  0.4956
    5CHTO  H139 1844   6.506   2.239   1.450 -0.7256  0.2713  0.2353
    5CHTO  H140 1845   6.373   2.243   1.336 -0.8377  1.1015 -0.1288
    5CHTO   C76 1846   6.596   2.454   1.337 -1.0311 -0.4388  0.5884
    5CHTO  H148 1847   6.611   2.384   1.254  1.8171  0.2235  0.4942
    5CHTO   O49 1848   6.624   2.593   1.296 -0.5442 -0.0274 -0.1022
    5CHTO   C77 1849   6.529   2.654   1.204  0.7509 -0.8540  0.4985
    5CHTO  H149 1850   6.529   2.607   1.106  0.0584 -0.0031  0.0751
    5CHTO   C88 1851   6.588   2.792   1.167  0.2977  0.0240 -0.8460
    5CHTO   O58 1852   6.732   2.766   1.099  0.4953 -0.4528 -0.0815
    5CHTO  H136 1853   6.715   2.721   1.019 -1.4570  0.4856 -0.2429
    5CHTO   O51 1854   6.712   2.418   1.462  0.0298  0.0585  0.2250
    5CHTO   C78 1855   6.853   2.448   1.432 -0.0744  0.1149 -0.6456
    5CHTO  H150 1856   6.866   2.495   1.332  1.4984 -1.3386 -1.1381
    5CHTO   C80 1857   6.943   2.318   1.441  0.1039 -0.5009 -0.4751
    5CHTO  H152 1858   6.954   2.293   1.549 -0.7976  2.1270  0.2651
    5CHTO   O55 1859   6.880   2.215   1.371 -0.1117 -0.4547 -0.3955
    5CHTO  H134 1860   6.942   2.157   1.331  1.8709  0.9328  0.5826
    5CHTO   C84 1861   7.092   2.355   1.406 -1.5211 -0.0806 -0.2497
    5CHTO  H156 1862   7.089   2.400   1.307 -0.9447 -0.8503 -0.6144
    5CHTO   N15 1863   7.184   2.236   1.403  0.3865 -0.0474  0.2697
    5CHTO  H143 1864   7.205   2.193   1.499  0.2817 -0.3033  0.1786
    5CHTO  H144 1865   7.276   2.260   1.355  0.5337 -0.6494  0.2382
    5CHTO   C87 1866   7.144   2.468   1.495 -0.3208 -0.3103 -0.5498
    5CHTO  H159 1867   7.161   2.434   1.597 -2.3808  0.7959  0.2048
    5CHTO   O53 1868   7.052   2.578   1.494  0.3588 -0.0077 -0.3911
    5CHTO   C82 1869   6.918   2.551   1.532  0.3055  0.8297  0.4326
    5CHTO  H154 1870   6.909   2.519   1.635 -1.2720 -0.5851 -0.1142
    5CHTO   C89 1871   6.850   2.687   1.517 -0.0037  0.9712 -0.1316
    5CHTO   O59 1872   6.732   2.687   1.592  1.0323  0.4170  0.0319
    5CHTO  H137 1873   6.678   2.764   1.599  2.2138  1.7939 -4.5274
    5CHTO   O45 1874   7.284   2.521   1.443  0.7061  0.7637  0.7692
    5CHTO   C67 1875   7.378   2.552   1.547  0.2806  0.0560  0.0963
    5CHTO  H124 1876   7.326   2.580   1.639 -1.5797  2.1885 -1.5192
    5CHTO   C65 1877   7.468   2.432   1.580  0.3771 -0.7616 -0.3276
    5CHTO  H122 1878   7.467   2.374   1.487  0.2234 -0.2767 -0.6311
    5CHTO   O44 1879   7.407   2.349   1.679  0.0606 -0.0533 -0.1126
    5CHTO  H102 1880   7.315   2.336   1.663  0.0832  0.5465 -0.7758
    5CHTO   C63 1881   7.622   2.469   1.593  1.4479 -0.7780  1.2736
    5CHTO  H120 1882   7.657   2.504   1.495 -1.7703  0.1229  0.3982
    5CHTO   N11 1883   7.705   2.353   1.630 -0.0764 -0.4053  0.5369
    5CHTO  H108 1884   7.657   2.268   1.588 -0.6173  0.0091  0.3137
    5CHTO  H109 1885   7.703   2.354   1.737  1.9959 -1.1304  0.6026
    5CHTO   C61 1886   7.633   2.597   1.671  0.2543  1.0922  0.6430
    5CHTO  H118 1887   7.741   2.619   1.678  0.8965 -0.9918 -1.7960
    5CHTO   O40 1888   7.569   2.702   1.612 -0.3887 -0.0772 -0.2947
    5CHTO   C68 1889   7.457   2.689   1.511 -0.1852  0.6869 -0.6738
    5CHTO  H125 1890   7.490   2.681   1.405 -2.9440  0.5423 -1.5643
    5CHTO   C72 1891   7.360   2.812   1.522 -0.0391  0.1523 -0.2857
    5CHTO   O48 1892   7.429   2.942   1.507 -0.2570  0.8002 -0.4033
    5CHTO  H105 1893   7.458   2.973   1.590  3.3035  1.4579 -1.8334
    5CHTO   O38 1894   7.584   2.587   1.802 -0.5003  0.4357 -0.1260
    5CHTO   C55 1895   7.563   2.698   1.899  0.5160 -0.0589 -0.7661
    5CHTO  H112 1896   7.506   2.778   1.849  1.2122 -0.4649 -2.2245
    5CHTO   C56 1897   7.709   2.754   1.945  0.1936  0.5515 -0.2763
    5CHTO  H113 1898   7.765   2.668   1.984 -1.8122 -0.2093  0.9744
    5CHTO   O42 1899   7.779   2.793   1.829  0.1787 -0.3865 -0.2241
    5CHTO  H100 1900   7.756   2.881   1.808 -2.8911 -1.3262 -1.0328
    5CHTO   C57 1901   7.686   2.854   2.052 -0.5071 -0.4294  0.1052
    5CHTO  H114 1902   7.635   2.940   2.009 -1.6335 -0.7307  0.8119
    5CHTO   N10 1903   7.804   2.917   2.114  0.8718  0.0054  0.2952
    5CHTO  H106 1904   7.893   2.926   2.054  0.0260 -0.5549 -1.0588
    5CHTO  H107 1905   7.831   2.852   2.195  3.7907 -0.2621 -0.8376
    5CHTO   C58 1906   7.596   2.806   2.165  0.6200 -0.4601  0.0802
    5CHTO  H115 1907   7.644   2.720   2.218  2.8717 -0.1119 -1.3085
    5CHTO   O37 1908   7.470   2.753   2.114  0.7382 -0.6852 -0.1288
    5CHTO   C59 1909   7.486   2.647   2.024  1.1228  0.1896  0.8332
    5CHTO  H116 1910   7.538   2.564   2.072  0.9188 -1.8170 -2.3086
    5CHTO   C70 1911   7.345   2.591   1.990 -0.3460  0.1805  0.7753
    5CHTO   O46 1912   7.261   2.569   2.105  0.1125 -0.1892  0.3284
    5CHTO  H103 1913   7.172   2.566   2.075 -0.6472  1.9144  2.1456
    5CHTO   O39 1914   7.555   2.941   2.289 -0.1460  0.0220 -0.1084
    5CHTO   C60 1915   7.420   2.995   2.275  0.5219  0.3690  0.2044
    5CHTO  H117 1916   7.381   2.979   2.174  2.6281  1.0053 -0.7228
    5CHTO   C62 1917   7.311   2.924   2.366  0.0964  0.6820 -0.1448
    5CHTO  H119 1918   7.315   2.820   2.328 -3.0470  0.4944 -0.0408
    5CHTO   O43 1919   7.350   2.920   2.503 -0.2986 -0.0110  0.1197
    5CHTO  H101 1920   7.308   2.844   2.539 -0.2119  0.9607  2.4177
    5CHTO   C66 1921   7.162   2.993   2.346  0.2945  0.1986 -0.2789
    5CHTO  H123 1922   7.126   2.970   2.246  2.8789 -1.2965 -0.8908
    5CHTO   N12 1923   7.061   2.936   2.439  0.0903 -0.1711 -0.6279
    5CHTO  H110 1924   7.112   2.906   2.529  0.4648  2.0617 -0.0792
    5CHTO  H111 1925   6.983   3.008   2.457  0.3733  0.0074 -0.1240
    5CHTO   C69 1926   7.167   3.150   2.353  0.2505  0.0838 -0.3166
    5CHTO  H126 1927   7.186   3.200   2.450 -3.0214 -0.2941  0.5588
    5CHTO   O41 1928   7.277   3.201   2.259  0.2581  0.2724  0.0739
    5CHTO   C64 1929   7.411   3.141   2.301  0.5276 -0.1194 -0.3073
    5CHTO  H121 1930   7.429   3.159   2.409 -0.0253 -0.6293 -0.1317
    5CHTO   C71 1931   7.524   3.212   2.228  0.6364  0.1590  0.8019
    5CHTO   O47 1932   7.527   3.351   2.251 -0.2084  0.1687 -0.3693
    5CHTO  H104 1933   7.612   3.379   2.222 -0.1444 -1.6849 -2.0539
    5CHTO   O34 1934   7.031   3.210   2.296  0.3721  0.0897 -0.0894
    5CHTO   C49 1935   6.961   3.347   2.252 -0.5472 -0.5107  0.3197
    5CHTO   H91 1936   7.004   3.367   2.154 -0.6696  0.7152  0.5139
    5CHTO   C47 1937   7.000   3.452   2.353  0.0422  0.4663  0.5006
    5CHTO   H89 1938   6.954   3.550   2.328 -3.3072 -0.9019  0.9498
    5CHTO   O33 1939   7.145   3.471   2.341 -0.0402 -0.4931 -0.3041
    5CHTO   H70 1940   7.174   3.536   2.403  1.7433 -1.7351  0.1942
    5CHTO   C45 1941   6.939   3.404   2.496  0.1763  0.2349 -1.0561
    5CHTO   H87 1942   6.960   3.297   2.509 -0.7172  0.3145  1.4031
    5CHTO    N8 1943   7.012   3.479   2.602  0.0477  0.0149 -0.2848
    5CHTO   H75 1944   7.089   3.545   2.566 -1.5622  1.8309 -0.5102
    5CHTO   H76 1945   7.042   3.427   2.691 -0.0918  0.6768  0.1542
    5CHTO   C43 1946   6.779   3.420   2.487  0.0821 -0.0850  0.1031
    5CHTO   H85 1947   6.733   3.392   2.582  1.9957  0.3840  1.2099
    5CHTO   O29 1948   6.739   3.343   2.375  0.3521 -0.1367  0.8438
    5CHTO   C50 1949   6.805   3.351   2.248  0.5513 -0.9696  0.4290
    5CHTO   H92 1950   6.774   3.267   2.184 -3.9150  0.9825 -0.0970
    5CHTO   C54 1951   6.755   3.469   2.157 -0.4123 -0.0450  0.0231
    5CHTO   O36 1952   6.612   3.451   2.116 -0.2801 -0.0713 -0.4913
    5CHTO   H72 1953   6.589   3.510   2.048 -0.7576  2.3676  1.7233
    5CHTO   O27 1954   6.735   3.559   2.481  0.8647  0.3870 -0.8688
    5CHTO   C37 1955   6.633   3.656   2.526 -0.7462 -0.3251 -0.0499
    5CHTO   H79 1956   6.641   3.746   2.463 -0.7551  0.6139  1.2811
    5CHTO   C38 1957   6.489   3.598   2.531 -0.4770  0.1115  0.4638
    5CHTO   H80 1958   6.492   3.500   2.582  0.1129  0.3242  0.8323
    5CHTO   O31 1959   6.465   3.578   2.392 -0.3397  0.1475  0.5316
    5CHTO   H68 1960   6.414   3.650   2.358  1.4004  1.9546  1.6059
    5CHTO   C39 1961   6.390   3.695   2.586  0.0453 -0.3285 -0.3066
    5CHTO   H81 1962   6.403   3.778   2.517 -0.4710  0.0012 -0.0057
    5CHTO    N7 1963   6.247   3.656   2.595  0.4563  0.1870  0.1337
    5CHTO   H73 1964   6.186   3.739   2.629 -4.4227 -3.2289  0.2256
    5CHTO   H74 1965   6.230   3.570   2.658 -1.7386  0.0277 -0.6379
    5CHTO   C40 1966   6.434   3.745   2.725 -0.0006 -0.8098 -0.3700
    5CHTO   H82 1967   6.426   3.666   2.801 -0.5893 -1.0556 -0.6845
    5CHTO   O26 1968   6.570   3.792   2.720  0.7121  0.3272 -0.5415
    5CHTO   C41 1969   6.665   3.696   2.675 -0.2145  0.7155 -0.4099
    5CHTO   H83 1970   6.665   3.601   2.730 -0.9873  0.0550 -1.5359
    5CHTO   C52 1971   6.797   3.768   2.695  0.0730 -0.1897 -0.2850
    5CHTO   O35 1972   6.833   3.789   2.835 -0.1981  0.3139 -0.2306
    5CHTO   H71 1973   6.917   3.830   2.840 -1.6831  3.5205 -0.3449
    5CHTO   O28 1974   6.375   3.871   2.758  0.1297 -0.2955 -0.1828
    5CHTO   C42 1975   6.358   3.940   2.885  0.0526 -0.1914 -0.0832
    5CHTO   H84 1976   6.291   4.020   2.852 -0.9950 -0.9403  0.2237
    5CHTO   C44 1977   6.492   4.007   2.943 -0.3078  0.2403  0.4413
    5CHTO   H86 1978   6.568   4.010   2.865  1.0971  0.1379  1.7775
    5CHTO   O32 1979   6.459   4.143   2.973  0.4637  0.1837 -0.1132
    5CHTO   H69 1980   6.421   4.184   2.897  0.9341  0.1354 -0.3770
    5CHTO   C48 1981   6.551   3.929   3.065  0.1275  0.0231 -0.4822
    5CHTO   H90 1982   6.508   3.970   3.157  0.3456  2.0360 -1.2492
    5CHTO    N9 1983   6.702   3.956   3.081  0.4409  0.5693  0.2671
    5CHTO   H77 1984   6.738   3.981   2.982  2.6141  0.0458  0.8887
    5CHTO   H78 1985   6.731   4.031   3.153  0.5293 -0.9656  1.8420
    5CHTO   C51 1986   6.517   3.778   3.056 -0.0982  0.2540 -0.4391
    5CHTO   H93 1987   6.562   3.733   2.968  3.0554 -1.6157  1.9914
    5CHTO   O30 1988   6.370   3.769   3.062 -0.0018  0.1420 -0.8436
    5CHTO   C46 1989   6.282   3.854   2.990  0.4983 -0.2154  0.9250
    5CHTO   H88 1990   6.220   3.783   2.936 -0.7247 -0.7334  2.9536
    5CHTO   C53 1991   6.201   3.937   3.093  0.1316  0.4027  0.0223
    5CHTO   O72 1992   6.095   4.018   3.038  0.2557 -0.1337  0.3823
    5CHTO  H199 1993   6.074   3.976   2.957  1.3795  0.1801 -0.0721
    5CHTO   O22 1994   6.560   3.709   3.182 -0.5555 -0.4092  0.7416
    5CHTO   C31 1995   6.576   3.563   3.179 -0.1341 -0.1174  0.5475
    5CHTO   H59 1996   6.575   3.527   3.284 -0.4680  0.0167  0.5926
    5CHTO   C29 1997   6.461   3.482   3.110 -0.2109 -0.0697 -0.5223
    5CHTO   H57 1998   6.442   3.539   3.017  0.1778 -0.6728 -0.9773
    5CHTO   O21 1999   6.342   3.491   3.196 -0.0866 -1.0520  0.1186
    5CHTO   H37 2000   6.352   3.446   3.278 -0.2668  0.2829  0.8813
    5CHTO   C27 2001   6.494   3.329   3.065 -0.1906  0.3612 -0.2234
    5CHTO   H55 2002   6.470   3.262   3.149 -0.4615 -0.3574 -0.8624
    5CHTO    N5 2003   6.403   3.287   2.958  0.7001  0.3494  0.3987
    5CHTO   H43 2004   6.453   3.324   2.870 -0.3623  0.9580  0.0558
    5CHTO   H44 2005   6.407   3.180   2.940 -2.2851  0.3378 -0.4147
    5CHTO   C25 2006   6.647   3.306   3.027 -0.1035 -0.3288 -0.5066
    5CHTO   H53 2007   6.672   3.352   2.930  0.4438 -0.9425 -0.6601
    5CHTO   O17 2008   6.718   3.365   3.130  0.2540  0.5791 -0.1865
    5CHTO   C32 2009   6.718   3.512   3.125 -0.4884 -0.4940 -0.5228
    5CHTO   H60 2010   6.741   3.556   3.028 -2.2512  1.6947  0.0099
    5CHTO   C36 2011   6.835   3.560   3.217  0.0195 -0.5266 -0.1743
    5CHTO   O25 2012   6.961   3.539   3.159 -0.2772  0.8461 -0.3020
    5CHTO   H40 2013   7.021   3.503   3.222 -1.8093  1.0807  1.3070
    5CHTO   O15 2014   6.695   3.158   2.998  0.4053  0.7830  0.0532
    5CHTO   C19 2015   6.770   3.040   3.020  0.5485  0.2075  0.6646
    5CHTO   H47 2016   6.836   3.056   3.106 -0.8854 -0.0189  1.8247
    5CHTO   C20 2017   6.688   2.914   3.029 -0.2791  0.2286 -0.6087
    5CHTO   H48 2018   6.616   2.904   2.946 -0.9352 -1.6243  0.1674
    5CHTO   O19 2019   6.605   2.934   3.150  0.3362 -0.0867  0.4909
    5CHTO   H35 2020   6.565   3.019   3.145  0.8338  0.1139 -0.0460
    5CHTO   C21 2021   6.777   2.792   3.054 -0.1354  0.5856 -0.4347
    5CHTO   H49 2022   6.821   2.799   3.154 -0.5173  0.0828 -0.2263
    5CHTO    N4 2023   6.701   2.663   3.071  0.1258 -0.3672 -0.5777
    5CHTO   H41 2024   6.627   2.637   2.996 -0.1854 -2.7707  0.5161
    5CHTO   H42 2025   6.766   2.578   3.082 -0.8701 -1.2685 -1.4998
    5CHTO   C22 2026   6.892   2.792   2.949  0.0318 -0.2577  0.1442
    5CHTO   H50 2027   6.851   2.752   2.856  0.5657 -2.4444  0.8301
    5CHTO   O14 2028   6.958   2.924   2.933  0.3621  0.5984  0.1265
    5CHTO   C23 2029   6.871   3.032   2.902 -0.3835 -0.2079  0.2529
    5CHTO   H51 2030   6.816   3.019   2.807 -0.6440 -1.9613  0.6358
    5CHTO   C34 2031   6.955   3.161   2.880 -0.1430  0.0409 -0.2103
    5CHTO   O23 2032   7.057   3.129   2.787  0.2631 -0.4171 -0.0652
    5CHTO   H38 2033   7.109   3.202   2.760 -0.5003  0.4012  0.6241
    5CHTO   O16 2034   7.000   2.705   3.003 -0.2706  0.0400 -0.4378
    5CHTO   C24 2035   7.072   2.626   2.888  0.3348 -0.1811 -0.3344
    5CHTO   H52 2036   7.024   2.642   2.791 -1.3820  0.7310  0.6563
    5CHTO   C26 2037   7.064   2.475   2.922 -0.6321  0.0524 -0.2839
    5CHTO   H54 2038   7.080   2.459   3.031 -0.4118  0.5646 -0.2412
    5CHTO   O20 2039   6.930   2.419   2.895 -0.0256 -0.0258  0.4453
    5CHTO   H36 2040   6.903   2.460   2.815  1.6503  3.0060  1.3578
    5CHTO   C30 2041   7.172   2.396   2.846  0.0922 -0.3623  0.7212
    5CHTO   H58 2042   7.137   2.376   2.744 -0.3459 -0.4829  0.8960
    5CHTO    N6 2043   7.194   2.261   2.901  0.7937  0.5518  0.3306
    5CHTO   H45 2044   7.229   2.270   3.003 -0.0267  1.6602  0.5351
    5CHTO   H46 2045   7.105   2.200   2.896  0.2607  1.4449 -1.7504
    5CHTO   C33 2046   7.312   2.466   2.835  0.4872  0.3997 -0.7336
    5CHTO   H61 2047   7.349   2.472   2.938  1.1586  1.7563 -1.0381
    5CHTO   O18 2048   7.293   2.600   2.791  0.3007 -0.4061  0.1726
    5CHTO   C28 2049   7.214   2.683   2.878  0.3287 -0.1502 -0.4603
    5CHTO   H56 2050   7.252   2.679   2.980 -2.9858  1.9771  0.9276
    5CHTO   C35 2051   7.221   2.831   2.821 -0.2188  0.1210  0.3246
    5CHTO   O24 2052   7.359   2.870   2.823  0.1652  0.1850  0.2475
    5CHTO   H39 2053   7.367   2.964   2.825  2.5445  0.0054  0.3607
    5CHTO    O9 2054   7.412   2.396   2.755  0.0458  0.1562 -0.3497
    5CHTO   C13 2055   7.402   2.409   2.592  0.2527 -0.5844  0.3716
    5CHTO   H26 2056   7.293   2.428   2.584  0.1570 -0.8549  1.0308
    5CHTO   C11 2057   7.450   2.272   2.530  0.8271  0.1719  0.7799
    5CHTO   H24 2058   7.374   2.196   2.554 -0.3024  0.5960 -1.3049
    5CHTO    O8 2059   7.579   2.248   2.579  0.6654  0.0691  0.4235
    5CHTO    H3 2060   7.570   2.183   2.646  2.8283 -0.0437  0.6153
    5CHTO    C9 2061   7.445   2.280   2.374 -0.3707 -0.4791 -0.1924
    5CHTO   H22 2062   7.339   2.303   2.352  0.0670  0.9365 -0.8981
    5CHTO    N2 2063   7.461   2.148   2.308  0.0052  0.1008 -0.2283
    5CHTO   H10 2064   7.565   2.121   2.296  0.4440  1.0272  1.3138
    5CHTO   H11 2065   7.424   2.167   2.209 -1.9876 -0.6291  0.3572
    5CHTO    C7 2066   7.531   2.397   2.320  0.4458 -0.0941  0.0129
    5CHTO   H20 2067   7.505   2.395   2.212  2.5088 -0.4667 -0.4981
    5CHTO    O4 2068   7.501   2.523   2.386 -0.1971  0.5046 -0.0761
    5CHTO   C14 2069   7.463   2.545   2.526 -0.9325 -0.2571  0.0496
    5CHTO   H27 2070   7.385   2.624   2.526 -0.8354 -0.1475  1.0843
    5CHTO   C18 2071   7.577   2.597   2.605 -0.7968 -0.5115 -0.4731
    5CHTO   O13 2072   7.627   2.725   2.565 -0.2329 -1.1674 -0.1886
    5CHTO    H7 2073   7.714   2.714   2.532  1.6717  2.4437  3.1796
    5CHTO    O2 2074   7.694   2.368   2.341  0.5144  0.6468 -0.2495
    5CHTO    C1 2075   7.771   2.409   2.227 -0.7926  0.2917 -0.1207
    5CHTO   H14 2076   7.714   2.492   2.179 -1.7290  0.3617  1.0860
    5CHTO    C2 2077   7.785   2.286   2.120  0.5189  0.2682  0.1840
    5CHTO   H15 2078   7.808   2.191   2.170 -2.7312  0.8249  2.9020
    5CHTO    O6 2079   7.655   2.270   2.054  0.0024 -0.5560 -0.5319
    5CHTO    H1 2080   7.667   2.224   1.973  2.0032 -0.9483 -0.0337
    5CHTO    C3 2081   7.896   2.323   2.009 -0.4739 -0.1096 -0.1249
    5CHTO   H16 2082   7.862   2.410   1.951 -0.1298  1.0084  1.3035
    5CHTO    N1 2083   7.928   2.210   1.913 -0.9114  0.3824  0.1604
    5CHTO    H8 2084   7.965   2.117   1.953 -1.3330 -0.0462 -0.4538
    5CHTO    H9 2085   7.993   2.244   1.833 -2.1511 -1.2420 -1.5949
    5CHTO    C4 2086   8.024   2.369   2.086  0.8995  0.8159  0.2403
    5CHTO   H17 2087   8.058   2.287   2.148 -3.8879 -1.1593  0.4856
    5CHTO    O1 2088   7.997   2.482   2.175 -0.0732 -0.7698 -0.1493
    5CHTO    C5 2089   7.904   2.465   2.275 -1.2222 -0.5966  0.8986
    5CHTO   H18 2090   7.946   2.388   2.341  1.7671  0.7786  0.6661
    5CHTO   C16 2091   7.890   2.598   2.356 -0.3791 -0.6714 -0.1938
    5CHTO   O11 2092   8.019   2.638   2.405  0.2397  0.2659 -0.3526
    5CHTO    H5 2093   8.080   2.578   2.366 -0.3628 -1.6438  1.5908
    5CHTO    O3 2094   8.124   2.429   2.000 -0.0871 -0.4198 -0.5172
    5CHTO    C6 2095   8.254   2.455   2.053 -0.1409 -0.5752 -0.1922
    5CHTO   H19 2096   8.262   2.461   2.161  0.3293 -1.5059 -0.1672
    5CHTO    C8 2097   8.337   2.332   2.007 -0.4322  0.1995 -0.8224
    5CHTO   H21 2098   8.343   2.333   1.898 -1.3880 -2.1242 -0.9271
    5CHTO    O7 2099   8.289   2.209   2.053  0.0329  0.7308 -0.1220
    5CHTO    H2 2100   8.261   2.212   2.142  0.7979  0.5534  0.1256
    5CHTO   C12 2101   8.495   2.356   2.042 -0.0346  0.0297 -0.0376
    5CHTO   H25 2102   8.511   2.347   2.151 -1.5285  0.0014  0.1875
    5CHTO    N3 2103   8.590   2.255   1.984 -0.6594  0.0574  0.3290
    5CHTO   H12 2104   8.664   2.225   2.057  1.2948 -1.6376 -2.2717
    5CHTO   H13 2105   8.643   2.313   1.910  3.6781  0.2151  3.3122
    5CHTO   C15 2106   8.532   2.506   1.999  0.2350 -0.2547 -0.0904
    5CHTO   H28 2107   8.559   2.520   1.895  0.8116 -0.8520 -0.0221
    5CHTO   O10 2108   8.644   2.550   2.086  0.2852 -0.6566 -0.2232
    5CHTO    H4 2109   8.723   2.499   2.082  0.6841 -0.0793  0.2007
    5CHTO    O5 2110   8.442   2.606   2.048 -0.0692 -0.2199  0.6824
    5CHTO   C10 2111   8.316   2.582   1.991 -0.2756 -0.0546 -0.4440
    5CHTO   H23 2112   8.330   2.571   1.884 -1.2591  0.8246 -0.6763
    5CHTO   C17 2113   8.228   2.707   2.029  0.0923  0.4160 -0.8596
    5CHTO   O12 2114   8.242   2.751   2.162 -0.1905 -0.0120 -0.7636
    5CHTO    H6 2115   8.295   2.829   2.168  4.3434 -2.9283 -0.7292
    6CHTO  H203 2116   7.898   4.707   0.408 -0.7276 -0.5703 -1.5545
    6CHTO   O82 2117   7.957   4.773   0.377 -0.3590  0.2915  0.8643
    6CHTO  C123 2118   7.880   4.894   0.358  0.2417  0.0613  0.2490
    6CHTO  H227 2119   7.945   4.960   0.299  1.0455  0.5044  1.6006
    6CHTO   O77 2120   7.763   4.853   0.274  0.7173  0.1037  0.3754
    6CHTO  C118 2121   7.662   4.956   0.247 -0.1067 -0.2431  0.4063
    6CHTO  H222 2122   7.714   5.028   0.182  0.6950  0.5705  1.9139
    6CHTO  C125 2123   7.537   4.890   0.165 -0.1717  0.2788  0.1279
    6CHTO   O84 2124   7.461   4.792   0.246 -0.5929  0.1036  0.3230
    6CHTO  H205 2125   7.506   4.773   0.326  2.0391 -0.8841 -1.3359
    6CHTO  C114 2126   7.621   5.019   0.379 -0.2464  0.1074 -0.0899
    6CHTO  H218 2127   7.586   4.940   0.445 -0.0470  0.3501  0.3075
    6CHTO  C116 2128   7.738   5.083   0.452 -0.3467  0.8308 -0.4305
    6CHTO  H220 2129   7.783   5.166   0.393  1.2533  0.7315  0.6220
    6CHTO   O79 2130   7.679   5.144   0.565 -0.1576  0.2690 -0.6015
    6CHTO  H201 2131   7.749   5.185   0.612  3.1077 -2.5959 -2.6594
    6CHTO  C120 2132   7.836   4.968   0.486  0.5745  0.4783  0.1157
    6CHTO  H224 2133   7.788   4.885   0.543 -1.9198  2.2839  0.7424
    6CHTO   N21 2134   7.950   5.017   0.567  0.2332 -0.0469  0.0233
    6CHTO  H211 2135   7.993   4.930   0.614  0.7041  0.2395  0.1275
    6CHTO  H212 2136   7.920   5.095   0.635 -1.0823 -0.0800 -0.5071
    6CHTO   O75 2137   7.519   5.111   0.342 -0.0040  0.7332  0.0425
    6CHTO  C112 2138   7.393   5.101   0.441  0.3608 -0.7738  0.0102
    6CHTO  H216 2139   7.429   5.079   0.543 -1.0494 -2.7973  0.1022
    6CHTO   O73 2140   7.306   4.996   0.390 -0.6004  0.6850  0.3588
    6CHTO  C113 2141   7.192   4.962   0.470  0.8776 -0.6143 -0.0152
    6CHTO  H217 2142   7.223   4.941   0.575 -1.4203  1.5239  1.1296
    6CHTO  C124 2143   7.133   4.833   0.419  0.1198 -0.0735  0.7855
    6CHTO   O83 2144   7.205   4.707   0.431  0.0998 -0.8226  0.9002
    6CHTO  H204 2145   7.291   4.726   0.398 -0.8239  0.8550 -0.6011
    6CHTO  C109 2146   7.094   5.083   0.465 -0.4755  0.0981 -0.7525
    6CHTO  H213 2147   7.076   5.099   0.358  0.6502 -1.4527 -1.1956
    6CHTO  C110 2148   7.173   5.216   0.521  0.7558 -0.6811  0.2371
    6CHTO  H214 2149   7.184   5.203   0.629 -0.7129  2.6229  0.8536
    6CHTO   O78 2150   7.084   5.333   0.495  0.0139  0.1943  0.1961
    6CHTO  H200 2151   7.093   5.356   0.404 -1.8716  3.7337  0.8148
    6CHTO  C111 2152   7.315   5.236   0.445  0.0679 -0.2344 -0.0995
    6CHTO  H215 2153   7.299   5.267   0.340  0.1383  0.7727  0.1801
    6CHTO   N19 2154   7.394   5.344   0.513  0.2751  0.0882  0.1469
    6CHTO  H207 2155   7.494   5.357   0.475  0.6431 -0.1708  1.0004
    6CHTO  H208 2156   7.348   5.442   0.508  0.4930  0.0995 -1.8351
    6CHTO   O74 2157   6.969   5.048   0.528  0.0590 -0.2201 -0.3494
    6CHTO  C115 2158   6.967   5.011   0.689  0.1048 -0.2975 -0.3607
    6CHTO  H219 2159   7.061   4.974   0.728 -1.0572 -0.2394  2.6037
    6CHTO   O76 2160   6.943   5.136   0.775 -0.7853 -0.5675  0.2059
    6CHTO  C122 2161   6.817   5.200   0.757 -0.0304  0.5627 -0.4307
    6CHTO  H226 2162   6.827   5.250   0.661  2.0534 -2.0432 -1.6244
    6CHTO  C126 2163   6.808   5.314   0.868  0.2682  0.8808  0.4860
    6CHTO   O85 2164   6.700   5.405   0.856  0.3236 -0.0615 -0.5018
    6CHTO  H206 2165   6.627   5.359   0.893  0.0218  0.3143 -0.6304
    6CHTO  C121 2166   6.694   5.101   0.757 -0.1744  0.4348  0.8371
    6CHTO  H225 2167   6.620   5.144   0.828 -2.3647  0.1794 -1.2254
    6CHTO   O81 2168   6.625   5.093   0.628 -0.5013 -0.5348 -0.6769
    6CHTO  H202 2169   6.615   5.002   0.607 -1.0591 -0.9198  1.1622
    6CHTO  C119 2170   6.741   4.963   0.799 -0.1911  0.2103  0.0440
    6CHTO  H223 2171   6.783   4.978   0.898  0.9236 -2.4179  0.0048
    6CHTO  C117 2172   6.847   4.909   0.706 -0.3719  0.3797  0.5764
    6CHTO  H221 2173   6.804   4.901   0.606  2.3132 -0.2110 -0.5894
    6CHTO   N20 2174   6.888   4.773   0.748 -0.0163  0.1670 -0.1205
    6CHTO  H209 2175   6.960   4.735   0.676  0.8116  2.9395 -0.8206
    6CHTO  H210 2176   6.931   4.777   0.847  0.0607 -1.5810 -0.0583
    6CHTO   O80 2177   6.616   4.865   0.837  0.0503  0.2539  0.3118
    6CHTO  C103 2178   6.560   4.845   0.983  0.2212 -0.0292  0.0700
    6CHTO  H190 2179   6.641   4.809   1.046  1.4785  1.8109 -0.4317
    6CHTO  C101 2180   6.486   4.967   1.053 -0.7814  0.2080 -0.2829
    6CHTO  H188 2181   6.424   5.020   0.982  0.8181  0.6025 -1.3928
    6CHTO   O68 2182   6.610   5.090   1.113 -0.5888  0.1536  0.0776
    6CHTO  H168 2183   6.584   5.115   1.199  0.0902 -0.6382  0.5265
    6CHTO   C99 2184   6.399   4.913   1.182 -0.4417  0.6967 -0.5606
    6CHTO  H186 2185   6.472   4.882   1.259 -1.0136 -2.6162 -1.2621
    6CHTO   N17 2186   6.306   5.012   1.251  0.8349 -0.0005  0.2132
    6CHTO  H174 2187   6.298   5.105   1.197  0.2020 -0.3375 -0.2784
    6CHTO  H175 2188   6.352   5.028   1.348  0.4289  0.6619  0.3006
    6CHTO   C97 2189   6.320   4.786   1.149  0.3510  0.5703 -0.2680
    6CHTO  H184 2190   6.244   4.818   1.077  0.5761  0.9565 -0.3371
    6CHTO   O64 2191   6.412   4.686   1.094  0.0782  0.1469  0.1775
    6CHTO  C104 2192   6.459   4.728   0.968 -0.1685  0.0547 -0.8975
    6CHTO  H191 2193   6.375   4.765   0.909 -0.6276 -1.4190 -1.1893
    6CHTO  C108 2194   6.524   4.607   0.892  0.0271 -0.2498  0.0212
    6CHTO   O71 2195   6.427   4.496   0.892 -0.0039  0.0941 -0.0549
    6CHTO  H171 2196   6.401   4.482   0.981  1.4270  0.8060  0.4849
    6CHTO   O62 2197   6.255   4.720   1.260  0.2542 -0.0979  0.1339
    6CHTO   C91 2198   6.118   4.683   1.236  0.7120 -0.7712 -0.3782
    6CHTO  H178 2199   6.061   4.766   1.196  2.3127 -1.3938 -4.1570
    6CHTO   C92 2200   6.054   4.653   1.376 -0.0782 -0.0844  0.5692
    6CHTO  H179 2201   6.078   4.727   1.454  2.3628 -1.6729  1.3896
    6CHTO   O66 2202   5.913   4.649   1.364  0.5008 -0.0445  0.5083
    6CHTO  H166 2203   5.886   4.608   1.284 -0.9393  0.2231  0.8330
    6CHTO   C93 2204   6.096   4.513   1.433  0.6750  0.6198 -0.3723
    6CHTO  H180 2205   6.011   4.474   1.491  1.5466  2.2491  2.0850
    6CHTO   N16 2206   6.208   4.510   1.533 -0.3456 -0.5015 -0.6983
    6CHTO  H172 2207   6.208   4.609   1.576 -0.2026 -0.9521  0.3422
    6CHTO  H173 2208   6.208   4.431   1.607  0.7451 -1.7848 -2.0378
    6CHTO   C94 2209   6.133   4.409   1.319 -0.2918  0.0384  0.0162
    6CHTO  H181 2210   6.240   4.406   1.296  0.0781  1.7436  1.4865
    6CHTO   O61 2211   6.057   4.440   1.195  0.2603 -0.1776  0.2289
    6CHTO   C95 2212   6.116   4.562   1.136 -0.5042 -0.0595  0.0276
    6CHTO  H182 2213   6.222   4.540   1.119 -0.7472 -0.1011 -1.5188
    6CHTO  C106 2214   6.046   4.590   1.003  0.7315  0.3559 -0.6678
    6CHTO   O69 2215   6.030   4.495   0.897 -0.0869  0.6547 -0.4081
    6CHTO  H169 2216   5.960   4.532   0.847  1.2225  0.8035 -2.1722
    6CHTO   O63 2217   6.086   4.263   1.368 -0.3772  0.5036  0.1756
    6CHTO   C96 2218   6.129   4.149   1.276  0.3573  0.2700  0.6864
    6CHTO  H183 2219   6.194   4.188   1.197 -0.5724  0.2207 -0.1079
    6CHTO   C98 2220   6.006   4.064   1.219  1.0024 -0.6880  0.1511
    6CHTO  H185 2221   5.949   4.022   1.303 -2.1793 -0.3774 -1.7922
    6CHTO   O67 2222   5.913   4.156   1.153 -0.4155  0.1238  0.0217
    6CHTO  H167 2223   5.915   4.153   1.060  1.5806  2.5161 -0.0624
    6CHTO  C102 2224   6.053   3.951   1.116  0.0406 -0.2105  0.0376
    6CHTO  H189 2225   6.033   3.992   1.015  0.4515  1.3440  0.5688
    6CHTO   N18 2226   5.973   3.831   1.116  0.6847  0.1824 -0.2711
    6CHTO  H176 2227   5.994   3.763   1.034 -2.7156 -2.3643  0.8444
    6CHTO  H177 2228   5.987   3.774   1.207  1.4243  1.1981  0.2607
    6CHTO  C105 2229   6.203   3.913   1.134  0.3749 -0.1547 -0.1438
    6CHTO  H192 2230   6.220   3.807   1.114 -2.3380 -0.6431  0.0078
    6CHTO   O65 2231   6.247   3.933   1.271  0.6510  0.1203 -0.2740
    6CHTO  C100 2232   6.218   4.042   1.358  0.0764  0.3016 -0.1163
    6CHTO  H187 2233   6.163   3.997   1.442  0.8635 -0.1085  0.1825
    6CHTO  C107 2234   6.342   4.111   1.414  0.0901 -0.0476  0.1574
    6CHTO   O70 2235   6.328   4.161   1.541 -0.2609  0.1259 -0.6861
    6CHTO  H170 2236   6.337   4.095   1.608 -0.8784  1.1186  0.4035
    6CHTO   O57 2237   6.277   4.004   1.044  0.5062  0.1003 -0.1797
    6CHTO   C85 2238   6.367   3.960   0.943  0.0698  0.4785  0.5510
    6CHTO  H157 2239   6.308   3.908   0.866  0.3342  0.2224  0.5186
    6CHTO   C83 2240   6.477   3.859   0.990 -0.2630 -0.6801  0.4001
    6CHTO  H155 2241   6.428   3.770   1.027  0.2091 -0.8965  0.5110
    6CHTO   O56 2242   6.548   3.910   1.108  0.1499  0.0800  0.2265
    6CHTO  H135 2243   6.513   3.989   1.144 -0.8486 -0.3083  0.1138
    6CHTO   C81 2244   6.570   3.818   0.873 -0.1811  0.6943  0.0861
    6CHTO  H153 2245   6.507   3.775   0.796 -0.3785  2.9272 -1.0294
    6CHTO   N14 2246   6.661   3.700   0.898  0.0377  0.3979  0.3643
    6CHTO  H141 2247   6.747   3.733   0.952  1.2167 -0.3614 -1.0060
    6CHTO  H142 2248   6.695   3.657   0.807 -0.6612 -1.7034  1.0577
    6CHTO   C79 2249   6.642   3.950   0.817  0.3774  0.2596  0.1745
    6CHTO  H151 2250   6.692   3.919   0.725  0.7781  3.7699 -0.8636
    6CHTO   O52 2251   6.545   4.055   0.779 -0.3158  0.6623 -0.3169
    6CHTO   C86 2252   6.448   4.083   0.881  0.5173 -0.5679  0.0854
    6CHTO  H158 2253   6.513   4.134   0.955  0.8703  0.2452 -0.7733
    6CHTO   C90 2254   6.353   4.179   0.818 -0.1847 -0.2697 -0.2270
    6CHTO   O60 2255   6.276   4.249   0.915  0.2056  0.2468 -0.3640
    6CHTO  H138 2256   6.252   4.334   0.882 -0.9998  0.1619  0.2831
    6CHTO   O50 2257   6.739   4.002   0.910  0.3169 -0.0566 -0.1929
    6CHTO   C73 2258   6.875   3.993   0.951  0.4009 -1.2138  0.6640
    6CHTO  H145 2259   6.905   3.887   0.955  0.9611 -1.0984 -0.5111
    6CHTO   C74 2260   6.898   4.055   1.092 -0.4954 -0.7368 -0.2456
    6CHTO  H146 2261   6.834   3.995   1.158  1.4074 -1.8321  0.6242
    6CHTO   O54 2262   7.035   4.028   1.136  0.0628 -0.4732  0.2384
    6CHTO  H133 2263   7.045   4.073   1.218 -2.6157 -0.4356  0.5698
    6CHTO   C75 2264   6.856   4.207   1.085 -0.3156  0.5825 -0.2157
    6CHTO  H147 2265   6.760   4.214   1.032  0.0452  1.0607 -0.8153
    6CHTO   N13 2266   6.836   4.265   1.220 -0.6420 -0.0966 -0.6662
    6CHTO  H139 2267   6.810   4.185   1.289  0.5118 -1.6218 -1.9772
    6CHTO  H140 2268   6.750   4.331   1.218 -1.9813 -1.7573 -0.1865
    6CHTO   C76 2269   6.957   4.277   0.999 -0.2345  0.5541  0.5107
    6CHTO  H148 2270   7.060   4.261   1.033 -0.0243 -2.0761 -1.2382
    6CHTO   O49 2271   6.947   4.219   0.864  0.0092  0.1442  0.8225
    6CHTO   C77 2272   6.978   4.075   0.858  0.0074  0.2111  0.6317
    6CHTO  H149 2273   7.077   4.062   0.901  1.9090 -0.3885 -3.6302
    6CHTO   C88 2274   6.977   4.024   0.716  0.3453 -0.5926  0.1581
    6CHTO   O58 2275   7.017   3.883   0.707  0.5338  0.2959 -0.0926
    6CHTO  H136 2276   7.030   3.869   0.615  0.0050 -1.3354  0.0551
    6CHTO   O51 2277   6.932   4.440   0.964  0.4605 -0.3495 -0.0010
    6CHTO   C78 2278   6.999   4.533   1.076 -0.0362  0.1371 -0.0830
    6CHTO  H150 2279   7.020   4.473   1.167 -1.0630  1.1542  0.8400
    6CHTO   C80 2280   6.903   4.650   1.117 -0.5816 -0.0021 -0.5706
    6CHTO  H152 2281   6.854   4.687   1.024 -1.9880 -0.7741 -0.1472
    6CHTO   O55 2282   6.804   4.583   1.200  0.0377  0.1614  0.0953
    6CHTO  H134 2283   6.772   4.507   1.156  3.2101 -0.6739 -0.8807
    6CHTO   C84 2284   6.979   4.769   1.193  0.3212 -0.3862  0.6003
    6CHTO  H156 2285   7.000   4.736   1.295 -2.0808  0.7382  1.5159
    6CHTO   N15 2286   6.884   4.887   1.193  0.4451  0.0042 -0.3379
    6CHTO  H143 2287   6.902   4.924   1.095 -1.6149  0.9427 -0.3937
    6CHTO  H144 2288   6.926   4.953   1.267  0.7895  0.1516 -0.6669
    6CHTO   C87 2289   7.117   4.800   1.139 -0.4406 -0.1334  0.1867
    6CHTO  H159 2290   7.113   4.853   1.044  1.4302 -0.5137 -0.1355
    6CHTO   O53 2291   7.187   4.692   1.136  0.7073  0.3303 -0.2067
    6CHTO   C82 2292   7.136   4.588   1.041 -0.4514 -0.4525  0.0941
    6CHTO  H154 2293   7.139   4.627   0.939 -0.9129  1.6885  0.8837
    6CHTO   C89 2294   7.238   4.465   1.039  0.4889 -0.1686 -0.1668
    6CHTO   O59 2295   7.365   4.515   1.002 -0.3098 -0.2834  0.5045
    6CHTO  H137 2296   7.426   4.444   0.991 -0.0568  0.3398 -2.3610
    6CHTO   O45 2297   7.191   4.907   1.231  0.0294 -0.2779 -0.3419
    6CHTO   C67 2298   7.310   4.974   1.180 -1.1256 -0.4514  0.1771
    6CHTO  H124 2299   7.385   4.901   1.148 -0.8535  0.4459 -1.2807
    6CHTO   C65 2300   7.271   5.066   1.057  0.5661 -0.1127  0.1300
    6CHTO  H122 2301   7.164   5.087   1.066  0.2825 -1.5357  0.2367
    6CHTO   O44 2302   7.285   4.991   0.932  0.6888  0.1720 -0.3989
    6CHTO  H102 2303   7.204   4.990   0.884  0.7140 -0.5077 -0.4322
    6CHTO   C63 2304   7.339   5.206   1.075  0.6595  0.5445 -0.3666
    6CHTO  H120 2305   7.292   5.257   1.159  0.1089  1.6945 -1.3545
    6CHTO   N11 2306   7.319   5.300   0.964 -0.0407  0.0650 -0.2810
    6CHTO  H108 2307   7.391   5.378   0.951 -0.1168  0.1925  0.0651
    6CHTO  H109 2308   7.288   5.242   0.880  0.7076 -0.8967  0.0969
    6CHTO   C61 2309   7.483   5.190   1.120 -0.5115 -0.4592  0.6363
    6CHTO  H118 2310   7.516   5.293   1.136 -0.6965  0.0869 -2.3576
    6CHTO   O40 2311   7.493   5.123   1.251  0.9332  0.2063  0.5889
    6CHTO   C68 2312   7.376   5.048   1.304 -0.2157  0.1378  0.2921
    6CHTO  H125 2313   7.311   5.121   1.356  0.1827  0.0959  0.8653
    6CHTO   C72 2314   7.432   4.947   1.410 -0.3888 -0.1767 -0.2328
    6CHTO   O48 2315   7.444   5.010   1.538  0.3707 -0.3126  0.2537
    6CHTO  H105 2316   7.497   5.088   1.533 -1.4080  0.9558  0.6920
    6CHTO   O38 2317   7.576   5.122   1.033 -0.4326  0.5467 -0.0641
    6CHTO   C55 2318   7.716   5.160   1.051 -0.1201  0.5982 -0.4537
    6CHTO  H112 2319   7.735   5.210   1.147  0.6854 -0.8912  0.1710
    6CHTO   C56 2320   7.757   5.256   0.927  0.1702  0.2649  0.0917
    6CHTO  H113 2321   7.738   5.203   0.833 -0.0514 -2.1917  1.4816
    6CHTO   O42 2322   7.686   5.380   0.930 -0.1078  0.2571  0.4049
    6CHTO  H100 2323   7.603   5.378   0.886 -1.6019  0.1263  3.1376
    6CHTO   C57 2324   7.911   5.286   0.943 -0.7093 -0.5144 -0.5365
    6CHTO  H114 2325   7.923   5.336   1.039  1.4868 -0.9042 -0.5831
    6CHTO   N10 2326   7.969   5.364   0.829  0.1238  0.0838 -0.7722
    6CHTO  H106 2327   7.897   5.424   0.776  1.3636  0.5521 -1.9457
    6CHTO  H107 2328   8.028   5.311   0.756  2.0449  1.4956 -0.2948
    6CHTO   C58 2329   7.991   5.156   0.953 -0.5710 -1.0826  0.5577
    6CHTO  H115 2330   8.000   5.107   0.854 -0.2166  1.1923 -0.5598
    6CHTO   O37 2331   7.940   5.065   1.055 -0.3508  0.5709  0.0377
    6CHTO   C59 2332   7.802   5.028   1.040 -0.7561  0.2373 -0.4196
    6CHTO  H116 2333   7.799   4.984   0.940 -3.0888  1.8964 -1.1061
    6CHTO   C70 2334   7.760   4.932   1.146 -0.5299 -0.0001 -0.0080
    6CHTO   O46 2335   7.818   4.801   1.134 -0.0189  0.2368 -0.0698
    6CHTO  H103 2336   7.765   4.729   1.107  0.3556  0.2779 -0.9714
    6CHTO   O39 2337   8.145   5.180   1.003 -0.0055  0.2466  0.3569
    6CHTO   C60 2338   8.247   5.097   0.944  1.0125 -0.7946 -0.6071
    6CHTO  H117 2339   8.208   4.996   0.931  1.0217 -1.0367  1.2008
    6CHTO   C62 2340   8.289   5.148   0.806  0.0257 -0.2320 -0.8039
    6CHTO  H119 2341   8.203   5.141   0.737 -0.1679 -1.0188 -0.4987
    6CHTO   O43 2342   8.330   5.291   0.809 -0.1543 -0.2611 -0.1963
    6CHTO  H101 2343   8.408   5.298   0.756  2.0760  0.2967  3.0021
    6CHTO   C66 2344   8.396   5.038   0.747 -0.6629  1.5156 -0.3573
    6CHTO  H123 2345   8.360   4.936   0.764  1.1617  0.7474 -0.8917
    6CHTO   N12 2346   8.411   5.051   0.600  0.1825 -0.0241 -0.2950
    6CHTO  H110 2347   8.491   4.994   0.556  0.2275 -0.6200  0.5629
    6CHTO  H111 2348   8.429   5.155   0.575  1.3010  0.1824  1.3328
    6CHTO   C69 2349   8.524   5.057   0.834  0.1853  0.5466  0.4643
    6CHTO  H126 2350   8.549   5.165   0.833  1.1842  0.3113 -0.8113
    6CHTO   O41 2351   8.487   4.997   0.983 -0.1827  0.3128  0.5806
    6CHTO   C64 2352   8.373   5.082   1.037 -0.2838  0.2891  0.7590
    6CHTO  H121 2353   8.414   5.184   1.057  1.1338  0.0219 -0.6357
    6CHTO   C71 2354   8.329   5.016   1.170 -0.4064  0.1722 -0.9793
    6CHTO   O47 2355   8.333   4.874   1.152  0.3488 -0.0391  0.2167
    6CHTO  H104 2356   8.257   4.864   1.098  0.6951  0.3640 -0.3623
    6CHTO   O34 2357   8.648   4.971   0.779 -0.0181 -0.6148 -0.1574
    6CHTO   C49 2358   8.805   4.995   0.757  0.6470  0.4195 -0.6751
    6CHTO   H91 2359   8.818   4.956   0.656  0.1786 -2.8331  0.4498
    6CHTO   C47 2360   8.886   4.913   0.856  0.5173 -0.0922  0.4436
    6CHTO   H89 2361   8.991   4.944   0.838  0.8416 -0.7155  1.2179
    6CHTO   O33 2362   8.872   4.774   0.834 -0.4251 -0.5453  0.5270
    6CHTO   H70 2363   8.955   4.731   0.828  0.9578  2.0190  0.4606
    6CHTO   C45 2364   8.846   4.961   1.011 -0.1444 -0.4738  0.8672
    6CHTO   H87 2365   8.738   4.952   1.027 -0.8554  0.5138 -2.9010
    6CHTO    N8 2366   8.914   4.881   1.116  0.4387  0.1590 -0.2838
    6CHTO   H75 2367   8.845   4.836   1.186  2.6584 -0.9651  1.2563
    6CHTO   H76 2368   8.999   4.935   1.155  0.6788  0.6358 -1.4792
    6CHTO   C43 2369   8.863   5.122   1.023  0.1153  0.1083  0.0218
    6CHTO   H85 2370   8.812   5.153   1.114  1.0994 -2.7498  1.5939
    6CHTO   O29 2371   8.819   5.196   0.910 -0.5134 -0.0814  0.0097
    6CHTO   C50 2372   8.836   5.144   0.776 -0.2408  0.3341  0.7855
    6CHTO   H92 2373   8.773   5.197   0.704 -2.1710 -1.6013  1.0035
    6CHTO   C54 2374   8.976   5.194   0.727 -0.2907  0.1646 -0.0240
    6CHTO   O36 2375   9.014   5.152   0.596  0.3155  0.0014  0.2414
    6CHTO   H72 2376   9.012   5.223   0.535  3.7713 -1.2904 -1.5058
    6CHTO   O27 2377   9.003   5.152   1.037 -0.1535 -0.0243 -0.1639
    6CHTO   C37 2378   9.104   5.227   1.095  0.2936 -0.0349  0.2691
    6CHTO   H79 2379   9.195   5.168   1.109  0.8584  0.9238  0.6641
    6CHTO   C38 2380   9.145   5.351   1.012  0.4496 -0.2019  0.9719
    6CHTO   H80 2381   9.056   5.399   0.969  1.5699  2.1834  1.2456
    6CHTO   O31 2382   9.221   5.299   0.897 -0.3897 -0.5591  0.0792
    6CHTO   H68 2383   9.158   5.271   0.833 -0.5545  0.1051 -0.0477
    6CHTO   C39 2384   9.227   5.458   1.098 -0.7948 -0.0675 -0.0671
    6CHTO   H81 2385   9.328   5.420   1.113  0.0410  1.0734 -2.6607
    6CHTO    N7 2386   9.255   5.579   1.019  0.0450 -0.4099 -0.0286
    6CHTO   H73 2387   9.352   5.595   0.975 -0.0431  0.0965 -0.0358
    6CHTO   H74 2388   9.244   5.662   1.087 -2.6865 -1.5859  1.0162
    6CHTO   C40 2389   9.155   5.498   1.224  0.3174  0.4810 -0.0131
    6CHTO   H82 2390   9.062   5.545   1.191 -0.3264 -0.2626  0.7113
    6CHTO   O26 2391   9.134   5.374   1.288 -0.5110 -0.7094  0.4872
    6CHTO   C41 2392   9.045   5.274   1.231  0.1002  0.0988  0.1861
    6CHTO   H83 2393   8.948   5.323   1.213  0.6104  0.4648 -1.7632
    6CHTO   C52 2394   9.013   5.156   1.334 -0.3032  0.0330 -0.3197
    6CHTO   O35 2395   9.128   5.065   1.371  0.1370  0.5258 -0.0950
    6CHTO   H71 2396   9.104   5.026   1.453  0.7123 -4.5755 -2.1568
    6CHTO   O28 2397   9.219   5.580   1.319 -0.0990  0.6801 -0.2657
    6CHTO   C42 2398   9.158   5.647   1.434 -0.4203  0.2606 -0.3282
    6CHTO   H84 2399   9.222   5.617   1.518 -1.8934 -0.3957  0.5721
    6CHTO   C44 2400   9.012   5.610   1.474  1.3462  0.6288  1.0116
    6CHTO   H86 2401   8.955   5.633   1.384 -0.5573 -1.1957  1.7059
    6CHTO   O32 2402   8.988   5.471   1.482  0.4417 -0.5766 -0.0195
    6CHTO   H69 2403   9.049   5.432   1.542 -0.0357 -2.0502 -0.4935
    6CHTO   C48 2404   8.957   5.697   1.602  0.5559  0.7879 -0.0778
    6CHTO   H90 2405   9.008   5.654   1.688 -1.2763 -1.0649  0.1232
    6CHTO    N9 2406   8.811   5.671   1.629  0.3817 -0.1076  0.2968
    6CHTO   H77 2407   8.764   5.684   1.532  0.4589 -2.6795 -0.1210
    6CHTO   H78 2408   8.769   5.746   1.694 -0.9669  0.8850 -1.6519
    6CHTO   C51 2409   8.991   5.851   1.593 -0.7923  0.7241 -0.2574
    6CHTO   H93 2410   8.922   5.885   1.516 -0.8164 -1.3860 -1.2020
    6CHTO   O30 2411   9.132   5.864   1.550 -0.4262  0.1183  0.1565
    6CHTO   C46 2412   9.172   5.797   1.423 -0.0381 -0.1638 -0.4199
    6CHTO   H88 2413   9.107   5.845   1.350 -2.7333 -1.1166  1.2969
    6CHTO   C53 2414   9.324   5.841   1.392  0.3029 -0.4140  0.1860
    6CHTO   O72 2415   9.332   5.981   1.378  0.0156  0.1557 -0.0302
    6CHTO  H199 2416   9.416   6.022   1.377  1.0489 -1.7964  1.9376
    6CHTO   O22 2417   8.980   5.916   1.719 -0.3416 -0.5316 -0.2933
    6CHTO   C31 2418   8.897   6.031   1.749 -0.2789 -0.0489  0.1353
    6CHTO   H59 2419   8.959   6.087   1.823 -1.6715  1.7185  0.0097
    6CHTO   C29 2420   8.877   6.127   1.629 -0.6809  0.0830 -1.0680
    6CHTO   H57 2421   8.823   6.067   1.554 -2.6446 -0.0186  0.4052
    6CHTO   O21 2422   9.013   6.153   1.580 -0.2105 -0.2248 -0.0156
    6CHTO   H37 2423   9.011   6.207   1.503 -0.3526 -0.8747 -0.4710
    6CHTO   C27 2424   8.797   6.249   1.678  0.1165  0.2745 -0.1471
    6CHTO   H55 2425   8.853   6.297   1.760  1.9411  0.3364 -1.4107
    6CHTO    N5 2426   8.770   6.354   1.571  0.1095  0.6115 -0.3169
    6CHTO   H43 2427   8.745   6.314   1.474  3.7613 -3.2464  0.1867
    6CHTO   H44 2428   8.861   6.412   1.563  0.3963  0.3946  1.1635
    6CHTO   C25 2429   8.657   6.204   1.745 -0.5979 -0.0071 -0.2651
    6CHTO   H53 2430   8.582   6.151   1.684 -1.1372  2.3393 -1.7107
    6CHTO   O17 2431   8.688   6.110   1.855  0.0936 -0.3508 -0.2078
    6CHTO   C32 2432   8.768   5.997   1.822 -0.0130 -0.1431 -0.1595
    6CHTO   H60 2433   8.712   5.939   1.748  2.0969  0.3228 -2.1955
    6CHTO   C36 2434   8.791   5.912   1.949  0.5669 -0.3517  0.2644
    6CHTO   O25 2435   8.850   5.992   2.052  0.0620 -0.5258  0.2338
    6CHTO   H40 2436   8.795   6.063   2.077 -1.8207 -1.6650 -0.5495
    6CHTO   O15 2437   8.586   6.326   1.818  0.2668  0.1529 -0.6760
    6CHTO   C19 2438   8.476   6.352   1.906  0.3222  0.0864 -1.0684
    6CHTO   H47 2439   8.481   6.268   1.977 -0.5460  1.1895  0.3507
    6CHTO   C20 2440   8.500   6.481   1.987 -0.2066  0.6162 -0.0052
    6CHTO   H48 2441   8.531   6.564   1.922  0.7100 -0.8576 -1.4838
    6CHTO   O19 2442   8.615   6.465   2.066 -0.3014  0.2538 -0.1104
    6CHTO   H35 2443   8.616   6.513   2.146  1.7419  1.3947 -0.7825
    6CHTO   C21 2444   8.379   6.517   2.092 -0.0049 -0.0848 -0.3619
    6CHTO   H49 2445   8.378   6.436   2.165 -1.4359  0.5962  0.4005
    6CHTO    N4 2446   8.398   6.639   2.172 -0.1402  0.0490 -0.1429
    6CHTO   H41 2447   8.301   6.670   2.207  0.8635  2.4215  0.6442
    6CHTO   H42 2448   8.436   6.703   2.093 -0.1827  0.0109 -0.1938
    6CHTO   C22 2449   8.247   6.506   2.008  0.5071 -0.8528 -0.2444
    6CHTO   H50 2450   8.244   6.590   1.939  0.5764 -2.0583 -1.7400
    6CHTO   O14 2451   8.237   6.386   1.940 -0.1678 -0.0746  0.2829
    6CHTO   C23 2452   8.335   6.356   1.843  0.2236 -0.0443 -0.3543
    6CHTO   H51 2453   8.331   6.430   1.762  3.6249 -0.2192 -0.7538
    6CHTO   C34 2454   8.302   6.217   1.784  0.2851  0.1722  0.1138
    6CHTO   O23 2455   8.310   6.103   1.872  0.0741  0.4318 -0.6144
    6CHTO   H38 2456   8.389   6.053   1.873 -0.7770 -0.9623 -1.2505
    6CHTO   O16 2457   8.130   6.507   2.100 -0.0658 -0.2571  0.1158
    6CHTO   C24 2458   8.003   6.567   2.042  0.0890 -0.0068  0.2657
    6CHTO   H52 2459   8.013   6.592   1.936 -0.1200 -0.4054  0.1517
    6CHTO   C26 2460   7.975   6.687   2.128 -0.3078 -1.0791  0.6616
    6CHTO   H54 2461   7.946   6.653   2.229 -2.5922 -2.5801 -0.4596
    6CHTO   O20 2462   8.090   6.775   2.134 -0.4405  0.0503  0.2669
    6CHTO   H36 2463   8.074   6.850   2.189  2.3669 -0.0643  1.3088
    6CHTO   C30 2464   7.855   6.757   2.058 -0.5169  1.0787  0.2503
    6CHTO   H58 2465   7.886   6.790   1.958 -2.2498  0.1623 -0.6191
    6CHTO    N6 2466   7.809   6.877   2.134  0.2361  0.0560  0.0879
    6CHTO   H45 2467   7.731   6.933   2.084 -0.5161  1.9352  3.2310
    6CHTO   H46 2468   7.771   6.848   2.231  0.2868  1.2128  0.4525
    6CHTO   C33 2469   7.736   6.654   2.035 -0.1886 -0.5074  0.4432
    6CHTO   H61 2470   7.702   6.623   2.135  0.2324  0.6703  0.9631
    6CHTO   O18 2471   7.781   6.538   1.967  0.4586 -0.5131  0.1890
    6CHTO   C28 2472   7.874   6.469   2.049 -0.2210 -0.1010  0.6128
    6CHTO   H56 2473   7.841   6.464   2.153 -2.1785  2.6733  0.1929
    6CHTO   C35 2474   7.901   6.322   2.016 -0.3540  0.2684 -0.1836
    6CHTO   O24 2475   7.953   6.312   1.886 -0.4942 -0.8093 -0.2870
    6CHTO   H39 2476   7.902   6.354   1.819  0.6111  0.1930 -0.5131
    6CHTO    O9 2477   7.623   6.714   1.963  0.2799 -0.1763  0.3869
    6CHTO   C13 2478   7.478   6.728   2.053 -0.2819 -0.0240 -0.4588
    6CHTO   H26 2479   7.497   6.813   2.122  1.1224 -0.3847 -0.3687
    6CHTO   C11 2480   7.439   6.594   2.131  0.0013  0.5594 -0.0589
    6CHTO   H24 2481   7.510   6.583   2.215 -1.1999  1.7014  1.1214
    6CHTO    O8 2482   7.463   6.479   2.050 -0.7342  0.2259 -0.0394
    6CHTO    H3 2483   7.390   6.469   1.991 -1.5239  1.4566  0.7058
    6CHTO    C9 2484   7.299   6.611   2.194 -0.6641 -1.1114 -0.1939
    6CHTO   H22 2485   7.305   6.712   2.237  0.4512 -1.2583  0.0091
    6CHTO    N2 2486   7.258   6.524   2.299 -0.4732 -0.3366 -0.0163
    6CHTO   H10 2487   7.341   6.499   2.364 -1.1133  0.1064  0.9691
    6CHTO   H11 2488   7.195   6.579   2.366  0.8334  0.8879  0.2298
    6CHTO    C7 2489   7.196   6.614   2.076  0.8346  1.3172 -1.1334
    6CHTO   H20 2490   7.095   6.622   2.121  1.8631  3.4162  0.8961
    6CHTO    O4 2491   7.217   6.726   1.989 -0.2889  0.0469  0.9457
    6CHTO   C14 2492   7.351   6.774   1.956  1.0633  0.2904  0.3932
    6CHTO   H27 2493   7.347   6.885   1.958  0.6424  0.3650 -3.0085
    6CHTO   C18 2494   7.381   6.746   1.808  0.4163 -0.5788  0.6946
    6CHTO   O13 2495   7.306   6.844   1.730 -0.5807  0.0381 -0.0614
    6CHTO    H7 2496   7.356   6.888   1.664 -1.7696  1.2486 -0.1663
    6CHTO    O2 2497   7.185   6.474   1.991  0.0087 -0.5017 -0.1142
    6CHTO    C1 2498   7.056   6.441   1.936  0.4011 -0.2797  0.6474
    6CHTO   H14 2499   7.079   6.370   1.854  0.4183 -1.0228  1.2867
    6CHTO    C2 2500   6.965   6.559   1.873  0.2423  1.1513  0.4799
    6CHTO   H15 2501   6.963   6.643   1.944 -1.4811  2.5832 -1.2272
    6CHTO    O6 2502   7.035   6.597   1.749  0.0519  0.1061  0.2792
    6CHTO    H1 2503   7.075   6.682   1.744 -0.4076  0.3923  1.3059
    6CHTO    C3 2504   6.819   6.514   1.840 -0.4008 -0.7780  0.5692
    6CHTO   H16 2505   6.825   6.455   1.747  4.4223 -0.9272  0.8603
    6CHTO    N1 2506   6.728   6.632   1.803  0.1589 -0.3972 -0.3721
    6CHTO    H8 2507   6.628   6.592   1.791 -0.1797  0.2864  0.1085
    6CHTO    H9 2508   6.750   6.688   1.713 -0.5263  3.0187  1.4917
    6CHTO    C4 2509   6.760   6.427   1.956  0.0379  1.0112  0.3349
    6CHTO   H17 2510   6.750   6.484   2.048  0.9190  1.5139  0.1291
    6CHTO    O1 2511   6.853   6.313   1.970  0.1188 -0.4804 -0.0557
    6CHTO    C5 2512   6.972   6.361   2.037 -0.1358  0.3265 -0.7866
    6CHTO   H18 2513   6.952   6.425   2.123  1.1631 -0.8864  0.4413
    6CHTO   C16 2514   7.045   6.231   2.086 -0.1741 -0.0315  0.0978
    6CHTO   O11 2515   7.158   6.243   2.169 -0.1210 -0.4380  0.0868
    6CHTO    H5 2516   7.137   6.298   2.242 -3.0215  0.3942 -1.3185
    6CHTO    O3 2517   6.638   6.357   1.921 -0.0215 -0.2183  0.8603
    6CHTO    C6 2518   6.539   6.361   2.032 -0.0125  0.3030  0.7110
    6CHTO   H19 2519   6.579   6.401   2.126  0.1812  0.0870  0.7200
    6CHTO    C8 2520   6.412   6.446   1.988 -0.7517  0.1249 -0.4343
    6CHTO   H21 2521   6.381   6.419   1.888 -1.7806 -0.4218  0.0219
    6CHTO    O7 2522   6.452   6.581   1.997 -0.7433 -0.6041  0.1035
    6CHTO    H2 2523   6.390   6.640   1.959  1.0744  1.1189 -0.3342
    6CHTO   C12 2524   6.289   6.421   2.086 -0.1512  0.5968  0.8896
    6CHTO   H25 2525   6.321   6.474   2.178  0.6845 -0.5690  1.2864
    6CHTO    N3 2526   6.168   6.482   2.029 -0.0407  0.4411 -0.1614
    6CHTO   H12 2527   6.192   6.518   1.930 -3.4683  0.8854 -0.8829
    6CHTO   H13 2528   6.085   6.413   2.018 -0.5966  0.5471  2.8154
    6CHTO   C15 2529   6.272   6.270   2.118 -0.0991 -0.5852 -0.1743
    6CHTO   H28 2530   6.233   6.217   2.030 -0.6298  1.1623 -1.0246
    6CHTO   O10 2531   6.192   6.243   2.236 -0.3426  0.2272  0.2249
    6CHTO    H4 2532   6.107   6.210   2.212 -0.1816 -0.7465  0.9604
    6CHTO    O5 2533   6.394   6.212   2.166 -0.0051 -0.6367 -0.7432
    6CHTO   C10 2534   6.498   6.213   2.065  0.0082 -0.9416  0.2216
    6CHTO   H23 2535   6.479   6.166   1.969  0.1883 -0.1221 -0.2205
    6CHTO   C17 2536   6.610   6.127   2.125 -0.4216  0.1240 -0.6056
    6CHTO   O12 2537   6.581   5.989   2.143  0.1855  0.4962  0.4219
    6CHTO    H6 2538   6.624   5.951   2.217 -0.4775 -1.2531 -0.0700
    7CHTO  H203 2539   5.508   2.387   2.053 -0.6863 -1.6365  0.8872
    7CHTO   O82 2540   5.595   2.351   2.057 -0.1172 -0.3970 -0.0043
    7CHTO  C123 2541   5.700   2.451   2.071  0.1001 -0.1400 -0.0135
    7CHTO  H227 2542   5.650   2.549   2.066 -0.9027 -0.6396  0.1623
    7CHTO   O77 2543   5.744   2.419   2.204  0.7653  0.1535  0.3951
    7CHTO  C118 2544   5.849   2.493   2.261 -1.3796 -0.0081  0.0147
    7CHTO  H222 2545   5.829   2.601   2.264  1.1663  0.5547 -1.4936
    7CHTO  C125 2546   5.884   2.444   2.405 -0.0152 -0.2897  0.6521
    7CHTO   O84 2547   5.800   2.506   2.501  0.1160 -0.0422  0.2979
    7CHTO  H205 2548   5.806   2.600   2.502 -1.2010  0.0597 -0.7270
    7CHTO  C114 2549   5.971   2.466   2.170  0.5680 -0.2202 -0.0618
    7CHTO  H218 2550   5.990   2.358   2.171 -0.8942 -0.4949  0.8263
    7CHTO  C116 2551   5.948   2.501   2.028 -0.7456 -0.1318 -0.4114
    7CHTO  H220 2552   5.936   2.611   2.012  1.7211  0.0137 -1.4486
    7CHTO   O79 2553   6.065   2.455   1.958 -0.8871  0.2150  0.0328
    7CHTO  H201 2554   6.076   2.493   1.873  0.0630  0.2133  0.1512
    7CHTO  C120 2555   5.819   2.425   1.975  0.2588 -0.0054 -0.6390
    7CHTO  H224 2556   5.839   2.318   1.956 -1.2813 -0.3145 -0.6448
    7CHTO   N21 2557   5.781   2.481   1.843  0.4512 -0.2107  0.0262
    7CHTO  H211 2558   5.677   2.465   1.818  0.4941  0.4572 -0.6124
    7CHTO  H212 2559   5.810   2.585   1.837  0.4061 -0.1434  1.0202
    7CHTO   O75 2560   6.082   2.528   2.228 -0.2515 -0.3540  0.0764
    7CHTO  C112 2561   6.215   2.444   2.245  0.8518  0.1453 -0.7007
    7CHTO  H216 2562   6.219   2.381   2.154 -0.5541 -0.2877 -0.4777
    7CHTO   O73 2563   6.201   2.361   2.364 -0.4465 -0.4915 -0.7523
    7CHTO  C113 2564   6.328   2.296   2.390 -0.4503  0.1787  0.2579
    7CHTO  H217 2565   6.363   2.253   2.294 -0.8814 -2.0626  1.0603
    7CHTO  C124 2566   6.305   2.180   2.490 -0.1916 -0.2205  0.6280
    7CHTO   O83 2567   6.248   2.208   2.621  0.3424 -0.1137  0.5403
    7CHTO  H204 2568   6.154   2.215   2.622  0.2461 -1.3888  0.5186
    7CHTO  C109 2569   6.435   2.396   2.429  0.2678  0.1158 -0.0849
    7CHTO  H213 2570   6.401   2.449   2.520  1.4346  1.6555 -0.5203
    7CHTO  C110 2571   6.466   2.479   2.304 -0.7352 -0.6376  0.2876
    7CHTO  H214 2572   6.503   2.410   2.229 -0.8512  0.6810 -1.0109
    7CHTO   O78 2573   6.562   2.580   2.344  0.0050  0.4197 -0.0970
    7CHTO  H200 2574   6.640   2.559   2.296 -0.3187  2.3342 -1.5217
    7CHTO  C111 2575   6.335   2.547   2.252  0.0929 -0.2282  0.4241
    7CHTO  H215 2576   6.305   2.621   2.328 -1.1476  0.1933 -0.4727
    7CHTO   N19 2577   6.347   2.625   2.120  0.0205  0.4042  0.1066
    7CHTO  H207 2578   6.437   2.599   2.066  1.5377  0.8403  2.3562
    7CHTO  H208 2579   6.372   2.729   2.134  1.1477  0.1682 -0.1432
    7CHTO   O74 2580   6.560   2.320   2.460 -0.4632 -0.1869  0.0503
    7CHTO  C115 2581   6.675   2.388   2.537 -0.1946 -0.0296 -0.7492
    7CHTO  H219 2582   6.657   2.495   2.549  0.6655  0.0297  0.0853
    7CHTO   O76 2583   6.696   2.327   2.689 -0.1156 -0.1287  0.3049
    7CHTO  C122 2584   6.766   2.205   2.692 -0.0820 -0.2686  0.1399
    7CHTO  H226 2585   6.700   2.130   2.648  0.4852  0.8593 -2.7770
    7CHTO  C126 2586   6.785   2.153   2.842  0.3885  0.2576  0.4832
    7CHTO   O85 2587   6.664   2.151   2.917 -0.0011 -0.7365  0.3750
    7CHTO  H206 2588   6.610   2.081   2.885 -2.3431 -0.3922  3.3347
    7CHTO  C121 2589   6.898   2.208   2.604  0.0714 -0.3319  0.3039
    7CHTO  H225 2590   6.958   2.289   2.651  0.8116  0.0588 -1.3032
    7CHTO   O81 2591   6.961   2.082   2.608  0.1718  0.2175  0.0533
    7CHTO  H202 2592   7.050   2.087   2.576  0.5537 -2.6542  0.5653
    7CHTO  C119 2593   6.870   2.247   2.453 -0.3208  0.3141 -0.3341
    7CHTO  H223 2594   6.964   2.249   2.399 -0.8195  0.3592 -1.2198
    7CHTO  C117 2595   6.798   2.379   2.438 -0.5830 -0.6462  0.4997
    7CHTO  H221 2596   6.766   2.395   2.335  0.0554 -0.6996  0.2897
    7CHTO   N20 2597   6.887   2.503   2.464 -0.3284  0.3364 -0.0111
    7CHTO  H209 2598   6.965   2.515   2.391 -1.0493 -2.6059 -1.3153
    7CHTO  H210 2599   6.820   2.588   2.467  1.5984  1.9258 -1.0370
    7CHTO   O80 2600   6.797   2.132   2.386  0.3746  0.1688  0.3693
    7CHTO  C103 2601   6.847   2.074   2.251  1.0155  0.3199 -0.8383
    7CHTO  H190 2602   6.842   2.134   2.160 -0.0399  2.1005  0.3720
    7CHTO  C101 2603   6.987   2.015   2.254 -0.2971  0.4606  0.0428
    7CHTO  H188 2604   7.004   1.961   2.348 -0.0344  0.4787  0.0048
    7CHTO   O68 2605   7.089   2.131   2.232 -0.0858 -0.3813  0.1213
    7CHTO  H168 2606   7.070   2.185   2.306  0.0466  1.2735 -1.0103
    7CHTO   C99 2607   7.021   1.904   2.136  0.3334  0.1502 -0.4802
    7CHTO  H186 2608   7.016   1.956   2.038  2.5977  0.7184 -0.3024
    7CHTO   N17 2609   7.165   1.840   2.142 -0.0072 -0.1940  0.2239
    7CHTO  H174 2610   7.227   1.928   2.149 -0.7280  0.5667 -2.5165
    7CHTO  H175 2611   7.179   1.784   2.051  2.3772  0.4059  0.1970
    7CHTO   C97 2612   6.910   1.801   2.135 -0.2367  0.1491 -0.1874
    7CHTO  H184 2613   6.912   1.748   2.231 -0.1043 -0.0107 -0.2787
    7CHTO   O64 2614   6.787   1.884   2.123 -0.4703 -0.3051 -0.6975
    7CHTO  C104 2615   6.746   1.960   2.234 -0.3613 -0.3963  0.3039
    7CHTO  H191 2616   6.739   1.902   2.326 -1.2767  0.2537  0.6550
    7CHTO  C108 2617   6.606   2.026   2.206  0.0229 -0.2084 -0.6159
    7CHTO   O71 2618   6.517   1.917   2.189  0.3317  0.4353 -0.2608
    7CHTO  H171 2619   6.427   1.941   2.195  0.2168 -0.2455  0.9101
    7CHTO   O62 2620   6.912   1.709   2.022  0.3890  0.4342  0.1317
    7CHTO   C91 2621   6.808   1.607   2.007 -0.3364  0.5412  0.4197
    7CHTO  H178 2622   6.846   1.532   1.937  0.3767  1.4455 -0.1736
    7CHTO   C92 2623   6.675   1.661   1.932 -0.3819  0.1701 -0.3047
    7CHTO  H179 2624   6.643   1.750   1.988 -1.2813  0.6818 -1.5976
    7CHTO   O66 2625   6.695   1.708   1.800  0.8666  0.6063 -0.4205
    7CHTO  H166 2626   6.755   1.780   1.797  0.6772  0.7002 -2.1184
    7CHTO   C93 2627   6.562   1.551   1.934  0.7223  0.5726 -0.5109
    7CHTO  H180 2628   6.598   1.462   1.881 -0.8019 -1.0754  1.1450
    7CHTO   N16 2629   6.434   1.579   1.865  0.4520 -0.0482  0.0898
    7CHTO  H172 2630   6.414   1.685   1.867 -0.9465 -0.3121  0.4783
    7CHTO  H173 2631   6.449   1.536   1.767 -0.4612 -0.0764 -0.0417
    7CHTO   C94 2632   6.545   1.514   2.089 -0.1766 -0.2110 -0.0754
    7CHTO  H181 2633   6.538   1.604   2.150  1.3998  0.9007 -1.4912
    7CHTO   O61 2634   6.663   1.444   2.134  0.2257 -0.0475  0.3778
    7CHTO   C95 2635   6.771   1.531   2.139  0.6574  0.1001 -0.1391
    7CHTO  H182 2636   6.752   1.609   2.214  2.1253 -0.7988  1.2016
    7CHTO  C106 2637   6.901   1.441   2.198 -0.4297 -0.1213 -0.2648
    7CHTO   O69 2638   6.965   1.344   2.114  0.3539  0.5312  0.8236
    7CHTO  H169 2639   7.054   1.369   2.101  0.1340  0.3172 -1.2401
    7CHTO   O63 2640   6.408   1.411   2.110  0.5023 -0.2447  0.5607
    7CHTO   C96 2641   6.302   1.459   2.227 -0.2934  0.1739  0.2570
    7CHTO  H183 2642   6.265   1.558   2.202  0.3614  0.3221 -0.1323
    7CHTO   C98 2643   6.367   1.446   2.369 -0.1177  0.2045  0.8340
    7CHTO  H185 2644   6.468   1.486   2.386 -0.1812  0.8063 -0.1421
    7CHTO   O67 2645   6.280   1.526   2.451  0.0367 -0.2351 -0.1074
    7CHTO  H167 2646   6.310   1.529   2.539 -0.6234 -2.3742  0.2209
    7CHTO  C102 2647   6.363   1.299   2.421  0.0611 -0.0248  0.4960
    7CHTO  H189 2648   6.351   1.307   2.530 -2.4848  1.6315  0.1326
    7CHTO   N18 2649   6.484   1.221   2.394  0.6523  0.0689 -0.4741
    7CHTO  H176 2650   6.571   1.274   2.428  0.7928 -1.2120  1.2284
    7CHTO  H177 2651   6.487   1.127   2.448 -0.1363 -0.4407 -1.2988
    7CHTO  C105 2652   6.234   1.221   2.372 -0.0988  0.6000  0.0622
    7CHTO  H192 2653   6.257   1.155   2.289  0.6960 -1.8227  2.1357
    7CHTO   O65 2654   6.126   1.299   2.332 -0.1252  0.2503 -0.7130
    7CHTO  C100 2655   6.158   1.377   2.214 -0.5199 -0.0536 -0.4564
    7CHTO  H187 2656   6.161   1.300   2.136  0.4171 -2.6964  2.0907
    7CHTO  C107 2657   6.045   1.475   2.177  0.0542 -0.2246 -0.3012
    7CHTO   O70 2658   6.067   1.536   2.050 -0.0496 -0.3193 -0.4570
    7CHTO  H170 2659   5.991   1.588   2.029  0.5068  0.8892  0.4472
    7CHTO   O57 2660   6.192   1.146   2.495 -0.3147 -0.2543 -1.0612
    7CHTO   C85 2661   6.185   1.003   2.486 -0.3199 -0.2974  0.2501
    7CHTO  H157 2662   6.237   0.963   2.396  1.5365 -0.8432  1.5430
    7CHTO   C83 2663   6.036   0.949   2.459  0.1664  0.0052 -0.1993
    7CHTO  H155 2664   5.987   0.996   2.374  1.5832 -0.9068 -1.5490
    7CHTO   O56 2665   5.947   0.972   2.569  0.6789  0.3491  0.4402
    7CHTO  H135 2666   5.857   0.962   2.544 -0.0286 -0.0406  2.9185
    7CHTO   C81 2667   6.047   0.797   2.428 -0.0414 -0.1739 -0.1712
    7CHTO  H153 2668   6.111   0.783   2.341  0.1729 -0.2195 -0.0057
    7CHTO   N14 2669   5.918   0.743   2.371 -0.2673  0.2762  0.3982
    7CHTO  H141 2670   5.928   0.640   2.343 -1.8693 -0.2668  1.7421
    7CHTO  H142 2671   5.902   0.807   2.286 -0.0085 -0.5263 -0.2565
    7CHTO   C79 2672   6.102   0.715   2.553  0.3127  0.6564  0.3914
    7CHTO  H151 2673   6.125   0.617   2.511  0.6668  1.4919 -1.4283
    7CHTO   O52 2674   6.228   0.777   2.613  0.2275 -0.2792 -0.1091
    7CHTO   C86 2675   6.230   0.923   2.621 -0.1774 -0.1344 -0.0758
    7CHTO  H158 2676   6.160   0.943   2.704 -0.5039  0.6889 -0.5369
    7CHTO   C90 2677   6.374   0.969   2.662  0.0085  0.3486  0.1557
    7CHTO   O60 2678   6.487   0.919   2.594 -0.7487  0.3358 -0.0061
    7CHTO  H138 2679   6.474   0.923   2.501 -0.1476 -1.0695 -0.1549
    7CHTO   O50 2680   5.999   0.696   2.650 -0.1523  0.1673 -0.1588
    7CHTO   C73 2681   5.958   0.577   2.721  0.1573  0.2256 -0.6328
    7CHTO  H145 2682   6.037   0.501   2.728  2.1595  2.2249 -0.9320
    7CHTO   C74 2683   5.853   0.501   2.647  0.1021 -0.2807  0.9626
    7CHTO  H146 2684   5.886   0.489   2.543 -1.4745  0.0813  0.3965
    7CHTO   O54 2685   5.848   0.369   2.707 -0.4407 -0.5005  0.4239
    7CHTO  H133 2686   5.808   0.309   2.647 -1.3396 -1.7160  2.2095
    7CHTO   C75 2687   5.711   0.572   2.655 -0.3592  0.3020  0.5603
    7CHTO  H147 2688   5.722   0.667   2.601 -0.2649 -0.5224 -0.8888
    7CHTO   N13 2689   5.609   0.495   2.574  0.2002 -0.5473 -0.1889
    7CHTO  H139 2690   5.587   0.540   2.478 -0.6847  0.2948  0.4118
    7CHTO  H140 2691   5.640   0.395   2.549 -0.4899 -1.2427  1.7037
    7CHTO   C76 2692   5.673   0.603   2.803  0.5265  0.7557 -1.0347
    7CHTO  H148 2693   5.661   0.509   2.857  1.3543  0.9173 -0.5638
    7CHTO   O49 2694   5.781   0.676   2.858  0.0155  0.3203  0.0166
    7CHTO   C77 2695   5.907   0.611   2.859  0.1571 -0.6626 -0.0894
    7CHTO  H149 2696   5.894   0.520   2.917 -0.8321 -0.5936 -0.1934
    7CHTO   C88 2697   6.011   0.696   2.939 -0.2660 -0.3589 -0.0800
    7CHTO   O58 2698   5.990   0.713   3.063  0.3219  0.6686  0.3490
    7CHTO  H136 2699   5.901   0.740   3.069  0.0212 -0.2729  0.1949
    7CHTO   O51 2700   5.555   0.681   2.818 -0.0514 -0.5022 -0.3473
    7CHTO   C78 2701   5.505   0.691   2.987  0.2868 -0.7950  0.2612
    7CHTO  H150 2702   5.601   0.670   3.040  0.4821 -0.6843 -0.0462
    7CHTO   C80 2703   5.395   0.589   3.022  0.1748 -0.6825 -0.5097
    7CHTO  H152 2704   5.309   0.609   2.955  0.2523  0.1992 -0.3625
    7CHTO   O55 2705   5.459   0.469   2.984  0.1536  0.7587 -1.2751
    7CHTO  H134 2706   5.408   0.391   2.998  1.2098  0.6270  2.2877
    7CHTO   C84 2707   5.344   0.605   3.174  0.0854 -0.0506 -0.1083
    7CHTO  H156 2708   5.424   0.580   3.244 -0.3423 -3.9213 -0.8989
    7CHTO   N15 2709   5.229   0.505   3.200  0.0134 -0.8151 -0.6378
    7CHTO  H143 2710   5.274   0.422   3.251 -0.5081  1.2043  3.2148
    7CHTO  H144 2711   5.180   0.478   3.109  0.0520  0.7691 -1.1329
    7CHTO   C87 2712   5.305   0.756   3.189 -0.3122 -0.2391  0.4964
    7CHTO  H159 2713   5.225   0.778   3.118  0.6019  2.4365  0.2326
    7CHTO   O53 2714   5.428   0.841   3.166  0.4078  0.0096 -0.1027
    7CHTO   C82 2715   5.462   0.838   3.026 -0.2657 -0.6166  0.0353
    7CHTO  H154 2716   5.377   0.871   2.967  0.1826  2.0229  0.8098
    7CHTO   C89 2717   5.578   0.946   3.004 -0.0205  0.3217 -0.2728
    7CHTO   O59 2718   5.595   0.970   2.863 -0.2660 -0.4729 -0.6126
    7CHTO  H137 2719   5.657   1.040   2.851  1.0405 -1.2127  1.5441
    7CHTO   O45 2720   5.237   0.774   3.348  0.0389  0.6102  0.2848
    7CHTO   C67 2721   5.316   0.858   3.437 -0.2907 -0.2072  0.3343
    7CHTO  H124 2722   5.400   0.901   3.382 -0.6353 -0.1100 -0.1202
    7CHTO   C65 2723   5.228   0.973   3.489  0.1343 -0.1849  0.9510
    7CHTO  H122 2724   5.132   0.929   3.516  0.3901 -0.3301  1.6258
    7CHTO   O44 2725   5.192   1.058   3.384  0.2348 -0.1964  0.3501
    7CHTO  H102 2726   5.250   1.132   3.376  1.3948 -1.3432 -2.9414
    7CHTO   C63 2727   5.283   1.028   3.630 -0.6510  0.3074  0.4468
    7CHTO  H120 2728   5.245   0.962   3.708  1.5637 -1.0629  0.4425
    7CHTO   N11 2729   5.236   1.170   3.667  0.4689  0.0347 -0.0317
    7CHTO  H108 2730   5.269   1.237   3.589 -0.3906  0.0284 -0.4074
    7CHTO  H109 2731   5.273   1.196   3.764 -0.1000 -2.0559  0.7741
    7CHTO   C61 2732   5.442   1.006   3.634  0.1869  0.2115  0.6351
    7CHTO  H118 2733   5.480   1.035   3.733 -0.7032  1.1058  0.7223
    7CHTO   O40 2734   5.481   0.866   3.617  0.3486 -0.2163  0.2197
    7CHTO   C68 2735   5.375   0.786   3.559 -0.5048 -0.1258  0.1526
    7CHTO  H125 2736   5.297   0.779   3.638 -0.5008 -0.7385  0.1030
    7CHTO   C72 2737   5.424   0.644   3.537 -0.2798 -0.1441  0.2496
    7CHTO   O48 2738   5.486   0.586   3.657 -0.6312 -0.2185  0.2891
    7CHTO  H105 2739   5.577   0.569   3.643 -0.6849 -0.8604  0.7328
    7CHTO   O38 2740   5.510   1.076   3.527 -0.0748  0.1177  0.2990
    7CHTO   C55 2741   5.647   1.112   3.542 -0.7207 -0.1373 -0.9636
    7CHTO  H112 2742   5.689   1.061   3.631  0.1501  2.8511  0.4153
    7CHTO   C56 2743   5.669   1.267   3.559 -0.0938 -0.9034  0.1902
    7CHTO  H113 2744   5.611   1.310   3.476  1.6523 -0.3033 -0.7445
    7CHTO   O42 2745   5.599   1.301   3.680 -0.3015 -0.6124 -0.0230
    7CHTO  H100 2746   5.593   1.395   3.683  3.0762 -0.2520 -2.6111
    7CHTO   C57 2747   5.823   1.307   3.566 -0.5290  0.0162  0.0149
    7CHTO  H114 2748   5.864   1.258   3.654 -0.0044  0.2045 -0.1211
    7CHTO   N10 2749   5.829   1.456   3.571  0.1891  0.2955  0.2284
    7CHTO  H106 2750   5.757   1.500   3.503 -0.4457 -2.0809 -0.6935
    7CHTO  H107 2751   5.814   1.489   3.673 -1.3287  3.6753 -1.0115
    7CHTO   C58 2752   5.900   1.256   3.444  0.0395  1.0553 -0.0276
    7CHTO  H115 2753   5.851   1.298   3.354 -0.7713 -1.6435 -0.8945
    7CHTO   O37 2754   5.876   1.115   3.434  0.1210  0.2005 -0.2046
    7CHTO   C59 2755   5.738   1.078   3.418  0.0906  0.0780 -1.0429
    7CHTO  H116 2756   5.696   1.122   3.328  1.8549 -0.5110 -2.1755
    7CHTO   C70 2757   5.747   0.926   3.396 -0.5173  0.1058  0.3540
    7CHTO   O46 2758   5.839   0.898   3.287  0.7196 -0.2961  0.1461
    7CHTO  H103 2759   5.923   0.899   3.329  0.4546  2.3281  0.7085
    7CHTO   O39 2760   6.066   1.292   3.463  0.2158 -0.3621 -0.6047
    7CHTO   C60 2761   6.160   1.218   3.386  0.9914 -0.3915 -0.5600
    7CHTO  H117 2762   6.165   1.126   3.445  1.7469  0.5385  0.8566
    7CHTO   C62 2763   6.120   1.203   3.235  0.5291 -0.9315 -0.4348
    7CHTO  H119 2764   6.026   1.143   3.238  0.2978 -0.5837 -0.6484
    7CHTO   O43 2765   6.094   1.337   3.184 -0.3902  0.0294  0.7801
    7CHTO  H101 2766   6.126   1.350   3.097 -0.1815 -0.5443  0.7697
    7CHTO   C66 2767   6.233   1.121   3.166 -0.6532 -0.1924 -0.3289
    7CHTO  H123 2768   6.227   1.020   3.206  1.7194  0.0425  0.6903
    7CHTO   N12 2769   6.183   1.098   3.032  0.0805 -0.0700  0.4303
    7CHTO  H110 2770   6.223   1.008   2.987  0.7412 -0.4574  1.7725
    7CHTO  H111 2771   6.078   1.114   3.016  0.4517 -0.4576 -2.7398
    7CHTO   C69 2772   6.372   1.195   3.179  0.2294 -0.1182 -0.3485
    7CHTO  H126 2773   6.369   1.298   3.137  2.8750 -0.4396 -1.4232
    7CHTO   O41 2774   6.402   1.201   3.313 -0.7735 -0.3401  0.7029
    7CHTO   C64 2775   6.301   1.289   3.393 -0.0687  0.5437  0.0993
    7CHTO  H121 2776   6.297   1.392   3.352  0.0226 -0.5687 -2.7990
    7CHTO   C71 2777   6.351   1.323   3.536  0.0913 -0.1360  0.0772
    7CHTO   O47 2778   6.418   1.207   3.580 -0.8947  0.3051 -0.0542
    7CHTO  H104 2779   6.501   1.226   3.620 -0.2671 -0.9605 -0.7250
    7CHTO   O34 2780   6.488   1.117   3.114  0.0811 -0.2395  0.3041
    7CHTO   C49 2781   6.568   0.977   3.139  0.9288 -0.0480  0.1832
    7CHTO   H91 2782   6.566   0.958   3.246  1.3579 -0.6300  0.0924
    7CHTO   C47 2783   6.710   0.998   3.088  0.0195 -0.5342 -0.4047
    7CHTO   H89 2784   6.771   0.928   3.149 -0.2222  2.8158  3.9088
    7CHTO   O33 2785   6.747   1.133   3.125 -0.0652  0.2629 -0.4089
    7CHTO   H70 2786   6.838   1.147   3.105 -0.2995  2.2226 -0.1939
    7CHTO   C45 2787   6.721   0.967   2.936  0.0711  0.3959 -0.8859
    7CHTO   H87 2788   6.639   1.017   2.883 -0.6786  0.7963  0.6280
    7CHTO    N8 2789   6.844   1.015   2.876  0.1403  0.2454 -0.2633
    7CHTO   H75 2790   6.876   1.111   2.914  0.4025  0.1420 -0.2178
    7CHTO   H76 2791   6.832   1.017   2.769 -0.4977  0.9790 -0.1807
    7CHTO   C43 2792   6.687   0.812   2.921 -0.3825  0.1446  0.2069
    7CHTO   H85 2793   6.692   0.799   2.812 -0.2575  0.3470  0.1876
    7CHTO   O29 2794   6.560   0.775   2.973  0.4474 -0.0033 -0.1000
    7CHTO   C50 2795   6.497   0.870   3.060 -0.7447  0.8142 -0.5402
    7CHTO   H92 2796   6.420   0.918   2.998  0.9344  2.5229 -1.3505
    7CHTO   C54 2797   6.414   0.779   3.154 -0.3645  0.5782  0.5100
    7CHTO   O36 2798   6.493   0.674   3.211 -0.0147 -0.1385 -0.4595
    7CHTO   H72 2799   6.486   0.674   3.305  1.9877  1.5975 -0.2485
    7CHTO   O27 2800   6.787   0.722   2.975  0.0650 -0.0489 -0.4404
    7CHTO   C37 2801   6.833   0.610   3.047  0.2980 -0.0286  0.8149
    7CHTO   H79 2802   6.807   0.619   3.154 -0.3729 -0.0399  0.6568
    7CHTO   C38 2803   6.762   0.481   2.990 -0.9256  0.0269 -0.7248
    7CHTO   H80 2804   6.773   0.489   2.881  1.6473 -1.1521 -0.5956
    7CHTO   O31 2805   6.624   0.486   3.021  0.5406 -0.2590 -0.1238
    7CHTO   H68 2806   6.596   0.476   3.110 -2.0436  0.9395 -0.7747
    7CHTO   C39 2807   6.832   0.348   3.040  0.2143  0.8073 -0.4017
    7CHTO   H81 2808   6.814   0.336   3.147 -0.5597 -0.2843 -0.6458
    7CHTO    N7 2809   6.802   0.231   2.962  0.5915 -0.3653 -0.1855
    7CHTO   H73 2810   6.778   0.159   3.039 -1.7141 -1.1090 -1.5383
    7CHTO   H74 2811   6.719   0.250   2.895  0.3237  0.1727  0.2945
    7CHTO   C40 2812   6.988   0.364   3.034 -1.2223  0.2410  0.1872
    7CHTO   H82 2813   7.017   0.355   2.930 -1.5847 -1.4152  0.2148
    7CHTO   O26 2814   7.037   0.480   3.100 -0.2464  0.0724 -0.4286
    7CHTO   C41 2815   6.992   0.608   3.036  0.5975  0.1824 -0.0562
    7CHTO   H83 2816   7.015   0.609   2.929 -2.2235 -2.4863 -0.7503
    7CHTO   C52 2817   7.056   0.727   3.111  0.2739  0.1308  1.0183
    7CHTO   O35 2818   7.047   0.702   3.244 -0.2453 -0.3253 -0.1813
    7CHTO   H71 2819   7.055   0.789   3.278 -1.7730  0.8531 -2.6736
    7CHTO   O28 2820   7.066   0.258   3.096 -0.1609  0.3005 -0.1195
    7CHTO   C42 2821   7.200   0.220   3.052  0.2060  0.1192  0.2026
    7CHTO   H84 2822   7.245   0.168   3.137  1.0523  1.8176  0.8213
    7CHTO   C44 2823   7.294   0.335   3.014  0.9273  0.7535  0.7156
    7CHTO   H86 2824   7.243   0.409   2.952 -0.3663  1.0259  2.0803
    7CHTO   O32 2825   7.314   0.416   3.129 -0.2575  0.3048  0.1675
    7CHTO   H69 2826   7.366   0.492   3.109  0.7809 -0.1617  1.0467
    7CHTO   C48 2827   7.428   0.281   2.953  0.4131  0.3057  0.2984
    7CHTO   H90 2828   7.481   0.220   3.026  1.0854 -2.0506 -2.0878
    7CHTO    N9 2829   7.522   0.386   2.920 -0.4708  0.4549  0.3465
    7CHTO   H77 2830   7.495   0.477   2.973 -0.9604  0.3921  0.2062
    7CHTO   H78 2831   7.626   0.361   2.933 -0.2993  1.1524  0.3486
    7CHTO   C51 2832   7.392   0.181   2.831  0.6158 -0.9475 -0.0986
    7CHTO   H93 2833   7.345   0.236   2.750  2.6318 -0.4722 -0.9938
    7CHTO   O30 2834   7.314   0.070   2.881 -0.0819  0.2278  0.4811
    7CHTO   C46 2835   7.182   0.113   2.936  0.8141 -0.9015 -0.0120
    7CHTO   H88 2836   7.128   0.162   2.855  2.5277  0.0099 -0.6449
    7CHTO   C53 2837   7.107  -0.013   2.982  0.1992  0.5321 -0.3587
    7CHTO   O72 2838   7.029  -0.078   2.880  0.1961  0.3843 -0.5973
    7CHTO  H199 2839   7.086  -0.125   2.822  0.6352  1.3607 -0.9555
    7CHTO   O22 2840   7.497   0.103   2.773 -0.6277 -1.0250 -0.1478
    7CHTO   C31 2841   7.516   0.090   2.627 -0.1147 -0.4978 -0.4476
    7CHTO   H59 2842   7.599   0.019   2.611 -0.9938 -1.7278  0.3925
    7CHTO   C29 2843   7.399   0.023   2.555  0.1535  0.0553 -0.3748
    7CHTO   H57 2844   7.313   0.091   2.569  0.7230  0.6623  0.1842
    7CHTO   O21 2845   7.389  -0.110   2.615 -0.4169 -0.0734 -0.6399
    7CHTO   H37 2846   7.315  -0.105   2.672  1.3551 -1.0300  1.8148
    7CHTO   C27 2847   7.426   0.006   2.399 -0.0445 -0.3012 -0.1069
    7CHTO   H55 2848   7.518  -0.053   2.381  0.4491  0.6547 -0.7756
    7CHTO    N5 2849   7.315  -0.064   2.332 -0.3889  0.3964 -0.0452
    7CHTO   H43 2850   7.223  -0.009   2.323  0.5545  1.7884 -1.4115
    7CHTO   H44 2851   7.348  -0.093   2.234  0.9005 -2.6374  1.2187
    7CHTO   C25 2852   7.451   0.143   2.349 -0.2438 -0.6246 -0.7053
    7CHTO   H53 2853   7.368   0.213   2.366 -0.5413 -1.2982  0.6690
    7CHTO   O17 2854   7.570   0.197   2.414 -0.3699  0.0019 -0.3977
    7CHTO   C32 2855   7.556   0.222   2.553  0.4429 -0.0486  0.4012
    7CHTO   H60 2856   7.482   0.301   2.562  1.2337  0.8352 -0.6143
    7CHTO   C36 2857   7.686   0.288   2.598  0.6553 -0.0978  0.5007
    7CHTO   O25 2858   7.805   0.198   2.597  0.7064  0.1467 -0.3010
    7CHTO   H40 2859   7.826   0.172   2.509  0.9190  0.2491 -0.2791
    7CHTO   O15 2860   7.475   0.143   2.180  0.0126  0.2401 -0.1237
    7CHTO   C19 2861   7.454   0.270   2.106 -0.2400  0.1322  0.1838
    7CHTO   H47 2862   7.469   0.254   1.998 -1.1774  1.2176 -0.1134
    7CHTO   C20 2863   7.322   0.344   2.150 -0.6556 -0.4489  0.6369
    7CHTO   H48 2864   7.323   0.369   2.258 -1.6960  2.3506  0.0346
    7CHTO   O19 2865   7.209   0.255   2.124  0.2857 -0.0825 -0.1316
    7CHTO   H35 2866   7.134   0.297   2.161 -1.5303 -2.4699 -0.9417
    7CHTO   C21 2867   7.304   0.489   2.085  0.3444  0.2131  0.6107
    7CHTO   H49 2868   7.298   0.481   1.977  2.8133  2.4853  0.2301
    7CHTO    N4 2869   7.180   0.554   2.132  0.7419 -0.4291 -0.8258
    7CHTO   H41 2870   7.204   0.603   2.225 -0.1860 -0.9266 -0.3121
    7CHTO   H42 2871   7.098   0.484   2.147 -2.3354  2.8649 -1.5740
    7CHTO   C22 2872   7.429   0.570   2.107 -0.2740 -0.5304 -0.2054
    7CHTO   H50 2873   7.443   0.598   2.212  2.5560 -1.7005 -0.2179
    7CHTO   O14 2874   7.544   0.489   2.068  0.2271  0.5745 -0.2540
    7CHTO   C23 2875   7.570   0.364   2.136  0.6168 -0.2806  0.5562
    7CHTO   H51 2876   7.579   0.393   2.241  1.3157 -1.4108  0.8157
    7CHTO   C34 2877   7.707   0.310   2.092 -0.4517 -0.3693 -0.2479
    7CHTO   O23 2878   7.733   0.187   2.159  0.0101 -0.3169 -0.5764
    7CHTO   H38 2879   7.716   0.118   2.099  2.5354 -1.8647  0.4007
    7CHTO   O16 2880   7.446   0.690   2.028  0.7988  0.5218 -0.0184
    7CHTO   C24 2881   7.475   0.834   2.084  0.3891 -0.5099 -0.5941
    7CHTO   H52 2882   7.511   0.829   2.187  0.9447  0.0219 -0.7623
    7CHTO   C26 2883   7.350   0.918   2.068  0.1459  0.3381 -0.0283
    7CHTO   H54 2884   7.324   0.911   1.960 -0.5653  0.3227  0.1455
    7CHTO   O20 2885   7.248   0.861   2.149  0.2162  0.2434 -1.2162
    7CHTO   H36 2886   7.222   0.923   2.216  3.5886 -0.2388  0.6176
    7CHTO   C30 2887   7.372   1.071   2.105 -0.9283 -0.3407  0.0507
    7CHTO   H58 2888   7.398   1.086   2.211 -1.8525 -0.4083  0.2945
    7CHTO    N6 2889   7.249   1.153   2.092  0.2562  0.3342  0.1786
    7CHTO   H45 2890   7.202   1.141   2.188 -0.9590  0.8082 -0.3547
    7CHTO   H46 2891   7.188   1.103   2.018  3.3126  0.6806 -2.7115
    7CHTO   C33 2892   7.500   1.128   2.037 -0.6765  0.0592  0.4514
    7CHTO   H61 2893   7.482   1.135   1.928  0.3506  1.0812  0.3421
    7CHTO   O18 2894   7.609   1.030   2.061  0.5246 -0.1775 -0.0605
    7CHTO   C28 2895   7.585   0.902   2.002  0.4132  0.1393  0.4850
    7CHTO   H56 2896   7.553   0.903   1.898 -0.1506  1.9855  0.6592
    7CHTO   C35 2897   7.718   0.826   2.005  0.5061  0.2650  0.3266
    7CHTO   O24 2898   7.822   0.880   1.925 -0.2180 -0.1416  0.0380
    7CHTO   H39 2899   7.828   0.831   1.845  2.0298 -0.2494  0.2327
    7CHTO    O9 2900   7.534   1.260   2.080 -0.4897 -0.7220  0.2771
    7CHTO   C13 2901   7.639   1.335   1.972  0.0963  1.0503 -0.8082
    7CHTO   H26 2902   7.629   1.292   1.870  0.2488 -1.9949  0.4081
    7CHTO   C11 2903   7.783   1.312   2.029 -0.5267  0.2822  0.4397
    7CHTO   H24 2904   7.798   1.203   2.026 -0.6147  0.1874  2.3409
    7CHTO    O8 2905   7.782   1.335   2.168  0.3945 -0.0724 -0.0987
    7CHTO    H3 2906   7.866   1.365   2.198 -0.3559  0.2924  1.6554
    7CHTO    C9 2907   7.873   1.387   1.934  0.1460  0.0349  0.1986
    7CHTO   H22 2908   7.855   1.345   1.834  0.6923 -0.9796  0.5150
    7CHTO    N2 2909   8.019   1.354   1.956  0.5558 -0.4671 -0.5990
    7CHTO   H10 2910   8.047   1.387   2.054  1.5541  0.3124 -1.1375
    7CHTO   H11 2911   8.081   1.397   1.878  1.4176 -1.7728 -0.6393
    7CHTO    C7 2912   7.851   1.545   1.933  0.3723 -0.4353 -0.0325
    7CHTO   H20 2913   7.904   1.592   1.848  0.2933  0.0236  0.1717
    7CHTO    O4 2914   7.714   1.570   1.913 -0.0350  1.1821  0.0975
    7CHTO   C14 2915   7.603   1.488   1.946  0.1343 -0.3849 -0.0622
    7CHTO   H27 2916   7.534   1.490   1.858 -0.6082  1.5314  0.5264
    7CHTO   C18 2917   7.525   1.547   2.067  0.1132 -0.0038  0.1425
    7CHTO   O13 2918   7.430   1.646   2.025  0.4479  0.8987 -0.0400
    7CHTO    H7 2919   7.389   1.690   2.098  0.0871  2.3401 -1.0754
    7CHTO    O2 2920   7.887   1.606   2.079  0.4607  0.0271 -0.2018
    7CHTO    C1 2921   7.948   1.737   2.068  0.4034 -0.0359  0.3981
    7CHTO   H14 2922   7.897   1.790   1.985  0.0884 -0.9887 -0.0219
    7CHTO    C2 2923   8.101   1.743   2.041 -0.2448 -0.0768 -0.0217
    7CHTO   H15 2924   8.154   1.665   2.099  1.2966  0.9568 -0.0025
    7CHTO    O6 2925   8.121   1.714   1.904  0.2391 -0.0644 -0.1491
    7CHTO    H1 2926   8.073   1.771   1.847 -0.0036  0.9213  0.9953
    7CHTO    C3 2927   8.169   1.885   2.082  0.1788  0.0808 -0.0754
    7CHTO   H16 2928   8.129   1.943   1.998  0.4273  0.0360 -0.2274
    7CHTO    N1 2929   8.324   1.876   2.075  0.1329  0.3826 -0.6535
    7CHTO    H8 2930   8.374   1.951   2.134  1.4013 -1.9297  1.2531
    7CHTO    H9 2931   8.369   1.782   2.102 -0.3765  0.7750  1.6733
    7CHTO    C4 2932   8.108   1.939   2.218  0.1944  0.1415 -0.2016
    7CHTO   H17 2933   8.125   1.869   2.299  1.9026  0.4170 -0.2983
    7CHTO    O1 2934   7.962   1.952   2.203 -0.5154 -0.7064  0.2944
    7CHTO    C5 2935   7.900   1.817   2.195 -0.5625 -0.5822 -0.1712
    7CHTO   H18 2936   7.924   1.771   2.291 -0.8974 -1.3689 -0.4696
    7CHTO   C16 2937   7.749   1.829   2.179 -0.0711 -0.0864 -0.0179
    7CHTO   O11 2938   7.690   1.895   2.296  0.1647 -0.0869  0.8918
    7CHTO    H5 2939   7.606   1.856   2.311  0.2279  0.1591  1.9412
    7CHTO    O3 2940   8.156   2.073   2.250  0.3791 -0.1851  0.5934
    7CHTO    C6 2941   8.207   2.093   2.385  0.5067  0.6396  0.3577
    7CHTO   H19 2942   8.227   2.002   2.441 -0.1907  0.3932  0.2150
    7CHTO    C8 2943   8.335   2.178   2.377 -0.6728  0.4403  0.4348
    7CHTO   H21 2944   8.314   2.259   2.307 -2.4461  0.8355  1.3865
    7CHTO    O7 2945   8.434   2.084   2.330 -0.1315  0.4690 -0.0315
    7CHTO    H2 2946   8.486   2.122   2.262  1.8979  0.0168  1.2531
    7CHTO   C12 2947   8.373   2.241   2.515 -0.1724  0.1812  0.3539
    7CHTO   H25 2948   8.411   2.155   2.574  0.6752  0.1902 -0.1575
    7CHTO    N3 2949   8.485   2.336   2.506  0.0382 -0.1815 -0.4821
    7CHTO   H12 2950   8.579   2.283   2.497 -0.6060 -1.4232  0.0489
    7CHTO   H13 2951   8.474   2.405   2.423 -0.0364  1.0327  0.5340
    7CHTO   C15 2952   8.246   2.304   2.584 -0.4122  0.0304 -0.1598
    7CHTO   H28 2953   8.214   2.395   2.533 -0.7321  0.2104  0.3591
    7CHTO   O10 2954   8.264   2.324   2.744  0.4577 -0.0975  0.1950
    7CHTO    H4 2955   8.208   2.392   2.777  1.4354 -1.1495  4.2807
    7CHTO    O5 2956   8.132   2.220   2.588 -0.1915 -0.6951 -0.0966
    7CHTO   C10 2957   8.096   2.172   2.459  0.1106 -0.1082 -0.5141
    7CHTO   H23 2958   8.067   2.250   2.389 -1.3709 -1.2440 -1.1891
    7CHTO   C17 2959   7.969   2.090   2.484 -0.1236  0.3279 -0.3389
    7CHTO   O12 2960   7.863   2.151   2.562  0.4155  0.0364 -0.2903
    7CHTO    H6 2961   7.787   2.163   2.507  2.2104  0.2084 -2.8182
    8CHTO  H203 2962   7.801   9.051   1.220 -0.7835 -1.3547 -0.1180
    8CHTO   O82 2963   7.839   9.034   1.304 -0.5100 -0.4523 -0.0506
    8CHTO  C123 2964   7.747   8.972   1.394  0.1819 -0.2829 -0.3767
    8CHTO  H227 2965   7.792   8.956   1.493  0.2337 -2.0177 -0.6631
    8CHTO   O77 2966   7.647   9.079   1.401  0.5266 -0.2120 -0.1235
    8CHTO  C118 2967   7.525   9.053   1.472  0.5960  0.7306  0.5941
    8CHTO  H222 2968   7.537   9.053   1.581  1.6160 -1.1135  0.5052
    8CHTO  C125 2969   7.427   9.166   1.430 -0.2498 -0.1957 -0.4264
    8CHTO   O84 2970   7.477   9.293   1.473  0.7197 -0.1915 -0.0067
    8CHTO  H205 2971   7.427   9.369   1.450 -0.9282 -1.9626 -2.4703
    8CHTO  C114 2972   7.465   8.917   1.428 -0.5030 -0.1307 -0.5534
    8CHTO  H218 2973   7.443   8.930   1.322  1.8512 -0.4643 -1.1138
    8CHTO  C116 2974   7.567   8.795   1.424  0.3628  1.2439 -0.2436
    8CHTO  H220 2975   7.589   8.769   1.529 -0.5507  1.4818  0.0153
    8CHTO   O79 2976   7.502   8.675   1.373  0.0649 -0.1836 -0.0748
    8CHTO  H201 2977   7.428   8.691   1.317 -0.8166  0.0731  1.1552
    8CHTO  C120 2978   7.694   8.834   1.342  0.4127 -0.3590  0.2609
    8CHTO  H224 2979   7.665   8.852   1.236  0.0176 -2.0605  0.0639
    8CHTO   N21 2980   7.793   8.722   1.347  0.5282 -0.4374  0.0257
    8CHTO  H211 2981   7.751   8.635   1.298  0.5027 -0.9104  0.8666
    8CHTO  H212 2982   7.881   8.748   1.290  0.0885 -1.0317 -0.9440
    8CHTO   O75 2983   7.350   8.901   1.518 -0.2593 -0.0486 -0.2988
    8CHTO  C112 2984   7.231   8.815   1.456  0.1915 -0.5119  0.0882
    8CHTO  H216 2985   7.266   8.749   1.375  0.8766  3.7959 -3.3236
    8CHTO   O73 2986   7.133   8.913   1.412 -0.0690 -0.2064  0.3251
    8CHTO  C113 2987   7.013   8.860   1.358  0.4311  0.4591  0.8580
    8CHTO  H217 2988   7.043   8.784   1.283 -2.0674  0.3633 -0.1137
    8CHTO  C124 2989   6.929   8.972   1.298  0.0866 -0.2214 -0.0021
    8CHTO   O83 2990   6.918   9.082   1.385  0.3673  0.5249  0.4861
    8CHTO  H204 2991   6.842   9.073   1.439  0.1521 -2.4095 -0.2262
    8CHTO  C109 2992   6.929   8.787   1.471 -0.1351 -0.1939 -0.0442
    8CHTO  H213 2993   6.914   8.857   1.555 -1.0167 -0.1652 -0.2195
    8CHTO  C110 2994   7.025   8.673   1.524  0.0355 -0.5942  0.1191
    8CHTO  H214 2995   7.034   8.594   1.450 -0.5214  1.0970 -1.7896
    8CHTO   O78 2996   6.972   8.614   1.649  0.1388 -0.3550  0.6204
    8CHTO  H200 2997   7.011   8.533   1.675  0.9684 -0.2281 -0.2099
    8CHTO  C111 2998   7.165   8.727   1.572 -0.0876  0.0112  1.0420
    8CHTO  H215 2999   7.153   8.794   1.659  0.1381  1.7016 -0.2026
    8CHTO   N19 3000   7.262   8.620   1.611 -0.9840  0.7512 -0.6138
    8CHTO  H207 3001   7.287   8.637   1.715  0.7496  1.5955 -1.1522
    8CHTO  H208 3002   7.231   8.517   1.626 -0.4044  0.8271  1.2634
    8CHTO   O74 3003   6.810   8.733   1.417  0.0274 -0.1254 -0.5628
    8CHTO  C115 3004   6.699   8.715   1.523  0.1595 -0.1881 -0.4501
    8CHTO  H219 3005   6.671   8.610   1.531  0.2799 -0.0603  2.0138
    8CHTO   O76 3006   6.745   8.765   1.665  0.3403 -0.0015 -0.0839
    8CHTO  C122 3007   6.648   8.791   1.774 -0.0040  0.1736  0.2357
    8CHTO  H226 3008   6.683   8.863   1.848  1.5546 -1.0172  0.6942
    8CHTO  C126 3009   6.626   8.651   1.859 -0.3042 -0.1452  0.3812
    8CHTO   O85 3010   6.552   8.680   1.975 -0.1337 -0.2714  0.3937
    8CHTO  H206 3011   6.487   8.614   1.992 -0.6340 -0.2338 -1.3344
    8CHTO  C121 3012   6.505   8.841   1.729 -0.4274  0.0931 -0.0019
    8CHTO  H225 3013   6.440   8.751   1.725  0.4451 -0.6202  1.5612
    8CHTO   O81 3014   6.449   8.946   1.813 -0.0372 -0.2608  0.5428
    8CHTO  H202 3015   6.356   8.950   1.812  0.0513  2.1599 -0.8768
    8CHTO  C119 3016   6.522   8.899   1.588  0.9881 -0.0485  0.3885
    8CHTO  H223 3017   6.430   8.945   1.551  1.1263  0.0805  0.2044
    8CHTO  C117 3018   6.564   8.792   1.477 -0.2454  0.4455 -0.1454
    8CHTO  H221 3019   6.587   8.849   1.386  0.5284  3.6120  1.9703
    8CHTO   N20 3020   6.451   8.706   1.444  0.6476  0.1536 -0.1516
    8CHTO  H209 3021   6.385   8.755   1.374  0.3890 -0.6538 -0.4760
    8CHTO  H210 3022   6.407   8.662   1.532 -0.7179  0.6774 -0.5453
    8CHTO   O80 3023   6.622   9.018   1.575 -0.0962  0.8063 -0.2758
    8CHTO  C103 3024   6.570   9.165   1.561 -0.2893  0.1688  0.5993
    8CHTO  H190 3025   6.462   9.168   1.572 -0.2151 -1.8062  2.1913
    8CHTO  C101 3026   6.630   9.276   1.663  0.3786  0.2800  0.3738
    8CHTO  H188 3027   6.738   9.266   1.656  0.1407 -0.7319 -2.8783
    8CHTO   O68 3028   6.581   9.240   1.791  0.2562  0.0457 -0.5886
    8CHTO  H168 3029   6.613   9.289   1.865 -0.5206 -0.8385  0.3339
    8CHTO   C99 3030   6.588   9.421   1.608 -0.6589  0.4454  0.5061
    8CHTO  H186 3031   6.477   9.432   1.609 -0.8012 -0.9017  0.6782
    8CHTO   N17 3032   6.645   9.527   1.696  0.3010 -0.1211 -0.1690
    8CHTO  H174 3033   6.735   9.495   1.747 -0.4098 -3.3991 -0.8449
    8CHTO  H175 3034   6.662   9.615   1.636  1.8313 -0.0091  0.3987
    8CHTO   C97 3035   6.636   9.436   1.462 -0.5551  0.1355  0.1924
    8CHTO  H184 3036   6.745   9.420   1.464 -0.7003 -0.7881  0.6233
    8CHTO   O64 3037   6.566   9.339   1.378 -0.2645 -0.2365 -0.2572
    8CHTO  C104 3038   6.604   9.203   1.412  0.1240 -0.5537  0.0129
    8CHTO  H191 3039   6.712   9.203   1.399  0.0790  2.2164 -0.6671
    8CHTO  C108 3040   6.543   9.116   1.296 -0.1529  0.2331 -0.3783
    8CHTO   O71 3041   6.645   9.094   1.195 -0.1321 -0.2399 -0.4817
    8CHTO  H171 3042   6.605   9.045   1.126 -0.7663 -0.7075  0.2253
    8CHTO   O62 3043   6.598   9.564   1.400  0.2685 -0.4083  0.4573
    8CHTO   C91 3044   6.690   9.624   1.308 -0.3291  0.0041 -0.0512
    8CHTO  H178 3045   6.789   9.579   1.317  0.3364  1.4326 -0.0481
    8CHTO   C92 3046   6.700   9.779   1.341  0.2202  1.1569 -0.3940
    8CHTO  H179 3047   6.605   9.833   1.331 -0.3034  0.2574 -0.3239
    8CHTO   O66 3048   6.723   9.786   1.481 -0.4898  0.1506 -0.4399
    8CHTO  H166 3049   6.753   9.872   1.502  0.2592  0.0965 -1.2286
    8CHTO   C93 3050   6.801   9.854   1.252  0.2331  0.2260 -0.6664
    8CHTO  H180 3051   6.889   9.789   1.261  0.8148  1.2697  1.6367
    8CHTO   N16 3052   6.831   9.998   1.292 -0.1059  0.5112 -0.0427
    8CHTO  H172 3053   6.739  10.054   1.293 -0.5496 -0.1474 -1.5034
    8CHTO  H173 3054   6.872   9.988   1.391  2.1656  0.2999 -0.9684
    8CHTO   C94 3055   6.737   9.834   1.115  0.3474 -0.1741  0.8885
    8CHTO  H181 3056   6.633   9.867   1.117  0.1158 -0.9493  1.5896
    8CHTO   O61 3057   6.735   9.689   1.085 -0.6819 -0.5816  0.3625
    8CHTO   C95 3058   6.646   9.615   1.161  0.1854 -0.0338 -0.5600
    8CHTO  H182 3059   6.546   9.656   1.148  1.5011  3.4647 -0.2080
    8CHTO  C106 3060   6.644   9.472   1.106  0.1456  0.1703 -0.4963
    8CHTO   O69 3061   6.770   9.402   1.133  0.0841 -0.0914  0.5963
    8CHTO  H169 3062   6.770   9.315   1.099  1.6100 -0.4452  1.4496
    8CHTO   O63 3063   6.818   9.918   0.997 -0.3985 -0.3043 -0.0758
    8CHTO   C96 3064   6.740   9.918   0.863  0.3581  0.0743 -0.0252
    8CHTO  H183 3065   6.660   9.845   0.875  0.6816 -0.1370  0.8921
    8CHTO   C98 3066   6.815   9.883   0.736 -0.2295  0.4959  0.9563
    8CHTO  H185 3067   6.895   9.950   0.702 -0.5356  0.3174 -0.1758
    8CHTO   O67 3068   6.882   9.758   0.756  0.1732  0.6921  0.2262
    8CHTO  H167 3069   6.932   9.727   0.683 -0.2195  0.2743  0.1356
    8CHTO  C102 3070   6.708   9.862   0.613 -0.5508  0.0086  0.7657
    8CHTO  H189 3071   6.645   9.774   0.632 -2.4372  0.9422 -1.0148
    8CHTO   N18 3072   6.779   9.833   0.483 -0.1145 -0.4889  0.4317
    8CHTO  H176 3073   6.768   9.728   0.461 -0.9909 -0.0217 -1.4401
    8CHTO  H177 3074   6.886   9.849   0.486 -0.0327 -0.4480 -2.2559
    8CHTO  C105 3075   6.619   9.984   0.603  0.2977  0.1127  0.4179
    8CHTO  H192 3076   6.680  10.058   0.552 -0.4236  0.5850  0.2305
    8CHTO   O65 3077   6.567  10.042   0.723  0.1956  0.4742 -0.0853
    8CHTO  C100 3078   6.671  10.059   0.827 -0.2920  0.1188  0.2609
    8CHTO  H187 3079   6.748  10.121   0.778  0.6896 -0.5896  0.8879
    8CHTO  C107 3080   6.604  10.121   0.946  0.7783 -0.5179 -0.4098
    8CHTO   O70 3081   6.572  10.262   0.933  0.5282 -0.2739  0.2542
    8CHTO  H170 3082   6.652  10.309   0.926  1.4817 -1.8442  0.2312
    8CHTO   O57 3083   6.493   9.936   0.502 -0.8338 -0.1071  0.1111
    8CHTO   C85 3084   6.433  10.043   0.429  0.4177 -0.7480  0.1781
    8CHTO  H157 3085   6.521  10.103   0.398 -0.0538  0.4994  1.2006
    8CHTO   C83 3086   6.349  10.134   0.519  0.1774 -0.8758  0.6082
    8CHTO  H155 3087   6.416  10.174   0.595 -0.8128  3.0862 -0.4697
    8CHTO   O56 3088   6.234  10.061   0.578 -0.4402 -0.6830 -0.4346
    8CHTO  H135 3089   6.175  10.032   0.512  0.8619 -0.7792 -1.5849
    8CHTO   C81 3090   6.307  10.250   0.426 -0.1544  0.4670 -0.4594
    8CHTO  H153 3091   6.395  10.293   0.379 -1.1001  2.1010 -0.7914
    8CHTO   N14 3092   6.253  10.379   0.494 -0.2772 -0.4321 -0.2373
    8CHTO  H141 3093   6.330  10.417   0.558 -0.9410  0.2637  0.1569
    8CHTO  H142 3094   6.167  10.362   0.555 -0.3995 -1.0376 -0.5807
    8CHTO   C79 3095   6.209  10.203   0.314 -0.1085  0.9112  0.2340
    8CHTO  H151 3096   6.207  10.281   0.237  3.3632  0.6380 -0.2202
    8CHTO   O52 3097   6.279  10.094   0.236  0.0890 -0.0332 -0.1997
    8CHTO   C86 3098   6.351   9.994   0.302  0.3745  0.4472 -0.7372
    8CHTO  H158 3099   6.286   9.907   0.325  0.2539  0.8140  0.3289
    8CHTO   C90 3100   6.453   9.937   0.194  0.4536 -0.6642 -0.4142
    8CHTO   O60 3101   6.522   9.822   0.234  0.1684  0.2864 -0.7142
    8CHTO  H138 3102   6.593   9.842   0.293 -0.7067  2.9169 -0.4607
    8CHTO   O50 3103   6.081  10.144   0.357  0.6606  0.3932 -0.0941
    8CHTO   C73 3104   5.945  10.100   0.344  0.1192  0.6580 -0.0677
    8CHTO  H145 3105   5.918  10.061   0.245  0.5352 -1.4940  0.6422
    8CHTO   C74 3106   5.842  10.207   0.366  0.3849  0.0216 -0.5828
    8CHTO  H146 3107   5.864  10.280   0.287  0.3563  1.6935  0.9453
    8CHTO   O54 3108   5.707  10.158   0.344 -0.1108 -0.1448  0.7604
    8CHTO  H133 3109   5.644  10.193   0.404  1.2730  1.9182  1.0577
    8CHTO   C75 3110   5.849  10.268   0.510  0.0097 -0.3590 -0.0032
    8CHTO  H147 3111   5.951  10.302   0.529  1.1217 -2.9901 -1.0582
    8CHTO   N13 3112   5.765  10.385   0.532  0.0887 -0.1415 -0.2845
    8CHTO  H139 3113   5.774  10.432   0.628 -2.0961 -2.4883  1.1335
    8CHTO  H140 3114   5.788  10.461   0.459 -0.8378  0.5253  0.1144
    8CHTO   C76 3115   5.845  10.152   0.627 -0.0197  0.2809  0.5065
    8CHTO  H148 3116   5.739  10.132   0.643  0.4345 -0.4263  2.9824
    8CHTO   O49 3117   5.921  10.034   0.591  0.2676 -0.3972  0.6457
    8CHTO   C77 3118   5.907   9.991   0.454 -0.0939 -0.4207  0.0761
    8CHTO  H149 3119   5.802   9.961   0.447 -0.0701 -0.0222 -2.1682
    8CHTO   C88 3120   6.003   9.870   0.422 -0.0051  0.6339 -0.4675
    8CHTO   O58 3121   5.953   9.785   0.324  0.1983  0.6671 -0.4788
    8CHTO  H136 3122   5.945   9.821   0.238 -0.7135 -1.4933 -1.3526
    8CHTO   O51 3123   5.923  10.220   0.760 -0.0629  0.1483 -0.4879
    8CHTO   C78 3124   5.932  10.130   0.884 -0.4884 -0.4092 -0.2048
    8CHTO  H150 3125   5.948  10.021   0.876 -1.9200 -0.7298  1.0612
    8CHTO   C80 3126   5.800  10.147   0.965 -0.3748 -1.0766 -0.3846
    8CHTO  H152 3127   5.786  10.256   0.977 -3.0366 -1.3104 -1.2346
    8CHTO   O55 3128   5.676  10.094   0.910  0.0258  0.6173 -0.5947
    8CHTO  H134 3129   5.681  10.000   0.914 -1.0204  0.5246 -1.3296
    8CHTO   C84 3130   5.819  10.090   1.116  0.8689  0.1709  0.1302
    8CHTO  H156 3131   5.828   9.982   1.110  0.2788  0.1733 -0.7789
    8CHTO   N15 3132   5.704  10.116   1.209 -0.0428 -0.4939  0.2728
    8CHTO  H143 3133   5.659  10.213   1.197  2.0379  0.5349  0.4675
    8CHTO  H144 3134   5.635  10.038   1.189 -0.6223  0.4005 -1.3191
    8CHTO   C87 3135   5.955  10.122   1.183 -0.6013  0.0531 -0.0072
    8CHTO  H159 3136   5.955  10.225   1.220 -0.2499 -0.1530  0.5747
    8CHTO   O53 3137   6.068  10.106   1.085  0.4941 -0.0719  0.0946
    8CHTO   C82 3138   6.057  10.178   0.964 -0.5715 -0.2940  0.1182
    8CHTO  H154 3139   6.050  10.286   0.982  2.1833  0.2921 -1.9529
    8CHTO   C89 3140   6.191  10.159   0.887  0.2236 -0.5916  0.1736
    8CHTO   O59 3141   6.221  10.018   0.870 -0.1789 -0.2516  0.5165
    8CHTO  H137 3142   6.168   9.982   0.802  2.2261 -2.9905  0.0203
    8CHTO   O45 3143   6.002  10.012   1.298 -0.1840  0.2182 -0.8474
    8CHTO   C67 3144   6.034   9.879   1.241 -0.0236  0.1089 -0.5207
    8CHTO  H124 3145   6.018   9.872   1.133 -0.4302 -0.8594 -0.4040
    8CHTO   C65 3146   6.189   9.856   1.269 -0.5995 -0.3841 -0.1632
    8CHTO  H122 3147   6.236   9.952   1.249 -0.4384 -0.2571  0.7931
    8CHTO   O44 3148   6.242   9.753   1.182 -0.4991  0.2517 -0.0008
    8CHTO  H102 3149   6.191   9.757   1.103 -0.4925 -1.2608 -0.0975
    8CHTO   C63 3150   6.208   9.837   1.427 -0.7063 -0.1986 -0.2422
    8CHTO  H120 3151   6.171   9.925   1.479  2.6191  1.3658 -0.4364
    8CHTO   N11 3152   6.354   9.832   1.469  0.1950 -0.2941 -0.4562
    8CHTO  H108 3153   6.410   9.756   1.418  0.2710  0.1252 -1.0029
    8CHTO  H109 3154   6.378   9.826   1.573  1.6961  1.1651 -0.7001
    8CHTO   C61 3155   6.125   9.714   1.481  0.7737 -0.0054  0.8367
    8CHTO  H118 3156   6.133   9.736   1.588 -0.8488  0.0435  0.9627
    8CHTO   O40 3157   5.984   9.725   1.442 -0.1445  0.2042 -0.3763
    8CHTO   C68 3158   5.938   9.765   1.310  0.2742  0.7884 -0.4368
    8CHTO  H125 3159   5.842   9.819   1.318  0.4963  1.6287 -3.1183
    8CHTO   C72 3160   5.919   9.651   1.210  0.2030  0.1289  0.9661
    8CHTO   O48 3161   5.818   9.559   1.252 -0.0701 -0.0504 -0.2221
    8CHTO  H105 3162   5.848   9.502   1.321  0.7758  0.3231 -0.2761
    8CHTO   O38 3163   6.181   9.588   1.447 -0.4223  0.0167  0.1764
    8CHTO   C55 3164   6.123   9.461   1.484 -0.8775  0.1731  0.6818
    8CHTO  H112 3165   6.027   9.444   1.433  0.2831  0.6027 -1.7070
    8CHTO   C56 3166   6.109   9.440   1.648  0.1030 -0.6215 -0.6470
    8CHTO  H113 3167   6.205   9.464   1.697  0.2885 -0.4861 -1.0681
    8CHTO   O42 3168   6.021   9.538   1.703  0.2799 -0.5554 -0.6407
    8CHTO  H100 3169   5.938   9.502   1.729 -0.9522  1.7735 -1.1151
    8CHTO   C57 3170   6.061   9.287   1.677 -0.5423 -0.4900 -0.7014
    8CHTO  H114 3171   5.957   9.282   1.645 -1.2641 -1.2450  1.6717
    8CHTO   N10 3172   6.056   9.251   1.823  0.3586  0.2698  0.1489
    8CHTO  H106 3173   5.988   9.169   1.845  1.5697 -0.2091  2.1539
    8CHTO  H107 3174   6.026   9.330   1.889 -0.4455 -2.2172  2.8446
    8CHTO   C58 3175   6.144   9.182   1.605 -0.2601 -0.7766  0.8486
    8CHTO  H115 3176   6.247   9.180   1.646 -0.7083 -3.6327  1.9401
    8CHTO   O37 3177   6.152   9.214   1.469 -0.1626 -0.1909  0.2384
    8CHTO   C59 3178   6.215   9.339   1.436  0.1696  0.2744  0.0491
    8CHTO  H116 3179   6.314   9.342   1.480  0.6629 -0.1641 -1.0226
    8CHTO   C70 3180   6.225   9.348   1.286  0.1578  0.1454  0.0824
    8CHTO   O46 3181   6.339   9.422   1.238 -0.0412  0.2612  0.3940
    8CHTO  H103 3182   6.317   9.445   1.149 -1.5461  1.6525  1.0929
    8CHTO   O39 3183   6.060   9.018   1.630  0.1575 -0.8255  0.0497
    8CHTO   C60 3184   5.917   9.023   1.610 -0.0880 -0.3353  0.2370
    8CHTO  H117 3185   5.878   9.091   1.686  0.0210 -0.3471  0.3015
    8CHTO   C62 3186   5.867   9.068   1.464 -1.2497 -0.2791 -0.5404
    8CHTO  H119 3187   5.909   9.170   1.452 -2.3197  0.1759 -0.5188
    8CHTO   O43 3188   5.930   8.981   1.362  0.4670  0.4783  0.2490
    8CHTO  H101 3189   5.962   9.040   1.296 -0.0452  0.0776 -0.3581
    8CHTO   C66 3190   5.706   9.076   1.452  0.1347  0.4132  0.0059
    8CHTO  H123 3191   5.678   9.158   1.517  0.5726 -1.1955  2.2916
    8CHTO   N12 3192   5.657   9.119   1.319 -0.4574 -0.1136 -0.4151
    8CHTO  H110 3193   5.744   9.134   1.256  0.0070  0.9110  0.4656
    8CHTO  H111 3194   5.587   9.049   1.276 -1.3452  0.5925 -0.1148
    8CHTO   C69 3195   5.649   8.934   1.487  0.3799 -0.4063  0.3162
    8CHTO  H126 3196   5.682   8.854   1.417  1.9765  0.2398  0.3125
    8CHTO   O41 3197   5.700   8.895   1.633 -0.2986 -0.5867 -0.3944
    8CHTO   C64 3198   5.851   8.883   1.649  0.2320  0.3250  0.9424
    8CHTO  H121 3199   5.874   8.805   1.573 -1.1205  1.8886 -1.1466
    8CHTO   C71 3200   5.900   8.828   1.786  0.6747 -0.3804 -0.5868
    8CHTO   O47 3201   5.838   8.701   1.808  0.1352  0.0809 -0.8345
    8CHTO  H104 3202   5.870   8.661   1.888 -0.6785  0.1684 -0.4666
    8CHTO   O34 3203   5.498   8.933   1.472  0.7847 -0.2512 -0.2931
    8CHTO   C49 3204   5.384   8.965   1.575  0.5756  0.6353 -0.7177
    8CHTO   H91 3205   5.393   8.887   1.650  1.1061  0.2878 -1.1352
    8CHTO   C47 3206   5.252   8.973   1.494  0.3081 -0.5704 -0.8406
    8CHTO   H89 3207   5.166   8.998   1.559  1.0474  0.8913 -0.4109
    8CHTO   O33 3208   5.231   8.846   1.425  0.4779  0.0514  0.2545
    8CHTO   H70 3209   5.285   8.835   1.349 -2.4156 -3.0276 -1.4503
    8CHTO   C45 3210   5.270   9.097   1.384 -0.3305  0.2292 -0.0639
    8CHTO   H87 3211   5.358   9.070   1.322 -0.3889 -0.1077 -0.0040
    8CHTO    N8 3212   5.161   9.115   1.289 -0.1851 -0.0026 -0.1076
    8CHTO   H75 3213   5.115   9.210   1.312 -1.1152 -0.1497 -1.3096
    8CHTO   H76 3214   5.206   9.126   1.192 -0.4147  0.2453 -0.1874
    8CHTO   C43 3215   5.321   9.235   1.455  0.3636 -0.1623  0.3895
    8CHTO   H85 3216   5.357   9.296   1.371  0.4753 -0.4150  0.2529
    8CHTO   O29 3217   5.422   9.215   1.554 -0.4296  0.9720 -0.4931
    8CHTO   C50 3218   5.416   9.101   1.639 -0.5535  0.5738 -0.3310
    8CHTO   H92 3219   5.509   9.077   1.692 -1.9600 -1.3102  1.3733
    8CHTO   C54 3220   5.317   9.129   1.754  0.6205 -0.5568  0.8634
    8CHTO   O36 3221   5.353   9.240   1.826  0.2384  0.2715  0.0136
    8CHTO   H72 3222   5.280   9.259   1.882  0.3663 -1.0147  0.6279
    8CHTO   O27 3223   5.210   9.313   1.515 -0.1332  0.1776  0.1724
    8CHTO   C37 3224   5.161   9.452   1.522 -0.5938 -0.3571 -0.3775
    8CHTO   H79 3225   5.091   9.460   1.607  0.2935  2.2043  0.1619
    8CHTO   C38 3226   5.277   9.548   1.545  0.0477 -0.2670 -0.5542
    8CHTO   H80 3227   5.358   9.536   1.471  1.2818 -1.7446  0.9811
    8CHTO   O31 3228   5.325   9.531   1.675 -0.2573  0.3335  0.1240
    8CHTO   H68 3229   5.348   9.444   1.701 -2.6741 -0.5716 -0.5976
    8CHTO   C39 3230   5.228   9.698   1.548  0.2249 -0.0469  0.5975
    8CHTO   H81 3231   5.163   9.703   1.635  0.5419  0.0024  0.8281
    8CHTO    N7 3232   5.340   9.800   1.563 -0.4476  0.2381 -0.5303
    8CHTO   H73 3233   5.316   9.855   1.653 -0.6781 -1.3441  0.3890
    8CHTO   H74 3234   5.438   9.755   1.568 -0.0801  1.0979  0.2127
    8CHTO   C40 3235   5.142   9.735   1.420 -0.1872  0.2297  0.0899
    8CHTO   H82 3236   5.208   9.740   1.333 -1.0145 -1.5690 -0.6620
    8CHTO   O26 3237   5.040   9.634   1.397  0.3654 -0.0894 -0.9200
    8CHTO   C41 3238   5.081   9.495   1.392  0.0157 -0.2138 -0.2539
    8CHTO   H83 3239   5.150   9.481   1.307  3.0581  0.6159  1.9641
    8CHTO   C52 3240   4.957   9.410   1.372 -0.2783  0.1066  0.9756
    8CHTO   O35 3241   4.889   9.426   1.242 -0.3999 -0.1869 -0.0361
    8CHTO   H71 3242   4.833   9.501   1.239 -1.0486 -0.7232 -1.5992
    8CHTO   O28 3243   5.071   9.859   1.438  0.7222  0.0668  0.0868
    8CHTO   C42 3244   5.030   9.955   1.336  0.2598  0.3303 -0.0574
    8CHTO   H84 3245   5.002  10.044   1.392  1.4810  0.7406 -0.0847
    8CHTO   C44 3246   4.901   9.900   1.265  0.5874 -0.2168 -1.0732
    8CHTO   H86 3247   4.919   9.801   1.223  0.4068 -1.0618  0.8252
    8CHTO   O32 3248   4.796   9.888   1.366 -0.2150 -0.1233  0.3890
    8CHTO   H69 3249   4.774   9.965   1.415 -1.0377 -1.3994  2.0813
    8CHTO   C48 3250   4.853   9.992   1.143  0.1269 -0.5198  1.1999
    8CHTO   H90 3251   4.823  10.093   1.171 -1.2242 -0.4553 -0.3631
    8CHTO    N9 3252   4.738   9.928   1.070  0.1435 -0.3637  0.0455
    8CHTO   H77 3253   4.754   9.822   1.061  0.6545 -0.1486 -1.8102
    8CHTO   H78 3254   4.720   9.973   0.974  0.4183  0.9050  0.5741
    8CHTO   C51 3255   4.977  10.011   1.043  0.5876 -0.5817  0.0826
    8CHTO   H93 3256   5.012   9.916   1.002  2.6111  0.6547 -1.1046
    8CHTO   O30 3257   5.079  10.076   1.112 -0.1309  0.1804 -0.2782
    8CHTO   C46 3258   5.133   9.998   1.226  0.2155  0.5200 -0.3658
    8CHTO   H88 3259   5.171   9.902   1.191  1.3606  0.5761  0.6729
    8CHTO   C53 3260   5.251  10.077   1.289  0.5201  0.4611  0.4225
    8CHTO   O72 3261   5.220  10.200   1.359 -0.1508  0.0270 -0.0763
    8CHTO  H199 3262   5.300  10.247   1.375 -0.0217 -0.3495  0.3825
    8CHTO   O22 3263   4.948  10.099   0.927  0.4804 -0.0143 -0.3893
    8CHTO   C31 3264   5.031  10.120   0.811  0.3613 -0.0626  0.1047
    8CHTO   H59 3265   4.984  10.210   0.766 -0.0555  0.1462  0.9622
    8CHTO   C29 3266   5.187  10.147   0.833 -0.0057 -0.1573  0.1323
    8CHTO   H57 3267   5.229  10.060   0.885  0.5394  1.0929  1.8156
    8CHTO   O21 3268   5.213  10.258   0.910  0.8470  0.7905  0.1603
    8CHTO   H37 3269   5.298  10.252   0.948  0.1693 -0.9181  1.4496
    8CHTO   C27 3270   5.247  10.152   0.683  0.5973 -0.1350  0.0283
    8CHTO   H55 3271   5.199  10.232   0.625 -0.2803  0.3205  1.3545
    8CHTO    N5 3272   5.394  10.173   0.680 -0.3657 -0.8699  0.0959
    8CHTO   H43 3273   5.445  10.119   0.758  0.0946  0.8696  1.0244
    8CHTO   H44 3274   5.420  10.277   0.688 -0.7346 -0.5164 -2.7420
    8CHTO   C25 3275   5.208  10.026   0.595 -0.2638  0.2033 -0.3292
    8CHTO   H53 3276   5.253   9.938   0.642  0.1198  0.0315 -1.0102
    8CHTO   O17 3277   5.070  10.013   0.584 -0.4840 -0.2981  0.2117
    8CHTO   C32 3278   5.008   9.996   0.712 -0.2809  0.2494  0.1196
    8CHTO   H60 3279   5.047   9.906   0.760 -0.6874  0.7699  1.4672
    8CHTO   C36 3280   4.858   9.959   0.700  0.4042  0.1376 -0.0221
    8CHTO   O25 3281   4.781  10.039   0.613 -0.1061  0.0020  0.6294
    8CHTO   H40 3282   4.777  10.122   0.656 -0.7280 -0.8728  2.3071
    8CHTO   O15 3283   5.249  10.033   0.460  0.0055  0.5788  0.4156
    8CHTO   C19 3284   5.310   9.975   0.335  0.5607 -0.5380  0.1251
    8CHTO   H47 3285   5.237   9.903   0.295 -0.1778  0.0725  0.3674
    8CHTO   C20 3286   5.329  10.084   0.224  0.4224 -0.1749 -0.4895
    8CHTO   H48 3287   5.387  10.171   0.262  0.5571 -0.1319 -0.7928
    8CHTO   O19 3288   5.199  10.139   0.193  0.3747 -0.0013  0.1410
    8CHTO   H35 3289   5.120  10.093   0.172  1.5015 -1.6656 -0.6082
    8CHTO   C21 3290   5.406  10.025   0.099 -1.0842  0.2930  0.8022
    8CHTO   H49 3291   5.334   9.969   0.039 -0.9731  0.6400  0.3453
    8CHTO    N4 3292   5.455  10.137   0.016  0.1445 -0.2448  0.3217
    8CHTO   H41 3293   5.413  10.228   0.057  1.1421  0.0753  0.6693
    8CHTO   H42 3294   5.425  10.127  -0.087  1.5588  0.4116 -0.1741
    8CHTO   C22 3295   5.526   9.928   0.133  0.2041  0.1187  0.5444
    8CHTO   H50 3296   5.614   9.986   0.163 -0.8230  1.3323  1.2805
    8CHTO   O14 3297   5.490   9.838   0.235 -0.3293 -0.8595 -0.7539
    8CHTO   C23 3298   5.448   9.902   0.358  0.7405 -0.1658 -0.6981
    8CHTO   H51 3299   5.527   9.975   0.383  0.8294 -0.7035  0.6160
    8CHTO   C34 3300   5.439   9.799   0.471 -0.4779 -0.2013 -0.4764
    8CHTO   O23 3301   5.570   9.764   0.516 -0.4240 -0.2746  0.8672
    8CHTO   H38 3302   5.611   9.834   0.564 -0.4786 -0.1626  0.7498
    8CHTO   O16 3303   5.552   9.845   0.015  0.7481  0.6226  0.4932
    8CHTO   C24 3304   5.692   9.779   0.019  0.0522 -0.3062 -0.3402
    8CHTO   H52 3305   5.723   9.752   0.120 -0.0594 -1.3194 -0.5643
    8CHTO   C26 3306   5.797   9.875  -0.054 -0.1848 -0.3229  0.3008
    8CHTO   H54 3307   5.757   9.909  -0.152 -1.4454 -0.5054  0.7397
    8CHTO   O20 3308   5.820   9.995   0.027 -1.0362  0.3048  0.4840
    8CHTO   H36 3309   5.737  10.032   0.047 -1.3298 -0.5410  0.8357
    8CHTO   C30 3310   5.926   9.793  -0.086  0.7388 -0.0797 -0.4578
    8CHTO   H58 3311   5.985   9.764   0.002  0.0809  3.4389  1.2261
    8CHTO    N6 3312   6.019   9.879  -0.158  0.3339 -0.3427 -0.4199
    8CHTO   H45 3313   6.068   9.939  -0.084  0.5283 -0.4120 -0.4927
    8CHTO   H46 3314   6.091   9.814  -0.205 -0.0895 -1.5158  0.5142
    8CHTO   C33 3315   5.884   9.666  -0.167  0.2197 -0.2628  0.4686
    8CHTO   H61 3316   5.825   9.701  -0.253  2.6057 -1.1498 -1.5897
    8CHTO   O18 3317   5.801   9.591  -0.074  0.1097 -0.2404  0.6069
    8CHTO   C28 3318   5.668   9.643  -0.065  0.1352 -0.6123  0.7093
    8CHTO   H56 3319   5.627   9.666  -0.164  1.4673  2.0279  0.7066
    8CHTO   C35 3320   5.577   9.544   0.009 -0.4262 -0.3088 -0.2264
    8CHTO   O24 3321   5.601   9.517   0.148  0.2397  0.1082  0.4660
    8CHTO   H39 3322   5.537   9.452   0.169 -3.2029  2.4857 -2.0369
    8CHTO    O9 3323   5.992   9.589  -0.220 -0.4970  0.2626  0.0769
    8CHTO   C13 3324   5.937   9.451  -0.307  0.2081  0.6165  0.1985
    8CHTO   H26 3325   5.837   9.476  -0.348 -0.6388 -2.2551  0.3863
    8CHTO   C11 3326   5.928   9.324  -0.220 -0.7416 -0.0592 -0.1405
    8CHTO   H24 3327   5.831   9.333  -0.170 -1.1543  0.6974 -1.0814
    8CHTO    O8 3328   6.032   9.310  -0.119  0.0901  0.6706 -0.0374
    8CHTO    H3 3329   6.025   9.368  -0.045 -1.1766  1.6523 -0.9088
    8CHTO    C9 3330   5.929   9.203  -0.316 -0.0161  0.2923  0.6444
    8CHTO   H22 3331   5.855   9.228  -0.393 -2.2974 -1.9424  2.0171
    8CHTO    N2 3332   5.878   9.075  -0.252 -0.1462  0.6180  0.1333
    8CHTO   H10 3333   5.924   9.059  -0.156  1.3313 -1.4083 -0.8528
    8CHTO   H11 3334   5.898   8.991  -0.317  0.1554  1.3672 -0.7596
    8CHTO    C7 3335   6.070   9.198  -0.390  0.2234 -0.0580  0.8208
    8CHTO   H20 3336   6.053   9.146  -0.487  0.2322  0.2990  0.6277
    8CHTO    O4 3337   6.128   9.333  -0.405  0.1077 -0.4349 -0.5879
    8CHTO   C14 3338   6.028   9.430  -0.435 -0.1490  0.1431  0.1381
    8CHTO   H27 3339   5.966   9.393  -0.519  1.8135 -0.6118 -1.0165
    8CHTO   C18 3340   6.096   9.560  -0.483 -0.3062 -0.2059  0.1720
    8CHTO   O13 3341   6.134   9.555  -0.624 -0.7294 -0.6768 -0.2917
    8CHTO    H7 3342   6.195   9.622  -0.645  0.6716 -2.8869 -3.8173
    8CHTO    O2 3343   6.184   9.098  -0.311 -0.2025  0.4153  0.3207
    8CHTO    C1 3344   6.324   9.130  -0.317 -0.4355  0.0286 -0.2685
    8CHTO   H14 3345   6.341   9.238  -0.297  2.6550 -0.6695  1.1115
    8CHTO    C2 3346   6.399   9.094  -0.451 -0.3057  0.7243 -0.2339
    8CHTO   H15 3347   6.372   8.990  -0.474 -1.1646  0.7623  0.5562
    8CHTO    O6 3348   6.346   9.180  -0.561  0.2653  1.0061  0.1655
    8CHTO    H1 3349   6.357   9.271  -0.541 -0.0375  0.7678  1.4890
    8CHTO    C3 3350   6.559   9.111  -0.433 -0.3579  0.0045  0.6314
    8CHTO   H16 3351   6.584   9.218  -0.438  2.1141 -0.6085 -1.7969
    8CHTO    N1 3352   6.640   9.056  -0.551  0.5787 -0.0869 -0.1967
    8CHTO    H8 3353   6.746   9.040  -0.537  1.2454  1.4965 -3.1825
    8CHTO    H9 3354   6.627   9.110  -0.643  1.0050  2.5179  1.2244
    8CHTO    C4 3355   6.616   9.053  -0.297  0.1227  0.0641  0.2089
    8CHTO   H17 3356   6.613   8.944  -0.305 -2.7050  0.1491 -0.4563
    8CHTO    O1 3357   6.529   9.097  -0.190 -0.5371  0.4635  0.3808
    8CHTO    C5 3358   6.391   9.057  -0.201  0.0525  0.3321 -0.7253
    8CHTO   H18 3359   6.384   8.951  -0.224  0.1051 -0.1678  1.4766
    8CHTO   C16 3360   6.326   9.085  -0.068  0.7513 -0.0307 -0.0592
    8CHTO   O11 3361   6.373   8.994   0.031  0.0555 -0.2220 -0.1643
    8CHTO    H5 3362   6.293   8.971   0.074 -0.1427 -1.7145 -1.3051
    8CHTO    O3 3363   6.749   9.095  -0.253  0.1053 -0.4288 -0.5731
    8CHTO    C6 3364   6.825   9.005  -0.173  0.4337  0.0656  0.1439
    8CHTO   H19 3365   6.774   8.914  -0.143 -1.3038  0.9612 -0.0154
    8CHTO    C8 3366   6.947   8.956  -0.255 -0.2668  0.3454 -0.6656
    8CHTO   H21 3367   7.002   9.040  -0.298  0.3135 -0.1745 -0.9478
    8CHTO    O7 3368   6.881   8.884  -0.359 -0.1262  0.0837  0.1515
    8CHTO    H2 3369   6.947   8.840  -0.410 -0.9667 -1.4801  0.3780
    8CHTO   C12 3370   7.031   8.854  -0.160 -0.0526 -0.2484  0.0910
    8CHTO   H25 3371   6.957   8.780  -0.122  0.5485 -1.1249 -0.4270
    8CHTO    N3 3372   7.139   8.783  -0.229  0.1859 -0.1900  0.4683
    8CHTO   H12 3373   7.208   8.855  -0.271  0.4149 -0.9225 -0.4278
    8CHTO   H13 3374   7.188   8.724  -0.153  4.0972  0.4293 -1.4234
    8CHTO   C15 3375   7.077   8.940  -0.033  0.4120 -0.6498  0.1356
    8CHTO   H28 3376   7.145   9.022  -0.055  0.8690 -1.7587 -2.9532
    8CHTO   O10 3377   7.154   8.847   0.069 -0.0334 -0.0498  0.8083
    8CHTO    H4 3378   7.242   8.876   0.079 -0.4925  0.6549  2.8878
    8CHTO    O5 3379   6.965   8.988   0.039 -0.8099  0.5028 -0.0288
    8CHTO   C10 3380   6.878   9.069  -0.042  0.0393 -0.4420 -0.3007
    8CHTO   H23 3381   6.943   9.156  -0.055 -1.6873  1.0019  0.4840
    8CHTO   C17 3382   6.760   9.116   0.042 -0.1056 -0.3289  0.5038
    8CHTO   O12 3383   6.810   9.167   0.161  0.3491 -0.4053  0.4922
    8CHTO    H6 3384   6.742   9.206   0.213  0.2291 -1.0558  0.8352
    9CHTO  H203 3385   8.639   3.713   1.238  1.6066 -2.3429  1.5068
    9CHTO   O82 3386   8.670   3.779   1.296 -0.4986 -0.0711  0.1152
    9CHTO  C123 3387   8.741   3.886   1.225  0.5413 -0.9732 -0.7168
    9CHTO  H227 3388   8.726   3.979   1.283  2.5694 -1.3269  0.4187
    9CHTO   O77 3389   8.885   3.841   1.229 -0.1506  0.5617 -0.4194
    9CHTO  C118 3390   8.979   3.920   1.161 -0.9499 -0.1966 -0.5507
    9CHTO  H222 3391   8.975   4.024   1.196 -1.7679 -0.3296 -0.2489
    9CHTO  C125 3392   9.122   3.859   1.179 -0.4487  0.4482 -0.1546
    9CHTO   O84 3393   9.135   3.725   1.128 -0.2924  0.4659  0.1400
    9CHTO  H205 3394   9.058   3.680   1.157  0.3052  0.4235  1.7352
    9CHTO  C114 3395   8.942   3.934   1.015  0.3214  0.6046 -0.4178
    9CHTO  H218 3396   8.929   3.831   0.980  0.8419  0.3438  0.1477
    9CHTO  C116 3397   8.798   3.996   1.004  0.2644  0.2022 -0.5288
    9CHTO  H220 3398   8.811   4.094   1.055 -0.3919 -1.0027  2.0732
    9CHTO   O79 3399   8.767   4.035   0.866  0.4680  0.7531 -0.4159
    9CHTO  H201 3400   8.822   4.106   0.838 -0.1076  1.5099  0.3474
    9CHTO  C120 3401   8.687   3.915   1.075  0.6120  0.4079 -0.6769
    9CHTO  H224 3402   8.667   3.821   1.019 -0.0739  1.3391 -2.0262
    9CHTO   N21 3403   8.551   3.984   1.066 -0.8397  0.0904  0.7478
    9CHTO  H211 3404   8.473   3.909   1.060  1.0499 -1.9404  0.9054
    9CHTO  H212 3405   8.535   4.050   1.149 -0.2541 -0.1955  1.0952
    9CHTO   O75 3406   9.051   3.999   0.952  0.0641  0.0247  0.1694
    9CHTO  C112 3407   9.068   3.941   0.783 -0.1918  0.0587 -0.2393
    9CHTO  H216 3408   8.965   3.926   0.748 -0.4879 -2.3568  1.5748
    9CHTO   O73 3409   9.146   3.820   0.780  0.0577  0.5411  0.5345
    9CHTO  C113 3410   9.171   3.766   0.650  0.1760 -0.0577  0.6477
    9CHTO  H217 3411   9.078   3.728   0.604 -0.0531  2.6849 -1.3094
    9CHTO  C124 3412   9.242   3.633   0.676  0.1661  0.9832  0.2984
    9CHTO   O83 3413   9.263   3.542   0.570 -0.2004 -0.3590  0.1653
    9CHTO  H204 3414   9.340   3.490   0.580  0.1180  0.1908  0.5653
    9CHTO  C109 3415   9.232   3.867   0.559  0.6372  0.0204  0.4135
    9CHTO  H213 3416   9.330   3.898   0.598  0.3629  0.7314  0.5368
    9CHTO  C110 3417   9.143   3.994   0.555  0.2230 -0.0264  0.0490
    9CHTO  H214 3418   9.046   3.983   0.507 -0.4394 -1.6670  1.6813
    9CHTO   O78 3419   9.215   4.094   0.480  0.0938 -0.3942 -0.3520
    9CHTO  H200 3420   9.308   4.078   0.475  0.0393 -0.6890 -0.4616
    9CHTO  C111 3421   9.128   4.055   0.696  0.1654  0.2189  0.5277
    9CHTO  H215 3422   9.229   4.066   0.740 -0.1410  1.4430  0.9412
    9CHTO   N19 3423   9.051   4.179   0.707  0.7512 -0.8376  0.0913
    9CHTO  H207 3424   8.946   4.154   0.695  0.3803  1.1370 -0.8860
    9CHTO  H208 3425   9.079   4.253   0.634 -2.3538 -1.7769 -2.1415
    9CHTO   O74 3426   9.251   3.804   0.420 -0.4921  0.5010  0.2534
    9CHTO  C115 3427   9.392   3.779   0.394  0.3030 -0.3944 -0.0127
    9CHTO  H219 3428   9.456   3.802   0.479  1.3513  1.5930 -1.3037
    9CHTO   O76 3429   9.433   3.620   0.353  0.3454 -0.9792 -0.0516
    9CHTO  C122 3430   9.394   3.585   0.223 -0.0096 -0.5088  0.5657
    9CHTO  H226 3431   9.286   3.594   0.226  0.0116  0.2241 -0.6568
    9CHTO  C126 3432   9.425   3.434   0.190 -0.1914  0.1571  0.2391
    9CHTO   O85 3433   9.553   3.401   0.243 -0.3898 -0.9289 -0.0341
    9CHTO  H206 3434   9.548   3.317   0.286  1.4463 -1.3070 -0.4985
    9CHTO  C121 3435   9.453   3.669   0.105 -0.2910 -0.6672 -0.4357
    9CHTO  H225 3436   9.562   3.674   0.124 -0.2038 -0.8499 -0.8694
    9CHTO   O81 3437   9.419   3.622  -0.028 -0.3880  0.2568  0.2475
    9CHTO  H202 3438   9.462   3.539  -0.036  1.1933  1.0760  0.1285
    9CHTO  C119 3439   9.394   3.821   0.136 -0.2305 -0.4730 -0.1552
    9CHTO  H223 3440   9.438   3.887   0.061  0.0738 -0.2607  0.2060
    9CHTO  C117 3441   9.431   3.883   0.275  0.5155  0.3063 -0.2485
    9CHTO  H221 3442   9.370   3.969   0.301 -0.7488 -0.3368 -1.0563
    9CHTO   N20 3443   9.571   3.932   0.275  0.2098 -0.2876  0.7601
    9CHTO  H209 3444   9.578   4.028   0.323 -0.7294 -0.6480  1.6583
    9CHTO  H210 3445   9.643   3.861   0.312 -0.1273 -0.4771  1.0623
    9CHTO   O80 3446   9.234   3.821   0.100 -0.3592 -0.4930  0.4773
    9CHTO  C103 3447   9.166   3.945   0.016  0.0950  0.7172 -0.1390
    9CHTO  H190 3448   9.067   3.966   0.056 -1.0194 -2.4047 -1.0609
    9CHTO  C101 3449   9.241   4.092   0.019 -0.1293 -0.6728  0.2709
    9CHTO  H188 3450   9.343   4.074  -0.016  0.7442  2.3113  1.1673
    9CHTO   O68 3451   9.242   4.143   0.175  0.5016 -0.0320 -0.1737
    9CHTO  H168 3452   9.167   4.192   0.200  0.3949 -0.3822  0.2033
    9CHTO   C99 3453   9.171   4.203  -0.080 -0.2627  0.2089  0.1133
    9CHTO  H186 3454   9.066   4.225  -0.050  0.3767 -0.4892  2.9800
    9CHTO   N17 3455   9.247   4.330  -0.089  0.1907 -0.1167 -0.7338
    9CHTO  H174 3456   9.259   4.353  -0.194 -2.7306 -0.9812 -1.3160
    9CHTO  H175 3457   9.211   4.413  -0.031 -0.4990 -1.3981  0.6932
    9CHTO   C97 3458   9.151   4.133  -0.228  0.2661 -0.6675 -0.3443
    9CHTO  H184 3459   9.254   4.115  -0.263  0.7871  0.0329  0.7630
    9CHTO   O64 3460   9.080   4.012  -0.213 -0.5547  0.3573 -0.1035
    9CHTO  C104 3461   9.147   3.909  -0.137 -0.4407  0.0300  0.1264
    9CHTO  H191 3462   9.245   3.891  -0.181 -0.1111  0.3469  0.7342
    9CHTO  C108 3463   9.074   3.773  -0.151  0.3137 -0.0187 -0.0299
    9CHTO   O71 3464   8.949   3.769  -0.072 -0.2665 -0.5956  0.4686
    9CHTO  H171 3465   8.957   3.694  -0.015 -0.7762 -0.1368  1.1530
    9CHTO   O62 3466   9.078   4.218  -0.320 -0.1795 -0.7457  0.1797
    9CHTO   C91 3467   9.085   4.188  -0.462  0.5170 -1.2304 -0.0122
    9CHTO  H178 3468   9.173   4.129  -0.489  2.1878 -0.0371  2.6787
    9CHTO   C92 3469   9.100   4.332  -0.534 -0.5412  0.7188  0.1845
    9CHTO  H179 3470   9.181   4.393  -0.492 -0.9379  1.5430 -0.2307
    9CHTO   O66 3471   9.135   4.317  -0.676 -0.7520 -0.2782  0.4093
    9CHTO  H166 3472   9.226   4.295  -0.680 -1.0487 -1.3558 -0.6492
    9CHTO   C93 3473   8.966   4.415  -0.531 -0.3313 -0.1303  1.2330
    9CHTO  H180 3474   8.965   4.484  -0.617  2.0972 -0.2447  1.0937
    9CHTO   N16 3475   8.962   4.506  -0.417 -0.0930  0.3024 -0.0538
    9CHTO  H172 3476   8.933   4.607  -0.439  3.5191  1.1758 -1.1663
    9CHTO  H173 3477   8.896   4.466  -0.341  1.8129 -3.3835 -0.2194
    9CHTO   C94 3478   8.837   4.319  -0.543  0.0137 -0.8011  0.2860
    9CHTO  H181 3479   8.795   4.299  -0.445 -0.7826 -1.4682 -0.1938
    9CHTO   O61 3480   8.866   4.189  -0.602  0.6539  0.4882  0.6731
    9CHTO   C95 3481   8.959   4.112  -0.526  0.3986  0.5117 -0.2814
    9CHTO  H182 3482   8.911   4.067  -0.440 -0.3781  1.0454 -0.4277
    9CHTO  C106 3483   9.004   3.989  -0.601 -0.2979 -0.1480 -0.6103
    9CHTO   O69 3484   8.886   3.916  -0.635 -0.7778 -0.2545  0.4299
    9CHTO  H169 3485   8.912   3.831  -0.665  0.1885 -0.4564  1.7611
    9CHTO   O63 3486   8.719   4.403  -0.656 -0.1459  0.5318 -0.3025
    9CHTO   C96 3487   8.580   4.417  -0.583  0.2391  0.0211 -0.3484
    9CHTO  H183 3488   8.600   4.390  -0.479  2.2870  0.2084 -0.6760
    9CHTO   C98 3489   8.459   4.332  -0.640 -0.3360 -0.1965 -0.2454
    9CHTO  H185 3490   8.464   4.324  -0.749  1.3007 -0.1815 -0.1795
    9CHTO   O67 3491   8.495   4.200  -0.598  0.7914  0.9617 -0.2672
    9CHTO  H167 3492   8.524   4.148  -0.670 -0.3312  0.3828 -0.3267
    9CHTO  C102 3493   8.315   4.379  -0.591 -0.0155 -0.2590 -0.2082
    9CHTO  H189 3494   8.307   4.336  -0.490  2.1024  1.5352  0.7763
    9CHTO   N18 3495   8.200   4.322  -0.673 -0.3350  0.3600  0.2830
    9CHTO  H176 3496   8.105   4.372  -0.663 -0.9153  0.1080 -3.2158
    9CHTO  H177 3497   8.202   4.214  -0.663  0.3122  0.0308 -2.7741
    9CHTO  C105 3498   8.300   4.534  -0.573 -0.0675  0.2694  0.8532
    9CHTO  H192 3499   8.289   4.577  -0.673  1.2159  0.6011  0.8449
    9CHTO   O65 3500   8.406   4.594  -0.504  0.1395 -0.2200  0.4438
    9CHTO  C100 3501   8.531   4.571  -0.578 -0.1214  0.2366  0.3532
    9CHTO  H187 3502   8.513   4.595  -0.684  0.7204  0.6789  0.3107
    9CHTO  C107 3503   8.632   4.678  -0.531  0.2763  0.1474  0.2365
    9CHTO   O70 3504   8.587   4.817  -0.541 -0.0434  0.1990 -0.0099
    9CHTO  H170 3505   8.663   4.869  -0.557 -0.0700 -0.2850 -1.8727
    9CHTO   O57 3506   8.158   4.572  -0.480 -0.1618  0.0647  0.3573
    9CHTO   C85 3507   8.077   4.691  -0.507 -0.1138 -0.3701 -0.0500
    9CHTO  H157 3508   8.069   4.681  -0.617 -0.9832  0.7274 -0.0914
    9CHTO   C83 3509   8.148   4.822  -0.468  0.5409 -0.1752  1.2372
    9CHTO  H155 3510   8.235   4.825  -0.534 -0.0708  0.0085  0.4410
    9CHTO   O56 3511   8.204   4.821  -0.338 -0.4204 -0.3452 -0.2664
    9CHTO  H135 3512   8.144   4.812  -0.267 -0.5122 -0.9631 -0.4200
    9CHTO   C81 3513   8.058   4.949  -0.495  0.2685  0.2307  0.5133
    9CHTO  H153 3514   8.040   4.941  -0.602  2.6475  0.7195  0.0422
    9CHTO   N14 3515   8.115   5.083  -0.489 -0.1093  0.5005  0.2589
    9CHTO  H141 3516   8.045   5.157  -0.523 -2.2565 -0.9772  1.3110
    9CHTO  H142 3517   8.197   5.072  -0.556 -0.9614 -2.8982 -0.3228
    9CHTO   C79 3518   7.926   4.935  -0.413 -0.2201  0.4147 -0.0101
    9CHTO  H151 3519   7.860   5.018  -0.438 -3.5504 -1.7547  1.2489
    9CHTO   O52 3520   7.853   4.810  -0.437 -1.2792  0.0928 -0.5086
    9CHTO   C86 3521   7.935   4.686  -0.440 -0.2898 -0.2979  0.5933
    9CHTO  H158 3522   7.945   4.649  -0.336 -0.4863 -0.4484  0.5587
    9CHTO   C90 3523   7.844   4.584  -0.510 -0.7927  0.4660 -0.1565
    9CHTO   O60 3524   7.801   4.621  -0.645  0.4550 -0.0487  0.0713
    9CHTO  H138 3525   7.743   4.555  -0.678  0.1541  1.7511 -3.2152
    9CHTO   O50 3526   7.947   4.945  -0.275  0.0743 -0.0840 -0.3451
    9CHTO   C73 3527   7.920   4.976  -0.137  0.0187 -0.1374  0.0586
    9CHTO  H145 3528   7.813   4.973  -0.111  0.5145  2.5162  2.7422
    9CHTO   C74 3529   7.956   5.124  -0.107 -0.1511 -0.2039  0.7005
    9CHTO  H146 3530   7.904   5.191  -0.177 -1.5246 -1.3973  0.5399
    9CHTO   O54 3531   7.906   5.171   0.021  0.4079  0.0416  0.1391
    9CHTO  H133 3532   7.823   5.215   0.020  0.4494  0.0981 -1.3558
    9CHTO   C75 3533   8.115   5.134  -0.114 -0.0788  0.3289  0.2542
    9CHTO  H147 3534   8.143   5.121  -0.220  1.7948 -0.8368  0.8622
    9CHTO   N13 3535   8.160   5.274  -0.094  0.2005  0.0906  0.6026
    9CHTO  H139 3536   8.139   5.336  -0.180  1.6412 -1.7928 -1.1439
    9CHTO  H140 3537   8.266   5.273  -0.076  0.1786 -0.1904  0.7234
    9CHTO   C76 3538   8.192   5.029  -0.022 -0.3486  0.2367  1.0736
    9CHTO  H148 3539   8.169   5.047   0.083  0.3891  0.3352  1.2254
    9CHTO   O49 3540   8.146   4.897  -0.059  0.1780 -0.4003 -0.0584
    9CHTO   C77 3541   8.003   4.886  -0.036  0.4455 -0.8026  0.0413
    9CHTO  H149 3542   7.985   4.918   0.067  0.1275  2.4390 -0.9487
    9CHTO   C88 3543   7.959   4.739  -0.062 -0.2598 -0.0729  0.6399
    9CHTO   O58 3544   8.007   4.640   0.035 -0.0119  0.4377 -0.3023
    9CHTO  H136 3545   7.952   4.649   0.110 -0.3516 -0.3323 -0.4490
    9CHTO   O51 3546   8.358   5.021  -0.053  0.6039 -0.2391  0.1683
    9CHTO   C78 3547   8.429   4.978   0.052 -0.0030 -0.1974 -0.1029
    9CHTO  H150 3548   8.371   4.919   0.126  0.3052 -1.0712 -0.5608
    9CHTO   C80 3549   8.494   5.103   0.122 -0.7217  0.8627  0.1032
    9CHTO  H152 3550   8.564   5.152   0.051  1.9373  0.2222  2.1992
    9CHTO   O55 3551   8.390   5.185   0.175  0.3825 -0.1102 -0.1614
    9CHTO  H134 3552   8.417   5.269   0.204 -0.3136  0.8370 -2.1635
    9CHTO   C84 3553   8.589   5.065   0.238  0.3698  1.4533 -0.6134
    9CHTO  H156 3554   8.528   5.012   0.312  1.8883 -0.4681 -0.7073
    9CHTO   N15 3555   8.652   5.181   0.303 -0.2854 -0.6101 -0.1191
    9CHTO  H143 3556   8.756   5.197   0.283 -0.7878 -1.1076 -3.5244
    9CHTO  H144 3557   8.633   5.180   0.408  1.7694 -1.4823  0.2674
    9CHTO   C87 3558   8.690   4.957   0.191 -0.5444  0.6769  0.1358
    9CHTO  H159 3559   8.759   5.000   0.119 -0.5695 -1.8488 -1.4368
    9CHTO   O53 3560   8.597   4.828   0.122  0.7270 -0.1092 -0.2767
    9CHTO   C82 3561   8.531   4.871   0.002  0.1477  0.2720 -0.3992
    9CHTO  H154 3562   8.600   4.911  -0.073  0.8011  0.5406  0.3342
    9CHTO   C89 3563   8.466   4.745  -0.057 -0.4393  0.2455  0.0531
    9CHTO   O59 3564   8.375   4.689   0.040  0.7237 -0.3673 -0.0776
    9CHTO  H137 3565   8.361   4.600   0.016  1.0365 -0.1463 -1.0991
    9CHTO   O45 3566   8.775   4.895   0.328  0.1669  0.6489  0.7127
    9CHTO   C67 3567   8.853   4.776   0.314 -0.8887 -0.5694  0.2299
    9CHTO  H124 3568   8.801   4.705   0.250  1.4426  0.0766 -2.4860
    9CHTO   C65 3569   8.991   4.813   0.256 -0.5272 -0.2585  1.0773
    9CHTO  H122 3570   9.012   4.918   0.278  2.1790 -0.1764 -1.4995
    9CHTO   O44 3571   8.977   4.816   0.110 -0.2101 -0.5365  0.6269
    9CHTO  H102 3572   8.958   4.733   0.072  0.4169 -1.0951  1.5343
    9CHTO   C63 3573   9.116   4.710   0.296  0.4561  0.2988 -0.5033
    9CHTO  H120 3574   9.153   4.732   0.396  3.7523 -1.1400 -1.3684
    9CHTO   N11 3575   9.238   4.696   0.210  0.3654  0.5663 -0.4378
    9CHTO  H108 3576   9.275   4.596   0.220 -1.6315 -0.1164  0.4868
    9CHTO  H109 3577   9.311   4.767   0.243 -1.0615  1.9581 -0.2318
    9CHTO   C61 3578   9.044   4.571   0.318  0.0540 -0.4972  0.0049
    9CHTO  H118 3579   9.115   4.491   0.345  1.5660  0.5428 -0.8794
    9CHTO   O40 3580   8.951   4.576   0.428  0.1942  0.0352 -0.8656
    9CHTO   C68 3581   8.879   4.702   0.456  0.6498 -0.4204 -0.4669
    9CHTO  H125 3582   8.943   4.765   0.521 -0.8455  0.2201  0.3976
    9CHTO   C72 3583   8.756   4.660   0.540 -0.6456  0.2796  0.4175
    9CHTO   O48 3584   8.669   4.614   0.441  0.1423  0.1392  0.8013
    9CHTO  H105 3585   8.639   4.677   0.379  0.9938 -1.1508 -0.9383
    9CHTO   O38 3586   8.985   4.529   0.188 -0.6140  0.4777 -0.7361
    9CHTO   C55 3587   8.887   4.421   0.180 -0.2602  0.8609  0.2860
    9CHTO  H112 3588   8.800   4.456   0.238 -0.4396 -0.2537  0.6958
    9CHTO   C56 3589   8.935   4.287   0.233 -0.0433  0.7548 -0.3463
    9CHTO  H113 3590   9.034   4.258   0.193 -0.8368  0.3049 -2.0583
    9CHTO   O42 3591   8.954   4.306   0.372  0.0909 -0.1263 -0.3526
    9CHTO  H100 3592   9.005   4.234   0.404 -0.3057 -1.2295 -2.0981
    9CHTO   C57 3593   8.822   4.174   0.205  0.5312  0.0485 -0.1637
    9CHTO  H114 3594   8.736   4.195   0.269 -0.8443 -1.2875 -1.5457
    9CHTO   N10 3595   8.861   4.040   0.251  0.4405 -0.2745  0.2518
    9CHTO  H106 3596   8.883   4.038   0.357 -2.1520  1.5921  0.8800
    9CHTO  H107 3597   8.949   4.011   0.195 -0.1315 -1.2330 -0.1517
    9CHTO   C58 3598   8.777   4.174   0.060  0.1092  0.1538  0.3902
    9CHTO  H115 3599   8.853   4.124  -0.003  0.7449  1.4815  0.0992
    9CHTO   O37 3600   8.735   4.306   0.015 -0.0496 -0.6513  1.0048
    9CHTO   C59 3601   8.837   4.410   0.031  0.2238 -0.7298 -0.0932
    9CHTO  H116 3602   8.914   4.384  -0.041 -0.7896 -4.3294  0.0121
    9CHTO   C70 3603   8.774   4.547  -0.011 -0.3929  0.1737 -0.0588
    9CHTO   O46 3604   8.760   4.551  -0.154  0.2561  0.4832  0.1395
    9CHTO  H103 3605   8.842   4.528  -0.193  3.3584  1.8242  5.3238
    9CHTO   O39 3606   8.644   4.098   0.050 -0.3347  0.6564 -0.2959
    9CHTO   C60 3607   8.647   3.966  -0.001 -0.4861  0.3439  0.1984
    9CHTO  H117 3608   8.751   3.934  -0.007 -0.7451 -0.1647 -2.6663
    9CHTO   C62 3609   8.566   3.851   0.081  0.0613 -0.1225  0.0691
    9CHTO  H119 3610   8.616   3.826   0.177 -1.6346 -1.8819  0.5053
    9CHTO   O43 3611   8.432   3.903   0.103  0.4718  1.1818 -0.4357
    9CHTO  H101 3612   8.431   3.991   0.137  0.4603  0.5948  1.1294
    9CHTO   C66 3613   8.555   3.712   0.012  0.5304  0.5722  0.3837
    9CHTO  H123 3614   8.656   3.671   0.004  0.1496 -0.6997  1.8525
    9CHTO   N12 3615   8.473   3.614   0.089  0.5003 -0.2202 -0.1455
    9CHTO  H110 3616   8.367   3.619   0.066  0.9649 -0.6202 -2.4614
    9CHTO  H111 3617   8.477   3.640   0.194 -1.6571  0.1969 -0.1458
    9CHTO   C69 3618   8.512   3.725  -0.138 -0.0344  0.1334 -0.7130
    9CHTO  H126 3619   8.404   3.750  -0.139 -0.3496 -0.6961  4.0534
    9CHTO   O41 3620   8.603   3.840  -0.211 -0.4625  0.2155 -0.0491
    9CHTO   C64 3621   8.597   3.966  -0.153  0.0532 -0.0602 -0.2041
    9CHTO  H121 3622   8.492   4.002  -0.155 -0.3794 -1.2629  0.6796
    9CHTO   C71 3623   8.676   4.063  -0.244 -0.5690  0.8879 -0.0308
    9CHTO   O47 3624   8.623   4.072  -0.373 -0.0504 -0.4066 -0.6125
    9CHTO  H104 3625   8.541   4.117  -0.368  0.3522 -0.0299  3.9378
    9CHTO   O34 3626   8.534   3.589  -0.206  0.0037  0.1532  0.0089
    9CHTO   C49 3627   8.585   3.524  -0.320 -0.9991 -0.1230  0.1573
    9CHTO   H91 3628   8.561   3.581  -0.410  0.1104  0.2624  0.0925
    9CHTO   C47 3629   8.525   3.385  -0.325 -0.0975 -0.5335 -0.0719
    9CHTO   H89 3630   8.542   3.342  -0.426 -1.6515  0.9421 -0.9737
    9CHTO   O33 3631   8.380   3.408  -0.314 -0.0910 -0.3328 -0.2434
    9CHTO   H70 3632   8.346   3.390  -0.399 -1.6813  1.9149 -0.1439
    9CHTO   C45 3633   8.591   3.283  -0.215 -0.2353 -0.1911 -0.7220
    9CHTO   H87 3634   8.514   3.270  -0.137  2.0951 -1.1511  1.4929
    9CHTO    N8 3635   8.628   3.151  -0.279  0.5705 -0.7405 -0.0962
    9CHTO   H75 3636   8.547   3.097  -0.327 -2.1387  0.7528  2.6533
    9CHTO   H76 3637   8.714   3.148  -0.345  0.5323 -0.2075 -0.1639
    9CHTO   C43 3638   8.713   3.355  -0.145 -0.2281  0.0963  0.9688
    9CHTO   H85 3639   8.669   3.434  -0.084 -1.4428 -0.2897  0.6108
    9CHTO   O29 3640   8.795   3.405  -0.249  0.0402 -0.0123  0.5464
    9CHTO   C50 3641   8.738   3.518  -0.313 -0.3502 -0.2449  0.4343
    9CHTO   H92 3642   8.771   3.607  -0.256  0.5907 -0.6396  0.5132
    9CHTO   C54 3643   8.812   3.537  -0.450  0.7069  0.3064 -0.3412
    9CHTO   O36 3644   8.922   3.628  -0.439  0.2640 -0.2025  0.4226
    9CHTO   H72 3645   8.990   3.574  -0.402  0.6060  0.8160  1.3318
    9CHTO   O27 3646   8.794   3.281  -0.057  0.2897  0.4410 -0.1296
    9CHTO   C37 3647   8.819   3.302   0.085  0.0789  0.1388  0.0026
    9CHTO   H79 3648   8.886   3.219   0.113 -0.5136 -0.8159 -1.3145
    9CHTO   C38 3649   8.892   3.436   0.116 -0.6912 -0.1247 -0.5948
    9CHTO   H80 3650   8.834   3.519   0.072 -0.4988  1.5784  2.2766
    9CHTO   O31 3651   9.021   3.440   0.055  0.1649 -0.3830  0.3393
    9CHTO   H68 3652   9.069   3.365   0.083  0.1050  0.0497  1.6403
    9CHTO   C39 3653   8.907   3.478   0.269  0.7976  0.1232  0.9763
    9CHTO   H81 3654   8.980   3.411   0.315  0.3968 -0.5167  0.6868
    9CHTO    N7 3655   8.959   3.617   0.301  0.5203 -0.3470  0.0536
    9CHTO   H73 3656   9.059   3.613   0.342  1.3540  0.8263 -1.7707
    9CHTO   H74 3657   8.895   3.671   0.370  1.0878 -1.3239  1.3548
    9CHTO   C40 3658   8.767   3.452   0.334  0.4032 -0.0710  0.4282
    9CHTO   H82 3659   8.696   3.523   0.293 -0.1823  0.1251  1.7550
    9CHTO   O26 3660   8.724   3.316   0.308 -0.5177 -0.2557 -0.0271
    9CHTO   C41 3661   8.689   3.297   0.173  0.2517 -0.2073 -0.7066
    9CHTO   H83 3662   8.614   3.370   0.141 -2.3896 -1.2083  2.7808
    9CHTO   C52 3663   8.613   3.159   0.180  0.8003 -0.3271  0.8059
    9CHTO   O35 3664   8.704   3.033   0.232 -0.4926  0.0367  0.1843
    9CHTO   H71 3665   8.777   3.032   0.172  0.5431  0.9346  1.3859
    9CHTO   O28 3666   8.759   3.453   0.477 -0.3047  0.0225  0.0554
    9CHTO   C42 3667   8.647   3.518   0.543  0.1205  0.7314 -0.3392
    9CHTO   H84 3668   8.668   3.489   0.646  1.2600 -0.4548 -0.8830
    9CHTO   C44 3669   8.499   3.463   0.517 -0.1023  0.4579  0.1130
    9CHTO   H86 3670   8.476   3.462   0.410 -1.4965 -1.3109  0.4221
    9CHTO   O32 3671   8.494   3.323   0.551 -0.3339 -0.1335  0.5330
    9CHTO   H69 3672   8.565   3.273   0.516 -0.0525  1.4744 -1.2765
    9CHTO   C48 3673   8.389   3.552   0.592  0.2792 -0.0948 -0.7515
    9CHTO   H90 3674   8.402   3.548   0.700 -2.2111  2.3855 -0.2878
    9CHTO    N9 3675   8.247   3.510   0.559 -0.9322  0.5090 -0.4761
    9CHTO   H77 3676   8.226   3.552   0.462 -3.1193  1.6196  0.4202
    9CHTO   H78 3677   8.250   3.403   0.562  0.8343  0.5436 -0.7471
    9CHTO   C51 3678   8.411   3.706   0.556 -0.1894 -0.1422  0.9722
    9CHTO   H93 3679   8.415   3.717   0.448  0.9109  0.6943  1.0957
    9CHTO   O30 3680   8.532   3.736   0.610 -0.1026  0.1680 -0.1777
    9CHTO   C46 3681   8.649   3.672   0.535 -0.2421  0.1838  0.2787
    9CHTO   H88 3682   8.644   3.698   0.430 -2.1728 -1.6602 -0.1105
    9CHTO   C53 3683   8.781   3.742   0.593  0.3725  0.3870  0.3894
    9CHTO   O72 3684   8.786   3.875   0.542  0.3204 -0.5458 -0.1001
    9CHTO  H199 3685   8.727   3.926   0.595 -0.2520 -0.3501 -0.9223
    9CHTO   O22 3686   8.321   3.802   0.613  0.2070 -0.3044 -0.0543
    9CHTO   C31 3687   8.301   3.932   0.563 -0.4287 -0.3161  0.3901
    9CHTO   H59 3688   8.209   3.971   0.610 -0.1082 -1.3228  1.8833
    9CHTO   C29 3689   8.412   4.031   0.607 -0.2798  0.1603  0.2367
    9CHTO   H57 3690   8.505   3.997   0.559 -1.1842  0.3238 -1.6737
    9CHTO   O21 3691   8.434   4.020   0.746 -0.4240  0.4382 -0.4652
    9CHTO   H37 3692   8.451   4.106   0.779 -0.8385  0.6238 -0.7178
    9CHTO   C27 3693   8.385   4.179   0.565 -0.3019  0.1589  0.0172
    9CHTO   H55 3694   8.299   4.214   0.624  0.0579 -0.2035  0.7581
    9CHTO    N5 3695   8.500   4.275   0.592 -0.6422 -0.0393  0.1807
    9CHTO   H43 3696   8.588   4.231   0.637  1.1816  1.7825 -1.4541
    9CHTO   H44 3697   8.469   4.365   0.644 -0.8446  0.2031 -0.3546
    9CHTO   C25 3698   8.353   4.184   0.417 -0.1172  0.9394 -0.3222
    9CHTO   H53 3699   8.442   4.168   0.354  0.9313  1.5543  0.9673
    9CHTO   O17 3700   8.247   4.090   0.381  0.2120  0.1165  0.2288
    9CHTO   C32 3701   8.281   3.949   0.409  0.2065 -0.3721  0.1913
    9CHTO   H60 3702   8.375   3.922   0.360  0.6563  1.0949  0.2130
    9CHTO   C36 3703   8.173   3.856   0.349 -0.3028 -0.6306 -0.0073
    9CHTO   O25 3704   8.048   3.891   0.397  0.0948  0.4152 -0.5083
    9CHTO   H40 3705   8.010   3.970   0.364 -0.7897  0.9162  1.6043
    9CHTO   O15 3706   8.311   4.337   0.370 -0.3344  0.1562 -0.3631
    9CHTO   C19 3707   8.271   4.375   0.230  0.1442 -0.7643  0.2659
    9CHTO   H47 3708   8.272   4.485   0.228  3.2171 -0.7598 -1.6377
    9CHTO   C20 3709   8.384   4.332   0.135  0.0490 -1.0170 -0.0207
    9CHTO   H48 3710   8.397   4.223   0.133  0.8540 -0.9129 -1.2115
    9CHTO   O19 3711   8.507   4.399   0.171 -0.1107 -0.8278 -0.0204
    9CHTO   H35 3712   8.531   4.368   0.257 -1.9044  2.3518  1.7241
    9CHTO   C21 3713   8.340   4.376  -0.010  0.3685 -0.0252  0.1742
    9CHTO   H49 3714   8.327   4.484  -0.006  0.4421 -0.0411  1.0885
    9CHTO    N4 3715   8.446   4.351  -0.111 -0.5101  0.2103  0.4692
    9CHTO   H41 3716   8.409   4.358  -0.212 -0.2514 -0.7433  0.3044
    9CHTO   H42 3717   8.519   4.429  -0.092 -0.3648  0.1548  0.1327
    9CHTO   C22 3718   8.212   4.300  -0.040 -0.2601  1.0098  0.1304
    9CHTO   H50 3719   8.239   4.195  -0.026  0.9998  1.0579 -1.7930
    9CHTO   O14 3720   8.111   4.343   0.050  0.2907 -0.3156  0.0670
    9CHTO   C23 3721   8.129   4.325   0.190 -0.1233  0.1759  0.4841
    9CHTO   H51 3722   8.108   4.220   0.214  1.4326 -0.9125 -2.7270
    9CHTO   C34 3723   8.023   4.406   0.263 -0.1046 -0.2911 -0.4313
    9CHTO   O23 3724   7.890   4.373   0.219  0.4170  0.0199  0.4126
    9CHTO   H38 3725   7.838   4.444   0.186 -1.5957 -2.4648 -1.9104
    9CHTO   O16 3726   8.161   4.322  -0.177  0.1909  0.3214  0.2581
    9CHTO   C24 3727   8.060   4.211  -0.207  0.2120  0.5781 -0.7980
    9CHTO   H52 3728   8.036   4.152  -0.118 -0.0992  0.6712 -0.8204
    9CHTO   C26 3729   8.126   4.120  -0.316 -0.2600 -0.0982 -0.0007
    9CHTO   H54 3730   8.171   4.186  -0.392  1.3546 -1.1185  0.0332
    9CHTO   O20 3731   8.234   4.050  -0.255  0.0630  0.0208  0.4824
    9CHTO   H36 3732   8.262   3.973  -0.301 -0.4205 -0.4480  0.9755
    9CHTO   C30 3733   8.021   4.019  -0.385  0.6102  0.9078  0.4686
    9CHTO   H58 3734   7.989   3.935  -0.322 -1.5278  1.8286  0.6836
    9CHTO    N6 3735   8.069   3.969  -0.515 -0.1049 -0.2010  0.3891
    9CHTO   H45 3736   8.000   3.908  -0.571  2.0010 -2.2073 -0.1160
    9CHTO   H46 3737   8.107   4.051  -0.575 -1.9315 -0.8203 -1.6608
    9CHTO   C33 3738   7.884   4.094  -0.410  0.1471 -0.0835 -0.3305
    9CHTO   H61 3739   7.896   4.161  -0.496  4.0676 -1.8573 -1.2895
    9CHTO   O18 3740   7.845   4.170  -0.294  0.2096  0.1411 -0.3092
    9CHTO   C28 3741   7.930   4.275  -0.264 -0.0217 -0.3864  0.5665
    9CHTO   H56 3742   7.950   4.334  -0.353  0.4310 -1.0866  0.2022
    9CHTO   C35 3743   7.870   4.365  -0.150 -0.6861 -0.2096  0.8267
    9CHTO   O24 3744   7.750   4.431  -0.200 -0.1524  0.9473  0.9184
    9CHTO   H39 3745   7.711   4.379  -0.267  2.3771  0.6772 -0.4331
    9CHTO    O9 3746   7.780   4.003  -0.449 -0.6125 -0.7797 -0.6824
    9CHTO   C13 3747   7.625   4.091  -0.507  0.5191 -0.2275 -0.4066
    9CHTO   H26 3748   7.644   4.148  -0.601 -0.3728 -0.2462 -0.6026
    9CHTO   C11 3749   7.564   4.188  -0.398  0.0984 -0.0209 -0.6194
    9CHTO   H24 3750   7.632   4.274  -0.387  1.2346 -0.8049 -1.4703
    9CHTO    O8 3751   7.555   4.127  -0.272 -0.4412 -0.1680 -0.4270
    9CHTO    H3 3752   7.577   4.195  -0.211 -3.0300 -0.8638  1.3724
    9CHTO    C9 3753   7.437   4.250  -0.461  0.5749 -0.0066  0.4128
    9CHTO   H22 3754   7.472   4.289  -0.557  1.0636 -0.4368  0.4098
    9CHTO    N2 3755   7.377   4.371  -0.395 -0.1037 -0.1657  0.3756
    9CHTO   H10 3756   7.276   4.389  -0.429  0.0665  0.7285  0.3288
    9CHTO   H11 3757   7.437   4.460  -0.406 -1.4115  0.5018 -1.5997
    9CHTO    C7 3758   7.335   4.132  -0.487  0.5187 -0.7537  0.2380
    9CHTO   H20 3759   7.239   4.171  -0.526 -0.7709 -2.3109  1.8017
    9CHTO    O4 3760   7.389   4.027  -0.571 -0.3633 -0.1186 -0.1456
    9CHTO   C14 3761   7.522   3.983  -0.551 -0.5984 -0.0727 -0.0989
    9CHTO   H27 3762   7.553   3.954  -0.653 -0.4732  1.8703 -0.6172
    9CHTO   C18 3763   7.533   3.859  -0.459 -0.3752 -0.0512  0.2771
    9CHTO   O13 3764   7.453   3.749  -0.510 -0.3751  0.6716 -0.8176
    9CHTO    H7 3765   7.373   3.752  -0.462  1.5509 -0.0081  2.6459
    9CHTO    O2 3766   7.294   4.060  -0.332 -0.3703  0.2548 -0.0341
    9CHTO    C1 3767   7.158   4.025  -0.303 -0.7117  0.1271 -0.1107
    9CHTO   H14 3768   7.180   3.963  -0.214  3.6343  0.9722 -0.4934
    9CHTO    C2 3769   7.079   3.944  -0.414 -0.2727 -0.2445 -0.4961
    9CHTO   H15 3770   7.079   4.020  -0.493  2.0919  1.4014  1.0474
    9CHTO    O6 3771   7.164   3.834  -0.456  0.2438  0.2973 -0.5033
    9CHTO    H1 3772   7.183   3.780  -0.382 -0.9888 -0.0515 -0.4424
    9CHTO    C3 3773   6.930   3.907  -0.368 -0.1338 -0.0141 -0.1523
    9CHTO   H16 3774   6.934   3.833  -0.287 -1.8021  0.6265  0.5483
    9CHTO    N1 3775   6.853   3.840  -0.476 -0.0023 -0.3371 -0.0695
    9CHTO    H8 3776   6.877   3.881  -0.573  2.4913  1.2091  1.1493
    9CHTO    H9 3777   6.748   3.836  -0.450  0.4061 -0.4392  1.6517
    9CHTO    C4 3778   6.858   4.039  -0.312  0.0043 -0.3900 -0.7822
    9CHTO   H17 3779   6.827   4.100  -0.397  0.7287 -0.7056 -1.2804
    9CHTO    O1 3780   6.945   4.120  -0.224 -0.1045 -0.0574  0.1739
    9CHTO    C5 3781   7.076   4.148  -0.261 -0.3433 -0.7680  0.0274
    9CHTO   H18 3782   7.070   4.215  -0.347  0.0951  0.4176  0.9148
    9CHTO   C16 3783   7.142   4.223  -0.153  0.4347 -0.1452 -0.0826
    9CHTO   O11 3784   7.072   4.325  -0.094  0.6468  0.0163  0.2497
    9CHTO    H5 3785   7.128   4.362  -0.029 -0.9040  0.2540  1.4562
    9CHTO    O3 3786   6.750   4.003  -0.227 -0.0921  0.0876  0.1695
    9CHTO    C6 3787   6.647   4.110  -0.220  0.3305  0.2437  0.2058
    9CHTO   H19 3788   6.680   4.208  -0.256 -1.9142  2.4900  3.9451
    9CHTO    C8 3789   6.526   4.063  -0.302  0.3311 -0.4612 -0.2520
    9CHTO   H21 3790   6.509   3.956  -0.288  1.0273 -0.4796  0.5259
    9CHTO    O7 3791   6.547   4.106  -0.436 -0.0322 -0.0813  0.2381
    9CHTO    H2 3792   6.510   4.045  -0.496 -0.3155 -0.2833  0.6112
    9CHTO   C12 3793   6.393   4.143  -0.261  0.0991  0.0704  0.0433
    9CHTO   H25 3794   6.409   4.246  -0.299 -0.9944  0.2817  0.1413
    9CHTO    N3 3795   6.271   4.081  -0.317 -0.3383  0.2175  0.0505
    9CHTO   H12 3796   6.176   4.115  -0.280  0.5481  0.3647  2.2855
    9CHTO   H13 3797   6.279   4.081  -0.425 -0.9490 -2.3657 -0.0451
    9CHTO   C15 3798   6.387   4.157  -0.106  0.6938 -0.2204  0.1696
    9CHTO   H28 3799   6.371   4.062  -0.055 -0.4614 -0.7006 -1.0813
    9CHTO   O10 3800   6.282   4.258  -0.064  0.3226  0.1132  0.5032
    9CHTO    H4 3801   6.195   4.222  -0.057 -0.0280  0.4660 -1.6017
    9CHTO    O5 3802   6.505   4.223  -0.057 -0.8107 -0.2939  0.3548
    9CHTO   C10 3803   6.616   4.138  -0.067 -1.4349  0.0773 -0.2994
    9CHTO   H23 3804   6.604   4.037  -0.027  2.1686 -0.6839 -0.9143
    9CHTO   C17 3805   6.726   4.203   0.018  0.1781 -0.7685 -0.0283
    9CHTO   O12 3806   6.838   4.119   0.049  0.0552  0.5237  0.6298
    9CHTO    H6 3807   6.812   4.056   0.113 -1.4551  0.1627 -0.3143
   10CHTO  H203 3808   5.957   6.432   2.187 -1.0249 -1.2790 -2.0716
   10CHTO   O82 3809   5.898   6.385   2.243 -0.2875  0.6092  0.4078
   10CHTO  C123 3810   5.768   6.449   2.240 -0.7306  0.1511  0.3758
   10CHTO  H227 3811   5.744   6.462   2.133  1.1328 -0.9491 -0.1833
   10CHTO   O77 3812   5.675   6.351   2.299 -0.2265 -0.3454 -0.2540
   10CHTO  C118 3813   5.539   6.395   2.294 -0.0764 -0.1346 -0.4019
   10CHTO  H222 3814   5.503   6.409   2.191  0.1955  1.8500 -0.2468
   10CHTO  C125 3815   5.454   6.287   2.368  0.3733  0.3308 -0.2910
   10CHTO   O84 3816   5.455   6.159   2.307  0.0099 -0.0500 -0.2370
   10CHTO  H205 3817   5.430   6.166   2.217  0.3137 -0.5636 -0.3637
   10CHTO  C114 3818   5.519   6.528   2.364  0.2124  0.5871  0.8805
   10CHTO  H218 3819   5.534   6.508   2.470  2.5340 -0.5158  0.3841
   10CHTO  C116 3820   5.619   6.636   2.316 -0.1657  0.6928  0.1245
   10CHTO  H220 3821   5.597   6.659   2.209 -0.8805 -1.3108 -0.1866
   10CHTO   O79 3822   5.601   6.752   2.403 -0.1824  0.1216 -0.0860
   10CHTO  H201 3823   5.639   6.745   2.489  3.3008 -0.0344 -1.5410
   10CHTO  C120 3824   5.766   6.575   2.321 -0.6560  0.0154 -0.0553
   10CHTO  H224 3825   5.789   6.559   2.429 -1.3532 -0.4174  0.0327
   10CHTO   N21 3826   5.863   6.681   2.277 -0.2023  0.8732  0.0027
   10CHTO  H211 3827   5.954   6.661   2.332 -1.1503  0.7906  1.5615
   10CHTO  H212 3828   5.889   6.666   2.173  2.9909 -2.2997  1.1301
   10CHTO   O75 3829   5.381   6.562   2.344 -0.5444 -0.5087  0.0671
   10CHTO  C112 3830   5.319   6.601   2.470 -0.3464  0.3661 -0.4768
   10CHTO  H216 3831   5.396   6.638   2.538  1.4741 -1.9039 -1.2349
   10CHTO   O73 3832   5.256   6.480   2.517 -0.7094  0.2458  0.6936
   10CHTO  C113 3833   5.193   6.490   2.648 -0.3447  0.6549  0.3229
   10CHTO  H217 3834   5.267   6.526   2.723  0.6352 -0.9699  0.1600
   10CHTO  C124 3835   5.143   6.350   2.694  0.1827  0.4589  1.0410
   10CHTO   O83 3836   5.256   6.265   2.739 -0.3466 -0.0780 -0.1698
   10CHTO  H204 3837   5.299   6.298   2.815  1.7938 -0.1939 -1.2808
   10CHTO  C109 3838   5.076   6.588   2.645 -0.2265  1.1813  0.4504
   10CHTO  H213 3839   5.000   6.545   2.578  1.4083 -1.1592  0.0255
   10CHTO  C110 3840   5.123   6.729   2.581 -0.3883 -0.0382 -0.1152
   10CHTO  H214 3841   5.202   6.774   2.642 -0.2390  1.2063 -1.2046
   10CHTO   O78 3842   5.008   6.822   2.582 -0.7252  0.4793  0.2202
   10CHTO  H200 3843   5.037   6.911   2.574  0.1413  0.4395  2.4272
   10CHTO  C111 3844   5.200   6.703   2.446 -0.3295 -0.5213 -0.1305
   10CHTO  H215 3845   5.125   6.660   2.377 -1.0702  2.8269 -1.5443
   10CHTO   N19 3846   5.251   6.828   2.381  0.4132 -0.0314  0.4214
   10CHTO  H207 3847   5.296   6.808   2.285 -2.8297 -1.9796 -0.7814
   10CHTO  H208 3848   5.179   6.909   2.386  1.6065  0.9100  3.3124
   10CHTO   O74 3849   5.023   6.597   2.781 -0.0212 -0.1134  0.9557
   10CHTO  C115 3850   4.879   6.600   2.806  0.1674 -0.5350  0.1648
   10CHTO  H219 3851   4.827   6.635   2.716  2.9182  0.6459 -1.0336
   10CHTO   O76 3852   4.814   6.446   2.821  0.2944  0.0344 -0.1116
   10CHTO  C122 3853   4.850   6.380   2.945 -0.1095  0.2835 -0.2696
   10CHTO  H226 3854   4.955   6.352   2.940  0.0615  0.9200 -0.3355
   10CHTO  C126 3855   4.781   6.248   2.961  0.2419 -0.5265  0.1363
   10CHTO   O85 3856   4.638   6.268   2.980 -0.4370 -0.1289  0.5377
   10CHTO  H206 3857   4.621   6.261   3.072  0.7239 -0.3199  0.7412
   10CHTO  C121 3858   4.828   6.471   3.073  0.4685  0.3763 -0.0258
   10CHTO  H225 3859   4.767   6.422   3.151  1.4156 -0.9235 -0.0746
   10CHTO   O81 3860   4.951   6.487   3.141  0.4121 -0.1658  0.7130
   10CHTO  H202 3861   4.944   6.561   3.198  0.5927  1.3910 -1.2702
   10CHTO  C119 3862   4.753   6.609   3.041 -0.7016 -0.5548  0.8348
   10CHTO  H223 3863   4.659   6.573   3.000 -1.0130  2.5611 -1.4176
   10CHTO  C117 3864   4.839   6.692   2.934 -0.0179 -0.3260 -0.0595
   10CHTO  H221 3865   4.932   6.734   2.973  0.7888 -2.5711  0.5105
   10CHTO   N20 3866   4.759   6.813   2.883 -0.3886 -0.1871 -0.4125
   10CHTO  H209 3867   4.724   6.785   2.785 -1.8467 -0.2849  0.1160
   10CHTO  H210 3868   4.675   6.830   2.950  1.0897  0.3020  1.3620
   10CHTO   O80 3869   4.706   6.688   3.165  0.7451 -0.1125 -0.5400
   10CHTO  C103 3870   4.538   6.688   3.201 -0.4590  1.1250  0.2012
   10CHTO  H190 3871   4.516   6.755   3.284  2.4863  0.4706  1.5576
   10CHTO  C101 3872   4.441   6.719   3.081  0.0743  0.7370 -0.4251
   10CHTO  H188 3873   4.468   6.664   2.990 -0.8706 -0.8263  0.2169
   10CHTO   O68 3874   4.462   6.868   3.032  0.7001  0.2712  0.4746
   10CHTO  H168 3875   4.455   6.925   3.107 -0.0844 -1.5648  1.8274
   10CHTO   C99 3876   4.295   6.695   3.124 -0.3465  0.0036  0.5566
   10CHTO  H186 3877   4.269   6.763   3.208  0.7983 -0.6768  1.4793
   10CHTO   N17 3878   4.196   6.724   3.009 -0.3890 -0.0095 -0.3270
   10CHTO  H174 3879   4.103   6.768   3.041  0.7868  1.6453  0.8584
   10CHTO  H175 3880   4.172   6.636   2.951 -1.3335 -0.1586  0.2820
   10CHTO   C97 3881   4.278   6.553   3.176  0.7091 -0.1136  0.6642
   10CHTO  H184 3882   4.299   6.486   3.091 -0.8649  1.3592 -0.9357
   10CHTO   O64 3883   4.364   6.527   3.286 -0.5096 -0.6596 -0.0487
   10CHTO  C104 3884   4.500   6.540   3.250 -0.2831  0.1089  0.4891
   10CHTO  H191 3885   4.530   6.469   3.173 -1.0817  1.2360 -0.8921
   10CHTO  C108 3886   4.588   6.502   3.372  0.0518 -0.0236  0.1024
   10CHTO   O71 3887   4.601   6.360   3.379  0.1372  0.1186  0.1564
   10CHTO  H171 3888   4.680   6.349   3.428  0.4186  1.9926  0.1721
   10CHTO   O62 3889   4.151   6.535   3.246 -0.1519 -0.2884  0.0609
   10CHTO   C91 3890   4.102   6.399   3.256 -0.1634  0.5617 -0.2911
   10CHTO  H178 3891   4.115   6.350   3.160  1.6349  1.1206 -0.3516
   10CHTO   C92 3892   3.938   6.419   3.284  0.3450 -0.6134 -0.0748
   10CHTO  H179 3893   3.899   6.483   3.204  1.8346 -1.1221 -1.2199
   10CHTO   O66 3894   3.891   6.286   3.248  0.2912 -0.7939 -0.3189
   10CHTO  H166 3895   3.819   6.275   3.189 -1.8890  2.7566  1.4931
   10CHTO   C93 3896   3.896   6.446   3.436  0.0193 -0.7547  0.7264
   10CHTO  H180 3897   3.788   6.427   3.442  0.3129 -2.3533  0.9341
   10CHTO   N16 3898   3.907   6.590   3.471 -0.1478 -0.8319 -0.1011
   10CHTO  H172 3899   3.927   6.602   3.577  2.5798  2.3732 -0.9021
   10CHTO  H173 3900   3.813   6.642   3.456  0.2347 -0.0523  0.1972
   10CHTO   C94 3901   3.979   6.353   3.527 -0.5578  0.3210  0.1314
   10CHTO  H181 3902   4.039   6.411   3.598  0.5652 -0.7836  0.1008
   10CHTO   O61 3903   4.067   6.261   3.465 -0.1873 -0.0032  0.2505
   10CHTO   C95 3904   4.164   6.302   3.369  0.5575  0.2976  0.3627
   10CHTO  H182 3905   4.238   6.362   3.422  0.1519 -0.1909  1.4999
   10CHTO  C106 3906   4.232   6.181   3.313 -0.0411  0.2243  0.7396
   10CHTO   O69 3907   4.342   6.215   3.220  0.1991  0.0850 -0.2423
   10CHTO  H169 3908   4.391   6.140   3.189  0.6018 -0.0037  0.6008
   10CHTO   O63 3909   3.873   6.260   3.617  0.5466 -0.4345  0.4454
   10CHTO   C96 3910   3.940   6.162   3.702  0.0026  0.1690  0.0985
   10CHTO  H183 3911   4.033   6.136   3.651  0.1994  0.7535  0.1592
   10CHTO   C98 3912   3.850   6.028   3.722 -0.2295  0.2231 -1.3953
   10CHTO  H185 3913   3.744   6.049   3.745 -0.0340 -0.8292  0.6302
   10CHTO   O67 3914   3.844   5.959   3.600  0.1975 -0.5093  0.3374
   10CHTO  H167 3915   3.825   6.015   3.527  0.6721 -2.7261 -1.5174
   10CHTO  C102 3916   3.901   5.944   3.842 -0.0289  0.3765 -0.6129
   10CHTO  H189 3917   4.007   5.924   3.818 -0.2242  0.4564 -1.5787
   10CHTO   N18 3918   3.835   5.813   3.872  0.6490  0.4127  0.3766
   10CHTO  H176 3919   3.899   5.748   3.930 -0.9925 -0.1372  1.6281
   10CHTO  H177 3920   3.739   5.814   3.922  0.4039  2.1035 -0.1077
   10CHTO  C105 3921   3.902   6.033   3.973 -0.0038 -0.5526  0.0247
   10CHTO  H192 3922   3.818   6.006   4.036 -1.1147 -1.0668 -1.6480
   10CHTO   O65 3923   3.900   6.172   3.944 -0.1870 -0.1665 -0.2010
   10CHTO  C100 3924   3.975   6.228   3.837 -0.3293  0.4373  0.6965
   10CHTO  H187 3925   3.961   6.337   3.831  0.3324  0.5483  1.0586
   10CHTO  C107 3926   4.123   6.216   3.853 -0.4588  0.4294  0.5917
   10CHTO   O70 3927   4.194   6.295   3.751 -0.2969  0.0522  0.3618
   10CHTO  H170 3928   4.273   6.253   3.724 -1.0653 -1.0512 -0.2787
   10CHTO   O57 3929   4.041   5.980   4.064 -0.3587  0.5360  0.3580
   10CHTO   C85 3930   4.006   5.974   4.205 -0.3126 -0.2266 -0.6861
   10CHTO  H157 3931   3.907   5.927   4.218 -0.2350 -0.6919 -1.7626
   10CHTO   C83 3932   3.990   6.116   4.262  0.0165 -0.5647 -0.1140
   10CHTO  H155 3933   3.907   6.171   4.219  2.5513  2.9484 -0.8115
   10CHTO   O56 3934   4.107   6.202   4.225  0.4856  0.3780 -0.5585
   10CHTO  H135 3935   4.093   6.290   4.254  0.1743  0.3252 -0.5486
   10CHTO   C81 3936   3.965   6.102   4.410  0.4811 -0.0371  0.3005
   10CHTO  H153 3937   3.873   6.044   4.419 -0.6089  1.1698 -2.6511
   10CHTO   N14 3938   3.929   6.224   4.487 -0.7549 -0.2276  0.5904
   10CHTO  H141 3939   3.822   6.236   4.488 -0.9966 -2.2272 -0.1810
   10CHTO  H142 3940   3.969   6.238   4.585  1.6956 -0.6062 -0.3356
   10CHTO   C79 3941   4.078   6.020   4.483 -0.2287 -0.5495 -1.0263
   10CHTO  H151 3942   4.047   6.002   4.586  0.8595  1.4651 -0.3139
   10CHTO   O52 3943   4.102   5.886   4.425 -0.1489 -0.2605  0.1730
   10CHTO   C86 3944   4.118   5.892   4.284 -0.3847  0.0069 -0.9588
   10CHTO  H158 3945   4.215   5.942   4.262 -0.2430 -0.0831 -0.5452
   10CHTO   C90 3946   4.132   5.746   4.235  0.6184  0.0600  0.4658
   10CHTO   O60 3947   4.248   5.689   4.292 -0.3777 -0.1009 -1.0417
   10CHTO  H138 3948   4.250   5.599   4.265  2.4249  0.1146 -1.6956
   10CHTO   O50 3949   4.207   6.094   4.493 -0.0872  0.2138  0.4051
   10CHTO   C73 3950   4.314   6.036   4.570 -0.1837 -0.1665 -0.4121
   10CHTO  H145 3951   4.323   5.927   4.567  0.0103 -0.1584 -0.1231
   10CHTO   C74 3952   4.300   6.074   4.722  0.2771  0.6457 -0.2546
   10CHTO  H146 3953   4.207   6.030   4.761 -0.9412  0.3213 -3.3936
   10CHTO   O54 3954   4.409   6.010   4.788 -0.1101  0.9609 -0.2586
   10CHTO  H133 3955   4.375   6.005   4.875 -0.0294  1.3860 -0.1982
   10CHTO   C75 3956   4.304   6.228   4.736  0.2868 -0.6969  0.2020
   10CHTO  H147 3957   4.220   6.267   4.678 -1.1226  0.0057  2.6301
   10CHTO   N13 3958   4.282   6.277   4.877 -0.0971  0.8585  0.4339
   10CHTO  H139 3959   4.381   6.303   4.914 -0.6019  0.7178  1.9188
   10CHTO  H140 3960   4.227   6.370   4.881  0.9441  1.4499  1.4708
   10CHTO   C76 3961   4.434   6.277   4.668  0.3855 -0.1181  0.0775
   10CHTO  H148 3962   4.520   6.233   4.718 -0.1336 -2.9341 -1.4143
   10CHTO   O49 3963   4.440   6.243   4.530  0.1076  0.1981  0.4894
   10CHTO   C77 3964   4.447   6.099   4.514  0.3133 -0.4902  0.6368
   10CHTO  H149 3965   4.531   6.048   4.562  0.9367 -0.9275 -0.8617
   10CHTO   C88 3966   4.461   6.079   4.363  0.0410  0.2600  0.0856
   10CHTO   O58 3967   4.445   5.946   4.325  0.4537  0.6215  0.1854
   10CHTO  H136 3968   4.360   5.922   4.292  1.4031  0.0197 -1.9080
   10CHTO   O51 3969   4.446   6.454   4.671 -0.1532  0.6426  0.1254
   10CHTO   C78 3970   4.582   6.527   4.714 -0.0266 -0.3036 -1.1130
   10CHTO  H150 3971   4.665   6.470   4.668  1.1828 -0.5170  1.2401
   10CHTO   C80 3972   4.598   6.520   4.869  0.5381 -0.1738 -0.5004
   10CHTO  H152 3973   4.511   6.571   4.915  2.2899  1.2164  1.3197
   10CHTO   O55 3974   4.607   6.379   4.900  0.1779  0.5755  0.2707
   10CHTO  H134 3975   4.539   6.355   4.960  0.1862  1.7207  0.7581
   10CHTO   C84 3976   4.721   6.599   4.916  0.2652 -0.5093  0.4289
   10CHTO  H156 3977   4.813   6.558   4.875  1.2204  2.0705 -0.1089
   10CHTO   N15 3978   4.746   6.606   5.062  0.2811 -0.7195 -0.3883
   10CHTO  H143 3979   4.673   6.670   5.107  0.7847 -0.5026  0.1164
   10CHTO  H144 3980   4.842   6.644   5.089  0.2739 -0.2396 -1.0343
   10CHTO   C87 3981   4.729   6.746   4.867  0.2508 -0.2506 -0.0937
   10CHTO  H159 3982   4.654   6.804   4.920  0.6279  0.0771  0.0859
   10CHTO   O53 3983   4.695   6.739   4.687 -0.4920  0.1816  0.4550
   10CHTO   C82 3984   4.571   6.668   4.668  0.9931  0.0763  0.2920
   10CHTO  H154 3985   4.495   6.725   4.721 -0.2676  0.3824 -1.7611
   10CHTO   C89 3986   4.533   6.672   4.517  0.4800 -0.1877 -0.3861
   10CHTO   O59 3987   4.485   6.811   4.487  0.1161 -0.2505 -0.0535
   10CHTO  H137 3988   4.402   6.810   4.443 -1.2255  1.8495  2.2899
   10CHTO   O45 3989   4.862   6.815   4.871 -0.3049  0.4121  0.5214
   10CHTO   C67 3990   4.866   6.955   4.834 -0.5018  1.1422  0.0269
   10CHTO  H124 3991   4.812   6.966   4.740 -3.6416 -1.0325  1.4912
   10CHTO   C65 3992   4.800   7.045   4.936  0.6662  0.0848 -0.0743
   10CHTO  H122 3993   4.778   6.982   5.022  0.4663  2.2030  1.4346
   10CHTO   O44 3994   4.670   7.070   4.878  0.2848 -0.3653 -0.1784
   10CHTO  H102 3995   4.622   7.124   4.937  1.5116 -1.0696  1.4994
   10CHTO   C63 3996   4.885   7.163   4.991  1.0197  0.0496  0.4571
   10CHTO  H120 3997   4.966   7.111   5.043  0.3607 -0.7146  0.7172
   10CHTO   N11 3998   4.819   7.248   5.094  0.3167  0.5061 -0.1734
   10CHTO  H108 3999   4.759   7.184   5.155  0.5398 -0.0508 -0.5329
   10CHTO  H109 4000   4.889   7.315   5.138 -1.2663  2.3022 -0.3217
   10CHTO   C61 4001   4.947   7.242   4.873 -0.4947 -0.0238 -0.3491
   10CHTO  H118 4002   5.019   7.317   4.910  2.3433 -2.6015 -0.4450
   10CHTO   O40 4003   5.018   7.152   4.783 -0.5566 -0.4157 -0.3104
   10CHTO   C68 4004   5.009   7.008   4.807 -1.0598 -0.3689  0.3913
   10CHTO  H125 4005   5.072   6.985   4.896  1.0984 -1.5933 -1.4324
   10CHTO   C72 4006   5.070   6.950   4.682 -0.3310  0.1570  0.5388
   10CHTO   O48 4007   5.105   6.811   4.701 -0.0680  0.3899 -0.0941
   10CHTO  H105 4008   5.147   6.790   4.620 -1.1669 -0.4819 -0.4474
   10CHTO   O38 4009   4.834   7.298   4.795  0.4841  0.1749 -0.2204
   10CHTO   C55 4010   4.865   7.409   4.709 -0.6862  0.2450  0.8942
   10CHTO  H112 4011   4.783   7.411   4.635  1.4933  1.0172 -1.5655
   10CHTO   C56 4012   5.007   7.411   4.633  0.1199  0.1547  0.4714
   10CHTO  H113 4013   5.087   7.396   4.707  0.2698 -0.3786  0.2049
   10CHTO   O42 4014   5.017   7.300   4.543  0.4007  0.3242 -0.3865
   10CHTO  H100 4015   4.936   7.265   4.511  1.8199 -1.7017 -1.8985
   10CHTO   C57 4016   5.030   7.548   4.550  0.0936 -0.0207  0.4638
   10CHTO  H114 4017   4.976   7.563   4.457  0.5452  0.6962  0.3053
   10CHTO   N10 4018   5.171   7.576   4.507 -0.7688  0.0141 -0.0978
   10CHTO  H106 4019   5.187   7.553   4.403 -0.0707 -0.0454  0.0153
   10CHTO  H107 4020   5.208   7.675   4.528 -1.5989 -0.0344  1.7457
   10CHTO   C58 4021   4.988   7.667   4.638 -0.3100 -0.4816 -0.1595
   10CHTO  H115 4022   5.051   7.672   4.730 -1.7908 -0.2130  0.8565
   10CHTO   O37 4023   4.855   7.648   4.694 -0.1287 -0.0187 -0.0746
   10CHTO   C59 4024   4.850   7.543   4.793 -0.0766 -0.6208  0.2291
   10CHTO  H116 4025   4.933   7.548   4.863  1.1844 -1.1812 -1.1953
   10CHTO   C70 4026   4.715   7.549   4.863  0.1124  0.2795 -0.0122
   10CHTO   O46 4027   4.729   7.636   4.975 -0.2205  0.0676 -0.4381
   10CHTO  H103 4028   4.681   7.606   5.049 -0.1382  1.7424  0.3117
   10CHTO   O39 4029   4.974   7.804   4.562 -0.5250  0.0889  0.0030
   10CHTO   C60 4030   4.984   7.927   4.639  0.1772 -0.4000  0.2819
   10CHTO  H117 4031   4.927   7.914   4.731  2.0843 -1.2429  1.3769
   10CHTO   C62 4032   5.131   7.956   4.687 -1.0924  0.4049  0.3345
   10CHTO  H119 4033   5.148   7.869   4.754 -2.8702  0.3908  0.7942
   10CHTO   O43 4034   5.228   7.963   4.578 -0.3909 -0.2799  0.1235
   10CHTO  H101 4035   5.246   7.872   4.565 -1.3240 -0.4878  0.2890
   10CHTO   C66 4036   5.140   8.094   4.772 -0.0563  0.6377  0.0480
   10CHTO  H123 4037   5.067   8.090   4.852  0.8703  0.9626  0.9201
   10CHTO   N12 4038   5.267   8.123   4.837 -0.3175 -0.1351 -0.4003
   10CHTO  H110 4039   5.353   8.124   4.772  0.8501  3.0453  1.1079
   10CHTO  H111 4040   5.279   8.070   4.930 -2.4744  0.3750  0.2030
   10CHTO   C69 4041   5.084   8.213   4.687 -0.0295 -0.0500 -0.4777
   10CHTO  H126 4042   5.157   8.223   4.604  0.5867 -0.3482  0.0237
   10CHTO   O41 4043   4.945   8.186   4.645  0.3065 -0.2158 -0.0659
   10CHTO   C64 4044   4.925   8.048   4.554 -0.6377 -0.1624  0.4188
   10CHTO  H121 4045   4.980   8.059   4.458 -0.3584 -0.4945  0.5387
   10CHTO   C71 4046   4.771   8.042   4.534 -0.1872  0.0399 -0.0004
   10CHTO   O47 4047   4.701   8.041   4.658 -0.2828 -0.2655 -0.4011
   10CHTO  H104 4048   4.760   8.059   4.728  0.5078 -1.4754 -0.7479
   10CHTO   O34 4049   5.075   8.356   4.766 -0.7087 -0.0616  0.1062
   10CHTO   C49 4050   5.138   8.484   4.729  0.6858 -0.5482 -0.1630
   10CHTO   H91 4051   5.245   8.467   4.737  1.0667  1.6341 -0.3063
   10CHTO   C47 4052   5.101   8.594   4.837  0.0159  0.4963  0.3748
   10CHTO   H89 4053   5.160   8.686   4.818 -1.4199  1.3820  0.1522
   10CHTO   O33 4054   5.134   8.548   4.977  0.0104 -0.0388  0.1034
   10CHTO   H70 4055   5.206   8.600   5.008  1.2899 -1.3636 -0.5572
   10CHTO   C45 4056   4.937   8.620   4.821 -0.4511 -0.3807 -0.2552
   10CHTO   H87 4057   4.890   8.520   4.828  0.1099 -0.5905  0.5684
   10CHTO    N8 4058   4.876   8.710   4.930  0.3325  0.3052 -0.0780
   10CHTO   H75 4059   4.770   8.698   4.948  0.4402 -0.2812  0.1829
   10CHTO   H76 4060   4.903   8.814   4.924 -2.7492  1.1424 -0.1789
   10CHTO   C43 4061   4.904   8.678   4.669 -0.1661  0.3604 -0.9012
   10CHTO   H85 4062   4.796   8.680   4.673 -0.1506  0.5453 -0.4944
   10CHTO   O29 4063   4.953   8.576   4.578  0.0582 -0.2803  0.4618
   10CHTO   C50 4064   5.091   8.532   4.592  0.2303  0.3413 -0.4185
   10CHTO   H92 4065   5.095   8.445   4.525  1.2746  1.6252 -2.0796
   10CHTO   C54 4066   5.198   8.621   4.521  0.0443  0.0672  0.1330
   10CHTO   O36 4067   5.328   8.561   4.517  0.0023 -0.0259 -0.2412
   10CHTO   H72 4068   5.333   8.476   4.557  1.3454  0.2960  0.3051
   10CHTO   O27 4069   4.942   8.811   4.637 -0.3479  0.0924  0.2440
   10CHTO   C37 4070   4.977   8.935   4.565  0.1645  0.5646  0.1027
   10CHTO   H79 4071   5.082   8.931   4.533 -0.8829 -1.8733 -3.2679
   10CHTO   C38 4072   4.883   8.967   4.442 -0.2336 -0.1067  0.0233
   10CHTO   H80 4073   4.778   8.959   4.476 -0.5374  1.1647 -0.5788
   10CHTO   O31 4074   4.894   8.855   4.350 -0.2085  0.4965 -0.3245
   10CHTO   H68 4075   4.987   8.840   4.353  0.1828  2.5548 -0.9361
   10CHTO   C39 4076   4.920   9.107   4.378 -0.2037 -0.3051 -0.2247
   10CHTO   H81 4077   5.023   9.089   4.347  0.5811  2.5825  0.5551
   10CHTO    N7 4078   4.839   9.133   4.261  0.1110 -0.1910  0.1480
   10CHTO   H73 4079   4.781   9.224   4.263 -1.2498 -1.0226  0.1013
   10CHTO   H74 4080   4.906   9.135   4.177  0.1567 -1.0610  0.1554
   10CHTO   C40 4081   4.911   9.219   4.490 -0.1134  0.5588 -0.6194
   10CHTO   H82 4082   4.809   9.228   4.526  0.1893  2.4680 -0.2069
   10CHTO   O26 4083   4.998   9.171   4.592 -0.2157 -0.1850 -0.7026
   10CHTO   C41 4084   4.952   9.050   4.664  0.3795 -0.2556  0.4706
   10CHTO   H83 4085   4.845   9.053   4.687  0.3130  2.4184 -0.0192
   10CHTO   C52 4086   5.030   9.032   4.800  0.0925 -0.4542 -0.4260
   10CHTO   O35 4087   5.022   9.165   4.876 -0.0183 -0.1329  0.1212
   10CHTO   H71 4088   5.093   9.224   4.861  0.1548 -0.3926 -0.0896
   10CHTO   O28 4089   4.968   9.342   4.446  0.4447 -0.1493 -0.3318
   10CHTO   C42 4090   4.915   9.478   4.489  0.2978  0.0660  0.0979
   10CHTO   H84 4091   4.860   9.453   4.580 -1.3454  2.1692 -0.2780
   10CHTO   C44 4092   4.815   9.535   4.394  0.3734  0.3319  0.2954
   10CHTO   H86 4093   4.852   9.536   4.291  0.9802  1.7892  0.5267
   10CHTO   O32 4094   4.707   9.440   4.400 -0.5979 -0.6307  0.1532
   10CHTO   H69 4095   4.646   9.442   4.329 -0.6589 -0.3169  0.2135
   10CHTO   C48 4096   4.769   9.683   4.429  0.7992  0.6127  0.1405
   10CHTO   H90 4097   4.693   9.670   4.507 -0.1882  1.5387 -0.6575
   10CHTO    N9 4098   4.705   9.742   4.304 -0.0806  0.0990 -0.2882
   10CHTO   H77 4099   4.610   9.693   4.283 -0.3371  0.8279 -0.8678
   10CHTO   H78 4100   4.681   9.845   4.324  1.0000  0.4903 -0.9466
   10CHTO   C51 4101   4.893   9.769   4.476  0.0315  0.1338 -0.2233
   10CHTO   H93 4102   4.958   9.774   4.388 -3.2674  1.0055 -2.6791
   10CHTO   O30 4103   4.954   9.708   4.585 -0.7448  0.3803 -0.0864
   10CHTO   C46 4104   5.028   9.574   4.529 -0.3102 -0.2423  0.6676
   10CHTO   H88 4105   5.090   9.605   4.445  1.3237 -1.6675  1.3302
   10CHTO   C53 4106   5.113   9.517   4.646  1.0442  0.3015 -0.6023
   10CHTO   O72 4107   5.196   9.618   4.712 -0.5795  0.2063  0.2389
   10CHTO  H199 4108   5.149   9.688   4.753 -1.6141  1.7027 -3.3283
   10CHTO   O22 4109   4.860   9.901   4.521  0.3379  0.3377  0.6989
   10CHTO   C31 4110   4.962  10.007   4.529  0.2540 -0.4150  0.5664
   10CHTO   H59 4111   4.912  10.087   4.587  1.4548  0.4271  0.4611
   10CHTO   C29 4112   5.090   9.972   4.608  0.1097 -0.6084  0.2758
   10CHTO   H57 4113   5.127   9.880   4.561  2.5988 -0.9683  2.7912
   10CHTO   O21 4114   5.047   9.935   4.740 -0.1778  0.6943 -0.4526
   10CHTO   H37 4115   4.992   9.859   4.745  0.7391 -0.1898 -2.6894
   10CHTO   C27 4116   5.209  10.082   4.608  0.1979  0.7769 -0.3270
   10CHTO   H55 4117   5.172  10.165   4.669 -0.3834  1.0165 -0.9957
   10CHTO    N5 4118   5.328  10.024   4.674  0.0140 -0.1592 -0.0047
   10CHTO   H43 4119   5.382   9.958   4.608  0.6484  0.6644 -0.3037
   10CHTO   H44 4120   5.381  10.114   4.700 -1.8646  0.8176  0.6014
   10CHTO   C25 4121   5.226  10.133   4.460  0.0521 -0.1268  0.4899
   10CHTO   H53 4122   5.277  10.055   4.401  0.9907  1.4809 -0.8684
   10CHTO   O17 4123   5.097  10.167   4.387 -0.1594  0.2195 -0.7059
   10CHTO   C32 4124   4.997  10.067   4.389  0.1098 -0.7698  0.0834
   10CHTO   H60 4125   5.033   9.983   4.329  1.3650 -0.9267  1.0297
   10CHTO   C36 4126   4.870  10.125   4.327  0.2500 -0.2783 -0.2252
   10CHTO   O25 4127   4.815  10.226   4.410  0.2667  0.0370  0.7699
   10CHTO   H40 4128   4.735  10.257   4.372  1.2440  1.2321 -0.3236
   10CHTO   O15 4129   5.298  10.246   4.465  0.1151  0.3611  0.4606
   10CHTO   C19 4130   5.316  10.350   4.364 -0.6564  0.3588 -0.0702
   10CHTO   H47 4131   5.254  10.322   4.277  0.0099 -1.0968 -0.1008
   10CHTO   C20 4132   5.268  10.491   4.409  0.5989  0.2880  1.1130
   10CHTO   H48 4133   5.313  10.524   4.504 -0.0935 -0.4045  1.6822
   10CHTO   O19 4134   5.130  10.482   4.436  0.4786  0.5418 -0.1209
   10CHTO   H35 4135   5.103  10.425   4.506  0.8283 -0.2415 -0.6192
   10CHTO   C21 4136   5.295  10.602   4.301 -0.1631  0.4838  0.4095
   10CHTO   H49 4137   5.229  10.581   4.216  0.3420 -0.2035  0.1831
   10CHTO    N4 4138   5.271  10.740   4.350  0.0669  0.2588 -0.2451
   10CHTO   H41 4139   5.337  10.769   4.431 -2.5887 -1.3271  2.5770
   10CHTO   H42 4140   5.282  10.809   4.268 -1.5084 -1.3219 -1.8202
   10CHTO   C22 4141   5.442  10.588   4.239 -0.4733 -0.4400  0.4231
   10CHTO   H50 4142   5.516  10.629   4.309  0.1869 -0.6441 -0.1559
   10CHTO   O14 4143   5.476  10.450   4.198  0.7655  0.3026 -0.4121
   10CHTO   C23 4144   5.463  10.348   4.306 -0.0428 -0.5295  0.2427
   10CHTO   H51 4145   5.538  10.354   4.386  3.0948 -2.0919 -2.4790
   10CHTO   C34 4146   5.502  10.213   4.247 -0.4754  0.5659  0.0384
   10CHTO   O23 4147   5.554  10.121   4.347 -0.1836 -0.4745 -0.1255
   10CHTO   H38 4148   5.647  10.123   4.339 -0.0125 -2.3970  1.0048
   10CHTO   O16 4149   5.452  10.656   4.121 -0.1783 -0.9252  0.8531
   10CHTO   C24 4150   5.586  10.729   4.095  0.2584  0.0363 -0.2818
   10CHTO   H52 4151   5.660  10.711   4.173  1.5954 -0.6472 -1.6730
   10CHTO   C26 4152   5.545  10.881   4.090  0.2822 -0.4046  0.5075
   10CHTO   H54 4153   5.463  10.894   4.016  0.2390  0.5421  0.7121
   10CHTO   O20 4154   5.502  10.918   4.224 -0.5130  0.5240  0.1141
   10CHTO   H36 4155   5.577  10.928   4.279  0.3731 -0.5434 -0.8667
   10CHTO   C30 4156   5.663  10.970   4.042 -0.2565  0.2979  0.2874
   10CHTO   H58 4157   5.732  10.978   4.128 -0.2094  3.8363 -0.0244
   10CHTO    N6 4158   5.623  11.107   4.017  0.6530 -0.2942 -0.2685
   10CHTO   H45 4159   5.615  11.117   3.910  1.2936 -1.3053 -0.4187
   10CHTO   H46 4160   5.528  11.124   4.063  0.9971  1.7929 -0.2813
   10CHTO   C33 4161   5.748  10.904   3.929 -0.7826 -0.0869  0.2678
   10CHTO   H61 4162   5.699  10.916   3.831  1.8303 -0.9496 -1.1880
   10CHTO   O18 4163   5.761  10.765   3.962  0.0877 -0.3371  0.5448
   10CHTO   C28 4164   5.649  10.683   3.965  0.0362 -0.4574  0.3435
   10CHTO   H56 4165   5.585  10.711   3.881 -0.2545 -0.5409  0.5347
   10CHTO   C35 4166   5.692  10.530   3.961 -0.1758 -0.8017 -0.0587
   10CHTO   O24 4167   5.732  10.505   3.830  0.0465  0.4052  0.4057
   10CHTO   H39 4168   5.826  10.498   3.831 -0.1644 -4.0213  0.6989
   10CHTO    O9 4169   5.874  10.967   3.911 -0.6905 -0.4399 -0.2057
   10CHTO   C13 4170   5.950  10.919   3.754  0.2163 -0.6445  0.9219
   10CHTO   H26 4171   5.892  10.963   3.670  0.2696 -2.5952 -0.1642
   10CHTO   C11 4172   5.965  10.765   3.739  0.8400 -0.3655 -0.1332
   10CHTO   H24 4173   5.862  10.730   3.725  1.1122 -0.4934 -1.9569
   10CHTO    O8 4174   6.020  10.705   3.854  0.3243  0.8466  0.5289
   10CHTO    H3 4175   6.009  10.612   3.852 -4.5830  1.2724 -0.7912
   10CHTO    C9 4176   6.049  10.752   3.609  0.3122  0.2853 -0.5433
   10CHTO   H22 4177   6.002  10.815   3.532 -1.2384  0.9971  0.9418
   10CHTO    N2 4178   6.048  10.612   3.553  0.4824  0.3946  0.1838
   10CHTO   H10 4179   5.960  10.604   3.490  2.2460 -0.6344 -2.2338
   10CHTO   H11 4180   6.133  10.591   3.491 -0.0580 -1.4232  0.0067
   10CHTO    C7 4181   6.196  10.811   3.624 -0.1182  0.1535  0.4034
   10CHTO   H20 4182   6.246  10.793   3.526  0.7390  0.2267  0.8297
   10CHTO    O4 4183   6.184  10.951   3.645  0.0958 -0.4342  0.2071
   10CHTO   C14 4184   6.090  11.001   3.740  0.9453 -0.1785  0.7426
   10CHTO   H27 4185   6.068  11.103   3.702 -1.6250 -1.6448 -1.9115
   10CHTO   C18 4186   6.154  11.022   3.880 -0.2092 -0.8243 -0.5042
   10CHTO   O13 4187   6.212  11.157   3.895 -0.4556 -0.4028 -0.3922
   10CHTO    H7 4188   6.205  11.183   3.985 -0.6984  1.7440 -1.0076
   10CHTO    O2 4189   6.282  10.746   3.729  0.0632 -0.3708  0.3515
   10CHTO    C1 4190   6.428  10.723   3.707  0.1341 -0.1424 -0.0180
   10CHTO   H14 4191   6.480  10.777   3.789  1.3611  1.6898 -1.9465
   10CHTO    C2 4192   6.496  10.776   3.576  0.6792 -0.0011 -0.4554
   10CHTO   H15 4193   6.453  10.717   3.494  1.6415 -1.8813  0.3659
   10CHTO    O6 4194   6.474  10.915   3.546 -0.3691  0.0450  0.6231
   10CHTO    H1 4195   6.497  10.972   3.618  3.5058 -1.0716  0.3672
   10CHTO    C3 4196   6.653  10.740   3.576 -0.8011 -0.2933  0.1233
   10CHTO   H16 4197   6.707  10.805   3.647 -0.4548  0.9324 -1.2474
   10CHTO    N1 4198   6.731  10.759   3.449  0.2963 -0.1502 -0.1763
   10CHTO    H8 4199   6.707  10.671   3.392  2.1310 -0.6032 -0.2820
   10CHTO    H9 4200   6.837  10.771   3.468  0.2934  2.1417 -1.4652
   10CHTO    C4 4201   6.677  10.591   3.631 -0.5455 -0.2706  0.5373
   10CHTO   H17 4202   6.650  10.524   3.549 -1.5001  0.6722  0.0827
   10CHTO    O1 4203   6.606  10.566   3.756  0.2037  0.5044  0.1916
   10CHTO    C5 4204   6.459  10.572   3.730 -0.5227  0.3909  0.3474
   10CHTO   H18 4205   6.439  10.508   3.644  1.5679  1.1643 -0.7503
   10CHTO   C16 4206   6.385  10.507   3.856 -0.4162  0.3252 -0.6358
   10CHTO   O11 4207   6.262  10.439   3.828  0.3173 -0.1436 -0.0536
   10CHTO    H5 4208   6.288  10.350   3.818  2.1753  0.6073 -2.6633
   10CHTO    O3 4209   6.816  10.571   3.663  0.1067  0.1395 -0.2018
   10CHTO    C6 4210   6.863  10.432   3.666 -0.3439  0.7914 -0.4991
   10CHTO   H19 4211   6.777  10.364   3.663 -0.5836  0.9587  1.5218
   10CHTO    C8 4212   6.951  10.397   3.541  0.0464 -0.2188 -0.3288
   10CHTO   H21 4213   7.034  10.468   3.536 -0.1683 -0.1205 -2.9475
   10CHTO    O7 4214   6.863  10.419   3.427 -0.4620  0.3459 -0.2133
   10CHTO    H2 4215   6.899  10.479   3.364 -0.1831  0.8767  0.4411
   10CHTO   C12 4216   7.010  10.250   3.540  0.5645  0.4806 -0.4266
   10CHTO   H25 4217   6.924  10.181   3.524  0.1964  0.7443  0.4008
   10CHTO    N3 4218   7.102  10.237   3.425 -0.1208 -0.2682 -0.8152
   10CHTO   H12 4219   7.047  10.256   3.334  0.0418  0.5180 -0.7472
   10CHTO   H13 4220   7.187  10.300   3.447 -0.0677 -0.5410 -0.2375
   10CHTO   C15 4221   7.076  10.220   3.683  0.1201  0.5185  0.8175
   10CHTO   H28 4222   7.176  10.262   3.692 -0.1724  2.3270 -3.1117
   10CHTO   O10 4223   7.097  10.071   3.706 -0.0210  0.1465 -0.2296
   10CHTO    H4 4224   7.189  10.055   3.699  0.0448 -0.4669  1.6374
   10CHTO    O5 4225   6.985  10.258   3.786  0.3105 -0.6004  0.0739
   10CHTO   C10 4226   6.944  10.397   3.797 -0.1198  0.4486  0.1565
   10CHTO   H23 4227   7.034  10.455   3.819 -1.3603  1.5968  2.2981
   10CHTO   C17 4228   6.845  10.394   3.919 -0.2493 -0.5785 -0.0924
   10CHTO   O12 4229   6.716  10.336   3.896 -0.5484  0.0536  0.4476
   10CHTO    H6 4230   6.728  10.248   3.866  0.3831  1.0169 -2.1909
   11CHTO  H203 4231   8.235   5.168   0.353 -0.4248 -2.2122  0.6168
   11CHTO   O82 4232   8.150   5.202   0.369  0.3054  0.1276 -0.3070
   11CHTO  C123 4233   8.154   5.341   0.368 -0.1518  1.1259  0.3978
   11CHTO  H227 4234   8.206   5.374   0.276 -1.8325  1.3419 -0.4889
   11CHTO   O77 4235   8.014   5.374   0.348  0.0342  0.8220  0.4303
   11CHTO  C118 4236   7.979   5.508   0.341  0.8237 -0.7089  0.1379
   11CHTO  H222 4237   8.031   5.549   0.253  1.5701 -1.5738  0.1755
   11CHTO  C125 4238   7.822   5.510   0.306 -0.1950 -0.6848  0.0912
   11CHTO   O84 4239   7.740   5.434   0.399  0.4488  0.2680 -0.0950
   11CHTO  H205 4240   7.774   5.348   0.418  1.0041  0.2544 -1.1447
   11CHTO  C114 4241   8.013   5.581   0.474  0.3161 -0.1176  0.6605
   11CHTO  H218 4242   7.959   5.533   0.556  1.2802  0.4820  1.6600
   11CHTO  C116 4243   8.166   5.567   0.505  0.6618 -0.2569 -0.0076
   11CHTO  H220 4244   8.217   5.624   0.424 -1.4317  3.2574  1.0594
   11CHTO   O79 4245   8.198   5.633   0.630 -0.0191 -0.2692 -0.9110
   11CHTO  H201 4246   8.290   5.647   0.643 -0.3130  1.9241 -1.0589
   11CHTO  C120 4247   8.213   5.414   0.494  0.0639  0.4540 -0.5315
   11CHTO  H224 4248   8.177   5.374   0.591  0.5907  2.4216  0.5099
   11CHTO   N21 4249   8.357   5.400   0.497  0.3867 -0.1086  0.1682
   11CHTO  H211 4250   8.382   5.391   0.602  0.8460 -2.7983 -0.1287
   11CHTO  H212 4251   8.398   5.318   0.439 -1.3478 -0.9723  0.1297
   11CHTO   O75 4252   7.966   5.716   0.452 -0.2111  0.0593  0.0990
   11CHTO  C112 4253   7.884   5.783   0.595 -0.2686  0.0018  0.4429
   11CHTO  H216 4254   7.929   5.744   0.688 -0.6964 -1.1917  0.1545
   11CHTO   O73 4255   7.746   5.749   0.585  0.0043  0.2267  0.1753
   11CHTO  C113 4256   7.650   5.818   0.669  0.0094  0.1006 -0.1918
   11CHTO  H217 4257   7.661   5.796   0.778  1.1081 -2.6360 -0.8128
   11CHTO  C124 4258   7.509   5.758   0.630 -0.3132 -0.0774  0.5024
   11CHTO   O83 4259   7.488   5.622   0.673 -0.8722 -0.3384  0.4487
   11CHTO  H204 4260   7.435   5.622   0.750 -0.3645  0.2657  0.8009
   11CHTO  C109 4261   7.661   5.966   0.658  0.6575 -0.9217 -0.6995
   11CHTO  H213 4262   7.652   5.988   0.551  1.1168 -0.3204 -0.6156
   11CHTO  C110 4263   7.798   6.001   0.703 -0.5460 -0.3603  0.0096
   11CHTO  H214 4264   7.813   5.962   0.804 -1.9308 -0.3725  0.2204
   11CHTO   O78 4265   7.817   6.148   0.715 -0.3583  0.5139 -0.0212
   11CHTO  H200 4266   7.773   6.195   0.646 -0.2710  1.5017  0.5843
   11CHTO  C111 4267   7.900   5.938   0.604 -0.3169  0.5507 -0.6877
   11CHTO  H215 4268   7.883   5.974   0.502  2.8324  1.7036 -0.8521
   11CHTO   N19 4269   8.044   5.968   0.632 -0.0385  0.2044  0.1181
   11CHTO  H207 4270   8.105   5.996   0.546  0.7194  0.5032  0.7419
   11CHTO  H208 4271   8.058   6.042   0.709  2.1341 -0.9525  0.8734
   11CHTO   O74 4272   7.565   6.040   0.735 -0.0594 -0.3828 -0.0218
   11CHTO  C115 4273   7.482   6.138   0.656  0.7268 -0.6944  0.6623
   11CHTO  H219 4274   7.525   6.159   0.558 -1.6766 -0.9412 -0.4927
   11CHTO   O76 4275   7.335   6.071   0.615 -0.0675 -0.3364  0.6796
   11CHTO  C122 4276   7.239   6.056   0.719 -0.1596 -0.5100 -0.4301
   11CHTO  H226 4277   7.280   5.979   0.783  0.9193 -0.8593 -1.5166
   11CHTO  C126 4278   7.111   6.001   0.664  0.1881  0.4337 -0.6516
   11CHTO   O85 4279   7.006   5.986   0.767 -0.0936 -0.9829 -0.3860
   11CHTO  H206 4280   6.942   5.925   0.733 -1.2701 -0.4148  0.7883
   11CHTO  C121 4281   7.214   6.189   0.806  0.2865  0.3028  0.6983
   11CHTO  H225 4282   7.110   6.226   0.793  0.7120  1.1650 -0.3423
   11CHTO   O81 4283   7.228   6.150   0.947  0.1881 -0.3661 -0.8108
   11CHTO  H202 4284   7.189   6.204   1.012 -0.3768 -0.8998 -0.7013
   11CHTO  C119 4285   7.308   6.311   0.767 -0.0157  0.5650  0.7882
   11CHTO  H223 4286   7.268   6.339   0.670  1.1496  2.5336  0.8437
   11CHTO  C117 4287   7.458   6.269   0.745  0.9793  0.2843  0.5158
   11CHTO  H221 4288   7.514   6.253   0.837  0.1191 -1.5214  0.7274
   11CHTO   N20 4289   7.528   6.383   0.675  0.5109  0.7483  0.3208
   11CHTO  H209 4290   7.542   6.476   0.727  1.5448  0.5228  0.4650
   11CHTO  H210 4291   7.503   6.393   0.570 -0.6224  0.9888  0.6061
   11CHTO   O80 4292   7.277   6.466   0.852 -1.2296  0.2121  0.3182
   11CHTO  C103 4293   7.308   6.482   1.006 -0.5591 -0.3805 -0.2298
   11CHTO  H190 4294   7.295   6.387   1.058 -1.0674  0.7207  1.7341
   11CHTO  C101 4295   7.443   6.554   1.051 -0.5108  0.2009  0.3422
   11CHTO  H188 4296   7.468   6.634   0.981  3.8061  0.4441  2.0158
   11CHTO   O68 4297   7.553   6.436   1.062  0.0960  0.0612  0.0570
   11CHTO  H168 4298   7.517   6.353   1.088  2.6661 -1.1515 -0.0683
   11CHTO   C99 4299   7.441   6.628   1.191  0.2578  0.2818 -0.1727
   11CHTO  H186 4300   7.444   6.552   1.271 -2.1849 -0.1503 -0.4587
   11CHTO   N17 4301   7.559   6.723   1.213 -0.7354  0.4678  0.0349
   11CHTO  H174 4302   7.594   6.726   1.315  3.9754  2.9693 -1.5401
   11CHTO  H175 4303   7.636   6.705   1.140 -0.5958  0.5772  0.1563
   11CHTO   C97 4304   7.313   6.707   1.212 -0.3302 -0.4770 -0.2326
   11CHTO  H184 4305   7.312   6.795   1.146 -0.3332  0.9521  1.6410
   11CHTO   O64 4306   7.203   6.618   1.189 -0.0843  0.3410  0.3755
   11CHTO  C104 4307   7.187   6.579   1.051  0.1432 -0.3026  0.0775
   11CHTO  H191 4308   7.189   6.673   0.997 -1.4538 -0.0753  0.3770
   11CHTO  C108 4309   7.044   6.531   1.032 -0.1428  0.2148 -0.5879
   11CHTO   O71 4310   6.955   6.633   1.060 -0.2778 -0.8798 -0.6301
   11CHTO  H171 4311   6.912   6.621   1.143 -1.4160 -3.5349 -1.5288
   11CHTO   O62 4312   7.291   6.753   1.351 -0.0894 -0.7808  0.2328
   11CHTO   C91 4313   7.185   6.847   1.364  0.0855 -0.7378 -0.5212
   11CHTO  H178 4314   7.120   6.843   1.276  0.7106 -0.3982 -1.0019
   11CHTO   C92 4315   7.250   6.987   1.370  0.2694  0.3889  0.5511
   11CHTO  H179 4316   7.333   6.980   1.442 -0.3407 -0.4521  1.1888
   11CHTO   O66 4317   7.316   7.013   1.243 -0.0083 -0.0469 -0.5175
   11CHTO  H166 4318   7.255   7.040   1.176  0.4793 -1.5865 -1.6020
   11CHTO   C93 4319   7.144   7.105   1.413  0.1445  0.2504 -0.6325
   11CHTO  H180 4320   7.074   7.128   1.331  0.1606 -2.8750 -1.5833
   11CHTO   N16 4321   7.218   7.234   1.445  0.2137  0.6801  0.3415
   11CHTO  H172 4322   7.283   7.207   1.526 -0.5953 -0.5266  0.5993
   11CHTO  H173 4323   7.149   7.308   1.481 -0.1337  1.5524 -2.0074
   11CHTO   C94 4324   7.058   7.055   1.540 -0.0914  0.2727  0.6285
   11CHTO  H181 4325   7.122   7.025   1.624 -0.4830  0.8959  1.1520
   11CHTO   O61 4326   6.989   6.933   1.505 -0.3043  0.2020 -0.6452
   11CHTO   C95 4327   7.085   6.829   1.472  0.3555 -0.0454 -0.1171
   11CHTO  H182 4328   7.145   6.815   1.562 -0.2604  0.0672  0.3159
   11CHTO  C106 4329   6.988   6.701   1.458  0.2226 -0.5802 -0.0231
   11CHTO   O69 4330   7.075   6.589   1.471 -0.1871  0.1091  0.1169
   11CHTO  H169 4331   7.021   6.514   1.454  1.1616 -0.5377 -1.4683
   11CHTO   O63 4332   6.941   7.147   1.594 -0.2954 -0.2592 -0.3577
   11CHTO   C96 4333   6.959   7.161   1.745 -0.0920 -0.2909 -0.7924
   11CHTO  H183 4334   7.064   7.156   1.776 -0.8173  0.4813  1.8744
   11CHTO   C98 4335   6.887   7.055   1.830 -0.6496 -0.4375  0.5763
   11CHTO  H185 4336   6.778   7.074   1.828 -0.5653 -0.0295 -1.9194
   11CHTO   O67 4337   6.902   6.918   1.781 -0.4655  0.3156 -0.4384
   11CHTO  H167 4338   6.992   6.891   1.771 -0.7960 -0.2326 -1.9775
   11CHTO  C102 4339   6.935   7.067   1.981 -0.2816 -0.1479 -0.6885
   11CHTO  H189 4340   7.027   7.006   1.988  0.3515  0.5857 -2.3822
   11CHTO   N18 4341   6.840   7.009   2.084  0.1687  0.2660  0.1050
   11CHTO  H176 4342   6.876   7.031   2.183 -2.3494 -1.3002  1.4069
   11CHTO  H177 4343   6.841   6.903   2.063 -3.5014  0.0352  0.7951
   11CHTO  C105 4344   6.967   7.208   2.021  0.4616 -0.3062  0.3812
   11CHTO  H192 4345   6.941   7.230   2.124  1.8847 -1.1070  0.9168
   11CHTO   O65 4346   6.903   7.312   1.942 -0.1023  0.0005 -0.1243
   11CHTO  C100 4347   6.898   7.299   1.800 -0.3826 -0.0599  0.0904
   11CHTO  H187 4348   6.792   7.301   1.769 -0.5626 -2.2988  0.4828
   11CHTO  C107 4349   6.967   7.422   1.730  0.1172 -0.4543  0.3142
   11CHTO   O70 4350   6.983   7.423   1.587 -0.4115 -0.0014  0.2321
   11CHTO  H170 4351   6.966   7.340   1.547 -0.6400  1.1371 -2.0931
   11CHTO   O57 4352   7.121   7.218   2.001 -0.6444  0.1174  0.1913
   11CHTO   C85 4353   7.208   7.308   2.075  0.8964 -0.5480  0.4390
   11CHTO  H157 4354   7.152   7.344   2.164 -1.4145 -3.0585  0.0761
   11CHTO   C83 4355   7.240   7.432   1.981  0.0043 -0.3180 -0.1234
   11CHTO  H155 4356   7.146   7.486   1.976  0.1127 -0.1911 -0.8432
   11CHTO   O56 4357   7.285   7.388   1.851  0.0545  0.5721 -0.1999
   11CHTO  H135 4358   7.224   7.415   1.785  0.6246  0.2850 -0.8503
   11CHTO   C81 4359   7.343   7.528   2.047  0.1966  0.6281 -0.3683
   11CHTO  H153 4360   7.296   7.568   2.137 -0.0043  0.4275 -0.3817
   11CHTO   N14 4361   7.372   7.649   1.975  0.2505 -1.0310  0.0238
   11CHTO  H141 4362   7.474   7.674   1.956  0.0360 -1.0893 -1.2885
   11CHTO  H142 4363   7.319   7.658   1.882  0.5134 -0.7784 -0.1028
   11CHTO   C79 4364   7.472   7.454   2.097 -0.5836 -0.7427 -0.2267
   11CHTO  H151 4365   7.520   7.516   2.172 -1.0798  1.0073 -1.3243
   11CHTO   O52 4366   7.434   7.340   2.172  0.2290 -0.0014  0.4937
   11CHTO   C86 4367   7.344   7.242   2.112 -0.0159  0.4792 -0.7853
   11CHTO  H158 4368   7.395   7.211   2.018  1.4067 -0.7297  0.3614
   11CHTO   C90 4369   7.327   7.114   2.203 -0.2064 -0.3121  0.0448
   11CHTO   O60 4370   7.455   7.058   2.235 -0.5005 -0.5718 -0.6345
   11CHTO  H138 4371   7.507   7.041   2.158 -0.5018  0.3735 -0.8513
   11CHTO   O50 4372   7.554   7.413   1.986 -0.2224 -0.8947 -0.0787
   11CHTO   C73 4373   7.683   7.351   1.985 -0.6556  0.8906  0.8863
   11CHTO  H145 4374   7.673   7.253   2.036 -1.2127  0.1978 -0.5349
   11CHTO   C74 4375   7.783   7.434   2.056  0.0507  0.3660 -0.3247
   11CHTO  H146 4376   7.751   7.444   2.160 -0.2104  0.2784 -0.3950
   11CHTO   O54 4377   7.897   7.349   2.061 -0.6514  0.1496 -1.0153
   11CHTO  H133 4378   7.953   7.360   2.136 -0.8032  0.7223 -0.9832
   11CHTO   C75 4379   7.791   7.576   1.986  0.1762 -0.1522 -0.1810
   11CHTO  H147 4380   7.695   7.626   2.007  0.1817 -0.1028 -0.2738
   11CHTO   N13 4381   7.888   7.662   2.059  0.5971  0.1497  0.5753
   11CHTO  H139 4382   7.865   7.767   2.049  2.2368  0.3730 -1.2141
   11CHTO  H140 4383   7.985   7.651   2.012  0.7980  3.5814  0.0867
   11CHTO   C76 4384   7.811   7.555   1.831  0.9647  0.5914 -0.0109
   11CHTO  H148 4385   7.916   7.528   1.822  1.5941  1.3945  4.1319
   11CHTO   O49 4386   7.717   7.463   1.769 -0.5049  0.5645 -0.5779
   11CHTO   C77 4387   7.709   7.329   1.827  0.3440  0.4267  0.0928
   11CHTO  H149 4388   7.802   7.276   1.807  0.2155  0.4266 -0.5012
   11CHTO   C88 4389   7.593   7.249   1.755 -0.4436 -0.0484 -0.3896
   11CHTO   O58 4390   7.590   7.128   1.802 -0.1289  0.2067 -0.3615
   11CHTO  H136 4391   7.504   7.109   1.832 -0.0576 -0.4667 -0.5784
   11CHTO   O51 4392   7.778   7.702   1.761 -0.2172  0.2442 -0.0539
   11CHTO   C78 4393   7.914   7.760   1.681  0.2320 -0.7790 -0.3401
   11CHTO  H150 4394   8.009   7.705   1.697  1.7846  2.3120  1.3914
   11CHTO   C80 4395   7.941   7.907   1.711  0.2995 -0.5693 -0.1829
   11CHTO  H152 4396   7.850   7.970   1.702  2.0537  1.7725 -2.4131
   11CHTO   O55 4397   7.981   7.908   1.853  0.4702  0.7132 -0.0703
   11CHTO  H134 4398   7.993   7.996   1.886 -1.1608 -0.0670  2.7403
   11CHTO   C84 4399   8.058   7.966   1.620 -0.0691  0.2121  0.2787
   11CHTO  H156 4400   8.149   7.911   1.642 -0.3289 -1.9215 -3.4854
   11CHTO   N15 4401   8.084   8.114   1.659 -0.1313 -0.2097 -0.2147
   11CHTO  H143 4402   8.092   8.127   1.765  2.2237  2.2739 -0.6551
   11CHTO  H144 4403   8.170   8.156   1.612 -0.8708  1.8146  0.2135
   11CHTO   C87 4404   8.017   7.939   1.479  0.6419 -0.0480 -0.1527
   11CHTO  H159 4405   7.933   7.996   1.439  0.3567 -0.0179  0.4801
   11CHTO   O53 4406   7.985   7.784   1.458 -0.0843  0.0294  0.1333
   11CHTO   C82 4407   7.868   7.760   1.532 -0.4716  0.0089 -0.1399
   11CHTO  H154 4408   7.787   7.831   1.522  0.4755  1.1131 -0.0905
   11CHTO   C89 4409   7.815   7.626   1.478  0.1528 -0.0425 -0.3662
   11CHTO   O59 4410   7.907   7.518   1.501  0.0327 -0.0294 -0.3989
   11CHTO  H137 4411   7.919   7.493   1.590  0.2965 -1.2510 -0.7679
   11CHTO   O45 4412   8.145   7.956   1.369  0.3637 -0.3206 -0.3830
   11CHTO   C67 4413   8.111   7.946   1.232 -0.0849 -0.4361 -0.4947
   11CHTO  H124 4414   8.060   7.852   1.211  1.2997 -1.2986 -0.0152
   11CHTO   C65 4415   8.016   8.059   1.180  0.5224  0.0364 -0.4117
   11CHTO  H122 4416   8.016   8.135   1.257 -0.4650 -0.7751  0.3959
   11CHTO   O44 4417   7.879   8.005   1.182  0.3694  0.9879 -0.2662
   11CHTO  H102 4418   7.825   8.080   1.170 -0.9887 -0.0611 -0.8461
   11CHTO   C63 4419   8.063   8.129   1.046  0.1666 -0.1586 -0.0002
   11CHTO  H120 4420   8.151   8.189   1.070  0.2480 -0.1837 -0.2432
   11CHTO   N11 4421   7.970   8.240   1.008 -0.1283  0.2421  0.1076
   11CHTO  H108 4422   7.971   8.256   0.902  2.5107 -0.9193 -0.0829
   11CHTO  H109 4423   7.872   8.224   1.047 -0.6943  0.3777 -1.2226
   11CHTO   C61 4424   8.101   8.012   0.944  0.1324  0.8736 -0.4818
   11CHTO  H118 4425   8.139   8.054   0.850  0.9293  0.5165 -0.3205
   11CHTO   O40 4426   8.209   7.932   1.002 -0.2196 -0.0390 -1.1367
   11CHTO   C68 4427   8.239   7.945   1.145 -0.4869 -0.0013  0.1644
   11CHTO  H125 4428   8.293   8.040   1.163 -2.7472  1.3888 -0.1281
   11CHTO   C72 4429   8.343   7.847   1.162 -0.3135  0.7142 -0.3849
   11CHTO   O48 4430   8.434   7.868   1.263  0.1563 -0.5485 -0.0447
   11CHTO  H105 4431   8.493   7.937   1.239  1.1689 -1.4293 -0.1286
   11CHTO   O38 4432   7.985   7.925   0.917  0.7324 -0.5451 -0.3995
   11CHTO   C55 4433   7.978   7.850   0.797 -0.0587 -0.3754  0.5298
   11CHTO  H112 4434   8.077   7.859   0.750 -0.8987 -0.3606 -1.2947
   11CHTO   C56 4435   7.863   7.911   0.705 -0.3395 -0.2421 -0.0604
   11CHTO  H113 4436   7.780   7.932   0.773 -0.2130 -1.7712  0.5693
   11CHTO   O42 4437   7.906   8.044   0.661 -0.0119 -0.6215  0.1160
   11CHTO  H100 4438   7.998   8.058   0.670 -0.3163  0.3042  2.3482
   11CHTO   C57 4439   7.829   7.822   0.585 -0.9605 -0.0811  0.8246
   11CHTO  H114 4440   7.915   7.815   0.519 -0.8901 -3.9359  1.1977
   11CHTO   N10 4441   7.712   7.864   0.504 -0.5688 -0.1035  0.1313
   11CHTO  H106 4442   7.731   7.935   0.424 -0.9377  0.6643  0.7094
   11CHTO  H107 4443   7.637   7.908   0.568  0.9187  0.5424  1.4649
   11CHTO   C58 4444   7.803   7.681   0.643  0.2013  0.0693 -0.0844
   11CHTO  H115 4445   7.716   7.688   0.712 -1.0598 -0.2130 -1.6248
   11CHTO   O37 4446   7.921   7.639   0.709 -0.3404 -0.1164 -0.0708
   11CHTO   C59 4447   7.949   7.708   0.833  0.4002  0.4082  0.0290
   11CHTO  H116 4448   7.865   7.704   0.902 -0.3818 -0.5230 -0.9520
   11CHTO   C70 4449   8.065   7.633   0.899  0.0928  0.1353  0.3144
   11CHTO   O46 4450   8.113   7.679   1.027  0.7781  0.1068 -0.3789
   11CHTO  H103 4451   8.206   7.672   1.034  0.7602 -0.7584 -0.9037
   11CHTO   O39 4452   7.783   7.576   0.529 -0.3054  0.5193 -0.0845
   11CHTO   C60 4453   7.686   7.476   0.562  0.0231  0.4995  0.3393
   11CHTO  H117 4454   7.647   7.498   0.661 -2.4914  0.8473 -0.6774
   11CHTO   C62 4455   7.560   7.482   0.468 -0.2910  0.5257  0.2376
   11CHTO  H119 4456   7.511   7.580   0.481  2.7378  1.9299  1.4018
   11CHTO   O43 4457   7.609   7.484   0.335  0.2758 -0.2072 -0.6470
   11CHTO  H101 4458   7.660   7.407   0.321 -0.7437 -1.3787  1.8566
   11CHTO   C66 4459   7.457   7.371   0.504  0.4403  0.1200  0.0817
   11CHTO  H123 4460   7.428   7.385   0.608 -0.7803  2.4052 -0.5460
   11CHTO   N12 4461   7.331   7.380   0.433 -0.4992 -0.1538 -0.4402
   11CHTO  H110 4462   7.285   7.283   0.426 -0.8037 -0.0900  0.6319
   11CHTO  H111 4463   7.351   7.423   0.335  2.7574  0.1619  0.3120
   11CHTO   C69 4464   7.526   7.233   0.492  0.2211  0.1166 -0.0769
   11CHTO  H126 4465   7.562   7.225   0.387 -0.3279  0.5297 -0.3034
   11CHTO   O41 4466   7.649   7.226   0.597 -0.1706 -0.0629 -0.1837
   11CHTO   C64 4467   7.751   7.333   0.565 -0.4558  0.8601 -0.4915
   11CHTO  H121 4468   7.797   7.322   0.465 -0.3866 -1.7840 -0.2041
   11CHTO   C71 4469   7.863   7.316   0.673 -0.1146  1.1623 -0.1098
   11CHTO   O47 4470   7.806   7.349   0.800  0.2167 -0.4396  0.0631
   11CHTO  H104 4471   7.745   7.419   0.793  0.1521 -0.5366 -0.3512
   11CHTO   O34 4472   7.443   7.096   0.504 -0.2504  0.5181 -0.2749
   11CHTO   C49 4473   7.403   7.007   0.611  0.8993  0.3906  0.8140
   11CHTO   H91 4474   7.483   6.999   0.686  0.9187 -0.6651  0.6917
   11CHTO   C47 4475   7.374   6.870   0.549 -0.4380  0.8066  0.1526
   11CHTO   H89 4476   7.353   6.800   0.632  2.5867  0.3432  0.5757
   11CHTO   O33 4477   7.493   6.825   0.485  1.1539  0.4821  0.7111
   11CHTO   H70 4478   7.488   6.732   0.473  2.3350  0.5790 -0.7029
   11CHTO   C45 4479   7.247   6.897   0.457  0.2639 -0.5218  0.7484
   11CHTO   H87 4480   7.267   6.976   0.383  0.3396 -0.8319  0.4311
   11CHTO    N8 4481   7.213   6.772   0.382 -0.1054 -0.6074  0.3988
   11CHTO   H75 4482   7.294   6.725   0.328 -0.8188 -1.0438 -0.3005
   11CHTO   H76 4483   7.163   6.708   0.453 -1.6052  0.9698  0.8067
   11CHTO   C43 4484   7.119   6.956   0.546 -0.0254  0.2635 -0.2675
   11CHTO   H85 4485   7.042   6.986   0.474  0.0646  2.2524  0.4276
   11CHTO   O29 4486   7.156   7.066   0.625  0.4144 -0.2696  0.3562
   11CHTO   C50 4487   7.284   7.066   0.693  0.3754 -0.2757 -0.3028
   11CHTO   H92 4488   7.299   7.172   0.716 -0.6590 -0.4260  1.1274
   11CHTO   C54 4489   7.271   6.990   0.827  0.0554 -0.0892 -0.1952
   11CHTO   O36 4490   7.394   6.986   0.903  0.3938  0.0569  0.0467
   11CHTO   H72 4491   7.405   6.908   0.954 -0.3796 -1.1192 -1.5491
   11CHTO   O27 4492   7.055   6.854   0.621  0.2730 -0.0846 -0.4590
   11CHTO   C37 4493   6.959   6.787   0.700  0.8560 -0.3756 -0.6455
   11CHTO   H79 4494   6.995   6.763   0.801  0.5751 -0.4911 -0.5736
   11CHTO   C38 4495   6.827   6.872   0.720  0.1986 -0.4311 -0.1007
   11CHTO   H80 4496   6.790   6.917   0.627  0.7455  3.3764  1.4284
   11CHTO   O31 4497   6.868   6.986   0.797  0.0771  0.2521 -0.4714
   11CHTO   H68 4498   6.794   7.017   0.845 -0.8977  0.2064 -1.9037
   11CHTO   C39 4499   6.696   6.801   0.778  0.8152  0.2919 -0.3028
   11CHTO   H81 4500   6.714   6.793   0.885  3.4647 -1.7159 -0.8430
   11CHTO    N7 4501   6.562   6.867   0.753  0.2105  0.0508  0.0931
   11CHTO   H73 4502   6.533   6.887   0.651 -1.1985  1.2894  0.7201
   11CHTO   H74 4503   6.486   6.812   0.807  0.2453  0.8267  0.9404
   11CHTO   C40 4504   6.694   6.655   0.725 -0.2834  0.3845  0.4471
   11CHTO   H82 4505   6.656   6.653   0.623 -1.1392 -1.7825  0.7863
   11CHTO   O26 4506   6.823   6.588   0.736 -0.4192  0.3081  0.3468
   11CHTO   C41 4507   6.923   6.651   0.639  0.2257 -0.2694  0.0655
   11CHTO   H83 4508   6.876   6.674   0.542  1.2174  0.5730 -0.2384
   11CHTO   C52 4509   7.035   6.559   0.625  0.3771 -1.0688 -0.0326
   11CHTO   O35 4510   7.008   6.444   0.560  0.2553  0.4422  0.7689
   11CHTO   H71 4511   7.066   6.381   0.598 -0.2547 -0.4504  0.0647
   11CHTO   O28 4512   6.613   6.576   0.813 -0.4329 -0.0861 -0.1988
   11CHTO   C42 4513   6.548   6.453   0.766 -0.5958  0.3050  0.1034
   11CHTO   H84 4514   6.598   6.425   0.673 -1.1831 -0.4823  0.0298
   11CHTO   C44 4515   6.400   6.459   0.732 -0.7675 -0.3494  0.0867
   11CHTO   H86 4516   6.341   6.491   0.818  0.1547 -0.8249  0.9127
   11CHTO   O32 4517   6.386   6.568   0.643  0.4975  0.2376 -0.3883
   11CHTO   H69 4518   6.412   6.539   0.558  0.3525 -0.4140 -0.2110
   11CHTO   C48 4519   6.352   6.326   0.666  0.0093 -0.3671 -0.2769
   11CHTO   H90 4520   6.406   6.307   0.573  1.1101 -1.6703  0.6020
   11CHTO    N9 4521   6.207   6.339   0.639 -1.0008 -0.0717  0.1915
   11CHTO   H77 4522   6.172   6.265   0.568 -0.6618 -1.5473  1.5509
   11CHTO   H78 4523   6.169   6.435   0.606  0.3495  0.7526  1.0125
   11CHTO   C51 4524   6.376   6.206   0.757  0.7526  0.2181 -0.4583
   11CHTO   H93 4525   6.317   6.210   0.848 -1.2516 -2.0568 -1.6017
   11CHTO   O30 4526   6.516   6.200   0.785 -0.1660 -0.0315 -0.1926
   11CHTO   C46 4527   6.573   6.330   0.858 -0.2916  0.0545  0.1162
   11CHTO   H88 4528   6.520   6.354   0.950  4.1782  1.9598  2.3258
   11CHTO   C53 4529   6.722   6.301   0.882  0.3963  0.0593  1.0336
   11CHTO   O72 4530   6.766   6.379   0.991  0.8238 -0.5887 -0.1810
   11CHTO  H199 4531   6.857   6.363   1.009  1.5191  0.3735 -2.6886
   11CHTO   O22 4532   6.355   6.075   0.696 -0.4755  0.3001  0.3310
   11CHTO   C31 4533   6.352   5.952   0.773  0.3159  0.0097 -0.7923
   11CHTO   H59 4534   6.411   5.973   0.865  0.2767  0.9131 -0.9743
   11CHTO   C29 4535   6.205   5.899   0.808  0.3679  0.3790 -0.1615
   11CHTO   H57 4536   6.150   5.892   0.713  0.4185 -0.6550 -0.1173
   11CHTO   O21 4537   6.142   6.000   0.891  0.8347 -0.6412  0.0502
   11CHTO   H37 4538   6.080   6.050   0.842  0.9237 -0.1990  0.3769
   11CHTO   C27 4539   6.198   5.754   0.877  0.3905  0.6179 -0.1965
   11CHTO   H55 4540   6.245   5.757   0.976  0.6923  0.0329 -0.3242
   11CHTO    N5 4541   6.055   5.703   0.889  0.1107  0.0392 -0.0099
   11CHTO   H43 4542   6.057   5.604   0.931 -2.6249  0.1975  0.5845
   11CHTO   H44 4543   5.982   5.763   0.942  1.5453  0.8178  1.1278
   11CHTO   C25 4544   6.292   5.657   0.797 -0.8607 -0.2960 -0.3007
   11CHTO   H53 4545   6.242   5.614   0.709 -0.3699 -2.7689  0.6200
   11CHTO   O17 4546   6.427   5.713   0.773 -0.0066  0.3916  0.1147
   11CHTO   C32 4547   6.421   5.834   0.698 -0.1059  0.2142 -0.4546
   11CHTO   H60 4548   6.371   5.828   0.601 -0.6345 -0.6148 -0.1384
   11CHTO   C36 4549   6.568   5.852   0.688 -0.6250 -0.5542  0.0534
   11CHTO   O25 4550   6.615   5.952   0.602  0.3232 -0.6218 -0.1292
   11CHTO   H40 4551   6.556   6.024   0.604 -1.9548 -2.4393  0.1225
   11CHTO   O15 4552   6.329   5.522   0.900  0.2143  0.1529  0.5504
   11CHTO   C19 4553   6.277   5.397   0.958  0.5206  0.0345  0.0182
   11CHTO   H47 4554   6.363   5.344   1.001  0.3874 -1.5497 -1.6291
   11CHTO   C20 4555   6.165   5.412   1.064  0.3127 -0.1943  0.0799
   11CHTO   H48 4556   6.094   5.492   1.035 -0.2975 -1.1197 -1.0072
   11CHTO   O19 4557   6.237   5.446   1.184 -0.2266  0.3154 -0.0981
   11CHTO   H35 4558   6.262   5.537   1.185  1.3140 -0.0883 -0.5063
   11CHTO   C21 4559   6.082   5.276   1.091 -0.4724 -0.5321  0.3023
   11CHTO   H49 4560   6.154   5.200   1.121  1.7335  0.2641 -2.7309
   11CHTO    N4 4561   5.980   5.303   1.198  0.5036  0.1314 -0.9645
   11CHTO   H41 4562   5.924   5.395   1.188  0.8572  0.4378 -0.2020
   11CHTO   H42 4563   6.029   5.306   1.294  1.4921 -0.5547 -1.4376
   11CHTO   C22 4564   6.037   5.214   0.957  0.1776 -0.2185 -0.0658
   11CHTO   H50 4565   5.970   5.282   0.906 -0.8377 -0.9930  0.2167
   11CHTO   O14 4566   6.154   5.193   0.875  0.4997  0.1628  0.1785
   11CHTO   C23 4567   6.227   5.309   0.836  0.1195  0.4636  0.9053
   11CHTO   H51 4568   6.162   5.364   0.768  1.2423 -1.4845 -1.8627
   11CHTO   C34 4569   6.352   5.251   0.763 -0.2852  0.0498  0.2564
   11CHTO   O23 4570   6.439   5.351   0.703  0.2297 -0.1720  0.5132
   11CHTO   H38 4571   6.473   5.409   0.768  2.2340 -0.6375 -0.0586
   11CHTO   O16 4572   5.981   5.081   0.969 -0.5394  0.7454  0.1816
   11CHTO   C24 4573   5.893   5.031   0.850 -0.7718  0.8132 -0.6416
   11CHTO   H52 4574   5.892   5.102   0.767  1.4450  2.1667  0.4253
   11CHTO   C26 4575   5.745   5.010   0.905 -0.5975  0.2748 -0.0783
   11CHTO   H54 4576   5.751   4.932   0.983 -2.3188  1.2392  1.0546
   11CHTO   O20 4577   5.711   5.135   0.971 -0.2545  0.1157 -0.5257
   11CHTO   H36 4578   5.775   5.176   1.026  2.5253 -2.7222 -1.5143
   11CHTO   C30 4579   5.653   4.972   0.786 -0.4005  0.3646  0.3487
   11CHTO   H58 4580   5.647   5.058   0.717 -0.5088  0.0975  0.0192
   11CHTO    N6 4581   5.516   4.939   0.842  0.0704  0.4600  0.4416
   11CHTO   H45 4582   5.525   4.872   0.927 -1.4367  0.3630  0.5348
   11CHTO   H46 4583   5.460   4.893   0.762  3.1852 -3.0824  0.1297
   11CHTO   C33 4584   5.715   4.851   0.706  0.0769 -0.4737 -0.2785
   11CHTO   H61 4585   5.704   4.761   0.767  0.6029 -1.0112 -0.9674
   11CHTO   O18 4586   5.853   4.877   0.678 -0.2297  0.3351 -0.3861
   11CHTO   C28 4587   5.941   4.896   0.789  0.2183  0.6360  0.6910
   11CHTO   H56 4588   5.936   4.815   0.862  0.4158  0.0038  0.0179
   11CHTO   C35 4589   6.094   4.913   0.745  1.0436 -0.5875  0.0626
   11CHTO   O24 4590   6.141   4.785   0.700 -0.0226  0.0457  1.1524
   11CHTO   H39 4591   6.233   4.798   0.695 -0.3232  2.1958  0.7053
   11CHTO    O9 4592   5.641   4.826   0.582  0.4513  0.0006 -0.2081
   11CHTO   C13 4593   5.669   4.955   0.459 -0.5479 -0.0303  0.2214
   11CHTO   H26 4594   5.709   5.046   0.510  2.4467 -2.1075  1.6904
   11CHTO   C11 4595   5.523   4.980   0.396  0.5321  1.0162 -0.1300
   11CHTO   H24 4596   5.457   5.001   0.482  3.1621  0.3650  2.1456
   11CHTO    O8 4597   5.472   4.854   0.345  0.3866 -0.0119 -0.2250
   11CHTO    H3 4598   5.501   4.788   0.405  2.1140  1.4519  0.5746
   11CHTO    C9 4599   5.535   5.104   0.303 -0.2335  0.0891  0.4258
   11CHTO   H22 4600   5.533   5.190   0.372  1.2031 -1.4288  2.4149
   11CHTO    N2 4601   5.417   5.129   0.213  0.1602 -0.3423  0.1030
   11CHTO   H10 4602   5.444   5.144   0.109 -0.6897 -1.3553 -0.2754
   11CHTO   H11 4603   5.342   5.201   0.239 -0.0307 -0.1550 -0.9472
   11CHTO    C7 4604   5.676   5.112   0.233 -0.1315  0.0179 -0.5618
   11CHTO   H20 4605   5.735   5.172   0.306  1.0816  0.7472 -2.1020
   11CHTO    O4 4606   5.737   4.979   0.225 -0.2837  0.1757  0.9217
   11CHTO   C14 4607   5.769   4.911   0.345  0.7828 -0.1816 -0.6986
   11CHTO   H27 4608   5.867   4.951   0.379 -0.1331  1.5450  0.0034
   11CHTO   C18 4609   5.784   4.756   0.317 -0.0902  0.3696  0.6078
   11CHTO   O13 4610   5.841   4.732   0.191 -0.4904  0.3089  0.2786
   11CHTO    H7 4611   5.934   4.746   0.191 -0.8552  3.2009 -1.4438
   11CHTO    O2 4612   5.688   5.171   0.099 -0.3720  0.1947 -0.0145
   11CHTO    C1 4613   5.783   5.281   0.081 -0.1878  0.0082 -0.5268
   11CHTO   H14 4614   5.829   5.311   0.178 -0.6188  0.2174 -0.3858
   11CHTO    C2 4615   5.725   5.415   0.020 -0.4720 -0.2788  0.0450
   11CHTO   H15 4616   5.678   5.384  -0.075 -1.9274  0.3595  0.5494
   11CHTO    O6 4617   5.627   5.467   0.110  0.4846 -0.2362  0.1864
   11CHTO    H1 4618   5.658   5.524   0.178 -0.4276  0.6535 -0.1189
   11CHTO    C3 4619   5.841   5.519   0.002 -0.0513  0.2151  0.1175
   11CHTO   H16 4620   5.885   5.545   0.100 -0.3461  0.5474  0.1631
   11CHTO    N1 4621   5.795   5.647  -0.060  0.3950 -0.1245  0.0706
   11CHTO    H8 4622   5.730   5.695   0.011 -0.7405 -0.8810 -0.4275
   11CHTO    H9 4623   5.740   5.631  -0.152  1.5231  1.0732 -0.8437
   11CHTO    C4 4624   5.964   5.459  -0.082 -0.7164 -0.4949 -0.0247
   11CHTO   H17 4625   5.931   5.443  -0.185 -0.3740  0.9608 -0.3744
   11CHTO    O1 4626   6.006   5.331  -0.030 -0.1432  0.3673  0.2754
   11CHTO    C5 4627   5.907   5.232  -0.008 -0.2095 -0.8127 -0.6301
   11CHTO   H18 4628   5.869   5.201  -0.105  0.9632 -2.1471 -0.6791
   11CHTO   C16 4629   5.973   5.106   0.063  0.7563 -0.0386  0.4916
   11CHTO   O11 4630   6.045   5.043  -0.039 -0.0119 -0.0018 -0.2747
   11CHTO    H5 4631   5.989   4.972  -0.065 -2.8149  2.1882 -0.4328
   11CHTO    O3 4632   6.082   5.546  -0.086 -0.0005  1.2316  0.5292
   11CHTO    C6 4633   6.155   5.555  -0.216  0.5394  0.3485 -0.2262
   11CHTO   H19 4634   6.119   5.484  -0.291  0.7435  0.1937 -0.1757
   11CHTO    C8 4635   6.130   5.700  -0.275 -0.3039 -0.4030  0.1893
   11CHTO   H21 4636   6.143   5.776  -0.198 -1.0456  0.6568 -0.6959
   11CHTO    O7 4637   6.001   5.711  -0.319  0.0541 -0.3506 -0.3295
   11CHTO    H2 4638   5.983   5.797  -0.352 -0.6366  0.2108  1.4205
   11CHTO   C12 4639   6.233   5.726  -0.396 -0.9673 -0.0940 -0.4286
   11CHTO   H25 4640   6.219   5.645  -0.471  0.2528 -0.0728 -0.6818
   11CHTO    N3 4641   6.221   5.862  -0.458  0.3122  0.2051  0.2552
   11CHTO   H12 4642   6.215   5.939  -0.382 -2.9498  0.3335 -0.0684
   11CHTO   H13 4643   6.151   5.871  -0.540  2.7055 -2.4206 -2.1865
   11CHTO   C15 4644   6.381   5.704  -0.335  0.1118 -0.0898  0.3884
   11CHTO   H28 4645   6.390   5.767  -0.246 -1.2282 -2.7992  2.5415
   11CHTO   O10 4646   6.495   5.731  -0.444 -0.1685 -0.3252  0.2557
   11CHTO    H4 4647   6.567   5.774  -0.401 -1.0489 -0.0599  1.5033
   11CHTO    O5 4648   6.391   5.566  -0.294  0.3387 -0.0640 -0.0574
   11CHTO   C10 4649   6.308   5.527  -0.193 -0.8377 -0.1488  0.4459
   11CHTO   H23 4650   6.347   5.583  -0.108  0.0585  1.6188 -1.0830
   11CHTO   C17 4651   6.333   5.381  -0.162 -0.4323 -1.0928 -0.0790
   11CHTO   O12 4652   6.300   5.287  -0.265  0.2094 -0.3846 -0.0239
   11CHTO    H6 4653   6.210   5.299  -0.287 -0.1017  0.7311  1.7820
   12CHTO  H203 4654   5.842   2.204   2.175  0.7236 -1.9941 -0.2896
   12CHTO   O82 4655   5.769   2.144   2.169 -0.8835 -0.0933 -0.1302
   12CHTO  C123 4656   5.776   2.061   2.286  0.1452  0.5701 -0.5284
   12CHTO  H227 4657   5.784   2.125   2.374  0.4612 -0.0701 -0.0874
   12CHTO   O77 4658   5.645   1.996   2.278  0.1098  0.2193  0.2178
   12CHTO  C118 4659   5.606   1.904   2.384 -0.4399 -0.6365  0.2829
   12CHTO  H222 4660   5.615   1.954   2.482  0.1857  2.4856 -1.2953
   12CHTO  C125 4661   5.456   1.879   2.363 -0.0292  0.1386  0.0437
   12CHTO   O84 4662   5.385   1.803   2.466  0.1202 -0.0720  0.4059
   12CHTO  H205 4663   5.293   1.818   2.466  0.3186  1.3327  2.1454
   12CHTO  C114 4664   5.696   1.783   2.373 -0.2353  0.3037 -0.1668
   12CHTO  H218 4665   5.676   1.732   2.279 -0.5883  0.4228 -0.1579
   12CHTO  C116 4666   5.846   1.827   2.384 -0.6823 -0.2646 -0.3106
   12CHTO  H220 4667   5.875   1.854   2.488  0.7044  0.5732 -0.8997
   12CHTO   O79 4668   5.929   1.704   2.373 -0.2647  0.9421 -0.1445
   12CHTO  H201 4669   5.966   1.693   2.287  0.2845 -0.1963  0.2278
   12CHTO  C120 4670   5.883   1.945   2.278  0.6015 -0.3070 -0.5053
   12CHTO  H224 4671   5.882   1.896   2.178  0.3279 -2.7022  0.6353
   12CHTO   N21 4672   6.017   2.000   2.302  0.4857  0.1332 -0.5029
   12CHTO  H211 4673   6.086   1.938   2.356 -1.2695 -1.2954  0.1369
   12CHTO  H212 4674   6.001   2.092   2.356  0.9395 -1.0078  1.6386
   12CHTO   O75 4675   5.670   1.690   2.484 -0.5980 -0.6555 -0.5861
   12CHTO  C112 4676   5.644   1.531   2.436  0.3026  0.2851  0.2722
   12CHTO  H216 4677   5.706   1.507   2.349 -0.6665 -0.9494 -0.0800
   12CHTO   O73 4678   5.505   1.527   2.404 -0.1202 -0.1168  0.6276
   12CHTO  C113 4679   5.447   1.400   2.368  0.0227 -0.5023  0.5618
   12CHTO  H217 4680   5.497   1.367   2.274 -2.1201 -0.2001 -0.7186
   12CHTO  C124 4681   5.297   1.418   2.340 -0.1610 -0.0001  0.4968
   12CHTO   O83 4682   5.275   1.500   2.226 -0.2016 -0.1426  0.0123
   12CHTO  H204 4683   5.310   1.456   2.150  0.5870  0.6379 -0.0862
   12CHTO  C109 4684   5.473   1.295   2.480  0.2840 -0.1770 -0.2769
   12CHTO  H213 4685   5.420   1.328   2.571 -0.8385 -1.9679 -0.2597
   12CHTO  C110 4686   5.631   1.293   2.514 -0.0302  0.1061  1.2101
   12CHTO  H214 4687   5.683   1.255   2.426 -0.1470  0.8872  0.8010
   12CHTO   O78 4688   5.649   1.198   2.618  0.1995 -0.1618 -0.4824
   12CHTO  H200 4689   5.620   1.111   2.596 -0.8876  0.6741 -2.4675
   12CHTO  C111 4690   5.678   1.433   2.552  0.9770  1.0285  0.0083
   12CHTO  H215 4691   5.616   1.470   2.636 -0.5020  1.7759 -1.3780
   12CHTO   N19 4692   5.821   1.447   2.592 -0.1022  0.4980  0.6816
   12CHTO  H207 4693   5.836   1.410   2.692  1.7998 -0.7752 -0.0466
   12CHTO  H208 4694   5.853   1.550   2.590  1.3478  0.0487 -0.5644
   12CHTO   O74 4695   5.421   1.160   2.438  0.3101 -0.3816  0.8922
   12CHTO  C115 4696   5.372   1.083   2.553  0.0289 -0.3873  0.0411
   12CHTO  H219 4697   5.436   1.091   2.640 -0.3380 -1.9542  0.4829
   12CHTO   O76 4698   5.236   1.127   2.596  0.0497 -0.3264 -0.0537
   12CHTO  C122 4699   5.182   1.071   2.713 -0.3357 -0.4407 -0.4294
   12CHTO  H226 4700   5.083   1.116   2.721  0.6682  2.2298 -2.3903
   12CHTO  C126 4701   5.260   1.121   2.845  0.1649  0.5595 -0.3429
   12CHTO   O85 4702   5.185   1.108   2.965 -0.3975 -0.5328  0.3485
   12CHTO  H206 4703   5.093   1.119   2.948 -0.2119  1.2664  0.3697
   12CHTO  C121 4704   5.170   0.917   2.710 -0.0297 -0.1747  0.3152
   12CHTO  H225 4705   5.151   0.880   2.813  0.7353 -1.0894  0.1310
   12CHTO   O81 4706   5.043   0.892   2.648 -0.2408 -0.0594  0.4066
   12CHTO  H202 4707   5.053   0.874   2.556 -0.3150  1.8952 -0.0163
   12CHTO  C119 4708   5.307   0.855   2.656 -0.0258 -0.2413 -0.6032
   12CHTO  H223 4709   5.378   0.877   2.736 -2.9219  0.4461  1.8879
   12CHTO  C117 4710   5.370   0.926   2.531 -0.7202  0.8118  0.2275
   12CHTO  H221 4711   5.321   0.915   2.435  0.0734  5.0488 -0.7634
   12CHTO   N20 4712   5.507   0.869   2.517 -0.4168  0.5958  0.3563
   12CHTO  H209 4713   5.569   0.880   2.605  0.1709  0.1974 -0.0029
   12CHTO  H210 4714   5.558   0.935   2.449  1.6976 -0.7748  0.5635
   12CHTO   O80 4715   5.298   0.692   2.658 -0.2355  0.2551  0.4115
   12CHTO  C103 4716   5.192   0.613   2.567 -0.7786 -0.1403 -0.1018
   12CHTO  H190 4717   5.102   0.671   2.547  0.8645  2.1541 -1.0471
   12CHTO  C101 4718   5.242   0.547   2.439 -0.7008  0.5413  0.2262
   12CHTO  H188 4719   5.336   0.495   2.456 -1.3432 -1.3829 -1.8349
   12CHTO   O68 4720   5.267   0.659   2.344 -0.0299  0.0447  0.1798
   12CHTO  H168 4721   5.346   0.705   2.366  0.2976 -0.8493  0.8740
   12CHTO   C99 4722   5.149   0.428   2.386  0.6351  0.7362 -0.0639
   12CHTO  H186 4723   5.055   0.479   2.356  0.2715  1.0123  1.5214
   12CHTO   N17 4724   5.197   0.351   2.263  0.1463 -0.0932 -0.5658
   12CHTO  H174 4725   5.274   0.282   2.292  1.2341  0.7173 -1.4731
   12CHTO  H175 4726   5.117   0.299   2.213  0.6268 -1.0002 -0.4030
   12CHTO   C97 4727   5.116   0.337   2.505 -0.0611  0.8476  0.7502
   12CHTO  H184 4728   5.207   0.285   2.540 -1.8481 -0.9783  2.8259
   12CHTO   O64 4729   5.060   0.410   2.606 -0.2397  0.2837  0.1237
   12CHTO  C104 4730   5.153   0.496   2.666  0.1676 -0.3176 -0.2030
   12CHTO  H191 4731   5.246   0.447   2.693  0.9184  1.2255  0.0289
   12CHTO  C108 4732   5.086   0.554   2.794 -0.5442 -0.5010  0.6299
   12CHTO   O71 4733   5.082   0.462   2.903 -0.8499 -0.2570  0.0139
   12CHTO  H171 4734   5.165   0.424   2.922  0.0723  1.0532 -1.3246
   12CHTO   O62 4735   5.008   0.245   2.488 -0.0431 -0.2945  0.4591
   12CHTO   C91 4736   5.009   0.121   2.560  0.4683  0.2975  0.1101
   12CHTO  H178 4737   5.082   0.128   2.641  0.4907 -0.3054  0.1418
   12CHTO   C92 4738   5.076   0.010   2.463  0.4384 -0.1360  0.0606
   12CHTO  H179 4739   5.014   0.008   2.372 -0.5278  1.3195  0.6756
   12CHTO   O66 4740   5.212   0.055   2.422  0.1235 -0.2269  0.1946
   12CHTO  H166 4741   5.200   0.090   2.336 -0.2038  2.1276  1.1535
   12CHTO   C93 4742   5.079  -0.132   2.531  0.2423 -0.0155 -0.8751
   12CHTO  H180 4743   5.155  -0.138   2.610  1.7400  0.1098 -2.2759
   12CHTO   N16 4744   5.115  -0.238   2.435 -0.0047  0.0081 -0.1447
   12CHTO  H172 4745   5.213  -0.228   2.391 -0.5210  1.6295 -0.9954
   12CHTO  H173 4746   5.099  -0.338   2.472  0.7999 -0.1874 -0.3095
   12CHTO   C94 4747   4.935  -0.158   2.585  0.3380  0.2385 -0.2795
   12CHTO  H181 4748   4.861  -0.147   2.505  0.5903  0.5090 -0.4756
   12CHTO   O61 4749   4.900  -0.060   2.685  0.0187  0.3366  0.1853
   12CHTO   C95 4750   4.878   0.070   2.623 -0.7874  0.0340 -0.1551
   12CHTO  H182 4751   4.800   0.065   2.547 -0.2647  0.8466 -0.7495
   12CHTO  C106 4752   4.829   0.164   2.742 -0.6026 -0.3790 -0.2834
   12CHTO   O69 4753   4.812   0.304   2.710 -0.3618  0.2925  0.5379
   12CHTO  H169 4754   4.722   0.330   2.707  0.2781  2.6194  0.5099
   12CHTO   O63 4755   4.918  -0.297   2.658  0.2398  0.7689 -0.4671
   12CHTO   C96 4756   5.010  -0.310   2.794  0.1202  0.1116  0.1826
   12CHTO  H183 4757   5.044  -0.209   2.819  0.6653 -0.1014  0.2803
   12CHTO   C98 4758   5.129  -0.407   2.784 -0.1927  0.8457  0.1663
   12CHTO  H185 4759   5.087  -0.495   2.733  0.3859  0.1146  0.9279
   12CHTO   O67 4760   5.234  -0.358   2.691  0.5379 -0.1341  0.3415
   12CHTO  H167 4761   5.281  -0.283   2.721 -0.5743  0.7279 -0.0310
   12CHTO  C102 4762   5.199  -0.449   2.924 -0.2400  0.2060 -0.0162
   12CHTO  H189 4763   5.257  -0.362   2.955  0.7508 -1.1069  1.9027
   12CHTO   N18 4764   5.291  -0.563   2.921  0.1237 -0.7075  0.2266
   12CHTO  H176 4765   5.357  -0.552   3.006  0.9865  1.2097 -0.6541
   12CHTO  H177 4766   5.233  -0.655   2.923 -0.1941 -0.5798 -2.1029
   12CHTO  C105 4767   5.096  -0.465   3.039  0.1513 -0.1710 -0.2420
   12CHTO  H192 4768   5.050  -0.564   3.034  0.9894 -0.5571 -0.4333
   12CHTO   O65 4769   4.997  -0.368   3.041 -0.1874 -0.1516 -0.7073
   12CHTO  C100 4770   4.925  -0.349   2.916  0.0791  0.7217  0.0497
   12CHTO  H187 4771   4.870  -0.443   2.899  0.6688  0.4542 -0.3827
   12CHTO  C107 4772   4.823  -0.239   2.961 -0.7608 -0.0608 -0.0123
   12CHTO   O70 4773   4.877  -0.114   2.978  0.3776 -0.1167  0.0080
   12CHTO  H170 4774   4.923  -0.093   2.899 -0.1001  0.9156 -0.0049
   12CHTO   O57 4775   5.164  -0.449   3.173  0.3250  0.4091  0.7434
   12CHTO   C85 4776   5.111  -0.524   3.286  0.7039  0.6727 -0.8045
   12CHTO  H157 4777   5.020  -0.581   3.257 -0.6406  2.2609  0.2162
   12CHTO   C83 4778   5.052  -0.419   3.396 -0.0971  0.7370  0.2331
   12CHTO  H155 4779   4.970  -0.367   3.346  0.1789  0.9112 -0.0380
   12CHTO   O56 4780   5.153  -0.319   3.427 -0.3781  0.3566  0.3884
   12CHTO  H135 4781   5.126  -0.236   3.462  0.8889  0.4698  1.1062
   12CHTO   C81 4782   5.004  -0.505   3.517  0.2481 -0.4615  0.2180
   12CHTO  H153 4783   4.934  -0.582   3.486 -1.0769 -0.7049  3.5261
   12CHTO   N14 4784   4.938  -0.420   3.618 -0.4487  0.9259  0.2589
   12CHTO  H141 4785   5.019  -0.364   3.660  0.3819  0.3805 -0.5840
   12CHTO  H142 4786   4.892  -0.486   3.688  0.1212 -0.6835 -0.8600
   12CHTO   C79 4787   5.125  -0.591   3.576  0.0414  0.0158 -0.6203
   12CHTO  H151 4788   5.084  -0.648   3.660  1.9749 -0.6680 -0.1028
   12CHTO   O52 4789   5.168  -0.692   3.476 -0.4334 -0.0114  0.2357
   12CHTO   C86 4790   5.223  -0.627   3.354 -0.0644 -0.4295  0.1509
   12CHTO  H158 4791   5.308  -0.564   3.388  0.6741 -1.3917  0.1014
   12CHTO   C90 4792   5.290  -0.730   3.259 -0.4405 -0.6345 -0.3941
   12CHTO   O60 4793   5.401  -0.784   3.324  0.2440  0.0970  0.4164
   12CHTO  H138 4794   5.383  -0.849   3.390 -0.6607  0.2695  0.3489
   12CHTO   O50 4795   5.236  -0.509   3.619 -0.5319  0.4716 -0.1611
   12CHTO   C73 4796   5.336  -0.483   3.717  0.2608 -0.6032  0.2004
   12CHTO  H145 4797   5.303  -0.523   3.814 -1.1843  0.2857  0.0898
   12CHTO   C74 4798   5.351  -0.325   3.738 -0.4469  0.6244  1.2101
   12CHTO  H146 4799   5.254  -0.276   3.757 -0.5240 -0.2220  3.1233
   12CHTO   O54 4800   5.423  -0.305   3.859 -0.2822 -0.1081  0.0246
   12CHTO  H133 4801   5.370  -0.326   3.933 -1.6000 -0.6037 -1.0349
   12CHTO   C75 4802   5.421  -0.262   3.610  0.1805 -0.3478 -0.0307
   12CHTO  H147 4803   5.347  -0.267   3.528 -0.2610 -1.1496  0.4059
   12CHTO   N13 4804   5.458  -0.117   3.618 -0.2082 -0.1196 -0.6665
   12CHTO  H139 4805   5.374  -0.054   3.591 -0.4694  1.1525  2.9065
   12CHTO  H140 4806   5.501  -0.085   3.712 -1.6842 -0.4315  0.1370
   12CHTO   C76 4807   5.555  -0.346   3.570 -0.3117 -0.1501 -0.4803
   12CHTO  H148 4808   5.634  -0.350   3.645  1.6968  2.8781 -2.3171
   12CHTO   O49 4809   5.521  -0.492   3.557  0.3198 -0.3956  0.4302
   12CHTO   C77 4810   5.472  -0.553   3.685 -0.1442 -1.0976 -0.3706
   12CHTO  H149 4811   5.538  -0.534   3.769 -3.0285  0.1871  1.6705
   12CHTO   C88 4812   5.461  -0.707   3.677 -0.0147  0.2855 -0.0218
   12CHTO   O58 4813   5.615  -0.772   3.672 -0.5041  0.6205 -0.3350
   12CHTO  H136 4814   5.655  -0.741   3.593  1.4027 -1.4716 -0.2233
   12CHTO   O51 4815   5.615  -0.314   3.419  0.0060  0.3245  0.2629
   12CHTO   C78 4816   5.763  -0.390   3.403 -1.2173 -0.9954 -0.0655
   12CHTO  H150 4817   5.779  -0.473   3.475  1.8896 -0.0718  0.3603
   12CHTO   C80 4818   5.884  -0.295   3.431  0.7430  0.0531  0.0883
   12CHTO  H152 4819   5.881  -0.213   3.357  4.6471 -0.6987 -0.9961
   12CHTO   O55 4820   5.845  -0.249   3.564  0.2495 -0.9808  0.2517
   12CHTO  H134 4821   5.828  -0.157   3.567 -0.6901 -1.1650  1.1079
   12CHTO   C84 4822   6.021  -0.365   3.420  0.0231  0.1724  0.1114
   12CHTO  H156 4823   6.028  -0.435   3.503 -0.0067 -0.3737 -0.3450
   12CHTO   N15 4824   6.135  -0.273   3.448  0.5147 -0.2197 -0.9204
   12CHTO  H143 4825   6.223  -0.334   3.444  0.2063 -0.8324  1.2531
   12CHTO  H144 4826   6.125  -0.219   3.540  0.5576  1.1372 -1.6938
   12CHTO   C87 4827   6.033  -0.443   3.286  0.3696 -0.0387 -0.8892
   12CHTO  H159 4828   6.052  -0.368   3.209 -0.8328  2.6684  1.3829
   12CHTO   O53 4829   5.906  -0.531   3.268 -0.2012 -0.1957  0.4346
   12CHTO   C82 4830   5.780  -0.462   3.261 -0.2608  0.1200 -1.0609
   12CHTO  H154 4831   5.783  -0.384   3.184  1.0172  0.0256 -1.1216
   12CHTO   C89 4832   5.664  -0.564   3.223  0.2477 -0.4843 -0.1234
   12CHTO   O59 4833   5.659  -0.618   3.091 -0.4478 -0.4648 -0.1296
   12CHTO  H137 4834   5.570  -0.644   3.074 -1.0703  1.2045  0.4840
   12CHTO   O45 4835   6.169  -0.550   3.296 -0.3971 -0.1296  0.2210
   12CHTO   C67 4836   6.244  -0.560   3.173  0.2891  0.5080  0.3395
   12CHTO  H124 4837   6.332  -0.622   3.193 -0.8915 -0.4242  2.8258
   12CHTO   C65 4838   6.151  -0.621   3.056 -1.3072 -0.3625 -0.0321
   12CHTO  H122 4839   6.065  -0.662   3.108 -0.6606 -0.4130  1.0026
   12CHTO   O44 4840   6.224  -0.729   2.991  0.5732 -0.3253  0.0603
   12CHTO  H102 4841   6.237  -0.799   3.052 -2.2640 -1.4149 -0.5223
   12CHTO   C63 4842   6.093  -0.508   2.957  0.5795  0.0525 -0.1617
   12CHTO  H120 4843   6.035  -0.431   3.009 -0.9500 -0.5999 -0.8688
   12CHTO   N11 4844   5.988  -0.561   2.865  0.3415 -0.5331  0.0259
   12CHTO  H108 4845   6.007  -0.538   2.763 -0.7421 -1.6726 -0.4435
   12CHTO  H109 4846   5.960  -0.661   2.891 -1.0932 -0.3226 -0.6993
   12CHTO   C61 4847   6.212  -0.444   2.884  0.6777 -0.4210  0.1343
   12CHTO  H118 4848   6.172  -0.354   2.835 -2.7782 -1.3055  1.2109
   12CHTO   O40 4849   6.320  -0.404   2.981 -0.0302  0.2016  0.5010
   12CHTO   C68 4850   6.307  -0.415   3.126  0.6164 -0.0315  0.3804
   12CHTO  H125 4851   6.246  -0.328   3.159  0.6123  0.5391 -1.1152
   12CHTO   C72 4852   6.444  -0.391   3.189  0.0669  0.7357  0.1777
   12CHTO   O48 4853   6.437  -0.390   3.332 -0.3390  0.1235 -1.0993
   12CHTO  H105 4854   6.525  -0.401   3.362 -0.7919 -2.5791 -0.6704
   12CHTO   O38 4855   6.268  -0.539   2.789  0.0282 -0.1271 -0.0483
   12CHTO   C55 4856   6.378  -0.494   2.719  0.1002  0.1970 -0.1371
   12CHTO  H112 4857   6.404  -0.392   2.750 -1.9180  1.0504 -1.1200
   12CHTO   C56 4858   6.354  -0.501   2.559 -0.3815  0.6539 -0.6319
   12CHTO  H113 4859   6.319  -0.605   2.550 -0.6894  0.4846  2.1569
   12CHTO   O42 4860   6.246  -0.411   2.538  0.1268  0.2660  0.6374
   12CHTO  H100 4861   6.237  -0.398   2.446  0.2556 -1.9821  0.2812
   12CHTO   C57 4862   6.479  -0.475   2.467  0.3302 -0.3772  0.5855
   12CHTO  H114 4863   6.490  -0.367   2.457  1.2482 -0.6256 -1.3842
   12CHTO   N10 4864   6.455  -0.514   2.328  0.3943  0.3121 -0.0941
   12CHTO  H106 4865   6.356  -0.481   2.301 -0.3360 -1.8500 -0.1592
   12CHTO  H107 4866   6.519  -0.464   2.257 -1.1215  2.4383 -0.0084
   12CHTO   C58 4867   6.605  -0.536   2.524 -0.1134  0.0456 -0.5514
   12CHTO  H115 4868   6.621  -0.640   2.489  3.8748  0.3397  0.1452
   12CHTO   O37 4869   6.617  -0.537   2.664  0.1071 -0.7344  0.0790
   12CHTO   C59 4870   6.506  -0.592   2.735  0.0565 -0.6812  0.2112
   12CHTO  H116 4871   6.478  -0.686   2.688  1.6166 -0.9643 -0.1755
   12CHTO   C70 4872   6.548  -0.622   2.879  0.2826 -0.4053 -0.5894
   12CHTO   O46 4873   6.613  -0.509   2.936  0.0729 -0.5520  0.3820
   12CHTO  H103 4874   6.559  -0.434   2.918  0.2451 -0.0758  1.8310
   12CHTO   O39 4875   6.731  -0.431   2.476 -0.2915  0.1597 -0.5002
   12CHTO   C60 4876   6.848  -0.499   2.444 -0.1082  0.4655 -0.8085
   12CHTO  H117 4877   6.856  -0.586   2.508  1.5409  0.6868 -0.6904
   12CHTO   C62 4878   6.852  -0.541   2.297 -0.2526 -0.0828  0.8578
   12CHTO  H119 4879   6.762  -0.605   2.282  0.6935 -1.1690 -0.3363
   12CHTO   O43 4880   6.838  -0.433   2.205 -0.2632  0.7390  0.5486
   12CHTO  H101 4881   6.911  -0.377   2.225  1.2933 -1.3654  0.8627
   12CHTO   C66 4882   6.980  -0.638   2.288  0.3430  0.1012  0.3613
   12CHTO  H123 4883   6.979  -0.711   2.369 -0.6610  2.4217  2.5015
   12CHTO   N12 4884   6.973  -0.709   2.158 -0.4472  0.3548 -0.1928
   12CHTO  H110 4885   7.059  -0.692   2.094 -0.1560  0.2597  0.1722
   12CHTO  H111 4886   6.982  -0.814   2.185 -0.9705  0.1210 -0.9109
   12CHTO   C69 4887   7.109  -0.554   2.300  0.5667  0.6531 -0.6179
   12CHTO  H126 4888   7.135  -0.493   2.210  0.2851  1.5581 -0.0945
   12CHTO   O41 4889   7.105  -0.468   2.444  0.3709 -0.1490  0.4738
   12CHTO   C64 4890   6.971  -0.401   2.474 -0.9792 -0.1393  0.0488
   12CHTO  H121 4891   6.957  -0.311   2.411  2.4051  0.2516 -0.2414
   12CHTO   C71 4892   6.986  -0.359   2.622  0.1245  0.2572 -0.5496
   12CHTO   O47 4893   7.103  -0.279   2.637 -0.2386 -0.0041 -0.0823
   12CHTO  H104 4894   7.128  -0.276   2.727 -0.2272  1.7872 -0.1160
   12CHTO   O34 4895   7.238  -0.659   2.327 -0.3782 -0.0474 -0.0617
   12CHTO   C49 4896   7.397  -0.644   2.342  0.8927  0.7188  0.3479
   12CHTO   H91 4897   7.433  -0.610   2.244  0.4902  1.4971  0.4643
   12CHTO   C47 4898   7.459  -0.781   2.381 -0.3009 -0.3447 -0.3520
   12CHTO   H89 4899   7.568  -0.763   2.372 -0.1907 -1.0741 -0.5278
   12CHTO   O33 4900   7.423  -0.878   2.282  0.4520  0.0303 -0.2449
   12CHTO   H70 4901   7.345  -0.918   2.314  1.3438 -0.4848  1.3519
   12CHTO   C45 4902   7.407  -0.831   2.536 -0.4247 -0.0345  0.4610
   12CHTO   H87 4903   7.317  -0.894   2.529 -0.7919  0.2179  2.6490
   12CHTO    N8 4904   7.511  -0.906   2.603 -0.1907 -0.1199 -0.1580
   12CHTO   H75 4905   7.521  -1.010   2.576  2.0990 -0.0092  0.1566
   12CHTO   H76 4906   7.594  -0.836   2.603 -1.2076  1.1095 -1.5694
   12CHTO   C43 4907   7.357  -0.706   2.621  0.5921  0.1168 -0.2199
   12CHTO   H85 4908   7.251  -0.686   2.602  0.5599  0.3682  0.2150
   12CHTO   O29 4909   7.441  -0.596   2.588  0.4631 -0.6267  0.0357
   12CHTO   C50 4910   7.435  -0.543   2.452  0.4670 -0.0169 -0.0886
   12CHTO   H92 4911   7.372  -0.453   2.450  0.7148  0.1502 -0.5557
   12CHTO   C54 4912   7.575  -0.484   2.427  0.0319 -0.5573 -0.1358
   12CHTO   O36 4913   7.584  -0.398   2.311 -0.0481 -0.1137  0.3015
   12CHTO   H72 4914   7.674  -0.372   2.305  0.2339 -0.8472  1.3605
   12CHTO   O27 4915   7.350  -0.725   2.770 -0.1314  0.1940  0.2704
   12CHTO   C37 4916   7.298  -0.699   2.895  0.3893 -0.7543 -0.4914
   12CHTO   H79 4917   7.372  -0.657   2.965 -1.6754  1.6993  0.2899
   12CHTO   C38 4918   7.188  -0.590   2.885  1.4394  0.0818  0.5442
   12CHTO   H80 4919   7.129  -0.609   2.794  0.1270  2.1728  0.9313
   12CHTO   O31 4920   7.245  -0.460   2.868  0.2713  0.1882 -0.1009
   12CHTO   H68 4921   7.308  -0.457   2.799 -2.8919  0.2875 -3.0990
   12CHTO   C39 4922   7.092  -0.595   3.013 -0.1906  0.1899  0.7017
   12CHTO   H81 4923   7.141  -0.538   3.092  1.2120  0.1692 -0.1507
   12CHTO    N7 4924   6.962  -0.514   2.995 -0.3444  0.1036  0.5200
   12CHTO   H73 4925   6.902  -0.531   2.907  0.2675 -0.4315  0.2038
   12CHTO   H74 4926   6.905  -0.523   3.086  1.7426  0.1303  1.8730
   12CHTO   C40 4927   7.059  -0.745   3.067 -0.4215 -0.4175  0.1895
   12CHTO   H82 4928   6.988  -0.806   3.011  0.1064  0.1289 -1.1035
   12CHTO   O26 4929   7.185  -0.814   3.087 -0.3649 -0.2079  0.0322
   12CHTO   C41 4930   7.247  -0.833   2.960 -0.6406 -0.4973  0.8488
   12CHTO   H83 4931   7.175  -0.877   2.890  0.8429  2.0150 -2.3493
   12CHTO   C52 4932   7.363  -0.927   2.990  0.3400  0.5542  0.3209
   12CHTO   O35 4933   7.323  -1.053   3.078  0.2788  0.4364 -0.3661
   12CHTO   H71 4934   7.391  -1.095   3.127 -0.7289 -0.4709  0.2758
   12CHTO   O28 4935   7.011  -0.739   3.201 -0.8181 -0.1229 -0.5538
   12CHTO   C42 4936   6.923  -0.847   3.255 -0.2059  0.4096 -0.4324
   12CHTO   H84 4937   6.958  -0.861   3.357 -1.7829  1.7028  0.3142
   12CHTO   C44 4938   6.930  -0.989   3.193  0.2383 -0.2696 -0.6478
   12CHTO   H86 4939   6.924  -0.979   3.084  0.1961  0.2367 -0.6005
   12CHTO   O32 4940   7.056  -1.056   3.213  0.0060  0.0944 -0.0321
   12CHTO   H69 4941   7.122  -0.989   3.219 -0.4245  0.7143 -1.6375
   12CHTO   C48 4942   6.812  -1.082   3.244 -0.4839 -0.6139 -0.3068
   12CHTO   H90 4943   6.839  -1.122   3.341  0.3770 -0.0407 -0.3065
   12CHTO    N9 4944   6.791  -1.203   3.157  0.2447  0.2300 -0.2862
   12CHTO   H77 4945   6.812  -1.290   3.219  0.6118  2.1963  2.4509
   12CHTO   H78 4946   6.698  -1.205   3.102 -1.4153  1.3582  2.3858
   12CHTO   C51 4947   6.677  -1.011   3.262 -0.4372  0.5102 -0.8007
   12CHTO   H93 4948   6.636  -0.989   3.163  0.3716 -0.2049 -1.3145
   12CHTO   O30 4949   6.691  -0.894   3.341  0.1131 -0.5666 -0.3098
   12CHTO   C46 4950   6.783  -0.788   3.271  0.1813 -0.1037  0.8985
   12CHTO   H88 4951   6.728  -0.776   3.177 -0.9909 -1.5917  1.3671
   12CHTO   C53 4952   6.776  -0.656   3.351 -0.3148 -0.8235 -0.3402
   12CHTO   O72 4953   6.802  -0.674   3.490  0.2795  0.3334  0.2058
   12CHTO  H199 4954   6.780  -0.593   3.532  0.1442  0.3267  0.1499
   12CHTO   O22 4955   6.580  -1.084   3.342 -0.8097 -0.3058  0.2146
   12CHTO   C31 4956   6.431  -1.072   3.337 -0.3411 -0.6695  0.2789
   12CHTO   H59 4957   6.392  -1.165   3.382  1.8211 -1.4791  0.5195
   12CHTO   C29 4958   6.372  -0.947   3.418  0.0899 -0.0457  0.1297
   12CHTO   H57 4959   6.417  -0.851   3.392  1.0186 -0.1247  1.4409
   12CHTO   O21 4960   6.410  -0.960   3.555 -0.0218  0.3832  0.3754
   12CHTO   H37 4961   6.405  -1.051   3.576  1.0834 -0.1873 -1.7577
   12CHTO   C27 4962   6.211  -0.933   3.409  0.4026  0.0212  0.6398
   12CHTO   H55 4963   6.164  -1.018   3.461 -2.2271  0.1065 -1.5030
   12CHTO    N5 4964   6.163  -0.807   3.464 -0.2657  0.0710  0.5331
   12CHTO   H43 4965   6.214  -0.720   3.425  0.0660  0.9232  2.7785
   12CHTO   H44 4966   6.061  -0.797   3.429 -0.0837 -1.0053 -0.3098
   12CHTO   C25 4967   6.161  -0.943   3.259 -0.1043  0.6522  0.1304
   12CHTO   H53 4968   6.192  -0.849   3.210  2.4662 -0.2083 -0.0070
   12CHTO   O17 4969   6.223  -1.060   3.209 -0.3313  0.5280 -0.0234
   12CHTO   C32 4970   6.369  -1.061   3.189  0.6313  0.2387  0.2637
   12CHTO   H60 4971   6.390  -0.961   3.150  2.7175 -0.6547 -0.9622
   12CHTO   C36 4972   6.395  -1.193   3.105  0.1892 -0.1868 -0.1386
   12CHTO   O25 4973   6.326  -1.176   2.978 -0.1018 -0.4964 -0.2235
   12CHTO   H40 4974   6.250  -1.229   2.988  0.3227 -1.2637 -0.9914
   12CHTO   O15 4975   6.017  -0.967   3.262  0.5896 -0.1729  0.3803
   12CHTO   C19 4976   5.896  -0.927   3.193  0.3970  0.0173 -0.1095
   12CHTO   H47 4977   5.884  -0.818   3.186  0.9672  0.2307  1.7937
   12CHTO   C20 4978   5.901  -0.969   3.043 -0.6423  0.2966  0.5573
   12CHTO   H48 4979   5.892  -1.078   3.029 -1.4359  0.7170 -2.6238
   12CHTO   O19 4980   6.031  -0.932   2.982  0.0822  0.0639  0.4681
   12CHTO   H35 4981   6.035  -0.934   2.888 -0.7002  0.2826  0.4323
   12CHTO   C21 4982   5.772  -0.905   2.973 -0.1759 -1.1464  0.5900
   12CHTO   H49 4983   5.784  -0.797   2.978  0.5639 -1.2066  0.3030
   12CHTO    N4 4984   5.772  -0.938   2.826  0.2284 -0.0269 -0.0279
   12CHTO   H41 4985   5.805  -1.039   2.805 -2.1341 -0.4489 -2.0578
   12CHTO   H42 4986   5.834  -0.863   2.779 -0.9991  1.4064  0.5824
   12CHTO   C22 4987   5.643  -0.946   3.048 -0.6084 -0.1350  0.2344
   12CHTO   H50 4988   5.633  -1.054   3.032 -1.7980 -0.4217  2.7589
   12CHTO   O14 4989   5.646  -0.920   3.187 -0.2249  0.3253 -0.3109
   12CHTO   C23 4990   5.761  -0.979   3.258  0.1776  0.3842 -0.4265
   12CHTO   H51 4991   5.748  -1.088   3.260 -0.3639  0.4458 -0.2885
   12CHTO   C34 4992   5.766  -0.935   3.406  0.9353 -0.3874 -0.1228
   12CHTO   O23 4993   5.643  -0.979   3.472 -0.0882  0.1993 -0.2292
   12CHTO   H38 4994   5.634  -1.073   3.476 -0.4615  0.2170 -0.5496
   12CHTO   O16 4995   5.522  -0.886   2.999 -0.7484  0.5780 -0.1039
   12CHTO   C24 4996   5.418  -1.015   2.929  0.2764  0.6339  0.1279
   12CHTO   H52 4997   5.477  -1.102   2.901  0.2663  1.2638 -1.8652
   12CHTO   C26 4998   5.358  -0.965   2.795  0.1015  0.1325  0.2838
   12CHTO   H54 4999   5.302  -0.873   2.823  1.2026  0.0189  3.1019
   12CHTO   O20 5000   5.463  -0.916   2.714 -0.2774 -0.3911 -0.1357
   12CHTO   H36 5001   5.443  -0.826   2.696 -0.3399  0.2486  2.9556
   12CHTO   C30 5002   5.269  -1.080   2.730 -0.3111  0.8619 -0.8972
   12CHTO   H58 5003   5.321  -1.172   2.699  0.7922  1.4453 -0.8040
   12CHTO    N6 5004   5.206  -1.040   2.601  0.1578  0.2867  0.2722
   12CHTO   H45 5005   5.103  -1.012   2.619 -0.5302  0.0409 -3.0165
   12CHTO   H46 5006   5.207  -1.122   2.531 -0.3976  0.2043  0.3546
   12CHTO   C33 5007   5.170  -1.140   2.835  0.0672  0.0610 -0.6446
   12CHTO   H61 5008   5.098  -1.058   2.854  1.5291  0.9665  1.1521
   12CHTO   O18 5009   5.234  -1.169   2.960  0.1232  0.3085 -0.0224
   12CHTO   C28 5010   5.307  -1.060   3.027  0.6438  0.0054  0.5823
   12CHTO   H56 5011   5.240  -0.977   3.045 -0.4283 -0.6016 -0.5720
   12CHTO   C35 5012   5.363  -1.106   3.161  0.6890  0.1710  0.1219
   12CHTO   O24 5013   5.254  -1.139   3.252 -0.4088 -0.4698 -0.2552
   12CHTO   H39 5014   5.250  -1.231   3.270 -0.2866 -0.4942 -0.3627
   12CHTO    O9 5015   5.100  -1.253   2.782  0.4387 -0.0689  0.7374
   12CHTO   C13 5016   5.191  -1.378   2.777  0.3529 -0.4233 -0.8468
   12CHTO   H26 5017   5.295  -1.348   2.802 -0.0758 -1.1254  1.9386
   12CHTO   C11 5018   5.182  -1.455   2.633  0.3920 -0.2695  1.0872
   12CHTO   H24 5019   5.225  -1.388   2.557 -3.0074  0.6108 -0.1619
   12CHTO    O8 5020   5.045  -1.473   2.584 -0.3104  0.1181  0.2885
   12CHTO    H3 5021   4.995  -1.395   2.568  0.0894  0.0681 -1.3363
   12CHTO    C9 5022   5.264  -1.584   2.643 -0.0269 -0.6339 -0.6799
   12CHTO   H22 5023   5.356  -1.551   2.693 -0.9781 -0.1746  0.7916
   12CHTO    N2 5024   5.313  -1.650   2.519 -0.4601  0.3358  0.1557
   12CHTO   H10 5025   5.353  -1.748   2.540  2.8349  1.5976  0.2165
   12CHTO   H11 5026   5.232  -1.665   2.449 -0.8796 -0.5795  0.8291
   12CHTO    C7 5027   5.196  -1.677   2.748  0.0275  0.0238  0.2715
   12CHTO   H20 5028   5.257  -1.770   2.743 -0.6552 -0.3768 -0.6468
   12CHTO    O4 5029   5.200  -1.619   2.885 -0.2396  0.9893  0.6131
   12CHTO   C14 5030   5.149  -1.480   2.892 -0.1905 -0.3506  0.3254
   12CHTO   H27 5031   5.187  -1.432   2.984  1.0471  0.1911 -0.4469
   12CHTO   C18 5032   4.990  -1.486   2.903 -0.1933  0.3611  0.5065
   12CHTO   O13 5033   4.932  -1.570   3.007 -0.3418 -0.2493  0.2618
   12CHTO    H7 5034   4.841  -1.563   3.029  0.2000  2.6662  1.9394
   12CHTO    O2 5035   5.066  -1.713   2.713  0.0377  0.3878 -0.0604
   12CHTO    C1 5036   5.019  -1.842   2.675 -0.4677 -0.1390  0.3814
   12CHTO   H14 5037   5.100  -1.918   2.675 -0.4937 -0.1736 -0.3413
   12CHTO    C2 5038   4.959  -1.850   2.532 -0.0517  0.0867 -0.1812
   12CHTO   H15 5039   4.883  -1.772   2.515 -0.2879 -0.0886  0.0584
   12CHTO    O6 5040   5.056  -1.820   2.428 -0.3727 -0.4306  0.1441
   12CHTO    H1 5041   5.033  -1.742   2.380  0.0245  0.5739  1.5720
   12CHTO    C3 5042   4.889  -1.996   2.510  0.2461 -0.0826  0.0181
   12CHTO   H16 5043   4.971  -2.069   2.514  1.8637  1.6522 -0.5477
   12CHTO    N1 5044   4.819  -2.005   2.375  0.5074  0.8280 -0.7652
   12CHTO    H8 5045   4.818  -1.908   2.327 -3.0297  1.0392 -0.3931
   12CHTO    H9 5046   4.717  -2.040   2.388  0.1913  1.3987 -1.6294
   12CHTO    C4 5047   4.798  -2.039   2.637  0.4318  0.3119  0.6019
   12CHTO   H17 5048   4.702  -1.987   2.640  0.8484  1.1129  0.0497
   12CHTO    O1 5049   4.870  -2.025   2.758  0.0381 -0.2964 -0.1513
   12CHTO    C5 5050   4.918  -1.893   2.786 -0.2273 -0.5288 -0.3366
   12CHTO   H18 5051   4.830  -1.829   2.785  0.2159  0.1107 -3.3850
   12CHTO   C16 5052   4.987  -1.887   2.931  0.4809 -0.2289  0.0006
   12CHTO   O11 5053   4.894  -1.922   3.038 -0.2510 -0.1339  0.4752
   12CHTO    H5 5054   4.945  -1.949   3.112  1.3689  0.3446 -0.4371
   12CHTO    O3 5055   4.761  -2.176   2.625  0.1269 -0.6071 -0.4086
   12CHTO    C6 5056   4.727  -2.246   2.744  0.3391  0.1440  0.0567
   12CHTO   H19 5057   4.729  -2.186   2.835  2.4388  0.2168 -0.0103
   12CHTO    C8 5058   4.584  -2.304   2.746  0.0624 -0.3958 -0.4752
   12CHTO   H21 5059   4.574  -2.372   2.661 -0.6579  0.3522 -0.9916
   12CHTO    O7 5060   4.501  -2.186   2.741  0.2127 -0.4102 -0.0680
   12CHTO    H2 5061   4.412  -2.200   2.717 -0.0862 -0.4300  1.0724
   12CHTO   C12 5062   4.550  -2.380   2.883 -0.9920  0.1481 -0.0584
   12CHTO   H25 5063   4.556  -2.305   2.965 -4.0010 -0.3968  0.7313
   12CHTO    N3 5064   4.414  -2.438   2.878  0.4268  0.5330  0.4461
   12CHTO   H12 5065   4.348  -2.390   2.949 -1.5210 -0.1989 -0.8557
   12CHTO   H13 5066   4.415  -2.546   2.887 -0.0185  0.4287 -0.6737
   12CHTO   C15 5067   4.665  -2.488   2.909 -0.1229 -0.7204 -0.4074
   12CHTO   H28 5068   4.657  -2.579   2.848 -2.8513 -1.9974  1.7381
   12CHTO   O10 5069   4.675  -2.526   3.048 -0.1934 -0.0193 -0.6809
   12CHTO    H4 5070   4.597  -2.505   3.095 -0.1413  1.0456 -1.0593
   12CHTO    O5 5071   4.799  -2.429   2.898 -0.3350  0.0601 -0.2847
   12CHTO   C10 5072   4.825  -2.368   2.768  0.4507 -0.2308  0.3544
   12CHTO   H23 5073   4.807  -2.435   2.684 -1.2039  0.8015 -0.1526
   12CHTO   C17 5074   4.969  -2.322   2.767  0.4304 -0.0388  0.2607
   12CHTO   O12 5075   5.054  -2.433   2.795  0.0313  0.2255 -0.0889
   12CHTO    H6 5076   5.047  -2.449   2.887 -0.3716  0.2895 -0.1076
   13CHTO  H203 5077   8.801   4.434   1.680  2.1008 -0.6702  1.0547
   13CHTO   O82 5078   8.799   4.514   1.730  0.4471 -0.1244  0.1510
   13CHTO  C123 5079   8.854   4.620   1.658 -0.0603  0.0780 -0.1689
   13CHTO  H227 5080   8.952   4.591   1.617  0.4155  1.1608  0.1756
   13CHTO   O77 5081   8.755   4.644   1.557  0.1858 -0.2644  0.7386
   13CHTO  C118 5082   8.771   4.769   1.483 -0.4872  0.3285 -0.5172
   13CHTO  H222 5083   8.869   4.765   1.433  0.1466 -2.5736  0.8387
   13CHTO  C125 5084   8.661   4.767   1.376 -0.5205  0.8175  0.0641
   13CHTO   O84 5085   8.524   4.747   1.414 -0.0845  0.3155 -0.1339
   13CHTO  H205 5086   8.495   4.659   1.398  0.6508 -0.3098  1.8408
   13CHTO  C114 5087   8.753   4.884   1.576  0.0311 -0.3254 -0.1999
   13CHTO  H218 5088   8.654   4.881   1.623 -0.9752 -0.7403 -2.2634
   13CHTO  C116 5089   8.874   4.883   1.678  0.6666 -0.7316  0.0583
   13CHTO  H220 5090   8.972   4.893   1.626  0.4547 -1.5369 -0.5135
   13CHTO   O79 5091   8.869   5.002   1.758 -0.2966 -0.0994  0.1468
   13CHTO  H201 5092   8.793   5.001   1.813  0.9885 -0.8692  1.9344
   13CHTO  C120 5093   8.864   4.745   1.754  0.2135 -0.6135  0.1734
   13CHTO  H224 5094   8.770   4.746   1.813  0.1738  2.0208  0.1298
   13CHTO   N21 5095   8.982   4.726   1.849 -0.0180 -0.3540 -0.8271
   13CHTO  H211 5096   9.045   4.644   1.819 -0.7096 -1.1243 -0.1846
   13CHTO  H212 5097   9.036   4.819   1.838 -2.4791  0.9646 -2.5151
   13CHTO   O75 5098   8.754   5.001   1.490  0.4146  0.3041  0.0094
   13CHTO  C112 5099   8.666   5.127   1.542  0.2911 -0.7549  0.4592
   13CHTO  H216 5100   8.726   5.219   1.550 -1.7146  0.7465 -1.3539
   13CHTO   O73 5101   8.609   5.093   1.673 -0.3168  0.2526  0.0556
   13CHTO  C113 5102   8.523   5.182   1.745 -0.1760  0.1835 -0.0614
   13CHTO  H217 5103   8.580   5.276   1.759 -1.1112  0.7797 -0.2813
   13CHTO  C124 5104   8.488   5.133   1.885  0.0493  0.1908 -0.4236
   13CHTO   O83 5105   8.407   5.017   1.877  0.0180 -0.2547  0.1604
   13CHTO  H204 5106   8.330   5.030   1.826 -0.1621  1.6511  0.8960
   13CHTO  C109 5107   8.401   5.200   1.655 -0.0021  0.5357  0.3785
   13CHTO  H213 5108   8.346   5.104   1.661  0.2288  0.4755  1.6656
   13CHTO  C110 5109   8.441   5.249   1.512  0.1714 -0.0475 -1.0106
   13CHTO  H214 5110   8.468   5.354   1.523 -1.9640  0.5840 -1.5158
   13CHTO   O78 5111   8.329   5.247   1.428 -0.0144 -0.5583  0.2150
   13CHTO  H200 5112   8.255   5.289   1.468  1.1671  2.1587 -0.3648
   13CHTO  C111 5113   8.555   5.162   1.441 -0.0802 -0.5994 -0.4295
   13CHTO  H215 5114   8.507   5.068   1.409  0.8277 -0.6346 -1.7081
   13CHTO   N19 5115   8.613   5.217   1.313 -0.6167 -0.8404  0.2936
   13CHTO  H207 5116   8.580   5.313   1.278 -0.3695 -1.6091 -2.1919
   13CHTO  H208 5117   8.619   5.156   1.224  0.2373  1.2910 -1.1626
   13CHTO   O74 5118   8.317   5.304   1.716  0.3928  0.0231 -0.6620
   13CHTO  C115 5119   8.164   5.304   1.678  0.0968  0.4708 -0.1171
   13CHTO  H219 5120   8.144   5.369   1.593 -0.6153  1.2953  0.6714
   13CHTO   O76 5121   8.115   5.162   1.637  0.5457  0.4407  0.5716
   13CHTO  C122 5122   7.969   5.150   1.601 -0.5106  0.2162 -0.0573
   13CHTO  H226 5123   7.952   5.044   1.584  2.2034 -0.5729  1.6542
   13CHTO  C126 5124   7.943   5.222   1.463  0.0499  0.0656 -0.2122
   13CHTO   O85 5125   8.008   5.154   1.355 -0.1945  0.0867  0.2325
   13CHTO  H206 5126   8.028   5.218   1.290  1.1553 -0.2538  0.2965
   13CHTO  C121 5127   7.882   5.198   1.720  0.3366 -0.3413  0.5025
   13CHTO  H225 5128   7.778   5.202   1.680  0.9023 -1.1965 -1.0969
   13CHTO   O81 5129   7.876   5.103   1.821 -0.8449  0.7368 -0.0043
   13CHTO  H202 5130   7.806   5.130   1.877 -0.6132  0.0729  0.6033
   13CHTO  C119 5131   7.926   5.333   1.766 -0.1889  0.5826  0.5123
   13CHTO  H223 5132   7.906   5.399   1.681  1.4475 -0.6874 -0.9039
   13CHTO  C117 5133   8.074   5.336   1.810 -0.3581  0.6327 -0.1756
   13CHTO  H221 5134   8.095   5.271   1.895  0.1759 -0.0234 -0.7963
   13CHTO   N20 5135   8.097   5.476   1.858 -0.2761 -0.6048 -0.0787
   13CHTO  H209 5136   8.127   5.546   1.782  1.9211 -0.9474  0.4350
   13CHTO  H210 5137   8.172   5.468   1.935 -1.4854  0.7886  1.2613
   13CHTO   O80 5138   7.819   5.398   1.883  0.4518 -0.2746 -0.0755
   13CHTO  C103 5139   7.669   5.464   1.846 -0.9443 -0.1047  0.3881
   13CHTO  H190 5140   7.640   5.532   1.926 -2.8492  1.3949 -1.5241
   13CHTO  C101 5141   7.653   5.546   1.707 -0.2953  0.5507 -0.7784
   13CHTO  H188 5142   7.689   5.484   1.625  0.2842  1.6387 -1.3587
   13CHTO   O68 5143   7.742   5.671   1.711  0.5152  0.5899  0.3650
   13CHTO  H168 5144   7.726   5.712   1.627 -3.0033 -0.9033  0.2337
   13CHTO   C99 5145   7.498   5.584   1.678  0.0184 -0.1270  0.4436
   13CHTO  H186 5146   7.464   5.655   1.756 -0.7187 -1.8274  1.7009
   13CHTO   N17 5147   7.482   5.651   1.543  0.1588 -0.3216 -0.3227
   13CHTO  H174 5148   7.386   5.699   1.545 -0.0674 -0.7852 -0.0100
   13CHTO  H175 5149   7.560   5.726   1.540 -1.4943  1.5218  1.2620
   13CHTO   C97 5150   7.406   5.458   1.690  0.6627 -0.3907 -0.4574
   13CHTO  H184 5151   7.427   5.388   1.607 -2.0644 -0.6170 -0.9902
   13CHTO   O64 5152   7.428   5.397   1.822  0.7493  0.3672  0.4997
   13CHTO  C104 5153   7.563   5.346   1.845 -0.1614 -0.0352  0.4446
   13CHTO  H191 5154   7.586   5.278   1.762 -0.9360  0.9194 -0.5680
   13CHTO  C108 5155   7.564   5.265   1.972  0.4617 -0.5027  0.0500
   13CHTO   O71 5156   7.510   5.360   2.071 -0.2666  0.0414 -0.7183
   13CHTO  H171 5157   7.475   5.312   2.144  1.6804  0.5634  0.6162
   13CHTO   O62 5158   7.261   5.489   1.681 -0.1749  0.1734 -0.5149
   13CHTO   C91 5159   7.183   5.382   1.615 -0.4489 -0.3151  0.8324
   13CHTO  H178 5160   7.244   5.298   1.581  0.6981  0.1182  1.7848
   13CHTO   C92 5161   7.124   5.436   1.483  0.8065  0.4303 -0.7215
   13CHTO  H179 5162   7.066   5.527   1.503  0.2524 -0.0505 -0.1209
   13CHTO   O66 5163   7.232   5.475   1.391  0.3267 -0.1502  0.3684
   13CHTO  H166 5164   7.223   5.554   1.341  0.2601  0.6501  1.6457
   13CHTO   C93 5165   7.040   5.318   1.410 -0.5451 -0.4022 -0.9437
   13CHTO  H180 5166   7.115   5.240   1.390 -1.3199 -0.8690 -2.1031
   13CHTO   N16 5167   6.976   5.363   1.284  0.1184 -0.3097  0.0281
   13CHTO  H172 5168   6.947   5.271   1.235  0.2125 -0.5418  0.4035
   13CHTO  H173 5169   7.049   5.427   1.236 -1.2396  2.1936  1.2172
   13CHTO   C94 5170   6.928   5.268   1.511  0.1582  0.2300  0.0261
   13CHTO  H181 5171   6.869   5.352   1.549  1.6293  1.5553 -0.5710
   13CHTO   O61 5172   6.986   5.218   1.633 -0.6501 -0.3234 -0.3287
   13CHTO   C95 5173   7.063   5.323   1.700 -0.3603  0.0489  0.2660
   13CHTO  H182 5174   7.001   5.408   1.729  0.1723  1.1374 -1.7007
   13CHTO  C106 5175   7.108   5.271   1.841 -0.2798 -0.2179  1.1459
   13CHTO   O69 5176   7.200   5.163   1.827  0.1427 -0.4035  0.2195
   13CHTO  H169 5177   7.279   5.190   1.782 -0.0916  0.6434  0.4220
   13CHTO   O63 5178   6.834   5.152   1.449 -0.2064 -0.4368 -0.0926
   13CHTO   C96 5179   6.676   5.142   1.505  0.3522  0.3354  0.6807
   13CHTO  H183 5180   6.610   5.071   1.456  1.2608 -0.1009  0.0882
   13CHTO   C98 5181   6.596   5.277   1.485 -0.0826  0.1134 -0.1450
   13CHTO  H185 5182   6.649   5.356   1.541  0.3464 -0.1457 -0.1838
   13CHTO   O67 5183   6.600   5.319   1.348 -0.3970 -0.8351  0.3725
   13CHTO  H167 5184   6.686   5.305   1.312  0.3215 -0.0546  1.7208
   13CHTO  C102 5185   6.453   5.278   1.533  0.3327  0.2736  0.0278
   13CHTO  H189 5186   6.403   5.201   1.473  0.5195  1.4821 -1.6962
   13CHTO   N18 5187   6.367   5.402   1.523 -0.7674 -0.8449 -0.3392
   13CHTO  H176 5188   6.413   5.490   1.483 -2.0851 -0.2611 -0.5809
   13CHTO  H177 5189   6.264   5.413   1.556 -0.3584  1.0544  0.3488
   13CHTO  C105 5190   6.454   5.233   1.685  0.3045 -0.2726 -0.2362
   13CHTO  H192 5191   6.503   5.309   1.745  0.2344  0.0236 -0.5544
   13CHTO   O65 5192   6.530   5.111   1.701 -0.7893 -0.1269  0.1388
   13CHTO  C100 5193   6.670   5.117   1.664 -0.0468 -0.1651  0.2112
   13CHTO  H187 5194   6.723   5.199   1.714 -1.3536 -0.3961  2.0613
   13CHTO  C107 5195   6.753   4.990   1.702 -0.4138 -0.4762  0.3468
   13CHTO   O70 5196   6.751   4.968   1.843 -0.0388  0.3740  0.1624
   13CHTO  H170 5197   6.663   4.941   1.857  0.2960 -1.0773 -0.5295
   13CHTO   O57 5198   6.298   5.202   1.733  0.7013 -0.3831  0.1853
   13CHTO   C85 5199   6.214   5.103   1.675 -0.3364  0.0850 -0.1367
   13CHTO  H157 5200   6.261   5.071   1.580 -0.4398 -0.1761 -0.1009
   13CHTO   C83 5201   6.084   5.163   1.631 -0.0921 -0.3033  1.0407
   13CHTO  H155 5202   6.095   5.244   1.559 -0.8400 -0.8485  0.2966
   13CHTO   O56 5203   6.020   5.232   1.738 -0.0570  0.9353 -0.1793
   13CHTO  H135 5204   6.007   5.173   1.809 -0.9689  0.0748 -1.0323
   13CHTO   C81 5205   5.997   5.056   1.558  0.1091 -0.0463 -0.7444
   13CHTO  H153 5206   6.047   5.029   1.465  0.5187  4.2722 -1.8926
   13CHTO   N14 5207   5.870   5.112   1.500  0.7379 -0.2506  0.3153
   13CHTO  H141 5208   5.825   5.027   1.453  2.0385  0.8792 -3.0605
   13CHTO  H142 5209   5.885   5.187   1.425  1.5541  0.2075  0.9193
   13CHTO   C79 5210   5.967   4.930   1.649 -0.4751 -0.0781  0.0528
   13CHTO  H151 5211   5.914   4.856   1.589 -0.7998  1.5363 -1.7023
   13CHTO   O52 5212   6.099   4.882   1.699 -0.7833 -0.0514  0.1943
   13CHTO   C86 5213   6.175   4.980   1.769  0.4398 -0.1863  0.2600
   13CHTO  H158 5214   6.102   5.019   1.844 -1.3948 -1.5832 -0.7657
   13CHTO   C90 5215   6.290   4.906   1.850 -0.1608 -0.0096 -0.1932
   13CHTO   O60 5216   6.234   4.791   1.923  0.2861  0.2307  0.2649
   13CHTO  H138 5217   6.302   4.726   1.928 -1.7512 -2.1090 -1.1610
   13CHTO   O50 5218   5.881   4.968   1.761  0.0522  0.4664 -0.7170
   13CHTO   C73 5219   5.767   4.917   1.835  0.2731  0.2192 -0.1580
   13CHTO  H145 5220   5.705   4.846   1.779  1.6806  0.3435 -1.9419
   13CHTO   C74 5221   5.680   5.035   1.871 -0.2679 -0.1812 -0.0951
   13CHTO  H146 5222   5.660   5.093   1.780  0.3137  0.2182  0.0264
   13CHTO   O54 5223   5.556   4.989   1.920 -0.6763  0.5370 -0.4129
   13CHTO  H133 5224   5.500   5.061   1.940  0.0363  1.2163 -0.8161
   13CHTO   C75 5225   5.759   5.124   1.974 -0.1183  0.1304 -0.3831
   13CHTO  H147 5226   5.853   5.157   1.930 -0.4992 -0.5024 -1.6946
   13CHTO   N13 5227   5.689   5.247   2.015 -0.2491  0.2436  0.2564
   13CHTO  H139 5228   5.671   5.311   1.930 -0.9409 -0.0834  0.1554
   13CHTO  H140 5229   5.590   5.224   2.052 -0.8141 -1.2959 -2.0876
   13CHTO   C76 5230   5.800   5.032   2.100  0.3405  0.0213 -0.2473
   13CHTO  H148 5231   5.715   4.980   2.144  1.8895 -0.4031  2.3231
   13CHTO   O49 5232   5.888   4.927   2.057  0.3963  0.5177 -0.7376
   13CHTO   C77 5233   5.822   4.839   1.964 -0.3446 -0.5523  0.3670
   13CHTO  H149 5234   5.739   4.786   2.011 -1.7547  0.9241 -0.4064
   13CHTO   C88 5235   5.912   4.720   1.927 -0.2775 -0.6804 -0.0253
   13CHTO   O58 5236   5.840   4.618   1.853  0.2748  0.6074  0.8686
   13CHTO  H136 5237   5.797   4.557   1.910 -0.8794 -0.4823 -1.0981
   13CHTO   O51 5238   5.881   5.117   2.207 -0.0622 -0.1813  0.1331
   13CHTO   C78 5239   6.036   5.190   2.203  0.2452  0.5236 -0.3336
   13CHTO  H150 5240   6.057   5.233   2.303 -0.0515  1.1076 -0.5230
   13CHTO   C80 5241   6.034   5.301   2.101 -0.2518  0.3319  0.2049
   13CHTO  H152 5242   6.005   5.251   2.006  1.3118  2.0346 -1.2139
   13CHTO   O55 5243   5.941   5.401   2.140 -0.3265 -0.0166  0.4526
   13CHTO  H134 5244   5.971   5.470   2.196  1.3377 -1.8369  1.8643
   13CHTO   C84 5245   6.174   5.367   2.067 -0.9761  0.2108 -0.7956
   13CHTO  H156 5246   6.193   5.436   2.149 -0.4197  0.3706 -1.0604
   13CHTO   N15 5247   6.179   5.451   1.942  0.0021 -0.0248  0.3090
   13CHTO  H143 5248   6.128   5.543   1.960  0.0126  0.0175  0.1283
   13CHTO  H144 5249   6.279   5.471   1.909 -0.1473 -0.5906 -0.5156
   13CHTO   C87 5250   6.290   5.262   2.057 -0.0823 -0.2621  0.2028
   13CHTO  H159 5251   6.314   5.215   1.962 -0.2400 -1.0500  0.5472
   13CHTO   O53 5252   6.266   5.150   2.147 -0.0750 -0.2116  0.4895
   13CHTO   C82 5253   6.141   5.085   2.160  0.0709  0.7557  1.1525
   13CHTO  H154 5254   6.100   5.040   2.069 -2.9052 -0.0110  2.8128
   13CHTO   C89 5255   6.142   4.965   2.266  0.3705 -0.0808  0.5809
   13CHTO   O59 5256   6.190   5.008   2.388 -0.3153 -0.5623 -0.4507
   13CHTO  H137 5257   6.141   5.074   2.433 -0.9812 -1.0253 -0.4923
   13CHTO   O45 5258   6.427   5.332   2.111  0.0160 -0.4091 -0.2803
   13CHTO   C67 5259   6.542   5.255   2.078 -0.0945  0.5595 -0.3316
   13CHTO  H124 5260   6.523   5.174   2.007  1.8970 -1.3660  1.2697
   13CHTO   C65 5261   6.658   5.349   2.030 -0.0870  0.0447 -0.1568
   13CHTO  H122 5262   6.601   5.400   1.953  1.2790 -1.0505 -1.9453
   13CHTO   O44 5263   6.762   5.272   1.968  0.1680 -0.1492  0.0366
   13CHTO  H102 5264   6.756   5.264   1.875 -0.6335 -1.1129  0.1577
   13CHTO   C63 5265   6.690   5.451   2.142 -1.0435 -0.5594  0.4307
   13CHTO  H120 5266   6.601   5.511   2.161  0.6611  0.9105  4.1896
   13CHTO   N11 5267   6.795   5.558   2.113  0.1350  0.2886 -0.3534
   13CHTO  H108 5268   6.886   5.543   2.169  0.8226 -1.4563 -1.9075
   13CHTO  H109 5269   6.744   5.652   2.118  0.8776  0.6518  0.7017
   13CHTO   C61 5270   6.732   5.377   2.274 -0.0587 -0.3325  0.0491
   13CHTO  H118 5271   6.729   5.456   2.349  1.6918 -0.7560  0.5944
   13CHTO   O40 5272   6.628   5.281   2.316 -0.1080  0.0897  0.3332
   13CHTO   C68 5273   6.583   5.182   2.218 -0.3464  0.4542  0.5478
   13CHTO  H125 5274   6.490   5.138   2.259 -0.3965 -0.9269 -0.9730
   13CHTO   C72 5275   6.680   5.067   2.198  0.6904  0.0917  0.1290
   13CHTO   O48 5276   6.621   4.975   2.112 -0.0241  0.2752  0.9644
   13CHTO  H105 5277   6.537   4.953   2.147 -1.2217 -2.6817 -3.4093
   13CHTO   O38 5278   6.857   5.306   2.290  0.6849 -0.6831 -0.5661
   13CHTO   C55 5279   6.935   5.312   2.411 -0.1018 -0.9694 -0.0860
   13CHTO  H112 5280   6.978   5.212   2.428  0.8527 -0.6284 -0.4718
   13CHTO   C56 5281   6.870   5.368   2.551  0.1379  0.3285  0.2966
   13CHTO  H113 5282   6.835   5.472   2.543 -2.1449 -0.5334 -1.8678
   13CHTO   O42 5283   6.753   5.299   2.585  0.0883 -0.1320 -0.1530
   13CHTO  H100 5284   6.717   5.269   2.503 -0.5102 -1.1887  0.4868
   13CHTO   C57 5285   6.979   5.355   2.667 -0.0079  0.2509 -0.0405
   13CHTO  H114 5286   7.015   5.253   2.683 -1.0101  0.3082  2.9068
   13CHTO   N10 5287   6.935   5.408   2.799 -0.1645  0.2465  0.2614
   13CHTO  H106 5288   7.025   5.426   2.856 -0.8467  1.5087  0.9650
   13CHTO  H107 5289   6.887   5.503   2.781  0.2022  0.4908  0.5730
   13CHTO   C58 5290   7.105   5.436   2.621 -0.4022 -0.3032  0.3935
   13CHTO  H115 5291   7.082   5.544   2.626 -1.7213 -0.6480  2.5356
   13CHTO   O37 5292   7.149   5.395   2.490 -0.3459  0.1651  0.3205
   13CHTO   C59 5293   7.059   5.401   2.382  0.0907 -0.3686  0.4221
   13CHTO  H116 5294   7.034   5.505   2.363  2.0742 -0.2179 -1.6338
   13CHTO   C70 5295   7.133   5.358   2.254 -0.3968  0.7681  0.5128
   13CHTO   O46 5296   7.199   5.226   2.263 -0.1387 -0.4725 -0.1556
   13CHTO  H103 5297   7.135   5.162   2.285 -1.1452  1.2294  2.0644
   13CHTO   O39 5298   7.230   5.403   2.736 -0.2601  0.3697  0.5994
   13CHTO   C60 5299   7.328   5.506   2.723 -0.2842 -0.6421 -0.4911
   13CHTO  H117 5300   7.327   5.538   2.619 -0.0937 -2.8731 -1.2126
   13CHTO   C62 5301   7.291   5.630   2.817 -0.1700 -0.5592  0.1871
   13CHTO  H119 5302   7.183   5.652   2.802 -0.5264 -1.2405  1.5955
   13CHTO   O43 5303   7.297   5.583   2.955  0.6760 -0.8578  0.0302
   13CHTO  H101 5304   7.306   5.656   3.013  0.2922 -2.0952  1.6902
   13CHTO   C66 5305   7.387   5.756   2.770 -0.1721 -0.5103 -0.4575
   13CHTO  H123 5306   7.369   5.777   2.664 -0.0512 -0.8772 -0.5523
   13CHTO   N12 5307   7.350   5.885   2.835 -0.3259  0.1141  0.4428
   13CHTO  H110 5308   7.340   5.871   2.942 -0.3726  0.1308  0.4407
   13CHTO  H111 5309   7.408   5.974   2.818 -1.4692  1.3560  2.7526
   13CHTO   C69 5310   7.533   5.706   2.785 -0.2545 -0.3356 -0.2338
   13CHTO  H126 5311   7.567   5.703   2.891  1.7866  1.5474 -0.7897
   13CHTO   O41 5312   7.567   5.562   2.721 -0.2951  0.0055 -0.1296
   13CHTO   C64 5313   7.468   5.458   2.760 -0.3181  0.1461 -0.1028
   13CHTO  H121 5314   7.473   5.443   2.869  0.5141  0.5850 -0.0825
   13CHTO   C71 5315   7.515   5.337   2.693  0.4396 -0.3181  0.6753
   13CHTO   O47 5316   7.613   5.264   2.769 -0.1018 -0.1971 -0.4877
   13CHTO  H104 5317   7.564   5.187   2.791 -0.3030  0.1130  0.1658
   13CHTO   O34 5318   7.622   5.806   2.720  0.1764  0.0704 -0.2882
   13CHTO   C49 5319   7.757   5.868   2.753 -0.4632 -0.3587  0.0588
   13CHTO   H91 5320   7.830   5.787   2.753  1.3821  1.2680  0.5638
   13CHTO   C47 5321   7.752   5.933   2.891  0.3732  0.0331 -0.0206
   13CHTO   H89 5322   7.860   5.954   2.908  0.6889 -0.4460 -1.3692
   13CHTO   O33 5323   7.712   5.846   2.990  0.6978 -0.0047 -0.2760
   13CHTO   H70 5324   7.780   5.781   2.987  0.8947  0.2409 -1.2630
   13CHTO   C45 5325   7.664   6.069   2.903 -0.2751 -0.5466  0.8686
   13CHTO   H87 5326   7.570   6.040   2.952  1.4219 -3.4538  2.5180
   13CHTO    N8 5327   7.735   6.170   2.984  0.5874  0.4462 -0.3940
   13CHTO   H75 5328   7.832   6.140   3.022  0.0166 -1.9734 -0.7653
   13CHTO   H76 5329   7.750   6.256   2.922  1.5556  2.2997  2.3089
   13CHTO   C43 5330   7.625   6.121   2.753 -0.1155 -0.4424 -0.0385
   13CHTO   H85 5331   7.553   6.048   2.714  1.6199 -1.8736 -0.6608
   13CHTO   O29 5332   7.752   6.119   2.678 -0.0587 -0.1873 -0.0507
   13CHTO   C50 5333   7.810   5.990   2.653  0.5105 -0.2553  0.0699
   13CHTO   H92 5334   7.780   5.968   2.549 -0.2174  1.7634 -0.1696
   13CHTO   C54 5335   7.967   6.009   2.655  0.2823 -0.2675 -0.8093
   13CHTO   O36 5336   8.016   6.105   2.567 -0.2914  0.3782  0.8544
   13CHTO   H72 5337   8.096   6.143   2.598  1.2278 -0.5188 -1.7932
   13CHTO   O27 5338   7.557   6.242   2.743 -0.5743 -0.3484 -0.1369
   13CHTO   C37 5339   7.550   6.379   2.777  0.1636  0.5173 -0.5246
   13CHTO   H79 5340   7.596   6.400   2.874  0.5819  0.4351 -0.7038
   13CHTO   C38 5341   7.631   6.462   2.669 -0.5141  0.3054  0.1316
   13CHTO   H80 5342   7.602   6.427   2.569 -0.6448  1.7130 -0.3240
   13CHTO   O31 5343   7.774   6.438   2.680 -0.2502  0.4172  0.1193
   13CHTO   H68 5344   7.825   6.498   2.628  2.1966 -1.2313  0.5519
   13CHTO   C39 5345   7.598   6.617   2.675  0.0693 -1.0398  0.0992
   13CHTO   H81 5346   7.643   6.672   2.757  0.3486 -0.4797 -0.4294
   13CHTO    N7 5347   7.643   6.685   2.546  0.3266  0.0934  0.8210
   13CHTO   H73 5348   7.737   6.650   2.506  0.6987  2.6473 -0.6666
   13CHTO   H74 5349   7.571   6.701   2.468  1.1376 -1.3737 -0.2462
   13CHTO   C40 5350   7.443   6.635   2.690  0.2162  0.1733 -0.2229
   13CHTO   H82 5351   7.380   6.622   2.602  0.4751 -0.7878 -0.2738
   13CHTO   O26 5352   7.388   6.562   2.802  0.2589 -0.4465  0.4043
   13CHTO   C41 5353   7.399   6.421   2.776 -0.3909 -0.8825 -0.6662
   13CHTO   H83 5354   7.356   6.401   2.677  2.4842 -0.5411 -2.0235
   13CHTO   C52 5355   7.322   6.352   2.896  0.1664 -0.2945  0.0863
   13CHTO   O35 5356   7.377   6.368   3.023  0.2938 -0.4208 -0.2028
   13CHTO   H71 5357   7.423   6.291   3.053 -2.1445 -1.2933  1.4616
   13CHTO   O28 5358   7.409   6.762   2.751 -0.6633 -0.1027  0.1708
   13CHTO   C42 5359   7.367   6.880   2.673  0.1031 -0.2315 -0.9686
   13CHTO   H84 5360   7.409   6.866   2.574  0.9477 -0.9620 -0.5064
   13CHTO   C44 5361   7.414   7.018   2.733 -0.1846  0.8162 -0.5408
   13CHTO   H86 5362   7.361   7.033   2.827 -1.9728 -0.5631 -1.3255
   13CHTO   O32 5363   7.556   7.012   2.763  0.4325  0.2091  0.1263
   13CHTO   H69 5364   7.596   7.096   2.749 -0.3204  0.2587 -1.8916
   13CHTO   C48 5365   7.367   7.145   2.654  1.0113 -0.6441 -0.3963
   13CHTO   H90 5366   7.408   7.143   2.554 -1.9266 -0.8307 -1.6556
   13CHTO    N9 5367   7.401   7.275   2.717  0.7928  0.4314 -0.5264
   13CHTO   H77 5368   7.348   7.347   2.656  0.2426  0.7688  0.3429
   13CHTO   H78 5369   7.376   7.269   2.821  0.2285  1.1237 -0.6147
   13CHTO   C51 5370   7.212   7.138   2.624 -0.7530 -0.1149  0.5337
   13CHTO   H93 5371   7.159   7.153   2.718 -1.4203  2.3310 -0.1941
   13CHTO   O30 5372   7.184   7.009   2.562  0.4470  0.3190 -0.3874
   13CHTO   C46 5373   7.212   6.889   2.648 -0.3673 -0.3610  0.0686
   13CHTO   H88 5374   7.171   6.914   2.746  1.2282 -2.3184  1.2777
   13CHTO   C53 5375   7.157   6.762   2.580 -0.3276  0.0641  1.0074
   13CHTO   O72 5376   7.017   6.773   2.573 -0.0930  0.0708  0.0061
   13CHTO  H199 5377   7.002   6.857   2.534 -1.1823 -0.0759  0.0769
   13CHTO   O22 5378   7.156   7.222   2.526 -0.5703  0.3442  0.0812
   13CHTO   C31 5379   7.018   7.255   2.518 -0.2352  0.2796 -0.1102
   13CHTO   H59 5380   7.007   7.314   2.424 -0.0260 -0.7739 -0.7977
   13CHTO   C29 5381   6.904   7.145   2.514 -0.0096 -0.3068 -0.7464
   13CHTO   H57 5382   6.911   7.076   2.600 -3.0320  0.7117  0.3682
   13CHTO   O21 5383   6.933   7.065   2.402  0.1578 -0.4532  0.0237
   13CHTO   H37 5384   7.024   7.050   2.389  0.6305 -0.0733  2.6511
   13CHTO   C27 5385   6.758   7.205   2.513 -0.5206 -0.0168  0.6893
   13CHTO   H55 5386   6.743   7.259   2.418  2.3012 -3.5825 -1.9675
   13CHTO    N5 5387   6.645   7.106   2.527 -0.0457  0.2434  0.2366
   13CHTO   H43 5388   6.559   7.172   2.520 -0.3650  0.1971  3.2036
   13CHTO   H44 5389   6.645   7.034   2.447  2.1156  2.0242 -1.4364
   13CHTO   C25 5390   6.752   7.322   2.623  0.0184 -0.9439  0.2185
   13CHTO   H53 5391   6.753   7.280   2.724  0.3004 -0.2014  0.5280
   13CHTO   O17 5392   6.859   7.419   2.611  0.1264  0.4216  0.2807
   13CHTO   C32 5393   6.988   7.358   2.635  0.0218  0.0152  0.1160
   13CHTO   H60 5394   6.995   7.305   2.731 -1.3915 -1.7198 -0.6911
   13CHTO   C36 5395   7.088   7.478   2.642 -0.2645 -0.2252  0.3594
   13CHTO   O25 5396   7.069   7.564   2.529  0.8112 -0.3225  0.1194
   13CHTO   H40 5397   6.983   7.563   2.492  0.8350 -1.5091  0.0863
   13CHTO   O15 5398   6.625   7.406   2.599 -0.0099  0.1994  0.1328
   13CHTO   C19 5399   6.516   7.491   2.606 -0.2004 -0.3872  0.4146
   13CHTO   H47 5400   6.532   7.542   2.702  0.1373 -1.1136  0.7398
   13CHTO   C20 5401   6.506   7.598   2.499  0.2954  0.8149 -0.0503
   13CHTO   H48 5402   6.515   7.551   2.400 -0.7816 -0.5175  0.4772
   13CHTO   O19 5403   6.625   7.678   2.513  0.1128  0.0493 -0.1930
   13CHTO   H35 5404   6.701   7.625   2.504  1.5502  1.5632  2.4623
   13CHTO   C21 5405   6.372   7.689   2.500  0.8617 -0.4551  0.1442
   13CHTO   H49 5406   6.372   7.744   2.595  0.7157 -0.7687  0.3268
   13CHTO    N4 5407   6.370   7.785   2.391 -0.1278  0.4771  0.3436
   13CHTO   H41 5408   6.337   7.879   2.434  1.5239  0.6583  1.2564
   13CHTO   H42 5409   6.305   7.756   2.311 -1.1224  2.9833  0.2010
   13CHTO   C22 5410   6.258   7.585   2.501 -0.2373 -0.2723 -0.6174
   13CHTO   H50 5411   6.276   7.538   2.405  2.7943  2.0284 -1.2822
   13CHTO   O14 5412   6.265   7.498   2.618  0.6391  0.3849 -0.5506
   13CHTO   C23 5413   6.377   7.408   2.621  0.1520 -0.4734 -0.6338
   13CHTO   H51 5414   6.365   7.331   2.543 -0.4467 -2.0886  1.0117
   13CHTO   C34 5415   6.368   7.332   2.756 -0.0111  0.3978  0.2051
   13CHTO   O23 5416   6.396   7.408   2.874  0.6343  0.3684 -0.2482
   13CHTO   H38 5417   6.371   7.498   2.860  1.0690  0.6274  0.6103
   13CHTO   O16 5418   6.123   7.634   2.520  0.6979  1.0388 -0.1737
   13CHTO   C24 5419   5.990   7.526   2.568  0.2659  0.0404 -0.5848
   13CHTO   H52 5420   6.006   7.484   2.668 -2.2782 -0.6191 -0.4224
   13CHTO   C26 5421   5.981   7.420   2.461  0.8178  0.1827  0.1139
   13CHTO   H54 5422   5.986   7.467   2.361  0.3130  0.7884  0.3654
   13CHTO   O20 5423   6.087   7.322   2.467 -0.5822  0.6189 -0.4580
   13CHTO   H36 5424   6.074   7.275   2.548  0.6196  0.2937 -0.4435
   13CHTO   C30 5425   5.842   7.340   2.472 -0.2646 -0.0970  0.1773
   13CHTO   H58 5426   5.845   7.258   2.545 -1.0715 -0.4459 -0.1803
   13CHTO    N6 5427   5.811   7.271   2.342  0.4930 -0.2586  0.2643
   13CHTO   H45 5428   5.818   7.336   2.256  0.9256 -1.3995 -0.5783
   13CHTO   H46 5429   5.716   7.219   2.339  0.8485 -0.8776 -0.5689
   13CHTO   C33 5430   5.723   7.441   2.505 -0.2806 -0.0713 -0.1838
   13CHTO   H61 5431   5.709   7.506   2.417  0.6448  0.3829 -0.0035
   13CHTO   O18 5432   5.760   7.522   2.610 -0.4619  0.1943 -0.6163
   13CHTO   C28 5433   5.862   7.616   2.574  0.4275 -0.2576  0.2040
   13CHTO   H56 5434   5.851   7.664   2.477  0.0912 -2.3672 -0.8115
   13CHTO   C35 5435   5.871   7.723   2.684 -0.5921 -0.2357  0.3506
   13CHTO   O24 5436   5.946   7.831   2.652  0.2122 -0.1341 -0.2716
   13CHTO   H39 5437   5.956   7.888   2.726 -2.5769  1.8094 -1.3069
   13CHTO    O9 5438   5.599   7.377   2.529  0.0130  0.2434 -0.3250
   13CHTO   C13 5439   5.578   7.293   2.661 -0.0042 -0.3040 -0.4390
   13CHTO   H26 5440   5.655   7.317   2.738 -2.0917 -3.1486  2.6812
   13CHTO   C11 5441   5.583   7.128   2.626 -0.1267 -0.1348  0.5933
   13CHTO   H24 5442   5.688   7.096   2.624  0.9181  3.2176 -0.3363
   13CHTO    O8 5443   5.528   7.107   2.497  0.4989  0.1951  0.7067
   13CHTO    H3 5444   5.588   7.121   2.426  1.7774 -0.4228  1.6340
   13CHTO    C9 5445   5.507   7.056   2.739 -0.0727 -0.5932  0.3424
   13CHTO   H22 5446   5.567   7.070   2.831 -0.3742  1.7020  0.2149
   13CHTO    N2 5447   5.511   6.908   2.719 -0.5580  0.0861 -0.4059
   13CHTO   H10 5448   5.531   6.871   2.818 -0.7503  1.9837  0.3623
   13CHTO   H11 5449   5.597   6.884   2.658 -0.3490 -1.3268  0.4412
   13CHTO    C7 5450   5.364   7.107   2.779  0.0041  0.2521  0.8256
   13CHTO   H20 5451   5.369   7.116   2.890  0.6687  0.4966  0.7731
   13CHTO    O4 5452   5.332   7.235   2.719  0.1647  0.1273 -0.1026
   13CHTO   C14 5453   5.440   7.332   2.734 -0.3622  0.1866 -0.8227
   13CHTO   H27 5454   5.465   7.337   2.842  2.0454  0.9477 -1.4013
   13CHTO   C18 5455   5.377   7.468   2.695 -0.0777 -0.4550 -0.1511
   13CHTO   O13 5456   5.460   7.575   2.732  0.2057 -0.2616 -0.2472
   13CHTO    H7 5457   5.404   7.650   2.726  0.5650  0.0756  0.4956
   13CHTO    O2 5458   5.238   7.002   2.744  0.5280 -0.5600  0.4825
   13CHTO    C1 5459   5.136   6.993   2.847  0.6439 -0.5548 -0.1392
   13CHTO   H14 5460   5.059   6.928   2.802 -2.6788  1.4362  2.4310
   13CHTO    C2 5461   5.065   7.138   2.890 -0.3054  0.1372  0.2942
   13CHTO   H15 5462   5.154   7.202   2.903 -0.2078  0.3730 -1.4522
   13CHTO    O6 5463   4.982   7.187   2.786  0.2773 -0.0769 -0.0874
   13CHTO    H1 5464   4.891   7.168   2.792  0.1764  0.2605 -0.4961
   13CHTO    C3 5465   4.995   7.131   3.028  0.8805  0.0782  0.2165
   13CHTO   H16 5466   4.895   7.088   3.012  1.0519 -1.0325  2.0682
   13CHTO    N1 5467   4.980   7.271   3.084  0.2861 -0.5449  0.1049
   13CHTO    H8 5468   4.921   7.265   3.174 -0.8991 -0.8326 -0.6811
   13CHTO    H9 5469   4.943   7.344   3.013  1.3397 -1.5280 -1.5180
   13CHTO    C4 5470   5.073   7.040   3.125 -0.4235 -0.4396  0.1768
   13CHTO   H17 5471   5.174   7.078   3.141 -1.1565  1.0597  1.3480
   13CHTO    O1 5472   5.099   6.911   3.068 -0.9338  0.5223  0.2402
   13CHTO    C5 5473   5.201   6.913   2.969  0.3800 -0.2058 -0.3106
   13CHTO   H18 5474   5.289   6.963   3.009 -0.5069 -0.3958  1.9727
   13CHTO   C16 5475   5.237   6.767   2.934 -0.4966 -0.0469 -0.4587
   13CHTO   O11 5476   5.273   6.691   3.048  0.1358  0.0890 -0.4895
   13CHTO    H5 5477   5.309   6.611   3.015 -1.0246  0.8853 -3.9587
   13CHTO    O3 5478   5.012   7.017   3.259 -0.2742  0.1200  0.4784
   13CHTO    C6 5479   4.939   6.900   3.304 -0.5125 -0.1180  0.1594
   13CHTO   H19 5480   4.893   6.851   3.218  0.5384  1.9542 -1.6124
   13CHTO    C8 5481   5.035   6.807   3.391  0.4033  0.9044 -0.0159
   13CHTO   H21 5482   5.091   6.868   3.462 -2.8313  0.2164  3.3020
   13CHTO    O7 5483   5.129   6.737   3.302 -0.1872  0.5435 -0.3861
   13CHTO    H2 5484   5.218   6.755   3.324  0.1252  1.7723 -2.4783
   13CHTO   C12 5485   4.946   6.694   3.461  0.0064  0.1981  0.2653
   13CHTO   H25 5486   4.901   6.639   3.376  1.4913 -1.3306  0.4343
   13CHTO    N3 5487   5.036   6.597   3.540  0.4136 -0.1224 -0.1013
   13CHTO   H12 5488   5.101   6.556   3.464  0.6449 -1.5856  0.8742
   13CHTO   H13 5489   4.973   6.529   3.595 -1.7486  1.5890 -0.3907
   13CHTO   C15 5490   4.839   6.760   3.550 -0.2912  0.5449 -0.0594
   13CHTO   H28 5491   4.877   6.830   3.625 -0.0443 -0.2874  0.6044
   13CHTO   O10 5492   4.740   6.656   3.633 -0.5016  0.0095  0.7909
   13CHTO    H4 5493   4.752   6.658   3.726  0.6133 -1.6815  0.7133
   13CHTO    O5 5494   4.756   6.825   3.452  0.2913 -0.4321  0.1655
   13CHTO   C10 5495   4.826   6.940   3.402  0.8408 -0.0226 -0.1442
   13CHTO   H23 5496   4.868   7.005   3.479  1.1478  0.4649 -0.7156
   13CHTO   C17 5497   4.729   7.033   3.346 -0.2165 -0.3878 -0.5213
   13CHTO   O12 5498   4.644   6.981   3.237  0.0939  0.6256  0.1424
   13CHTO    H6 5499   4.690   6.967   3.157 -0.9201  1.2154 -0.5574
   14CHTO  H203 5500   7.384   4.963   2.027  1.1319  0.6947  0.1338
   14CHTO   O82 5501   7.372   4.948   1.936 -0.2713  0.3386  0.3638
   14CHTO  C123 5502   7.257   4.861   1.915 -0.3538 -0.1673 -0.2968
   14CHTO  H227 5503   7.175   4.915   1.963 -0.8549 -0.0430 -1.2917
   14CHTO   O77 5504   7.231   4.855   1.772  0.3450  0.3155 -0.2075
   14CHTO  C118 5505   7.123   4.785   1.724  0.1224  0.1971  0.2120
   14CHTO  H222 5506   7.035   4.824   1.779 -0.6228 -2.9070  1.3531
   14CHTO  C125 5507   7.097   4.807   1.567 -0.6288  0.3477  0.1437
   14CHTO   O84 5508   7.108   4.942   1.527  0.1235  0.6436  0.0563
   14CHTO  H205 5509   7.068   4.993   1.594  0.5035  0.4323  0.4482
   14CHTO  C114 5510   7.153   4.640   1.758 -0.0700 -0.0256 -0.2155
   14CHTO  H218 5511   7.240   4.610   1.701  1.4852  1.2838  1.4187
   14CHTO  C116 5512   7.189   4.612   1.908 -0.1995 -0.1182  0.1195
   14CHTO  H220 5513   7.096   4.620   1.969 -0.3820  0.0979 -0.1839
   14CHTO   O79 5514   7.245   4.481   1.913 -0.3694  0.5086 -0.2023
   14CHTO  H201 5515   7.177   4.417   1.923  1.1492 -0.8751  1.9699
   14CHTO  C120 5516   7.289   4.714   1.968  0.5452 -0.3679  0.3509
   14CHTO  H224 5517   7.390   4.679   1.941  0.7987 -0.0478  0.8819
   14CHTO   N21 5518   7.294   4.697   2.116  0.3192  0.2045  0.4675
   14CHTO  H211 5519   7.215   4.752   2.165 -0.4788 -0.8233  0.3518
   14CHTO  H212 5520   7.391   4.698   2.163 -0.3841 -0.0455  1.9762
   14CHTO   O75 5521   7.038   4.566   1.708 -0.1729 -0.0484 -0.0729
   14CHTO  C112 5522   6.907   4.534   1.790  0.5005  0.4532  0.1458
   14CHTO  H216 5523   6.867   4.621   1.845 -1.1175 -1.4151  2.0491
   14CHTO   O73 5524   6.938   4.422   1.881 -0.0194  0.2087 -0.3757
   14CHTO  C113 5525   6.822   4.400   1.962 -0.5274  0.4870 -0.5562
   14CHTO  H217 5526   6.767   4.491   1.994 -0.3392  0.7167 -0.8771
   14CHTO  C124 5527   6.870   4.333   2.092 -0.4302  0.4893  0.0417
   14CHTO   O83 5528   6.974   4.401   2.161 -0.1408  0.3957  0.3927
   14CHTO  H204 5529   6.982   4.364   2.246  1.1817  0.5582  0.3632
   14CHTO  C109 5530   6.724   4.311   1.884  0.3704 -0.0328  0.5982
   14CHTO  H213 5531   6.783   4.225   1.850 -2.9013 -1.7421 -0.9652
   14CHTO  C110 5532   6.689   4.394   1.754 -0.2784 -1.2758  0.6956
   14CHTO  H214 5533   6.613   4.466   1.784  0.9362  0.7648 -1.0070
   14CHTO   O78 5534   6.620   4.306   1.656  0.8074 -0.1713  0.0167
   14CHTO  H200 5535   6.528   4.303   1.674  0.9464  2.0702  1.2766
   14CHTO  C111 5536   6.802   4.481   1.679  0.6516  0.0606  0.1532
   14CHTO  H215 5537   6.850   4.417   1.604  1.6913  2.5653 -1.3797
   14CHTO   N19 5538   6.753   4.591   1.594  0.2755  0.2982  0.2990
   14CHTO  H207 5539   6.826   4.651   1.542  1.6943 -0.1114  1.7815
   14CHTO  H208 5540   6.673   4.554   1.532  1.7447  0.1230 -1.5262
   14CHTO   O74 5541   6.620   4.257   1.970 -0.0627  0.3276  0.1743
   14CHTO  C115 5542   6.557   4.131   1.915 -0.1383  0.2237 -0.5616
   14CHTO  H219 5543   6.572   4.121   1.807  0.3489  0.5448 -0.5249
   14CHTO   O76 5544   6.626   3.997   1.972  0.3425 -0.2133  0.0489
   14CHTO  C122 5545   6.544   3.879   1.945 -0.4356 -0.4183  0.1374
   14CHTO  H226 5546   6.586   3.805   2.012  0.1399  0.3400  0.6256
   14CHTO  C126 5547   6.561   3.829   1.808 -0.2817  0.1923  0.3394
   14CHTO   O85 5548   6.673   3.743   1.799  0.3469 -0.4708 -0.3593
   14CHTO  H206 5549   6.688   3.697   1.719  0.6326  0.1824 -0.6876
   14CHTO  C121 5550   6.388   3.886   1.975 -0.2869 -0.7359  0.0263
   14CHTO  H225 5551   6.356   3.794   1.922  2.5018 -1.8030  0.0936
   14CHTO   O81 5552   6.366   3.869   2.114  0.4524 -0.3488  0.2320
   14CHTO  H202 5553   6.344   3.779   2.132 -1.4011 -0.0910 -0.5658
   14CHTO  C119 5554   6.323   4.008   1.905  0.1037 -0.5210  0.3283
   14CHTO  H223 5555   6.336   4.004   1.796 -2.5629 -1.4460  0.0025
   14CHTO  C117 5556   6.400   4.139   1.939  0.1986  0.4675  0.1940
   14CHTO  H221 5557   6.387   4.167   2.044  3.2424  1.7718  0.3101
   14CHTO   N20 5558   6.335   4.254   1.865 -0.2060  0.1354 -0.2285
   14CHTO  H209 5559   6.344   4.247   1.758  2.3590 -1.4968  0.0553
   14CHTO  H210 5560   6.234   4.278   1.896 -0.7792  0.6887 -2.4389
   14CHTO   O80 5561   6.157   4.012   1.914  0.0906 -0.2575 -0.2906
   14CHTO  C103 5562   6.071   4.051   1.780 -0.6734  0.2176  0.0298
   14CHTO  H190 5563   6.133   4.112   1.715  1.0721 -0.9680  0.5604
   14CHTO  C101 5564   6.011   3.926   1.705 -0.6747  0.6421  0.2729
   14CHTO  H188 5565   5.963   3.860   1.777 -0.1456  0.9304  0.8981
   14CHTO   O68 5566   6.136   3.847   1.648  0.6114 -0.9063 -0.1795
   14CHTO  H168 5567   6.158   3.882   1.564 -0.8483 -2.1334 -1.1036
   14CHTO   C99 5568   5.909   3.970   1.596  0.1600 -0.0079  0.1510
   14CHTO  H186 5569   5.962   4.025   1.516 -0.1442 -0.8936 -0.6654
   14CHTO   N17 5570   5.842   3.862   1.518  0.7136 -0.5275 -0.6004
   14CHTO  H174 5571   5.814   3.771   1.569  0.0752 -2.0006 -3.4886
   14CHTO  H175 5572   5.763   3.890   1.450  1.3528 -0.8297 -1.4851
   14CHTO   C97 5573   5.803   4.062   1.651  0.0860 -0.3657  0.1302
   14CHTO  H184 5574   5.742   4.005   1.723  1.0613 -0.2196  1.0864
   14CHTO   O64 5575   5.873   4.175   1.711  0.0553  0.2420  0.2151
   14CHTO  C104 5576   5.944   4.133   1.828  0.4781  0.1716 -0.1107
   14CHTO  H191 5577   5.883   4.065   1.887  0.9817 -0.9539 -0.8688
   14CHTO  C108 5578   5.972   4.252   1.919  0.2079 -0.3957  0.3629
   14CHTO   O71 5579   5.848   4.302   1.966  0.2452  0.2111 -0.1840
   14CHTO  H171 5580   5.836   4.271   2.054  0.7892  3.5150  1.1309
   14CHTO   O62 5581   5.728   4.132   1.551 -0.5137 -0.2095 -0.5304
   14CHTO   C91 5582   5.592   4.177   1.578 -0.2231 -0.0368  0.0333
   14CHTO  H178 5583   5.551   4.111   1.654 -1.3156 -0.7851 -1.1924
   14CHTO   C92 5584   5.504   4.149   1.452 -0.3478  0.3230  0.4234
   14CHTO  H179 5585   5.539   4.061   1.396 -1.7999 -0.8569  1.3413
   14CHTO   O66 5586   5.370   4.121   1.491  0.2305 -0.0319 -0.0213
   14CHTO  H166 5587   5.327   4.068   1.427 -1.3048 -1.0742  1.7950
   14CHTO   C93 5588   5.502   4.277   1.349  0.4274 -0.0654  0.5599
   14CHTO  H180 5589   5.402   4.270   1.302 -0.1210  2.4888  1.2307
   14CHTO   N16 5590   5.603   4.268   1.241 -0.3696  0.2958 -0.6641
   14CHTO  H172 5591   5.570   4.196   1.168 -1.2708 -1.4281  1.3749
   14CHTO  H173 5592   5.629   4.365   1.200  0.3879 -0.7586 -2.7382
   14CHTO   C94 5593   5.506   4.417   1.424  0.1591  0.3406 -0.6928
   14CHTO  H181 5594   5.603   4.465   1.407  1.1290 -1.4383 -0.2918
   14CHTO   O61 5595   5.482   4.402   1.566  0.6628  0.1985  0.2700
   14CHTO   C95 5596   5.581   4.322   1.634 -0.2010 -0.3651 -0.8432
   14CHTO  H182 5597   5.682   4.365   1.627 -0.6360  0.7612 -0.3650
   14CHTO  C106 5598   5.546   4.328   1.790  0.1841  0.3819 -0.4584
   14CHTO   O69 5599   5.425   4.258   1.821  0.0008 -0.0549  0.0609
   14CHTO  H169 5600   5.355   4.315   1.796 -0.5168 -0.0316  1.5161
   14CHTO   O63 5601   5.384   4.505   1.374 -0.8285 -0.2440 -0.1440
   14CHTO   C96 5602   5.415   4.661   1.379  0.0926 -0.3325 -0.1790
   14CHTO  H183 5603   5.330   4.702   1.326  0.5302 -2.1550 -2.3603
   14CHTO   C98 5604   5.541   4.714   1.295 -0.0530 -0.2148 -0.1213
   14CHTO  H185 5605   5.633   4.668   1.333 -0.8143 -0.5043  1.4306
   14CHTO   O67 5606   5.537   4.668   1.155  0.4498 -0.4356  0.1180
   14CHTO  H167 5607   5.458   4.706   1.121  0.8629  2.0900  1.7843
   14CHTO  C102 5608   5.549   4.872   1.309 -0.3624  0.3118  0.0582
   14CHTO  H189 5609   5.459   4.906   1.258 -1.6479 -3.5602 -0.4063
   14CHTO   N18 5610   5.663   4.937   1.239  0.2162 -0.2570 -0.3393
   14CHTO  H176 5611   5.646   5.044   1.240 -0.4348 -0.3614  1.1765
   14CHTO  H177 5612   5.662   4.909   1.135  2.4141  2.4527 -1.1266
   14CHTO  C105 5613   5.538   4.918   1.461  0.0701 -0.3047 -0.6486
   14CHTO  H192 5614   5.627   4.892   1.518 -0.3371 -0.2474  0.0149
   14CHTO   O65 5615   5.431   4.860   1.530 -0.3600 -0.2353 -0.4890
   14CHTO  C100 5616   5.424   4.716   1.525 -0.3914 -0.1052  0.2309
   14CHTO  H187 5617   5.516   4.671   1.565  0.5317  1.3048 -0.2568
   14CHTO  C107 5618   5.305   4.676   1.606 -0.0391 -0.2829  0.1886
   14CHTO   O70 5619   5.337   4.674   1.745 -0.1215 -0.0135  0.2652
   14CHTO  H170 5620   5.396   4.740   1.773 -1.0528 -0.8524  4.6178
   14CHTO   O57 5621   5.509   5.085   1.471 -0.0253  0.4118 -0.2643
   14CHTO   C85 5622   5.382   5.158   1.469 -0.1213 -0.4256  0.5551
   14CHTO  H157 5623   5.298   5.086   1.470  0.0912 -0.7324 -1.3433
   14CHTO   C83 5624   5.371   5.243   1.339 -0.0081 -0.0483 -0.4346
   14CHTO  H155 5625   5.342   5.171   1.263 -0.3564 -0.6635  0.2785
   14CHTO   O56 5626   5.504   5.295   1.295  0.2207 -0.2335 -0.2731
   14CHTO  H135 5627   5.543   5.344   1.366 -3.0332  0.8598  0.8238
   14CHTO   C81 5628   5.263   5.356   1.355 -0.1553 -0.0589  0.4081
   14CHTO  H153 5629   5.170   5.301   1.369  0.4607 -1.7859 -1.9902
   14CHTO   N14 5630   5.253   5.427   1.228 -0.1240  0.1477 -0.1543
   14CHTO  H141 5631   5.274   5.362   1.145  0.3137 -0.1622  0.1936
   14CHTO  H142 5632   5.155   5.466   1.212 -0.1229 -0.7029 -2.5150
   14CHTO   C79 5633   5.280   5.453   1.474 -0.1074 -0.3729 -0.3568
   14CHTO  H151 5634   5.191   5.516   1.475 -0.7557 -1.2929  0.9445
   14CHTO   O52 5635   5.288   5.369   1.594 -0.4220 -0.1547 -0.0387
   14CHTO   C86 5636   5.378   5.252   1.592  0.1236 -0.4243 -0.0121
   14CHTO  H158 5637   5.473   5.303   1.617 -0.0501 -0.0108 -0.1936
   14CHTO   C90 5638   5.361   5.159   1.712  0.4499 -0.1044  0.3427
   14CHTO   O60 5639   5.392   5.233   1.834  0.0505 -0.3254  0.2434
   14CHTO  H138 5640   5.399   5.175   1.907 -1.3743  0.8497  1.3344
   14CHTO   O50 5641   5.399   5.529   1.462 -0.5345  0.4730 -0.3056
   14CHTO   C73 5642   5.418   5.669   1.484 -0.2648 -0.9501  0.2083
   14CHTO  H145 5643   5.330   5.706   1.540 -1.4095  0.6513 -2.5223
   14CHTO   C74 5644   5.418   5.749   1.346  0.2375  0.1604 -0.2166
   14CHTO  H146 5645   5.326   5.706   1.305 -0.5504  2.1473 -0.6283
   14CHTO   O54 5646   5.394   5.889   1.374  0.5617  0.3820  0.1474
   14CHTO  H133 5647   5.469   5.944   1.386  1.5222 -0.4732 -1.8463
   14CHTO   C75 5648   5.549   5.715   1.261  0.0661 -0.3693 -0.5108
   14CHTO  H147 5649   5.545   5.607   1.240 -1.1657 -0.3341 -0.4955
   14CHTO   N13 5650   5.556   5.787   1.130 -0.4815 -0.5982 -0.0579
   14CHTO  H139 5651   5.468   5.763   1.073  0.3308  0.5223 -1.8482
   14CHTO  H140 5652   5.553   5.894   1.145 -3.3823 -0.6043 -0.3422
   14CHTO   C76 5653   5.673   5.753   1.356 -0.0266  0.1534 -0.3958
   14CHTO  H148 5654   5.676   5.859   1.382 -1.2347  0.3501 -1.0532
   14CHTO   O49 5655   5.666   5.668   1.480 -0.3371 -0.2799 -0.2967
   14CHTO   C77 5656   5.553   5.699   1.566  0.5687  0.3308  0.3022
   14CHTO  H149 5657   5.550   5.803   1.598  2.5934  1.2270 -2.2022
   14CHTO   C88 5658   5.561   5.611   1.689  0.0047  0.5659  0.0836
   14CHTO   O58 5659   5.634   5.470   1.652  0.1363 -0.0816 -0.4246
   14CHTO  H136 5660   5.598   5.399   1.703  3.2992 -1.8511 -0.4912
   14CHTO   O51 5661   5.809   5.708   1.287 -0.0454 -0.4314  0.0962
   14CHTO   C78 5662   5.939   5.783   1.355 -0.0380  0.6221 -0.5895
   14CHTO  H150 5663   5.909   5.809   1.459 -1.1544 -3.2313  0.1335
   14CHTO   C80 5664   5.989   5.901   1.274 -0.0982 -0.3336 -0.1432
   14CHTO  H152 5665   5.990   5.867   1.168  0.1146  1.3685 -0.7008
   14CHTO   O55 5666   5.884   5.998   1.297 -0.5751 -0.0862  0.1303
   14CHTO  H134 5667   5.890   6.074   1.242 -2.9535  0.0968  0.0516
   14CHTO   C84 5668   6.133   5.944   1.323 -0.1605  0.2295  0.2870
   14CHTO  H156 5669   6.122   5.980   1.425 -0.9183 -1.8956  0.9847
   14CHTO   N15 5670   6.183   6.054   1.235  0.3460  0.6364  0.6020
   14CHTO  H143 5671   6.147   6.039   1.135 -1.9141  0.4210  1.4291
   14CHTO  H144 5672   6.290   6.057   1.229  0.3131 -1.3572 -1.3866
   14CHTO   C87 5673   6.229   5.821   1.322  0.1683 -0.2997 -0.7482
   14CHTO  H159 5674   6.238   5.776   1.223  0.6643 -2.7527  0.3960
   14CHTO   O53 5675   6.175   5.718   1.413  0.4872 -0.5341  0.1969
   14CHTO   C82 5676   6.046   5.672   1.364 -0.2364  0.3945  0.1625
   14CHTO  H154 5677   6.059   5.632   1.263  1.6134  1.9759 -0.2398
   14CHTO   C89 5678   5.981   5.556   1.446 -0.3676  0.6021 -0.1719
   14CHTO   O59 5679   5.971   5.589   1.586  0.3785 -0.0261  0.0263
   14CHTO  H137 5680   5.924   5.665   1.613  0.3353 -0.9443  2.6540
   14CHTO   O45 5681   6.361   5.853   1.379  0.0335  0.2565  1.1535
   14CHTO   C67 5682   6.464   5.761   1.338 -0.2817 -0.4190  0.8641
   14CHTO  H124 5683   6.430   5.657   1.339  1.2262 -0.9213  0.7661
   14CHTO   C65 5684   6.512   5.801   1.197  0.1713 -0.4235 -0.1076
   14CHTO  H122 5685   6.426   5.828   1.137 -0.7052 -0.8154  0.9685
   14CHTO   O44 5686   6.566   5.679   1.140  0.6497  0.3614  0.6501
   14CHTO  H102 5687   6.599   5.692   1.053 -2.7109 -1.5291 -0.9967
   14CHTO   C63 5688   6.601   5.925   1.212  0.1675 -0.3263 -1.0238
   14CHTO  H120 5689   6.547   6.004   1.263 -0.0546 -1.4806  0.5802
   14CHTO   N11 5690   6.640   5.989   1.084  0.4323  0.5148 -0.3557
   14CHTO  H108 5691   6.675   5.920   1.009  0.0060 -0.4226  0.2902
   14CHTO  H109 5692   6.566   6.055   1.044  2.2929  2.0490 -1.3437
   14CHTO   C61 5693   6.723   5.890   1.298 -0.4646  0.2175 -0.2538
   14CHTO  H118 5694   6.781   5.984   1.303  0.1988 -0.0666 -2.1380
   14CHTO   O40 5695   6.684   5.861   1.435  0.0502  0.0795  0.0952
   14CHTO   C68 5696   6.586   5.757   1.446 -0.6178 -0.3983 -0.1112
   14CHTO  H125 5697   6.544   5.767   1.548  0.4321  0.5979  0.2251
   14CHTO   C72 5698   6.657   5.614   1.435  0.1944 -0.1577 -0.2010
   14CHTO   O48 5699   6.764   5.602   1.525 -1.0136 -0.2124  0.8185
   14CHTO  H105 5700   6.771   5.671   1.588  1.4517 -0.4936  0.8922
   14CHTO   O38 5701   6.804   5.784   1.248 -0.1202  0.3230 -0.2967
   14CHTO   C55 5702   6.937   5.812   1.194  0.0124  0.0392  0.2587
   14CHTO  H112 5703   6.953   5.920   1.181  0.1767 -0.0877 -0.6325
   14CHTO   C56 5704   6.959   5.733   1.060 -0.7561 -0.6181  0.4753
   14CHTO  H113 5705   6.931   5.629   1.079  0.6282 -0.8335  1.4443
   14CHTO   O42 5706   6.864   5.784   0.957 -0.0099  0.0183 -0.9196
   14CHTO  H100 5707   6.857   5.877   0.952  2.4670  0.3624  0.8882
   14CHTO   C57 5708   7.105   5.754   0.995  0.3647 -0.1292 -0.6630
   14CHTO  H114 5709   7.120   5.854   0.955  0.0775 -0.1424 -0.8042
   14CHTO   N10 5710   7.137   5.659   0.886  0.0853 -0.4194 -0.2543
   14CHTO  H106 5711   7.089   5.563   0.896 -0.0159 -0.5174 -1.6214
   14CHTO  H107 5712   7.239   5.649   0.852 -0.4004 -0.1451 -1.8400
   14CHTO   C58 5713   7.208   5.728   1.107 -0.5717 -0.6161 -0.0751
   14CHTO  H115 5714   7.214   5.618   1.127  0.8683 -0.6271 -0.5073
   14CHTO   O37 5715   7.183   5.804   1.226  0.0518  0.0091  0.1015
   14CHTO   C59 5716   7.055   5.755   1.278 -1.0315 -0.2948 -0.1073
   14CHTO  H116 5717   7.047   5.650   1.306 -2.2249 -0.5459 -1.3636
   14CHTO   C70 5718   7.034   5.813   1.420  0.1428 -0.2996 -0.2567
   14CHTO   O46 5719   7.132   5.781   1.524 -0.2722 -0.4116  0.5438
   14CHTO  H103 5720   7.083   5.795   1.603 -1.3629 -1.7897  0.1384
   14CHTO   O39 5721   7.350   5.790   1.054  0.3701 -0.2386 -0.2533
   14CHTO   C60 5722   7.475   5.779   1.129  0.3877  0.5953  0.0439
   14CHTO  H117 5723   7.456   5.816   1.230  0.3976 -2.8733  1.3746
   14CHTO   C62 5724   7.506   5.629   1.141 -0.0155  0.7235 -0.3754
   14CHTO  H119 5725   7.435   5.575   1.207  0.4092  2.3628  1.5053
   14CHTO   O43 5726   7.507   5.562   1.015  0.2518  0.3111 -0.2124
   14CHTO  H101 5727   7.462   5.479   1.020  0.6380  0.0334 -1.1696
   14CHTO   C66 5728   7.653   5.622   1.207 -0.1389  0.3730 -0.3019
   14CHTO  H123 5729   7.648   5.667   1.306 -3.7705  2.2024 -1.2272
   14CHTO   N12 5730   7.693   5.483   1.239 -0.5382  0.7234 -0.0914
   14CHTO  H110 5731   7.681   5.402   1.169  0.7687 -0.8330  1.4583
   14CHTO  H111 5732   7.781   5.467   1.300  0.3007 -2.0033 -1.9403
   14CHTO   C69 5733   7.756   5.700   1.118 -0.0190  0.4862  0.1220
   14CHTO  H126 5734   7.750   5.658   1.016 -2.8413 -0.0776  0.4972
   14CHTO   O41 5735   7.720   5.839   1.122  0.1595 -0.0617  0.6153
   14CHTO   C64 5736   7.591   5.871   1.074  0.1721 -0.3532  0.1041
   14CHTO  H121 5737   7.581   5.861   0.964  0.5609 -2.3495  0.2164
   14CHTO   C71 5738   7.560   6.016   1.113 -0.3248 -0.4154 -0.0102
   14CHTO   O47 5739   7.649   6.113   1.060 -0.1599  0.4578 -0.0438
   14CHTO  H104 5740   7.601   6.188   1.029 -0.4902  0.0574 -0.5273
   14CHTO   O34 5741   7.921   5.696   1.174 -0.2653  0.6432  0.0997
   14CHTO   C49 5742   8.086   5.710   1.170 -0.3714 -0.1629  0.2667
   14CHTO   H91 5743   8.114   5.646   1.087 -1.7622  0.8601 -1.0105
   14CHTO   C47 5744   8.147   5.649   1.302 -0.6067 -0.0479 -0.3066
   14CHTO   H89 5745   8.257   5.650   1.291 -0.6903  0.9891 -1.2243
   14CHTO   O33 5746   8.099   5.508   1.313  0.3518  0.3577  0.4493
   14CHTO   H70 5747   8.057   5.478   1.234  1.2456 -1.9501  0.7895
   14CHTO   C45 5748   8.103   5.739   1.426  0.0057  0.0169 -0.8490
   14CHTO   H87 5749   8.006   5.708   1.467  0.1853  3.9746  3.0007
   14CHTO    N8 5750   8.205   5.714   1.533 -0.6391 -0.9068  0.1325
   14CHTO   H75 5751   8.170   5.772   1.617 -1.2774 -1.1161  0.0156
   14CHTO   H76 5752   8.217   5.608   1.548 -1.1433 -0.6912  2.1859
   14CHTO   C43 5753   8.074   5.890   1.376  0.0496 -0.0853  0.6221
   14CHTO   H85 5754   7.970   5.886   1.343 -0.1614  0.5691  1.2010
   14CHTO   O29 5755   8.164   5.923   1.271 -0.8481 -0.0976  0.2162
   14CHTO   C50 5756   8.137   5.852   1.146  0.8002 -0.1003 -0.4652
   14CHTO   H92 5757   8.061   5.903   1.086  0.9376  0.5851 -0.0626
   14CHTO   C54 5758   8.273   5.846   1.069 -0.2039  0.3059  0.0396
   14CHTO   O36 5759   8.270   5.769   0.944 -0.1516 -0.0277  0.3190
   14CHTO   H72 5760   8.256   5.679   0.967 -2.9443  0.2637 -0.1157
   14CHTO   O27 5761   8.064   5.987   1.480  0.0943  0.0487  0.2386
   14CHTO   C37 5762   7.980   6.076   1.550  0.1019 -0.2474 -0.2343
   14CHTO   H79 5763   8.026   6.161   1.604 -1.5550  1.0125 -0.7523
   14CHTO   C38 5764   7.880   6.129   1.452  0.2097  0.7991 -0.1735
   14CHTO   H80 5765   7.832   6.046   1.398 -0.0149  1.6506 -1.3255
   14CHTO   O31 5766   7.947   6.216   1.349 -0.1974 -0.1958 -0.7597
   14CHTO   H68 5767   7.989   6.162   1.284  2.3239  2.2228 -1.2446
   14CHTO   C39 5768   7.772   6.213   1.526  0.5144 -0.1351  0.4462
   14CHTO   H81 5769   7.823   6.296   1.574  1.0616  0.3729 -0.9810
   14CHTO    N7 5770   7.666   6.267   1.435  0.9658 -0.2894  0.2009
   14CHTO   H73 5771   7.596   6.320   1.498  0.8713  2.5145 -2.1748
   14CHTO   H74 5772   7.632   6.174   1.390  1.2133 -1.3084  2.0705
   14CHTO   C40 5773   7.708   6.125   1.643  1.1082 -0.4909 -0.1924
   14CHTO   H82 5774   7.648   6.044   1.602 -1.9747  1.4706  0.2382
   14CHTO   O26 5775   7.809   6.080   1.732  0.1329 -0.3060  0.5068
   14CHTO   C41 5776   7.901   5.992   1.663  0.3101 -0.0912  0.9252
   14CHTO   H83 5777   7.842   5.911   1.617  0.5852 -1.0973  2.3217
   14CHTO   C52 5778   8.004   5.926   1.755 -0.0612 -0.3958 -0.0975
   14CHTO   O35 5779   7.951   5.860   1.853 -0.8452 -0.0632 -0.0197
   14CHTO   H71 5780   7.867   5.893   1.879 -0.9449 -0.7900  0.6152
   14CHTO   O28 5781   7.636   6.212   1.736 -0.1806 -0.1215  0.2773
   14CHTO   C42 5782   7.506   6.177   1.784  0.0151  0.6227  0.7061
   14CHTO   H84 5783   7.499   6.235   1.877 -1.7834  1.3224  0.1392
   14CHTO   C44 5784   7.481   6.032   1.830  0.2462 -0.6161  0.0937
   14CHTO   H86 5785   7.495   5.968   1.743  2.6993  2.5480 -1.9378
   14CHTO   O32 5786   7.580   6.020   1.934  0.0937 -0.0082 -0.1541
   14CHTO   H69 5787   7.624   5.938   1.926 -2.8264 -1.6121 -0.4307
   14CHTO   C48 5788   7.338   5.999   1.884  0.0622 -0.4064  0.5076
   14CHTO   H90 5789   7.313   6.056   1.974 -2.4334 -1.7127  0.6859
   14CHTO    N9 5790   7.320   5.849   1.903 -0.0933  0.2295 -0.0158
   14CHTO   H77 5791   7.330   5.826   2.008  1.9234  0.8387 -0.0471
   14CHTO   H78 5792   7.397   5.789   1.856  1.0282 -0.5623  2.7683
   14CHTO   C51 5793   7.230   6.055   1.778  0.4481  0.2587 -0.0357
   14CHTO   H93 5794   7.245   5.998   1.686  0.3877 -2.1025  1.4065
   14CHTO   O30 5795   7.250   6.194   1.759 -0.4140 -0.0724  0.1384
   14CHTO   C46 5796   7.389   6.230   1.688 -0.4639 -0.1669 -0.5498
   14CHTO   H88 5797   7.387   6.177   1.593 -0.0839  1.0406 -1.2423
   14CHTO   C53 5798   7.396   6.384   1.684 -0.1696 -0.1432  0.2036
   14CHTO   O72 5799   7.280   6.444   1.626  0.3429  0.3737 -0.0857
   14CHTO  H199 5800   7.291   6.536   1.644  1.9548 -0.1512  1.8260
   14CHTO   O22 5801   7.099   6.045   1.828  0.2279 -0.2929 -0.0346
   14CHTO   C31 5802   6.980   6.005   1.748 -0.4255  0.1354  0.1736
   14CHTO   H59 5803   7.019   5.940   1.667  0.1308 -0.2175  0.7201
   14CHTO   C29 5804   6.878   5.931   1.831  0.2750 -0.1085 -0.5716
   14CHTO   H57 5805   6.866   5.998   1.917  2.3560  0.4213 -0.6634
   14CHTO   O21 5806   6.936   5.806   1.879  0.5078 -0.4285  0.0598
   14CHTO   H37 5807   6.875   5.770   1.940 -0.8221  1.6246  0.0074
   14CHTO   C27 5808   6.739   5.908   1.761 -0.2888  0.0510 -0.2681
   14CHTO   H55 5809   6.751   5.859   1.663  1.5762 -2.4246  1.1321
   14CHTO    N5 5810   6.639   5.835   1.840 -0.1145 -0.2665  0.3129
   14CHTO   H43 5811   6.578   5.902   1.900 -2.1975 -1.2300 -0.6613
   14CHTO   H44 5812   6.578   5.759   1.794 -1.5026 -0.1785  1.9405
   14CHTO   C25 5813   6.691   6.052   1.723  0.1974  0.3480  0.2279
   14CHTO   H53 5814   6.686   6.117   1.812 -2.0956  0.6740 -0.1136
   14CHTO   O17 5815   6.786   6.111   1.629  0.1132  0.2627 -0.3132
   14CHTO   C32 5816   6.917   6.132   1.680 -0.0722 -0.3838  0.0125
   14CHTO   H60 5817   6.905   6.205   1.759  0.8467 -2.7891  2.4331
   14CHTO   C36 5818   7.003   6.196   1.566 -0.3550 -0.2657 -0.2235
   14CHTO   O25 5819   6.930   6.314   1.529 -0.2002 -0.0253  0.1769
   14CHTO   H40 5820   6.904   6.364   1.604 -0.3854 -0.2651  0.2750
   14CHTO   O15 5821   6.554   6.061   1.656 -0.4643  0.5543  0.0100
   14CHTO   C19 5822   6.445   6.138   1.606 -0.6929  0.0297 -0.8595
   14CHTO   H47 5823   6.439   6.118   1.498 -0.5980  1.2530 -1.1061
   14CHTO   C20 5824   6.308   6.099   1.663  0.2102 -0.9156 -0.5100
   14CHTO   H48 5825   6.309   6.090   1.773 -0.3037 -1.3504 -0.5382
   14CHTO   O19 5826   6.274   5.968   1.628 -0.1599 -0.4035  0.5601
   14CHTO   H35 5827   6.181   5.956   1.635 -0.3496 -0.6645 -1.7968
   14CHTO   C21 5828   6.192   6.192   1.618 -0.5461 -0.2095 -0.4116
   14CHTO   H49 5829   6.184   6.177   1.510  1.3560 -1.0743 -0.4573
   14CHTO    N4 5830   6.061   6.165   1.691  0.0650  0.4249 -0.6438
   14CHTO   H41 5831   5.984   6.227   1.648 -1.6707 -1.0733  0.2220
   14CHTO   H42 5832   6.070   6.193   1.794  1.0980 -0.9749 -0.3531
   14CHTO   C22 5833   6.231   6.337   1.647 -0.4310 -0.3380  0.0040
   14CHTO   H50 5834   6.230   6.357   1.754  1.8940 -2.2905  0.4211
   14CHTO   O14 5835   6.357   6.366   1.586 -0.4724  0.7287  0.1041
   14CHTO   C23 5836   6.472   6.289   1.624 -0.2574 -0.2991  0.3103
   14CHTO   H51 5837   6.501   6.321   1.725  0.3696  3.9627 -1.1234
   14CHTO   C34 5838   6.584   6.313   1.527  0.4000  0.6860  0.1410
   14CHTO   O23 5839   6.621   6.452   1.526  0.2774  0.2876  0.0229
   14CHTO   H38 5840   6.689   6.465   1.463  2.1603 -0.5746  1.8137
   14CHTO   O16 5841   6.138   6.416   1.567 -0.6376  0.0313  0.4171
   14CHTO   C24 5842   6.091   6.566   1.608  0.4435 -0.1559 -0.2576
   14CHTO   H52 5843   6.068   6.626   1.520  0.3614  1.5837  0.9184
   14CHTO   C26 5844   6.203   6.636   1.686  1.1191 -0.1175 -0.6930
   14CHTO   H54 5845   6.240   6.574   1.769  0.2081  0.9182  0.5118
   14CHTO   O20 5846   6.317   6.659   1.604 -0.1728 -0.1224  0.2548
   14CHTO   H36 5847   6.301   6.715   1.531  0.2730  0.8093  0.8660
   14CHTO   C30 5848   6.158   6.774   1.750 -0.4334  0.0525 -0.0335
   14CHTO   H58 5849   6.163   6.854   1.676  0.6095 -0.6942 -0.7982
   14CHTO    N6 5850   6.253   6.814   1.858 -0.1534 -0.6803 -0.5561
   14CHTO   H45 5851   6.349   6.849   1.822 -0.5525 -0.7465 -1.7027
   14CHTO   H46 5852   6.270   6.734   1.929 -1.0583 -1.0652 -0.7788
   14CHTO   C33 5853   6.009   6.763   1.804 -0.6412 -0.3902 -0.0717
   14CHTO   H61 5854   5.996   6.712   1.900 -2.9112  1.5264  0.6876
   14CHTO   O18 5855   5.925   6.695   1.710 -0.5670  0.2759 -0.4121
   14CHTO   C28 5856   5.960   6.557   1.693 -0.0985  0.6688  0.2614
   14CHTO   H56 5857   5.981   6.503   1.785  0.3888 -1.7448 -1.2104
   14CHTO   C35 5858   5.848   6.488   1.614  0.3137 -0.1283  0.1590
   14CHTO   O24 5859   5.722   6.493   1.677 -0.1555  0.3356 -0.7414
   14CHTO   H39 5860   5.692   6.580   1.660  2.0601  1.2016 -0.3466
   14CHTO    O9 5861   5.957   6.897   1.833  0.1124 -0.2397 -0.0902
   14CHTO   C13 5862   5.869   6.919   1.969 -0.3765 -0.2449 -0.2598
   14CHTO   H26 5863   5.923   6.871   2.053 -0.0724 -1.4594 -1.1350
   14CHTO   C11 5864   5.722   6.863   1.949  0.1416  0.2610 -0.7910
   14CHTO   H24 5865   5.730   6.754   1.952  2.2221  0.3734 -1.4282
   14CHTO    O8 5866   5.678   6.903   1.819  0.2185  0.0340  0.6118
   14CHTO    H3 5867   5.720   6.983   1.795 -0.2264  0.5010  1.3534
   14CHTO    C9 5868   5.625   6.913   2.064  0.2400 -0.4973 -0.2434
   14CHTO   H22 5869   5.671   6.884   2.160  1.4969  2.9616  0.2530
   14CHTO    N2 5870   5.488   6.855   2.063 -0.3248  0.0350  0.2778
   14CHTO   H10 5871   5.493   6.753   2.096 -3.7924 -0.9195 -1.9222
   14CHTO   H11 5872   5.446   6.866   1.965  1.8178  1.2919 -0.5454
   14CHTO    C7 5873   5.616   7.068   2.071  0.0803  0.0047 -0.4101
   14CHTO   H20 5874   5.626   7.083   2.180 -0.0543  2.0797 -0.6660
   14CHTO    O4 5875   5.725   7.124   1.994  0.5989  0.9235 -0.3473
   14CHTO   C14 5876   5.861   7.072   2.010  0.6367 -0.2364 -0.2270
   14CHTO   H27 5877   5.889   7.095   2.115  0.4651 -0.2846 -0.1713
   14CHTO   C18 5878   5.957   7.164   1.926 -0.2316  0.1175  0.2647
   14CHTO   O13 5879   5.965   7.293   1.986 -0.8355  0.3105 -0.0577
   14CHTO    H7 5880   5.877   7.320   2.004 -0.7185 -0.6834  2.0967
   14CHTO    O2 5881   5.455   7.146   2.005  0.2232 -0.5414 -0.3318
   14CHTO    C1 5882   5.435   7.288   2.040  0.0231  0.5204 -0.3666
   14CHTO   H14 5883   5.342   7.321   1.990  0.2209 -0.0302 -1.1009
   14CHTO    C2 5884   5.554   7.386   1.988 -0.2941 -0.5871  0.3467
   14CHTO   H15 5885   5.649   7.352   2.033  0.6613  1.4166 -0.1185
   14CHTO    O6 5886   5.571   7.358   1.846  0.0388  0.3255  0.1498
   14CHTO    H1 5887   5.504   7.409   1.805  2.2484  0.9999 -2.8197
   14CHTO    C3 5888   5.532   7.536   2.033 -0.5637  0.5067 -0.2814
   14CHTO   H16 5889   5.447   7.578   1.978 -1.2953  1.3776  1.4551
   14CHTO    N1 5890   5.662   7.612   2.016 -0.2578 -0.0984 -0.0306
   14CHTO    H8 5891   5.735   7.575   2.086 -1.1577  1.4941  1.7907
   14CHTO    H9 5892   5.658   7.719   2.029 -1.3109  0.0073 -1.1177
   14CHTO    C4 5893   5.487   7.534   2.182 -0.2356  0.1450  0.7292
   14CHTO   H17 5894   5.568   7.508   2.249  2.0019  1.6280 -1.3158
   14CHTO    O1 5895   5.374   7.452   2.201  0.1261 -0.0144 -0.0955
   14CHTO    C5 5896   5.409   7.308   2.193  0.4515  0.1247  0.9575
   14CHTO   H18 5897   5.499   7.278   2.246  0.3426 -0.1545  0.9807
   14CHTO   C16 5898   5.294   7.223   2.247  0.4098  0.3919 -0.0446
   14CHTO   O11 5899   5.278   7.260   2.387  0.0164  0.2575 -0.6278
   14CHTO    H5 5900   5.225   7.203   2.438  1.4618 -1.6611 -1.2168
   14CHTO    O3 5901   5.439   7.669   2.201  0.0218  0.3828 -0.6417
   14CHTO    C6 5902   5.426   7.713   2.338  0.0962  0.5976  0.1588
   14CHTO   H19 5903   5.445   7.626   2.400  0.3542  2.5846  2.9981
   14CHTO    C8 5904   5.528   7.824   2.374 -0.0300  0.8105 -0.7360
   14CHTO   H21 5905   5.524   7.898   2.294 -2.0945  1.1746 -0.3162
   14CHTO    O7 5906   5.657   7.762   2.375  0.1766  1.0457  0.4750
   14CHTO    H2 5907   5.689   7.769   2.287 -3.0585  1.6535 -0.7186
   14CHTO   C12 5908   5.501   7.885   2.518  0.1284  0.2843 -0.4178
   14CHTO   H25 5909   5.545   7.816   2.592 -0.7542  0.2623  0.0892
   14CHTO    N3 5910   5.579   8.017   2.529  0.3730 -0.1866  0.1566
   14CHTO   H12 5911   5.600   8.060   2.432  1.6165  0.5649  0.7594
   14CHTO   H13 5912   5.671   8.015   2.585  1.5137  1.5248 -1.5970
   14CHTO   C15 5913   5.347   7.906   2.547 -0.5370  0.8471 -0.5570
   14CHTO   H28 5914   5.303   7.990   2.494 -1.5830 -0.3847 -1.6799
   14CHTO   O10 5915   5.324   7.904   2.695 -0.1066 -0.3666 -0.0392
   14CHTO    H4 5916   5.364   7.983   2.727  1.2554 -1.6016  1.3720
   14CHTO    O5 5917   5.264   7.791   2.513 -0.0799 -0.8081 -0.1511
   14CHTO   C10 5918   5.273   7.757   2.370  0.0560  0.2222 -0.1008
   14CHTO   H23 5919   5.257   7.852   2.320  0.0812 -1.6635 -3.8480
   14CHTO   C17 5920   5.160   7.656   2.337 -0.0351  0.0072 -0.1880
   14CHTO   O12 5921   5.172   7.538   2.418  0.2406  0.7261 -0.5471
   14CHTO    H6 5922   5.168   7.458   2.368 -1.4562  0.0357  0.6322
   15CHTO  H203 5923   8.204   4.753   1.833  0.1703  0.9459  2.7839
   15CHTO   O82 5924   8.115   4.784   1.832 -0.0283  0.3872  0.6014
   15CHTO  C123 5925   8.041   4.733   1.720  0.1343 -0.4346  0.3721
   15CHTO  H227 5926   8.034   4.624   1.730  0.3109 -0.5354 -0.5616
   15CHTO   O77 5927   7.911   4.780   1.735  0.1517  0.5486 -0.1305
   15CHTO  C118 5928   7.813   4.724   1.645 -0.1891  0.0474  0.6098
   15CHTO  H222 5929   7.824   4.614   1.641  1.5376  0.1195  2.5414
   15CHTO  C125 5930   7.674   4.766   1.707  0.6763 -0.7888 -0.2270
   15CHTO   O84 5931   7.595   4.673   1.778  0.3631 -0.0081 -0.2253
   15CHTO  H205 5932   7.594   4.593   1.729 -0.6744 -0.4307  0.4538
   15CHTO  C114 5933   7.843   4.785   1.510 -0.1650 -0.5000  0.2270
   15CHTO  H218 5934   7.826   4.892   1.517  0.7656 -0.2719 -0.8243
   15CHTO  C116 5935   7.991   4.764   1.470  0.2367 -0.7877  0.7920
   15CHTO  H220 5936   7.996   4.662   1.425 -1.4212  0.4821 -2.4394
   15CHTO   O79 5937   8.002   4.856   1.361 -0.1717  0.5999  0.1041
   15CHTO  H201 5938   8.072   4.917   1.371 -1.1929  1.3158  3.3131
   15CHTO  C120 5939   8.103   4.780   1.583  0.7433 -0.4682  0.3340
   15CHTO  H224 5940   8.123   4.888   1.592  0.7281 -0.5094  0.9260
   15CHTO   N21 5941   8.234   4.716   1.553  0.2343  0.1882 -0.6207
   15CHTO  H211 5942   8.264   4.770   1.464 -0.3323 -0.7374 -1.3811
   15CHTO  H212 5943   8.209   4.614   1.528 -0.3146  0.6738 -2.1313
   15CHTO   O75 5944   7.748   4.738   1.418  0.2786  0.6560 -0.6151
   15CHTO  C112 5945   7.719   4.574   1.406 -0.0005 -0.2924  0.2696
   15CHTO  H216 5946   7.684   4.534   1.503 -0.1649 -1.6113 -0.3302
   15CHTO   O73 5947   7.839   4.516   1.360 -0.6925  0.2264  0.0281
   15CHTO  C113 5948   7.842   4.375   1.358 -0.1097  0.9957 -0.4292
   15CHTO  H217 5949   7.825   4.341   1.462  3.2114  2.2113  0.5805
   15CHTO  C124 5950   7.980   4.332   1.326 -0.5674 -0.3396  0.3663
   15CHTO   O83 5951   8.084   4.364   1.424  0.4390  0.5589 -0.0918
   15CHTO  H204 5952   8.086   4.299   1.492  0.5630 -1.8555 -2.3100
   15CHTO  C109 5953   7.736   4.316   1.253 -0.4565 -0.5005 -0.4822
   15CHTO  H213 5954   7.770   4.344   1.152 -2.7864  3.2557 -0.2872
   15CHTO  C110 5955   7.597   4.379   1.288  0.0033 -0.0425  0.1051
   15CHTO  H214 5956   7.556   4.330   1.377 -0.5790  0.9108  0.3683
   15CHTO   O78 5957   7.501   4.354   1.182  0.1031 -0.1356  0.3523
   15CHTO  H200 5958   7.470   4.265   1.184  2.6633 -1.0867 -0.3317
   15CHTO  C111 5959   7.607   4.536   1.304  0.8108  0.4711 -0.0730
   15CHTO  H215 5960   7.640   4.573   1.206  2.3394 -1.2448 -0.2261
   15CHTO   N19 5961   7.479   4.600   1.337  0.5075  0.4859 -0.4018
   15CHTO  H207 5962   7.408   4.601   1.255  0.0389  0.0333 -0.0029
   15CHTO  H208 5963   7.495   4.698   1.381  0.5451  0.3866 -0.1942
   15CHTO   O74 5964   7.740   4.168   1.263  0.5712 -0.6809  0.1446
   15CHTO  C115 5965   7.680   4.102   1.131  0.0300 -0.2330 -0.5056
   15CHTO  H219 5966   7.639   4.176   1.063  1.5338  0.2621 -0.8924
   15CHTO   O76 5967   7.781   4.028   1.048 -0.2875  0.0669 -0.1409
   15CHTO  C122 5968   7.860   3.928   1.119 -0.4916  0.4048 -0.0665
   15CHTO  H226 5969   7.927   3.982   1.185  1.2579  1.0040 -2.2891
   15CHTO  C126 5970   7.954   3.857   1.023 -0.5883  0.3895  0.5496
   15CHTO   O85 5971   8.044   3.941   0.951  0.2113 -0.7097  0.0520
   15CHTO  H206 5972   8.038   3.935   0.858  0.4132 -0.8315  0.0451
   15CHTO  C121 5973   7.757   3.840   1.205 -0.4239  0.6706 -0.3157
   15CHTO  H225 5974   7.783   3.734   1.185  2.8881  1.3121  0.2139
   15CHTO   O81 5975   7.769   3.873   1.342 -0.3479 -0.7437  0.6270
   15CHTO  H202 5976   7.859   3.875   1.369  0.6649 -1.0939 -2.5495
   15CHTO  C119 5977   7.613   3.861   1.163 -0.1682  0.0806 -0.2269
   15CHTO  H223 5978   7.609   3.832   1.058 -1.8122  1.4162 -0.5532
   15CHTO  C117 5979   7.558   4.007   1.183 -0.1889 -0.0804  0.5255
   15CHTO  H221 5980   7.546   4.042   1.285 -0.8472  0.1805  0.3594
   15CHTO   N20 5981   7.433   4.033   1.114  0.5534 -0.0246 -0.0481
   15CHTO  H209 5982   7.414   4.137   1.136  1.5379  0.3007 -0.7119
   15CHTO  H210 5983   7.351   3.964   1.129  0.2273  0.7373  1.9093
   15CHTO   O80 5984   7.518   3.756   1.228 -0.7901  0.6305 -0.0589
   15CHTO  C103 5985   7.439   3.641   1.129 -0.5992 -0.1244  0.2957
   15CHTO  H190 5986   7.379   3.566   1.181  1.1119 -1.5981  0.1978
   15CHTO  C101 5987   7.352   3.701   1.009  0.3192 -0.0476  0.0219
   15CHTO  H188 5988   7.413   3.771   0.952  0.0238  0.7959  0.7531
   15CHTO   O68 5989   7.218   3.783   1.061  0.6909 -0.0055 -0.8296
   15CHTO  H168 5990   7.164   3.806   0.987 -0.9898 -2.6157 -0.4606
   15CHTO   C99 5991   7.309   3.577   0.916 -0.2321  0.1400 -0.0481
   15CHTO  H186 5992   7.251   3.501   0.972  1.3436  0.0140  1.4414
   15CHTO   N17 5993   7.217   3.624   0.808  0.0767 -0.0720  1.0280
   15CHTO  H174 5994   7.134   3.677   0.852  1.1553  0.6878  2.1502
   15CHTO  H175 5995   7.184   3.538   0.751  0.4445 -0.0483  0.7793
   15CHTO   C97 5996   7.432   3.500   0.862 -0.0217  0.1304 -0.7191
   15CHTO  H184 5997   7.485   3.558   0.785  4.3716 -1.6321  0.8118
   15CHTO   O64 5998   7.521   3.459   0.962  0.6902 -0.3065  0.2919
   15CHTO  C104 5999   7.560   3.560   1.060  0.1116  0.1888 -0.8550
   15CHTO  H191 6000   7.625   3.629   1.007 -0.3239  0.9813 -0.3609
   15CHTO  C108 6001   7.649   3.485   1.159 -0.1482 -0.5611 -0.6725
   15CHTO   O71 6002   7.593   3.366   1.205 -0.1932 -0.0662 -0.1365
   15CHTO  H171 6003   7.541   3.379   1.282  0.6655  1.1850  0.2549
   15CHTO   O62 6004   7.388   3.378   0.805 -0.0912  0.4917 -0.2965
   15CHTO   C91 6005   7.485   3.290   0.751 -0.1765  0.9394 -0.0147
   15CHTO  H178 6006   7.584   3.336   0.759  0.5711 -0.2986 -1.7046
   15CHTO   C92 6007   7.450   3.269   0.597  0.0555 -0.1821  0.2802
   15CHTO  H179 6008   7.429   3.367   0.552  0.8454  0.2658  0.8892
   15CHTO   O66 6009   7.575   3.225   0.533 -0.1634  0.0253 -0.2070
   15CHTO  H166 6010   7.632   3.291   0.499 -1.3693  0.0927 -2.1039
   15CHTO   C93 6011   7.336   3.168   0.572  0.3102 -0.3130  0.3892
   15CHTO  H180 6012   7.359   3.129   0.472  0.7353  1.3496 -0.1800
   15CHTO   N16 6013   7.200   3.224   0.570  0.1225 -0.7204  0.4829
   15CHTO  H172 6014   7.185   3.283   0.481 -1.4436 -0.9584  0.5687
   15CHTO  H173 6015   7.128   3.144   0.581 -0.7033  0.0545  0.6595
   15CHTO   C94 6016   7.353   3.051   0.672  0.0437 -0.5890  0.1145
   15CHTO  H181 6017   7.288   3.061   0.759  1.7962 -0.0848  1.3916
   15CHTO   O61 6018   7.485   3.044   0.728 -0.0930  0.2245  0.2466
   15CHTO   C95 6019   7.503   3.147   0.828 -0.3883  0.5707  0.7323
   15CHTO  H182 6020   7.426   3.139   0.905 -1.7742  0.0166 -0.6894
   15CHTO  C106 6021   7.643   3.133   0.903  0.4626  0.3840  0.0899
   15CHTO   O69 6022   7.680   2.999   0.914  0.3183  0.2479  0.7857
   15CHTO  H169 6023   7.742   2.996   0.983  0.0649  1.2325  1.0715
   15CHTO   O63 6024   7.335   2.910   0.601  0.2602  0.6073  0.0229
   15CHTO   C96 6025   7.263   2.790   0.684  0.5446  0.5691 -0.4183
   15CHTO  H183 6026   7.273   2.801   0.792  2.6933 -0.2780 -0.5068
   15CHTO   C98 6027   7.312   2.654   0.629 -0.5161  0.1947 -0.3142
   15CHTO  H185 6028   7.315   2.652   0.519  1.1561 -1.2872 -0.2635
   15CHTO   O67 6029   7.452   2.660   0.668 -0.2112 -0.5226 -0.1433
   15CHTO  H167 6030   7.509   2.603   0.621 -2.2934 -1.0953 -2.0630
   15CHTO  C102 6031   7.232   2.530   0.685  0.1055 -0.2079 -0.1269
   15CHTO  H189 6032   7.242   2.527   0.795  0.7123  1.7678 -0.0988
   15CHTO   N18 6033   7.283   2.403   0.637  0.6390 -0.1105 -0.2095
   15CHTO  H176 6034   7.286   2.394   0.529  3.7171  1.0204 -0.2889
   15CHTO  H177 6035   7.377   2.375   0.682  1.1047  1.4682 -0.1600
   15CHTO  C105 6036   7.090   2.563   0.648  0.5566  0.3752 -0.3839
   15CHTO  H192 6037   7.086   2.584   0.541  1.3002 -1.1891 -0.7367
   15CHTO   O65 6038   7.034   2.678   0.707 -0.4049 -0.0512 -0.6090
   15CHTO  C100 6039   7.105   2.794   0.668 -0.1317 -0.2459 -0.5969
   15CHTO  H187 6040   7.086   2.812   0.561  0.7269  0.4362 -0.6451
   15CHTO  C107 6041   7.039   2.907   0.748 -0.0800 -0.3731  0.6737
   15CHTO   O70 6042   6.918   2.966   0.708  0.3273  0.2251 -0.0269
   15CHTO  H170 6043   6.914   3.059   0.719 -1.9354  0.1727 -0.1390
   15CHTO   O57 6044   7.004   2.425   0.680  0.5649  0.7313 -0.2246
   15CHTO   C85 6045   6.958   2.402   0.814  0.2937  0.1961 -0.0941
   15CHTO  H157 6046   7.007   2.475   0.882  1.7145 -0.6071 -0.2158
   15CHTO   C83 6047   7.017   2.269   0.867 -0.2156  0.1660 -0.1043
   15CHTO  H155 6048   7.125   2.262   0.856 -0.2592 -0.8824  0.0889
   15CHTO   O56 6049   6.969   2.154   0.786  0.1222 -0.0512 -0.2248
   15CHTO  H135 6050   7.027   2.145   0.713 -1.5403  0.1295 -1.5956
   15CHTO   C81 6051   6.981   2.255   1.017  0.4670 -0.1447 -0.1898
   15CHTO  H153 6052   7.010   2.347   1.068 -2.3495  0.9468 -0.4246
   15CHTO   N14 6053   7.053   2.139   1.081 -0.4663 -0.0563 -0.4178
   15CHTO  H141 6054   7.157   2.158   1.098  0.1174 -1.5129 -2.2221
   15CHTO  H142 6055   7.048   2.061   1.008  0.3160  1.3029 -1.9754
   15CHTO   C79 6056   6.828   2.255   1.027 -0.1974  0.4918 -0.8396
   15CHTO  H151 6057   6.806   2.279   1.131 -1.2489 -1.3772 -0.6013
   15CHTO   O52 6058   6.768   2.373   0.972 -0.1740 -0.4245  0.3981
   15CHTO   C86 6059   6.800   2.398   0.832 -0.4699 -0.0789  0.0156
   15CHTO  H158 6060   6.758   2.311   0.778 -1.9720 -1.0495  2.6391
   15CHTO   C90 6061   6.725   2.519   0.781  0.1172 -0.2178  0.2749
   15CHTO   O60 6062   6.588   2.485   0.790  0.9409  0.1279 -0.2303
   15CHTO  H138 6063   6.557   2.438   0.716 -1.0034  0.9224  0.0656
   15CHTO   O50 6064   6.764   2.136   0.971 -0.1019 -0.0104 -0.2294
   15CHTO   C73 6065   6.635   2.081   1.000 -0.6144 -0.6984  0.0121
   15CHTO  H145 6066   6.547   2.131   0.957 -0.3979 -1.2434 -1.0604
   15CHTO   C74 6067   6.611   2.072   1.157 -0.0137  0.3199  0.0330
   15CHTO  H146 6068   6.624   2.176   1.192 -0.1305  0.5698 -0.6502
   15CHTO   O54 6069   6.478   2.037   1.192 -0.4328 -0.2922  0.0770
   15CHTO  H133 6070   6.463   2.025   1.284  0.4027 -0.5208  0.1927
   15CHTO   C75 6071   6.731   1.976   1.217  0.2010 -0.2412  0.5344
   15CHTO  H147 6072   6.820   2.037   1.235  0.6948 -1.1117  1.0904
   15CHTO   N13 6073   6.707   1.939   1.361 -0.1117  0.9511  0.3873
   15CHTO  H139 6074   6.618   1.878   1.363  2.4706 -3.0755  0.3520
   15CHTO  H140 6075   6.787   1.872   1.388  0.5277  2.0014  1.1460
   15CHTO   C76 6076   6.758   1.840   1.128  0.0124  0.0289 -0.6012
   15CHTO  H148 6077   6.696   1.757   1.161  1.3044  0.0074  1.8580
   15CHTO   O49 6078   6.743   1.858   0.985  0.7408 -0.4183 -0.2037
   15CHTO   C77 6079   6.633   1.934   0.940  0.6243  0.1073  0.2875
   15CHTO  H149 6080   6.537   1.889   0.964 -0.3249  1.0909 -1.5135
   15CHTO   C88 6081   6.638   1.938   0.789 -0.2390 -0.1727  0.4103
   15CHTO   O58 6082   6.579   1.817   0.732 -0.0955  0.0604 -0.0937
   15CHTO  H136 6083   6.631   1.781   0.663  0.4702  1.8829 -0.6622
   15CHTO   O51 6084   6.927   1.806   1.159  0.2044 -0.0547  0.8200
   15CHTO   C78 6085   6.970   1.684   1.087  0.5187 -0.6639  0.6765
   15CHTO  H150 6086   6.914   1.685   0.991 -1.7672  0.7767  1.9738
   15CHTO   C80 6087   6.948   1.555   1.169 -0.0652 -0.1748  0.4945
   15CHTO  H152 6088   6.986   1.578   1.270  0.9024 -0.8829  0.3079
   15CHTO   O55 6089   6.807   1.526   1.177  0.2106 -0.7919 -0.2140
   15CHTO  H134 6090   6.787   1.479   1.256 -0.8754  1.0113  0.6270
   15CHTO   C84 6091   7.033   1.436   1.119 -0.2205  0.0271 -0.3336
   15CHTO  H156 6092   6.999   1.403   1.021  0.3967 -0.7865 -0.2789
   15CHTO   N15 6093   7.018   1.312   1.204  0.4304  0.4331 -0.7689
   15CHTO  H143 6094   6.923   1.264   1.192  0.6122 -0.5657  1.5001
   15CHTO  H144 6095   7.046   1.322   1.306 -0.5424 -1.2188 -0.3072
   15CHTO   C87 6096   7.180   1.469   1.090  0.1749  0.3451 -0.1273
   15CHTO  H159 6097   7.237   1.500   1.178 -1.2091  0.3263  0.7999
   15CHTO   O53 6098   7.164   1.581   0.987  0.4192 -0.0591  0.4404
   15CHTO   C82 6099   7.113   1.707   1.039  0.0879 -0.0039  0.0699
   15CHTO  H154 6100   7.170   1.734   1.128 -3.0657 -0.9033  2.4385
   15CHTO   C89 6101   7.136   1.821   0.931  0.4608 -0.2033 -0.6247
   15CHTO   O59 6102   7.273   1.843   0.905  0.1939 -0.9983  0.3890
   15CHTO  H137 6103   7.290   1.891   0.826  0.5909  0.2107  1.1914
   15CHTO   O45 6104   7.265   1.338   1.016  0.2367 -0.4859 -0.8190
   15CHTO   C67 6105   7.409   1.350   1.011  0.3381 -0.2779 -0.7765
   15CHTO  H124 6106   7.434   1.453   1.034 -2.0211 -0.1385  1.4729
   15CHTO   C65 6107   7.461   1.258   1.121 -0.0937  0.4174  1.1695
   15CHTO  H122 6108   7.399   1.170   1.110 -1.6510  1.4636  1.3705
   15CHTO   O44 6109   7.445   1.337   1.247 -0.4785  0.2684  0.2924
   15CHTO  H102 6110   7.353   1.356   1.251 -0.4289  0.8403 -0.8492
   15CHTO   C63 6111   7.610   1.206   1.086  0.4136 -0.6939 -0.4356
   15CHTO  H120 6112   7.602   1.123   1.016 -0.1810 -0.2032 -0.9554
   15CHTO   N11 6113   7.691   1.147   1.203 -0.0774  0.0528 -0.3761
   15CHTO  H108 6114   7.693   1.196   1.298 -0.7109 -1.5465  0.4923
   15CHTO  H109 6115   7.668   1.044   1.221 -1.2780  0.4454  0.4112
   15CHTO   C61 6116   7.687   1.310   1.001 -0.4704 -0.0079 -1.0540
   15CHTO  H118 6117   7.786   1.274   0.971 -0.7788 -1.8066  0.0234
   15CHTO   O40 6118   7.613   1.335   0.879  0.5621  0.2258 -0.1157
   15CHTO   C68 6119   7.471   1.314   0.869 -0.5892 -0.6611 -0.0780
   15CHTO  H125 6120   7.458   1.218   0.815  1.2141 -0.8323 -0.2372
   15CHTO   C72 6121   7.436   1.430   0.771 -0.1530 -0.4219 -0.0355
   15CHTO   O48 6122   7.297   1.461   0.750  0.0451 -0.3538 -0.5367
   15CHTO  H105 6123   7.265   1.409   0.679 -1.6915 -0.5284  0.3471
   15CHTO   O38 6124   7.683   1.439   1.061  0.1244 -0.1962  0.4623
   15CHTO   C55 6125   7.792   1.530   1.029  0.3906  0.2465 -0.1172
   15CHTO  H112 6126   7.817   1.536   0.922 -3.6458  1.7978 -1.0487
   15CHTO   C56 6127   7.920   1.500   1.120  0.7655  0.1677  0.3899
   15CHTO  H113 6128   7.881   1.499   1.223 -0.6156 -3.7266 -0.0898
   15CHTO   O42 6129   7.969   1.361   1.098 -0.3585  0.1690  0.7872
   15CHTO  H100 6130   7.905   1.300   1.128  1.3009 -1.9562  0.1696
   15CHTO   C57 6131   8.039   1.607   1.104 -0.5093  0.0914  0.2023
   15CHTO  H114 6132   8.074   1.601   1.001 -0.7343  1.7482  0.0095
   15CHTO   N10 6133   8.147   1.585   1.199  0.1218  0.0542  0.0108
   15CHTO  H106 6134   8.243   1.614   1.160 -0.6249  1.0214 -1.1374
   15CHTO  H107 6135   8.131   1.633   1.294  0.6420  1.7647 -0.7510
   15CHTO   C58 6136   7.989   1.755   1.115  0.5367 -0.1071 -0.3287
   15CHTO  H115 6137   7.976   1.782   1.221  0.0145  3.5796 -1.2608
   15CHTO   O37 6138   7.862   1.767   1.042 -0.0152  0.5374  0.0037
   15CHTO   C59 6139   7.754   1.679   1.071 -0.3832  0.1475 -0.3191
   15CHTO  H116 6140   7.718   1.687   1.173  0.6516 -0.3371  0.0917
   15CHTO   C70 6141   7.632   1.730   0.989  0.0349  0.0501 -0.4318
   15CHTO   O46 6142   7.600   1.867   1.013  0.0956  0.2182 -0.3801
   15CHTO  H103 6143   7.507   1.882   1.010 -0.0431 -0.7739 -1.4769
   15CHTO   O39 6144   8.100   1.863   1.037  0.1610  0.2727  0.1042
   15CHTO   C60 6145   8.068   1.914   0.902 -0.1447  0.0367 -0.1794
   15CHTO  H117 6146   8.000   1.851   0.844 -1.5063  0.8719  0.4939
   15CHTO   C62 6147   8.001   2.050   0.914  0.9311  0.0442 -0.1236
   15CHTO  H119 6148   7.900   2.036   0.958 -0.6334 -0.0255 -3.5991
   15CHTO   O43 6149   8.073   2.126   1.015 -0.2910 -0.2585  0.3576
   15CHTO  H101 6150   8.161   2.135   0.984 -0.0417 -1.1165  0.8033
   15CHTO   C66 6151   7.979   2.123   0.779 -0.1874 -0.0152  0.5247
   15CHTO  H123 6152   7.902   2.065   0.727 -0.2431 -1.1230  1.8183
   15CHTO   N12 6153   7.912   2.256   0.784 -0.0268 -0.0670 -0.6737
   15CHTO  H110 6154   7.809   2.255   0.753 -0.6119  0.2710  1.1711
   15CHTO  H111 6155   7.918   2.298   0.883  0.4456 -0.0288 -0.7189
   15CHTO   C69 6156   8.112   2.141   0.703 -0.1331  0.1135 -0.1667
   15CHTO  H126 6157   8.174   2.199   0.773  0.1217  0.9903 -1.1094
   15CHTO   O41 6158   8.180   1.997   0.682 -0.0086  0.2327 -0.4036
   15CHTO   C64 6159   8.202   1.929   0.818 -0.7415 -0.1262 -0.3813
   15CHTO  H121 6160   8.268   1.990   0.883  3.6341 -1.0326 -3.7507
   15CHTO   C71 6161   8.276   1.798   0.798 -0.3422  0.6879 -0.1651
   15CHTO   O47 6162   8.269   1.718   0.913 -0.4012 -0.1962  0.3554
   15CHTO  H104 6163   8.335   1.743   0.974 -1.0281  2.7041 -0.0966
   15CHTO   O34 6164   8.108   2.193   0.562 -0.2722  0.0584  0.0909
   15CHTO   C49 6165   8.088   2.251   0.406 -0.1768 -0.3832  0.2749
   15CHTO   H91 6166   8.116   2.178   0.330  0.1255  0.6810 -0.6465
   15CHTO   C47 6167   8.193   2.368   0.398 -0.5553  0.4463 -0.0038
   15CHTO   H89 6168   8.186   2.410   0.295  0.0196  1.3709  0.3360
   15CHTO   O33 6169   8.325   2.317   0.417 -0.1591 -0.5294  0.1496
   15CHTO   H70 6170   8.376   2.322   0.338  3.4475 -1.0453  2.3523
   15CHTO   C45 6171   8.146   2.477   0.502 -0.2934  0.3379  0.0282
   15CHTO   H87 6172   8.134   2.435   0.603  0.1013 -1.4610 -0.6567
   15CHTO    N8 6173   8.246   2.585   0.513  0.3122 -0.7068  0.1809
   15CHTO   H75 6174   8.193   2.679   0.516  2.3278  0.5805 -2.1441
   15CHTO   H76 6175   8.307   2.582   0.603  2.0169 -0.1018 -0.9137
   15CHTO   C43 6176   7.994   2.527   0.464 -0.5967  0.2589  0.3004
   15CHTO   H85 6177   7.963   2.583   0.552 -1.6810 -3.1800  2.2069
   15CHTO   O29 6178   7.896   2.421   0.435  0.6453  0.5453  0.1049
   15CHTO   C50 6179   7.941   2.298   0.384 -0.4190 -0.6378 -0.5037
   15CHTO   H92 6180   7.884   2.219   0.435 -1.8537 -0.4931 -1.8287
   15CHTO   C54 6181   7.887   2.274   0.240  0.3548  0.4509  0.9102
   15CHTO   O36 6182   7.950   2.362   0.145  0.1106  0.6991  0.3457
   15CHTO   H72 6183   8.041   2.340   0.145 -0.3271 -1.2098  0.9194
   15CHTO   O27 6184   7.992   2.623   0.349 -0.3847  0.5828 -0.5076
   15CHTO   C37 6185   7.884   2.676   0.275  0.0738  0.2766 -0.2244
   15CHTO   H79 6186   7.821   2.599   0.228  0.3374 -0.5210  0.7121
   15CHTO   C38 6187   7.788   2.754   0.372  0.3766  0.1213  0.0327
   15CHTO   H80 6188   7.854   2.819   0.431 -1.5153  2.2761 -0.1582
   15CHTO   O31 6189   7.723   2.673   0.470 -0.0131 -0.3490 -0.7094
   15CHTO   H68 6190   7.663   2.731   0.513  1.7628  0.7839  0.3005
   15CHTO   C39 6191   7.680   2.848   0.295  0.1494  0.2925  0.4990
   15CHTO   H81 6192   7.601   2.787   0.251  0.8016 -0.5690  0.5117
   15CHTO    N7 6193   7.606   2.947   0.386 -0.0518  0.1786  0.0325
   15CHTO   H73 6194   7.675   3.019   0.429  0.4770  0.6334 -1.5237
   15CHTO   H74 6195   7.524   2.989   0.330  2.0094  2.6452 -1.2807
   15CHTO   C40 6196   7.757   2.925   0.179  0.4526 -0.4937 -0.2378
   15CHTO   H82 6197   7.830   2.989   0.228 -0.4066 -0.9395  1.6659
   15CHTO   O26 6198   7.825   2.825   0.104 -0.2732 -0.5287  0.5562
   15CHTO   C41 6199   7.945   2.779   0.173  0.5599  0.4278  0.3203
   15CHTO   H83 6200   7.991   2.859   0.233  1.4226 -0.5740  1.0103
   15CHTO   C52 6201   8.043   2.711   0.074  0.6527  0.1159  0.4033
   15CHTO   O35 6202   8.105   2.787  -0.014 -0.1541 -0.6486 -1.3656
   15CHTO   H71 6203   8.193   2.759  -0.029  0.3800  1.1577 -1.7516
   15CHTO   O28 6204   7.665   2.994   0.095  0.3196 -0.0164 -0.1834
   15CHTO   C42 6205   7.697   3.107  -0.001 -0.5440 -0.1381  0.5261
   15CHTO   H84 6206   7.667   3.065  -0.097  2.5162 -2.3450  0.4545
   15CHTO   C44 6207   7.851   3.159  -0.020 -0.5243  0.1466 -0.2527
   15CHTO   H86 6208   7.892   3.189   0.077  0.3012  0.7965 -0.7896
   15CHTO   O32 6209   7.941   3.052  -0.058 -0.0649 -0.1999  0.1671
   15CHTO   H69 6210   7.888   2.984  -0.095  0.9004 -0.5363 -0.6360
   15CHTO   C48 6211   7.849   3.283  -0.118 -0.3005 -0.8628  1.0894
   15CHTO   H90 6212   7.816   3.245  -0.214  2.6536 -2.8202  0.7596
   15CHTO    N9 6213   7.991   3.340  -0.127 -0.0414  0.3579  0.3715
   15CHTO   H77 6214   8.044   3.270  -0.191  1.8897  0.9184  1.3142
   15CHTO   H78 6215   8.029   3.320  -0.028 -3.3112 -0.4042  1.5201
   15CHTO   C51 6216   7.746   3.393  -0.069 -0.2354  0.0666  0.0580
   15CHTO   H93 6217   7.766   3.436   0.029 -1.5740  2.2567 -0.6023
   15CHTO   O30 6218   7.619   3.330  -0.077 -0.5581  0.3516  0.7329
   15CHTO   C46 6219   7.603   3.230   0.030 -1.0752 -0.3692 -0.0223
   15CHTO   H88 6220   7.627   3.272   0.128 -0.2675 -0.4577 -0.1850
   15CHTO   C53 6221   7.453   3.186   0.036  0.5468 -0.0749  0.3577
   15CHTO   O72 6222   7.362   3.287   0.070  0.2182  0.4625  0.0126
   15CHTO  H199 6223   7.293   3.296   0.008 -0.4155  0.4621  0.7062
   15CHTO   O22 6224   7.747   3.507  -0.159  0.3689 -0.2054  0.0412
   15CHTO   C31 6225   7.697   3.641  -0.147 -0.0576 -0.2101 -0.2271
   15CHTO   H59 6226   7.713   3.686  -0.247  0.0677  3.9603  1.5770
   15CHTO   C29 6227   7.545   3.650  -0.125 -0.7027 -0.9523 -0.5693
   15CHTO   H57 6228   7.528   3.594  -0.032 -0.0384 -0.5173 -0.1809
   15CHTO   O21 6229   7.475   3.577  -0.229  0.3126 -0.4145  0.0201
   15CHTO   H37 6230   7.475   3.485  -0.212  0.2498 -0.4260 -0.0427
   15CHTO   C27 6231   7.501   3.804  -0.098  0.2283 -0.3616  0.3330
   15CHTO   H55 6232   7.515   3.859  -0.193  1.1500  1.2702  1.4040
   15CHTO    N5 6233   7.358   3.813  -0.061  0.1515  0.4966 -0.0613
   15CHTO   H43 6234   7.294   3.727  -0.077  0.1903  0.8423 -2.2442
   15CHTO   H44 6235   7.324   3.911  -0.033  1.9991  0.6723  1.6726
   15CHTO   C25 6236   7.598   3.871  -0.006 -0.7770  0.3068 -0.7409
   15CHTO   H53 6237   7.576   3.832   0.095 -3.3351 -1.3415 -1.8878
   15CHTO   O17 6238   7.735   3.856  -0.049  0.3961 -0.3272 -0.2113
   15CHTO   C32 6239   7.781   3.721  -0.051  0.1014 -0.3766  0.0624
   15CHTO   H60 6240   7.773   3.680   0.049 -0.8037 -0.7976 -0.1751
   15CHTO   C36 6241   7.930   3.717  -0.095 -0.3364  0.4352 -0.0366
   15CHTO   O25 6242   8.011   3.790  -0.003  0.4820 -0.0026  0.6792
   15CHTO   H40 6243   8.086   3.823  -0.048  0.8193 -0.0628  1.1919
   15CHTO   O15 6244   7.572   4.024   0.007  1.3519  0.4940 -0.6840
   15CHTO   C19 6245   7.604   4.143   0.084 -0.2096  0.0060  0.1114
   15CHTO   H47 6246   7.695   4.185   0.037 -0.5531 -0.0604 -0.6287
   15CHTO   C20 6247   7.487   4.245   0.072  0.5187 -0.6415 -0.1469
   15CHTO   H48 6248   7.395   4.203   0.115  0.6080 -1.0761 -0.3696
   15CHTO   O19 6249   7.473   4.270  -0.070 -0.0628  0.0819  0.2669
   15CHTO   H35 6250   7.401   4.328  -0.087 -0.3120  0.1094  1.4011
   15CHTO   C21 6251   7.523   4.375   0.152 -0.0528 -0.6208  0.2431
   15CHTO   H49 6252   7.612   4.419   0.107 -0.9478  0.3281 -0.6580
   15CHTO    N4 6253   7.416   4.482   0.161 -0.1771  0.3143  0.7400
   15CHTO   H41 6254   7.423   4.547   0.247 -1.0314  2.3200 -0.6445
   15CHTO   H42 6255   7.412   4.543   0.071  0.5508  2.2354  1.9751
   15CHTO   C22 6256   7.565   4.345   0.295  0.1338 -0.3520  0.6016
   15CHTO   H50 6257   7.474   4.330   0.353 -0.5630  0.2102 -0.3449
   15CHTO   O14 6258   7.658   4.242   0.307 -0.2295 -0.5673 -0.1559
   15CHTO   C23 6259   7.630   4.121   0.236 -0.1915  0.4246 -0.4167
   15CHTO   H51 6260   7.542   4.077   0.284 -2.2139  2.5647 -2.0846
   15CHTO   C34 6261   7.737   4.014   0.256  0.3524  0.2586 -0.0205
   15CHTO   O23 6262   7.862   4.059   0.208 -0.4340 -0.1318 -0.4012
   15CHTO   H38 6263   7.844   4.099   0.125 -0.1364 -1.0933 -0.9413
   15CHTO   O16 6264   7.638   4.461   0.345 -0.0361  0.2864  0.1921
   15CHTO   C24 6265   7.637   4.456   0.526 -0.2980 -0.0461  0.4566
   15CHTO   H52 6266   7.567   4.381   0.562 -0.0135 -0.8035 -0.5304
   15CHTO   C26 6267   7.590   4.594   0.562 -0.2808 -0.6450  0.3649
   15CHTO   H54 6268   7.638   4.665   0.493  1.8697 -2.0135  0.4258
   15CHTO   O20 6269   7.451   4.599   0.537 -0.1528  0.4808  0.0333
   15CHTO   H36 6270   7.435   4.653   0.462 -1.7671  2.1720  1.5120
   15CHTO   C30 6271   7.626   4.616   0.714  0.1082 -0.0170  0.2831
   15CHTO   H58 6272   7.587   4.529   0.767 -0.0173  0.1581  0.4748
   15CHTO    N6 6273   7.575   4.746   0.765  0.0288 -0.1503 -0.0097
   15CHTO   H45 6274   7.607   4.834   0.711 -0.9255 -0.0977 -0.5006
   15CHTO   H46 6275   7.468   4.747   0.768 -0.0177 -1.2278 -1.0324
   15CHTO   C33 6276   7.781   4.599   0.721 -0.0909 -0.4243 -0.1531
   15CHTO   H61 6277   7.831   4.649   0.637  2.7730 -1.7755  0.6934
   15CHTO   O18 6278   7.807   4.458   0.705 -0.0261 -0.2793  0.0234
   15CHTO   C28 6279   7.781   4.414   0.570 -0.0406  0.3312 -0.6494
   15CHTO   H56 6280   7.857   4.456   0.505  0.5534 -0.0272 -0.1933
   15CHTO   C35 6281   7.794   4.263   0.554  0.6317  0.2672 -0.1831
   15CHTO   O24 6282   7.918   4.199   0.587  0.3198 -0.1048 -0.0819
   15CHTO   H39 6283   7.908   4.137   0.656 -1.3718 -1.8014 -1.8026
   15CHTO    O9 6284   7.849   4.653   0.838  0.0483  0.0044 -0.2053
   15CHTO   C13 6285   8.012   4.717   0.810 -0.0653  0.0366  0.1253
   15CHTO   H26 6286   7.994   4.819   0.772  2.2213 -0.0167 -1.1916
   15CHTO   C11 6287   8.090   4.628   0.706  0.6638 -1.0913  0.5885
   15CHTO   H24 6288   8.035   4.634   0.611  1.0527  1.5383  0.4740
   15CHTO    O8 6289   8.088   4.487   0.752 -0.1361 -0.2204  0.1951
   15CHTO    H3 6290   8.001   4.452   0.744  0.4140 -2.0689  1.8519
   15CHTO    C9 6291   8.227   4.696   0.683 -0.7340 -0.1551 -0.4101
   15CHTO   H22 6292   8.211   4.798   0.645 -2.2377 -0.6354 -1.0942
   15CHTO    N2 6293   8.304   4.637   0.569  0.0826 -0.5006  0.4485
   15CHTO   H10 6294   8.326   4.534   0.591 -1.8719 -0.4645  2.7145
   15CHTO   H11 6295   8.248   4.656   0.479 -1.9842  0.7042  1.9534
   15CHTO    C7 6296   8.305   4.685   0.814  0.4651  1.0867  0.8368
   15CHTO   H20 6297   8.395   4.743   0.785  0.1359  1.2491  0.1243
   15CHTO    O4 6298   8.240   4.744   0.925 -0.1124 -0.0604 -0.4211
   15CHTO   C14 6299   8.100   4.720   0.944  0.0592  0.7201  0.8184
   15CHTO   H27 6300   8.058   4.806   1.000  0.1934  0.9909  0.5094
   15CHTO   C18 6301   8.078   4.592   1.028  0.1495 -0.0637 -0.9344
   15CHTO   O13 6302   8.132   4.604   1.166 -0.1575 -0.7251 -0.0218
   15CHTO    H7 6303   8.096   4.531   1.212 -1.7990 -0.8585 -1.4651
   15CHTO    O2 6304   8.344   4.519   0.855  0.2455  1.0926 -0.3430
   15CHTO    C1 6305   8.429   4.511   0.972  0.1863  1.1535 -0.6006
   15CHTO   H14 6306   8.390   4.576   1.052 -0.4202  0.0747 -0.0207
   15CHTO    C2 6307   8.584   4.536   0.963 -0.2034 -0.1046  0.0444
   15CHTO   H15 6308   8.633   4.463   0.897  2.3739  2.0306 -0.4676
   15CHTO    O6 6309   8.611   4.673   0.920 -0.0100  0.0909 -0.3476
   15CHTO    H1 6310   8.605   4.731   0.994 -3.8285 -4.1130  2.9036
   15CHTO    C3 6311   8.657   4.506   1.098  0.2415 -0.3744  0.3977
   15CHTO   H16 6312   8.621   4.593   1.155  1.8067  0.2996  0.3679
   15CHTO    N1 6313   8.805   4.517   1.100  0.4488  0.5913 -0.2680
   15CHTO    H8 6314   8.843   4.495   1.198 -1.1631  0.7981  0.4214
   15CHTO    H9 6315   8.837   4.439   1.033  1.0219  1.0881 -0.5803
   15CHTO    C4 6316   8.603   4.377   1.178 -0.1415  0.1114 -0.5631
   15CHTO   H17 6317   8.658   4.290   1.142 -0.4329  0.3471 -1.5988
   15CHTO    O1 6318   8.463   4.358   1.167 -0.0348 -0.2821 -0.1572
   15CHTO    C5 6319   8.418   4.360   1.032  0.1919 -0.3896 -0.2569
   15CHTO   H18 6320   8.476   4.289   0.973 -0.1153 -0.6442 -0.2589
   15CHTO   C16 6321   8.271   4.300   1.034 -0.3746  0.2040  0.2532
   15CHTO   O11 6322   8.257   4.191   1.128 -0.3752  0.4136 -0.4028
   15CHTO    H5 6323   8.258   4.101   1.101  0.6850  0.6830 -1.3052
   15CHTO    O3 6324   8.632   4.388   1.317  0.6441 -0.0856  0.3140
   15CHTO    C6 6325   8.633   4.263   1.401 -0.0443 -0.5582 -0.4292
   15CHTO   H19 6326   8.595   4.172   1.355  0.0080 -0.0936 -1.4068
   15CHTO    C8 6327   8.784   4.242   1.438  0.0434 -0.6276  0.1319
   15CHTO   H21 6328   8.826   4.335   1.476 -1.2999  0.4655 -1.0051
   15CHTO    O7 6329   8.864   4.206   1.324 -0.0893  0.4950 -0.3497
   15CHTO    H2 6330   8.808   4.158   1.265  0.2927 -0.9148  0.4134
   15CHTO   C12 6331   8.798   4.139   1.549  0.1344 -0.7609  0.6265
   15CHTO   H25 6332   8.771   4.044   1.498  2.0321  0.0857 -2.0285
   15CHTO    N3 6333   8.938   4.122   1.593  0.2627 -0.3723 -0.1198
   15CHTO   H12 6334   8.997   4.073   1.517  0.5240  0.3304 -0.3667
   15CHTO   H13 6335   8.988   4.211   1.627  0.0440  0.8658 -2.9415
   15CHTO   C15 6336   8.693   4.166   1.663 -0.4085 -0.9954  0.1276
   15CHTO   H28 6337   8.723   4.251   1.724 -0.9022 -0.8524  0.1731
   15CHTO   O10 6338   8.668   4.045   1.750  0.0336 -0.4523 -0.2418
   15CHTO    H4 6339   8.754   4.014   1.771  1.6787  3.0387 -1.5088
   15CHTO    O5 6340   8.560   4.186   1.616  0.0636 -0.4201 -0.0637
   15CHTO   C10 6341   8.547   4.292   1.522  0.2572 -0.1441  0.4518
   15CHTO   H23 6342   8.587   4.388   1.554 -3.3021  1.2525  0.9336
   15CHTO   C17 6343   8.393   4.299   1.498  0.0418 -0.4505 -0.0066
   15CHTO   O12 6344   8.316   4.360   1.594 -0.1234  0.2012 -0.5576
   15CHTO    H6 6345   8.236   4.386   1.551  0.6405 -0.4772 -2.4388
   16CHTO  H203 6346   6.644   4.534   0.179  2.2316 -2.0309 -0.2068
   16CHTO   O82 6347   6.707   4.601   0.200  0.0256 -0.0811  0.3934
   16CHTO  C123 6348   6.815   4.553   0.282 -0.2009 -0.0572  0.1082
   16CHTO  H227 6349   6.860   4.636   0.338 -1.5520 -0.5655  1.9961
   16CHTO   O77 6350   6.760   4.457   0.377 -0.2888 -0.4374  0.0890
   16CHTO  C118 6351   6.848   4.429   0.481  1.1631  0.2655  0.0873
   16CHTO  H222 6352   6.887   4.527   0.513  2.2813 -0.1662  0.0936
   16CHTO  C125 6353   6.774   4.365   0.605  0.0573  0.6329 -0.6999
   16CHTO   O84 6354   6.643   4.412   0.658 -0.1459  0.1616 -0.2881
   16CHTO  H205 6355   6.585   4.407   0.585 -2.5729 -0.9706  1.6116
   16CHTO  C114 6356   6.964   4.349   0.428 -0.3391  0.2619  1.0839
   16CHTO  H218 6357   6.927   4.249   0.403 -0.4223  0.5790 -0.0997
   16CHTO  C116 6358   7.024   4.418   0.298 -0.0852  0.0697  0.4240
   16CHTO  H220 6359   7.093   4.500   0.325 -0.4173  1.0902 -1.6834
   16CHTO   O79 6360   7.102   4.313   0.225  0.9017 -0.4750 -0.0223
   16CHTO  H201 6361   7.042   4.251   0.188  0.1367 -0.2231  0.7778
   16CHTO  C120 6362   6.925   4.478   0.193 -0.3233 -0.1282 -0.2103
   16CHTO  H224 6363   6.882   4.391   0.139 -0.2139 -0.9586  1.0277
   16CHTO   N21 6364   6.994   4.571   0.092  0.2185  0.4694 -0.3393
   16CHTO  H211 6365   6.999   4.674   0.124  1.1348  0.4153 -0.3015
   16CHTO  H212 6366   7.068   4.530   0.024  2.0832  1.0709  1.2963
   16CHTO   O75 6367   7.059   4.342   0.538 -0.4475 -0.2946  0.4905
   16CHTO  C112 6368   7.197   4.253   0.504 -0.0291  0.0320  0.1336
   16CHTO  H216 6369   7.262   4.316   0.442  0.0869  0.3450  0.5714
   16CHTO   O73 6370   7.155   4.133   0.439  0.2424  0.0116  0.3479
   16CHTO  C113 6371   7.262   4.050   0.393 -0.1085  0.0961  0.1112
   16CHTO  H217 6372   7.333   4.111   0.333 -1.0668  0.3237 -0.8054
   16CHTO  C124 6373   7.203   3.940   0.305 -0.4678 -0.4521  0.4512
   16CHTO   O83 6374   7.108   3.844   0.363  0.1336 -0.1684 -0.2454
   16CHTO  H204 6375   7.032   3.889   0.396 -0.5983 -0.7826 -1.0689
   16CHTO  C109 6376   7.336   3.996   0.512 -0.2089 -0.3570 -0.5329
   16CHTO  H213 6377   7.266   3.932   0.568 -0.9893  1.2174  0.3316
   16CHTO  C110 6378   7.383   4.105   0.608 -0.0478 -0.4808  0.3767
   16CHTO  H214 6379   7.462   4.158   0.555  1.0295 -2.4382 -0.0440
   16CHTO   O78 6380   7.424   4.041   0.730 -0.5250  0.4976  0.5320
   16CHTO  H200 6381   7.508   4.070   0.760 -0.2340 -0.0129  0.2112
   16CHTO  C111 6382   7.273   4.214   0.636 -0.0143  0.0586 -0.2393
   16CHTO  H215 6383   7.195   4.175   0.703 -2.4501  2.3470 -1.6700
   16CHTO   N19 6384   7.325   4.333   0.706 -0.0292  0.7066 -0.0487
   16CHTO  H207 6385   7.250   4.411   0.707 -0.4136  0.3389 -0.2169
   16CHTO  H208 6386   7.342   4.313   0.810 -0.0293  1.0438  0.0165
   16CHTO   O74 6387   7.460   3.922   0.470 -0.0638 -0.2548 -0.0710
   16CHTO  C115 6388   7.477   3.799   0.541 -0.6576  0.1157  0.1781
   16CHTO  H219 6389   7.441   3.807   0.644 -0.7265 -1.1643  0.2535
   16CHTO   O76 6390   7.400   3.689   0.480 -0.2513  0.3408 -0.1507
   16CHTO  C122 6391   7.451   3.642   0.354  0.2836  0.6006 -0.1346
   16CHTO  H226 6392   7.444   3.729   0.289 -2.8497  2.5011  2.5888
   16CHTO  C126 6393   7.360   3.529   0.293  0.0746 -0.4611  0.1682
   16CHTO   O85 6394   7.254   3.560   0.204 -0.0398  0.2261  0.6175
   16CHTO  H206 6395   7.223   3.485   0.157 -0.8776  0.1455  1.2916
   16CHTO  C121 6396   7.599   3.583   0.380 -0.0252  0.0434 -0.2040
   16CHTO  H225 6397   7.592   3.473   0.371  0.5826  0.0951 -1.3766
   16CHTO   O81 6398   7.687   3.623   0.273  0.2655  0.0964 -0.5472
   16CHTO  H202 6399   7.706   3.715   0.275 -2.4650  0.7073  1.4201
   16CHTO  C119 6400   7.658   3.617   0.519  0.0420  0.2560  0.4875
   16CHTO  H223 6401   7.611   3.560   0.599 -1.6701 -0.7165 -1.1829
   16CHTO  C117 6402   7.633   3.777   0.544 -0.3955  0.2373  0.3794
   16CHTO  H221 6403   7.677   3.839   0.466  1.8308  0.1704  1.5584
   16CHTO   N20 6404   7.686   3.828   0.675 -0.3588  0.2822 -0.1559
   16CHTO  H209 6405   7.763   3.761   0.711 -1.2493 -0.7584 -0.1562
   16CHTO  H210 6406   7.732   3.922   0.647  0.9079  0.4034  2.2044
   16CHTO   O80 6407   7.809   3.564   0.532 -0.5170 -0.7871 -0.2549
   16CHTO  C103 6408   7.828   3.421   0.536 -0.0173 -0.3345  1.2551
   16CHTO  H190 6409   7.733   3.369   0.546  0.2778 -1.5927 -1.8572
   16CHTO  C101 6410   7.917   3.355   0.418 -0.2458 -0.3442  0.7536
   16CHTO  H188 6411   8.014   3.404   0.410 -1.2521  1.7567  1.1527
   16CHTO   O68 6412   7.846   3.366   0.275 -0.0647 -0.6127 -0.0216
   16CHTO  H168 6413   7.903   3.320   0.216 -0.4592 -0.7219 -0.3217
   16CHTO   C99 6414   7.958   3.199   0.448 -0.3856  0.0370  0.3131
   16CHTO  H186 6415   7.868   3.133   0.448 -0.4887  0.1789  0.5684
   16CHTO   N17 6416   8.059   3.137   0.347 -0.0136 -0.0495 -0.1576
   16CHTO  H174 6417   8.090   3.046   0.397 -1.9789 -0.6385  0.0439
   16CHTO  H175 6418   7.998   3.109   0.263  1.4829  0.0591 -1.3012
   16CHTO   C97 6419   8.015   3.195   0.595  0.0468 -0.0267 -0.2775
   16CHTO  H184 6420   8.111   3.248   0.592 -0.8688  1.6485 -0.4052
   16CHTO   O64 6421   7.930   3.257   0.690  0.0357 -0.2160  0.3701
   16CHTO  C104 6422   7.910   3.400   0.673  0.0711  0.8526  0.3249
   16CHTO  H191 6423   8.000   3.460   0.669  0.7233  0.1566  3.4064
   16CHTO  C108 6424   7.833   3.469   0.785 -0.3925  0.3018 -0.0475
   16CHTO   O71 6425   7.908   3.464   0.907  0.3566  0.6271  0.8276
   16CHTO  H171 6426   7.871   3.518   0.974  1.6440  1.5423  0.8262
   16CHTO   O62 6427   8.023   3.058   0.637  0.2749  0.3646 -0.1324
   16CHTO   C91 6428   8.109   3.011   0.741 -0.2014  0.2794 -0.3225
   16CHTO  H178 6429   8.211   3.040   0.714 -0.2757 -1.3298 -2.5010
   16CHTO   C92 6430   8.112   2.853   0.743 -0.4676 -0.0767 -0.0373
   16CHTO  H179 6431   8.111   2.819   0.638 -1.8981 -0.0045 -0.0533
   16CHTO   O66 6432   8.235   2.816   0.804  0.1286 -0.4831 -0.3371
   16CHTO  H166 6433   8.307   2.844   0.751 -0.3421 -1.5729 -1.5906
   16CHTO   C93 6434   7.996   2.795   0.831  0.7041  0.6407  0.0855
   16CHTO  H180 6435   8.028   2.691   0.850  1.1500  0.4853 -1.4363
   16CHTO   N16 6436   7.871   2.786   0.750 -0.3476  0.5580 -0.4295
   16CHTO  H172 6437   7.899   2.726   0.665  0.5199  1.1638 -0.5780
   16CHTO  H173 6438   7.805   2.728   0.813 -0.4645 -0.4592 -1.4754
   16CHTO   C94 6439   7.986   2.866   0.972 -0.1037  0.7562  0.3134
   16CHTO  H181 6440   7.899   2.931   0.978 -1.3007 -0.7098 -0.6343
   16CHTO   O61 6441   8.096   2.964   0.980 -0.5366  0.0319  0.1431
   16CHTO   C95 6442   8.071   3.069   0.887  0.6388  0.0938 -0.7232
   16CHTO  H182 6443   7.965   3.091   0.891  0.3640 -1.1446 -1.0222
   16CHTO  C106 6444   8.162   3.190   0.923 -0.8761 -0.4027 -1.0924
   16CHTO   O69 6445   8.300   3.160   0.943  0.2253  0.0833  0.6686
   16CHTO  H169 6446   8.312   3.072   0.973  1.2204  0.7778  2.3996
   16CHTO   O63 6447   7.989   2.754   1.096 -0.0843 -0.1235  0.3401
   16CHTO   C96 6448   7.820   2.717   1.155 -0.2040 -0.6284  0.7083
   16CHTO  H183 6449   7.835   2.641   1.232  1.0652 -0.4120  0.6962
   16CHTO   C98 6450   7.731   2.641   1.049 -0.1426 -0.1972  0.0080
   16CHTO  H185 6451   7.728   2.692   0.952 -0.4901  1.3211  0.7962
   16CHTO   O67 6452   7.797   2.509   1.021  0.5279  0.1889  0.0001
   16CHTO  H167 6453   7.772   2.466   0.941  0.2213 -2.7540  1.6234
   16CHTO  C102 6454   7.584   2.629   1.104  0.7907 -0.2387  0.4309
   16CHTO  H189 6455   7.584   2.571   1.197 -1.2582  1.2419  1.4098
   16CHTO   N18 6456   7.499   2.554   1.002 -0.3313  0.1768  0.2008
   16CHTO  H176 6457   7.492   2.588   0.900  0.1583  0.2542  0.1890
   16CHTO  H177 6458   7.398   2.542   1.036 -0.1993 -0.1391  0.4839
   16CHTO  C105 6459   7.532   2.774   1.144 -0.3092 -0.4426  0.2887
   16CHTO  H192 6460   7.539   2.838   1.056  0.3632  0.4112  0.9654
   16CHTO   O65 6461   7.613   2.837   1.248  0.0683  0.5349 -0.0409
   16CHTO  C100 6462   7.753   2.848   1.217  0.1516 -0.1549 -0.1322
   16CHTO  H187 6463   7.766   2.930   1.146  2.3311  0.7999  1.3014
   16CHTO  C107 6464   7.835   2.897   1.343 -0.1886 -0.1083  0.1706
   16CHTO   O70 6465   7.842   2.784   1.428  0.1778  0.3303  0.2432
   16CHTO  H170 6466   7.907   2.727   1.393  0.5046  1.4044 -0.9258
   16CHTO   O57 6467   7.378   2.758   1.188  0.0789 -0.0324 -0.3359
   16CHTO   C85 6468   7.273   2.828   1.117 -0.4884 -0.3603  0.2291
   16CHTO  H157 6469   7.300   2.803   1.012 -0.1068  2.7992 -0.4843
   16CHTO   C83 6470   7.292   2.986   1.127 -0.1778 -0.2711 -0.1885
   16CHTO  H155 6471   7.385   3.015   1.078 -0.6503  0.1091 -0.8903
   16CHTO   O56 6472   7.297   3.021   1.266 -0.2431  0.5821 -0.3792
   16CHTO  H135 6473   7.312   3.113   1.271  1.1690  0.2458  2.2571
   16CHTO   C81 6474   7.179   3.063   1.053  0.2072  0.2235  0.2214
   16CHTO  H153 6475   7.188   3.041   0.946 -1.5057  0.0006  0.0986
   16CHTO   N14 6476   7.199   3.208   1.051  0.3825  0.9024 -0.0515
   16CHTO  H141 6477   7.294   3.249   1.023  0.9882 -0.6882 -0.4250
   16CHTO  H142 6478   7.175   3.252   1.145  0.9414 -0.2297  0.6431
   16CHTO   C79 6479   7.038   3.018   1.098  0.0898 -0.0661 -0.1063
   16CHTO  H151 6480   6.967   3.054   1.024  0.1633 -0.0882 -0.1873
   16CHTO   O52 6481   7.020   2.872   1.082  0.7350 -0.1689  0.6830
   16CHTO   C86 6482   7.122   2.789   1.152  0.0481 -0.3744  0.0253
   16CHTO  H158 6483   7.102   2.801   1.260  0.4222 -1.1337  0.1839
   16CHTO   C90 6484   7.103   2.637   1.117  0.1095 -0.4086  0.0668
   16CHTO   O60 6485   6.967   2.596   1.121 -0.4565  0.2645 -0.5355
   16CHTO  H138 6486   6.970   2.507   1.092  0.7149 -0.1477  0.7832
   16CHTO   O50 6487   7.016   3.053   1.233  0.1786 -0.0002 -0.5687
   16CHTO   C73 6488   6.895   3.066   1.310 -0.4490  0.7788 -0.3979
   16CHTO  H145 6489   6.863   2.969   1.351 -1.7321  1.1043 -0.6132
   16CHTO   C74 6490   6.770   3.124   1.239  0.3937 -0.2533 -0.2724
   16CHTO  H146 6491   6.759   3.050   1.158 -0.1322 -1.5647  0.9956
   16CHTO   O54 6492   6.658   3.111   1.327 -0.2041 -0.2452  0.0322
   16CHTO  H133 6493   6.634   3.022   1.341  0.7764 -0.6957 -1.0240
   16CHTO   C75 6494   6.797   3.270   1.183  0.1631  0.2876  0.3836
   16CHTO  H147 6495   6.888   3.273   1.121 -0.3088  2.5941 -0.2385
   16CHTO   N13 6496   6.698   3.333   1.093 -0.3933 -1.0401 -0.1084
   16CHTO  H139 6497   6.708   3.285   0.996  2.5338 -0.4395 -0.1402
   16CHTO  H140 6498   6.603   3.334   1.145 -0.4866 -0.6304 -0.2913
   16CHTO   C76 6499   6.832   3.353   1.311 -0.5355  0.3042 -0.4029
   16CHTO  H148 6500   6.744   3.367   1.374 -0.1858  0.5778  0.0242
   16CHTO   O49 6501   6.941   3.296   1.389 -0.4462 -0.3990 -0.0921
   16CHTO   C77 6502   6.925   3.157   1.434  0.8515 -0.3045 -0.3642
   16CHTO  H149 6503   6.841   3.153   1.503 -0.9971  1.0342 -2.4800
   16CHTO   C88 6504   7.041   3.107   1.518 -0.4598 -0.4400 -1.1137
   16CHTO   O58 6505   7.019   2.983   1.622  0.3069  0.3746  0.1403
   16CHTO  H136 6506   6.991   3.018   1.705 -0.5314  1.2323 -0.4812
   16CHTO   O51 6507   6.905   3.502   1.258  0.4006  0.4719  0.1200
   16CHTO   C78 6508   6.909   3.598   1.376  0.1736 -0.1483 -0.0642
   16CHTO  H150 6509   6.895   3.544   1.472 -5.0952  0.4283 -0.3777
   16CHTO   C80 6510   6.798   3.707   1.369  0.1850 -0.2181 -0.6028
   16CHTO  H152 6511   6.785   3.742   1.265 -0.5854 -1.1372 -0.8259
   16CHTO   O55 6512   6.673   3.645   1.389 -0.0783  0.2146 -0.2275
   16CHTO  H134 6513   6.656   3.569   1.337  2.6627  0.7103 -1.9791
   16CHTO   C84 6514   6.821   3.820   1.470  0.6204 -0.8088  0.1917
   16CHTO  H156 6515   6.797   3.763   1.560 -0.6840 -2.9639 -1.4443
   16CHTO   N15 6516   6.731   3.932   1.444 -0.7469 -0.2132 -0.0895
   16CHTO  H143 6517   6.627   3.906   1.450 -0.8934  0.4973  0.4455
   16CHTO  H144 6518   6.749   4.010   1.515 -0.4404  1.8184 -2.3207
   16CHTO   C87 6519   6.963   3.872   1.473 -0.2739  0.1052  0.5761
   16CHTO  H159 6520   6.986   3.944   1.395  1.3497 -0.6992  0.2754
   16CHTO   O53 6521   7.062   3.750   1.476  0.4742 -0.4928 -0.2229
   16CHTO   C82 6522   7.050   3.654   1.370  1.2157 -0.9101 -0.5072
   16CHTO  H154 6523   7.068   3.697   1.272 -0.0959  0.2434 -0.2579
   16CHTO   C89 6524   7.164   3.544   1.391  0.1578  1.0639 -0.2569
   16CHTO   O59 6525   7.289   3.604   1.417  0.0635  0.1969 -0.0720
   16CHTO  H137 6526   7.346   3.531   1.405 -0.2731 -0.0674 -0.0423
   16CHTO   O45 6527   6.981   3.950   1.613 -0.1056 -0.1873 -0.0114
   16CHTO   C67 6528   7.103   4.024   1.621 -0.2724  0.4438 -0.4940
   16CHTO  H124 6529   7.192   3.961   1.610  0.4709  0.7440  3.1997
   16CHTO   C65 6530   7.105   4.144   1.508  0.5439  0.0377  0.8061
   16CHTO  H122 6531   7.002   4.149   1.471  0.9840  0.3042 -0.4052
   16CHTO   O44 6532   7.189   4.090   1.397 -0.1750  0.2169  0.1231
   16CHTO  H102 6533   7.277   4.122   1.398 -0.5637  1.3355 -0.3462
   16CHTO   C63 6534   7.146   4.286   1.566 -0.8325 -0.5320 -0.0772
   16CHTO  H120 6535   7.065   4.337   1.617  0.7844 -0.1079  2.1248
   16CHTO   N11 6536   7.177   4.397   1.464 -0.4483  0.2320  0.0942
   16CHTO  H108 6537   7.140   4.359   1.371 -0.5258  2.1817 -0.7187
   16CHTO  H109 6538   7.275   4.438   1.472 -0.1290 -0.2310 -1.3237
   16CHTO   C61 6539   7.265   4.259   1.661  0.7972  0.0060 -1.0538
   16CHTO  H118 6540   7.298   4.357   1.700  0.8245  0.5507 -2.4238
   16CHTO   O40 6541   7.239   4.169   1.775  0.2795 -0.3141  0.3675
   16CHTO   C68 6542   7.115   4.095   1.764  0.4286 -0.2305  0.7505
   16CHTO  H125 6543   7.036   4.172   1.774  0.0616 -0.0262 -3.0422
   16CHTO   C72 6544   7.103   4.001   1.877  0.1637  0.4473 -0.0719
   16CHTO   O48 6545   7.181   3.876   1.854  0.3720  0.6761  0.6554
   16CHTO  H105 6546   7.122   3.811   1.822  1.0527  0.0742  0.6000
   16CHTO   O38 6547   7.378   4.207   1.590 -0.2364 -0.3851 -0.6738
   16CHTO   C55 6548   7.483   4.147   1.664  0.0544  0.0917 -0.4345
   16CHTO  H112 6549   7.448   4.079   1.743  1.8600  0.2464  0.5251
   16CHTO   C56 6550   7.586   4.254   1.728 -0.3968  0.3961  0.4468
   16CHTO  H113 6551   7.603   4.337   1.658  0.5210 -0.4651 -0.3693
   16CHTO   O42 6552   7.529   4.309   1.842  0.1602 -0.1824 -0.1594
   16CHTO  H100 6553   7.503   4.250   1.911 -2.3959  2.4110  1.2082
   16CHTO   C57 6554   7.724   4.194   1.769  0.1587  0.5398  0.3874
   16CHTO  H114 6555   7.709   4.139   1.862  0.6813  1.3080  0.9303
   16CHTO   N10 6556   7.831   4.300   1.793 -0.1946  0.3135 -0.1064
   16CHTO  H106 6557   7.838   4.318   1.899 -0.2464  0.1657 -0.0779
   16CHTO  H107 6558   7.801   4.390   1.741  0.2177  1.7668  2.1183
   16CHTO   C58 6559   7.770   4.091   1.664 -1.2337 -0.4008  0.2187
   16CHTO  H115 6560   7.787   4.143   1.567 -3.1708 -2.4009 -1.2564
   16CHTO   O37 6561   7.664   3.995   1.642  0.2019 -0.2050  0.4220
   16CHTO   C59 6562   7.552   4.048   1.570  0.9514  0.6429 -0.3377
   16CHTO  H116 6563   7.597   4.097   1.483  0.2874 -0.3179 -1.2390
   16CHTO   C70 6564   7.455   3.931   1.531 -0.1926  0.3740  0.1590
   16CHTO   O46 6565   7.429   3.848   1.641  0.6239 -0.0121 -0.1487
   16CHTO  H103 6566   7.353   3.794   1.636 -0.3484  1.2375  0.6856
   16CHTO   O39 6567   7.898   4.008   1.715  0.6575  0.2409  1.0324
   16CHTO   C60 6568   7.966   3.929   1.621  0.1119  0.1535  0.8526
   16CHTO  H117 6569   7.897   3.908   1.539  0.1978 -1.0880  1.0936
   16CHTO   C62 6570   8.089   4.005   1.575 -0.4437  0.3315 -0.3536
   16CHTO  H119 6571   8.052   4.097   1.526 -0.0821  0.2777 -0.7324
   16CHTO   O43 6572   8.179   4.037   1.689 -0.1695 -0.6056  0.4685
   16CHTO  H101 6573   8.270   4.027   1.668 -0.4160  0.0012 -0.9417
   16CHTO   C66 6574   8.152   3.906   1.458 -0.3329 -0.4161 -0.1767
   16CHTO  H123 6575   8.078   3.896   1.378  1.0120 -0.1838 -1.4642
   16CHTO   N12 6576   8.268   3.960   1.383  0.6032 -0.1608 -0.8259
   16CHTO  H110 6577   8.353   3.894   1.390  1.1211  0.5050 -0.7499
   16CHTO  H111 6578   8.247   3.978   1.278  1.3228  2.0033 -0.6147
   16CHTO   C69 6579   8.185   3.764   1.517  0.1258  0.7524  0.2088
   16CHTO  H126 6580   8.272   3.783   1.584  0.6578  0.2213 -0.3239
   16CHTO   O41 6581   8.063   3.702   1.594  0.2191  0.5250  0.3068
   16CHTO   C64 6582   7.992   3.797   1.688 -0.5925  0.3658 -0.1008
   16CHTO  H121 6583   8.068   3.810   1.767 -0.9751  0.8048  0.1970
   16CHTO   C71 6584   7.872   3.729   1.751 -0.5533 -0.4508 -0.2519
   16CHTO   O47 6585   7.775   3.690   1.657  0.0984  0.1536 -0.1634
   16CHTO  H104 6586   7.774   3.597   1.644  1.4192  0.2138 -0.7572
   16CHTO   O34 6587   8.236   3.660   1.396 -0.5022 -0.4373 -0.1592
   16CHTO   C49 6588   8.163   3.637   1.273 -0.1685 -0.9068 -0.4980
   16CHTO   H91 6589   8.134   3.737   1.240 -1.3278 -0.1859  2.4835
   16CHTO   C47 6590   8.036   3.550   1.283  0.2849  0.5950 -0.6963
   16CHTO   H89 6591   7.992   3.554   1.182 -0.3020 -1.1244 -0.5225
   16CHTO   O33 6592   7.936   3.597   1.376  0.5704  0.4790  0.2701
   16CHTO   H70 6593   7.927   3.690   1.371  1.1939  0.5135 -0.1803
   16CHTO   C45 6594   8.076   3.396   1.320 -0.0054 -0.3014  0.1520
   16CHTO   H87 6595   8.077   3.377   1.428  4.1059 -1.1371  0.0325
   16CHTO    N8 6596   7.981   3.303   1.256  0.2878 -0.0381 -0.2722
   16CHTO   H75 6597   7.911   3.361   1.197  0.8385  0.1828 -0.7117
   16CHTO   H76 6598   7.928   3.241   1.327  0.1531 -1.8775 -1.9289
   16CHTO   C43 6599   8.234   3.364   1.288 -0.8519  0.0556  0.6636
   16CHTO   H85 6600   8.294   3.410   1.367  1.3735  1.7468 -1.9168
   16CHTO   O29 6601   8.262   3.422   1.159  0.3155  0.1262 -0.7030
   16CHTO   C50 6602   8.269   3.566   1.172  0.8211  0.2883  0.4874
   16CHTO   H92 6603   8.367   3.608   1.200 -0.1234  2.5408  0.5598
   16CHTO   C54 6604   8.249   3.629   1.028  0.0207  0.0570  0.3697
   16CHTO   O36 6605   8.270   3.771   1.041  0.3194  0.1317  0.1879
   16CHTO   H72 6606   8.188   3.818   1.045  0.0172 -0.5446  3.1265
   16CHTO   O27 6607   8.267   3.224   1.295  0.4855  0.2215  0.6069
   16CHTO   C37 6608   8.300   3.108   1.380 -0.8113  0.6676  0.0300
   16CHTO   H79 6609   8.402   3.124   1.417 -1.3260  0.8924  1.4075
   16CHTO   C38 6610   8.208   3.095   1.499 -0.3411 -0.0059 -0.4566
   16CHTO   H80 6611   8.105   3.090   1.461 -0.3513  0.5651 -0.4958
   16CHTO   O31 6612   8.230   3.213   1.590 -0.2996 -0.4051  0.4853
   16CHTO   H68 6613   8.184   3.290   1.562  0.4440 -0.3526 -0.6517
   16CHTO   C39 6614   8.231   2.957   1.576 -0.3146 -0.5545 -0.0682
   16CHTO   H81 6615   8.335   2.951   1.608  0.0396  2.3400 -0.5521
   16CHTO    N7 6616   8.145   2.948   1.700 -0.0212 -0.0743  0.0208
   16CHTO   H73 6617   8.104   3.045   1.721 -2.0785 -1.0073  0.4936
   16CHTO   H74 6618   8.211   2.928   1.784  0.4127  0.3210 -0.2313
   16CHTO   C40 6619   8.212   2.844   1.473  0.5963 -0.0328  0.3144
   16CHTO   H82 6620   8.114   2.843   1.426  1.8320 -3.8181 -2.4507
   16CHTO   O26 6621   8.317   2.871   1.376  0.2626 -0.1534 -0.2577
   16CHTO   C41 6622   8.301   2.989   1.291 -0.2398  0.7361 -0.2579
   16CHTO   H83 6623   8.204   2.973   1.242 -1.6962  0.5170  2.6097
   16CHTO   C52 6624   8.425   2.991   1.199  0.6819 -0.0455  0.6314
   16CHTO   O35 6625   8.440   2.875   1.103  0.0081 -0.8123  0.0028
   16CHTO   H71 6626   8.360   2.877   1.054  0.1940  2.2169 -0.2419
   16CHTO   O28 6627   8.264   2.722   1.516  0.6630  0.0760  0.0400
   16CHTO   C42 6628   8.231   2.593   1.455 -0.2817 -0.2952  0.5703
   16CHTO   H84 6629   8.308   2.524   1.490  0.3097  0.2902  0.4156
   16CHTO   C44 6630   8.238   2.583   1.304  0.0489  0.1536  0.1778
   16CHTO   H86 6631   8.168   2.653   1.257  0.4876 -1.7603 -3.5689
   16CHTO   O32 6632   8.367   2.631   1.252 -0.1224 -0.0077  0.4642
   16CHTO   H69 6633   8.381   2.591   1.168  0.0324 -1.6820  1.2555
   16CHTO   C48 6634   8.196   2.434   1.251 -0.0777  1.0642 -0.6383
   16CHTO   H90 6635   8.280   2.370   1.279  2.6929  3.8577 -2.1625
   16CHTO    N9 6636   8.174   2.435   1.103  0.4374  0.3502  0.3620
   16CHTO   H77 6637   8.150   2.334   1.074  1.3747  0.0901  0.4888
   16CHTO   H78 6638   8.270   2.456   1.058  0.3789 -1.3002 -0.5559
   16CHTO   C51 6639   8.067   2.382   1.328 -0.3858 -0.2801  0.3127
   16CHTO   H93 6640   7.983   2.443   1.292 -0.3177  0.6959  1.7444
   16CHTO   O30 6641   8.094   2.406   1.468  0.3052  0.1759  0.1899
   16CHTO   C46 6642   8.105   2.539   1.510 -0.0305  0.9392  0.2009
   16CHTO   H88 6643   8.025   2.604   1.474 -0.7573  0.2102  0.5007
   16CHTO   C53 6644   8.109   2.543   1.666 -0.8960 -0.0166 -0.3351
   16CHTO   O72 6645   7.999   2.470   1.718  0.1981 -0.0933  0.7665
   16CHTO  H199 6646   7.917   2.508   1.693  0.4343 -0.6351 -0.9397
   16CHTO   O22 6647   8.039   2.245   1.306 -0.5979  0.1377  1.1881
   16CHTO   C31 6648   7.924   2.178   1.368  0.2443  0.6911 -0.0608
   16CHTO   H59 6649   7.914   2.219   1.471 -1.2510 -0.9728  0.4914
   16CHTO   C29 6650   7.794   2.203   1.285  0.1823  0.1799  0.1759
   16CHTO   H57 6651   7.823   2.165   1.186 -1.1270 -0.7073  0.1217
   16CHTO   O21 6652   7.762   2.346   1.287  0.4739  0.1085  0.0757
   16CHTO   H37 6653   7.742   2.362   1.377  1.8968 -0.7526  0.5669
   16CHTO   C27 6654   7.676   2.116   1.338 -0.4546  0.0706 -0.1259
   16CHTO   H55 6655   7.639   2.153   1.435 -1.2211 -0.8243 -0.0769
   16CHTO    N5 6656   7.559   2.108   1.247  0.1429  0.1471 -0.3045
   16CHTO   H43 6657   7.580   2.041   1.165 -0.4961 -2.1254  1.3548
   16CHTO   H44 6658   7.544   2.206   1.203  1.2551  0.3251 -0.2939
   16CHTO   C25 6659   7.730   1.967   1.357 -0.3918  0.3422  1.0254
   16CHTO   H53 6660   7.770   1.932   1.260 -0.7020  0.0196  1.0132
   16CHTO   O17 6661   7.840   1.964   1.448 -0.3041  0.1595 -0.0890
   16CHTO   C32 6662   7.955   2.031   1.382  0.1796 -0.1135 -0.4786
   16CHTO   H60 6663   7.959   1.999   1.278 -1.5872  0.7982 -0.8470
   16CHTO   C36 6664   8.089   1.996   1.451  0.1217 -0.4976  0.8181
   16CHTO   O25 6665   8.094   2.003   1.592 -0.1991  0.2929  0.0984
   16CHTO   H40 6666   8.146   2.074   1.624  0.3389 -0.9532  2.0954
   16CHTO   O15 6667   7.618   1.861   1.423  0.2590 -0.4094  0.2527
   16CHTO   C19 6668   7.522   1.863   1.529  0.9202  0.6487  0.3994
   16CHTO   H47 6669   7.523   1.756   1.553 -0.7609  0.7025  0.7665
   16CHTO   C20 6670   7.553   1.933   1.662  0.0400 -0.0856  0.4177
   16CHTO   H48 6671   7.571   2.040   1.645  0.4715 -0.1632  0.3789
   16CHTO   O19 6672   7.676   1.875   1.708 -0.0366 -0.5645  0.4353
   16CHTO   H35 6673   7.743   1.940   1.708 -1.0343  0.4761 -0.1748
   16CHTO   C21 6674   7.438   1.917   1.774 -0.0573  0.3354 -0.4484
   16CHTO   H49 6675   7.433   1.810   1.797  0.2176  0.3142 -0.4940
   16CHTO    N4 6676   7.478   2.001   1.895 -0.2456 -0.9685  0.4770
   16CHTO   H41 6677   7.545   1.947   1.960  1.6455  2.9036  1.9257
   16CHTO   H42 6678   7.526   2.093   1.865 -2.9402  0.2656 -0.2581
   16CHTO   C22 6679   7.307   1.960   1.707 -0.8008 -0.0260 -0.5400
   16CHTO   H50 6680   7.314   2.061   1.669 -2.3412 -0.2634 -1.5114
   16CHTO   O14 6681   7.290   1.870   1.595 -0.8486  0.3957  0.3272
   16CHTO   C23 6682   7.378   1.889   1.484  0.3304  0.0039 -0.3226
   16CHTO   H51 6683   7.365   1.994   1.455  1.7965  0.2014 -0.3331
   16CHTO   C34 6684   7.317   1.807   1.376 -0.6495 -0.0579  0.4888
   16CHTO   O23 6685   7.396   1.800   1.255  0.3770 -0.3821 -0.7537
   16CHTO   H38 6686   7.356   1.736   1.200 -2.7503 -0.8607  1.9493
   16CHTO   O16 6687   7.187   1.948   1.784  0.2639  0.1917 -0.0195
   16CHTO   C24 6688   7.086   2.050   1.742  0.6929 -0.4587  0.7692
   16CHTO   H52 6689   7.100   2.080   1.638 -2.3830 -2.3993 -0.2838
   16CHTO   C26 6690   7.091   2.168   1.843 -0.4698  0.0981  0.1338
   16CHTO   H54 6691   7.079   2.126   1.945  0.5731 -1.2857 -0.2998
   16CHTO   O20 6692   7.222   2.226   1.848  0.1457  0.0248  0.1164
   16CHTO   H36 6693   7.264   2.208   1.766 -0.1884  0.0997 -0.0738
   16CHTO   C30 6694   6.975   2.272   1.829  0.3327  0.0960  0.5964
   16CHTO   H58 6695   6.988   2.337   1.741  1.8041 -1.5448 -0.4110
   16CHTO    N6 6696   6.959   2.368   1.944  0.6020  0.5359 -0.0146
   16CHTO   H45 6697   6.873   2.430   1.926 -0.3835 -0.8569 -0.1507
   16CHTO   H46 6698   7.051   2.423   1.954  0.4908  0.3912  2.1334
   16CHTO   C33 6699   6.838   2.202   1.813  0.1553  0.6517  0.0999
   16CHTO   H61 6700   6.816   2.152   1.909  0.8185 -0.6229 -0.4026
   16CHTO   O18 6701   6.861   2.102   1.715 -0.1148  0.6898 -0.7417
   16CHTO   C28 6702   6.941   1.990   1.753  0.3501 -0.2911  0.0309
   16CHTO   H56 6703   6.931   1.957   1.856 -0.1876  3.7706  1.3409
   16CHTO   C35 6704   6.932   1.878   1.643 -0.0121 -0.4951 -0.3929
   16CHTO   O24 6705   6.984   1.747   1.682  1.0436  0.5625  0.5249
   16CHTO   H39 6706   7.067   1.754   1.726  0.1833 -2.0410  2.7063
   16CHTO    O9 6707   6.718   2.284   1.783 -0.1994 -0.1904  0.1532
   16CHTO   C13 6708   6.596   2.253   1.882  0.4495 -0.2612 -0.6842
   16CHTO   H26 6709   6.624   2.249   1.989 -1.3142 -1.7329 -0.2505
   16CHTO   C11 6710   6.539   2.114   1.831 -0.1331  0.5198  0.1703
   16CHTO   H24 6711   6.611   2.037   1.862 -0.4974  0.4644  0.8821
   16CHTO    O8 6712   6.526   2.106   1.691  0.1279 -0.1649  0.0444
   16CHTO    H3 6713   6.467   2.036   1.671  0.2118  0.0956 -1.1467
   16CHTO    C9 6714   6.403   2.095   1.904  0.0431  0.9819 -0.2113
   16CHTO   H22 6715   6.428   2.119   2.008  0.6217  0.8048 -0.3101
   16CHTO    N2 6716   6.346   1.960   1.902  0.5109 -0.7825  0.0092
   16CHTO   H10 6717   6.414   1.896   1.957  1.2396  1.3589  1.6906
   16CHTO   H11 6718   6.345   1.931   1.798 -2.3218 -2.6681  0.5089
   16CHTO    C7 6719   6.305   2.206   1.851  0.4063 -0.5299  0.0807
   16CHTO   H20 6720   6.238   2.225   1.937 -0.3889  3.8299 -1.3896
   16CHTO    O4 6721   6.373   2.329   1.808  0.5842 -0.8250  0.2057
   16CHTO   C14 6722   6.494   2.368   1.879 -0.4370  0.4581  0.0810
   16CHTO   H27 6723   6.466   2.391   1.984 -2.8745  1.0814 -0.6775
   16CHTO   C18 6724   6.534   2.501   1.814  0.3917 -0.1149  0.1995
   16CHTO   O13 6725   6.660   2.550   1.860 -0.1260  1.1462  0.3594
   16CHTO    H7 6726   6.713   2.606   1.807 -0.9898  1.5815 -0.0511
   16CHTO    O2 6727   6.210   2.154   1.727 -0.2004 -0.7127 -0.0395
   16CHTO    C1 6728   6.070   2.175   1.744  0.0932 -0.2517  0.6350
   16CHTO   H14 6729   6.056   2.274   1.791  0.5381  0.3943 -0.5687
   16CHTO    C2 6730   6.000   2.070   1.844 -0.3203  0.4704  0.5470
   16CHTO   H15 6731   6.054   1.975   1.833 -1.0439  0.0833  0.3058
   16CHTO    O6 6732   6.019   2.119   1.978  0.0753  0.2915  0.2992
   16CHTO    H1 6733   5.984   2.067   2.048 -2.0024  1.6105  0.3091
   16CHTO    C3 6734   5.837   2.050   1.806  0.2167 -0.1425  0.0798
   16CHTO   H16 6735   5.777   2.127   1.858 -0.3908  0.4805 -1.5257
   16CHTO    N1 6736   5.793   1.921   1.864 -0.2774 -0.7249  0.3118
   16CHTO    H8 6737   5.686   1.906   1.863 -0.4548  0.4709  0.4439
   16CHTO    H9 6738   5.845   1.833   1.830 -1.3939 -0.8381 -1.1417
   16CHTO    C4 6739   5.806   2.083   1.654  0.4123 -0.0760  0.5543
   16CHTO   H17 6740   5.844   2.004   1.591  0.9942 -0.3326  1.2199
   16CHTO    O1 6741   5.864   2.203   1.609  1.1973  0.1857 -0.7396
   16CHTO    C5 6742   6.004   2.197   1.606  0.8582 -0.1619 -0.0210
   16CHTO   H18 6743   6.032   2.113   1.543  1.2215 -1.2096  1.5120
   16CHTO   C16 6744   6.064   2.322   1.541  0.0576  1.3070  0.1812
   16CHTO   O11 6745   6.037   2.312   1.402 -0.9276  0.4575 -0.4792
   16CHTO    H5 6746   6.109   2.361   1.367  1.1426 -1.5801  0.7683
   16CHTO    O3 6747   5.664   2.093   1.626  0.2446  0.0418  0.2244
   16CHTO    C6 6748   5.635   2.100   1.481  0.3446  0.1692  0.5173
   16CHTO   H19 6749   5.730   2.124   1.434 -0.6090  2.2284 -0.4047
   16CHTO    C8 6750   5.597   1.964   1.415  0.1074 -0.6783 -0.3319
   16CHTO   H21 6751   5.516   1.921   1.473 -1.3980  2.4686 -0.0078
   16CHTO    O7 6752   5.713   1.882   1.424 -0.5247 -0.1622  0.1917
   16CHTO    H2 6753   5.694   1.798   1.388  1.6731  0.2785 -2.0644
   16CHTO   C12 6754   5.550   1.977   1.262  0.4266 -0.5690 -0.0081
   16CHTO   H25 6755   5.642   1.998   1.204  1.0916  0.3114  1.3282
   16CHTO    N3 6756   5.496   1.846   1.223  0.0879  0.4865 -0.3008
   16CHTO   H12 6757   5.419   1.823   1.295 -0.8442 -2.4008 -2.1280
   16CHTO   H13 6758   5.450   1.842   1.125 -2.4023  0.4182  0.8341
   16CHTO   C15 6759   5.454   2.093   1.238 -0.2339  0.4022  0.5870
   16CHTO   H28 6760   5.357   2.066   1.280 -0.3268 -2.2354 -1.1407
   16CHTO   O10 6761   5.436   2.146   1.089 -0.1850  0.3399 -0.5378
   16CHTO    H4 6762   5.419   2.072   1.034 -0.2063  0.0825 -0.1951
   16CHTO    O5 6763   5.517   2.210   1.297 -0.2018  0.1592 -0.0477
   16CHTO   C10 6764   5.536   2.206   1.439  0.3529  0.5271  0.5808
   16CHTO   H23 6765   5.445   2.179   1.492  1.7854  0.7771  3.2413
   16CHTO   C17 6766   5.568   2.353   1.469  0.0513  0.0484 -0.4743
   16CHTO   O12 6767   5.571   2.372   1.609 -0.0865  0.0189 -0.3255
   16CHTO    H6 6768   5.495   2.339   1.655  1.3604  1.8099  3.6414
   17CHTO  H203 6769   6.478   4.496   0.192  2.3300 -0.7437  0.6341
   17CHTO   O82 6770   6.449   4.437   0.258 -0.7370 -0.6288 -0.5219
   17CHTO  C123 6771   6.379   4.524   0.351 -0.3479 -0.0718  0.5645
   17CHTO  H227 6772   6.350   4.466   0.440 -0.5001 -0.6256  0.1511
   17CHTO   O77 6773   6.485   4.622   0.384 -0.0101  0.2374 -0.5540
   17CHTO  C118 6774   6.428   4.748   0.443  0.1305 -0.2621  0.0998
   17CHTO  H222 6775   6.384   4.726   0.541  1.6350 -0.1659  0.7910
   17CHTO  C125 6776   6.556   4.831   0.467 -0.3042  0.4908  1.0555
   17CHTO   O84 6777   6.637   4.863   0.350  0.2111 -0.0686 -0.1621
   17CHTO  H205 6778   6.686   4.787   0.323  0.7071 -0.2363  1.1667
   17CHTO  C114 6779   6.331   4.820   0.350 -0.0304  0.1912 -0.4339
   17CHTO  H218 6780   6.374   4.841   0.251 -1.6122 -0.9270 -1.3832
   17CHTO  C116 6781   6.207   4.727   0.322  0.3334  0.2729  0.0777
   17CHTO  H220 6782   6.162   4.711   0.422 -0.8935 -1.9719 -0.8059
   17CHTO   O79 6783   6.112   4.787   0.234  0.3635  0.2538 -0.0860
   17CHTO  H201 6784   6.038   4.806   0.287 -0.1108 -0.5503 -0.4416
   17CHTO  C120 6785   6.255   4.586   0.270  0.0820  1.3199  0.1419
   17CHTO  H224 6786   6.283   4.604   0.164 -2.6060  1.4695 -0.5826
   17CHTO   N21 6787   6.138   4.493   0.278 -0.4961 -0.7463 -0.5024
   17CHTO  H211 6788   6.061   4.514   0.350 -0.3747 -1.1158 -0.2635
   17CHTO  H212 6789   6.100   4.463   0.181 -2.1945  1.3533 -0.5255
   17CHTO   O75 6790   6.284   4.938   0.419  0.2359  0.6048  0.2119
   17CHTO  C112 6791   6.300   5.067   0.336 -0.2577 -0.0242 -0.3736
   17CHTO  H216 6792   6.260   5.046   0.235  1.6464  1.8607 -1.5746
   17CHTO   O73 6793   6.442   5.106   0.328  0.1083  0.3188 -0.4210
   17CHTO  C113 6794   6.447   5.226   0.252 -0.0210 -0.2361 -0.6179
   17CHTO  H217 6795   6.399   5.211   0.153 -1.1223  0.1587 -0.1444
   17CHTO  C124 6796   6.596   5.258   0.221  0.2219  0.2401  0.3826
   17CHTO   O83 6797   6.669   5.275   0.335  0.7579 -0.2932 -0.4671
   17CHTO  H204 6798   6.756   5.307   0.320  0.6837 -0.5120 -1.3905
   17CHTO  C109 6799   6.384   5.349   0.326  0.0237 -0.7021  0.2890
   17CHTO  H213 6800   6.442   5.360   0.419  2.2203  2.9298 -1.3821
   17CHTO  C110 6801   6.238   5.325   0.368  0.5072  0.6000 -0.0136
   17CHTO  H214 6802   6.190   5.344   0.272  0.9267 -1.9670 -0.7454
   17CHTO   O78 6803   6.199   5.417   0.479 -0.2447  0.6677  0.7132
   17CHTO  H200 6804   6.193   5.374   0.562  0.6952  0.5183  0.7064
   17CHTO  C111 6805   6.219   5.176   0.420 -0.4389  0.2348  0.3565
   17CHTO  H215 6806   6.261   5.172   0.522 -1.3157 -0.1444  0.7044
   17CHTO   N19 6807   6.077   5.144   0.428  0.5901  0.2736  0.3940
   17CHTO  H207 6808   6.054   5.045   0.391  1.4672  0.4108 -0.5423
   17CHTO  H208 6809   6.008   5.217   0.388  2.4246  2.1156  0.5626
   17CHTO   O74 6810   6.401   5.468   0.237  0.2727 -0.1184 -0.2841
   17CHTO  C115 6811   6.427   5.600   0.312  0.3692  0.5563  1.0267
   17CHTO  H219 6812   6.345   5.627   0.378  1.2245  1.3297  1.7835
   17CHTO   O76 6813   6.553   5.584   0.420  0.0991 -0.5603 -0.0739
   17CHTO  C122 6814   6.677   5.623   0.373 -0.0681  0.5810 -0.4280
   17CHTO  H226 6815   6.712   5.551   0.299  1.7488 -0.5632  1.4996
   17CHTO  C126 6816   6.785   5.614   0.493 -0.0460  0.2919 -0.0928
   17CHTO   O85 6817   6.783   5.486   0.557  0.6923  0.7629  0.1385
   17CHTO  H206 6818   6.859   5.465   0.607 -0.2716 -3.8926 -0.1092
   17CHTO  C121 6819   6.686   5.765   0.313  0.2339  0.8102 -0.1019
   17CHTO  H225 6820   6.721   5.824   0.400  0.3198  1.0368 -0.2907
   17CHTO   O81 6821   6.783   5.765   0.207 -0.2229 -0.5951 -0.3523
   17CHTO  H202 6822   6.807   5.851   0.180 -2.7717  0.1023 -0.5080
   17CHTO  C119 6823   6.537   5.825   0.277  0.1878  0.2520  0.3482
   17CHTO  H223 6824   6.492   5.853   0.372  2.3453  3.5133  0.4885
   17CHTO  C117 6825   6.448   5.716   0.212  0.5098 -0.7779 -0.0077
   17CHTO  H221 6826   6.489   5.672   0.121 -2.0511 -1.5930 -0.7986
   17CHTO   N20 6827   6.322   5.790   0.163 -0.0593 -0.6647  0.6267
   17CHTO  H209 6828   6.325   5.786   0.056 -0.5981  0.3050  0.5707
   17CHTO  H210 6829   6.232   5.743   0.203 -0.9392  0.6312  0.2002
   17CHTO   O80 6830   6.548   5.977   0.203 -0.0155  0.2015 -0.2672
   17CHTO  C103 6831   6.588   6.085   0.275 -0.4611 -0.4881 -0.0524
   17CHTO  H190 6832   6.593   6.069   0.382  0.4030 -0.5651 -0.1057
   17CHTO  C101 6833   6.716   6.145   0.207  0.1282  0.0365 -0.1599
   17CHTO  H188 6834   6.711   6.153   0.098  1.1741 -1.8326 -0.3599
   17CHTO   O68 6835   6.834   6.061   0.232  0.8919  0.2957  0.1489
   17CHTO  H168 6836   6.853   6.004   0.160 -0.5251 -0.7032  0.5504
   17CHTO   C99 6837   6.748   6.300   0.270  0.5249  0.5345  0.0718
   17CHTO  H186 6838   6.743   6.286   0.380  2.7346 -4.1019 -0.2909
   17CHTO   N17 6839   6.874   6.362   0.226  0.4816  0.0117  0.9018
   17CHTO  H174 6840   6.906   6.447   0.285 -0.0514 -0.1925  1.4881
   17CHTO  H175 6841   6.953   6.290   0.212 -0.0094 -0.0826 -1.5062
   17CHTO   C97 6842   6.617   6.380   0.235 -0.3531  0.5146 -0.0686
   17CHTO  H184 6843   6.602   6.382   0.126 -0.8085 -2.2679 -0.0962
   17CHTO   O64 6844   6.501   6.323   0.303 -0.0533 -0.6128  0.5865
   17CHTO  C104 6845   6.468   6.191   0.249  0.2529 -0.1868 -0.0036
   17CHTO  H191 6846   6.451   6.203   0.142 -1.7115 -0.9377  0.2060
   17CHTO  C108 6847   6.339   6.143   0.313  0.0339 -0.2915 -0.0458
   17CHTO   O71 6848   6.348   6.062   0.429 -0.0944 -0.2536 -0.0919
   17CHTO  H171 6849   6.431   6.017   0.434 -0.0609 -0.1880 -0.0641
   17CHTO   O62 6850   6.631   6.511   0.282 -0.6164  0.2090 -0.5467
   17CHTO   C91 6851   6.552   6.619   0.221 -0.2239 -0.1110 -0.1973
   17CHTO  H178 6852   6.473   6.575   0.160  0.4663 -0.8256 -0.5870
   17CHTO   C92 6853   6.650   6.697   0.141 -0.0150 -0.1062 -0.2610
   17CHTO  H179 6854   6.730   6.626   0.114 -0.2164 -0.9076  1.2102
   17CHTO   O66 6855   6.587   6.733   0.018  0.5527 -0.3635  0.0343
   17CHTO  H166 6856   6.519   6.792   0.045 -0.5270 -2.3032  1.7023
   17CHTO   C93 6857   6.705   6.832   0.208  0.6263  0.3748  0.2665
   17CHTO  H180 6858   6.715   6.902   0.125 -0.2764 -0.4364 -0.5400
   17CHTO   N16 6859   6.843   6.804   0.266 -0.0034 -0.3272 -0.2572
   17CHTO  H172 6860   6.890   6.881   0.325  3.6363 -3.7443  1.5234
   17CHTO  H173 6861   6.905   6.783   0.180 -1.0353 -1.0487 -0.8356
   17CHTO   C94 6862   6.602   6.900   0.312 -0.0983 -0.5357  0.0797
   17CHTO  H181 6863   6.630   6.884   0.416 -2.3058  1.1388  0.9843
   17CHTO   O61 6864   6.467   6.846   0.304 -0.0707  0.1464  0.3436
   17CHTO   C95 6865   6.477   6.700   0.332  0.0566 -0.9209 -0.2573
   17CHTO  H182 6866   6.521   6.686   0.431  0.6584 -1.4418 -0.6021
   17CHTO  C106 6867   6.321   6.662   0.330 -0.8899  0.0179 -0.4475
   17CHTO   O69 6868   6.251   6.718   0.437 -0.6520 -0.5211 -0.3832
   17CHTO  H169 6869   6.207   6.794   0.405 -0.2582  0.7017  1.8350
   17CHTO   O63 6870   6.591   7.043   0.292 -0.4991 -0.8841  0.1564
   17CHTO   C96 6871   6.563   7.114   0.413 -0.5962  0.1317  0.4703
   17CHTO  H183 6872   6.608   7.059   0.495  0.7548  2.2836  1.2054
   17CHTO   C98 6873   6.417   7.145   0.438 -0.1960  0.4664  0.1386
   17CHTO  H185 6874   6.369   7.189   0.349  0.3391  2.3068  0.7379
   17CHTO   O67 6875   6.347   7.020   0.462  0.2291 -0.1088  0.2137
   17CHTO  H167 6876   6.265   7.044   0.502 -0.8201 -0.1566 -1.8542
   17CHTO  C102 6877   6.394   7.241   0.567 -0.3496 -1.0336  0.0788
   17CHTO  H189 6878   6.407   7.173   0.653  2.2882 -1.2363 -0.4379
   17CHTO   N18 6879   6.260   7.300   0.591  1.1808  0.1399  0.0949
   17CHTO  H176 6880   6.268   7.400   0.631 -2.1533  0.4864  0.0430
   17CHTO  H177 6881   6.207   7.301   0.497  3.9664  1.2335 -1.5080
   17CHTO  C105 6882   6.502   7.358   0.574  0.0176  0.4514  0.4019
   17CHTO  H192 6883   6.480   7.437   0.502  1.9243  0.4150 -0.2396
   17CHTO   O65 6884   6.632   7.311   0.544 -0.3746 -0.1578  0.5522
   17CHTO  C100 6885   6.650   7.243   0.415 -0.4094 -0.0101 -0.6846
   17CHTO  H187 6886   6.621   7.310   0.332  0.4944 -0.4225 -1.3437
   17CHTO  C107 6887   6.808   7.210   0.398 -1.0639  0.4339  0.0985
   17CHTO   O70 6888   6.899   7.317   0.400 -0.7309 -0.1373  0.6909
   17CHTO  H170 6889   6.986   7.283   0.399 -0.6865 -0.1603  2.5880
   17CHTO   O57 6890   6.493   7.419   0.730  0.1366  0.2759  0.4226
   17CHTO   C85 6891   6.548   7.539   0.782 -0.4761 -0.1855  0.3370
   17CHTO  H157 6892   6.491   7.611   0.720 -0.5294 -0.3932  0.1449
   17CHTO   C83 6893   6.703   7.549   0.757  0.2927  0.2190 -0.9577
   17CHTO  H155 6894   6.715   7.553   0.649 -0.3093  0.6222 -1.0078
   17CHTO   O56 6895   6.768   7.427   0.796 -0.1005 -0.1050  0.0343
   17CHTO  H135 6896   6.742   7.392   0.879 -0.9344 -1.2715 -0.6927
   17CHTO   C81 6897   6.755   7.684   0.822 -0.1538 -0.4869 -0.2198
   17CHTO  H153 6898   6.704   7.767   0.774 -0.4522 -1.6360 -1.9809
   17CHTO   N14 6899   6.896   7.720   0.791 -0.5190 -0.7485  0.4932
   17CHTO  H141 6900   6.924   7.689   0.693 -0.7487  0.4674  0.0437
   17CHTO  H142 6901   6.904   7.826   0.798 -0.0097 -0.6919 -0.9155
   17CHTO   C79 6902   6.715   7.696   0.970  0.5068  0.4650 -0.4187
   17CHTO  H151 6903   6.723   7.802   0.990  1.4909  0.6553 -1.7528
   17CHTO   O52 6904   6.572   7.678   0.989  0.0157  0.4633  0.3228
   17CHTO   C86 6905   6.516   7.559   0.935 -0.1090 -0.7233  0.2427
   17CHTO  H158 6906   6.555   7.469   0.988 -0.1041 -0.3147  0.9473
   17CHTO   C90 6907   6.361   7.556   0.949 -0.6714 -0.5883  0.4388
   17CHTO   O60 6908   6.327   7.562   1.087  0.4062 -0.5330 -0.1531
   17CHTO  H138 6909   6.240   7.528   1.098  0.9738 -0.7879  4.7828
   17CHTO   O50 6910   6.801   7.621   1.059  0.4172  0.3944  0.1617
   17CHTO   C73 6911   6.877   7.575   1.171  0.5785  0.4250  0.1411
   17CHTO  H145 6912   6.909   7.668   1.221 -0.5159 -0.0296  1.7307
   17CHTO   C74 6913   6.997   7.490   1.122 -0.1912  0.4974 -0.6555
   17CHTO  H146 6914   7.056   7.552   1.053  2.1189  0.2980  1.0851
   17CHTO   O54 6915   7.078   7.460   1.231  0.1298  0.5221 -0.1081
   17CHTO  H133 6916   7.168   7.467   1.205 -0.3397  0.9844 -1.6849
   17CHTO   C75 6917   6.947   7.356   1.055  0.1312  0.6509  0.2736
   17CHTO  H147 6918   6.877   7.385   0.975 -0.6411 -1.1729  0.2685
   17CHTO   N13 6919   7.048   7.259   0.994 -0.5793 -0.4849 -0.5509
   17CHTO  H139 6920   7.005   7.161   1.009  0.0237 -0.8008 -0.8937
   17CHTO  H140 6921   7.148   7.260   1.036  0.0800  0.3105 -2.1013
   17CHTO   C76 6922   6.844   7.281   1.156 -0.6359  0.7998  0.0686
   17CHTO  H148 6923   6.901   7.236   1.238 -1.1724 -2.7258 -1.4107
   17CHTO   O49 6924   6.739   7.380   1.191  0.0756 -0.3456 -0.2883
   17CHTO   C77 6925   6.778   7.492   1.265 -0.4031  0.5217  0.2359
   17CHTO  H149 6926   6.836   7.449   1.347  0.7444 -0.6267 -1.1449
   17CHTO   C88 6927   6.669   7.578   1.316 -0.1468 -0.2983 -0.9349
   17CHTO   O58 6928   6.700   7.694   1.383  0.1480 -0.1805  0.6559
   17CHTO  H136 6929   6.626   7.752   1.380  0.1841 -0.1239  0.8885
   17CHTO   O51 6930   6.754   7.169   1.095 -0.3969  0.4979  0.0737
   17CHTO   C78 6931   6.672   7.094   1.170  0.8901 -0.5066  0.2937
   17CHTO  H150 6932   6.656   7.141   1.270 -1.8528 -1.2019  0.2339
   17CHTO   C80 6933   6.728   6.950   1.192 -0.1077 -0.2754  0.4577
   17CHTO  H152 6934   6.755   6.914   1.090  0.2871  0.0240  0.4579
   17CHTO   O55 6935   6.848   6.969   1.270  0.8024  0.2487 -0.1954
   17CHTO  H134 6936   6.861   6.887   1.314 -0.3265  0.4303  0.5065
   17CHTO   C84 6937   6.627   6.845   1.263 -0.3339 -0.1590  0.3191
   17CHTO  H156 6938   6.603   6.877   1.364 -1.1188  1.1536 -0.2701
   17CHTO   N15 6939   6.687   6.710   1.266  0.6117  0.5459  0.1260
   17CHTO  H143 6940   6.634   6.640   1.204  1.9135 -0.2618 -0.1026
   17CHTO  H144 6941   6.786   6.722   1.226 -0.0578 -1.5352 -2.3096
   17CHTO   C87 6942   6.490   6.841   1.192 -0.6377 -0.8212  0.4508
   17CHTO  H159 6943   6.494   6.795   1.094  3.5097 -0.4416  0.3680
   17CHTO   O53 6944   6.451   7.005   1.182 -0.1798  0.4770 -0.1859
   17CHTO   C82 6945   6.538   7.077   1.098  0.5118 -0.1456  0.2885
   17CHTO  H154 6946   6.551   7.034   0.999 -2.3322 -1.3036  0.3624
   17CHTO   C89 6947   6.474   7.216   1.080 -0.2438  0.2797 -0.2216
   17CHTO   O59 6948   6.428   7.266   1.208 -0.0336 -0.3105  0.7393
   17CHTO  H137 6949   6.478   7.234   1.281 -0.6395 -5.0016 -0.7456
   17CHTO   O45 6950   6.372   6.787   1.275  0.1192  0.3342 -0.0809
   17CHTO   C67 6951   6.262   6.728   1.204  0.6935 -0.5584  0.8834
   17CHTO  H124 6952   6.189   6.712   1.284 -0.2116 -0.1866  0.1375
   17CHTO   C65 6953   6.201   6.807   1.085  0.4993 -0.8029  0.7661
   17CHTO  H122 6954   6.279   6.881   1.069 -0.3903  0.0825  0.4165
   17CHTO   O44 6955   6.075   6.876   1.125  0.1915  0.3163 -0.1249
   17CHTO  H102 6956   6.066   6.956   1.078 -0.5175  0.3686  0.1079
   17CHTO   C63 6957   6.187   6.725   0.952  0.1844 -0.7893 -0.0323
   17CHTO  H120 6958   6.289   6.701   0.920 -0.4383 -0.1589 -2.5927
   17CHTO   N11 6959   6.128   6.794   0.836 -0.4257  0.1047 -0.2438
   17CHTO  H108 6960   6.176   6.889   0.825  3.1220 -1.2269  2.7618
   17CHTO  H109 6961   6.141   6.735   0.747 -1.3643 -0.7461  0.1746
   17CHTO   C61 6962   6.133   6.585   0.985 -0.0105  0.2445  0.8121
   17CHTO  H118 6963   6.143   6.537   0.886  1.2208 -0.2156  1.1542
   17CHTO   O40 6964   6.215   6.507   1.090 -0.3602  0.2197  0.1973
   17CHTO   C68 6965   6.307   6.580   1.171 -0.0202 -0.5525  1.2697
   17CHTO  H125 6966   6.402   6.580   1.114 -0.7124 -0.9514  0.1025
   17CHTO   C72 6967   6.329   6.496   1.296  0.3780 -0.1545  0.2041
   17CHTO   O48 6968   6.392   6.369   1.270  0.5904  0.4015 -0.3597
   17CHTO  H105 6969   6.470   6.384   1.221  2.1495  0.0828  1.9575
   17CHTO   O38 6970   5.991   6.586   1.026 -0.2439 -0.0086 -0.6047
   17CHTO   C55 6971   5.926   6.466   1.074  0.3847  0.1545  0.0319
   17CHTO  H112 6972   5.967   6.434   1.171  0.5421  0.7438  0.1603
   17CHTO   C56 6973   5.928   6.342   0.971  0.0507  0.3283  0.0838
   17CHTO  H113 6974   5.897   6.383   0.874  2.9504 -0.1424 -1.0975
   17CHTO   O42 6975   6.062   6.285   0.961  0.1163 -1.1084  0.0835
   17CHTO  H100 6976   6.059   6.192   0.976  1.1936 -0.7636  2.6313
   17CHTO   C57 6977   5.826   6.229   1.017 -0.1707  0.0814 -0.5603
   17CHTO  H114 6978   5.864   6.194   1.112 -0.5833  1.5200  0.1417
   17CHTO   N10 6979   5.819   6.113   0.923 -0.3499  0.3800 -0.4188
   17CHTO  H106 6980   5.816   6.149   0.821 -2.2801 -0.2005 -0.5790
   17CHTO  H107 6981   5.734   6.047   0.935  1.6186 -2.3107 -0.7816
   17CHTO   C58 6982   5.692   6.297   1.043  0.8275 -0.5141  0.3649
   17CHTO  H115 6983   5.646   6.333   0.949 -0.5161 -0.4434  1.0339
   17CHTO   O37 6984   5.697   6.395   1.151  0.0198 -0.0159  0.0367
   17CHTO   C59 6985   5.778   6.504   1.099 -1.0266  0.0842  0.4510
   17CHTO  H116 6986   5.728   6.548   1.013 -0.1785  1.4220  0.6165
   17CHTO   C70 6987   5.760   6.613   1.204 -0.4719 -0.2664 -0.4720
   17CHTO   O46 6988   5.635   6.655   1.250 -0.1201  0.3096  0.5836
   17CHTO  H103 6989   5.583   6.588   1.209  1.7540 -0.7208 -0.1760
   17CHTO   O39 6990   5.587   6.195   1.104 -0.8331 -0.4739 -0.0805
   17CHTO   C60 6991   5.451   6.244   1.098  0.4259 -0.2848  0.6491
   17CHTO  H117 6992   5.454   6.348   1.066  1.0602 -0.4737  0.0757
   17CHTO   C62 6993   5.357   6.167   0.999 -0.3143  0.0020 -0.5324
   17CHTO  H119 6994   5.410   6.171   0.902 -1.4722  1.4205 -1.1342
   17CHTO   O43 6995   5.354   6.028   1.030 -0.7338 -0.2994  0.2971
   17CHTO  H101 6996   5.397   5.983   0.959 -0.9877 -1.6081  0.9599
   17CHTO   C66 6997   5.201   6.220   0.984 -0.3950 -0.2054 -0.2308
   17CHTO  H123 6998   5.198   6.326   0.960  0.0229 -0.0806  0.2472
   17CHTO   N12 6999   5.127   6.157   0.872 -0.0974  0.1420  0.6061
   17CHTO  H110 7000   5.202   6.140   0.797 -0.0176  1.9220  0.2673
   17CHTO  H111 7001   5.042   6.215   0.838  0.2397 -0.3128 -1.0180
   17CHTO   C69 7002   5.128   6.191   1.123  0.3495 -0.4339  0.0331
   17CHTO  H126 7003   5.123   6.084   1.150  0.8128 -0.2512  0.8345
   17CHTO   O41 7004   5.223   6.280   1.235 -0.0919  0.5808  0.1756
   17CHTO   C64 7005   5.378   6.244   1.236  0.0024 -1.0048  0.1419
   17CHTO  H121 7006   5.397   6.141   1.271  2.8658 -0.1779  1.1641
   17CHTO   C71 7007   5.459   6.339   1.338  0.1110  0.6433 -0.1191
   17CHTO   O47 7008   5.435   6.475   1.300  0.2727 -0.3734  0.4718
   17CHTO  H104 7009   5.442   6.485   1.207  1.7101  2.9202  0.8436
   17CHTO   O34 7010   4.982   6.245   1.129 -0.2325 -0.0067  0.2002
   17CHTO   C49 7011   4.886   6.300   1.251 -0.3162 -0.3461 -0.9023
   17CHTO   H91 7012   4.951   6.355   1.319  1.1703 -0.8848 -1.8551
   17CHTO   C47 7013   4.836   6.176   1.318 -0.5362 -0.1641  0.5077
   17CHTO   H89 7014   4.801   6.216   1.415 -1.4794 -0.8625  0.4639
   17CHTO   O33 7015   4.938   6.078   1.349  0.2127  0.4910  0.2037
   17CHTO   H70 7016   4.963   6.034   1.270  0.9794  2.0341 -0.4312
   17CHTO   C45 7017   4.725   6.094   1.234  0.2966 -0.0605 -0.6602
   17CHTO   H87 7018   4.771   6.007   1.184  1.2751  0.0006  0.1332
   17CHTO    N8 7019   4.615   6.050   1.326  0.0061 -0.0584  0.1479
   17CHTO   H75 7020   4.554   5.986   1.264 -0.3353  0.7567 -0.3605
   17CHTO   H76 7021   4.655   5.991   1.407  2.6259  2.0918  0.4839
   17CHTO   C43 7022   4.675   6.188   1.108 -0.1029 -0.8150 -0.1066
   17CHTO   H85 7023   4.758   6.183   1.037 -0.6351  0.4725 -0.8328
   17CHTO   O29 7024   4.649   6.320   1.154 -0.1182  0.0026  0.3327
   17CHTO   C50 7025   4.768   6.387   1.203  0.4750  0.2531 -0.1863
   17CHTO   H92 7026   4.803   6.442   1.115  1.6346 -1.0808 -0.5689
   17CHTO   C54 7027   4.724   6.491   1.303 -0.4526  0.0121 -0.1771
   17CHTO   O36 7028   4.653   6.607   1.252  0.5272 -0.3111  0.3610
   17CHTO   H72 7029   4.715   6.666   1.212  0.9536 -1.4409 -0.6680
   17CHTO   O27 7030   4.560   6.141   1.036 -0.0412 -0.2504  0.0672
   17CHTO   C37 7031   4.523   6.017   0.977 -0.0812 -0.2073  0.5424
   17CHTO   H79 7032   4.578   5.936   1.029  0.4255  0.2703  0.7549
   17CHTO   C38 7033   4.373   5.995   0.992 -0.1075  0.2335  0.0362
   17CHTO   H80 7034   4.317   6.069   0.934  1.2859 -0.5323 -2.3688
   17CHTO   O31 7035   4.334   6.001   1.134  0.0718  0.5400  1.1494
   17CHTO   H68 7036   4.246   5.970   1.136  0.2295 -0.1129 -0.9013
   17CHTO   C39 7037   4.333   5.856   0.928 -0.1483 -0.6219  0.0447
   17CHTO   H81 7038   4.377   5.782   0.995 -0.8991 -2.5956 -1.5809
   17CHTO    N7 7039   4.186   5.833   0.933  0.2002  0.1342  0.0260
   17CHTO   H73 7040   4.164   5.730   0.909  3.3161 -0.4063 -0.7667
   17CHTO   H74 7041   4.130   5.916   0.891  1.0639 -0.2277 -1.8947
   17CHTO   C40 7042   4.388   5.828   0.781 -0.2224 -0.6433 -0.8270
   17CHTO   H82 7043   4.316   5.854   0.703  0.0512 -1.3927 -1.3401
   17CHTO   O26 7044   4.513   5.895   0.759  0.6913 -0.5309 -0.1589
   17CHTO   C41 7045   4.552   6.014   0.825 -0.2896  0.7783 -0.5561
   17CHTO   H83 7046   4.500   6.100   0.782 -3.4218 -0.3292  0.8673
   17CHTO   C52 7047   4.699   6.033   0.795  0.6239 -0.1634 -0.0556
   17CHTO   O35 7048   4.732   6.035   0.648  0.0541 -0.1987  0.8479
   17CHTO   H71 7049   4.757   5.951   0.614 -0.7204  0.2949 -1.0506
   17CHTO   O28 7050   4.403   5.691   0.771 -0.3420  0.1688  0.4828
   17CHTO   C42 7051   4.524   5.609   0.792  0.6096 -0.1333 -0.2819
   17CHTO   H84 7052   4.482   5.508   0.791 -0.6138  0.3570 -2.2786
   17CHTO   C44 7053   4.596   5.624   0.932 -0.1900 -0.1584 -0.1971
   17CHTO   H86 7054   4.608   5.730   0.956  2.0508 -0.1984 -0.9978
   17CHTO   O32 7055   4.517   5.565   1.033 -0.1595  0.1496  0.5732
   17CHTO   H69 7056   4.488   5.478   1.016 -1.9778  0.9324 -0.5216
   17CHTO   C48 7057   4.739   5.564   0.943 -0.7005  0.3034  0.3357
   17CHTO   H90 7058   4.723   5.457   0.957 -2.2602  0.2065 -1.9049
   17CHTO    N9 7059   4.808   5.605   1.070 -0.6825  0.0156 -0.1481
   17CHTO   H77 7060   4.905   5.558   1.081  0.9652  3.4170  0.2971
   17CHTO   H78 7061   4.812   5.713   1.066  1.4439 -0.0003  0.7224
   17CHTO   C51 7062   4.824   5.600   0.820  0.2799  0.3189 -0.1146
   17CHTO   H93 7063   4.826   5.708   0.806  0.8297  0.3035 -0.1585
   17CHTO   O30 7064   4.745   5.541   0.718 -0.7304  0.2357 -0.1683
   17CHTO   C46 7065   4.623   5.612   0.674 -0.0607  0.5384  0.3813
   17CHTO   H88 7066   4.641   5.718   0.657 -2.9038  0.8482 -0.8272
   17CHTO   C53 7067   4.575   5.546   0.535 -0.2729  0.5216  0.2997
   17CHTO   O72 7068   4.679   5.545   0.438 -0.7992  0.1490 -0.4090
   17CHTO  H199 7069   4.700   5.623   0.391 -0.1593  0.8712  1.0720
   17CHTO   O22 7070   4.958   5.540   0.807  0.2515  0.2449  0.0612
   17CHTO   C31 7071   5.072   5.605   0.734  0.3896  0.1285  0.5656
   17CHTO   H59 7072   5.160   5.542   0.757  0.1054 -0.3434  0.3834
   17CHTO   C29 7073   5.052   5.606   0.581 -0.1509  0.1595 -0.9655
   17CHTO   H57 7074   4.965   5.668   0.555 -0.4615  0.4398  0.7162
   17CHTO   O21 7075   5.029   5.471   0.538  0.3155 -1.0796  0.0896
   17CHTO   H37 7076   5.051   5.453   0.449  1.3385  0.9880 -0.1100
   17CHTO   C27 7077   5.179   5.667   0.515 -0.0952 -0.1947 -0.5966
   17CHTO   H55 7078   5.264   5.605   0.545 -1.5750 -1.8888  0.2120
   17CHTO    N5 7079   5.176   5.675   0.366 -0.3162  0.4388 -0.0813
   17CHTO   H43 7080   5.094   5.729   0.322 -0.4600 -0.0256 -0.3844
   17CHTO   H44 7081   5.186   5.576   0.323  0.5913  1.2947 -1.8461
   17CHTO   C25 7082   5.203   5.806   0.571 -0.0612  0.5398 -0.6520
   17CHTO   H53 7083   5.115   5.866   0.542 -0.4724 -0.4416 -1.4483
   17CHTO   O17 7084   5.207   5.808   0.716 -0.3606  0.5006 -0.1248
   17CHTO   C32 7085   5.100   5.751   0.786 -0.1699  0.2742 -0.1569
   17CHTO   H60 7086   5.013   5.814   0.769  0.1809  0.2755 -2.0152
   17CHTO   C36 7087   5.135   5.748   0.937 -0.4398  0.7910  0.3260
   17CHTO   O25 7088   5.241   5.649   0.955 -0.6075  0.5092  0.2795
   17CHTO   H40 7089   5.280   5.646   1.040  0.4754 -1.6971 -0.2614
   17CHTO   O15 7090   5.336   5.864   0.511  0.2242  0.0965  0.5341
   17CHTO   C19 7091   5.397   5.997   0.503 -0.2936  0.6909 -1.3052
   17CHTO   H47 7092   5.467   5.975   0.421 -0.0734 -0.6693 -0.7685
   17CHTO   C20 7093   5.311   6.116   0.463 -0.3640 -0.4093 -0.6672
   17CHTO   H48 7094   5.228   6.129   0.535  1.1820  0.3599  1.0331
   17CHTO   O19 7095   5.250   6.074   0.342  0.0778 -0.1192  0.3609
   17CHTO   H35 7096   5.213   6.147   0.297  1.7963  0.4348 -0.2263
   17CHTO   C21 7097   5.392   6.251   0.445  0.5147  0.2580 -0.2598
   17CHTO   H49 7098   5.464   6.236   0.364  0.7192  2.8041 -0.6021
   17CHTO    N4 7099   5.303   6.369   0.416  0.8251  0.4338  0.1075
   17CHTO   H41 7100   5.214   6.349   0.359  2.0470 -0.5020 -1.5245
   17CHTO   H42 7101   5.360   6.446   0.367  1.0313  0.5562  0.5396
   17CHTO   C22 7102   5.478   6.271   0.572 -0.1015  0.2653  0.1692
   17CHTO   H50 7103   5.413   6.279   0.659  0.1716  2.3978  0.2044
   17CHTO   O14 7104   5.569   6.154   0.588 -0.4427  0.3995  0.4482
   17CHTO   C23 7105   5.489   6.040   0.629 -0.9471  0.6356  0.7075
   17CHTO   H51 7106   5.426   6.061   0.717 -3.9069 -0.5251 -1.0234
   17CHTO   C34 7107   5.582   5.930   0.684 -0.0290  0.4185  0.3215
   17CHTO   O23 7108   5.663   5.864   0.586  0.3334 -0.3305 -0.4165
   17CHTO   H38 7109   5.698   5.921   0.520  0.4019  1.6003  1.2547
   17CHTO   O16 7110   5.570   6.382   0.568  0.0802 -0.1482  0.6054
   17CHTO   C24 7111   5.609   6.468   0.698  0.1878 -0.1930  0.1372
   17CHTO   H52 7112   5.652   6.406   0.777 -1.5224  3.2008  3.9627
   17CHTO   C26 7113   5.481   6.537   0.752 -0.6941 -0.4484 -0.6525
   17CHTO   H54 7114   5.423   6.568   0.663 -1.2454 -0.6511 -0.3661
   17CHTO   O20 7115   5.393   6.446   0.827  0.2508  0.4346 -0.6965
   17CHTO   H36 7116   5.391   6.359   0.793  2.8040  0.2192 -0.4131
   17CHTO   C30 7117   5.513   6.663   0.845  0.9289  0.3429  0.7654
   17CHTO   H58 7118   5.536   6.623   0.945  0.0145 -2.7181 -0.1883
   17CHTO    N6 7119   5.393   6.754   0.860 -0.2451  0.0539  0.1421
   17CHTO   H45 7120   5.406   6.813   0.950  1.7002  0.3391 -0.3131
   17CHTO   H46 7121   5.362   6.817   0.778 -0.5684  1.1342  1.0725
   17CHTO   C33 7122   5.638   6.741   0.799 -0.1910  0.7408 -0.0184
   17CHTO   H61 7123   5.616   6.798   0.707 -2.3896  0.7509  0.4640
   17CHTO   O18 7124   5.744   6.654   0.775 -0.2976  0.4321  0.6342
   17CHTO   C28 7125   5.717   6.576   0.656  0.0179 -0.2884 -0.4052
   17CHTO   H56 7126   5.673   6.635   0.576 -0.6368 -0.1602  0.0439
   17CHTO   C35 7127   5.839   6.497   0.623 -0.4123  0.3146 -0.0573
   17CHTO   O24 7128   5.946   6.581   0.586 -0.1117  1.1196 -0.2968
   17CHTO   H39 7129   5.971   6.622   0.666  0.2215  0.2209  0.0633
   17CHTO    O9 7130   5.670   6.837   0.898  0.5385  0.3109  0.0138
   17CHTO   C13 7131   5.740   6.960   0.831 -0.3142 -0.0577  0.1565
   17CHTO   H26 7132   5.785   6.932   0.733  1.9793  1.0659  0.8402
   17CHTO   C11 7133   5.850   7.023   0.923  0.2990 -0.4098  0.1630
   17CHTO   H24 7134   5.931   6.951   0.942  1.5634  0.3495 -2.1642
   17CHTO    O8 7135   5.792   7.052   1.056  0.3910  0.4666  0.2022
   17CHTO    H3 7136   5.855   7.045   1.125 -0.5288 -2.3817  0.8411
   17CHTO    C9 7137   5.914   7.145   0.851 -0.4474  0.0660  0.5418
   17CHTO   H22 7138   5.958   7.102   0.760 -0.6947  1.5451 -0.2977
   17CHTO    N2 7139   6.029   7.208   0.922  0.1507 -0.1630  0.0738
   17CHTO   H10 7140   6.075   7.292   0.872  0.7886 -1.9316 -2.3901
   17CHTO   H11 7141   6.099   7.136   0.961  1.5929  0.4848 -1.2587
   17CHTO    C7 7142   5.799   7.251   0.815  0.2231 -0.4795  0.4357
   17CHTO   H20 7143   5.836   7.326   0.742  0.3706 -1.3983 -0.4454
   17CHTO    O4 7144   5.693   7.190   0.743 -0.1228  0.3385  0.5037
   17CHTO   C14 7145   5.635   7.066   0.785 -0.4370 -0.3585  0.0545
   17CHTO   H27 7146   5.596   7.018   0.693  0.1863  0.3969 -0.6066
   17CHTO   C18 7147   5.519   7.092   0.876 -0.4937  0.3411  0.4341
   17CHTO   O13 7148   5.423   7.183   0.821  0.5132 -0.1225 -0.1064
   17CHTO    H7 7149   5.464   7.266   0.808 -0.0695  0.0539 -0.8610
   17CHTO    O2 7150   5.735   7.301   0.956 -0.0524  0.8523  0.2191
   17CHTO    C1 7151   5.692   7.434   0.970  0.2496  0.4366  0.0172
   17CHTO   H14 7152   5.600   7.456   0.912  1.1087  1.3191 -1.0254
   17CHTO    C2 7153   5.802   7.545   0.922  0.8920 -0.4250 -0.4166
   17CHTO   H15 7154   5.891   7.504   0.973  1.4249  1.0901 -0.1034
   17CHTO    O6 7155   5.823   7.552   0.783 -0.8676  0.7157  0.1805
   17CHTO    H1 7156   5.777   7.482   0.742  2.3409 -1.8914  0.8240
   17CHTO    C3 7157   5.770   7.694   0.987  0.2477 -0.3161 -0.1310
   17CHTO   H16 7158   5.694   7.749   0.930  2.2104 -0.1615 -2.7029
   17CHTO    N1 7159   5.889   7.777   0.983  0.2984  0.9237  0.9899
   17CHTO    H8 7160   5.971   7.708   0.971  0.5989  1.0346  2.2911
   17CHTO    H9 7161   5.889   7.848   0.901  1.6343  0.2236  0.3675
   17CHTO    C4 7162   5.712   7.687   1.135 -0.4901  0.7092  0.0426
   17CHTO   H17 7163   5.792   7.659   1.204  0.0106  0.6502 -0.5542
   17CHTO    O1 7164   5.611   7.591   1.150 -0.0812  0.1085 -0.5262
   17CHTO    C5 7165   5.659   7.453   1.121  0.8482  0.0534 -0.6679
   17CHTO   H18 7166   5.755   7.434   1.168  0.8738  0.8634 -0.3878
   17CHTO   C16 7167   5.553   7.356   1.178  0.1727  0.3340 -0.0777
   17CHTO   O11 7168   5.423   7.375   1.113 -0.2861 -0.2067 -0.2341
   17CHTO    H5 7169   5.395   7.463   1.094  1.0702  0.5015  1.0286
   17CHTO    O3 7170   5.665   7.820   1.172  0.4870 -0.1888 -0.7855
   17CHTO    C6 7171   5.645   7.867   1.309  0.1336 -0.7226  0.0397
   17CHTO   H19 7172   5.576   7.952   1.304  0.7453 -0.3219 -2.1111
   17CHTO    C8 7173   5.585   7.762   1.406  0.0392  0.0662 -0.3939
   17CHTO   H21 7174   5.640   7.668   1.395 -0.2804 -0.4951  2.5390
   17CHTO    O7 7175   5.450   7.755   1.356  0.5115  0.2627  0.0249
   17CHTO    H2 7176   5.397   7.823   1.394  0.3309  0.9621 -1.4300
   17CHTO   C12 7177   5.604   7.806   1.557  0.1480  0.4924 -0.4091
   17CHTO   H25 7178   5.544   7.899   1.573  1.0969  1.0892 -0.2855
   17CHTO    N3 7179   5.548   7.698   1.642 -0.5868 -0.3821  0.1551
   17CHTO   H12 7180   5.447   7.675   1.612  0.1868 -1.4646 -1.7165
   17CHTO   H13 7181   5.551   7.704   1.749  0.8949 -3.4768  0.3273
   17CHTO   C15 7182   5.749   7.846   1.588 -0.3090  0.3581  0.3424
   17CHTO   H28 7183   5.823   7.766   1.577 -0.5700  0.0344  0.8866
   17CHTO   O10 7184   5.769   7.919   1.736 -0.5194  0.4257  0.2974
   17CHTO    H4 7185   5.746   7.865   1.810  2.0433 -4.2290 -2.0440
   17CHTO    O5 7186   5.792   7.943   1.491  0.0989 -0.4587 -0.2822
   17CHTO   C10 7187   5.785   7.918   1.349 -0.4260 -0.3912 -0.0527
   17CHTO   H23 7188   5.866   7.856   1.309 -0.0739 -0.3850  0.6460
   17CHTO   C17 7189   5.813   8.056   1.287  0.6058  0.0138 -0.0302
   17CHTO   O12 7190   5.703   8.147   1.283 -0.6985 -0.1747 -0.4653
   17CHTO    H6 7191   5.665   8.146   1.198  0.8978  0.6476 -1.2135
   18CHTO  H203 7192   7.180   8.031   1.925  1.6536 -0.2981  0.3114
   18CHTO   O82 7193   7.137   7.972   1.867  0.5092  0.3907  0.4476
   18CHTO  C123 7194   7.139   8.007   1.725  0.5970 -0.5656  0.1673
   18CHTO  H227 7195   7.238   8.045   1.695 -0.5727  0.3190 -2.7987
   18CHTO   O77 7196   7.107   7.887   1.653  0.2058 -0.2740 -0.0138
   18CHTO  C118 7197   7.086   7.898   1.511  0.1754  0.2262 -0.1921
   18CHTO  H222 7198   7.182   7.918   1.460 -1.6024  0.1433 -3.7759
   18CHTO  C125 7199   7.025   7.749   1.469  0.3713 -0.4736 -0.3722
   18CHTO   O84 7200   7.130   7.658   1.442  0.0932  0.1784 -0.7335
   18CHTO  H205 7201   7.198   7.694   1.388  0.7822 -0.6207 -0.4018
   18CHTO  C114 7202   6.985   8.008   1.475  0.1264 -0.2028 -0.2480
   18CHTO  H218 7203   6.889   7.974   1.512 -0.2684 -0.3116 -1.3509
   18CHTO  C116 7204   7.009   8.146   1.541  1.0860 -0.1510 -0.6931
   18CHTO  H220 7205   7.091   8.198   1.487 -0.0314  2.4372  0.0337
   18CHTO   O79 7206   6.891   8.231   1.517  0.3657 -0.4325 -0.5132
   18CHTO  H201 7207   6.831   8.239   1.589  0.0025  1.1209 -0.9672
   18CHTO  C120 7208   7.038   8.130   1.696  0.0438  0.0892 -0.8852
   18CHTO  H224 7209   6.939   8.104   1.739 -0.7208  0.9284 -2.0962
   18CHTO   N21 7210   7.077   8.260   1.755 -0.0213 -0.2192  0.2153
   18CHTO  H211 7211   6.989   8.313   1.789 -1.5338 -2.5763  0.0765
   18CHTO  H212 7212   7.137   8.242   1.843 -1.0695  1.0895  1.2246
   18CHTO   O75 7213   6.980   8.022   1.329 -0.4889  0.2054 -0.0882
   18CHTO  C112 7214   7.131   8.083   1.235 -0.4825  0.5313 -0.2864
   18CHTO  H216 7215   7.219   8.023   1.263 -1.4580 -1.2637 -0.9221
   18CHTO   O73 7216   7.151   8.219   1.268  0.0187  0.2722  0.1678
   18CHTO  C113 7217   7.259   8.283   1.197 -0.3346  0.3625 -0.0263
   18CHTO  H217 7218   7.355   8.235   1.224 -1.5509 -2.0385  0.1776
   18CHTO  C124 7219   7.264   8.424   1.251  0.3460 -0.0713 -0.1615
   18CHTO   O83 7220   7.182   8.507   1.177  0.2541 -0.6138 -0.0832
   18CHTO  H204 7221   7.234   8.583   1.160 -0.5097 -0.0247  0.1738
   18CHTO  C109 7222   7.244   8.277   1.039 -0.0578  0.1944 -0.0370
   18CHTO  H213 7223   7.161   8.345   1.013 -0.1751 -0.2220 -0.7839
   18CHTO  C110 7224   7.207   8.128   0.992 -0.6460  0.3009 -1.2964
   18CHTO  H214 7225   7.301   8.073   1.001  0.1862  1.8690 -0.2140
   18CHTO   O78 7226   7.160   8.122   0.857  0.0135 -0.3951  0.1486
   18CHTO  H200 7227   7.098   8.192   0.851  0.9063  0.5608  1.7222
   18CHTO  C111 7228   7.104   8.059   1.082 -0.0686  0.1465 -0.1221
   18CHTO  H215 7229   7.008   8.105   1.056  0.2964 -0.4046 -2.5564
   18CHTO   N19 7230   7.092   7.911   1.057 -0.0994 -0.7772  0.2681
   18CHTO  H207 7231   7.113   7.857   1.148 -1.4634  1.2787  1.8286
   18CHTO  H208 7232   6.997   7.879   1.018 -0.5088  1.4873 -0.6522
   18CHTO   O74 7233   7.354   8.332   0.977 -0.1137  0.1401 -0.4104
   18CHTO  C115 7234   7.318   8.392   0.821 -0.1421 -0.0802  0.5452
   18CHTO  H219 7235   7.272   8.316   0.758  0.1911 -0.4232  0.7127
   18CHTO   O76 7236   7.219   8.524   0.827  0.0998  0.1037  0.4686
   18CHTO  C122 7237   7.180   8.569   0.698 -0.0320  0.0442  0.3323
   18CHTO  H226 7238   7.151   8.673   0.703  1.4186  0.5881 -1.7927
   18CHTO  C126 7239   7.053   8.489   0.644  0.7391 -0.2687  0.2275
   18CHTO   O85 7240   6.967   8.461   0.754  0.0680  0.0194  1.0145
   18CHTO  H206 7241   6.917   8.387   0.726  1.6776 -0.7396  0.0645
   18CHTO  C121 7242   7.305   8.580   0.593 -0.2799 -0.3395 -0.4215
   18CHTO  H225 7243   7.266   8.595   0.490 -1.5006  0.4488  0.1326
   18CHTO   O81 7244   7.367   8.704   0.605 -0.2133 -0.1721 -0.2146
   18CHTO  H202 7245   7.419   8.718   0.528  0.0666  0.3532  0.0652
   18CHTO  C119 7246   7.407   8.469   0.594 -0.0274 -0.1566 -0.4163
   18CHTO  H223 7247   7.350   8.385   0.556 -2.2715  0.9152  0.4875
   18CHTO  C117 7248   7.446   8.430   0.746  0.0982 -0.2454  0.2967
   18CHTO  H221 7249   7.488   8.506   0.811  0.1286 -0.7863  0.9166
   18CHTO   N20 7250   7.542   8.314   0.746 -0.2151 -0.1716 -0.6308
   18CHTO  H209 7251   7.640   8.329   0.790 -1.4332  1.7251  1.5605
   18CHTO  H210 7252   7.551   8.268   0.650  1.6818 -2.7472  0.7229
   18CHTO   O80 7253   7.530   8.481   0.486  0.4248  0.2723 -0.0543
   18CHTO  C103 7254   7.533   8.398   0.356 -0.0002 -0.2657  0.0797
   18CHTO  H190 7255   7.620   8.434   0.302  0.4505 -2.1536 -0.4784
   18CHTO  C101 7256   7.540   8.246   0.374 -0.1020  0.0202 -0.8282
   18CHTO  H188 7257   7.470   8.216   0.452  1.1762 -0.1498  0.2666
   18CHTO   O68 7258   7.694   8.201   0.437 -0.1381 -0.4923  0.1835
   18CHTO  H168 7259   7.757   8.191   0.369  1.9496 -0.1909  2.0442
   18CHTO   C99 7260   7.498   8.175   0.239 -0.3395 -0.5602 -0.4225
   18CHTO  H186 7261   7.577   8.196   0.163 -0.7832  1.8114 -0.2730
   18CHTO   N17 7262   7.505   8.029   0.246 -0.1006  0.2860  0.0661
   18CHTO  H174 7263   7.561   7.984   0.165  0.9764 -1.7576  1.9017
   18CHTO  H175 7264   7.543   7.992   0.340  1.0783  1.5637  0.1210
   18CHTO   C97 7265   7.364   8.233   0.183  1.1198 -0.5522 -0.0109
   18CHTO  H184 7266   7.285   8.218   0.258 -0.5309  1.0802 -1.3858
   18CHTO   O64 7267   7.392   8.372   0.163 -0.6348  0.4842  0.4088
   18CHTO  C104 7268   7.405   8.448   0.283 -1.0259  0.3069  0.0827
   18CHTO  H191 7269   7.316   8.440   0.345 -0.4364  1.9035  1.1615
   18CHTO  C108 7270   7.411   8.588   0.234 -0.6604  0.1844  0.1300
   18CHTO   O71 7271   7.284   8.626   0.181 -0.0931  0.1897 -0.1148
   18CHTO  H171 7272   7.275   8.693   0.115  0.4130 -0.0028 -0.3768
   18CHTO   O62 7273   7.329   8.184   0.053 -0.0606  0.7475  0.5624
   18CHTO   C91 7274   7.192   8.170   0.018 -0.7193 -0.1884 -0.4517
   18CHTO  H178 7275   7.134   8.234   0.084 -0.0263 -1.3739  1.3349
   18CHTO   C92 7276   7.132   8.028   0.010 -0.5497 -0.4099 -0.0047
   18CHTO  H179 7277   7.164   7.989  -0.088 -1.4084 -0.5548 -0.2284
   18CHTO   O66 7278   7.163   7.946   0.124 -0.0749 -0.1437 -0.3692
   18CHTO  H166 7279   7.253   7.945   0.150  0.0899  0.9706 -0.8917
   18CHTO   C93 7280   6.974   8.040   0.004  0.7602 -0.4902  0.0016
   18CHTO  H180 7281   6.930   8.035   0.105  0.4738  2.0356  0.0154
   18CHTO   N16 7282   6.910   7.922  -0.061 -0.5653 -0.3445 -0.1423
   18CHTO  H172 7283   6.946   7.930  -0.163 -0.2123  1.3812  0.1141
   18CHTO  H173 7284   6.958   7.836  -0.016  2.0075  1.0177 -0.2295
   18CHTO   C94 7285   6.928   8.173  -0.066  0.5313 -0.9208  0.2219
   18CHTO  H181 7286   6.846   8.160  -0.137 -0.8564  0.7998  1.4647
   18CHTO   O61 7287   7.022   8.251  -0.143 -0.0430  0.5018 -0.2129
   18CHTO   C95 7288   7.163   8.234  -0.122  0.1524  0.2941  0.2470
   18CHTO  H182 7289   7.213   8.179  -0.203  1.8663  2.8974 -0.5472
   18CHTO  C106 7290   7.227   8.377  -0.138  0.4061 -0.7178 -0.1672
   18CHTO   O69 7291   7.184   8.472  -0.040  1.0986  0.6014  0.6816
   18CHTO  H169 7292   7.110   8.516  -0.078  0.3417 -1.6803 -0.6043
   18CHTO   O63 7293   6.902   8.276   0.053 -0.3923  0.1048 -0.5691
   18CHTO   C96 7294   6.765   8.351   0.047  0.4858  0.0202 -0.2623
   18CHTO  H183 7295   6.727   8.342  -0.054 -1.9079  1.0778  0.4889
   18CHTO   C98 7296   6.777   8.507   0.085 -0.3371 -0.0911  0.6296
   18CHTO  H185 7297   6.812   8.529   0.187 -2.3223  1.3810  1.0245
   18CHTO   O67 7298   6.885   8.550  -0.009  0.2143 -0.2456 -0.1594
   18CHTO  H167 7299   6.872   8.642  -0.021 -0.7013  0.1302  3.0961
   18CHTO  C102 7300   6.637   8.578   0.069 -0.5373 -1.0652 -0.2270
   18CHTO  H189 7301   6.617   8.583  -0.039 -0.8991  0.5650 -0.0949
   18CHTO   N18 7302   6.641   8.723   0.113  0.1185  0.3505  0.5301
   18CHTO  H176 7303   6.543   8.769   0.112 -0.5090 -0.9523 -0.9204
   18CHTO  H177 7304   6.701   8.774   0.040 -0.0848 -0.3577 -0.1402
   18CHTO  C105 7305   6.526   8.489   0.134  0.0411  0.2184  0.2672
   18CHTO  H192 7306   6.468   8.546   0.206 -2.9248  0.4239 -2.1673
   18CHTO   O65 7307   6.582   8.382   0.216  0.7229  0.7890  0.4131
   18CHTO  C100 7308   6.659   8.281   0.157  0.0948  0.8333  0.3078
   18CHTO  H187 7309   6.696   8.211   0.233 -3.0631 -0.8983  0.3486
   18CHTO  C107 7310   6.563   8.181   0.082 -0.2276 -0.0326  0.0628
   18CHTO   O70 7311   6.635   8.060   0.069  0.4149 -0.3124  0.4347
   18CHTO  H170 7312   6.696   8.075  -0.000  0.5902  1.5676  0.9723
   18CHTO   O57 7313   6.415   8.440   0.037  0.2956 -0.5349 -0.0485
   18CHTO   C85 7314   6.344   8.548  -0.033  0.8631  0.0639  0.1715
   18CHTO  H157 7315   6.415   8.632  -0.049  0.8551  0.0428  0.0391
   18CHTO   C83 7316   6.234   8.617   0.064 -0.1708  0.1708 -0.1867
   18CHTO  H155 7317   6.292   8.664   0.144  0.6974 -0.8238 -0.2309
   18CHTO   O56 7318   6.148   8.518   0.134 -0.3946 -0.1063 -0.0914
   18CHTO  H135 7319   6.099   8.461   0.078 -2.4892  3.4893 -2.1035
   18CHTO   C81 7320   6.150   8.721  -0.011  0.5603 -0.1799 -0.7002
   18CHTO  H153 7321   6.220   8.793  -0.053  4.0030 -2.3961  0.9469
   18CHTO   N14 7322   6.067   8.812   0.080  0.0775  0.6421  0.4717
   18CHTO  H141 7323   6.082   8.809   0.186 -0.6917  0.9336  0.5953
   18CHTO  H142 7324   6.063   8.912   0.043  0.4520 -0.7908 -3.6987
   18CHTO   C79 7325   6.073   8.646  -0.129 -0.0957 -0.3657 -0.0397
   18CHTO  H151 7326   6.006   8.718  -0.176  0.2731  0.1769  0.2657
   18CHTO   O52 7327   6.169   8.590  -0.228  0.4795  0.1381  0.5985
   18CHTO   C86 7328   6.274   8.506  -0.173  0.0124  0.6170 -0.6833
   18CHTO  H158 7329   6.231   8.406  -0.152  1.3134  0.3753  0.9605
   18CHTO   C90 7330   6.383   8.485  -0.284 -0.2102  0.1920 -0.1265
   18CHTO   O60 7331   6.443   8.605  -0.330 -0.7668  0.3432 -0.9494
   18CHTO  H138 7332   6.400   8.626  -0.410  1.0736 -0.7122 -2.2455
   18CHTO   O50 7333   5.983   8.545  -0.081 -0.2061  0.6430  0.7683
   18CHTO   C73 7334   5.860   8.478  -0.112  0.2090  0.2834  0.3527
   18CHTO  H145 7335   5.862   8.417  -0.203  0.0201 -1.7969  1.7053
   18CHTO   C74 7336   5.749   8.586  -0.128  0.1975  0.4178 -0.7067
   18CHTO  H146 7337   5.777   8.655  -0.208 -1.2000  0.4471 -1.1891
   18CHTO   O54 7338   5.624   8.516  -0.174 -0.0563 -0.4063 -0.5023
   18CHTO  H133 7339   5.574   8.580  -0.221  0.7219  1.1064  0.6934
   18CHTO   C75 7340   5.723   8.661   0.009  0.1593  0.6812 -0.2343
   18CHTO  H147 7341   5.813   8.718   0.039  2.0466 -2.1108 -0.4300
   18CHTO   N13 7342   5.611   8.761  -0.000 -0.3218  0.3738  0.8981
   18CHTO  H139 7343   5.527   8.741   0.066 -1.4716 -0.3923 -0.7499
   18CHTO  H140 7344   5.639   8.864   0.019 -1.0203  0.8555 -0.5479
   18CHTO   C76 7345   5.689   8.551   0.122  0.2046 -0.3915 -0.6101
   18CHTO  H148 7346   5.586   8.520   0.102 -0.5604  1.0402  0.9892
   18CHTO   O49 7347   5.793   8.448   0.115 -0.1680  0.1149 -0.1048
   18CHTO   C77 7348   5.817   8.382  -0.006  0.4281  0.2857 -0.5038
   18CHTO  H149 7349   5.729   8.325  -0.037  0.9673 -0.6303 -0.3705
   18CHTO   C88 7350   5.920   8.271   0.031  0.5716  0.7432 -0.2997
   18CHTO   O58 7351   5.959   8.186  -0.091 -0.3948 -0.3006  0.6481
   18CHTO  H136 7352   6.037   8.224  -0.126  0.0201 -1.5125  0.2338
   18CHTO   O51 7353   5.706   8.627   0.257  0.4563  0.6495 -0.0803
   18CHTO   C78 7354   5.716   8.572   0.397 -0.1753  0.7191  0.2236
   18CHTO  H150 7355   5.744   8.465   0.393  2.3479  1.3839 -0.4180
   18CHTO   C80 7356   5.580   8.577   0.464  0.1509 -0.7331  0.1212
   18CHTO  H152 7357   5.553   8.681   0.490 -0.9417 -1.1276  0.5798
   18CHTO   O55 7358   5.484   8.507   0.385 -0.1551 -0.1770 -0.2152
   18CHTO  H134 7359   5.456   8.571   0.322  1.4970  1.5970  0.8188
   18CHTO   C84 7360   5.596   8.519   0.615  0.1351  0.0618 -0.1768
   18CHTO  H156 7361   5.634   8.417   0.619  0.5136  0.2151  0.1383
   18CHTO   N15 7362   5.468   8.519   0.688 -0.0851  0.2439 -0.1395
   18CHTO  H143 7363   5.454   8.417   0.717 -1.3345  0.2764 -0.6151
   18CHTO  H144 7364   5.394   8.547   0.616 -0.2744  0.2520  0.0566
   18CHTO   C87 7365   5.704   8.599   0.694  0.3877 -0.1707 -0.4219
   18CHTO  H159 7366   5.678   8.705   0.695  1.3585  0.0720 -0.4305
   18CHTO   O53 7367   5.824   8.587   0.613 -0.2381  0.0847  0.4222
   18CHTO   C82 7368   5.821   8.649   0.482 -0.0625  0.3410  0.0487
   18CHTO  H154 7369   5.796   8.755   0.485 -0.1964  0.3082  0.1122
   18CHTO   C89 7370   5.963   8.638   0.420  0.4983 -0.0202  0.0704
   18CHTO   O59 7371   6.067   8.720   0.477  0.1627 -0.0970 -0.6696
   18CHTO  H137 7372   6.088   8.685   0.561 -0.9542  0.3752 -0.1855
   18CHTO   O45 7373   5.751   8.548   0.832  0.4733  0.2732 -0.4008
   18CHTO   C67 7374   5.888   8.572   0.876  0.2246 -0.2828  0.7480
   18CHTO  H124 7375   5.954   8.550   0.793 -0.3281  1.1367 -0.0856
   18CHTO   C65 7376   5.895   8.725   0.904  0.2175 -0.1720 -0.4670
   18CHTO  H122 7377   5.794   8.764   0.915  0.6446  1.4990 -2.3172
   18CHTO   O44 7378   5.941   8.775   0.773 -0.6371 -0.6062  0.1062
   18CHTO  H102 7379   5.924   8.867   0.767  2.4697 -0.0603 -1.4071
   18CHTO   C63 7380   5.985   8.751   1.028  0.0156 -0.9298 -0.6030
   18CHTO  H120 7381   5.928   8.734   1.120  1.5585  0.7491  0.6890
   18CHTO   N11 7382   6.031   8.893   1.051  0.1208 -0.3129 -0.0555
   18CHTO  H108 7383   6.125   8.908   1.003  0.4867 -0.5897  0.5712
   18CHTO  H109 7384   6.038   8.927   1.152 -1.8830  1.5540 -0.4849
   18CHTO   C61 7385   6.104   8.653   1.045  0.3744  0.1601  0.0128
   18CHTO  H118 7386   6.137   8.664   1.149 -0.6431 -1.7665  0.5731
   18CHTO   O40 7387   6.064   8.516   1.040 -0.5252 -0.3930 -0.3099
   18CHTO   C68 7388   5.928   8.480   0.994 -0.4338 -0.7840  0.1611
   18CHTO  H125 7389   5.850   8.492   1.073 -0.6834  1.2507 -0.3577
   18CHTO   C72 7390   5.934   8.327   0.963 -0.2708 -0.0405  0.5601
   18CHTO   O48 7391   6.014   8.238   1.045 -0.1150  0.2675  0.1761
   18CHTO  H105 7392   5.971   8.239   1.129 -0.5336 -0.4440 -0.0263
   18CHTO   O38 7393   6.200   8.669   0.935  0.9449  0.2851  0.3553
   18CHTO   C55 7394   6.327   8.609   0.964  0.0141  0.4898 -0.4007
   18CHTO  H112 7395   6.321   8.523   1.034  1.3646  0.4890 -0.2645
   18CHTO   C56 7396   6.431   8.718   1.015 -0.0522 -0.1201  0.1200
   18CHTO  H113 7397   6.423   8.797   0.939 -2.4452 -0.5721 -0.1279
   18CHTO   O42 7398   6.392   8.784   1.132  0.6268 -0.3468  0.2702
   18CHTO  H100 7399   6.458   8.830   1.180  0.6809  0.8042 -0.8603
   18CHTO   C57 7400   6.572   8.664   1.035 -0.0729  0.4983  0.4889
   18CHTO  H114 7401   6.580   8.597   1.121 -1.4950 -0.7219 -0.3043
   18CHTO   N10 7402   6.680   8.771   1.066  0.8674  0.6893  0.3927
   18CHTO  H106 7403   6.759   8.745   1.135  2.1747  0.5624 -1.1186
   18CHTO  H107 7404   6.725   8.828   0.986  0.4064 -0.0849 -0.4276
   18CHTO   C58 7405   6.619   8.575   0.916  0.6001  0.0857  0.1046
   18CHTO  H115 7406   6.655   8.643   0.836 -0.5529  0.9138  0.2723
   18CHTO   O37 7407   6.515   8.482   0.868  0.3965 -0.6979 -0.2897
   18CHTO   C59 7408   6.389   8.550   0.837 -0.2199 -0.0387 -0.1306
   18CHTO  H116 7409   6.411   8.630   0.767  0.2929 -0.0275  0.0441
   18CHTO   C70 7410   6.286   8.458   0.775 -0.8016  0.3310 -0.3279
   18CHTO   O46 7411   6.258   8.349   0.861 -0.0016  0.5872  0.2183
   18CHTO  H103 7412   6.196   8.292   0.820 -1.2938  1.3115  1.1360
   18CHTO   O39 7413   6.762   8.477   0.959 -0.2533 -0.2440 -0.7682
   18CHTO   C60 7414   6.720   8.356   1.023  0.1848  0.5776 -0.4878
   18CHTO  H117 7415   6.624   8.365   1.074  0.2088  0.7981 -0.4822
   18CHTO   C62 7416   6.698   8.237   0.921 -0.2794  0.4098  0.2029
   18CHTO  H119 7417   6.645   8.261   0.826 -1.9221  0.0422  1.0084
   18CHTO   O43 7418   6.827   8.208   0.859  0.0286 -0.0479  0.1168
   18CHTO  H101 7419   6.858   8.127   0.894  2.6356  2.0179  2.7990
   18CHTO   C66 7420   6.619   8.119   0.992  0.0213 -0.1559  0.2854
   18CHTO  H123 7421   6.536   8.166   1.044 -0.4445  2.9448 -3.1591
   18CHTO   N12 7422   6.568   8.014   0.901 -0.7863 -0.0739 -0.1463
   18CHTO  H110 7423   6.493   8.058   0.836 -1.6623  0.5527  1.2763
   18CHTO  H111 7424   6.536   7.925   0.952 -1.7376  0.9118  1.0184
   18CHTO   C69 7425   6.714   8.065   1.104  0.0556 -0.3207  0.4039
   18CHTO  H126 7426   6.798   8.010   1.057  1.6879  2.3842  0.0525
   18CHTO   O41 7427   6.775   8.175   1.203 -0.0070  0.0807 -0.1269
   18CHTO   C64 7428   6.821   8.313   1.133  0.5838  0.3965  0.0990
   18CHTO  H121 7429   6.914   8.294   1.076 -0.2216  0.1468 -1.1631
   18CHTO   C71 7430   6.825   8.415   1.247  0.0661  0.4104  0.3204
   18CHTO   O47 7431   6.702   8.446   1.308 -0.3033 -0.0219 -0.1069
   18CHTO  H104 7432   6.662   8.375   1.355  1.0802  0.5482  2.0196
   18CHTO   O34 7433   6.636   7.962   1.202  0.4575  0.1572  1.0553
   18CHTO   C49 7434   6.534   8.001   1.342  0.3969 -0.2810 -0.1352
   18CHTO   H91 7435   6.580   7.960   1.432 -1.5909  0.2308  1.1464
   18CHTO   C47 7436   6.400   7.932   1.336 -0.8222 -0.7627 -0.3356
   18CHTO   H89 7437   6.340   7.945   1.429 -2.4546 -0.6340 -1.3786
   18CHTO   O33 7438   6.418   7.793   1.325  0.1653  0.7380  0.2071
   18CHTO   H70 7439   6.435   7.765   1.237 -0.2962  0.3821  0.2311
   18CHTO   C45 7440   6.321   8.005   1.214 -0.7754 -0.8451 -0.3578
   18CHTO   H87 7441   6.377   7.990   1.120  0.2324  0.6882 -0.0132
   18CHTO    N8 7442   6.191   7.941   1.190  0.2643  0.1107 -0.1831
   18CHTO   H75 7443   6.143   7.908   1.280  0.5003  1.4383  0.4334
   18CHTO   H76 7444   6.131   8.004   1.126  0.5120 -0.5241 -1.0598
   18CHTO   C43 7445   6.302   8.165   1.254 -0.3121  0.4287  0.2869
   18CHTO   H85 7446   6.255   8.211   1.167  0.8758 -0.8948 -1.0688
   18CHTO   O29 7447   6.431   8.228   1.281  0.1739 -0.1193  0.4109
   18CHTO   C50 7448   6.515   8.155   1.369  0.4631 -0.5133 -0.5090
   18CHTO   H92 7449   6.614   8.203   1.374 -0.6891  1.7110  3.3123
   18CHTO   C54 7450   6.477   8.182   1.521  0.2640 -0.0775  0.2003
   18CHTO   O36 7451   6.545   8.286   1.577  0.2454  0.2337 -0.3702
   18CHTO   H72 7452   6.488   8.346   1.622 -0.5529 -2.8425  2.9032
   18CHTO   O27 7453   6.211   8.187   1.360  0.0945 -0.1275  0.3185
   18CHTO   C37 7454   6.152   8.280   1.450 -0.5647  0.4453 -0.3119
   18CHTO   H79 7455   6.232   8.330   1.508 -1.2300 -0.1268  1.1251
   18CHTO   C38 7456   6.082   8.393   1.376  0.0482 -0.1902  0.5101
   18CHTO   H80 7457   6.023   8.345   1.297  1.1040 -1.6523  0.5723
   18CHTO   O31 7458   6.179   8.461   1.303 -0.1382  0.2235 -0.6384
   18CHTO   H68 7459   6.141   8.459   1.217 -0.6769  0.1095 -0.3990
   18CHTO   C39 7460   6.001   8.485   1.471  0.1012  0.2686 -0.6377
   18CHTO   H81 7461   6.079   8.524   1.535 -0.0722  1.4583 -1.1424
   18CHTO    N7 7462   5.919   8.590   1.393  0.0055  0.5573 -0.5848
   18CHTO   H73 7463   5.901   8.677   1.456 -1.1980  0.4478 -0.7710
   18CHTO   H74 7464   5.966   8.606   1.297 -0.0475 -0.3894 -0.7691
   18CHTO   C40 7465   5.908   8.393   1.555  0.4298 -0.4720 -0.0207
   18CHTO   H82 7466   5.851   8.344   1.475 -1.9443  0.8204  0.8080
   18CHTO   O26 7467   5.987   8.300   1.629  0.1805 -0.1424 -0.9257
   18CHTO   C41 7468   6.054   8.202   1.541 -0.7018 -0.3476 -0.1090
   18CHTO   H83 7469   5.984   8.148   1.476 -2.2327  2.4444 -0.8867
   18CHTO   C52 7470   6.134   8.100   1.633  0.5050  0.3241  0.3842
   18CHTO   O35 7471   6.059   8.066   1.750  0.1679  0.7168  0.4215
   18CHTO   H71 7472   6.040   8.142   1.802  1.8144  1.0356  0.5877
   18CHTO   O28 7473   5.817   8.456   1.647 -0.2276 -0.6427 -0.1543
   18CHTO   C42 7474   5.687   8.417   1.689  0.4505 -0.1034 -0.1689
   18CHTO   H84 7475   5.658   8.489   1.765 -0.6921 -0.7197 -0.0121
   18CHTO   C44 7476   5.680   8.275   1.744 -0.2213  1.1719  0.1430
   18CHTO   H86 7477   5.732   8.205   1.678 -0.0068 -0.3488  1.8761
   18CHTO   O32 7478   5.760   8.275   1.861 -0.2064 -0.1825 -0.0114
   18CHTO   H69 7479   5.756   8.190   1.900  2.0285 -0.1362  0.3629
   18CHTO   C48 7480   5.530   8.227   1.776 -0.9059 -0.3774 -0.1186
   18CHTO   H90 7481   5.484   8.286   1.855  0.7899 -0.2266  0.7858
   18CHTO    N9 7482   5.526   8.096   1.839  0.0679 -0.4485  0.3454
   18CHTO   H77 7483   5.429   8.060   1.871 -0.0858  0.0432  0.4293
   18CHTO   H78 7484   5.595   8.086   1.922 -0.1329 -1.9113  0.3590
   18CHTO   C51 7485   5.443   8.247   1.649  0.5434  0.1728 -0.4799
   18CHTO   H93 7486   5.484   8.186   1.569 -0.9188  1.2557 -2.0961
   18CHTO   O30 7487   5.450   8.389   1.621 -0.6541 -0.0632 -0.7581
   18CHTO   C46 7488   5.578   8.430   1.568  0.6185  0.0291 -0.0099
   18CHTO   H88 7489   5.614   8.363   1.490  0.8529  0.1572 -0.0115
   18CHTO   C53 7490   5.571   8.573   1.527  0.2753  0.2298 -0.7001
   18CHTO   O72 7491   5.456   8.611   1.460 -0.3601  0.6117 -0.6101
   18CHTO  H199 7492   5.461   8.609   1.366 -0.2995  2.3295 -0.6508
   18CHTO   O22 7493   5.295   8.230   1.672  0.1369  0.1776 -0.6581
   18CHTO   C31 7494   5.195   8.202   1.564 -0.3624  0.0019  0.3521
   18CHTO   H59 7495   5.102   8.175   1.619 -1.2026  0.6560 -0.7191
   18CHTO   C29 7496   5.159   8.324   1.477  0.2879  0.0049 -0.0512
   18CHTO   H57 7497   5.248   8.367   1.429 -0.6371  1.6710 -0.3038
   18CHTO   O21 7498   5.112   8.426   1.568 -0.3428  0.1649 -0.1868
   18CHTO   H37 7499   5.118   8.517   1.543 -1.3796  0.4243  0.4795
   18CHTO   C27 7500   5.061   8.277   1.362 -0.3120  0.5607  0.1098
   18CHTO   H55 7501   4.970   8.228   1.400 -0.8764  0.6921 -1.0430
   18CHTO    N5 7502   5.016   8.390   1.274  0.2117 -0.1904  1.0483
   18CHTO   H43 7503   4.939   8.446   1.323 -0.8331  1.1488 -2.0306
   18CHTO   H44 7504   4.968   8.358   1.183 -0.3410 -1.3449  1.7327
   18CHTO   C25 7505   5.128   8.167   1.278  0.8762  0.0531  0.2478
   18CHTO   H53 7506   5.222   8.208   1.239  0.1258  2.0020  0.4149
   18CHTO   O17 7507   5.145   8.052   1.371  0.5781 -0.5111  1.0451
   18CHTO   C32 7508   5.233   8.076   1.480  0.0362  0.2887 -0.3480
   18CHTO   H60 7509   5.332   8.092   1.439 -0.0631 -0.7728 -1.0267
   18CHTO   C36 7510   5.235   7.941   1.568 -0.6031 -0.5766 -0.3588
   18CHTO   O25 7511   5.099   7.894   1.607  0.1489  0.0460 -0.1679
   18CHTO   H40 7512   5.103   7.804   1.580  0.6966  0.3132 -1.0068
   18CHTO   O15 7513   5.061   8.120   1.154 -0.1660  0.4438 -0.6882
   18CHTO   C19 7514   5.082   8.092   1.020 -0.2891  0.6523  0.3185
   18CHTO   H47 7515   5.017   8.005   1.002  0.4490  0.4383 -1.4239
   18CHTO   C20 7516   5.041   8.198   0.913  0.7125  0.5111  0.8228
   18CHTO   H48 7517   5.081   8.298   0.936  1.6377 -0.0211  1.5623
   18CHTO   O19 7518   4.893   8.211   0.915  0.2015  0.8918  0.2184
   18CHTO   H35 7519   4.864   8.266   0.844  1.1084  1.1466  0.0323
   18CHTO   C21 7520   5.096   8.160   0.771  0.2854  0.3332 -0.9659
   18CHTO   H49 7521   5.039   8.073   0.739  1.7003  0.2006 -3.2525
   18CHTO    N4 7522   5.076   8.265   0.667 -0.6994  0.0535  0.0826
   18CHTO   H41 7523   5.162   8.262   0.602 -0.8930 -1.8356 -0.1281
   18CHTO   H42 7524   4.984   8.249   0.611 -2.3598 -1.4351  3.0896
   18CHTO   C22 7525   5.245   8.122   0.779  0.5219  0.6431  0.6499
   18CHTO   H50 7526   5.304   8.205   0.816  0.5469  0.4611  1.0161
   18CHTO   O14 7527   5.255   8.008   0.864  0.3873  0.5766 -0.0275
   18CHTO   C23 7528   5.226   8.043   0.996 -0.2703 -0.7656 -0.2181
   18CHTO   H51 7529   5.299   8.124   1.014 -1.2051  0.0560 -0.0783
   18CHTO   C34 7530   5.267   7.925   1.080 -0.1825  0.2662 -0.2736
   18CHTO   O23 7531   5.411   7.918   1.087  0.1163  0.6879 -0.1664
   18CHTO   H38 7532   5.449   7.840   1.123  1.2781  1.7054  0.8281
   18CHTO   O16 7533   5.307   8.069   0.658  0.0508  0.1735  0.2959
   18CHTO   C24 7534   5.447   8.138   0.615 -0.2930 -0.4358 -0.5731
   18CHTO   H52 7535   5.455   8.240   0.655 -0.3877 -0.2067 -1.1402
   18CHTO   C26 7536   5.463   8.139   0.459 -0.1562 -0.5794  0.0463
   18CHTO   H54 7537   5.434   8.040   0.417 -2.2855 -0.1214  0.3614
   18CHTO   O20 7538   5.359   8.230   0.424 -0.4568 -1.0008 -0.5807
   18CHTO   H36 7539   5.297   8.186   0.369 -1.4768 -0.5817  0.2178
   18CHTO   C30 7540   5.600   8.189   0.404 -0.3921  0.0481 -0.0718
   18CHTO   H58 7541   5.614   8.290   0.445  1.7818 -0.5794  0.8629
   18CHTO    N6 7542   5.609   8.198   0.251 -0.0628  0.1324 -0.3485
   18CHTO   H45 7543   5.664   8.111   0.220 -0.5045  0.5723 -2.4242
   18CHTO   H46 7544   5.669   8.280   0.214  1.0343  0.5217  2.1918
   18CHTO   C33 7545   5.710   8.101   0.470  0.3886 -0.1130 -0.0970
   18CHTO   H61 7546   5.700   7.996   0.438  1.2311  0.0450 -0.8815
   18CHTO   O18 7547   5.692   8.117   0.612  0.0825  0.3736 -0.0918
   18CHTO   C28 7548   5.568   8.066   0.672  0.1114 -0.2106  0.0473
   18CHTO   H56 7549   5.555   7.959   0.657 -0.6410 -0.4427  2.2065
   18CHTO   C35 7550   5.582   8.100   0.821  0.7286  0.0550 -0.2555
   18CHTO   O24 7551   5.640   8.219   0.855 -0.1314 -0.0411  0.2731
   18CHTO   H39 7552   5.732   8.223   0.836  0.2648 -1.2988  1.8409
   18CHTO    O9 7553   5.846   8.143   0.430  0.1212  0.1740 -0.4082
   18CHTO   C13 7554   5.946   8.031   0.422  0.0225  0.5930  0.3323
   18CHTO   H26 7555   5.907   7.956   0.349  1.7671 -2.8685  2.8144
   18CHTO   C11 7556   5.983   7.959   0.562  0.4288 -0.2244  0.1692
   18CHTO   H24 7557   5.887   7.924   0.601  1.5742 -2.5016  1.0073
   18CHTO    O8 7558   6.052   8.048   0.653  0.0433 -0.2043 -0.5116
   18CHTO    H3 7559   6.130   8.087   0.618 -0.1130 -1.5868 -2.4870
   18CHTO    C9 7560   6.075   7.837   0.518  0.5415 -0.1546 -0.5499
   18CHTO   H22 7561   6.003   7.773   0.465 -1.6505  2.2500 -0.5510
   18CHTO    N2 7562   6.111   7.747   0.629  0.3307  0.7310  0.4426
   18CHTO   H10 7563   6.163   7.658   0.597 -0.8190  0.1548  0.1506
   18CHTO   H11 7564   6.031   7.717   0.694  0.1585 -0.0026 -0.0856
   18CHTO    C7 7565   6.198   7.882   0.423 -0.1396 -0.3875  0.3857
   18CHTO   H20 7566   6.175   7.829   0.328  3.0638 -2.1685  0.5107
   18CHTO    O4 7567   6.204   8.022   0.404 -0.2821  1.2390  0.1525
   18CHTO   C14 7568   6.079   8.082   0.348 -0.4931  0.2578 -0.8837
   18CHTO   H27 7569   6.082   8.048   0.243  1.8967 -0.5043 -0.6171
   18CHTO   C18 7570   6.092   8.247   0.350 -0.0758 -0.1356 -0.7932
   18CHTO   O13 7571   6.145   8.300   0.473 -0.0244 -0.2189  0.3423
   18CHTO    H7 7572   6.193   8.378   0.452  0.3227 -0.5699 -0.1741
   18CHTO    O2 7573   6.354   7.824   0.483  0.6357  0.7948 -0.4850
   18CHTO    C1 7574   6.456   7.868   0.393 -0.7776 -0.2107  0.7913
   18CHTO   H14 7575   6.419   7.932   0.310  1.8639  0.9069  0.4441
   18CHTO    C2 7576   6.522   7.743   0.322  0.7036  0.2643 -0.0285
   18CHTO   H15 7577   6.527   7.661   0.395  0.4297  1.1797  1.0256
   18CHTO    O6 7578   6.439   7.706   0.211  0.6011 -0.2381  0.3138
   18CHTO    H1 7579   6.350   7.686   0.233  0.3778  0.1578 -0.2221
   18CHTO    C3 7580   6.665   7.776   0.269 -0.0772 -0.1817 -0.9508
   18CHTO   H16 7581   6.661   7.843   0.182  0.2753 -0.3416 -1.0934
   18CHTO    N1 7582   6.735   7.655   0.221 -0.6845  0.4871 -0.2165
   18CHTO    H8 7583   6.839   7.682   0.212 -0.1291 -1.7937 -1.1272
   18CHTO    H9 7584   6.707   7.623   0.121 -0.8025  0.7237 -0.2592
   18CHTO    C4 7585   6.751   7.859   0.379  0.3017  0.0746  0.0555
   18CHTO   H17 7586   6.759   7.790   0.463  1.1215  0.8862  0.6396
   18CHTO    O1 7587   6.681   7.975   0.411 -0.0660  0.4125  0.1499
   18CHTO    C5 7588   6.558   7.947   0.482  0.5596  0.7138  0.1043
   18CHTO   H18 7589   6.581   7.887   0.569  0.3346 -2.1966 -1.7830
   18CHTO   C16 7590   6.509   8.083   0.532  0.5122 -0.1664 -0.1031
   18CHTO   O11 7591   6.490   8.177   0.418 -0.7944 -0.3341  0.0117
   18CHTO    H5 7592   6.563   8.173   0.359 -1.1618  0.4288 -0.5066
   18CHTO    O3 7593   6.877   7.905   0.330  1.0165  0.4575 -0.1754
   18CHTO    C6 7594   6.972   7.951   0.437  0.7785  0.1359 -0.3788
   18CHTO   H19 7595   6.926   7.970   0.534 -0.8013  0.4558 -1.1882
   18CHTO    C8 7596   7.088   7.844   0.453  0.0535  0.3849 -0.0843
   18CHTO   H21 7597   7.126   7.826   0.352 -2.0596 -1.1358 -0.6435
   18CHTO    O7 7598   7.030   7.720   0.499  0.0323  0.5340 -0.1471
   18CHTO    H2 7599   7.011   7.660   0.430  2.5256  0.4191 -0.7891
   18CHTO   C12 7600   7.206   7.886   0.559 -0.0272 -0.0067 -0.6572
   18CHTO   H25 7601   7.156   7.892   0.658  0.6807 -0.5815 -0.2682
   18CHTO    N3 7602   7.315   7.782   0.572  0.1643 -0.0467  0.1711
   18CHTO   H12 7603   7.357   7.755   0.476  0.4850 -2.0952  0.8697
   18CHTO   H13 7604   7.391   7.824   0.636 -0.1040 -0.7592  0.9637
   18CHTO   C15 7605   7.247   8.034   0.513  0.5762 -0.0043  0.3853
   18CHTO   H28 7606   7.293   8.033   0.415  0.9298  1.3652  0.5313
   18CHTO   O10 7607   7.331   8.105   0.613  0.6016  0.2278 -0.1249
   18CHTO    H4 7608   7.374   8.176   0.568  2.7292  0.6244  2.4438
   18CHTO    O5 7609   7.138   8.121   0.507  0.0278 -0.1831  0.1343
   18CHTO   C10 7610   7.045   8.082   0.403 -0.0481  0.8352  0.6043
   18CHTO   H23 7611   7.113   8.079   0.319  0.3369  0.4762  0.9271
   18CHTO   C17 7612   6.942   8.199   0.378 -0.2655  0.2201  0.5475
   18CHTO   O12 7613   6.862   8.238   0.491 -0.3741  0.3798  0.0784
   18CHTO    H6 7614   6.915   8.301   0.536  1.2164 -0.8095 -0.0909
   19CHTO  H203 7615   5.600   9.533   2.158 -1.4319  0.9642  0.4557
   19CHTO   O82 7616   5.600   9.473   2.231  0.2773  0.5272  0.1270
   19CHTO  C123 7617   5.555   9.342   2.187  0.6763 -0.5131  0.0689
   19CHTO  H227 7618   5.452   9.350   2.149  0.7380  0.3951  0.0889
   19CHTO   O77 7619   5.646   9.288   2.085 -0.4199  0.5780  0.2625
   19CHTO  C118 7620   5.611   9.161   2.025 -0.6088 -0.4797 -0.6578
   19CHTO  H222 7621   5.512   9.163   1.978 -1.9013 -2.7410  1.8143
   19CHTO  C125 7622   5.716   9.131   1.918  0.6189 -0.2776 -0.0098
   19CHTO   O84 7623   5.696   9.209   1.799  0.4934  0.1839  0.1787
   19CHTO  H205 7624   5.776   9.240   1.761  0.7826  0.6585  1.1602
   19CHTO  C114 7625   5.615   9.057   2.133 -0.6426  0.2877  0.4813
   19CHTO  H218 7626   5.716   9.050   2.173  0.1909 -0.3608 -1.6467
   19CHTO  C116 7627   5.519   9.090   2.252  0.2735  0.5293  0.0873
   19CHTO  H220 7628   5.416   9.091   2.210  0.9150  0.2815 -1.5096
   19CHTO   O79 7629   5.523   8.988   2.353  0.3604 -0.0460 -0.0533
   19CHTO  H201 7630   5.498   8.908   2.311  0.7307 -0.0093 -0.3465
   19CHTO  C120 7631   5.546   9.237   2.310 -0.3568 -0.5485 -0.3841
   19CHTO  H224 7632   5.641   9.236   2.366 -0.2933 -1.2126 -0.4936
   19CHTO   N21 7633   5.458   9.279   2.422  0.0458 -0.8628 -0.1474
   19CHTO  H211 7634   5.500   9.352   2.490 -3.2149  1.5008 -0.5369
   19CHTO  H212 7635   5.369   9.322   2.379 -0.4854 -2.3457 -0.5411
   19CHTO   O75 7636   5.602   8.931   2.071 -0.1017  0.4371  0.2490
   19CHTO  C112 7637   5.684   8.807   2.145  0.5985  0.6068 -0.2977
   19CHTO  H216 7638   5.668   8.810   2.254 -1.3462 -1.5016 -0.4903
   19CHTO   O73 7639   5.818   8.824   2.114 -0.5192  0.2164 -0.7853
   19CHTO  C113 7640   5.911   8.729   2.167  0.1792 -0.0445 -0.4129
   19CHTO  H217 7641   5.913   8.737   2.278  0.6477 -2.0158 -0.2511
   19CHTO  C124 7642   6.051   8.767   2.112 -0.1378  0.2488  0.4344
   19CHTO   O83 7643   6.098   8.899   2.136  0.3946  0.1494 -0.3443
   19CHTO  H204 7644   6.188   8.907   2.112  0.3390  1.2528 -0.2007
   19CHTO  C109 7645   5.865   8.584   2.117  0.2153 -0.1500 -0.1222
   19CHTO  H213 7646   5.871   8.583   2.007  1.1901 -1.1171 -0.0722
   19CHTO  C110 7647   5.718   8.555   2.155  0.3776  0.1993 -0.5413
   19CHTO  H214 7648   5.713   8.560   2.264 -1.6947  3.3022 -0.7197
   19CHTO   O78 7649   5.675   8.427   2.122 -0.8244 -0.6069  0.0375
   19CHTO  H200 7650   5.721   8.364   2.174  1.4435 -0.2901 -1.5142
   19CHTO  C111 7651   5.627   8.671   2.090  0.1486  0.6689 -0.7708
   19CHTO  H215 7652   5.619   8.658   1.981 -0.5627  1.7168 -0.8520
   19CHTO   N19 7653   5.483   8.656   2.138 -0.0417  0.0751 -0.1606
   19CHTO  H207 7654   5.450   8.558   2.104 -0.3448  0.4429 -0.9258
   19CHTO  H208 7655   5.480   8.654   2.246 -1.1882 -1.9383 -0.2001
   19CHTO   O74 7656   5.969   8.490   2.162 -0.1134 -0.8280  0.3457
   19CHTO  C115 7657   6.019   8.379   2.057 -0.1764  0.5740 -0.5966
   19CHTO  H219 7658   5.938   8.320   2.014 -0.7635  1.5531 -0.8521
   19CHTO   O76 7659   6.092   8.450   1.923 -0.0431  0.6168 -0.1108
   19CHTO  C122 7660   6.227   8.461   1.929 -0.1872 -0.2689 -0.0355
   19CHTO  H226 7661   6.253   8.533   2.007  1.2325  0.8655 -1.5006
   19CHTO  C126 7662   6.265   8.537   1.794  0.5834 -0.1043  1.0097
   19CHTO   O85 7663   6.203   8.665   1.769 -0.7068  0.2875  0.4023
   19CHTO  H206 7664   6.170   8.675   1.681 -1.3650  1.3819  0.7514
   19CHTO  C121 7665   6.292   8.328   1.946 -0.0890  0.4221  0.7366
   19CHTO  H225 7666   6.311   8.289   1.843 -2.7931  0.8944  0.0136
   19CHTO   O81 7667   6.418   8.356   2.003  0.4310 -0.6957 -0.0961
   19CHTO  H202 7668   6.490   8.329   1.949  1.5272 -0.6006  1.2743
   19CHTO  C119 7669   6.209   8.216   2.024 -0.0587 -0.4026  0.0969
   19CHTO  H223 7670   6.137   8.172   1.955 -0.7129 -2.2561  1.9251
   19CHTO  C117 7671   6.114   8.275   2.129  0.3066  0.6770  0.0420
   19CHTO  H221 7672   6.171   8.332   2.203  3.1590  0.3047 -1.7567
   19CHTO   N20 7673   6.036   8.177   2.204  0.1650  0.2094 -0.0101
   19CHTO  H209 7674   6.018   8.090   2.143 -0.2252  1.4178 -1.6522
   19CHTO  H210 7675   6.097   8.159   2.291  0.9668 -3.6431 -1.2583
   19CHTO   O80 7676   6.308   8.076   2.055  0.0875  0.1075  0.5774
   19CHTO  C103 7677   6.349   7.979   1.933  0.1891  0.1289 -0.2624
   19CHTO  H190 7678   6.306   8.024   1.844 -0.3334  1.1412  0.4996
   19CHTO  C101 7679   6.500   7.963   1.895 -0.1647  0.1444 -0.0642
   19CHTO  H188 7680   6.542   7.906   1.978  2.5888 -0.8819 -2.0664
   19CHTO   O68 7681   6.572   8.112   1.862  0.0947 -0.1104 -0.4058
   19CHTO  H168 7682   6.664   8.111   1.878  0.0072 -1.1382  0.0646
   19CHTO   C99 7683   6.526   7.866   1.770 -0.1406 -0.0362  0.0505
   19CHTO  H186 7684   6.497   7.916   1.676 -0.4200 -1.0123 -0.3877
   19CHTO   N17 7685   6.662   7.816   1.742 -0.3083 -0.9527  0.3796
   19CHTO  H174 7686   6.732   7.897   1.726  0.9114 -2.1043 -0.3261
   19CHTO  H175 7687   6.696   7.753   1.823  0.3248  0.7055  1.4155
   19CHTO   C97 7688   6.427   7.739   1.786 -0.3626  0.3471  0.2331
   19CHTO  H184 7689   6.468   7.666   1.857 -0.2717 -0.1379 -0.3159
   19CHTO   O64 7690   6.300   7.781   1.831 -0.3180  0.2360  0.9792
   19CHTO  C104 7691   6.282   7.842   1.957 -0.1152 -0.3044  0.1969
   19CHTO  H191 7692   6.338   7.786   2.032  0.7085 -0.5815 -0.6188
   19CHTO  C108 7693   6.143   7.843   2.007 -0.1364  0.4181  0.0955
   19CHTO   O71 7694   6.099   7.712   2.025  0.5950 -0.5463 -0.3804
   19CHTO  H171 7695   6.027   7.699   2.084  0.1043 -0.2486 -0.9088
   19CHTO   O62 7696   6.399   7.677   1.659  0.6909 -0.0938 -0.2831
   19CHTO   C91 7697   6.321   7.557   1.670  0.4038 -0.0411 -0.5280
   19CHTO  H178 7698   6.281   7.537   1.770 -1.6842  2.2071 -0.8897
   19CHTO   C92 7699   6.405   7.429   1.641  0.3671 -0.6460 -0.2838
   19CHTO  H179 7700   6.467   7.442   1.552  1.8243 -2.8602  0.3796
   19CHTO   O66 7701   6.509   7.424   1.741 -0.3988  0.8086 -0.3530
   19CHTO  H166 7702   6.570   7.354   1.728  1.9793  2.5874  0.9198
   19CHTO   C93 7703   6.324   7.291   1.637 -0.1954 -0.3201  0.0783
   19CHTO  H180 7704   6.282   7.268   1.736  1.8418 -2.9556  0.3558
   19CHTO   N16 7705   6.405   7.172   1.599  0.4134  0.3643  0.6528
   19CHTO  H172 7706   6.422   7.164   1.492 -2.5139  1.5930  0.0370
   19CHTO  H173 7707   6.345   7.083   1.615  1.0384 -0.6329 -2.1939
   19CHTO   C94 7708   6.199   7.319   1.549 -0.0404  0.5016  0.5781
   19CHTO  H181 7709   6.222   7.315   1.442 -2.1825  2.9350 -0.0331
   19CHTO   O61 7710   6.128   7.438   1.569  0.5128  0.0858 -0.4595
   19CHTO   C95 7711   6.200   7.563   1.566  0.4111 -0.1745 -0.1366
   19CHTO  H182 7712   6.245   7.574   1.468  0.3071  0.8467 -0.0680
   19CHTO  C106 7713   6.110   7.675   1.587  0.5624  0.4939  0.8166
   19CHTO   O69 7714   6.077   7.745   1.466 -0.4202  0.0524  0.0587
   19CHTO  H169 7715   6.153   7.785   1.429 -0.0505  0.2414  0.9975
   19CHTO   O63 7716   6.107   7.217   1.586 -0.9041  0.0960 -0.2442
   19CHTO   C96 7717   5.994   7.185   1.471  0.2446 -0.6647  0.2802
   19CHTO  H183 7718   6.062   7.163   1.389  1.0819 -2.3221  1.3809
   19CHTO   C98 7719   5.901   7.300   1.435 -0.3055 -0.1346 -0.5816
   19CHTO  H185 7720   5.947   7.395   1.407 -2.7837  1.1138 -0.5223
   19CHTO   O67 7721   5.839   7.251   1.310  0.0546  0.0304  0.1546
   19CHTO  H167 7722   5.786   7.315   1.266 -1.8715 -0.6616  1.3851
   19CHTO  C102 7723   5.775   7.317   1.532 -0.0546  0.7491  0.6667
   19CHTO  H189 7724   5.698   7.370   1.475 -0.9307 -1.3804 -0.1975
   19CHTO   N18 7725   5.804   7.404   1.644 -0.6680  0.1314 -0.4545
   19CHTO  H176 7726   5.742   7.392   1.731 -0.7158 -1.0498 -0.6416
   19CHTO  H177 7727   5.799   7.509   1.620 -1.1921  0.0279 -0.7850
   19CHTO  C105 7728   5.714   7.175   1.569  0.2640 -0.4841 -0.3900
   19CHTO  H192 7729   5.742   7.148   1.671 -1.2959 -0.9086 -0.0581
   19CHTO   O65 7730   5.769   7.070   1.485  0.2695 -0.2826 -0.3473
   19CHTO  C100 7731   5.913   7.056   1.505 -0.5283  0.0738  0.0334
   19CHTO  H187 7732   5.930   7.046   1.614 -0.7986  0.1981  0.0886
   19CHTO  C107 7733   5.964   6.927   1.440  0.7156 -0.5666 -0.2052
   19CHTO   O70 7734   5.886   6.815   1.478  0.0743  0.7006 -0.6089
   19CHTO  H170 7735   5.798   6.819   1.446 -0.5594 -0.2466  0.9293
   19CHTO   O57 7736   5.548   7.169   1.549 -0.1301  0.1888  0.3650
   19CHTO   C85 7737   5.468   7.061   1.606  0.6244 -0.0473 -0.2012
   19CHTO  H157 7738   5.513   7.059   1.708  1.6552  2.3699 -0.5703
   19CHTO   C83 7739   5.499   6.927   1.539 -0.3800  0.4991  0.3291
   19CHTO  H155 7740   5.604   6.905   1.555 -1.0028 -2.1164  1.0405
   19CHTO   O56 7741   5.480   6.954   1.389 -0.0304  0.1942 -0.2131
   19CHTO  H135 7742   5.561   6.979   1.349 -1.4505  2.3369 -1.8701
   19CHTO   C81 7743   5.419   6.819   1.604  0.0666 -0.1371 -0.1017
   19CHTO  H153 7744   5.443   6.824   1.711  1.3241 -1.7074 -0.2982
   19CHTO   N14 7745   5.456   6.682   1.566 -0.6109  0.4011  0.2214
   19CHTO  H141 7746   5.421   6.676   1.465 -1.2452  0.8247  0.4182
   19CHTO  H142 7747   5.561   6.661   1.574 -0.8812 -0.9348  0.4885
   19CHTO   C79 7748   5.262   6.853   1.580  0.0097 -0.5132 -0.1898
   19CHTO  H151 7749   5.207   6.775   1.633 -1.2105 -1.0097 -2.1331
   19CHTO   O52 7750   5.226   6.984   1.638  0.0321  0.4014  0.5544
   19CHTO   C86 7751   5.315   7.098   1.611 -1.2023  0.2934  0.1229
   19CHTO  H158 7752   5.278   7.139   1.515 -1.2207 -0.5582 -0.2440
   19CHTO   C90 7753   5.277   7.213   1.714 -0.0473 -0.5072  0.0438
   19CHTO   O60 7754   5.327   7.342   1.684  0.6869 -0.1047 -0.4446
   19CHTO  H138 7755   5.421   7.337   1.685  0.6340 -1.2523 -0.9401
   19CHTO   O50 7756   5.215   6.840   1.444  0.4319 -0.0910  0.3856
   19CHTO   C73 7757   5.106   6.817   1.357  0.2205  0.5466 -0.4750
   19CHTO  H145 7758   5.087   6.709   1.349 -0.3793  0.5984  0.2446
   19CHTO   C74 7759   5.140   6.868   1.216  0.6035 -0.0843 -0.0620
   19CHTO  H146 7760   5.239   6.823   1.196 -0.2911 -1.3770 -1.8167
   19CHTO   O54 7761   5.040   6.817   1.132  0.1430  0.7657  0.0133
   19CHTO  H133 7762   5.057   6.826   1.041 -1.2291  2.9880 -0.0680
   19CHTO   C75 7763   5.148   7.026   1.210  0.0965 -0.0080  0.0491
   19CHTO  H147 7764   5.238   7.060   1.263 -0.7282  0.2397  1.3134
   19CHTO   N13 7765   5.183   7.081   1.074  0.8904 -0.5697  0.3314
   19CHTO  H139 7766   5.104   7.069   1.000  0.2230 -0.7194  1.0636
   19CHTO  H140 7767   5.200   7.187   1.084 -1.9542 -0.1452  1.1754
   19CHTO   C76 7768   5.032   7.092   1.285  0.1180  0.2716 -0.2558
   19CHTO  H148 7769   4.939   7.096   1.228 -0.1679 -1.1809  0.0827
   19CHTO   O49 7770   5.001   7.032   1.409  0.5705  0.5895 -0.0668
   19CHTO   C77 7771   4.980   6.890   1.404 -0.4668 -0.3206 -0.0117
   19CHTO  H149 7772   4.900   6.871   1.332  0.1582  0.9751 -1.0793
   19CHTO   C88 7773   4.924   6.841   1.541 -0.6832 -0.7694 -0.0553
   19CHTO   O58 7774   4.803   6.879   1.563 -0.1257  0.7042 -0.5387
   19CHTO  H136 7775   4.742   6.812   1.537 -0.2715  0.2237  0.9432
   19CHTO   O51 7776   5.082   7.231   1.327 -0.3740  0.0848  0.0156
   19CHTO   C78 7777   4.961   7.343   1.313 -0.1642  0.0495 -0.0588
   19CHTO  H150 7778   4.878   7.303   1.251  1.5031 -0.9201 -1.7027
   19CHTO   C80 7779   5.020   7.473   1.250 -0.0715  0.1525  0.1576
   19CHTO  H152 7780   5.109   7.503   1.309 -1.3613  2.0260  1.2041
   19CHTO   O55 7781   5.063   7.423   1.118 -0.8601  0.5791 -0.6388
   19CHTO  H134 7782   4.991   7.395   1.066  0.3553 -2.4724 -0.7764
   19CHTO   C84 7783   4.906   7.583   1.217 -0.0959  0.2874 -0.5000
   19CHTO  H156 7784   4.839   7.550   1.138  0.8243  0.1353 -1.2224
   19CHTO   N15 7785   4.957   7.714   1.164 -0.2773  0.0285 -0.1834
   19CHTO  H143 7786   4.916   7.737   1.068  1.2617 -0.4263 -0.9725
   19CHTO  H144 7787   5.063   7.726   1.154 -0.4955  0.9158 -1.5225
   19CHTO   C87 7788   4.823   7.603   1.342 -0.0295  0.0086 -0.5112
   19CHTO  H159 7789   4.877   7.674   1.405 -0.2580 -0.3456  0.0917
   19CHTO   O53 7790   4.801   7.476   1.424  0.2027 -0.1001  0.9850
   19CHTO   C82 7791   4.906   7.386   1.450 -0.0764  0.1890  0.0644
   19CHTO  H154 7792   4.987   7.428   1.511 -0.4132  1.8126 -0.5977
   19CHTO   C89 7793   4.849   7.270   1.525  0.0908 -0.1856  0.1275
   19CHTO   O59 7794   4.805   7.314   1.654  0.0651 -0.0722 -0.6561
   19CHTO  H137 7795   4.876   7.304   1.715  1.2298 -2.2152 -2.3050
   19CHTO   O45 7796   4.677   7.670   1.292 -0.0779  0.6361  0.2303
   19CHTO   C67 7797   4.628   7.755   1.398 -0.6043  0.9485 -0.1898
   19CHTO  H124 7798   4.645   7.696   1.488 -0.4209 -2.8429 -2.5646
   19CHTO   C65 7799   4.702   7.897   1.400  0.4177 -0.3491  0.0161
   19CHTO  H122 7800   4.716   7.920   1.294  0.0725  0.1502  0.0789
   19CHTO   O44 7801   4.833   7.890   1.455  0.1330 -0.2815 -0.7121
   19CHTO  H102 7802   4.874   7.972   1.473  2.0118 -1.5017  0.7967
   19CHTO   C63 7803   4.605   8.010   1.455 -0.3251  0.1934 -0.2088
   19CHTO  H120 7804   4.558   8.053   1.366  1.0173 -0.5727 -1.3225
   19CHTO   N11 7805   4.672   8.136   1.501 -0.1458 -0.1749 -0.4601
   19CHTO  H108 7806   4.619   8.210   1.557 -0.8297  0.3287 -1.7332
   19CHTO  H109 7807   4.727   8.192   1.428 -0.1284  0.4102 -0.0039
   19CHTO   C61 7808   4.503   7.952   1.558 -0.0422 -0.3261 -0.5413
   19CHTO  H118 7809   4.439   8.034   1.594  0.8809 -0.3291  1.1663
   19CHTO   O40 7810   4.424   7.855   1.498  0.1667  0.1052 -0.0768
   19CHTO   C68 7811   4.477   7.772   1.390 -0.0411 -0.7023  0.1797
   19CHTO  H125 7812   4.457   7.806   1.286  1.7659  2.0584  0.6765
   19CHTO   C72 7813   4.404   7.637   1.408 -0.0525  0.1145 -0.2367
   19CHTO   O48 7814   4.262   7.636   1.424 -0.0050 -0.2708 -0.2224
   19CHTO  H105 7815   4.224   7.700   1.367  0.8451  1.0639  0.6675
   19CHTO   O38 7816   4.573   7.897   1.674  0.8455 -0.1289  0.2388
   19CHTO   C55 7817   4.493   7.811   1.769 -0.5562 -0.0139 -0.1962
   19CHTO  H112 7818   4.441   7.734   1.709  0.2515 -0.4815 -0.3095
   19CHTO   C56 7819   4.401   7.885   1.872 -0.0533 -0.9199  0.1341
   19CHTO  H113 7820   4.457   7.948   1.942 -2.4503  1.9232 -0.3907
   19CHTO   O42 7821   4.312   7.975   1.807  0.1160 -0.4671 -0.3605
   19CHTO  H100 7822   4.282   7.936   1.727  1.4873  1.8384 -2.0754
   19CHTO   C57 7823   4.324   7.782   1.962 -0.3852  0.3509 -0.0765
   19CHTO  H114 7824   4.260   7.710   1.910 -0.0076 -0.4648  0.5716
   19CHTO   N10 7825   4.242   7.842   2.072 -0.2700  0.5792 -0.7461
   19CHTO  H106 7826   4.298   7.835   2.164  1.6193  2.4578 -1.7048
   19CHTO  H107 7827   4.213   7.945   2.056  1.9560  1.3019 -0.2925
   19CHTO   C58 7828   4.438   7.695   2.030 -0.4253 -0.3161  0.1227
   19CHTO  H115 7829   4.488   7.753   2.111 -0.7410  0.0063  0.0825
   19CHTO   O37 7830   4.547   7.644   1.948  0.8242 -0.2193 -0.4300
   19CHTO   C59 7831   4.601   7.731   1.847  0.9584  0.3327 -0.7363
   19CHTO  H116 7832   4.674   7.794   1.898 -1.0421  1.5938  0.6492
   19CHTO   C70 7833   4.684   7.640   1.759 -0.1755  0.3857 -0.2203
   19CHTO   O46 7834   4.617   7.532   1.687 -0.3823  0.5370  0.5406
   19CHTO  H103 7835   4.554   7.561   1.624 -0.8680 -0.1429  0.7064
   19CHTO   O39 7836   4.374   7.571   2.108 -0.1827  0.1253 -0.1812
   19CHTO   C60 7837   4.351   7.462   2.019  0.5117 -0.0197  0.2561
   19CHTO  H117 7838   4.351   7.487   1.913 -0.8974  0.6438  0.4123
   19CHTO   C62 7839   4.461   7.354   2.023  0.4359 -0.9571  0.2493
   19CHTO  H119 7840   4.554   7.412   2.003  1.1419 -2.3000 -0.4279
   19CHTO   O43 7841   4.480   7.292   2.150 -0.0787  0.7539  0.4808
   19CHTO  H101 7842   4.434   7.209   2.147  2.2552 -0.5677  0.2350
   19CHTO   C66 7843   4.444   7.257   1.901 -0.9064  0.5765 -0.6354
   19CHTO  H123 7844   4.451   7.318   1.811 -1.6262  0.0345 -1.0602
   19CHTO   N12 7845   4.560   7.172   1.883 -0.0495  0.7507  0.1392
   19CHTO  H110 7846   4.647   7.199   1.942  1.0552 -1.7490 -0.2871
   19CHTO  H111 7847   4.535   7.067   1.894  0.9673  0.6844  2.1126
   19CHTO   C69 7848   4.311   7.179   1.918  0.3953 -0.0787 -0.4206
   19CHTO  H126 7849   4.328   7.103   1.997  2.6077  1.2604  0.4422
   19CHTO   O41 7850   4.178   7.283   1.962  0.0254  0.3374 -0.2158
   19CHTO   C64 7851   4.210   7.397   2.051  0.2330  0.1585 -0.2657
   19CHTO  H121 7852   4.215   7.359   2.155 -1.3748  0.8084  0.0562
   19CHTO   C71 7853   4.094   7.495   2.042 -0.2074  0.5040 -0.2428
   19CHTO   O47 7854   3.978   7.413   2.055 -0.1883 -0.2962 -0.0505
   19CHTO  H104 7855   3.926   7.456   2.121 -0.7779 -0.0515 -0.6689
   19CHTO   O34 7856   4.273   7.100   1.800 -0.8951  0.2536 -0.3562
   19CHTO   C49 7857   4.206   7.106   1.680  0.6825 -0.2457  0.2062
   19CHTO   H91 7858   4.103   7.106   1.713  0.8507 -1.4918  0.7754
   19CHTO   C47 7859   4.239   6.978   1.605 -0.5606 -0.3253 -0.5411
   19CHTO   H89 7860   4.165   6.974   1.522 -1.1559 -0.0320 -0.0266
   19CHTO   O33 7861   4.212   6.866   1.684  0.2003  0.0411 -0.1861
   19CHTO   H70 7862   4.143   6.812   1.648  0.5841 -0.5197 -0.0810
   19CHTO   C45 7863   4.391   6.979   1.544 -0.0065  0.4152 -0.8865
   19CHTO   H87 7864   4.468   6.989   1.621  0.2105 -0.7512 -0.9389
   19CHTO    N8 7865   4.425   6.854   1.462 -0.0685 -0.6044 -0.2252
   19CHTO   H75 7866   4.352   6.843   1.383 -0.2970  0.0550 -0.1127
   19CHTO   H76 7867   4.429   6.762   1.518  2.1955 -0.2050  0.3144
   19CHTO   C43 7868   4.416   7.111   1.463  0.0013 -0.2598 -0.4235
   19CHTO   H85 7869   4.525   7.110   1.455  0.0808 -1.3270  0.5629
   19CHTO   O29 7870   4.371   7.228   1.530 -0.1340 -0.6379  0.2855
   19CHTO   C50 7871   4.243   7.231   1.596  0.4187  0.3533 -0.1507
   19CHTO   H92 7872   4.244   7.315   1.667  0.7218  0.6499 -0.5023
   19CHTO   C54 7873   4.130   7.269   1.492 -0.0770  1.0677  0.4030
   19CHTO   O36 7874   4.127   7.407   1.467 -0.7297 -0.6765  0.5259
   19CHTO   H72 7875   4.042   7.446   1.469 -0.4614 -0.1253  2.4228
   19CHTO   O27 7876   4.358   7.100   1.331  0.2239  0.2184 -0.2052
   19CHTO   C37 7877   4.390   7.149   1.196  0.7549 -0.7262 -0.9800
   19CHTO   H79 7878   4.368   7.067   1.126  1.3680 -1.9472  0.2280
   19CHTO   C38 7879   4.318   7.275   1.156 -0.6170  0.4206  0.0585
   19CHTO   H80 7880   4.341   7.353   1.231  1.5809  1.0422 -1.1929
   19CHTO   O31 7881   4.179   7.234   1.165 -0.4881 -0.3537 -0.2590
   19CHTO   H68 7882   4.130   7.253   1.087 -0.1942  2.7898  0.2471
   19CHTO   C39 7883   4.357   7.336   1.020 -0.4498  0.0491  0.4436
   19CHTO   H81 7884   4.324   7.261   0.948 -0.4023  1.5699 -1.1667
   19CHTO    N7 7885   4.290   7.462   0.992  0.2026  0.5896 -0.3780
   19CHTO   H73 7886   4.233   7.497   1.076  2.2258 -0.2642  1.3715
   19CHTO   H74 7887   4.241   7.460   0.895  2.6518  1.8454 -1.6956
   19CHTO   C40 7888   4.515   7.356   1.021  0.4192 -0.1444 -0.1390
   19CHTO   H82 7889   4.551   7.430   1.092 -0.8573 -0.5512  0.9440
   19CHTO   O26 7890   4.575   7.228   1.046  0.7934 -0.1721  0.2660
   19CHTO   C41 7891   4.539   7.185   1.183  0.5920 -0.1093  0.3633
   19CHTO   H83 7892   4.576   7.257   1.257  0.2430  0.4150  0.0311
   19CHTO   C52 7893   4.630   7.058   1.208  0.8721 -0.4447  0.1501
   19CHTO   O35 7894   4.597   6.933   1.109  0.0036 -0.4104 -0.4469
   19CHTO   H71 7895   4.507   6.934   1.084  0.1182 -0.2933 -0.8498
   19CHTO   O28 7896   4.565   7.388   0.892 -0.6549  0.3304  0.3335
   19CHTO   C42 7897   4.664   7.486   0.881 -0.5747  0.8046  0.8202
   19CHTO   H84 7898   4.690   7.521   0.981 -0.0227  1.6177  0.4008
   19CHTO   C44 7899   4.629   7.618   0.805 -0.2939  0.5439  0.1430
   19CHTO   H86 7900   4.596   7.590   0.705 -0.2384 -1.4553  0.6673
   19CHTO   O32 7901   4.514   7.671   0.868  0.2042  0.6841  0.0361
   19CHTO   H69 7902   4.437   7.634   0.828  1.2577 -1.2627 -0.2468
   19CHTO   C48 7903   4.749   7.724   0.793 -0.2752 -0.0036 -0.8353
   19CHTO   H90 7904   4.763   7.763   0.893 -1.5749 -1.5724 -0.0138
   19CHTO    N9 7905   4.713   7.847   0.707  0.1570  0.0898  0.2975
   19CHTO   H77 7906   4.607   7.867   0.718  0.3510  1.0615  0.4294
   19CHTO   H78 7907   4.735   7.830   0.603 -0.5689 -1.8732  0.4409
   19CHTO   C51 7908   4.875   7.642   0.733 -0.4471  0.7583 -0.1232
   19CHTO   H93 7909   4.855   7.619   0.629  0.2575  0.9999 -0.3189
   19CHTO   O30 7910   4.896   7.526   0.813  0.1521  0.1345  0.4826
   19CHTO   C46 7911   4.792   7.428   0.815 -0.5881  0.8180 -0.4097
   19CHTO   H88 7912   4.766   7.390   0.716 -1.2823  2.9325 -1.0867
   19CHTO   C53 7913   4.837   7.313   0.907 -0.7366 -0.8984  0.3251
   19CHTO   O72 7914   4.960   7.246   0.859  0.1132  0.7390 -0.0843
   19CHTO  H199 7915   5.023   7.265   0.925  0.8119 -1.3168 -0.1336
   19CHTO   O22 7916   5.000   7.716   0.741 -0.4196 -0.1074 -0.0802
   19CHTO   C31 7917   5.119   7.669   0.667 -0.3899  0.4143  0.2820
   19CHTO   H59 7918   5.104   7.562   0.642  1.9222  0.5647 -1.9614
   19CHTO   C29 7919   5.153   7.745   0.531  0.5186 -0.5053 -0.1910
   19CHTO   H57 7920   5.170   7.850   0.557  2.5321 -0.5565 -1.1878
   19CHTO   O21 7921   5.039   7.747   0.440  0.2819 -0.3524 -0.2077
   19CHTO   H37 7922   4.973   7.809   0.466 -0.5684 -1.1479 -0.4316
   19CHTO   C27 7923   5.275   7.689   0.468 -0.7091  0.0367 -0.3484
   19CHTO   H55 7924   5.250   7.587   0.437 -1.5093  0.3808 -0.8454
   19CHTO    N5 7925   5.310   7.759   0.343 -0.5053 -0.0593 -0.2784
   19CHTO   H43 7926   5.252   7.711   0.266  0.9770  0.1978 -1.5909
   19CHTO   H44 7927   5.284   7.863   0.333  1.3489  0.4667  0.1408
   19CHTO   C25 7928   5.398   7.695   0.568  0.8279 -0.5968 -0.0154
   19CHTO   H53 7929   5.430   7.798   0.587  2.1022 -1.0568  0.4067
   19CHTO   O17 7930   5.367   7.614   0.686  0.0026 -0.1337  0.1082
   19CHTO   C32 7931   5.247   7.669   0.758  0.2673 -0.0509  0.1325
   19CHTO   H60 7932   5.268   7.768   0.799 -0.7363  0.1760  0.1235
   19CHTO   C36 7933   5.220   7.590   0.889  0.1293 -0.3102  0.1724
   19CHTO   O25 7934   5.326   7.602   0.988  0.4474  0.1712  0.4234
   19CHTO   H40 7935   5.399   7.549   0.960 -0.6370 -1.2811  0.3133
   19CHTO   O15 7936   5.522   7.630   0.505 -0.1104 -0.4128  0.1495
   19CHTO   C19 7937   5.590   7.524   0.431  0.3291  0.5829  0.2034
   19CHTO   H47 7938   5.545   7.514   0.331 -2.3546 -1.1408  1.5341
   19CHTO   C20 7939   5.740   7.563   0.407 -0.9810  0.0298  0.7206
   19CHTO   H48 7940   5.793   7.572   0.503 -0.5803  1.6793  0.3435
   19CHTO   O19 7941   5.741   7.694   0.340  0.3076  0.6402  0.0726
   19CHTO   H35 7942   5.684   7.751   0.387  0.5493  0.6452  0.3640
   19CHTO   C21 7943   5.813   7.448   0.321  0.4160  0.0464 -0.0908
   19CHTO   H49 7944   5.765   7.444   0.223 -0.1023 -2.9478  0.2394
   19CHTO    N4 7945   5.960   7.483   0.315  0.2846 -0.0070  0.4329
   19CHTO   H41 7946   6.015   7.398   0.277  2.0663  1.7075 -0.8959
   19CHTO   H42 7947   5.970   7.565   0.246 -1.2275 -1.8279 -2.0542
   19CHTO   C22 7948   5.782   7.306   0.383  0.5152 -0.3692 -0.3327
   19CHTO   H50 7949   5.831   7.291   0.479 -2.3020  2.3528  1.6078
   19CHTO   O14 7950   5.643   7.283   0.414  0.3544  0.2652  0.4631
   19CHTO   C23 7951   5.579   7.382   0.500 -0.1651 -0.1490  0.8261
   19CHTO   H51 7952   5.628   7.382   0.598 -1.0849 -0.5088  1.2844
   19CHTO   C34 7953   5.435   7.341   0.529 -0.4263 -0.1558  0.1197
   19CHTO   O23 7954   5.361   7.322   0.405 -0.0378  0.4277 -1.0158
   19CHTO   H38 7955   5.415   7.341   0.331  0.9858  0.8557 -0.1526
   19CHTO   O16 7956   5.807   7.206   0.284 -0.7340 -0.6492 -0.1948
   19CHTO   C24 7957   5.889   7.087   0.324 -0.3863  0.4672  0.0980
   19CHTO   H52 7958   5.920   7.092   0.428  2.5265  0.2551 -0.7150
   19CHTO   C26 7959   6.007   7.084   0.228  0.0685 -0.2609 -0.4255
   19CHTO   H54 7960   5.985   7.123   0.126 -1.1756  2.1960  0.7221
   19CHTO   O20 7961   6.098   7.184   0.281  0.4077  0.1617  0.1889
   19CHTO   H36 7962   6.062   7.270   0.264 -1.8902 -0.5674  1.1806
   19CHTO   C30 7963   6.070   6.946   0.223 -0.3608  0.0371  0.5793
   19CHTO   H58 7964   6.112   6.911   0.319 -0.8930 -0.5260  0.6083
   19CHTO    N6 7965   6.175   6.931   0.125  0.2264 -0.8288  0.3849
   19CHTO   H45 7966   6.155   6.965   0.024 -0.1890  0.0911  0.7690
   19CHTO   H46 7967   6.266   6.974   0.162 -0.1296 -2.5809  3.4212
   19CHTO   C33 7968   5.961   6.843   0.197 -0.0668  0.3049  0.8822
   19CHTO   H61 7969   5.900   6.871   0.110  0.5307  0.4817  0.5126
   19CHTO   O18 7970   5.875   6.846   0.310 -0.2105  0.1204  0.6297
   19CHTO   C28 7971   5.794   6.967   0.308 -0.6877 -0.5722 -0.0503
   19CHTO   H56 7972   5.743   6.975   0.212 -0.9642 -1.7612 -0.0120
   19CHTO   C35 7973   5.688   6.952   0.423 -0.2097 -0.2271  0.3555
   19CHTO   O24 7974   5.562   7.013   0.404  0.3838 -0.0125 -0.0157
   19CHTO   H39 7975   5.491   6.952   0.416 -1.4401  1.6411 -1.8888
   19CHTO    O9 7976   6.004   6.703   0.170  0.0452 -0.2930  0.3281
   19CHTO   C13 7977   5.907   6.612   0.093  0.1667  0.4822  0.1984
   19CHTO   H26 7978   5.887   6.647  -0.010 -0.5855 -0.8052 -0.1117
   19CHTO   C11 7979   5.772   6.585   0.172  0.0523  0.3784  0.1000
   19CHTO   H24 7980   5.723   6.682   0.187 -1.1589 -0.4373  1.4756
   19CHTO    O8 7981   5.799   6.549   0.310 -0.4125 -0.0067  0.0795
   19CHTO    H3 7982   5.874   6.591   0.345  0.7249 -0.3878 -1.8155
   19CHTO    C9 7983   5.681   6.494   0.084 -0.5791  0.3634 -0.6438
   19CHTO   H22 7984   5.674   6.536  -0.018  0.8585  0.1674 -0.8362
   19CHTO    N2 7985   5.543   6.485   0.129  0.0814  0.7661  0.8357
   19CHTO   H10 7986   5.536   6.511   0.234 -0.2751 -1.3276  1.3509
   19CHTO   H11 7987   5.497   6.388   0.118  0.5923  0.6559 -0.3576
   19CHTO    C7 7988   5.745   6.357   0.067  0.3238  0.4179 -0.1747
   19CHTO   H20 7989   5.681   6.308  -0.008 -2.0038  1.3221  1.1656
   19CHTO    O4 7990   5.875   6.369   0.015  0.1559 -0.7580 -0.1418
   19CHTO   C14 7991   5.965   6.473   0.056  0.3570  0.3099  0.2029
   19CHTO   H27 7992   6.023   6.477  -0.038 -2.5950 -0.0444 -1.7173
   19CHTO   C18 7993   6.054   6.418   0.170  0.3869 -0.5586  0.2260
   19CHTO   O13 7994   6.131   6.306   0.123  0.0582 -0.3199  0.0868
   19CHTO    H7 7995   6.090   6.223   0.138 -0.5079 -0.2015 -0.7673
   19CHTO    O2 7996   5.741   6.269   0.204  0.3245 -0.0792  0.0427
   19CHTO    C1 7997   5.745   6.123   0.187  0.0321  0.5246  0.0072
   19CHTO   H14 7998   5.832   6.102   0.121 -0.6047  0.3965 -0.8054
   19CHTO    C2 7999   5.619   6.057   0.125  0.0055  0.0754 -0.1086
   19CHTO   H15 8000   5.533   6.101   0.179  1.6624  1.4348  1.4843
   19CHTO    O6 8001   5.608   6.086  -0.013 -0.3826 -0.7809  0.2671
   19CHTO    H1 8002   5.583   6.175  -0.029 -1.7362 -1.2558 -0.2814
   19CHTO    C3 8003   5.615   5.898   0.141 -0.1089  0.3192 -0.0311
   19CHTO   H16 8004   5.672   5.860   0.055  2.0244  2.6139  0.2947
   19CHTO    N1 8005   5.474   5.848   0.120 -0.3527  0.1820  0.3442
   19CHTO    H8 8006   5.440   5.834   0.019 -0.4029  3.2513 -0.1267
   19CHTO    H9 8007   5.398   5.914   0.160 -2.8279 -1.1023 -2.0747
   19CHTO    C4 8008   5.685   5.837   0.269  0.7885 -0.1968  0.2618
   19CHTO   H17 8009   5.618   5.844   0.355  1.0242 -2.3842  0.6515
   19CHTO    O1 8010   5.804   5.915   0.299 -0.1356  0.0377  0.2800
   19CHTO    C5 8011   5.775   6.055   0.321  0.9581 -0.2044 -0.7631
   19CHTO   H18 8012   5.685   6.075   0.379  2.7005 -0.3478  2.0856
   19CHTO   C16 8013   5.897   6.118   0.397 -0.2560  0.1293  0.3638
   19CHTO   O11 8014   6.025   6.078   0.344  0.4824  0.3067 -0.4860
   19CHTO    H5 8015   6.044   6.126   0.265  0.7633  1.7306  0.4333
   19CHTO    O3 8016   5.730   5.698   0.255  0.9518  0.1682  0.3602
   19CHTO    C6 8017   5.753   5.630   0.386 -0.2028 -0.2747  0.0766
   19CHTO   H19 8018   5.771   5.703   0.464  0.8770  0.7945 -1.1335
   19CHTO    C8 8019   5.632   5.539   0.433 -0.4936 -0.1592 -0.7737
   19CHTO   H21 8020   5.607   5.467   0.356  1.5906 -1.1178 -0.5901
   19CHTO    O7 8021   5.518   5.626   0.444  0.3203 -0.0128 -0.2540
   19CHTO    H2 8022   5.442   5.571   0.431 -0.3761  1.1906 -1.4134
   19CHTO   C12 8023   5.663   5.468   0.570 -0.5214  0.5525  0.3306
   19CHTO   H25 8024   5.678   5.544   0.650 -1.0576  0.8968  0.1055
   19CHTO    N3 8025   5.539   5.397   0.621 -0.1306  0.4830 -0.0814
   19CHTO   H12 8026   5.565   5.307   0.675 -1.9285 -0.1943 -0.3334
   19CHTO   H13 8027   5.500   5.463   0.698  0.8563  1.4396 -0.3870
   19CHTO   C15 8028   5.799   5.382   0.557  0.2249  0.6890  1.4714
   19CHTO   H28 8029   5.802   5.298   0.488  0.5211 -0.4377  2.8399
   19CHTO   O10 8030   5.866   5.351   0.697 -0.3295  0.2534  0.3958
   19CHTO    H4 8031   5.951   5.313   0.685 -0.3491 -0.2315  1.7340
   19CHTO    O5 8032   5.901   5.470   0.508  0.2208 -0.6233  0.2676
   19CHTO   C10 8033   5.883   5.543   0.385  0.7815  0.1949 -0.3544
   19CHTO   H23 8034   5.864   5.464   0.313  0.4124 -1.2919  1.3252
   19CHTO   C17 8035   6.009   5.622   0.357  1.1957  0.0106 -0.8523
   19CHTO   O12 8036   6.049   5.707   0.467  0.4762  0.2366  0.2247
   19CHTO    H6 8037   5.983   5.750   0.519  0.3834  0.2042  0.1339
   20CHTO  H203 8038   5.273   1.144   2.071  1.5783 -1.4092 -0.8831
   20CHTO   O82 8039   5.342   1.207   2.082  0.4402 -0.2878 -0.0277
   20CHTO  C123 8040   5.340   1.300   1.973 -0.0214 -0.0233  0.1988
   20CHTO  H227 8041   5.251   1.363   1.983  0.5641  0.7841  0.4180
   20CHTO   O77 8042   5.452   1.383   2.020  0.2245  0.2909  0.3987
   20CHTO  C118 8043   5.475   1.486   1.923 -0.7800 -0.2776  1.1042
   20CHTO  H222 8044   5.383   1.544   1.901  0.3890  1.0062 -0.5582
   20CHTO  C125 8045   5.579   1.583   1.995  0.3683  0.5966 -0.1190
   20CHTO   O84 8046   5.712   1.534   2.007 -0.2208  0.2200 -0.0138
   20CHTO  H205 8047   5.701   1.454   2.055  3.1815 -1.6551 -2.1169
   20CHTO  C114 8048   5.530   1.426   1.793  0.5551 -0.3265 -0.5906
   20CHTO  H218 8049   5.622   1.371   1.815 -0.1230 -1.3330 -0.2169
   20CHTO  C116 8050   5.425   1.318   1.741 -0.1298  0.8570 -0.8295
   20CHTO  H220 8051   5.340   1.369   1.691 -1.1102  1.6792  1.6036
   20CHTO   O79 8052   5.493   1.238   1.645  0.6909 -0.6924 -0.2882
   20CHTO  H201 8053   5.473   1.267   1.558 -2.1970  0.0464  0.5875
   20CHTO  C120 8054   5.368   1.216   1.848 -0.1162  0.8258 -0.5924
   20CHTO  H224 8055   5.453   1.145   1.856  0.5833  1.5266 -1.8081
   20CHTO   N21 8056   5.245   1.147   1.791 -0.2241  0.3502 -0.7757
   20CHTO  H211 8057   5.191   1.107   1.876  0.6437  1.0094  0.0916
   20CHTO  H212 8058   5.190   1.225   1.739 -0.1332  2.2652  1.8728
   20CHTO   O75 8059   5.554   1.528   1.701  0.0169 -0.0073 -0.2864
   20CHTO  C112 8060   5.689   1.498   1.619 -0.3998  0.6707  0.2944
   20CHTO  H216 8061   5.720   1.393   1.620  0.2213  0.8242 -1.5292
   20CHTO   O73 8062   5.792   1.579   1.680 -0.2204 -0.9962  0.6238
   20CHTO  C113 8063   5.919   1.562   1.625 -0.1343  0.4757  0.0757
   20CHTO  H217 8064   5.942   1.453   1.623  0.9933  0.7291 -1.6853
   20CHTO  C124 8065   6.023   1.641   1.705  0.2267 -0.9268  0.0705
   20CHTO   O83 8066   6.143   1.562   1.710  0.3652 -0.3421  0.7393
   20CHTO  H204 8067   6.197   1.604   1.774  1.5966 -2.0097  0.8165
   20CHTO  C109 8068   5.916   1.618   1.480  0.1409  0.3501  0.4727
   20CHTO  H213 8069   5.897   1.725   1.490 -1.8544  0.1623 -0.9786
   20CHTO  C110 8070   5.814   1.535   1.386 -0.5819  0.5572 -0.1891
   20CHTO  H214 8071   5.847   1.431   1.383 -0.3103  0.6323  0.2080
   20CHTO   O78 8072   5.812   1.583   1.255  0.1582  0.0438  0.3975
   20CHTO  H200 8073   5.806   1.516   1.190  0.1930  0.7897 -0.3838
   20CHTO  C111 8074   5.681   1.546   1.464 -0.1509  0.2473 -0.0331
   20CHTO  H215 8075   5.643   1.649   1.474 -2.8139 -0.7003 -0.0133
   20CHTO   N19 8076   5.570   1.471   1.398 -0.0955 -0.3138 -0.0544
   20CHTO  H207 8077   5.477   1.479   1.451  0.8330 -1.0962  1.7391
   20CHTO  H208 8078   5.594   1.367   1.417 -0.3207 -0.1393  1.2354
   20CHTO   O74 8079   6.054   1.589   1.424 -0.0739 -0.2317  0.7137
   20CHTO  C115 8080   6.130   1.738   1.392 -1.0146 -0.0208 -0.0515
   20CHTO  H219 8081   6.114   1.813   1.469  2.0063  1.9068 -1.1944
   20CHTO   O76 8082   6.278   1.720   1.387  0.8074  0.4954 -0.1957
   20CHTO  C122 8083   6.311   1.644   1.266 -0.3520 -0.0021 -0.0432
   20CHTO  H226 8084   6.303   1.540   1.296  0.6312 -0.1240 -0.1851
   20CHTO  C126 8085   6.464   1.667   1.257  0.2281 -0.0434  0.7116
   20CHTO   O85 8086   6.528   1.569   1.176  0.0317  0.0332 -0.3759
   20CHTO  H206 8087   6.516   1.490   1.225  4.7123 -1.2021 -0.9456
   20CHTO  C121 8088   6.243   1.681   1.132  0.2430 -0.7430  0.5141
   20CHTO  H225 8089   6.323   1.690   1.055  0.3151  1.4200  0.8077
   20CHTO   O81 8090   6.157   1.571   1.089  0.1485 -0.0831  0.3285
   20CHTO  H202 8091   6.142   1.581   0.997  0.1788 -0.8647  0.2392
   20CHTO  C119 8092   6.166   1.815   1.142 -1.2931 -0.4270 -0.7086
   20CHTO  H223 8093   6.239   1.889   1.175 -3.1088  0.5108  1.2840
   20CHTO  C117 8094   6.063   1.806   1.256  0.2363 -0.1739 -0.0613
   20CHTO  H221 8095   5.983   1.734   1.244  1.5326 -1.8719  1.2417
   20CHTO   N20 8096   6.002   1.944   1.272  0.0777 -0.0692  0.5712
   20CHTO  H209 8097   6.007   1.975   1.375  0.8099 -1.2505  0.9091
   20CHTO  H210 8098   5.898   1.934   1.243  0.3603  2.0281 -1.2319
   20CHTO   O80 8099   6.110   1.880   0.990  0.3752 -0.2023 -0.0818
   20CHTO  C103 8100   6.199   1.897   0.875 -0.2236 -0.6366 -0.4346
   20CHTO  H190 8101   6.300   1.876   0.909 -1.0215 -1.6843  1.3342
   20CHTO  C101 8102   6.163   1.790   0.762  1.0170 -0.5986 -0.0526
   20CHTO  H188 8103   6.055   1.791   0.750  1.0629  0.8970 -0.4019
   20CHTO   O68 8104   6.211   1.656   0.815  0.2683 -0.1457  0.2596
   20CHTO  H168 8105   6.162   1.623   0.888 -1.1295 -0.8430 -0.9695
   20CHTO   C99 8106   6.230   1.831   0.622 -0.0967 -0.2968 -0.0206
   20CHTO  H186 8107   6.339   1.809   0.628 -0.2356 -0.7092  1.0129
   20CHTO   N17 8108   6.176   1.762   0.501 -0.4473 -0.0241 -0.1303
   20CHTO  H174 8109   6.185   1.654   0.495 -2.2698 -0.1095 -1.5003
   20CHTO  H175 8110   6.216   1.802   0.409 -0.9664 -2.3840 -1.4389
   20CHTO   C97 8111   6.212   1.983   0.601 -0.4119  1.1887 -0.2769
   20CHTO  H184 8112   6.105   2.009   0.600 -0.7667 -0.2180 -0.7636
   20CHTO   O64 8113   6.280   2.048   0.712 -0.6998  0.2198  0.0749
   20CHTO  C104 8114   6.196   2.055   0.830 -0.0388 -0.1850 -0.6815
   20CHTO  H191 8115   6.095   2.094   0.817  0.5273  1.5480  0.0319
   20CHTO  C108 8116   6.260   2.148   0.936 -0.5828 -0.2472  0.0235
   20CHTO   O71 8117   6.181   2.158   1.052  0.0997  0.2853 -0.7687
   20CHTO  H171 8118   6.092   2.180   1.034  0.3636  1.2903 -0.8720
   20CHTO   O62 8119   6.279   2.041   0.482 -0.1704  0.4705 -0.3380
   20CHTO   C91 8120   6.242   2.180   0.465  0.4321  0.1942  0.7372
   20CHTO  H178 8121   6.209   2.226   0.558  0.0969 -1.4421  1.4482
   20CHTO   C92 8122   6.133   2.187   0.353  0.1309 -0.3526 -0.3088
   20CHTO  H179 8123   6.172   2.137   0.263 -0.2730 -0.3214 -0.5064
   20CHTO   O66 8124   6.017   2.122   0.389  0.3546  0.4132  0.0184
   20CHTO  H166 8125   6.017   2.087   0.477 -0.5890  1.3112  0.3861
   20CHTO   C93 8126   6.098   2.336   0.314 -0.5348 -0.6947  0.1064
   20CHTO  H180 8127   6.049   2.394   0.394  1.6065  1.9617 -0.4572
   20CHTO   N16 8128   5.998   2.355   0.202  0.3796  0.0709 -0.3767
   20CHTO  H172 8129   5.895   2.338   0.229 -0.9108  1.5060 -4.0582
   20CHTO  H173 8130   6.026   2.292   0.119  2.1475  1.6166 -0.9955
   20CHTO   C94 8131   6.229   2.419   0.275 -0.3357 -0.0539  0.3785
   20CHTO  H181 8132   6.280   2.377   0.189  0.0449  3.7092 -1.3465
   20CHTO   O61 8133   6.325   2.412   0.383 -0.5765  0.6567  0.8092
   20CHTO   C95 8134   6.362   2.275   0.425  0.4511  0.1547  0.7745
   20CHTO  H182 8135   6.419   2.226   0.346 -0.8406 -0.5033  0.2394
   20CHTO  C106 8136   6.462   2.307   0.545  0.0405  0.3694  0.0702
   20CHTO   O69 8137   6.579   2.379   0.510  0.1815 -0.0161 -0.2978
   20CHTO  H169 8138   6.557   2.470   0.498  1.0754  0.4959  1.6699
   20CHTO   O63 8139   6.200   2.583   0.262 -0.5372 -0.4508  0.1458
   20CHTO   C96 8140   6.269   2.633   0.123 -0.2888  0.5107  0.7037
   20CHTO  H183 8141   6.269   2.547   0.056  0.4684 -0.6990  2.2146
   20CHTO   C98 8142   6.424   2.668   0.137  0.4370  0.3020  1.1904
   20CHTO  H185 8143   6.439   2.724   0.231  2.0228 -1.1953  1.8722
   20CHTO   O67 8144   6.498   2.546   0.158  0.2171  0.3909 -0.0169
   20CHTO  H167 8145   6.503   2.538   0.252 -0.4684 -0.5881 -0.0520
   20CHTO  C102 8146   6.486   2.737   0.005  0.5484 -0.1059 -0.3052
   20CHTO  H189 8147   6.499   2.658  -0.070  0.3838  1.4621 -2.0216
   20CHTO   N18 8148   6.620   2.801   0.025  0.4177 -1.2556 -0.4612
   20CHTO  H176 8149   6.666   2.738   0.101  0.0653  1.0250  1.6989
   20CHTO  H177 8150   6.614   2.900   0.066  0.9231 -0.7225 -1.6471
   20CHTO  C105 8151   6.387   2.844  -0.061 -0.1088  0.1294 -0.6326
   20CHTO  H192 8152   6.370   2.926   0.009 -1.3578 -0.0740 -0.6819
   20CHTO   O65 8153   6.248   2.807  -0.068  0.1622 -0.3425 -0.0241
   20CHTO  C100 8154   6.196   2.758   0.059  0.1146  0.1528 -0.1478
   20CHTO  H187 8155   6.210   2.842   0.127 -0.0514 -0.6856  0.9376
   20CHTO  C107 8156   6.057   2.732   0.030 -0.1556 -0.1456  0.2439
   20CHTO   O70 8157   5.962   2.798   0.109 -0.3450 -0.0036 -0.0764
   20CHTO  H170 8158   5.988   2.829   0.193  1.3996  0.5466 -0.7912
   20CHTO   O57 8159   6.444   2.891  -0.191 -0.3004 -0.2342  0.0061
   20CHTO   C85 8160   6.450   3.034  -0.215 -0.2159  0.5697  0.0343
   20CHTO  H157 8161   6.503   3.076  -0.127  0.2097  1.3036 -0.5625
   20CHTO   C83 8162   6.317   3.104  -0.222 -0.3135 -0.2154  0.4846
   20CHTO  H155 8163   6.281   3.097  -0.119 -4.6264 -0.7314 -0.9676
   20CHTO   O56 8164   6.235   3.020  -0.301  0.0330 -0.2816  0.2449
   20CHTO  H135 8165   6.179   2.961  -0.255 -1.8090 -0.4861 -2.1856
   20CHTO   C81 8166   6.328   3.252  -0.264  0.5786 -0.5730 -0.3944
   20CHTO  H153 8167   6.389   3.307  -0.194 -0.6440  1.1595 -0.6417
   20CHTO   N14 8168   6.201   3.318  -0.230  0.1325  0.5300  0.0995
   20CHTO  H141 8169   6.123   3.245  -0.240  0.1077  0.4366  0.9656
   20CHTO  H142 8170   6.180   3.405  -0.290  2.1279  0.7933 -0.2559
   20CHTO   C79 8171   6.387   3.262  -0.405 -0.3941 -0.3917  0.3341
   20CHTO  H151 8172   6.395   3.367  -0.434 -0.3687 -0.5924 -0.3997
   20CHTO   O52 8173   6.515   3.200  -0.390  0.3626 -0.6081  0.1591
   20CHTO   C86 8174   6.530   3.060  -0.343 -0.7208  0.3652 -0.0163
   20CHTO  H158 8175   6.492   3.003  -0.431 -1.1752 -0.0405  0.4389
   20CHTO   C90 8176   6.682   3.019  -0.333 -0.0502  0.8831  0.0388
   20CHTO   O60 8177   6.688   2.877  -0.340 -0.4541  0.0144  0.0195
   20CHTO  H138 8178   6.772   2.846  -0.367  0.5283  3.5904 -1.3030
   20CHTO   O50 8179   6.300   3.192  -0.499 -0.1708 -0.3082 -0.1349
   20CHTO   C73 8180   6.280   3.206  -0.643 -0.5217  0.5259  0.3576
   20CHTO  H145 8181   6.367   3.154  -0.687 -1.4019 -0.9468  0.3089
   20CHTO   C74 8182   6.277   3.355  -0.688 -0.8498 -0.1758  0.0137
   20CHTO  H146 8183   6.365   3.415  -0.661 -0.3101 -0.3493 -1.3038
   20CHTO   O54 8184   6.281   3.341  -0.829 -0.0478  0.0124 -0.4747
   20CHTO  H133 8185   6.356   3.387  -0.862 -0.6764  0.7891 -0.8248
   20CHTO   C75 8186   6.146   3.428  -0.650  0.5057  0.1577 -0.3632
   20CHTO  H147 8187   6.127   3.438  -0.542 -0.3170 -1.0757 -0.3840
   20CHTO   N13 8188   6.133   3.565  -0.700  0.5830 -0.3683 -0.4459
   20CHTO  H139 8189   6.226   3.593  -0.746  0.9366  0.6588  0.8592
   20CHTO  H140 8190   6.048   3.579  -0.765  1.2741 -0.9447 -1.4791
   20CHTO   C76 8191   6.011   3.350  -0.677 -0.4076  0.6835 -0.4754
   20CHTO  H148 8192   5.996   3.367  -0.783 -0.2625  0.6745 -0.4971
   20CHTO   O49 8193   6.032   3.209  -0.646  0.3719  0.1248 -0.2323
   20CHTO   C77 8194   6.147   3.138  -0.687  1.0918 -0.4454 -0.1391
   20CHTO  H149 8195   6.143   3.140  -0.796  1.8590  1.2563 -0.1414
   20CHTO   C88 8196   6.139   2.987  -0.652 -0.2016  0.3458 -0.3347
   20CHTO   O58 8197   6.244   2.918  -0.702  0.7301 -0.2241  0.3140
   20CHTO  H136 8198   6.259   2.855  -0.634 -1.8391 -1.9363 -0.6280
   20CHTO   O51 8199   5.877   3.405  -0.573 -0.0764  0.3393  0.5062
   20CHTO   C78 8200   5.870   3.379  -0.426 -0.6281 -0.3100  0.1442
   20CHTO  H150 8201   5.966   3.348  -0.378  0.3061 -0.0702 -1.5177
   20CHTO   C80 8202   5.771   3.270  -0.392  0.3232 -0.0787 -0.0932
   20CHTO  H152 8203   5.671   3.303  -0.425  0.8033  0.6073 -0.8779
   20CHTO   O55 8204   5.816   3.150  -0.453  0.0800  0.2179 -0.0668
   20CHTO  H134 8205   5.798   3.157  -0.545 -0.4652 -0.2856 -0.0006
   20CHTO   C84 8206   5.763   3.241  -0.238  0.7282 -0.4579  0.0853
   20CHTO  H156 8207   5.856   3.189  -0.216 -0.0438 -1.3470  1.3293
   20CHTO   N15 8208   5.659   3.136  -0.190  0.2762 -0.3311  0.2168
   20CHTO  H143 8209   5.697   3.037  -0.199  3.6971  0.7211  2.1056
   20CHTO  H144 8210   5.566   3.148  -0.241  0.3157 -0.0590  0.2096
   20CHTO   C87 8211   5.739   3.374  -0.157  0.4414 -0.4252  0.2552
   20CHTO  H159 8212   5.631   3.385  -0.167  0.4049  1.2729  2.2914
   20CHTO   O53 8213   5.807   3.484  -0.215 -0.0124 -0.2946 -0.4879
   20CHTO   C82 8214   5.822   3.501  -0.359 -0.4130 -0.1934  0.1060
   20CHTO  H154 8215   5.726   3.515  -0.410 -0.2645  0.2429 -0.0579
   20CHTO   C89 8216   5.914   3.623  -0.388  0.2827 -0.6951 -0.5533
   20CHTO   O59 8217   6.053   3.596  -0.362 -0.4520 -0.1580  0.5770
   20CHTO  H137 8218   6.108   3.669  -0.383  0.0951 -0.2073  1.7768
   20CHTO   O45 8219   5.779   3.372  -0.002  0.2629 -0.4646 -0.2694
   20CHTO   C67 8220   5.908   3.335   0.038  0.0645  0.0362  0.6467
   20CHTO  H124 8221   5.975   3.342  -0.048  0.8162 -0.7585  1.1537
   20CHTO   C65 8222   5.961   3.439   0.147 -0.5107  0.4082  0.1593
   20CHTO  H122 8223   5.928   3.536   0.112  0.8376  0.5085 -0.8460
   20CHTO   O44 8224   6.103   3.435   0.164 -0.3728 -0.4156  0.0718
   20CHTO  H102 8225   6.137   3.520   0.147 -2.5761  0.7457  1.3517
   20CHTO   C63 8226   5.883   3.423   0.276  0.3704 -0.4631 -0.0341
   20CHTO  H120 8227   5.778   3.443   0.254  0.1102  0.4548  1.9460
   20CHTO   N11 8228   5.914   3.528   0.379 -0.3959 -0.2858 -0.8203
   20CHTO  H108 8229   5.861   3.619   0.361  2.7730  1.8524  0.1257
   20CHTO  H109 8230   5.893   3.483   0.474 -1.5324  0.3246 -0.7745
   20CHTO   C61 8231   5.906   3.272   0.329 -0.4010  0.7383 -0.0672
   20CHTO  H118 8232   5.826   3.257   0.404  0.8503 -1.7288  0.8411
   20CHTO   O40 8233   5.876   3.176   0.226 -0.6758 -0.6036 -0.0600
   20CHTO   C68 8234   5.907   3.189   0.084  0.0381 -0.9189 -0.3713
   20CHTO  H125 8235   5.821   3.145   0.030 -0.2569 -1.9720  0.9160
   20CHTO   C72 8236   6.028   3.114   0.043  0.0252  0.4552 -0.1063
   20CHTO   O48 8237   6.150   3.136   0.111  0.2878  0.3836  0.5098
   20CHTO  H105 8238   6.142   3.082   0.187  1.4817 -1.3317 -0.5499
   20CHTO   O38 8239   6.034   3.252   0.391 -0.0263 -0.0118  0.1399
   20CHTO   C55 8240   6.028   3.181   0.516 -0.5575  0.0397  0.3269
   20CHTO  H112 8241   5.947   3.106   0.506 -1.7998  1.3788  0.1662
   20CHTO   C56 8242   6.005   3.272   0.644 -0.2901  0.5914  0.1590
   20CHTO  H113 8243   6.086   3.347   0.640  0.9297 -0.6264  1.3171
   20CHTO   O42 8244   5.877   3.344   0.644 -0.4732 -0.5450  0.0404
   20CHTO  H100 8245   5.882   3.410   0.578 -0.0614 -0.9710 -0.3585
   20CHTO   C57 8246   6.028   3.194   0.782  0.1032  0.0700 -0.0295
   20CHTO  H114 8247   5.939   3.135   0.804  0.7440 -1.5114 -1.6444
   20CHTO   N10 8248   6.051   3.288   0.896  0.0451 -0.6593  0.5195
   20CHTO  H106 8249   5.991   3.377   0.887  1.4421  0.1986 -0.4035
   20CHTO  H107 8250   6.043   3.249   0.997 -2.3183  0.1063  0.6576
   20CHTO   C58 8251   6.150   3.094   0.769  0.7700  0.2774 -0.3001
   20CHTO  H115 8252   6.243   3.153   0.766  1.7252 -1.1683  0.2758
   20CHTO   O37 8253   6.134   3.010   0.653  0.8407 -0.0077  0.2766
   20CHTO   C59 8254   6.153   3.086   0.532 -0.2488  0.7296  0.1070
   20CHTO  H116 8255   6.247   3.140   0.538  0.1395 -0.2214  3.2531
   20CHTO   C70 8256   6.157   2.989   0.409  0.0457  0.2437  0.2410
   20CHTO   O46 8257   6.255   2.887   0.417 -0.6483 -0.0213 -0.1942
   20CHTO  H103 8258   6.232   2.817   0.475 -1.4287  0.7029  0.3902
   20CHTO   O39 8259   6.170   2.997   0.900  0.5452 -0.8274  0.3751
   20CHTO   C60 8260   6.094   2.874   0.902 -0.4222 -0.1345 -0.7024
   20CHTO  H117 8261   6.013   2.878   0.830  0.3812 -0.9979 -1.6658
   20CHTO   C62 8262   6.185   2.754   0.865 -0.0934  0.4667 -0.7142
   20CHTO  H119 8263   6.197   2.766   0.755  0.4846  0.8060 -0.6139
   20CHTO   O43 8264   6.306   2.751   0.935 -0.0303  0.1061 -0.5432
   20CHTO  H101 8265   6.376   2.776   0.878  1.7659 -0.8909  1.1507
   20CHTO   C66 8266   6.085   2.622   0.879  0.1317 -0.4659 -0.0286
   20CHTO  H123 8267   5.996   2.643   0.819  0.5328  0.5818 -0.2715
   20CHTO   N12 8268   6.153   2.502   0.817 -0.0711 -0.7002 -0.0927
   20CHTO  H110 8269   6.119   2.486   0.716 -0.3209  1.8044 -0.4334
   20CHTO  H111 8270   6.118   2.415   0.871  0.7746 -1.3441 -0.5620
   20CHTO   C69 8271   6.046   2.609   1.031 -0.3657 -0.0644 -0.3688
   20CHTO  H126 8272   6.143   2.614   1.085 -0.1305 -0.7326 -0.7271
   20CHTO   O41 8273   5.963   2.734   1.066 -0.1989  0.3487  0.0493
   20CHTO   C64 8274   6.031   2.862   1.043  0.4443  0.1849  0.7592
   20CHTO  H121 8275   6.113   2.867   1.117  1.5996  0.0435 -0.4895
   20CHTO   C71 8276   5.932   2.966   1.078 -0.3536 -0.7565  0.0177
   20CHTO   O47 8277   5.824   2.973   0.989  0.4478  0.0681  0.5214
   20CHTO  H104 8278   5.746   2.994   1.037  0.3024 -0.2403  0.4229
   20CHTO   O34 8279   5.961   2.479   1.047 -0.2227  0.3790 -0.4336
   20CHTO   C49 8280   5.807   2.469   1.044 -1.0324 -0.4524 -0.2898
   20CHTO   H91 8281   5.774   2.528   1.129 -0.3651  0.1692 -0.4586
   20CHTO   C47 8282   5.779   2.315   1.059  0.7965 -0.6273  0.4871
   20CHTO   H89 8283   5.669   2.301   1.051  1.0487 -1.5715 -1.6260
   20CHTO   O33 8284   5.821   2.276   1.190 -0.2057  0.1970 -0.5494
   20CHTO   H70 8285   5.775   2.324   1.256  0.1008 -0.3173  0.0481
   20CHTO   C45 8286   5.845   2.239   0.938 -0.2274 -0.1619 -0.1659
   20CHTO   H87 8287   5.950   2.266   0.922  0.0433 -1.4466 -0.6095
   20CHTO    N8 8288   5.843   2.090   0.949 -0.3337  0.8471  0.7127
   20CHTO   H75 8289   5.898   2.065   1.039 -1.4908  0.0623  1.2271
   20CHTO   H76 8290   5.742   2.051   0.953 -0.8335  1.9145 -0.9541
   20CHTO   C43 8291   5.782   2.291   0.794 -0.1954  0.9265  0.5496
   20CHTO   H85 8292   5.848   2.252   0.717  1.7247  1.6664  1.7877
   20CHTO   O29 8293   5.776   2.438   0.793  0.0566 -0.6299  0.1949
   20CHTO   C50 8294   5.747   2.516   0.910  0.4025  0.3916  0.1826
   20CHTO   H92 8295   5.779   2.619   0.891  0.0247  0.5190  0.2352
   20CHTO   C54 8296   5.593   2.546   0.925  0.0673  0.8554  0.4679
   20CHTO   O36 8297   5.549   2.620   0.814 -0.0016  0.6871 -0.2051
   20CHTO   H72 8298   5.604   2.695   0.803  0.8895  0.2680  1.2591
   20CHTO   O27 8299   5.640   2.247   0.783 -0.4538  0.4925  0.1925
   20CHTO   C37 8300   5.570   2.215   0.662  0.0167  0.4908  0.2289
   20CHTO   H79 8301   5.461   2.230   0.674 -0.0787  0.9767 -1.1984
   20CHTO   C38 8302   5.618   2.306   0.541  0.0761 -0.3434 -0.6744
   20CHTO   H80 8303   5.728   2.314   0.536  0.2768 -0.8743  2.0763
   20CHTO   O31 8304   5.560   2.439   0.568  0.1032 -0.2130 -0.0988
   20CHTO   H68 8305   5.627   2.501   0.546  0.4411  0.4475  2.5725
   20CHTO   C39 8306   5.568   2.245   0.401  0.2927  0.7046 -0.4235
   20CHTO   H81 8307   5.459   2.248   0.405  0.1308  0.0854 -3.0150
   20CHTO    N7 8308   5.614   2.323   0.281 -0.4440  0.2089 -0.2925
   20CHTO   H73 8309   5.578   2.424   0.290 -0.1826  0.4275 -1.6234
   20CHTO   H74 8310   5.721   2.334   0.277 -0.2156 -1.8382 -0.3945
   20CHTO   C40 8311   5.611   2.094   0.389  0.1139 -0.5490  0.6290
   20CHTO   H82 8312   5.719   2.083   0.394  0.2827 -0.0163 -1.4304
   20CHTO   O26 8313   5.543   2.030   0.498  0.3370 -0.1195 -0.2468
   20CHTO   C41 8314   5.597   2.063   0.630  0.1726 -0.6435  0.1990
   20CHTO   H83 8315   5.706   2.046   0.633  0.6818  2.1933 -0.9019
   20CHTO   C52 8316   5.540   1.971   0.737  0.0965 -0.3429  0.2822
   20CHTO   O35 8317   5.572   1.835   0.741 -0.4060 -0.0828 -0.2540
   20CHTO   H71 8318   5.565   1.795   0.657 -1.3235 -1.8063  0.6003
   20CHTO   O28 8319   5.573   2.029   0.265 -0.4001  0.1715  0.3396
   20CHTO   C42 8320   5.665   1.918   0.212 -0.4001  0.1250 -0.7800
   20CHTO   H84 8321   5.608   1.862   0.138  1.7706 -1.8755 -0.9970
   20CHTO   C44 8322   5.708   1.811   0.318 -0.4099 -0.4887 -0.6097
   20CHTO   H86 8323   5.770   1.862   0.391  1.0016  0.0549 -2.1443
   20CHTO   O32 8324   5.589   1.758   0.376 -0.7306  0.1097 -0.3020
   20CHTO   H69 8325   5.600   1.747   0.468 -2.0801 -3.2900 -0.4569
   20CHTO   C48 8326   5.802   1.698   0.257 -0.6762 -0.5584 -0.0579
   20CHTO   H90 8327   5.744   1.643   0.183 -2.0287  1.8464 -0.8461
   20CHTO    N9 8328   5.849   1.592   0.356  0.3252 -0.3156 -0.4370
   20CHTO   H77 8329   5.789   1.503   0.341  1.0045 -0.8474 -0.0262
   20CHTO   H78 8330   5.859   1.622   0.459 -0.8533 -2.4923  0.3504
   20CHTO   C51 8331   5.922   1.758   0.180  0.6651  0.1882  0.1162
   20CHTO   H93 8332   5.991   1.806   0.250  0.9451  0.4724 -0.3494
   20CHTO   O30 8333   5.872   1.854   0.087 -0.7468 -0.6344  0.2841
   20CHTO   C46 8334   5.794   1.966   0.142 -0.4715 -0.1822  0.0148
   20CHTO   H88 8335   5.857   2.011   0.219 -1.6207 -0.0571  0.8999
   20CHTO   C53 8336   5.761   2.075   0.031 -0.5262 -0.6804  0.4664
   20CHTO   O72 8337   5.885   2.140  -0.013  0.2774  0.3946  0.3638
   20CHTO  H199 8338   5.905   2.219   0.034  1.4036  1.6941 -2.1833
   20CHTO   O22 8339   5.983   1.667   0.087  0.2218  0.4676  0.1504
   20CHTO   C31 8340   6.132   1.668   0.068 -0.4014  0.7021 -0.7709
   20CHTO   H59 8341   6.147   1.633  -0.036 -0.6601 -1.9863  0.0433
   20CHTO   C29 8342   6.201   1.802   0.082  0.2817 -0.8361  0.5001
   20CHTO   H57 8343   6.182   1.849   0.180  3.3037  2.5381 -0.4268
   20CHTO   O21 8344   6.142   1.895  -0.012  0.9379  0.1683  0.5438
   20CHTO   H37 8345   6.138   1.987   0.005 -3.0663  0.5386 -1.8146
   20CHTO   C27 8346   6.359   1.783   0.059 -0.4137  0.6421 -0.2884
   20CHTO   H55 8347   6.379   1.746  -0.043 -1.4766 -2.3844  0.5388
   20CHTO    N5 8348   6.424   1.909   0.081  0.7278  0.9430 -0.0361
   20CHTO   H43 8349   6.501   1.910   0.156  0.4455 -4.5690  0.5157
   20CHTO   H44 8350   6.349   1.981   0.111 -1.7904 -1.7854  0.4530
   20CHTO   C25 8351   6.412   1.673   0.156  0.1452  0.1294  0.4763
   20CHTO   H53 8352   6.381   1.702   0.258 -1.0859 -1.7068  0.6483
   20CHTO   O17 8353   6.348   1.550   0.135 -0.0412  0.8364  0.6947
   20CHTO   C32 8354   6.205   1.561   0.161  0.0252  0.4594  0.1507
   20CHTO   H60 8355   6.174   1.578   0.264 -1.9189  1.0916 -0.5147
   20CHTO   C36 8356   6.143   1.417   0.147 -0.2952  0.5783  0.4697
   20CHTO   O25 8357   6.140   1.372   0.014  0.0893  0.0540  0.5353
   20CHTO   H40 8358   6.181   1.288   0.023  0.2524  0.1418  0.5942
   20CHTO   O15 8359   6.581   1.643   0.141  0.4528 -0.7256  0.2911
   20CHTO   C19 8360   6.684   1.586   0.057 -0.3898 -0.7785 -0.2915
   20CHTO   H47 8361   6.621   1.538  -0.019 -1.6864 -0.8948  0.8343
   20CHTO   C20 8362   6.782   1.693  -0.004 -0.3495 -0.4238 -0.0124
   20CHTO   H48 8363   6.828   1.756   0.073 -0.0692 -0.6814  0.0348
   20CHTO   O19 8364   6.706   1.788  -0.074  0.0667 -0.5338  0.5904
   20CHTO   H35 8365   6.757   1.851  -0.121 -1.1919  0.2858  0.3063
   20CHTO   C21 8366   6.899   1.637  -0.087 -0.2367 -0.5802  0.6810
   20CHTO   H49 8367   6.857   1.599  -0.180 -1.7938 -0.9722  1.5158
   20CHTO    N4 8368   7.000   1.739  -0.133  0.3667 -0.1151 -0.1722
   20CHTO   H41 8369   7.063   1.703  -0.213  2.3938  0.5986  1.0601
   20CHTO   H42 8370   6.944   1.823  -0.173 -1.5579 -0.6956  1.2634
   20CHTO   C22 8371   6.973   1.516  -0.020 -0.6005  0.5896  0.4377
   20CHTO   H50 8372   7.040   1.551   0.058  0.3711  1.6310 -0.8310
   20CHTO   O14 8373   6.874   1.422   0.033 -0.3368 -0.1743 -0.1035
   20CHTO   C23 8374   6.781   1.479   0.125  0.5670  0.0243 -0.3298
   20CHTO   H51 8375   6.835   1.523   0.210 -0.1613  0.7048 -0.2050
   20CHTO   C34 8376   6.705   1.360   0.179 -0.4834 -0.0032  0.4710
   20CHTO   O23 8377   6.637   1.394   0.301 -0.4307 -0.3542 -0.1523
   20CHTO   H38 8378   6.583   1.471   0.292  1.2582  0.9508  0.5635
   20CHTO   O16 8379   7.053   1.439  -0.114  0.2138 -0.1503 -0.1307
   20CHTO   C24 8380   7.158   1.330  -0.040 -0.7364 -0.3122  0.4819
   20CHTO   H52 8381   7.133   1.306   0.063 -2.0121 -2.9978 -0.4171
   20CHTO   C26 8382   7.297   1.396  -0.049 -0.0688 -0.0833  0.2477
   20CHTO   H54 8383   7.312   1.421  -0.156 -1.3124  0.7424  0.2568
   20CHTO   O20 8384   7.290   1.523   0.025  0.0467  0.3086 -0.3987
   20CHTO   H36 8385   7.371   1.548   0.066 -0.3096  0.8868 -0.0472
   20CHTO   C30 8386   7.405   1.296  -0.000  0.0441 -0.4748  0.4374
   20CHTO   H58 8387   7.406   1.294   0.110  0.3947 -1.2208  0.4248
   20CHTO    N6 8388   7.537   1.348  -0.035 -0.1360  0.5330 -0.0525
   20CHTO   H45 8389   7.619   1.279  -0.045  0.5514  1.3559 -0.2132
   20CHTO   H46 8390   7.557   1.430   0.032 -1.7406  1.2325 -0.4101
   20CHTO   C33 8391   7.377   1.149  -0.035 -0.3929  0.1741  0.3587
   20CHTO   H61 8392   7.409   1.128  -0.139  1.3200  0.6728  0.7636
   20CHTO   O18 8393   7.239   1.117  -0.026 -0.0092  0.0331 -0.1582
   20CHTO   C28 8394   7.163   1.202  -0.116  0.1892 -0.1828  0.4807
   20CHTO   H56 8395   7.209   1.223  -0.212 -2.5443 -1.9359 -1.2648
   20CHTO   C35 8396   7.022   1.130  -0.126 -0.4036 -0.6834 -0.3092
   20CHTO   O24 8397   6.934   1.197  -0.211  0.1239  0.3522 -0.1256
   20CHTO   H39 8398   6.849   1.173  -0.179  0.3353 -0.6395 -0.2852
   20CHTO    O9 8399   7.459   1.063   0.044 -0.1727 -0.4233  0.2469
   20CHTO   C13 8400   7.417   0.893   0.064 -0.8770  0.3662 -0.6265
   20CHTO   H26 8401   7.506   0.868   0.126 -2.0202 -1.2601  0.3771
   20CHTO   C11 8402   7.420   0.820  -0.074  0.0105  0.0877 -1.1806
   20CHTO   H24 8403   7.525   0.814  -0.105 -0.1401  0.1111 -1.7118
   20CHTO    O8 8404   7.347   0.900  -0.167  0.2485 -0.5633 -0.3619
   20CHTO    H3 8405   7.315   0.857  -0.244 -1.8646  1.0963 -0.4908
   20CHTO    C9 8406   7.371   0.677  -0.053  0.5955 -0.3489  0.1962
   20CHTO   H22 8407   7.436   0.631   0.022  0.5656  2.5754  2.0917
   20CHTO    N2 8408   7.397   0.586  -0.167 -0.0979 -0.3452  0.1987
   20CHTO   H10 8409   7.455   0.627  -0.249 -0.3700  1.5824  0.9412
   20CHTO   H11 8410   7.301   0.549  -0.199 -1.1501  1.9159  0.6597
   20CHTO    C7 8411   7.220   0.680   0.002  0.2047  0.3859 -0.2803
   20CHTO   H20 8412   7.221   0.601   0.080 -2.0168  0.3122 -0.2681
   20CHTO    O4 8413   7.181   0.802   0.069  0.4391  0.1968  0.1382
   20CHTO   C14 8414   7.284   0.859   0.153  0.1146 -0.2357 -0.5227
   20CHTO   H27 8415   7.304   0.781   0.229 -0.6318 -2.7173 -2.7831
   20CHTO   C18 8416   7.238   0.985   0.239 -0.6759 -0.4502 -0.3635
   20CHTO   O13 8417   7.348   1.044   0.322 -0.0372 -0.4061  0.4978
   20CHTO    H7 8418   7.340   1.020   0.412 -0.0922 -2.1696  0.0327
   20CHTO    O2 8419   7.124   0.650  -0.114  0.8824 -0.6587  0.0106
   20CHTO    C1 8420   7.015   0.569  -0.070  0.1956 -0.5169 -0.7559
   20CHTO   H14 8421   6.988   0.599   0.033 -0.2544 -0.5009 -0.8739
   20CHTO    C2 8422   7.045   0.420  -0.074 -0.2156  0.8538  0.2821
   20CHTO   H15 8423   7.063   0.399  -0.180 -0.8840  0.4266  0.2522
   20CHTO    O6 8424   7.162   0.386   0.005  0.2330  0.1062  0.4787
   20CHTO    H1 8425   7.155   0.424   0.090  0.7844  0.1646  0.4967
   20CHTO    C3 8426   6.929   0.330  -0.022  0.0004 -0.0512  0.5031
   20CHTO   H16 8427   6.917   0.345   0.086 -0.7869 -3.0843  0.8804
   20CHTO    N1 8428   6.934   0.179  -0.031  0.4436 -0.3917 -0.5914
   20CHTO    H8 8429   6.917   0.152  -0.134  2.2205 -0.4715 -0.8766
   20CHTO    H9 8430   7.032   0.144  -0.005 -0.6165 -1.2301  2.5500
   20CHTO    C4 8431   6.787   0.379  -0.084 -0.5928  0.5433  0.4041
   20CHTO   H17 8432   6.777   0.342  -0.186 -1.8758  1.9338  0.0120
   20CHTO    O1 8433   6.781   0.522  -0.077 -0.7123  0.2110  0.1489
   20CHTO    C5 8434   6.874   0.602  -0.152 -0.3525  0.0359  0.2612
   20CHTO   H18 8435   6.893   0.579  -0.257  2.0794  2.7170  0.0441
   20CHTO   C16 8436   6.842   0.749  -0.148  0.1880 -0.3964 -0.1107
   20CHTO   O11 8437   6.720   0.770  -0.220  0.3748  0.1571 -0.1519
   20CHTO    H5 8438   6.644   0.788  -0.168  1.6762  2.3758  1.0665
   20CHTO    O3 8439   6.678   0.333   0.001  0.2657  0.3084  0.0107
   20CHTO    C6 8440   6.557   0.330  -0.077  0.2971  0.0002 -0.0323
   20CHTO   H19 8441   6.560   0.390  -0.169  0.0913 -0.7934 -0.5653
   20CHTO    C8 8442   6.514   0.192  -0.131  0.2110  0.4449 -0.6599
   20CHTO   H21 8443   6.511   0.123  -0.047  1.4796 -0.2491 -1.1661
   20CHTO    O7 8444   6.619   0.148  -0.220 -0.4370 -0.1827  0.1896
   20CHTO    H2 8445   6.640   0.057  -0.218 -1.8617 -0.5100  0.2693
   20CHTO   C12 8446   6.372   0.200  -0.202 -0.0865  0.0453 -0.9661
   20CHTO   H25 8447   6.391   0.269  -0.287 -0.1281  0.6176 -0.5102
   20CHTO    N3 8448   6.328   0.061  -0.250 -0.4129  0.3834  0.0698
   20CHTO   H12 8449   6.307   0.046  -0.354  0.5406  0.6986 -0.1744
   20CHTO   H13 8450   6.248   0.017  -0.192 -1.0298  0.9677 -0.3310
   20CHTO   C15 8451   6.269   0.279  -0.103 -0.0467  0.1381  0.1543
   20CHTO   H28 8452   6.258   0.208  -0.021 -1.0133 -0.0409 -0.1249
   20CHTO   O10 8453   6.153   0.320  -0.160 -0.1867 -0.4889  0.3835
   20CHTO    H4 8454   6.158   0.303  -0.252 -0.6415 -1.5668  0.5503
   20CHTO    O5 8455   6.322   0.406  -0.067  0.1949 -0.1079  0.0102
   20CHTO   C10 8456   6.441   0.393   0.012  0.2501  0.2563 -0.1526
   20CHTO   H23 8457   6.408   0.335   0.098  0.8255  0.9624  0.5551
   20CHTO   C17 8458   6.466   0.538   0.057  0.3461 -0.3331  0.1016
   20CHTO   O12 8459   6.369   0.575   0.157 -0.3066  0.3607  0.1114
   20CHTO    H6 8460   6.400   0.566   0.245 -1.0406  2.0569  0.5451
   21GLOH   H03 8461   4.742   4.958   2.125 -1.1591 -3.0169 -0.3718
   21GLOH    O1 8462   4.686   4.993   2.196  0.1208 -0.2798 -0.6200
   21GLOH    C1 8463   4.563   5.039   2.135 -0.2258  0.6788 -0.1274
   21GLOH   H02 8464   4.484   4.963   2.142  2.6775 -2.3490  1.3756
   21GLOH   H08 8465   4.577   5.070   2.032  2.7369 -1.4846 -0.4382
   21GLOH    C2 8466   4.506   5.159   2.213  0.8704 -0.3229  0.0682
   21GLOH   H04 8467   4.588   5.232   2.211  0.9359 -0.3788  0.5363
   21GLOH    O2 8468   4.396   5.220   2.145 -0.1724 -0.5459  0.1645
   21GLOH   H05 8469   4.411   5.236   2.050  1.1642  0.3980  0.5184
   21GLOH    C3 8470   4.476   5.123   2.364  0.1292  0.5508  0.2923
   21GLOH   H06 8471   4.415   5.033   2.361  1.2621 -0.2862  1.6357
   21GLOH   H07 8472   4.413   5.204   2.401 -2.6783 -0.3672 -2.3170
   21GLOH    O3 8473   4.598   5.101   2.433 -0.0315  0.6253  0.3756
   21GLOH   H01 8474   4.664   5.088   2.363  1.7789 -2.0453  2.4479
   22GLOH   H03 8475   3.053  10.257   0.033 -0.7633 -0.0491 -0.2421
   22GLOH    O1 8476   3.078  10.291  -0.055  0.7257  0.3032  0.2964
   22GLOH    C1 8477   3.218  10.255  -0.079 -0.0284 -0.3367 -0.1293
   22GLOH   H02 8478   3.256  10.281  -0.178  1.0273 -2.9605 -0.4607
   22GLOH   H08 8479   3.239  10.148  -0.068  1.7081  0.2738  2.8655
   22GLOH    C2 8480   3.310  10.320   0.028 -0.0562 -0.3826 -0.2348
   22GLOH   H04 8481   3.268  10.286   0.124 -1.5654 -0.6132 -0.9614
   22GLOH    O2 8482   3.448  10.280   0.002  0.1875 -0.5122  0.2261
   22GLOH   H05 8483   3.466  10.288  -0.093  0.4683 -0.9894  0.2367
   22GLOH    C3 8484   3.306  10.478   0.025 -1.3950  0.0765 -0.7064
   22GLOH   H06 8485   3.201  10.508   0.018 -1.2948  0.4019 -0.7844
   22GLOH   H07 8486   3.353  10.508  -0.068 -1.9517 -0.0607 -1.0398
   22GLOH    O3 8487   3.357  10.551   0.136 -0.5311 -0.3670 -0.0366
   22GLOH   H01 8488   3.312  10.514   0.214  2.6216 -0.7521  1.7266
   23GLOH   H03 8489   3.384   5.084   0.141 -0.9885  0.5943 -1.1178
   23GLOH    O1 8490   3.314   5.016   0.139 -0.3392 -0.1472  0.5407
   23GLOH    C1 8491   3.204   5.046   0.049 -0.1848  0.2359 -0.1286
   23GLOH   H02 8492   3.223   5.140  -0.003  1.6869  0.0292  0.1311
   23GLOH   H08 8493   3.115   5.067   0.108  1.4309  4.6123  0.9807
   23GLOH    C2 8494   3.165   4.947  -0.058 -0.3152  0.5119 -0.2846
   23GLOH   H04 8495   3.262   4.926  -0.106  0.1956 -0.8798  1.3059
   23GLOH    O2 8496   3.113   4.828  -0.001  0.6274 -0.1088  0.2873
   23GLOH   H05 8497   3.028   4.844   0.043  0.8301  1.6345  0.0694
   23GLOH    C3 8498   3.062   5.008  -0.155 -0.0506 -0.1311  0.7444
   23GLOH   H06 8499   3.036   4.938  -0.235  0.7424 -1.0752  1.3026
   23GLOH   H07 8500   3.109   5.088  -0.212 -1.4420  0.2507  0.0986
   23GLOH    O3 8501   2.942   5.053  -0.088 -0.2979 -0.3382 -0.7511
   23GLOH   H01 8502   2.886   4.988  -0.041  0.6668  1.1819  2.6745
   24GLOH   H03 8503   9.392   4.477   2.225  0.0001 -0.2136 -0.1672
   24GLOH    O1 8504   9.375   4.566   2.262  0.9123 -0.0058 -0.2417
   24GLOH    C1 8505   9.332   4.638   2.149  0.1878  0.5519 -0.3640
   24GLOH   H02 8506   9.303   4.737   2.185 -1.2667  0.0346 -0.0878
   24GLOH   H08 8507   9.243   4.585   2.113  1.5388 -0.2422 -2.6117
   24GLOH    C2 8508   9.433   4.678   2.049 -0.1958  0.9303 -0.3092
   24GLOH   H04 8509   9.484   4.585   2.021 -0.1537  0.3090  1.7667
   24GLOH    O2 8510   9.383   4.745   1.929 -0.7421 -0.5281  0.2244
   24GLOH   H05 8511   9.373   4.687   1.852  1.0574 -0.6410  0.0576
   24GLOH    C3 8512   9.542   4.762   2.107  0.5547 -0.3598 -0.0842
   24GLOH   H06 8513   9.564   4.719   2.204 -2.0546 -0.7428  0.3852
   24GLOH   H07 8514   9.512   4.865   2.125  0.8711 -0.1678 -0.6391
   24GLOH    O3 8515   9.658   4.768   2.023  0.1348 -0.2328  0.1043
   24GLOH   H01 8516   9.645   4.823   1.944 -0.3696  0.3687  0.5973
   25GLOH   H03 8517   0.706   5.977   0.424 -0.7185 -1.3168 -2.0254
   25GLOH    O1 8518   0.802   5.955   0.420 -0.2452  0.5217 -1.1512
   25GLOH    C1 8519   0.818   5.840   0.505 -0.0794 -0.9051  0.3912
   25GLOH   H02 8520   0.791   5.749   0.452  1.3544 -0.1853 -1.6367
   25GLOH   H08 8521   0.762   5.844   0.599  1.1264 -0.2540  1.1014
   25GLOH    C2 8522   0.967   5.815   0.540 -0.2547 -0.1898 -0.4163
   25GLOH   H04 8523   0.991   5.913   0.584 -1.7884 -0.2603  0.6242
   25GLOH    O2 8524   1.004   5.705   0.620  0.0966  0.6783 -0.2318
   25GLOH   H05 8525   0.976   5.729   0.710  0.1239 -1.1062  0.2740
   25GLOH    C3 8526   1.063   5.808   0.414 -0.4101  0.3809 -0.4317
   25GLOH   H06 8527   1.031   5.731   0.344  0.9315 -0.1882 -0.4380
   25GLOH   H07 8528   1.166   5.786   0.444  0.0361  2.5680 -0.2975
   25GLOH    O3 8529   1.066   5.936   0.348 -0.1200 -0.1567  0.0788
   25GLOH   H01 8530   0.977   5.974   0.358  0.1688  0.8541 -1.0240
   26GLOH   H03 8531   2.706   5.486   1.463 -0.5732 -0.1375  0.0697
   26GLOH    O1 8532   2.701   5.523   1.553  0.2427  0.2483 -0.0330
   26GLOH    C1 8533   2.840   5.530   1.599 -0.2415  0.3823  0.2211
   26GLOH   H02 8534   2.891   5.435   1.584 -0.3313  0.1284  1.4875
   26GLOH   H08 8535   2.833   5.543   1.707 -0.9050 -1.2716  0.3899
   26GLOH    C2 8536   2.929   5.636   1.538 -0.0840 -0.1853 -0.5551
   26GLOH   H04 8537   2.921   5.625   1.428 -0.3139  1.5058 -0.7296
   26GLOH    O2 8538   2.891   5.770   1.571 -0.3273  0.7930  0.0311
   26GLOH   H05 8539   2.800   5.770   1.606  0.1469  1.6527  1.2750
   26GLOH    C3 8540   3.074   5.633   1.588 -0.3400 -0.4037 -0.1622
   26GLOH   H06 8541   3.073   5.637   1.697  1.2507 -0.4386 -0.1338
   26GLOH   H07 8542   3.113   5.727   1.550 -1.3435 -0.8884 -2.4775
   26GLOH    O3 8543   3.152   5.520   1.547  0.6514 -0.4041  0.0949
   26GLOH   H01 8544   3.162   5.525   1.450  0.6428  0.2152  0.1285
   27GLOH   H03 8545   2.532   7.758   0.101  0.2999 -1.7234  0.5876
   27GLOH    O1 8546   2.599   7.701   0.058  0.7225 -0.8562  0.0783
   27GLOH    C1 8547   2.570   7.568   0.100 -0.8365 -0.3576  0.2888
   27GLOH   H02 8548   2.530   7.502   0.024 -1.7414 -0.2614  0.6686
   27GLOH   H08 8549   2.491   7.579   0.175 -1.6093  1.1170 -0.7165
   27GLOH    C2 8550   2.700   7.506   0.166 -0.6395 -0.1206  0.0048
   27GLOH   H04 8551   2.681   7.412   0.220  0.7826 -1.0916 -1.1235
   27GLOH    O2 8552   2.806   7.482   0.072 -0.8842  0.0106  0.2103
   27GLOH   H05 8553   2.865   7.557   0.051  0.5532 -1.1178  0.1815
   27GLOH    C3 8554   2.759   7.602   0.272  0.7310  0.3724  0.0430
   27GLOH   H06 8555   2.779   7.701   0.232 -2.4080  1.1995  0.3802
   27GLOH   H07 8556   2.850   7.557   0.311  0.8500  0.0414 -0.6025
   27GLOH    O3 8557   2.673   7.623   0.383  0.4280  0.0380  0.4105
   27GLOH   H01 8558   2.648   7.535   0.418 -0.9819  0.1880 -0.1795
   28GLOH   H03 8559   1.954   4.658   2.340  1.3016 -2.4018 -1.0380
   28GLOH    O1 8560   2.029   4.720   2.343 -0.5278 -0.1969  0.0011
   28GLOH    C1 8561   2.106   4.685   2.230  0.0658  0.2408  0.7269
   28GLOH   H02 8562   2.184   4.760   2.214  1.1404 -0.8534  0.7500
   28GLOH   H08 8563   2.052   4.685   2.136  2.0908  0.2729 -0.4658
   28GLOH    C2 8564   2.174   4.544   2.239  0.4771 -0.4192  0.2193
   28GLOH   H04 8565   2.223   4.515   2.145 -1.6080  1.0741 -1.3685
   28GLOH    O2 8566   2.280   4.538   2.344 -0.2468  0.2227 -0.5907
   28GLOH   H05 8567   2.336   4.616   2.335 -0.8251  0.6161 -0.7924
   28GLOH    C3 8568   2.069   4.431   2.260  0.7892  0.3173  0.6162
   28GLOH   H06 8569   2.006   4.451   2.346 -0.7341 -1.1491 -0.1395
   28GLOH   H07 8570   2.115   4.337   2.286 -0.1936 -0.3015  0.1522
   28GLOH    O3 8571   1.986   4.414   2.143 -0.7244 -0.0889  0.5083
   28GLOH   H01 8572   1.907   4.363   2.166 -0.6748  0.2707  1.5076
   29GLOH   H03 8573   4.140   3.671   1.160 -0.4509 -1.1535  0.8484
   29GLOH    O1 8574   4.187   3.596   1.118  0.3987 -0.1826  0.0068
   29GLOH    C1 8575   4.134   3.552   0.993 -0.0740 -0.9183 -0.1998
   29GLOH   H02 8576   4.221   3.511   0.942  0.6995  1.0082 -0.4562
   29GLOH   H08 8577   4.105   3.642   0.939 -0.1352 -1.6377 -1.3832
   29GLOH    C2 8578   4.012   3.457   0.989  0.7692 -0.3174 -0.3684
   29GLOH   H04 8579   3.982   3.445   0.884 -2.8904  1.2600  0.4108
   29GLOH    O2 8580   4.048   3.331   1.038 -0.3425 -0.2188 -0.0368
   29GLOH   H05 8581   4.119   3.339   1.105 -0.4297 -1.7953  0.2773
   29GLOH    C3 8582   3.892   3.521   1.067 -0.5405 -0.3978  0.1315
   29GLOH   H06 8583   3.922   3.529   1.171 -1.0297  3.4254  0.0780
   29GLOH   H07 8584   3.809   3.451   1.068 -0.2839 -0.7399 -1.0014
   29GLOH    O3 8585   3.865   3.649   1.011 -0.5041 -0.1705 -0.2346
   29GLOH   H01 8586   3.777   3.670   1.047 -0.9919 -0.3494 -1.3192
   30GLOH   H03 8587   4.066   7.639   0.827 -2.4758  1.7546  1.2802
   30GLOH    O1 8588   3.994   7.592   0.782 -0.2728 -0.0910 -0.4376
   30GLOH    C1 8589   3.926   7.514   0.876 -0.1165  0.1690  1.0885
   30GLOH   H02 8590   3.883   7.575   0.956  0.7640  0.1739  1.5666
   30GLOH   H08 8591   4.005   7.452   0.919 -0.6932 -0.2823  1.5184
   30GLOH    C2 8592   3.809   7.424   0.820  0.3373  0.1323 -0.3412
   30GLOH   H04 8593   3.841   7.378   0.725 -0.0250  0.9856 -0.8780
   30GLOH    O2 8594   3.786   7.320   0.922  0.4510 -0.0619 -0.5828
   30GLOH   H05 8595   3.744   7.242   0.883 -0.2590 -0.0086  0.0794
   30GLOH    C3 8596   3.685   7.509   0.800 -0.0253  0.5986  0.4099
   30GLOH   H06 8597   3.653   7.538   0.900 -1.5898 -1.1367  0.4369
   30GLOH   H07 8598   3.615   7.447   0.745  1.6270  1.0719 -2.3537
   30GLOH    O3 8599   3.716   7.629   0.723 -0.0113  0.7023 -0.5884
   30GLOH   H01 8600   3.708   7.607   0.628 -2.6004  0.6187 -0.4103
   31GLOH   H03 8601   4.336   1.458   1.511 -1.7982 -1.1046 -1.3566
   31GLOH    O1 8602   4.410   1.405   1.477 -0.3979 -0.1243  0.0678
   31GLOH    C1 8603   4.415   1.392   1.332 -0.4043  0.6417 -0.4061
   31GLOH   H02 8604   4.315   1.381   1.288  0.2596 -0.6191 -1.6285
   31GLOH   H08 8605   4.472   1.302   1.310  1.3651  1.1872  1.7805
   31GLOH    C2 8606   4.483   1.505   1.264 -0.4090 -0.5504  0.2868
   31GLOH   H04 8607   4.591   1.508   1.287 -0.3852 -0.0052  0.1248
   31GLOH    O2 8608   4.477   1.481   1.121 -0.3171 -0.0000 -0.3290
   31GLOH   H05 8609   4.531   1.402   1.101 -1.4830 -0.5987 -1.1965
   31GLOH    C3 8610   4.443   1.653   1.297 -0.1595 -0.2938 -0.3290
   31GLOH   H06 8611   4.474   1.663   1.401  0.7369  0.3667 -0.6561
   31GLOH   H07 8612   4.335   1.661   1.292 -0.4290  0.0318  4.1389
   31GLOH    O3 8613   4.519   1.747   1.222 -0.0993  0.2786  0.0366
   31GLOH   H01 8614   4.471   1.830   1.238  1.0901  1.5274 -2.6201
   32GLOH   H03 8615   3.765   3.076   1.145  1.2321 -0.2841  0.6731
   32GLOH    O1 8616   3.742   3.008   1.211 -0.4388 -0.2476  0.1646
   32GLOH    C1 8617   3.806   3.050   1.332  0.4118  0.9073  0.0129
   32GLOH   H02 8618   3.815   2.964   1.398 -0.8919 -0.8593 -2.0555
   32GLOH   H08 8619   3.745   3.123   1.386  1.3946  1.3353  0.5560
   32GLOH    C2 8620   3.943   3.115   1.307  0.4548 -0.0140 -0.1732
   32GLOH   H04 8621   3.937   3.185   1.223 -1.2906 -1.3675 -1.2325
   32GLOH    O2 8622   3.973   3.181   1.429 -0.1026  0.2167 -0.4698
   32GLOH   H05 8623   3.987   3.117   1.501  0.4521 -1.4343 -2.0066
   32GLOH    C3 8624   4.041   2.998   1.272 -0.1028  0.4920  0.0487
   32GLOH   H06 8625   4.138   3.044   1.252 -1.7169  3.9517 -0.2178
   32GLOH   H07 8626   4.012   2.940   1.185 -0.1282  2.4390 -1.2653
   32GLOH    O3 8627   4.061   2.898   1.372  0.6220 -0.4215 -0.0834
   32GLOH   H01 8628   4.132   2.930   1.431  0.9209  3.5351 -2.4282
   33GLOH   H03 8629   2.574   7.566   2.125 -1.8890  1.0383  1.7639
   33GLOH    O1 8630   2.501   7.538   2.066  0.0696  0.2103 -0.3327
   33GLOH    C1 8631   2.535   7.422   1.985  0.4393 -0.0190  0.4747
   33GLOH   H02 8632   2.574   7.350   2.057  4.3224  0.7374 -0.7540
   33GLOH   H08 8633   2.618   7.439   1.917 -1.3291  0.8890 -1.5335
   33GLOH    C2 8634   2.417   7.368   1.896 -0.0771 -0.4445 -0.6775
   33GLOH   H04 8635   2.455   7.300   1.818 -0.1640 -3.6352  1.9118
   33GLOH    O2 8636   2.316   7.315   1.987  0.0683 -0.3408 -0.4505
   33GLOH   H05 8637   2.337   7.346   2.077 -0.5814 -0.6654 -0.1858
   33GLOH    C3 8638   2.362   7.487   1.809  0.0026  0.1411  0.1084
   33GLOH   H06 8639   2.317   7.557   1.879  1.4595  0.7009  0.4993
   33GLOH   H07 8640   2.274   7.443   1.762 -1.8729  2.6568  1.1901
   33GLOH    O3 8641   2.451   7.555   1.714  0.4775  0.3099  0.2846
   33GLOH   H01 8642   2.501   7.621   1.766 -0.2372  0.0556  1.3314
   34GLOH   H03 8643   2.291   1.212   2.644 -1.3463  1.2892  0.5773
   34GLOH    O1 8644   2.362   1.268   2.680 -0.0503 -0.1228  0.2546
   34GLOH    C1 8645   2.404   1.204   2.795 -0.3716  0.0839 -0.6412
   34GLOH   H02 8646   2.319   1.197   2.864 -0.2097 -0.4191 -0.4921
   34GLOH   H08 8647   2.480   1.262   2.847 -0.1771  1.6118 -2.5986
   34GLOH    C2 8648   2.451   1.057   2.766 -1.0696 -0.9773  0.2901
   34GLOH   H04 8649   2.362   1.008   2.723 -0.5002 -0.6694 -1.3098
   34GLOH    O2 8650   2.566   1.031   2.681 -0.1070  0.4849  0.5039
   34GLOH   H05 8651   2.642   1.085   2.709  1.6798 -0.2558 -2.6580
   34GLOH    C3 8652   2.479   0.989   2.892  0.2419 -0.0348 -0.0633
   34GLOH   H06 8653   2.557   1.051   2.936  2.8644 -0.2094 -4.1998
   34GLOH   H07 8654   2.514   0.887   2.879  0.4574  0.1806 -1.2617
   34GLOH    O3 8655   2.368   0.979   2.983  0.0059 -0.2537  0.8021
   34GLOH   H01 8656   2.288   0.952   2.935  0.5256  1.0294 -0.8651
   35GLOH   H03 8657   2.677   1.743   0.592  3.2613  0.0612  1.8669
   35GLOH    O1 8658   2.614   1.701   0.653  0.8887 -0.1421 -0.6408
   35GLOH    C1 8659   2.677   1.573   0.679 -0.0104  0.1242 -0.0404
   35GLOH   H02 8660   2.645   1.492   0.613  0.2825  0.4474 -0.5795
   35GLOH   H08 8661   2.649   1.540   0.779  2.8942 -1.5923  0.2533
   35GLOH    C2 8662   2.833   1.569   0.663  0.5025  0.1933 -0.1659
   35GLOH   H04 8663   2.873   1.630   0.745 -0.8247  0.5973  0.2041
   35GLOH    O2 8664   2.862   1.425   0.679 -0.0612  0.0281 -0.0601
   35GLOH   H05 8665   2.958   1.413   0.688 -0.4241 -1.0795  2.7583
   35GLOH    C3 8666   2.862   1.623   0.521  0.2757  0.2593  0.6449
   35GLOH   H06 8667   2.797   1.571   0.449  0.9419  3.1558 -2.1496
   35GLOH   H07 8668   2.968   1.611   0.499 -0.1197  0.6468 -1.6433
   35GLOH    O3 8669   2.819   1.760   0.525  0.3474 -0.3425 -0.0920
   35GLOH   H01 8670   2.876   1.804   0.591 -2.6520  0.3420  2.1670
   36GLOH   H03 8671   1.357   4.756   2.449 -0.2548 -1.2137  1.5128
   36GLOH    O1 8672   1.291   4.816   2.490 -0.5952 -0.2075 -0.4406
   36GLOH    C1 8673   1.164   4.753   2.492 -0.3634 -0.2750 -0.4373
   36GLOH   H02 8674   1.156   4.709   2.591 -0.4904 -1.1632 -0.8375
   36GLOH   H08 8675   1.169   4.680   2.411 -2.0180 -1.8118  0.8131
   36GLOH    C2 8676   1.044   4.849   2.471 -0.2248  0.1881 -0.1543
   36GLOH   H04 8677   1.045   4.921   2.555 -0.2669 -0.0926  0.0864
   36GLOH    O2 8678   1.057   4.905   2.337  0.1016  0.6196 -0.3272
   36GLOH   H05 8679   1.063   4.829   2.276  1.1919  1.3389 -1.1239
   36GLOH    C3 8680   0.909   4.770   2.476  0.3017 -0.2275 -0.4568
   36GLOH   H06 8681   0.900   4.697   2.395  0.4057 -0.7675  0.0175
   36GLOH   H07 8682   0.826   4.840   2.474  1.8299  1.6298 -0.4301
   36GLOH    O3 8683   0.903   4.705   2.603  0.8312 -0.0000  0.1752
   36GLOH   H01 8684   0.931   4.613   2.590 -1.2045 -0.1797 -3.6805
   37GLOH   H03 8685   3.732   6.255   2.137 -2.6596  0.6839  1.5568
   37GLOH    O1 8686   3.724   6.343   2.096 -0.3723  0.2565  0.1156
   37GLOH    C1 8687   3.711   6.437   2.199  0.2250 -0.3807 -0.2765
   37GLOH   H02 8688   3.701   6.535   2.153  0.1512 -1.5980 -2.9339
   37GLOH   H08 8689   3.797   6.442   2.266  1.9423  1.4250 -2.5616
   37GLOH    C2 8690   3.582   6.409   2.276  0.3056  0.2238 -0.0710
   37GLOH   H04 8691   3.583   6.307   2.314  0.4510  1.2076  2.6348
   37GLOH    O2 8692   3.576   6.488   2.395  0.6630  0.0568 -0.1091
   37GLOH   H05 8693   3.501   6.458   2.450 -0.0693  2.2696  0.1534
   37GLOH    C3 8694   3.462   6.425   2.192  0.1902  0.0938  0.0871
   37GLOH   H06 8695   3.372   6.386   2.239  0.0753  1.5427  1.1255
   37GLOH   H07 8696   3.483   6.351   2.115 -0.9908  1.8237 -1.9730
   37GLOH    O3 8697   3.447   6.555   2.145 -0.1078 -0.4808  0.3919
   37GLOH   H01 8698   3.445   6.613   2.224  2.0077 -0.6531  0.6073
   38GLOH   H03 8699   2.316   5.756   2.090 -0.6010 -2.5464  2.3114
   38GLOH    O1 8700   2.404   5.786   2.117 -0.4435  0.2939 -0.9395
   38GLOH    C1 8701   2.452   5.899   2.045 -0.3750  0.2139 -0.2927
   38GLOH   H02 8702   2.472   5.882   1.939  2.0092 -1.8094  0.4334
   38GLOH   H08 8703   2.551   5.927   2.082  2.1684 -3.3819 -4.0008
   38GLOH    C2 8704   2.347   6.007   2.067  0.8904 -0.0119  0.3805
   38GLOH   H04 8705   2.324   6.003   2.175  1.6706  1.7553  0.6233
   38GLOH    O2 8706   2.389   6.132   2.015 -0.2577  0.0827  0.7964
   38GLOH   H05 8707   2.376   6.127   1.919 -1.7192 -0.3864  0.9975
   38GLOH    C3 8708   2.207   5.956   2.013  0.7310 -0.0039  0.2752
   38GLOH   H06 8709   2.143   6.042   2.032  1.0719  0.4205 -0.4636
   38GLOH   H07 8710   2.168   5.879   2.080 -0.4876  0.9188  0.6427
   38GLOH    O3 8711   2.204   5.924   1.880  0.1357 -0.2062  0.3194
   38GLOH   H01 8712   2.240   6.004   1.836  2.5625 -0.8469  1.0239
   39GLOH   H03 8713   3.558   5.660   0.478 -1.2641  2.0421 -1.3542
   39GLOH    O1 8714   3.601   5.650   0.391  0.5018  0.3693 -0.3353
   39GLOH    C1 8715   3.675   5.530   0.391 -0.0667  0.1651  0.5102
   39GLOH   H02 8716   3.672   5.485   0.291 -1.2005  0.4085  0.4309
   39GLOH   H08 8717   3.636   5.459   0.464  0.3018 -0.5128  0.0633
   39GLOH    C2 8718   3.827   5.571   0.401 -0.2829  0.2388  0.3257
   39GLOH   H04 8719   3.842   5.649   0.477 -1.8041  2.1212 -1.2588
   39GLOH    O2 8720   3.918   5.454   0.424  0.2015 -0.2660  0.6652
   39GLOH   H05 8721   3.870   5.388   0.476 -1.0688 -1.3125 -1.7424
   39GLOH    C3 8722   3.874   5.652   0.284  0.1541  0.0423  0.2671
   39GLOH   H06 8723   3.982   5.658   0.293  0.0788 -0.6041  1.7858
   39GLOH   H07 8724   3.835   5.753   0.292  1.1292  0.4882 -0.5558
   39GLOH    O3 8725   3.835   5.597   0.164 -0.4436 -0.3560  0.5953
   39GLOH   H01 8726   3.871   5.508   0.147 -1.1941 -0.6685  0.5887
   40GLOH   H03 8727   4.543   4.961   1.156  0.3325 -0.5461  0.2574
   40GLOH    O1 8728   4.524   5.055   1.167  0.0897 -0.5700  0.0510
   40GLOH    C1 8729   4.516   5.131   1.048  0.4156 -0.0172  0.8921
   40GLOH   H02 8730   4.471   5.227   1.075  2.2233  0.6982  1.4499
   40GLOH   H08 8731   4.454   5.083   0.972  0.6861  0.0510  0.6306
   40GLOH    C2 8732   4.658   5.165   0.993 -0.9006  0.4839  0.0592
   40GLOH   H04 8733   4.693   5.065   0.964 -0.6308 -0.1862  2.6310
   40GLOH    O2 8734   4.655   5.242   0.871 -0.0053  0.2095  0.3979
   40GLOH   H05 8735   4.724   5.208   0.813  2.0722 -0.1446  2.9826
   40GLOH    C3 8736   4.739   5.230   1.098 -0.2570 -0.0112 -0.8751
   40GLOH   H06 8737   4.691   5.323   1.128 -0.3500 -0.6777  1.1049
   40GLOH   H07 8738   4.828   5.267   1.046 -0.7233  3.3178  0.5252
   40GLOH    O3 8739   4.776   5.145   1.205 -0.2187 -0.0916  0.2954
   40GLOH   H01 8740   4.695   5.100   1.236 -0.9862  1.5315  0.6524
   41GLOH   H03 8741   3.496   8.946   1.528  0.5044 -3.0477  1.0456
   41GLOH    O1 8742   3.562   8.978   1.591  0.0470 -0.0180  0.0487
   41GLOH    C1 8743   3.689   8.919   1.563 -0.8078 -0.4337 -0.3317
   41GLOH   H02 8744   3.764   8.942   1.639 -0.4811  0.6899 -0.9826
   41GLOH   H08 8745   3.725   8.950   1.465  2.2658 -1.0528  0.5275
   41GLOH    C2 8746   3.667   8.767   1.537  0.2621  0.1107 -0.2464
   41GLOH   H04 8747   3.625   8.728   1.631 -1.7810  2.9108  0.0578
   41GLOH    O2 8748   3.572   8.748   1.431 -0.0276  0.0475 -0.1655
   41GLOH   H05 8749   3.568   8.654   1.408  1.3018 -0.6471  2.2607
   41GLOH    C3 8750   3.805   8.700   1.512  0.3962 -1.0845  0.0919
   41GLOH   H06 8751   3.850   8.758   1.431 -0.7977 -2.4858 -1.6090
   41GLOH   H07 8752   3.795   8.597   1.478 -0.3895 -0.8935 -0.2805
   41GLOH    O3 8753   3.893   8.720   1.620  0.6535  0.2342  0.7611
   41GLOH   H01 8754   3.847   8.751   1.700  0.6665 -0.3049  0.9778
   42GLOH   H03 8755   4.444   8.399   1.151 -0.5328  0.6903 -0.4981
   42GLOH    O1 8756   4.443   8.322   1.092  0.0339 -0.0339  0.4333
   42GLOH    C1 8757   4.547   8.331   0.992  0.4592 -0.7989 -0.0365
   42GLOH   H02 8758   4.585   8.232   0.969  2.0736 -0.3555  0.5750
   42GLOH   H08 8759   4.624   8.392   1.040 -0.4499  0.8023 -0.5522
   42GLOH    C2 8760   4.507   8.414   0.863 -0.2375  0.4969  0.0981
   42GLOH   H04 8761   4.465   8.514   0.880 -0.8167  0.1739  0.6037
   42GLOH    O2 8762   4.633   8.431   0.781 -0.3820 -0.1220 -0.2158
   42GLOH   H05 8763   4.615   8.507   0.723 -0.1589 -1.7701 -2.5522
   42GLOH    C3 8764   4.403   8.342   0.783 -0.2159  0.0481 -0.3167
   42GLOH   H06 8765   4.451   8.247   0.758  0.1996  0.1319  0.1455
   42GLOH   H07 8766   4.374   8.399   0.695 -1.1435 -0.5017 -0.3697
   42GLOH    O3 8767   4.283   8.326   0.864 -0.6758 -0.2185  0.5712
   42GLOH   H01 8768   4.273   8.406   0.918  0.2041  1.2748 -1.4025
   43GLOH   H03 8769   4.586   3.242   0.989  0.2530 -2.2793  1.2928
   43GLOH    O1 8770   4.507   3.193   0.957 -0.5736 -0.3619  0.3256
   43GLOH    C1 8771   4.414   3.208   1.062 -0.1857 -0.6732 -0.1129
   43GLOH   H02 8772   4.312   3.181   1.034 -0.5993  1.9610 -1.3586
   43GLOH   H08 8773   4.406   3.314   1.087  1.4463 -0.9674  1.7512
   43GLOH    C2 8774   4.450   3.134   1.189  0.2358 -0.7600 -0.6467
   43GLOH   H04 8775   4.537   3.188   1.228 -0.4811 -0.8460  1.1611
   43GLOH    O2 8776   4.340   3.144   1.284 -0.2633  0.0385 -0.7744
   43GLOH   H05 8777   4.299   3.232   1.284 -0.6697 -0.1488 -1.5915
   43GLOH    C3 8778   4.499   2.989   1.174 -0.0489 -0.6250 -0.1371
   43GLOH   H06 8779   4.555   2.989   1.081  1.5176 -0.7509  0.7895
   43GLOH   H07 8780   4.409   2.927   1.166 -0.2787 -0.1562 -1.2868
   43GLOH    O3 8781   4.584   2.934   1.278  0.1741 -0.6199 -0.2475
   43GLOH   H01 8782   4.642   3.000   1.320  0.4417 -1.0381  0.0573
   44GLOH   H03 8783   4.432   4.436   1.591 -1.1140 -0.3159 -0.7605
   44GLOH    O1 8784   4.356   4.421   1.651 -0.5765  0.3128  0.0756
   44GLOH    C1 8785   4.307   4.547   1.691  0.2079  0.6265 -0.2230
   44GLOH   H02 8786   4.278   4.602   1.601 -1.7217 -0.1123 -0.0837
   44GLOH   H08 8787   4.383   4.608   1.738 -0.3692  0.3616  1.0838
   44GLOH    C2 8788   4.193   4.544   1.791 -0.5070  0.4153  0.1560
   44GLOH   H04 8789   4.229   4.502   1.886 -3.2894  0.2590  1.2006
   44GLOH    O2 8790   4.163   4.682   1.809  0.1389  0.2657  0.3193
   44GLOH   H05 8791   4.076   4.703   1.772  0.1633 -2.7898 -1.6438
   44GLOH    C3 8792   4.079   4.456   1.739 -0.4614  0.2760  0.0769
   44GLOH   H06 8793   4.115   4.356   1.716  1.6194  0.8938  0.5816
   44GLOH   H07 8794   4.040   4.497   1.645 -1.1580  1.1774  0.7414
   44GLOH    O3 8795   3.971   4.429   1.837 -0.0720  0.5855 -0.6112
   44GLOH   H01 8796   3.947   4.511   1.884  3.9924  1.2279  0.5945
   45GLOH   H03 8797   2.313   7.217   1.031 -3.2649  0.0237  0.5420
   45GLOH    O1 8798   2.314   7.281   0.957  0.1304 -0.2626  0.2546
   45GLOH    C1 8799   2.384   7.402   0.997  0.3798 -0.1623 -0.1308
   45GLOH   H02 8800   2.490   7.386   1.013  0.1906  0.6885  2.0994
   45GLOH   H08 8801   2.344   7.444   1.089 -0.6630 -0.4851 -0.4303
   45GLOH    C2 8802   2.377   7.516   0.896 -0.8288  0.7445 -0.0178
   45GLOH   H04 8803   2.271   7.533   0.874 -0.2814  3.4723 -0.8306
   45GLOH    O2 8804   2.420   7.649   0.945 -0.3588 -0.4204  0.1598
   45GLOH   H05 8805   2.414   7.709   0.869  1.1457 -0.2755  0.1414
   45GLOH    C3 8806   2.432   7.468   0.753  0.9503  0.2795 -0.2523
   45GLOH   H06 8807   2.360   7.391   0.724  2.6550 -1.0119 -1.1994
   45GLOH   H07 8808   2.527   7.416   0.766  0.0221 -1.9430 -1.9480
   45GLOH    O3 8809   2.436   7.557   0.644 -0.1737  0.2226 -0.2567
   45GLOH   H01 8810   2.467   7.644   0.676  0.2924 -0.4926  1.2578
   46GLOH   H03 8811   3.367   7.118   0.703  0.1786  0.7514  3.2509
   46GLOH    O1 8812   3.378   7.215   0.694  0.1036  0.4810 -0.6459
   46GLOH    C1 8813   3.377   7.244   0.551  0.2865 -0.0110  0.2586
   46GLOH   H02 8814   3.446   7.324   0.527  0.7284 -0.4026  0.2087
   46GLOH   H08 8815   3.281   7.289   0.526 -0.3501 -1.1059  0.6469
   46GLOH    C2 8816   3.404   7.136   0.451 -0.0132 -0.0436 -0.0053
   46GLOH   H04 8817   3.328   7.057   0.445 -1.6590  1.6683 -2.0972
   46GLOH    O2 8818   3.421   7.198   0.322  0.1733  0.1339  0.0956
   46GLOH   H05 8819   3.337   7.237   0.292  0.5434  0.0083 -1.1585
   46GLOH    C3 8820   3.534   7.057   0.481  0.4897 -0.3863  0.7671
   46GLOH   H06 8821   3.573   6.992   0.402  0.0297  0.2848 -0.0247
   46GLOH   H07 8822   3.506   6.977   0.549 -1.3294 -1.9297 -1.6999
   46GLOH    O3 8823   3.636   7.143   0.551 -0.0485  0.3478  0.1037
   46GLOH   H01 8824   3.674   7.195   0.477  0.9361  0.9865  1.0483
   47GLOH   H03 8825   4.869   0.434   0.808 -1.2063 -0.4427  1.3332
   47GLOH    O1 8826   4.805   0.442   0.735  0.0635  0.0161  0.2442
   47GLOH    C1 8827   4.873   0.500   0.628  0.4226  0.4628  0.1385
   47GLOH   H02 8828   4.952   0.434   0.591 -2.0099 -2.2030 -0.5335
   47GLOH   H08 8829   4.928   0.589   0.656  1.9459 -0.5483  0.3834
   47GLOH    C2 8830   4.791   0.523   0.499  0.1994  0.5465  0.3904
   47GLOH   H04 8831   4.706   0.584   0.535 -0.2894  0.5645 -0.7568
   47GLOH    O2 8832   4.855   0.593   0.388  0.3081 -0.2820 -0.0901
   47GLOH   H05 8833   4.799   0.645   0.329 -1.1615 -0.0759  1.4477
   47GLOH    C3 8834   4.747   0.383   0.451 -0.2550  0.0008 -0.3539
   47GLOH   H06 8835   4.837   0.329   0.421  1.0015  0.0071  3.2080
   47GLOH   H07 8836   4.689   0.394   0.359 -0.0146 -1.9930 -0.7666
   47GLOH    O3 8837   4.671   0.307   0.557 -0.2432 -0.3953  0.8350
   47GLOH   H01 8838   4.706   0.346   0.640  1.2361  2.5005 -1.0886
   48GLOH   H03 8839   4.443   2.697   0.005  1.0108 -0.7777  1.0105
   48GLOH    O1 8840   4.407   2.655   0.086 -0.6483  0.0216  0.7018
   48GLOH    C1 8841   4.508   2.588   0.173  0.1222 -0.0363  0.3193
   48GLOH   H02 8842   4.521   2.643   0.266  0.3805 -0.4078  0.5037
   48GLOH   H08 8843   4.602   2.585   0.117  1.1255  1.2678  1.8539
   48GLOH    C2 8844   4.470   2.440   0.210 -0.4359 -0.5850 -0.1113
   48GLOH   H04 8845   4.413   2.407   0.122  1.7874 -0.1791 -1.7742
   48GLOH    O2 8846   4.591   2.365   0.228  0.3849 -0.2255 -0.0775
   48GLOH   H05 8847   4.603   2.358   0.324  0.6960 -0.9129 -0.1620
   48GLOH    C3 8848   4.372   2.436   0.330 -0.6407  0.8847 -0.2359
   48GLOH   H06 8849   4.422   2.476   0.418  1.3134 -0.9264 -0.4852
   48GLOH   H07 8850   4.346   2.332   0.352 -2.7337  1.8046  1.8590
   48GLOH    O3 8851   4.256   2.519   0.313 -0.5947  0.4327 -0.0954
   48GLOH   H01 8852   4.265   2.566   0.228  0.0467  0.7987  0.1620
   49GLOH   H03 8853   2.508   2.986   1.087  0.2979  0.0403 -1.2517
   49GLOH    O1 8854   2.506   3.083   1.084 -0.5538  0.0769  0.1282
   49GLOH    C1 8855   2.561   3.129   0.957 -0.3861 -0.3132  0.2863
   49GLOH   H02 8856   2.490   3.127   0.874 -0.5619 -1.6659  0.4465
   49GLOH   H08 8857   2.643   3.065   0.923 -1.3698 -2.7853  2.4057
   49GLOH    C2 8858   2.612   3.271   0.981 -0.4364 -0.4958  0.0568
   49GLOH   H04 8859   2.541   3.326   1.045  0.5379 -1.2171  1.8083
   49GLOH    O2 8860   2.748   3.282   1.035  0.0465  0.0500  0.2418
   49GLOH   H05 8861   2.810   3.215   1.003  0.1351 -0.2248  0.9905
   49GLOH    C3 8862   2.609   3.354   0.848  0.3633  0.2494  0.2303
   49GLOH   H06 8863   2.518   3.324   0.798  0.7874 -1.0973  0.2570
   49GLOH   H07 8864   2.689   3.337   0.776 -0.4207 -0.4828 -0.4615
   49GLOH    O3 8865   2.607   3.496   0.868 -0.3486  0.0866  0.4231
   49GLOH   H01 8866   2.688   3.538   0.834  0.6845 -2.4674 -0.3341
   50GLOH   H03 8867   3.772  10.219   2.155  0.0570  0.5356  0.3429
   50GLOH    O1 8868   3.808  10.296   2.109 -0.4720  0.3783 -0.3401
   50GLOH    C1 8869   3.854  10.250   1.980 -0.0860 -0.0210 -0.0128
   50GLOH   H02 8870   3.919  10.164   2.001  0.0498  0.2299  0.6236
   50GLOH   H08 8871   3.917  10.326   1.934  0.5902 -0.1491  0.6857
   50GLOH    C2 8872   3.731  10.214   1.892 -0.1453 -0.6065 -0.2531
   50GLOH   H04 8873   3.689  10.311   1.862  1.5432 -0.0716 -0.9650
   50GLOH    O2 8874   3.775  10.171   1.759  0.1778 -0.5659  0.1877
   50GLOH   H05 8875   3.860  10.123   1.764  0.2669 -0.4585 -0.3040
   50GLOH    C3 8876   3.617  10.133   1.954  0.3059  0.1799  0.2866
   50GLOH   H06 8877   3.532  10.115   1.889 -0.3601  0.2937  1.1148
   50GLOH   H07 8878   3.579  10.196   2.034 -0.3531  0.8950 -0.5787
   50GLOH    O3 8879   3.684  10.017   2.004 -0.3595 -0.3681 -0.0473
   50GLOH   H01 8880   3.709   9.957   1.932 -0.3547 -0.1718 -0.2105
   51GLOH   H03 8881   2.999   9.624   1.007 -0.5857 -0.2122 -2.3331
   51GLOH    O1 8882   2.989   9.719   0.983  0.2692  0.1552 -1.2462
   51GLOH    C1 8883   3.108   9.771   0.923  0.4259 -0.4275  0.3323
   51GLOH   H02 8884   3.200   9.731   0.966  0.1277 -2.2384 -0.6605
   51GLOH   H08 8885   3.121   9.879   0.924 -0.8723 -0.2733  1.1788
   51GLOH    C2 8886   3.122   9.733   0.773 -0.7707 -0.2640 -0.7604
   51GLOH   H04 8887   3.212   9.779   0.728  0.4776 -0.4245  1.4831
   51GLOH    O2 8888   3.142   9.596   0.755  0.2219  0.3005  0.0723
   51GLOH   H05 8889   3.211   9.587   0.687 -0.9369 -1.4149 -0.9379
   51GLOH    C3 8890   2.994   9.773   0.695  0.2488  0.9777  0.2139
   51GLOH   H06 8891   2.916   9.725   0.754  0.3954  1.2368  0.6256
   51GLOH   H07 8892   2.988   9.726   0.597 -2.0229 -0.7040  1.1099
   51GLOH    O3 8893   2.962   9.917   0.677  0.3571 -0.0948 -0.0905
   51GLOH   H01 8894   3.012   9.951   0.600 -0.6992 -0.5670 -0.9994
   52GLOH   H03 8895   2.343   6.506   1.990 -0.1777  0.4944 -0.6708
   52GLOH    O1 8896   2.407   6.560   1.941  0.4435  0.3831  0.0074
   52GLOH    C1 8897   2.378   6.698   1.973  0.1838  0.2329 -0.2502
   52GLOH   H02 8898   2.430   6.751   1.893  2.1367  0.4582  1.1233
   52GLOH   H08 8899   2.413   6.728   2.071  1.8909  1.0918 -1.0935
   52GLOH    C2 8900   2.225   6.723   1.964  0.5195  0.5523  0.4340
   52GLOH   H04 8901   2.172   6.636   2.006  1.2929 -0.9227 -1.5510
   52GLOH    O2 8902   2.193   6.845   2.032  0.2911 -0.3387  0.0689
   52GLOH   H05 8903   2.227   6.923   1.985 -2.3769  0.1424 -1.1497
   52GLOH    C3 8904   2.188   6.734   1.812 -0.0073  0.1615  0.0269
   52GLOH   H06 8905   2.197   6.630   1.780 -0.4416 -0.1449  0.8830
   52GLOH   H07 8906   2.257   6.799   1.759  0.5225  1.5066  2.2992
   52GLOH    O3 8907   2.051   6.771   1.782 -0.2789  0.3763 -0.3280
   52GLOH   H01 8908   2.026   6.850   1.833  0.8098  0.4812  0.0754
   53GLOH   H03 8909   9.851   5.338   0.363  1.7833  0.0881  3.5128
   53GLOH    O1 8910   9.922   5.281   0.328 -0.3532 -0.0481 -0.8980
   53GLOH    C1 8911   9.868   5.199   0.220  0.4866 -0.5034  0.4888
   53GLOH   H02 8912   9.931   5.212   0.133  1.6901 -0.1844  1.4032
   53GLOH   H08 8913   9.770   5.240   0.192  1.3014  0.7891 -0.4997
   53GLOH    C2 8914   9.864   5.050   0.253  0.3802 -0.0644  0.3554
   53GLOH   H04 8915   9.802   5.023   0.340 -0.4838 -0.9397 -0.5166
   53GLOH    O2 8916   9.811   4.971   0.139  0.2891  0.0359 -0.1670
   53GLOH   H05 8917   9.849   5.005   0.056  0.1366  1.0698  0.1772
   53GLOH    C3 8918   9.998   4.997   0.297 -0.0334  0.8548  0.4531
   53GLOH   H06 8919  10.065   5.003   0.212  1.4804 -1.6678  1.4233
   53GLOH   H07 8920   9.987   4.891   0.320 -0.0494  0.6271 -0.6167
   53GLOH    O3 8921  10.048   5.067   0.416 -0.4946 -0.6761 -0.1760
   53GLOH   H01 8922   9.994   5.143   0.443  2.5484  1.6307 -0.2414
   54GLOH   H03 8923   4.870   1.409   0.523 -0.1836  0.3027 -0.0713
   54GLOH    O1 8924   4.860   1.458   0.606 -0.3212 -0.0419  0.1196
   54GLOH    C1 8925   4.983   1.453   0.678 -0.2711 -0.7651  0.1090
   54GLOH   H02 8926   5.053   1.528   0.640  0.8538 -2.4533 -1.2183
   54GLOH   H08 8927   5.026   1.354   0.666 -0.8800 -0.9737 -0.3956
   54GLOH    C2 8928   4.971   1.477   0.829 -0.3381 -0.6939 -0.4109
   54GLOH   H04 8929   4.935   1.579   0.850 -1.5795 -0.3948 -3.6339
   54GLOH    O2 8930   4.888   1.379   0.898  0.1442 -0.8313 -0.0925
   54GLOH   H05 8931   4.879   1.298   0.846 -0.7872 -1.0826  0.4474
   54GLOH    C3 8932   5.114   1.476   0.892  0.1322 -0.6304  0.1776
   54GLOH   H06 8933   5.168   1.382   0.877  1.7019  0.5520 -1.7335
   54GLOH   H07 8934   5.098   1.476   1.000  0.6076  0.4298  0.2492
   54GLOH    O3 8935   5.203   1.584   0.852 -0.4085  0.2792  0.1509
   54GLOH   H01 8936   5.155   1.668   0.864 -2.0761 -0.1492 -2.8604
   55GLOH   H03 8937   2.182   0.551   2.579 -1.3541 -1.7980 -0.5914
   55GLOH    O1 8938   2.133   0.608   2.517  0.1811 -0.0861 -0.2881
   55GLOH    C1 8939   2.226   0.652   2.413  0.4854 -0.1470 -0.2600
   55GLOH   H02 8940   2.175   0.705   2.333  0.7537 -1.2781 -1.1884
   55GLOH   H08 8941   2.270   0.563   2.369  0.1914 -0.3298 -0.1797
   55GLOH    C2 8942   2.343   0.736   2.473 -0.0736  0.3441 -0.1752
   55GLOH   H04 8943   2.354   0.710   2.579  2.3923  1.1810 -0.2040
   55GLOH    O2 8944   2.462   0.719   2.404  0.5174  0.0783  0.6333
   55GLOH   H05 8945   2.536   0.755   2.455  0.0718  0.2610  1.1599
   55GLOH    C3 8946   2.295   0.878   2.472  0.0163  0.1183 -0.3377
   55GLOH   H06 8947   2.289   0.916   2.370  1.3940  2.3495  0.3625
   55GLOH   H07 8948   2.364   0.946   2.522  0.3684 -0.4299 -0.0840
   55GLOH    O3 8949   2.163   0.879   2.529 -0.2839 -0.9297 -0.2061
   55GLOH   H01 8950   2.117   0.801   2.493  2.0388 -1.6543 -1.7852
   56GLOH   H03 8951   9.594   4.661   0.617 -0.2629  0.0201 -0.4446
   56GLOH    O1 8952   9.666   4.603   0.648 -0.3137  0.2188  0.0537
   56GLOH    C1 8953   9.631   4.467   0.610 -0.3672  0.0015 -0.3317
   56GLOH   H02 8954   9.710   4.404   0.651 -0.5393 -0.4645 -0.7170
   56GLOH   H08 8955   9.651   4.451   0.504 -0.0976 -3.5296  0.2115
   56GLOH    C2 8956   9.498   4.423   0.672 -0.2707 -0.7403 -0.0658
   56GLOH   H04 8957   9.469   4.331   0.619  0.5501 -0.8445 -0.3429
   56GLOH    O2 8958   9.483   4.400   0.816 -0.0915 -0.4432  0.0706
   56GLOH   H05 8959   9.541   4.470   0.852 -0.7745  1.5727 -2.5641
   56GLOH    C3 8960   9.388   4.521   0.621 -0.1329  0.5186 -0.8593
   56GLOH   H06 8961   9.410   4.613   0.675 -0.7839 -0.5148  1.2448
   56GLOH   H07 8962   9.285   4.488   0.639  0.4772  0.0431  2.0094
   56GLOH    O3 8963   9.404   4.527   0.480 -0.3093  0.2672 -0.7594
   56GLOH   H01 8964   9.469   4.595   0.456  0.0219 -0.1642 -1.1006
   57GLOH   H03 8965   4.524   9.189   0.138  1.6437 -0.1896  1.4741
   57GLOH    O1 8966   4.500   9.098   0.162  0.4366 -0.3850 -0.3921
   57GLOH    C1 8967   4.384   9.103   0.248  0.2483  0.1024  0.2195
   57GLOH   H02 8968   4.367   9.204   0.284 -1.9677 -0.1626 -0.0638
   57GLOH   H08 8969   4.388   9.037   0.335 -0.1769  2.5600  2.1291
   57GLOH    C2 8970   4.252   9.054   0.184 -0.1521 -0.1400  0.0467
   57GLOH   H04 8971   4.178   9.041   0.264  1.4569 -3.1731  1.1235
   57GLOH    O2 8972   4.219   9.155   0.090 -0.0279  0.5179  0.1025
   57GLOH   H05 8973   4.145   9.209   0.123 -0.1993 -0.3880  1.2377
   57GLOH    C3 8974   4.274   8.919   0.122  0.0717 -0.1992 -0.1730
   57GLOH   H06 8975   4.333   8.929   0.031 -0.4052  1.7351 -0.2881
   57GLOH   H07 8976   4.178   8.886   0.083  0.0975  0.1025 -0.4889
   57GLOH    O3 8977   4.314   8.815   0.203 -0.7052  0.6789 -0.6038
   57GLOH   H01 8978   4.411   8.804   0.195 -0.5439  1.4926  0.1649
   58GLOH   H03 8979   3.169   5.972   1.588 -2.1311 -0.9453  1.5827
   58GLOH    O1 8980   3.243   5.964   1.650 -0.0588  0.2331 -0.6481
   58GLOH    C1 8981   3.235   6.078   1.736 -0.2698  0.1826  0.5876
   58GLOH   H02 8982   3.189   6.051   1.831  0.6012 -0.5753  0.7969
   58GLOH   H08 8983   3.176   6.159   1.692 -1.2469 -1.4968 -1.2583
   58GLOH    C2 8984   3.373   6.125   1.782  0.3797 -0.1275  1.0119
   58GLOH   H04 8985   3.440   6.150   1.698  2.3120 -2.9571  1.6833
   58GLOH    O2 8986   3.362   6.255   1.848  0.3832 -0.2301 -0.2441
   58GLOH   H05 8987   3.443   6.309   1.842 -1.0543  2.0697  0.3905
   58GLOH    C3 8988   3.426   6.015   1.874  0.0961  0.2355  0.1396
   58GLOH   H06 8989   3.372   6.017   1.968 -2.6800 -0.6099 -1.3667
   58GLOH   H07 8990   3.530   6.041   1.888 -0.0886  0.8848  0.2985
   58GLOH    O3 8991   3.415   5.883   1.815 -0.2555 -0.5056  0.1713
   58GLOH   H01 8992   3.350   5.887   1.743 -0.9626 -1.6101  0.7353
   59GLOH   H03 8993   5.436   4.420   0.153 -0.0760 -0.0812 -1.4910
   59GLOH    O1 8994   5.510   4.359   0.134  0.7317  0.3586  0.1567
   59GLOH    C1 8995   5.625   4.425   0.079  0.3272  0.6662  0.3572
   59GLOH   H02 8996   5.655   4.503   0.149  2.5878  2.0148 -2.0274
   59GLOH   H08 8997   5.608   4.474  -0.017  1.3509 -1.2117 -0.8247
   59GLOH    C2 8998   5.743   4.325   0.055  0.2902  1.0748 -0.3170
   59GLOH   H04 8999   5.826   4.375   0.004  1.6689 -1.7058 -0.9018
   59GLOH    O2 9000   5.795   4.284   0.187 -0.0317 -0.1916 -0.3378
   59GLOH   H05 9001   5.804   4.187   0.187 -0.2009 -0.2096 -0.9580
   59GLOH    C3 9002   5.705   4.213  -0.039  0.3159  0.2711  0.5805
   59GLOH   H06 9003   5.636   4.145   0.012 -1.2068  2.2778  1.2296
   59GLOH   H07 9004   5.790   4.145  -0.050  0.2106  0.0154  1.2933
   59GLOH    O3 9005   5.658   4.261  -0.165 -0.1591 -0.0214  0.6037
   59GLOH   H01 9006   5.570   4.300  -0.149  0.0344  0.6971 -0.0648
   60GLOH   H03 9007   4.845   3.593   0.860 -0.8732  0.1320 -0.4026
   60GLOH    O1 9008   4.849   3.501   0.891 -0.0565  0.3338  0.1023
   60GLOH    C1 9009   4.953   3.489   0.988  0.2044  0.2843 -0.2722
   60GLOH   H02 9010   4.931   3.553   1.073 -0.8710 -0.8774  0.3418
   60GLOH   H08 9011   5.051   3.515   0.947  0.3722  1.4256  0.8431
   60GLOH    C2 9012   4.950   3.344   1.037 -0.2877  0.4786 -0.1528
   60GLOH   H04 9013   4.976   3.282   0.950 -0.6306  0.4583 -0.2405
   60GLOH    O2 9014   5.052   3.307   1.127 -0.2054  0.0276  0.2246
   60GLOH   H05 9015   5.041   3.363   1.206  0.2680  3.2193 -1.9013
   60GLOH    C3 9016   4.811   3.303   1.087 -0.3270  0.6031  0.1652
   60GLOH   H06 9017   4.790   3.358   1.178 -2.5887 -1.9410  1.2542
   60GLOH   H07 9018   4.818   3.198   1.117 -2.6038  0.2109 -0.5870
   60GLOH    O3 9019   4.707   3.324   0.991 -0.0463 -0.3734 -0.0373
   60GLOH   H01 9020   4.737   3.398   0.935  0.8694 -0.7911 -0.1054
   61GLOH   H03 9021   3.954   5.919   2.587  0.6358 -1.5991 -1.8135
   61GLOH    O1 9022   3.977   6.004   2.544 -0.5160 -0.2458  0.1315
   61GLOH    C1 9023   3.862   6.088   2.556  0.1593  0.1955 -0.1220
   61GLOH   H02 9024   3.876   6.196   2.551  2.9415 -0.1464 -0.3438
   61GLOH   H08 9025   3.808   6.074   2.650 -0.4746  2.5780 -0.0966
   61GLOH    C2 9026   3.766   6.054   2.439  0.2663 -0.4600  0.4970
   61GLOH   H04 9027   3.755   5.945   2.449 -1.1319 -0.2564  1.2815
   61GLOH    O2 9028   3.633   6.107   2.458 -0.0297  0.2249  0.4771
   61GLOH   H05 9029   3.585   6.022   2.461 -2.1642  1.4118  1.6577
   61GLOH    C3 9030   3.829   6.110   2.307 -0.6986  0.2237  0.0959
   61GLOH   H06 9031   3.921   6.058   2.279 -1.0274 -0.0912 -0.4027
   61GLOH   H07 9032   3.849   6.216   2.320  0.1151  0.0916 -0.0602
   61GLOH    O3 9033   3.736   6.097   2.199 -0.6134  0.5072 -0.1261
   61GLOH   H01 9034   3.734   6.008   2.159  0.8273  0.1679  0.5349
   62GLOH   H03 9035   3.604   2.225   0.098 -1.0903  2.3499 -1.7137
   62GLOH    O1 9036   3.646   2.231   0.010  0.1442 -0.4262 -1.3593
   62GLOH    C1 9037   3.708   2.362  -0.005  0.2752  0.1087  0.6364
   62GLOH   H02 9038   3.761   2.360  -0.100  1.6438  0.8710  1.3699
   62GLOH   H08 9039   3.790   2.386   0.063  0.7305 -2.2165  0.9455
   62GLOH    C2 9040   3.619   2.488  -0.020  0.1920  0.8350  0.1969
   62GLOH   H04 9041   3.592   2.524   0.081 -3.3269  0.2685 -0.4801
   62GLOH    O2 9042   3.697   2.588  -0.083  0.2173  0.1322  0.0570
   62GLOH   H05 9043   3.639   2.666  -0.070  0.0408 -0.3137  2.1040
   62GLOH    C3 9044   3.489   2.462  -0.096  0.1740 -0.0476 -0.1290
   62GLOH   H06 9045   3.437   2.379  -0.048 -0.2944  1.0867  1.4169
   62GLOH   H07 9046   3.514   2.441  -0.199  2.5912  1.8937  0.0038
   62GLOH    O3 9047   3.408   2.581  -0.089  0.7664 -0.7320  0.1489
   62GLOH   H01 9048   3.321   2.562  -0.130  0.4759 -2.1285  1.3823
   63GLOH   H03 9049   0.730   4.381   2.243  1.0908 -0.4066 -0.3869
   63GLOH    O1 9050   0.741   4.440   2.319 -0.4333  0.1157 -0.5673
   63GLOH    C1 9051   0.597   4.449   2.348 -0.5947  0.0022  0.2859
   63GLOH   H02 9052   0.556   4.357   2.391  0.7665 -0.8779 -0.2624
   63GLOH   H08 9053   0.536   4.468   2.260 -0.4633  0.2034  0.2385
   63GLOH    C2 9054   0.559   4.573   2.429 -0.5620 -1.1753  1.0931
   63GLOH   H04 9055   0.604   4.555   2.528 -0.8741  0.7797  1.6054
   63GLOH    O2 9056   0.616   4.689   2.367  0.6513 -0.3043 -0.2380
   63GLOH   H05 9057   0.567   4.714   2.287 -3.3484  0.2950  2.2726
   63GLOH    C3 9058   0.410   4.591   2.442 -0.3240 -0.7226  0.1060
   63GLOH   H06 9059   0.354   4.603   2.349  1.0086 -0.1723 -0.6498
   63GLOH   H07 9060   0.392   4.684   2.496  0.8758  0.8985 -2.1732
   63GLOH    O3 9061   0.351   4.480   2.514  0.4668 -0.2235  0.4660
   63GLOH   H01 9062   0.357   4.509   2.607  0.7789 -0.8764  0.6544
   64GLOH   H03 9063   9.617   4.561   1.611  1.5678  1.1872  0.7141
   64GLOH    O1 9064   9.593   4.623   1.539  0.1671  0.0769  0.1930
   64GLOH    C1 9065   9.500   4.735   1.579 -0.2066  0.1832  0.0188
   64GLOH   H02 9066   9.498   4.803   1.494  0.2755 -1.1379 -1.0796
   64GLOH   H08 9067   9.553   4.784   1.660  1.1430  0.9617 -1.3164
   64GLOH    C2 9068   9.351   4.700   1.607  0.0332 -0.2146  0.6797
   64GLOH   H04 9069   9.316   4.643   1.519 -0.3925  0.9811  0.0728
   64GLOH    O2 9070   9.332   4.626   1.724 -0.2360  0.1501  0.6985
   64GLOH   H05 9071   9.366   4.538   1.701  0.8780  0.7653 -0.0282
   64GLOH    C3 9072   9.286   4.841   1.607  0.4216 -0.1554 -0.5244
   64GLOH   H06 9073   9.180   4.826   1.628 -0.0695  0.6268 -2.3584
   64GLOH   H07 9074   9.285   4.888   1.509  1.0738 -0.9462 -0.9149
   64GLOH    O3 9075   9.339   4.930   1.708 -0.2982 -0.8239  0.2068
   64GLOH   H01 9076   9.341   4.883   1.793 -0.4787  0.5816  1.0052
   65GLOH   H03 9077   3.104   9.138   1.624  1.1066  0.4799  0.0162
   65GLOH    O1 9078   3.106   9.235   1.611  0.0804  0.4533 -0.4503
   65GLOH    C1 9079   3.224   9.285   1.554 -0.1401  0.3405 -0.1733
   65GLOH   H02 9080   3.298   9.208   1.534  0.6116  0.2734  2.6364
   65GLOH   H08 9081   3.283   9.342   1.626  1.2424 -1.2067 -0.0612
   65GLOH    C2 9082   3.197   9.365   1.428  0.1593  0.6090 -0.0671
   65GLOH   H04 9083   3.145   9.459   1.452  1.0316  1.0599  0.0954
   65GLOH    O2 9084   3.319   9.407   1.372 -0.3762  0.2632  0.7005
   65GLOH   H05 9085   3.313   9.472   1.300 -1.1075 -1.5204 -0.8976
   65GLOH    C3 9086   3.128   9.297   1.315 -0.7013 -0.0564  0.0628
   65GLOH   H06 9087   3.180   9.203   1.299 -0.7174  0.0169 -0.4297
   65GLOH   H07 9088   3.139   9.366   1.231  1.7233  0.8733  1.1200
   65GLOH    O3 9089   2.995   9.261   1.340  0.2695 -0.1498 -0.7955
   65GLOH   H01 9090   2.995   9.195   1.412 -1.1837 -1.5275 -2.0134
   66GLOH   H03 9091   4.994  10.335   1.232  1.1535  1.5061  1.5563
   66GLOH    O1 9092   5.044  10.355   1.150 -0.6696 -0.5006 -0.0977
   66GLOH    C1 9093   5.100  10.485   1.162 -0.4228 -0.2086 -0.5373
   66GLOH   H02 9094   5.197  10.488   1.111  0.2428  1.2444  0.7513
   66GLOH   H08 9095   5.135  10.490   1.265  3.6483 -0.7298 -1.8018
   66GLOH    C2 9096   5.001  10.583   1.102 -0.0766  0.1266  0.2308
   66GLOH   H04 9097   4.898  10.568   1.138 -0.9684  0.3142 -2.1446
   66GLOH    O2 9098   5.050  10.720   1.131 -0.2063 -0.0613 -0.3986
   66GLOH   H05 9099   4.981  10.776   1.092 -0.2302 -0.4997 -1.0134
   66GLOH    C3 9100   4.997  10.559   0.947 -0.5453 -0.2399  0.1934
   66GLOH   H06 9101   5.086  10.588   0.892  0.2858  0.6048  1.9362
   66GLOH   H07 9102   4.917  10.628   0.919  1.2339  1.9988  0.4548
   66GLOH    O3 9103   4.963  10.419   0.920 -0.2619 -0.4027 -0.2213
   66GLOH   H01 9104   4.998  10.364   0.992 -1.5605  0.1239  0.8168
   67GLOH   H03 9105  10.455   5.310   0.461 -1.6401 -1.3318  0.2118
   67GLOH    O1 9106  10.441   5.309   0.557 -0.7754  0.1522  0.3642
   67GLOH    C1 9107  10.550   5.228   0.612 -0.4839 -0.8390 -0.2744
   67GLOH   H02 9108  10.623   5.299   0.651 -1.5550  1.2789 -1.9921
   67GLOH   H08 9109  10.585   5.153   0.541 -0.0046 -1.0474  0.1817
   67GLOH    C2 9110  10.497   5.140   0.723 -0.0717  0.0814  0.0284
   67GLOH   H04 9111  10.586   5.080   0.749  1.5423  2.7210  0.7764
   67GLOH    O2 9112  10.462   5.213   0.836 -0.8883 -0.0497  0.0683
   67GLOH   H05 9113  10.533   5.212   0.903 -1.1043 -0.9546  0.2994
   67GLOH    C3 9114  10.380   5.048   0.685 -0.1393  0.0551 -0.3777
   67GLOH   H06 9115  10.321   5.095   0.606 -1.1776  0.4465  0.6078
   67GLOH   H07 9116  10.319   5.040   0.775 -2.2433 -3.2144 -1.9860
   67GLOH    O3 9117  10.424   4.912   0.658 -0.6915 -0.1409  0.4639
   67GLOH   H01 9118  10.461   4.899   0.569  1.6818  1.3877  1.1809
   68GLOH   H03 9119   3.371   2.178   2.437 -0.1134  0.9471  1.2092
   68GLOH    O1 9120   3.426   2.110   2.481 -0.4570 -0.0216  0.1562
   68GLOH    C1 9121   3.416   2.002   2.383  0.4845 -0.1459 -0.4982
   68GLOH   H02 9122   3.454   2.034   2.286  0.3850 -1.1262 -0.8636
   68GLOH   H08 9123   3.311   1.979   2.367  0.6778 -1.8273  0.4926
   68GLOH    C2 9124   3.494   1.875   2.425  1.2727  0.1330  0.2976
   68GLOH   H04 9125   3.450   1.832   2.516 -2.0811 -1.6107 -2.0421
   68GLOH    O2 9126   3.509   1.775   2.318 -0.4678  0.5533  0.1067
   68GLOH   H05 9127   3.536   1.695   2.366 -0.0829  0.5170 -0.1690
   68GLOH    C3 9128   3.634   1.911   2.467 -0.6056 -0.0342 -0.4149
   68GLOH   H06 9129   3.672   1.981   2.393 -2.0287  3.4723  2.0124
   68GLOH   H07 9130   3.703   1.828   2.475  0.5957  0.8858 -1.0027
   68GLOH    O3 9131   3.620   1.976   2.594  0.6265 -0.0140 -0.2957
   68GLOH   H01 9132   3.565   2.054   2.574  1.8762  1.0205  0.2191
   69GLOH   H03 9133   5.401   4.073   0.209  0.5572  0.0651 -0.0805
   69GLOH    O1 9134   5.313   4.033   0.194  0.4425  0.6160 -0.9315
   69GLOH    C1 9135   5.264   4.081   0.074 -0.1420 -0.1015  0.1437
   69GLOH   H02 9136   5.188   4.017   0.028  0.3322  0.0385 -0.8343
   69GLOH   H08 9137   5.334   4.092  -0.008 -0.7185  0.1361 -0.3250
   69GLOH    C2 9138   5.196   4.217   0.088  0.3704  0.0249  0.0152
   69GLOH   H04 9139   5.259   4.297   0.130  0.8607 -0.2649 -0.1605
   69GLOH    O2 9140   5.138   4.260  -0.041  0.0217 -0.1480 -0.0120
   69GLOH   H05 9141   5.072   4.194  -0.070 -0.4408 -0.1810  1.0798
   69GLOH    C3 9142   5.079   4.194   0.184 -0.1625 -0.1187  0.4050
   69GLOH   H06 9143   5.117   4.162   0.281  0.3737 -0.7788 -0.0201
   69GLOH   H07 9144   5.013   4.116   0.147 -0.7340  0.9342 -0.8367
   69GLOH    O3 9145   5.009   4.316   0.203  0.1679 -0.0254 -0.4278
   69GLOH   H01 9146   4.919   4.295   0.236 -0.0123  2.9996  1.2307
   70GLOH   H03 9147   5.664   3.854   0.395 -2.2177  1.9926 -2.5014
   70GLOH    O1 9148   5.736   3.919   0.383  0.1191 -0.1009 -0.6244
   70GLOH    C1 9149   5.695   4.043   0.451 -0.3250 -0.6798 -0.4250
   70GLOH   H02 9150   5.766   4.123   0.428 -0.0712  0.2184  3.1874
   70GLOH   H08 9151   5.702   4.027   0.558 -1.6759 -1.3356 -0.4216
   70GLOH    C2 9152   5.561   4.102   0.404 -0.8720 -0.1414 -0.9054
   70GLOH   H04 9153   5.571   4.206   0.440 -2.6557 -0.2894  0.0802
   70GLOH    O2 9154   5.545   4.101   0.258 -0.4246 -0.0367 -0.2806
   70GLOH   H05 9155   5.578   4.180   0.213  0.3190 -0.0953  0.1313
   70GLOH    C3 9156   5.439   4.041   0.474 -0.4662 -0.5418  0.0232
   70GLOH   H06 9157   5.423   3.942   0.431 -3.3656  0.3695 -1.1609
   70GLOH   H07 9158   5.353   4.100   0.442 -0.1082 -0.4728 -0.8196
   70GLOH    O3 9159   5.451   4.039   0.619  0.2690 -0.4285 -0.7801
   70GLOH   H01 9160   5.518   3.972   0.641  0.3806  0.0158  0.2130
   71GLOH   H03 9161   0.975   5.195   1.538 -3.5874  0.8675  1.4913
   71GLOH    O1 9162   0.980   5.099   1.548  0.1330  0.8749  0.4054
   71GLOH    C1 9163   0.868   5.065   1.628  0.4971  0.1012 -0.2236
   71GLOH   H02 9164   0.858   5.131   1.714  1.1182  0.5133 -0.4649
   71GLOH   H08 9165   0.874   4.963   1.664  1.2800  0.5317  0.8907
   71GLOH    C2 9166   0.731   5.060   1.558 -0.0845 -0.0510  0.1666
   71GLOH   H04 9167   0.741   4.980   1.484 -0.8057 -1.4946  1.5968
   71GLOH    O2 9168   0.624   5.030   1.653  0.5251 -0.7260 -0.0279
   71GLOH   H05 9169   0.653   4.985   1.734 -1.2032  0.1410  1.1174
   71GLOH    C3 9170   0.701   5.196   1.490 -0.0603 -0.5914 -0.2110
   71GLOH   H06 9171   0.610   5.174   1.434 -0.6717 -0.9142  0.8905
   71GLOH   H07 9172   0.773   5.222   1.412 -0.7367  1.9919 -0.0022
   71GLOH    O3 9173   0.675   5.313   1.575 -0.2313  0.1689 -0.6565
   71GLOH   H01 9174   0.600   5.303   1.636 -0.9093 -0.3069 -1.5418
   72GLOH   H03 9175   1.666   3.806   2.132  0.2384 -2.2275  1.3671
   72GLOH    O1 9176   1.680   3.759   2.048 -0.0700 -0.0207  0.0359
   72GLOH    C1 9177   1.788   3.814   1.968 -0.7204 -0.1909  0.4179
   72GLOH   H02 9178   1.782   3.774   1.867  0.1018 -0.2828  0.4101
   72GLOH   H08 9179   1.881   3.778   2.012  0.3432  3.2625  1.1578
   72GLOH    C2 9180   1.795   3.965   1.966  0.0316  0.1791  0.1529
   72GLOH   H04 9181   1.797   3.998   2.070 -2.7533 -0.5433  0.4671
   72GLOH    O2 9182   1.918   4.005   1.895 -0.3942  0.2909  0.7100
   72GLOH   H05 9183   1.963   4.074   1.947  2.6620 -0.6846 -0.4896
   72GLOH    C3 9184   1.670   4.026   1.895 -1.0499  0.6255  0.6883
   72GLOH   H06 9185   1.669   3.990   1.792 -4.7573 -0.9582  1.1684
   72GLOH   H07 9186   1.674   4.135   1.896 -1.1305  0.6282  0.7023
   72GLOH    O3 9187   1.544   3.971   1.940  0.2025 -0.8498  0.0892
   72GLOH   H01 9188   1.559   3.881   1.973  0.3001 -0.8176  0.1340
   73GLOH   H03 9189   4.319   5.342   0.291 -3.6911  1.5436 -0.4776
   73GLOH    O1 9190   4.363   5.421   0.253  0.2502 -0.3251 -0.0363
   73GLOH    C1 9191   4.270   5.491   0.167 -0.3406  0.5635 -0.3293
   73GLOH   H02 9192   4.306   5.586   0.127 -1.0128  0.3436 -1.4883
   73GLOH   H08 9193   4.179   5.511   0.224 -0.0572 -0.2673  0.4297
   73GLOH    C2 9194   4.225   5.399   0.052 -0.2979  0.2079  0.1003
   73GLOH   H04 9195   4.315   5.377  -0.007 -0.9560 -0.7694 -0.5396
   73GLOH    O2 9196   4.168   5.280   0.099  0.9376  0.5309  0.4591
   73GLOH   H05 9197   4.244   5.221   0.112 -0.3694 -2.0001 -2.7759
   73GLOH    C3 9198   4.130   5.473  -0.043  0.6889  0.6432 -0.4142
   73GLOH   H06 9199   4.060   5.525   0.023 -1.8913 -0.3139 -2.3127
   73GLOH   H07 9200   4.071   5.407  -0.107  0.2196  1.1043 -0.4622
   73GLOH    O3 9201   4.198   5.579  -0.112  0.5241  0.4417  0.2760
   73GLOH   H01 9202   4.207   5.557  -0.207  0.5224  2.0287 -0.0989
   74GLOH   H03 9203  10.424   5.125   1.779  0.0940  0.3883  1.0321
   74GLOH    O1 9204  10.349   5.083   1.825 -0.1156 -0.2476  0.1277
   74GLOH    C1 9205  10.225   5.131   1.770  0.4315 -0.0308 -0.1073
   74GLOH   H02 9206  10.147   5.159   1.841  1.4900 -0.0739  1.0967
   74GLOH   H08 9207  10.187   5.050   1.707 -1.9095 -0.3494  1.6561
   74GLOH    C2 9208  10.239   5.246   1.673 -0.6169  0.2679 -0.0529
   74GLOH   H04 9209  10.298   5.209   1.588 -1.4615  0.1931 -0.6202
   74GLOH    O2 9210  10.112   5.298   1.635  0.4073 -0.0762 -0.3794
   74GLOH   H05 9211  10.126   5.383   1.591 -3.8869  0.4881 -0.8440
   74GLOH    C3 9212  10.322   5.360   1.738 -0.4642 -0.3086  0.1594
   74GLOH   H06 9213  10.265   5.390   1.826  1.6438 -0.0793  1.5023
   74GLOH   H07 9214  10.334   5.441   1.666  1.4469 -0.7414 -0.0383
   74GLOH    O3 9215  10.456   5.327   1.783 -0.6251 -0.2243  0.3597
   74GLOH   H01 9216  10.445   5.293   1.874 -0.4353 -1.0056  0.0947
   75GLOH   H03 9217  10.249   4.024   2.619  0.3877  0.5276  1.0664
   75GLOH    O1 9218  10.245   3.935   2.659 -0.0962  0.4194  0.7808
   75GLOH    C1 9219  10.258   3.837   2.546  0.0693 -0.5829 -0.3142
   75GLOH   H02 9220  10.358   3.828   2.503 -0.0794 -1.0220 -0.5740
   75GLOH   H08 9221  10.185   3.847   2.466 -0.8941 -0.8911  0.5089
   75GLOH    C2 9222  10.231   3.696   2.599 -0.0093  0.4662 -0.0593
   75GLOH   H04 9223  10.126   3.689   2.633 -0.8389  1.6686 -2.2592
   75GLOH    O2 9224  10.241   3.602   2.488  0.2634  0.5730 -0.6234
   75GLOH   H05 9225  10.333   3.576   2.470 -0.1203  0.2995 -2.3147
   75GLOH    C3 9226  10.320   3.652   2.714  0.1307  0.2202  0.2409
   75GLOH   H06 9227  10.303   3.547   2.737  0.8535 -0.2109 -1.1067
   75GLOH   H07 9228  10.285   3.704   2.803 -1.5111 -0.2521 -0.1219
   75GLOH    O3 9229  10.457   3.686   2.692  0.2519 -0.2617 -1.2801
   75GLOH   H01 9230  10.476   3.659   2.601 -0.7843 -0.8902 -1.3221
   76GLOH   H03 9231   2.030   1.983   1.546  2.6744 -0.5141  1.2680
   76GLOH    O1 9232   2.000   1.892   1.531  0.1446  0.4285  0.2577
   76GLOH    C1 9233   2.071   1.835   1.416  0.1263  0.3455 -0.1202
   76GLOH   H02 9234   2.122   1.913   1.358 -1.8774 -0.4192 -2.9993
   76GLOH   H08 9235   2.001   1.783   1.351 -0.7453 -0.0706  1.1302
   76GLOH    C2 9236   2.188   1.734   1.453  0.0728  1.1460 -0.0014
   76GLOH   H04 9237   2.137   1.641   1.481 -0.5900  1.5889  0.2834
   76GLOH    O2 9238   2.267   1.701   1.338 -0.2636  0.2846 -0.0668
   76GLOH   H05 9239   2.214   1.664   1.265 -1.7040  0.6633  0.7632
   76GLOH    C3 9240   2.272   1.784   1.570  0.0404 -0.8971 -1.0873
   76GLOH   H06 9241   2.355   1.716   1.584  0.4214 -0.1052  0.5741
   76GLOH   H07 9242   2.209   1.785   1.658 -1.0304 -0.9266 -1.8397
   76GLOH    O3 9243   2.303   1.923   1.558 -0.2032  0.0099  0.5317
   76GLOH   H01 9244   2.386   1.919   1.507 -0.2968  1.0756  0.2694
   77GLOH   H03 9245   2.975   3.121   2.038 -2.2399  2.1238 -0.3718
   77GLOH    O1 9246   2.989   3.115   1.942  0.1674  0.0184  0.0603
   77GLOH    C1 9247   2.883   3.188   1.876 -0.3117  0.4600  0.1009
   77GLOH   H02 9248   2.889   3.181   1.768  0.2841 -2.1824  0.2765
   77GLOH   H08 9249   2.891   3.294   1.901  2.6385  0.3208 -0.1297
   77GLOH    C2 9250   2.747   3.144   1.934  0.2115  0.6461  0.5892
   77GLOH   H04 9251   2.750   3.034   1.938 -0.4440  0.6505  1.2904
   77GLOH    O2 9252   2.725   3.188   2.073  0.0290  0.1960 -0.1855
   77GLOH   H05 9253   2.809   3.177   2.119  0.3516  0.2849 -0.7380
   77GLOH    C3 9254   2.633   3.208   1.850 -0.2670 -0.2239  0.1242
   77GLOH   H06 9255   2.636   3.317   1.837 -0.2202 -0.0476  1.4715
   77GLOH   H07 9256   2.535   3.174   1.886 -0.1992 -1.3999 -0.7834
   77GLOH    O3 9257   2.635   3.151   1.714 -0.1291 -0.2017 -0.1403
   77GLOH   H01 9258   2.548   3.162   1.673 -1.2721 -0.5520  2.1225
   78GLOH   H03 9259   5.674   2.974   1.715 -1.4118  0.6435  0.7872
   78GLOH    O1 9260   5.726   3.043   1.670  0.0874 -0.6827  0.4446
   78GLOH    C1 9261   5.685   3.166   1.734 -0.2068  0.0249 -0.4503
   78GLOH   H02 9262   5.737   3.179   1.829 -1.3130  1.4003 -0.0044
   78GLOH   H08 9263   5.577   3.169   1.752  0.2629 -1.7257  3.0619
   78GLOH    C2 9264   5.725   3.287   1.645  0.7319 -0.6787  0.1576
   78GLOH   H04 9265   5.704   3.373   1.710  0.6358  0.6061 -1.5525
   78GLOH    O2 9266   5.864   3.290   1.618 -0.1792 -0.9282  0.8557
   78GLOH   H05 9267   5.904   3.202   1.627 -1.4392 -1.4623  1.2780
   78GLOH    C3 9268   5.647   3.296   1.510  0.4120  0.4202 -0.0401
   78GLOH   H06 9269   5.541   3.267   1.515  0.5113 -0.1938 -1.4620
   78GLOH   H07 9270   5.693   3.223   1.444  0.5641  0.5656 -0.0930
   78GLOH    O3 9271   5.664   3.426   1.455 -0.5949 -0.8287 -0.3289
   78GLOH   H01 9272   5.751   3.427   1.411  0.4668  0.9065  1.7438
   79GLOH   H03 9273   3.827   1.821   0.855 -1.4672 -0.7378 -0.0725
   79GLOH    O1 9274   3.848   1.769   0.776 -0.0411  0.4903 -0.5181
   79GLOH    C1 9275   3.980   1.725   0.733 -0.1223 -0.5902 -1.1681
   79GLOH   H02 9276   3.964   1.657   0.649 -0.5044 -0.5813 -1.1012
   79GLOH   H08 9277   4.033   1.675   0.814  2.2147 -0.2220 -2.4138
   79GLOH    C2 9278   4.073   1.838   0.681 -0.5863  0.1840  0.3485
   79GLOH   H04 9279   4.098   1.899   0.769 -0.2590 -0.0447  0.4107
   79GLOH    O2 9280   4.200   1.789   0.631  0.5252  0.3299  0.0388
   79GLOH   H05 9281   4.220   1.839   0.549 -1.2412 -1.4846 -1.5417
   79GLOH    C3 9282   4.003   1.925   0.581  0.7419 -0.0563 -0.4814
   79GLOH   H06 9283   4.067   2.008   0.550  0.1803 -0.2878 -2.3500
   79GLOH   H07 9284   3.914   1.973   0.623  0.7010  1.3714 -2.1466
   79GLOH    O3 9285   3.966   1.844   0.462 -0.0991 -0.9823 -0.2331
   79GLOH   H01 9286   4.031   1.774   0.443 -1.0459 -0.8218 -4.3282
   80GLOH   H03 9287   3.666   4.899   1.017  0.9051 -3.4728  1.2388
   80GLOH    O1 9288   3.585   4.876   0.969  0.3569 -0.5782  0.6611
   80GLOH    C1 9289   3.577   4.945   0.846  0.4413  0.0618  0.7563
   80GLOH   H02 9290   3.636   5.037   0.845  0.2667  0.1811 -1.2172
   80GLOH   H08 9291   3.475   4.978   0.827  0.3327 -0.7108 -0.0589
   80GLOH    C2 9292   3.640   4.869   0.729 -0.1921  0.0926 -0.1525
   80GLOH   H04 9293   3.626   4.942   0.649  0.0799  2.5470  1.9645
   80GLOH    O2 9294   3.778   4.847   0.739  0.7762  0.3215  0.1945
   80GLOH   H05 9295   3.814   4.926   0.783 -2.2629 -0.1891  3.8058
   80GLOH    C3 9296   3.562   4.737   0.695  0.5549 -0.5139  0.0245
   80GLOH   H06 9297   3.546   4.666   0.776 -1.3917 -0.5721 -0.3989
   80GLOH   H07 9298   3.610   4.687   0.611  1.1523  2.1702 -1.2759
   80GLOH    O3 9299   3.433   4.776   0.645  0.1155 -0.0531  0.0059
   80GLOH   H01 9300   3.396   4.703   0.591  0.7556  0.2990 -0.9218
   81GLOH   H03 9301   1.632   3.874   0.298 -1.0001 -1.5330 -2.8737
   81GLOH    O1 9302   1.729   3.870   0.291 -0.6232  0.5606  0.1384
   81GLOH    C1 9303   1.787   3.793   0.396 -0.4536 -0.0341 -0.5121
   81GLOH   H02 9304   1.721   3.710   0.422  0.8911  0.0292  3.4765
   81GLOH   H08 9305   1.807   3.847   0.489 -0.4696 -0.8243 -0.0467
   81GLOH    C2 9306   1.923   3.746   0.352 -0.2854  0.2687  0.4740
   81GLOH   H04 9307   1.976   3.834   0.313  0.0264 -0.8073 -1.5629
   81GLOH    O2 9308   2.001   3.686   0.464  0.1619  0.2802  0.1376
   81GLOH   H05 9309   2.092   3.721   0.469  1.0433 -1.7020 -1.2786
   81GLOH    C3 9310   1.917   3.652   0.233  0.1384 -0.6684 -0.0026
   81GLOH   H06 9311   1.863   3.562   0.263  1.2187 -0.2780  3.3235
   81GLOH   H07 9312   2.014   3.619   0.197 -0.4282 -3.2094  0.7274
   81GLOH    O3 9313   1.859   3.730   0.131 -0.1038  0.5550 -0.5671
   81GLOH   H01 9314   1.788   3.785   0.170 -1.8904  0.0460 -2.9806
   82GLOH   H03 9315   2.805   3.483   1.628 -0.7720 -0.3866  0.5985
   82GLOH    O1 9316   2.860   3.549   1.675 -0.2752 -0.4512  0.1222
   82GLOH    C1 9317   2.801   3.556   1.803 -0.3512 -0.1296  0.7621
   82GLOH   H02 9318   2.870   3.587   1.882  0.3841  0.7970 -0.2368
   82GLOH   H08 9319   2.770   3.460   1.844  0.0308 -1.1584 -1.3192
   82GLOH    C2 9320   2.688   3.648   1.793 -0.3481  0.0589 -0.3973
   82GLOH   H04 9321   2.610   3.610   1.725  0.6328 -2.0991 -0.3592
   82GLOH    O2 9322   2.638   3.673   1.929 -0.0105 -0.0717 -0.1226
   82GLOH   H05 9323   2.667   3.764   1.945  2.3184 -0.4878 -1.8302
   82GLOH    C3 9324   2.727   3.782   1.731 -0.1704 -0.4539  0.4258
   82GLOH   H06 9325   2.638   3.845   1.722  0.7141  0.5160 -1.7618
   82GLOH   H07 9326   2.765   3.756   1.633 -0.0875 -0.4113  0.4468
   82GLOH    O3 9327   2.831   3.847   1.805 -0.0072 -0.0138 -0.3698
   82GLOH   H01 9328   2.814   3.942   1.819 -0.7555 -0.6514  3.9021
   83GLOH   H03 9329   4.568   8.282   0.095  1.3524 -0.4008  1.3157
   83GLOH    O1 9330   4.606   8.336   0.023 -0.4449 -0.2338  0.4459
   83GLOH    C1 9331   4.574   8.471   0.045  0.3617 -0.2256  0.2926
   83GLOH   H02 9332   4.657   8.527   0.087 -0.7377  3.2806 -2.0144
   83GLOH   H08 9333   4.485   8.475   0.107  1.0593  0.1923  1.2697
   83GLOH    C2 9334   4.544   8.537  -0.094 -0.1400 -0.3170  0.2766
   83GLOH   H04 9335   4.455   8.483  -0.131  0.8355 -1.2258 -0.8159
   83GLOH    O2 9336   4.523   8.682  -0.085  0.4983 -0.2857  0.0419
   83GLOH   H05 9337   4.567   8.708  -0.002 -1.0300  1.2571  0.3929
   83GLOH    C3 9338   4.658   8.508  -0.193  0.3303 -0.4966 -0.1548
   83GLOH   H06 9339   4.753   8.553  -0.165  0.7996 -0.8629 -1.1182
   83GLOH   H07 9340   4.635   8.548  -0.292 -0.7515 -0.5852  0.0515
   83GLOH    O3 9341   4.694   8.370  -0.209  0.3518 -0.3170  0.1287
   83GLOH   H01 9342   4.688   8.322  -0.125 -1.1181 -1.0505 -0.3833
   84GLOH   H03 9343   9.831   4.646   1.431 -1.6840 -1.2821 -0.8681
   84GLOH    O1 9344   9.887   4.567   1.435  0.1784  0.0292 -0.0061
   84GLOH    C1 9345  10.019   4.601   1.394 -0.3925 -0.4200  0.3717
   84GLOH   H02 9346  10.014   4.687   1.327  1.2558 -0.5945  0.0179
   84GLOH   H08 9347  10.066   4.514   1.347 -1.3191 -0.8527  0.2216
   84GLOH    C2 9348  10.112   4.637   1.517 -0.3567  0.2398  0.0657
   84GLOH   H04 9349  10.100   4.565   1.599 -0.0610  0.3807  0.2331
   84GLOH    O2 9350  10.252   4.635   1.467  0.1132  0.4108  0.1030
   84GLOH   H05 9351  10.281   4.542   1.465 -0.8939  0.1106 -0.3662
   84GLOH    C3 9352  10.075   4.769   1.589  0.2806 -0.3107  0.4833
   84GLOH   H06 9353  10.069   4.847   1.513 -0.3557 -0.2576  0.5872
   84GLOH   H07 9354  10.160   4.797   1.651 -0.8047 -0.2861  1.9853
   84GLOH    O3 9355   9.957   4.776   1.671 -0.3166  0.2831 -0.1970
   84GLOH   H01 9356   9.988   4.741   1.756 -0.9190  0.7508  0.2193
   85GLOH   H03 9357   4.713   3.514   1.361  0.3505  0.4198  4.7315
   85GLOH    O1 9358   4.642   3.581   1.366 -0.5848 -0.0782 -0.1525
   85GLOH    C1 9359   4.519   3.511   1.376  0.2731  0.4910  0.5929
   85GLOH   H02 9360   4.534   3.405   1.391  0.2102  0.7052  2.2561
   85GLOH   H08 9361   4.461   3.521   1.284  2.3250  0.6903 -0.7220
   85GLOH    C2 9362   4.426   3.575   1.475 -0.6985 -0.1267 -0.2324
   85GLOH   H04 9363   4.397   3.678   1.447  1.7266  0.1363 -1.9721
   85GLOH    O2 9364   4.300   3.497   1.478 -0.2869 -0.3995  0.4330
   85GLOH   H05 9365   4.227   3.532   1.531  0.6958  1.9148  0.3200
   85GLOH    C3 9366   4.490   3.570   1.617 -0.2233  0.3695 -0.4846
   85GLOH   H06 9367   4.477   3.470   1.658  0.0614  0.3075 -0.5416
   85GLOH   H07 9368   4.430   3.635   1.681 -1.6561 -0.2154 -1.2204
   85GLOH    O3 9369   4.626   3.616   1.630 -0.2594 -0.1030 -0.3841
   85GLOH   H01 9370   4.647   3.685   1.564  3.8931  0.0766  0.9870
   86GLOH   H03 9371   3.597   7.078   1.322  2.0658 -1.0259 -0.8643
   86GLOH    O1 9372   3.624   7.171   1.322 -0.0206 -0.3850 -0.3866
   86GLOH    C1 9373   3.545   7.233   1.430  0.1208  0.2705  0.2824
   86GLOH   H02 9374   3.442   7.197   1.440  0.2357  0.2520  1.3732
   86GLOH   H08 9375   3.535   7.341   1.422  0.2470  0.3292  0.9062
   86GLOH    C2 9376   3.603   7.207   1.567 -0.0807 -0.3676 -0.0133
   86GLOH   H04 9377   3.709   7.238   1.560 -0.0092 -0.2207  1.5703
   86GLOH    O2 9378   3.534   7.276   1.668 -0.6172  0.2675  0.1173
   86GLOH   H05 9379   3.525   7.370   1.644 -0.3090  0.0038 -1.0313
   86GLOH    C3 9380   3.606   7.056   1.583 -0.3196 -0.2062 -0.1950
   86GLOH   H06 9381   3.655   7.041   1.680  3.4221  1.6111 -1.7359
   86GLOH   H07 9382   3.683   7.022   1.514  0.4877  1.3371 -0.0744
   86GLOH    O3 9383   3.482   6.979   1.577 -0.4088  0.0064  0.3282
   86GLOH   H01 9384   3.500   6.905   1.516  1.1119  0.4223  0.2636
   87GLOH   H03 9385   2.388   1.411   0.906  1.0714 -0.8726  2.9812
   87GLOH    O1 9386   2.415   1.320   0.883 -0.1437 -0.4703 -0.3129
   87GLOH    C1 9387   2.333   1.232   0.956  0.2120  0.6522 -0.4651
   87GLOH   H02 9388   2.230   1.224   0.922 -0.5420 -1.5346  2.2029
   87GLOH   H08 9389   2.325   1.261   1.061 -1.7447 -1.7367  0.0765
   87GLOH    C2 9390   2.395   1.094   0.948 -0.5952 -0.1990 -0.4313
   87GLOH   H04 9391   2.497   1.094   0.989  0.3927  1.7107 -2.7113
   87GLOH    O2 9392   2.309   0.995   1.015 -0.5474 -0.0369 -0.0059
   87GLOH   H05 9393   2.346   0.905   1.018  0.2868  0.3081  0.2731
   87GLOH    C3 9394   2.416   1.056   0.804  0.2566  0.2654  0.0385
   87GLOH   H06 9395   2.318   1.052   0.755 -0.6931 -0.5997  1.9673
   87GLOH   H07 9396   2.455   0.954   0.808 -3.1697 -1.1084  0.7195
   87GLOH    O3 9397   2.503   1.146   0.727 -0.0400 -0.9016  0.1790
   87GLOH   H01 9398   2.502   1.232   0.774 -3.7096 -1.2636  0.9475
   88GLOH   H03 9399   5.148   3.129   1.988  0.6281 -0.0860  1.3255
   88GLOH    O1 9400   5.220   3.136   1.923 -0.3781 -0.0769  0.1961
   88GLOH    C1 9401   5.290   3.263   1.953  0.4525 -0.0100 -0.3839
   88GLOH   H02 9402   5.226   3.349   1.971  0.5123  0.2420 -1.3227
   88GLOH   H08 9403   5.357   3.288   1.870  1.4526 -0.7216  0.1995
   88GLOH    C2 9404   5.392   3.231   2.068  0.5884  0.1721  0.3177
   88GLOH   H04 9405   5.470   3.167   2.023 -2.2859 -1.3924 -2.5942
   88GLOH    O2 9406   5.442   3.357   2.117 -0.3460 -0.4677  0.5350
   88GLOH   H05 9407   5.399   3.385   2.200  0.4314 -0.6926  1.0175
   88GLOH    C3 9408   5.335   3.163   2.196 -0.2948  0.3910 -0.5880
   88GLOH   H06 9409   5.271   3.234   2.250  0.1027  0.7233 -0.5544
   88GLOH   H07 9410   5.415   3.146   2.267  0.4182  1.0571 -1.2181
   88GLOH    O3 9411   5.261   3.042   2.175 -0.0395  0.4553  0.1542
   88GLOH   H01 9412   5.170   3.069   2.154  0.7021  3.1357  0.2455
   89GLOH   H03 9413   1.827   2.381   2.382 -0.4469 -0.1639 -1.3526
   89GLOH    O1 9414   1.782   2.468   2.378  0.6312  0.5082  0.5883
   89GLOH    C1 9415   1.665   2.455   2.466 -0.4092  0.0280 -0.4749
   89GLOH   H02 9416   1.629   2.555   2.491  0.5460 -0.1716  1.7468
   89GLOH   H08 9417   1.690   2.397   2.554 -0.1076 -0.1195 -0.6543
   89GLOH    C2 9418   1.547   2.387   2.392 -0.0092 -0.3481  0.3903
   89GLOH   H04 9419   1.568   2.283   2.364 -0.9755 -0.7033  0.9466
   89GLOH    O2 9420   1.427   2.384   2.483  0.8588 -0.1122  0.3088
   89GLOH   H05 9421   1.391   2.474   2.497  0.4489 -0.5578  2.3548
   89GLOH    C3 9422   1.518   2.467   2.266 -0.8835  1.0697 -0.0629
   89GLOH   H06 9423   1.494   2.567   2.303 -1.1909  0.3778  1.6649
   89GLOH   H07 9424   1.429   2.427   2.217 -1.2830  1.2728  0.4925
   89GLOH    O3 9425   1.623   2.477   2.173 -0.2520 -0.0091  0.3201
   89GLOH   H01 9426   1.708   2.482   2.221  0.5959  2.4949 -1.3021
   90GLOH   H03 9427   3.162   6.296   0.119  2.4562 -2.6595  0.0173
   90GLOH    O1 9428   3.125   6.268   0.033  0.4520  0.1192 -0.1135
   90GLOH    C1 9429   3.017   6.357  -0.017 -0.1150 -0.6418  0.2003
   90GLOH   H02 9430   2.955   6.320  -0.099 -0.9582  1.2210 -0.0239
   90GLOH   H08 9431   3.070   6.447  -0.047  0.4133  0.1645  3.3503
   90GLOH    C2 9432   2.918   6.407   0.088 -0.2116  0.6918  0.0665
   90GLOH   H04 9433   2.975   6.464   0.163  0.3977 -0.8006  0.7680
   90GLOH    O2 9434   2.811   6.471   0.019 -0.5208  0.1149  0.6272
   90GLOH   H05 9435   2.725   6.451   0.059  0.0493 -2.5549  0.6226
   90GLOH    C3 9436   2.868   6.288   0.169  0.1298 -0.7969 -0.5553
   90GLOH   H06 9437   2.953   6.224   0.195 -0.0972 -0.5973  0.7083
   90GLOH   H07 9438   2.793   6.231   0.115 -1.3229  0.9769 -0.4578
   90GLOH    O3 9439   2.806   6.343   0.293  0.7441  0.1816 -0.3015
   90GLOH   H01 9440   2.741   6.283   0.333  0.3615  0.5186 -0.4061
   91GLOH   H03 9441   5.098   1.975   1.217  1.1905 -1.1788  1.0441
   91GLOH    O1 9442   5.095   1.907   1.147  0.4838 -0.1504  0.0474
   91GLOH    C1 9443   5.007   1.806   1.189 -0.0401 -0.3728  0.2832
   91GLOH   H02 9444   5.026   1.792   1.296  2.3846  1.5320  0.1452
   91GLOH   H08 9445   5.019   1.718   1.126 -1.8002 -0.5193  0.1077
   91GLOH    C2 9446   4.863   1.850   1.189  0.0380  0.4280  0.6301
   91GLOH   H04 9447   4.848   1.881   1.085  2.4428  0.7554  0.3435
   91GLOH    O2 9448   4.781   1.734   1.213  0.6932  0.0527 -0.0688
   91GLOH   H05 9449   4.688   1.756   1.196  1.3642  2.1750 -1.0160
   91GLOH    C3 9450   4.828   1.969   1.273 -0.8047  0.3578 -0.3271
   91GLOH   H06 9451   4.841   1.922   1.370  0.7233 -0.1382 -0.7696
   91GLOH   H07 9452   4.724   1.992   1.252 -1.2988 -1.1707  0.4138
   91GLOH    O3 9453   4.906   2.091   1.258 -0.1036  0.2333 -0.4402
   91GLOH   H01 9454   4.904   2.118   1.164  0.7421  1.0885 -0.2224
   92GLOH   H03 9455   3.580   6.848   1.268 -1.8094 -0.2171 -0.8186
   92GLOH    O1 9456   3.567   6.943   1.251  0.6616  0.3314  0.2055
   92GLOH    C1 9457   3.588   6.971   1.114  0.3215 -1.0012 -0.8339
   92GLOH   H02 9458   3.690   7.004   1.095 -0.5010  1.7385 -0.7824
   92GLOH   H08 9459   3.520   7.051   1.082 -0.8181 -1.4781  0.3517
   92GLOH    C2 9460   3.562   6.847   1.026 -0.1227  0.5733  0.4849
   92GLOH   H04 9461   3.453   6.839   1.017 -0.1724  0.3854  1.2226
   92GLOH    O2 9462   3.625   6.864   0.892  0.1190  0.4312 -0.6518
   92GLOH   H05 9463   3.604   6.790   0.833  1.6806  0.1778 -0.9209
   92GLOH    C3 9464   3.623   6.723   1.086 -0.1383  0.0352 -0.5693
   92GLOH   H06 9465   3.731   6.732   1.073  0.0497 -1.3315 -0.0132
   92GLOH   H07 9466   3.605   6.646   1.010 -2.6775 -0.6234  0.6504
   92GLOH    O3 9467   3.575   6.678   1.214 -0.3710  0.4636  0.0053
   92GLOH   H01 9468   3.553   6.583   1.207 -0.8959  0.6320 -0.7004
   93GLOH   H03 9469   2.366   6.139   1.699  2.0831 -0.6094  1.3786
   93GLOH    O1 9470   2.301   6.136   1.772  0.0579  0.3221 -0.3095
   93GLOH    C1 9471   2.184   6.211   1.737  0.2860 -0.1907 -0.3794
   93GLOH   H02 9472   2.201   6.303   1.682 -1.4063  0.3077 -0.0968
   93GLOH   H08 9473   2.134   6.249   1.827 -0.6092 -0.1222 -0.9009
   93GLOH    C2 9474   2.078   6.130   1.656  0.1875 -0.0131  0.3860
   93GLOH   H04 9475   2.029   6.062   1.727 -3.1848  1.1704 -0.7433
   93GLOH    O2 9476   1.976   6.219   1.607 -0.5264 -0.4662  0.4373
   93GLOH   H05 9477   1.953   6.293   1.665  1.8723  0.4113  0.3307
   93GLOH    C3 9478   2.133   6.048   1.537 -0.1541  0.4155 -0.2304
   93GLOH   H06 9479   2.180   5.959   1.577  1.0706  0.9504 -0.4598
   93GLOH   H07 9480   2.209   6.103   1.481 -0.3293 -0.1539 -1.0283
   93GLOH    O3 9481   2.022   6.015   1.448  0.1681  0.1748  0.0591
   93GLOH   H01 9482   1.977   6.102   1.442 -0.1529  0.2985  3.2340
   94GLOH   H03 9483   2.023   4.123   0.383 -1.4466 -2.0436  0.6467
   94GLOH    O1 9484   1.961   4.129   0.308 -0.4027 -0.2309 -0.1083
   94GLOH    C1 9485   1.829   4.164   0.355 -0.2468  0.0343 -0.5352
   94GLOH   H02 9486   1.781   4.078   0.401 -0.9913 -0.4708 -2.2313
   94GLOH   H08 9487   1.766   4.201   0.274 -1.7311  5.9894  2.9859
   94GLOH    C2 9488   1.839   4.293   0.448 -0.8650  0.4583 -0.3155
   94GLOH   H04 9489   1.908   4.362   0.398  0.3068 -1.8300 -1.9857
   94GLOH    O2 9490   1.714   4.357   0.458 -0.0092  0.0135 -0.2670
   94GLOH   H05 9491   1.715   4.425   0.528  2.0709  0.5587 -0.7707
   94GLOH    C3 9492   1.897   4.253   0.587 -0.0872 -0.2652  0.1117
   94GLOH   H06 9493   1.825   4.180   0.624 -2.9800  2.2472 -0.3439
   94GLOH   H07 9494   1.882   4.336   0.656 -1.9080  0.0955 -0.7080
   94GLOH    O3 9495   2.029   4.204   0.581  0.2278 -0.0474 -0.2179
   94GLOH   H01 9496   2.047   4.174   0.673 -0.4841 -0.8889 -0.3484
   95GLOH   H03 9497   1.282   4.835   1.641 -1.3055 -0.3263  0.2818
   95GLOH    O1 9498   1.328   4.826   1.726  0.1361  0.3068 -0.4161
   95GLOH    C1 9499   1.239   4.838   1.835  0.6284  0.6740  0.2280
   95GLOH   H02 9500   1.198   4.743   1.869  2.2729  0.0732  0.5933
   95GLOH   H08 9501   1.150   4.890   1.801  1.6007  0.8052 -2.1668
   95GLOH    C2 9502   1.284   4.925   1.953 -1.0456 -0.1348 -0.3286
   95GLOH   H04 9503   1.335   5.010   1.905 -1.0472 -0.8818 -1.6867
   95GLOH    O2 9504   1.164   4.977   2.029  0.0139  0.3273  0.8632
   95GLOH   H05 9505   1.111   4.901   2.058 -0.0659  0.0276 -0.0711
   95GLOH    C3 9506   1.395   4.850   2.027 -0.0932 -0.2656  0.3941
   95GLOH   H06 9507   1.447   4.777   1.964 -2.2937 -3.7286  2.3805
   95GLOH   H07 9508   1.332   4.792   2.095 -2.7979  0.2834 -1.5503
   95GLOH    O3 9509   1.486   4.929   2.099 -0.3960 -0.0072  0.4545
   95GLOH   H01 9510   1.430   4.996   2.144 -0.3994 -0.1966  0.7312
   96GLOH   H03 9511   4.048   8.869   1.990  0.7833  0.8729  0.9261
   96GLOH    O1 9512   4.046   8.961   1.959 -0.7343  0.5741  0.0993
   96GLOH    C1 9513   4.053   8.960   1.822 -0.8626  0.1117  0.8184
   96GLOH   H02 9514   4.061   9.062   1.783 -2.5371 -0.2342 -0.4534
   96GLOH   H08 9515   3.959   8.927   1.778 -0.4400 -1.3671  0.9899
   96GLOH    C2 9516   4.185   8.899   1.770 -0.6731  0.4205 -0.3800
   96GLOH   H04 9517   4.197   8.792   1.792  0.2648  0.2683 -1.5695
   96GLOH    O2 9518   4.176   8.912   1.627 -0.0160  0.1428 -0.3248
   96GLOH   H05 9519   4.248   8.865   1.582 -1.5058 -2.2300 -0.3059
   96GLOH    C3 9520   4.319   8.964   1.814  0.4840  0.0038  0.3191
   96GLOH   H06 9521   4.321   8.965   1.923  0.2895 -1.6837  0.3528
   96GLOH   H07 9522   4.308   9.068   1.784 -0.3710 -0.2652 -0.3227
   96GLOH    O3 9523   4.435   8.903   1.771  0.3844  0.3169  0.0204
   96GLOH   H01 9524   4.462   8.963   1.699 -2.2457  1.4101 -0.0947
   97GLOH   H03 9525   4.925   4.786   0.020  0.2258 -0.3177  1.4242
   97GLOH    O1 9526   5.019   4.758   0.023  0.3016 -0.3074 -0.0875
   97GLOH    C1 9527   5.082   4.783  -0.104 -0.2239  0.5592 -0.0796
   97GLOH   H02 9528   5.157   4.862  -0.099  0.1489  0.5126 -3.4354
   97GLOH   H08 9529   5.008   4.813  -0.178  1.1746  0.4781 -1.5656
   97GLOH    C2 9530   5.146   4.647  -0.162 -0.1813  0.3031 -0.1451
   97GLOH   H04 9531   5.194   4.669  -0.258  0.0947  0.1925 -0.0308
   97GLOH    O2 9532   5.246   4.586  -0.079 -0.1048  0.3934 -0.3460
   97GLOH   H05 9533   5.204   4.596   0.009  0.5432  1.0339 -0.1064
   97GLOH    C3 9534   5.040   4.529  -0.182  0.0888 -0.0012 -0.4363
   97GLOH   H06 9535   4.986   4.514  -0.089 -0.5408  0.1995 -0.7676
   97GLOH   H07 9536   5.082   4.432  -0.207  1.4706  0.4887 -0.0942
   97GLOH    O3 9537   4.940   4.559  -0.280  0.3745 -0.0332  0.4809
   97GLOH   H01 9538   4.960   4.530  -0.371 -0.1643  1.8932 -0.2727
   98GLOH   H03 9539   1.110   5.257   0.350  0.4087 -1.0962  0.3189
   98GLOH    O1 9540   1.052   5.226   0.279  0.0075  0.0917  0.1050
   98GLOH    C1 9541   1.039   5.331   0.182  0.3920  0.1685 -0.1536
   98GLOH   H02 9542   0.970   5.299   0.103  0.5834 -0.2869 -0.1388
   98GLOH   H08 9543   1.133   5.323   0.128  1.2378  0.7120  1.2294
   98GLOH    C2 9544   0.994   5.469   0.214 -0.1394 -0.1289 -0.2382
   98GLOH   H04 9545   1.030   5.492   0.316  1.7285 -0.7092 -0.7489
   98GLOH    O2 9546   1.028   5.567   0.110 -0.7344 -0.0701 -0.4734
   98GLOH   H05 9547   1.079   5.525   0.039 -2.5148 -1.6143 -0.9000
   98GLOH    C3 9548   0.840   5.474   0.228 -0.0747 -0.4740 -0.8999
   98GLOH   H06 9549   0.794   5.490   0.131  0.8937  0.7465 -1.1697
   98GLOH   H07 9550   0.826   5.565   0.288  0.9036 -0.3951 -0.7816
   98GLOH    O3 9551   0.782   5.362   0.294  0.0551 -0.3423 -0.0992
   98GLOH   H01 9552   0.806   5.368   0.389 -0.9174 -0.9068  0.1959
   99GLOH   H03 9553   2.083   3.969   0.830 -0.3595  0.1978  1.1950
   99GLOH    O1 9554   2.053   4.056   0.798 -0.1987 -0.2112 -0.0926
   99GLOH    C1 9555   1.927   4.092   0.861  0.2788 -1.1298  0.1153
   99GLOH   H02 9556   1.888   4.188   0.824  0.8397 -0.2549  1.7457
   99GLOH   H08 9557   1.936   4.120   0.966  0.3207 -2.1372  0.3799
   99GLOH    C2 9558   1.816   3.988   0.856 -0.7353 -0.3708 -0.2896
   99GLOH   H04 9559   1.807   3.955   0.752  1.3645  4.0204 -1.9964
   99GLOH    O2 9560   1.837   3.881   0.938  0.1133 -0.2841  0.1112
   99GLOH   H05 9561   1.855   3.923   1.024 -1.7078  1.4934 -0.3484
   99GLOH    C3 9562   1.681   4.051   0.902  0.0244  0.2053  0.0139
   99GLOH   H06 9563   1.693   4.085   1.005 -0.9541 -0.5625  0.3834
   99GLOH   H07 9564   1.611   3.968   0.907 -0.0312  0.2102 -0.6397
   99GLOH    O3 9565   1.628   4.161   0.817  0.6868  0.5756 -0.0995
   99GLOH   H01 9566   1.590   4.112   0.743 -2.8422  0.5073  1.6655
  100GLOH   H03 9567   4.323   9.189   2.641  0.9277 -0.5615 -0.2238
  100GLOH    O1 9568   4.373   9.211   2.560 -0.1721  0.7152 -0.5775
  100GLOH    C1 9569   4.416   9.103   2.476  0.2463 -0.7148 -0.5944
  100GLOH   H02 9570   4.462   9.022   2.532 -1.5663 -1.2675  0.1582
  100GLOH   H08 9571   4.493   9.146   2.413  1.0883  1.7462  1.9627
  100GLOH    C2 9572   4.304   9.040   2.394 -0.1465 -0.0240 -0.0877
  100GLOH   H04 9573   4.353   8.961   2.336 -2.1892 -0.7052 -0.9270
  100GLOH    O2 9574   4.204   8.985   2.483 -0.5996 -0.0944 -0.1634
  100GLOH   H05 9575   4.227   8.891   2.478 -0.6979 -0.0303 -2.3246
  100GLOH    C3 9576   4.245   9.144   2.295  0.3761 -0.2146 -0.3259
  100GLOH   H06 9577   4.223   9.239   2.342 -0.7514 -0.4250 -0.4191
  100GLOH   H07 9578   4.150   9.103   2.262 -0.4864  2.2272 -0.9864
  100GLOH    O3 9579   4.337   9.161   2.188 -0.2684  0.4480 -0.4766
  100GLOH   H01 9580   4.297   9.184   2.103 -2.7220  1.5699  0.9251
  101GLOH   H03 9581   4.200   8.222   1.649  0.6068  0.2832  0.1424
  101GLOH    O1 9582   4.152   8.253   1.728  0.5626  0.0375  0.2138
  101GLOH    C1 9583   4.011   8.251   1.693  0.7105  0.7731  0.7849
  101GLOH   H02 9584   3.968   8.150   1.702  3.0380 -0.1827  1.4473
  101GLOH   H08 9585   3.990   8.282   1.591 -0.0822 -1.6912  0.1524
  101GLOH    C2 9586   3.934   8.338   1.788  0.1533  0.3761 -0.5075
  101GLOH   H04 9587   3.977   8.439   1.777 -1.1122  0.9967  0.1615
  101GLOH    O2 9588   3.796   8.361   1.761 -0.7131  0.2144  0.2219
  101GLOH   H05 9589   3.775   8.433   1.823 -1.6271  0.4367 -0.3391
  101GLOH    C3 9590   3.961   8.287   1.928  0.1502 -0.0099 -0.5580
  101GLOH   H06 9591   3.912   8.190   1.936 -0.8446  0.4009 -1.4210
  101GLOH   H07 9592   3.903   8.344   2.001  0.9473  0.8529 -0.5938
  101GLOH    O3 9593   4.093   8.294   1.973  0.2600  0.6160 -0.2809
  101GLOH   H01 9594   4.145   8.254   1.902  0.4645  1.0342 -0.3659
  102GLOH   H03 9595   4.829   1.632   0.672  3.4990 -0.2352  0.1676
  102GLOH    O1 9596   4.824   1.728   0.687 -0.3539 -0.2712 -0.3190
  102GLOH    C1 9597   4.940   1.794   0.632 -0.2831 -0.6999 -0.1723
  102GLOH   H02 9598   4.924   1.825   0.528  0.5156  1.8147  0.4217
  102GLOH   H08 9599   5.035   1.741   0.631  0.2302  0.1642  1.2143
  102GLOH    C2 9600   4.959   1.922   0.715 -0.3603 -0.1213 -0.4344
  102GLOH   H04 9601   5.052   1.970   0.680  1.0326 -0.8894  2.0380
  102GLOH    O2 9602   4.856   2.019   0.710  0.3156 -0.0298 -0.4903
  102GLOH   H05 9603   4.783   1.975   0.758 -1.2248  0.0686 -2.6972
  102GLOH    C3 9604   4.993   1.888   0.863  0.2296  0.5435  0.6657
  102GLOH   H06 9605   4.916   1.827   0.909 -0.7971  0.2859 -1.3257
  102GLOH   H07 9606   4.999   1.985   0.913  1.0268  1.3622 -0.9678
  102GLOH    O3 9607   5.116   1.816   0.882 -0.0376 -0.3360  0.5431
  102GLOH   H01 9608   5.140   1.827   0.976 -0.4425 -0.1520  0.6250
  103GLOH   H03 9609   2.810   3.486   1.084 -0.2635  2.0320  0.7196
  103GLOH    O1 9610   2.877   3.541   1.041  0.5350  0.2097 -0.4473
  103GLOH    C1 9611   2.991   3.454   1.019 -0.6137 -0.0655 -0.0405
  103GLOH   H02 9612   2.990   3.400   0.924  0.9655 -0.5399  0.1870
  103GLOH   H08 9613   2.995   3.374   1.093 -0.6292 -0.5187 -0.5259
  103GLOH    C2 9614   3.123   3.532   1.025  0.3170  0.2300 -0.1957
  103GLOH   H04 9615   3.141   3.559   1.130  0.7499 -4.2274  0.9622
  103GLOH    O2 9616   3.234   3.450   0.984  0.1240 -0.2394  0.3856
  103GLOH   H05 9617   3.221   3.426   0.890  1.6744  0.2028  0.0294
  103GLOH    C3 9618   3.120   3.664   0.942 -0.4785 -0.4574  0.5809
  103GLOH   H06 9619   3.219   3.709   0.946  0.9899 -3.3645 -1.3843
  103GLOH   H07 9620   3.055   3.733   0.996  1.5330  0.7166  1.5405
  103GLOH    O3 9621   3.072   3.639   0.810 -0.2626  0.3645 -0.1413
  103GLOH   H01 9622   3.116   3.562   0.769  0.2925  0.1927  0.7646
  104GLOH   H03 9623   1.498   6.840   1.806 -1.6353  1.0547  0.5345
  104GLOH    O1 9624   1.469   6.811   1.718  0.0172 -0.3336  0.4347
  104GLOH    C1 9625   1.432   6.926   1.642 -0.1997  0.3577 -0.5601
  104GLOH   H02 9626   1.511   7.001   1.649 -0.3297  0.4817 -0.4352
  104GLOH   H08 9627   1.344   6.984   1.672 -0.1979 -0.0351  0.2211
  104GLOH    C2 9628   1.419   6.903   1.490 -0.4734 -0.5902 -0.2196
  104GLOH   H04 9629   1.368   6.806   1.483  0.0165 -0.9495  1.1262
  104GLOH    O2 9630   1.342   7.011   1.430  0.4079 -0.8401  0.5102
  104GLOH   H05 9631   1.388   7.059   1.359 -1.9470 -2.3658 -2.1902
  104GLOH    C3 9632   1.561   6.882   1.435 -0.2695 -0.3506  0.5711
  104GLOH   H06 9633   1.615   6.977   1.440 -2.1590  0.7665  0.0081
  104GLOH   H07 9634   1.558   6.854   1.330 -3.5291  0.4244  0.4129
  104GLOH    O3 9635   1.627   6.784   1.516  0.3004 -0.0631  0.0007
  104GLOH   H01 9636   1.560   6.742   1.573 -2.3949  2.3358 -1.2334
  105GLOH   H03 9637   3.113   7.735   0.692 -0.6539  1.2482 -0.4019
  105GLOH    O1 9638   3.083   7.653   0.648 -0.1606  0.6873  0.2853
  105GLOH    C1 9639   3.127   7.539   0.722 -0.0313  0.1626 -0.4472
  105GLOH   H02 9640   3.135   7.554   0.829 -1.7806  0.0783 -0.2812
  105GLOH   H08 9641   3.224   7.500   0.691  0.1218 -0.3566  0.6550
  105GLOH    C2 9642   3.043   7.420   0.713  0.4140  0.2837  0.5578
  105GLOH   H04 9643   3.051   7.394   0.607  2.9609  2.7380  0.1278
  105GLOH    O2 9644   3.087   7.311   0.800 -0.1408 -0.7621 -0.1119
  105GLOH   H05 9645   3.145   7.255   0.746 -1.1562 -2.2480  0.3370
  105GLOH    C3 9646   2.898   7.468   0.739 -0.2582 -0.0735  0.0007
  105GLOH   H06 9647   2.882   7.533   0.653  0.5439 -1.7605 -1.4620
  105GLOH   H07 9648   2.898   7.526   0.831  7.2012  2.6928 -1.4354
  105GLOH    O3 9649   2.800   7.362   0.728  0.7774 -0.0260 -0.4831
  105GLOH   H01 9650   2.775   7.325   0.815 -0.4494  0.6016 -0.5536
  106GLOH   H03 9651   3.342   8.754   0.880  0.3900  0.1987  0.4038
  106GLOH    O1 9652   3.356   8.669   0.926  0.1219 -0.0270  0.0656
  106GLOH    C1 9653   3.304   8.685   1.061 -0.2402 -0.0057  0.0793
  106GLOH   H02 9654   3.235   8.769   1.070 -0.6568 -0.2179 -1.0951
  106GLOH   H08 9655   3.389   8.708   1.126 -0.1337  0.0640 -0.0849
  106GLOH    C2 9656   3.229   8.561   1.105  0.0447  0.5927  0.0350
  106GLOH   H04 9657   3.182   8.509   1.020 -0.3023 -2.5466  2.0374
  106GLOH    O2 9658   3.322   8.471   1.175 -0.4135 -0.1421  0.0500
  106GLOH   H05 9659   3.272   8.393   1.205  0.1846 -0.1667  1.0314
  106GLOH    C3 9660   3.120   8.606   1.205 -0.4471  0.2229  0.0536
  106GLOH   H06 9661   3.169   8.632   1.298  0.1603  0.8062 -0.4209
  106GLOH   H07 9662   3.069   8.517   1.243 -0.3974  0.3933  0.5222
  106GLOH    O3 9663   3.031   8.707   1.158  0.5641  0.0224  0.4590
  106GLOH   H01 9664   3.016   8.682   1.065 -0.4211 -2.5189  1.2619
  107GLOH   H03 9665   5.309   3.642   2.557  0.0552 -0.4508 -0.9960
  107GLOH    O1 9666   5.215   3.624   2.537 -0.1633 -0.5259  0.0629
  107GLOH    C1 9667   5.146   3.722   2.604 -0.1417  0.2025  0.3446
  107GLOH   H02 9668   5.091   3.785   2.534  0.8724  1.3552  0.5504
  107GLOH   H08 9669   5.220   3.792   2.644  0.6166  1.2767 -2.7439
  107GLOH    C2 9670   5.053   3.676   2.717  0.0731  0.7361  0.6381
  107GLOH   H04 9671   4.975   3.609   2.677  1.1368  0.2963 -0.7450
  107GLOH    O2 9672   5.129   3.606   2.816  0.4204 -0.3119 -0.0611
  107GLOH   H05 9673   5.137   3.513   2.790  2.6627 -0.5048  1.2105
  107GLOH    C3 9674   4.981   3.797   2.783  0.2654 -0.2882  0.0690
  107GLOH   H06 9675   5.047   3.881   2.800  1.0589 -0.4594 -2.0048
  107GLOH   H07 9676   4.927   3.770   2.874  1.7257 -0.2780  0.9458
  107GLOH    O3 9677   4.875   3.839   2.693  0.1797 -0.6099  0.3949
  107GLOH   H01 9678   4.810   3.768   2.680 -0.4456 -0.2053  1.2917
  108GLOH   H03 9679   3.793   1.464   2.122 -2.7036  0.7048 -0.8787
  108GLOH    O1 9680   3.831   1.450   2.033  0.6567 -0.1298  0.5955
  108GLOH    C1 9681   3.820   1.312   1.995  0.1146 -0.1033 -0.3709
  108GLOH   H02 9682   3.857   1.297   1.893 -2.6707 -0.3982 -1.3815
  108GLOH   H08 9683   3.720   1.268   1.999 -0.8685  2.1900  1.0657
  108GLOH    C2 9684   3.904   1.206   2.076  0.0150  0.3978  0.5442
  108GLOH   H04 9685   4.011   1.222   2.060  0.0818  0.2135  0.8036
  108GLOH    O2 9686   3.898   1.218   2.223  0.0192  0.2770  0.0438
  108GLOH   H05 9687   3.809   1.184   2.245 -0.6904  0.9653 -1.6610
  108GLOH    C3 9688   3.880   1.059   2.035  0.2123  1.1253 -0.7597
  108GLOH   H06 9689   3.955   1.003   2.091 -3.2715 -1.0444  2.0351
  108GLOH   H07 9690   3.907   1.053   1.929  1.4252 -1.3459 -0.3593
  108GLOH    O3 9691   3.750   1.005   2.062  0.2283 -0.3557  0.4414
  108GLOH   H01 9692   3.705   1.059   2.130 -0.0231  0.1949 -0.1590
  109GLOH   H03 9693   5.012   4.225   0.789  0.1537  1.0435 -0.8715
  109GLOH    O1 9694   4.915   4.225   0.795  0.1994 -0.1754  0.2136
  109GLOH    C1 9695   4.864   4.317   0.698  0.2339  0.3052 -0.2803
  109GLOH   H02 9696   4.873   4.418   0.738 -0.9044  0.2750  0.0731
  109GLOH   H08 9697   4.756   4.305   0.687 -0.1922  3.0477  0.5243
  109GLOH    C2 9698   4.925   4.303   0.557 -0.4836  0.3566  0.1699
  109GLOH   H04 9699   4.889   4.216   0.500 -1.4252  1.4443 -0.9250
  109GLOH    O2 9700   4.893   4.418   0.476  1.0083 -0.0467 -0.2775
  109GLOH   H05 9701   4.803   4.411   0.438  0.1253 -1.3713  1.9270
  109GLOH    C3 9702   5.081   4.309   0.558 -0.4278  0.0931 -0.4818
  109GLOH   H06 9703   5.106   4.407   0.599 -1.3332  0.5806 -1.0862
  109GLOH   H07 9704   5.124   4.314   0.458  0.0044  1.5538 -0.2387
  109GLOH    O3 9705   5.155   4.211   0.639 -0.2116 -0.2570  0.4336
  109GLOH   H01 9706   5.246   4.241   0.656 -0.5233  0.9621 -0.0358
  110GLOH   H03 9707   2.689   1.188   1.300 -0.7114  0.5473 -0.1178
  110GLOH    O1 9708   2.667   1.139   1.218 -0.0230  0.2183 -0.1073
  110GLOH    C1 9709   2.596   1.017   1.248  0.1094  0.2031 -0.2096
  110GLOH   H02 9710   2.658   0.952   1.311 -0.6860 -0.2126  0.1557
  110GLOH   H08 9711   2.561   0.957   1.163  1.1560 -0.3377 -0.2705
  110GLOH    C2 9712   2.467   1.040   1.330 -0.1694  0.4630 -0.4738
  110GLOH   H04 9713   2.389   1.087   1.268 -0.9246 -1.7314 -1.2395
  110GLOH    O2 9714   2.424   0.915   1.389  0.1307 -0.4685 -0.4337
  110GLOH   H05 9715   2.340   0.879   1.355  0.5298 -1.0521 -0.8243
  110GLOH    C3 9716   2.496   1.140   1.446 -0.1138 -0.4086  0.1689
  110GLOH   H06 9717   2.513   1.242   1.410  1.9972 -0.5045  0.8088
  110GLOH   H07 9718   2.596   1.120   1.485  1.5444  3.8699 -1.4861
  110GLOH    O3 9719   2.400   1.151   1.552  0.4741 -0.0427 -0.3163
  110GLOH   H01 9720   2.426   1.076   1.608  2.6668  1.8821  1.3586
  111GLOH   H03 9721   1.119   5.344   1.455  0.5388 -0.8846  0.0856
  111GLOH    O1 9722   1.025   5.321   1.448  0.1766  0.8381 -0.6853
  111GLOH    C1 9723   0.986   5.371   1.313  0.2179 -0.5816  0.2371
  111GLOH   H02 9724   0.959   5.476   1.323  1.1398 -0.0508 -2.5051
  111GLOH   H08 9725   0.902   5.311   1.278 -1.3464  1.3106  0.6421
  111GLOH    C2 9726   1.099   5.369   1.217  0.3540 -0.4953 -0.0573
  111GLOH   H04 9727   1.138   5.267   1.203 -0.6400 -0.8083 -0.5825
  111GLOH    O2 9728   1.051   5.433   1.094  0.4667  0.2447  0.6196
  111GLOH   H05 9729   1.067   5.528   1.105 -1.8727  0.7784 -0.2763
  111GLOH    C3 9730   1.224   5.440   1.267 -0.1971 -0.0113  0.1403
  111GLOH   H06 9731   1.220   5.547   1.246 -2.3029 -0.1235 -0.1069
  111GLOH   H07 9732   1.307   5.401   1.207  0.1173  0.5390  0.2141
  111GLOH    O3 9733   1.266   5.409   1.407 -0.0744 -0.1214  0.4204
  111GLOH   H01 9734   1.362   5.393   1.400 -0.6365 -3.8934  0.1769
  112GLOH   H03 9735   4.523   5.004   1.732 -0.2547  0.0701 -0.9319
  112GLOH    O1 9736   4.601   5.037   1.684  0.4688  0.3613  0.4211
  112GLOH    C1 9737   4.567   5.167   1.627  0.6280  0.0035 -0.5728
  112GLOH   H02 9738   4.459   5.181   1.629  0.3061 -1.9112 -2.6269
  112GLOH   H08 9739   4.586   5.174   1.520 -2.5292  0.9240 -1.1194
  112GLOH    C2 9740   4.647   5.280   1.694 -0.4490  0.5650 -0.5647
  112GLOH   H04 9741   4.752   5.264   1.668 -0.9650 -2.6503 -0.9603
  112GLOH    O2 9742   4.602   5.403   1.646 -0.1657 -0.3534 -0.0365
  112GLOH   H05 9743   4.512   5.417   1.679  0.0102  0.1588  0.2222
  112GLOH    C3 9744   4.637   5.258   1.849 -0.1744  0.1153  0.1525
  112GLOH   H06 9745   4.707   5.332   1.888  0.0062  0.3633 -0.6287
  112GLOH   H07 9746   4.681   5.165   1.884 -0.5999 -0.7672 -1.6101
  112GLOH    O3 9747   4.499   5.269   1.900  0.5325 -0.1178  0.3283
  112GLOH   H01 9748   4.441   5.317   1.837 -0.4556  0.0538  1.3446
  113GLOH   H03 9749   2.463   4.178   0.097 -2.0560 -0.5432  0.2290
  113GLOH    O1 9750   2.468   4.150   0.004  0.2953  0.1359  0.1303
  113GLOH    C1 9751   2.485   4.271  -0.074  1.1639 -0.2965  0.2312
  113GLOH   H02 9752   2.588   4.306  -0.068  0.5914  1.3822  0.3807
  113GLOH   H08 9753   2.423   4.355  -0.043  0.1715 -0.3791 -1.4608
  113GLOH    C2 9754   2.448   4.252  -0.222 -0.1745  0.6256  0.3886
  113GLOH   H04 9755   2.345   4.215  -0.229  0.2572 -0.6973  0.7816
  113GLOH    O2 9756   2.465   4.373  -0.304 -0.8185 -0.0032 -0.8796
  113GLOH   H05 9757   2.381   4.423  -0.305 -1.8428 -1.6787 -3.1183
  113GLOH    C3 9758   2.520   4.131  -0.280  0.4196  0.5735  0.7297
  113GLOH   H06 9759   2.626   4.157  -0.289  0.4692 -0.2750 -1.4520
  113GLOH   H07 9760   2.483   4.122  -0.382  0.6893 -0.9570  0.7577
  113GLOH    O3 9761   2.485   4.008  -0.216  0.2417 -0.2285 -0.2556
  113GLOH   H01 9762   2.470   4.025  -0.121  1.1377 -1.1542  0.0654
  114GLOH   H03 9763  10.292   3.984   0.923 -0.4741 -0.4015  1.2570
  114GLOH    O1 9764  10.339   4.037   0.990  0.8385 -0.2423  0.2381
  114GLOH    C1 9765  10.263   4.164   0.993  0.0403  0.0064 -0.2080
  114GLOH   H02 9766  10.325   4.225   1.057 -0.3780 -0.0190  0.2216
  114GLOH   H08 9767  10.163   4.137   1.028  0.1681 -1.6716 -1.0620
  114GLOH    C2 9768  10.261   4.235   0.853  0.2805 -0.3012  0.1336
  114GLOH   H04 9769  10.205   4.176   0.779 -0.0612 -1.1236  1.0303
  114GLOH    O2 9770  10.182   4.357   0.863 -0.1237  0.5460  0.6302
  114GLOH   H05 9771  10.090   4.326   0.851 -0.0617  0.3053  0.7650
  114GLOH    C3 9772  10.405   4.258   0.800 -0.1938  0.1490 -0.3863
  114GLOH   H06 9773  10.405   4.288   0.695  1.6615  0.1875 -0.3888
  114GLOH   H07 9774  10.449   4.158   0.793  2.7004  1.4713 -1.7783
  114GLOH    O3 9775  10.490   4.341   0.882  0.0874 -0.2133  0.2527
  114GLOH   H01 9776  10.437   4.424   0.881 -1.6075 -1.2713 -1.0141
  115GLOH   H03 9777   2.506   6.094   2.541  0.3574 -0.6598  0.0027
  115GLOH    O1 9778   2.467   6.120   2.456 -0.4209 -0.6396  0.3667
  115GLOH    C1 9779   2.564   6.164   2.361  0.4745 -0.2519 -0.1288
  115GLOH   H02 9780   2.586   6.269   2.381 -1.2213  0.3996 -1.6143
  115GLOH   H08 9781   2.521   6.173   2.262  1.6569  2.3417 -0.4605
  115GLOH    C2 9782   2.697   6.085   2.368 -0.5397  0.8053 -0.0769
  115GLOH   H04 9783   2.675   5.982   2.336  3.6505 -0.2101  0.0112
  115GLOH    O2 9784   2.794   6.145   2.283 -0.4360 -0.1164  0.1996
  115GLOH   H05 9785   2.851   6.072   2.254 -0.4535  0.3841 -1.1610
  115GLOH    C3 9786   2.756   6.081   2.507  0.8423  0.6782 -1.2091
  115GLOH   H06 9787   2.780   6.184   2.533 -2.2188  1.5494 -1.6801
  115GLOH   H07 9788   2.843   6.017   2.520  0.8259  0.5771 -1.6099
  115GLOH    O3 9789   2.657   6.057   2.610  0.0844  0.1552  0.1663
  115GLOH   H01 9790   2.702   6.026   2.691  0.2164  0.5078  0.2299
  116GLOH   H03 9791   5.525   3.650   2.631  0.6336 -0.9661 -0.5878
  116GLOH    O1 9792   5.463   3.653   2.556 -0.0543  0.8121  0.0219
  116GLOH    C1 9793   5.545   3.673   2.437  0.6637 -0.2166  0.5065
  116GLOH   H02 9794   5.552   3.583   2.376 -1.3244  0.5619 -0.9562
  116GLOH   H08 9795   5.646   3.702   2.464  0.4298  1.1177 -0.0275
  116GLOH    C2 9796   5.489   3.785   2.342 -0.0120  0.3990  1.3516
  116GLOH   H04 9797   5.585   3.813   2.295 -0.8453  0.1470 -0.5586
  116GLOH    O2 9798   5.394   3.740   2.251  0.2629  0.0645  0.5715
  116GLOH   H05 9799   5.443   3.731   2.167 -0.3926 -0.3278  0.2284
  116GLOH    C3 9800   5.429   3.902   2.413  0.2455 -0.1157 -0.1830
  116GLOH   H06 9801   5.364   3.861   2.490  2.1388  0.3801  1.7289
  116GLOH   H07 9802   5.366   3.959   2.345 -0.0754 -0.6730 -0.3616
  116GLOH    O3 9803   5.529   3.987   2.467 -0.1594 -0.4399 -0.5319
  116GLOH   H01 9804   5.613   3.938   2.466  0.0543 -0.0803 -0.5617
  117GLOH   H03 9805   3.322   7.822   2.199  0.5736  0.7659  0.2296
  117GLOH    O1 9806   3.379   7.848   2.124 -0.1467  0.9797 -0.2569
  117GLOH    C1 9807   3.454   7.743   2.070  0.1740 -0.1726 -0.0469
  117GLOH   H02 9808   3.530   7.786   2.005  0.8537 -0.7052  0.3759
  117GLOH   H08 9809   3.397   7.677   2.005 -3.6077  0.1622  2.7889
  117GLOH    C2 9810   3.523   7.644   2.170  0.5831 -0.1240  0.3115
  117GLOH   H04 9811   3.443   7.613   2.240 -0.3076  2.8428  0.6823
  117GLOH    O2 9812   3.559   7.520   2.117  0.2928  0.1664  0.4588
  117GLOH   H05 9813   3.496   7.450   2.141  0.2873  0.5449  1.5971
  117GLOH    C3 9814   3.637   7.707   2.238 -0.7080 -0.7107  0.4166
  117GLOH   H06 9815   3.666   7.630   2.310  0.0278 -1.6136 -0.8218
  117GLOH   H07 9816   3.607   7.797   2.292  1.0218 -0.9061  1.7796
  117GLOH    O3 9817   3.744   7.754   2.150  0.2356 -0.1769 -0.0296
  117GLOH   H01 9818   3.759   7.701   2.070  2.7759  0.4581 -0.0174
  118GLOH   H03 9819   4.139   9.854   1.451  0.0758  2.0025 -2.2671
  118GLOH    O1 9820   4.065   9.799   1.420  0.3891 -0.0043  0.3533
  118GLOH    C1 9821   4.127   9.694   1.342  0.6814  0.5454 -0.6195
  118GLOH   H02 9822   4.174   9.622   1.409  0.6107 -1.0518 -2.2283
  118GLOH   H08 9823   4.193   9.736   1.267  0.3773 -0.9833 -1.7622
  118GLOH    C2 9824   4.016   9.609   1.282  0.2353  0.5490 -0.1238
  118GLOH   H04 9825   3.962   9.672   1.211  1.9952  3.1163  0.7418
  118GLOH    O2 9826   4.067   9.496   1.212  0.3711 -0.2262 -0.2133
  118GLOH   H05 9827   4.081   9.527   1.121  1.2223  0.4140  0.1326
  118GLOH    C3 9828   3.924   9.567   1.401 -0.8678 -1.0896  0.1199
  118GLOH   H06 9829   3.979   9.505   1.472  2.5086  2.2771  0.5965
  118GLOH   H07 9830   3.849   9.499   1.359 -1.5307  1.0841 -2.3113
  118GLOH    O3 9831   3.859   9.676   1.463 -1.1418  0.4792 -0.0813
  118GLOH   H01 9832   3.921   9.749   1.445 -1.2493  0.5141 -0.3103
  119GLOH   H03 9833   3.831   9.299   1.782 -1.3975 -0.1543  0.3920
  119GLOH    O1 9834   3.812   9.378   1.836 -0.5393 -0.0695  0.5656
  119GLOH    C1 9835   3.937   9.448   1.860 -0.3860  0.7994 -0.1256
  119GLOH   H02 9836   4.002   9.378   1.912 -1.0160 -1.1203 -1.8552
  119GLOH   H08 9837   3.919   9.534   1.925 -2.0655  0.0394  0.4319
  119GLOH    C2 9838   4.017   9.483   1.733  0.2459 -1.0138 -0.5222
  119GLOH   H04 9839   3.948   9.543   1.672 -0.1469  0.9516  1.7745
  119GLOH    O2 9840   4.140   9.554   1.758 -0.2818  0.1275 -0.5530
  119GLOH   H05 9841   4.211   9.488   1.755 -1.3802 -1.1405  0.6529
  119GLOH    C3 9842   4.044   9.348   1.664 -0.1587  0.2973  0.6879
  119GLOH   H06 9843   4.125   9.297   1.716  1.8466  0.9342 -1.7561
  119GLOH   H07 9844   4.091   9.376   1.570 -1.1872 -1.4112 -0.3473
  119GLOH    O3 9845   3.935   9.255   1.631 -0.3107 -0.3118 -1.0373
  119GLOH   H01 9846   3.963   9.197   1.558 -1.2761  0.1927 -1.8228
  120GLOH   H03 9847   3.932   3.805   1.459 -0.0696 -0.8073  1.9883
  120GLOH    O1 9848   3.923   3.902   1.466 -0.0066 -0.6670  0.2065
  120GLOH    C1 9849   4.050   3.964   1.428  0.2292  0.1518 -0.0568
  120GLOH   H02 9850   4.132   3.913   1.477 -0.2311  0.6381  1.2289
  120GLOH   H08 9851   4.055   4.068   1.459  2.0575 -0.1555  0.7462
  120GLOH    C2 9852   4.082   3.949   1.280  0.0315 -0.2344  0.6204
  120GLOH   H04 9853   4.175   4.004   1.258  0.3197  0.2935  3.0870
  120GLOH    O2 9854   4.098   3.808   1.253  0.7351  0.5993  0.0224
  120GLOH   H05 9855   4.012   3.769   1.279  0.3766  1.6148  0.4014
  120GLOH    C3 9856   3.969   4.003   1.195  0.0260 -0.2407 -0.1314
  120GLOH   H06 9857   3.880   3.942   1.209 -0.3024  0.2311 -0.1392
  120GLOH   H07 9858   3.991   3.983   1.091  1.8760 -0.4958  0.2894
  120GLOH    O3 9859   3.944   4.140   1.234 -0.7771  0.2423  0.4926
  120GLOH   H01 9860   3.867   4.170   1.182  0.4912  1.5683 -0.6469
  121ACOH    H4 9861   4.565   9.371   0.601 -0.2549 -0.0554  0.4901
  121ACOH    O2 9862   4.565   9.467   0.593 -0.0246 -0.1005 -0.0640
  121ACOH    C2 9863   4.604   9.523   0.703 -0.0777  0.2076 -0.5606
  121ACOH    O1 9864   4.588   9.475   0.809  0.0575  0.5304 -0.4789
  121ACOH    C1 9865   4.624   9.670   0.688  1.2340 -0.3830  0.1908
  121ACOH    H1 9866   4.628   9.720   0.784 -1.1876  0.9620 -0.3730
  121ACOH    H2 9867   4.536   9.709   0.636  1.4435 -0.1610  0.0017
  121ACOH    H3 9868   4.707   9.691   0.621  0.5435 -0.5184 -0.7233
  122ACOH    H4 9869   3.880   7.722   0.127  0.5709  1.9593  1.2881
  122ACOH    O2 9870   3.957   7.664   0.138 -0.4407  0.4567  0.6072
  122ACOH    C2 9871   3.916   7.540   0.162  0.2728 -0.1772  0.3775
  122ACOH    O1 9872   3.803   7.496   0.144  0.3769 -0.7501  0.1751
  122ACOH    C1 9873   4.034   7.445   0.164  0.1658  0.6695  1.1123
  122ACOH    H1 9874   4.029   7.373   0.082 -2.2692 -1.7666  3.3233
  122ACOH    H2 9875   4.041   7.388   0.257 -0.4620 -0.5959  0.3883
  122ACOH    H3 9876   4.126   7.500   0.142  0.2000  0.6562  1.2221
  123ACOH    H4 9877   4.662   9.323   0.285 -0.1077  0.0912  0.6925
  123ACOH    O2 9878   4.749   9.287   0.260 -0.0201  0.4796  0.4385
  123ACOH    C2 9879   4.830   9.267   0.364  0.0847 -0.3510 -0.5410
  123ACOH    O1 9880   4.796   9.289   0.479  0.2030  0.5529  0.1187
  123ACOH    C1 9881   4.951   9.184   0.334 -0.6615  0.5414 -0.9055
  123ACOH    H1 9882   4.979   9.185   0.228  1.9006  0.6643 -0.2411
  123ACOH    H2 9883   4.941   9.080   0.364 -0.9297  0.7507 -0.2598
  123ACOH    H3 9884   5.041   9.213   0.388  0.7302 -2.0165 -1.7510
  124ACOH    H4 9885   9.541   5.415   0.212 -1.0039  1.4033 -1.0836
  124ACOH    O2 9886   9.499   5.467   0.283 -0.5332 -0.3439  0.5288
  124ACOH    C2 9887   9.566   5.460   0.399 -0.9090 -0.5745  0.1502
  124ACOH    O1 9888   9.668   5.400   0.424 -0.4225 -0.4659 -0.3293
  124ACOH    C1 9889   9.487   5.527   0.502  0.0151 -0.6068  0.5833
  124ACOH    H1 9890   9.379   5.524   0.483 -0.2189  0.1809  1.7552
  124ACOH    H2 9891   9.514   5.632   0.497 -2.7150  0.1764  1.3330
  124ACOH    H3 9892   9.511   5.493   0.603  0.1795 -0.1741  0.6894
  125ACOH    H4 9893   9.588   5.065   0.449 -0.4024 -1.0595 -0.0006
  125ACOH    O2 9894   9.520   5.077   0.380 -0.0038 -0.1627 -0.2402
  125ACOH    C2 9895   9.427   5.163   0.427  0.3011 -0.2578  0.1828
  125ACOH    O1 9896   9.410   5.184   0.547 -0.3619  0.2534 -0.3301
  125ACOH    C1 9897   9.323   5.202   0.330  0.4263  0.0458  0.6767
  125ACOH    H1 9898   9.336   5.182   0.224 -1.2167  0.3222  0.4040
  125ACOH    H2 9899   9.311   5.310   0.339  2.7145  0.2914  0.8888
  125ACOH    H3 9900   9.227   5.165   0.367  1.0725 -1.4498  0.8596
  126ACOH    H4 9901   9.836   3.999   2.583 -0.9164 -0.8309  1.4189
  126ACOH    O2 9902   9.789   3.941   2.521  0.9507 -0.3464 -0.5171
  126ACOH    C2 9903   9.661   3.984   2.525  0.0073  0.0578  0.2332
  126ACOH    O1 9904   9.619   4.067   2.604 -0.1617  0.9119 -0.1472
  126ACOH    C1 9905   9.572   3.911   2.429  0.3689 -0.1848 -0.3640
  126ACOH    H1 9906   9.496   3.976   2.385 -0.0994 -1.1312 -0.9533
  126ACOH    H2 9907   9.525   3.830   2.484 -0.7524 -0.3911 -1.6106
  126ACOH    H3 9908   9.633   3.865   2.352 -0.9365 -2.9264  0.1892
  127ACOH    H4 9909   4.701   0.741   1.965  0.7634  0.0726  0.9615
  127ACOH    O2 9910   4.759   0.774   1.895 -0.3113 -0.3300 -0.1407
  127ACOH    C2 9911   4.880   0.772   1.953 -0.0498 -0.7724 -0.0074
  127ACOH    O1 9912   4.911   0.719   2.057 -0.6812 -0.4631 -0.1011
  127ACOH    C1 9913   4.988   0.812   1.862  0.1714  0.1772 -0.8630
  127ACOH    H1 9914   4.971   0.913   1.823 -1.3433  0.2591 -0.0401
  127ACOH    H2 9915   4.996   0.741   1.780  0.8220  0.2058 -0.8302
  127ACOH    H3 9916   5.079   0.822   1.921 -0.7220  1.3002  0.3677
  128ACOH    H4 9917   4.777   8.488   0.837  0.0093 -0.3028 -0.0123
  128ACOH    O2 9918   4.860   8.522   0.874 -0.1393  0.3138 -0.2486
  128ACOH    C2 9919   4.925   8.585   0.777  0.5899 -0.1399  0.0500
  128ACOH    O1 9920   4.877   8.635   0.676 -0.5694  0.5446 -0.4222
  128ACOH    C1 9921   5.054   8.638   0.821 -0.4366  0.3056  1.0565
  128ACOH    H1 9922   5.122   8.552   0.827  1.0106  1.3092 -0.6586
  128ACOH    H2 9923   5.039   8.691   0.915 -0.3920  1.6064  0.3426
  128ACOH    H3 9924   5.089   8.710   0.748 -0.2520  0.1561  0.9985
  129ACOH    H4 9925   1.385   2.222   2.458  0.2651 -0.3341 -0.7428
  129ACOH    O2 9926   1.372   2.130   2.427 -0.5618 -0.4465 -0.0968
  129ACOH    C2 9927   1.370   2.046   2.529  0.3151  0.4918  0.0937
  129ACOH    O1 9928   1.440   2.063   2.626  0.1152 -0.7269  0.1031
  129ACOH    C1 9929   1.327   1.906   2.487  0.0798  0.0494 -0.8316
  129ACOH    H1 9930   1.318   1.842   2.575 -2.0237  0.8841 -0.3948
  129ACOH    H2 9931   1.395   1.864   2.412  1.1381 -1.6740  1.0291
  129ACOH    H3 9932   1.231   1.918   2.437  1.2148  1.0941 -2.8324
  130ACOH    H4 9933   5.605   9.738   1.493  0.9810 -0.0394 -1.5004
  130ACOH    O2 9934   5.628   9.644   1.487 -0.1676 -0.4381 -0.0416
  130ACOH    C2 9935   5.654   9.604   1.615  0.0329  0.1748  0.2447
  130ACOH    O1 9936   5.662   9.684   1.702 -0.0182  0.0361  0.5598
  130ACOH    C1 9937   5.675   9.460   1.616  0.3862 -0.1763 -0.7906
  130ACOH    H1 9938   5.668   9.418   1.717 -1.5061  1.2945 -0.2896
  130ACOH    H2 9939   5.778   9.443   1.583  0.0346 -0.7355 -1.6061
  130ACOH    H3 9940   5.603   9.414   1.548  1.2948 -1.5813 -0.8306
  131ACOH    H4 9941   4.925   1.362   1.071  1.2409  0.9552  0.7311
  131ACOH    O2 9942   4.883   1.321   1.148  0.4827 -0.4418 -0.3770
  131ACOH    C2 9943   4.945   1.369   1.255 -0.7781  0.8852  0.4756
  131ACOH    O1 9944   5.037   1.449   1.258  0.3034 -0.2990 -0.0543
  131ACOH    C1 9945   4.895   1.314   1.376 -0.0261 -0.4939 -0.1054
  131ACOH    H1 9946   4.946   1.349   1.466 -0.2950 -0.9216  0.2164
  131ACOH    H2 9947   4.890   1.206   1.385 -2.0137 -0.4493 -0.4322
  131ACOH    H3 9948   4.791   1.346   1.376 -0.5868 -2.2515 -0.6860
  132ACOH    H4 9949   9.573   5.389   1.854  1.6261 -0.6500 -0.5290
  132ACOH    O2 9950   9.587   5.485   1.849  0.1399 -0.3742  0.1280
  132ACOH    C2 9951   9.665   5.525   1.954 -0.1301  0.2248  0.1456
  132ACOH    O1 9952   9.735   5.450   2.022  0.1847 -0.4707 -0.2536
  132ACOH    C1 9953   9.700   5.668   1.936 -1.2594  0.2945 -0.8420
  132ACOH    H1 9954   9.707   5.680   1.827  1.1361 -1.4405 -0.9241
  132ACOH    H2 9955   9.800   5.697   1.968 -1.5906 -0.1729  0.6237
  132ACOH    H3 9956   9.631   5.737   1.983 -1.2165 -0.0602 -0.2662
  133ACOH    H4 9957   9.766   5.675   0.720  0.2965  0.7808 -0.1667
  133ACOH    O2 9958   9.692   5.725   0.758 -0.1350 -0.0480  0.0783
  133ACOH    C2 9959   9.740   5.809   0.851  0.2408  0.1262  0.9617
  133ACOH    O1 9960   9.851   5.823   0.890 -0.0070  0.3131  0.1413
  133ACOH    C1 9961   9.622   5.871   0.908 -0.3956  0.0708  0.2356
  133ACOH    H1 9962   9.569   5.788   0.955  0.4170 -0.4477  0.2494
  133ACOH    H2 9963   9.554   5.915   0.835 -0.2340 -2.0888 -1.2532
  133ACOH    H3 9964   9.654   5.943   0.983  0.7143 -0.3482  0.1725
  134ACOH    H4 9965   5.175   2.184   2.012 -0.9330 -0.8937 -0.8065
  134ACOH    O2 9966   5.246   2.134   1.968  0.0856  0.1176 -0.3598
  134ACOH    C2 9967   5.249   2.005   2.020 -0.1150 -0.5046 -0.6421
  134ACOH    O1 9968   5.177   1.961   2.107  0.4015  0.3796 -0.0854
  134ACOH    C1 9969   5.367   1.932   1.974  0.1891  0.1997 -0.0374
  134ACOH    H1 9970   5.433   1.999   1.919 -0.0423  0.8471  0.4739
  134ACOH    H2 9971   5.345   1.838   1.923  1.9774 -1.7081  2.5509
  134ACOH    H3 9972   5.425   1.908   2.063  0.5401 -0.7729 -0.5202
  135ACOH    H4 9973   9.543   4.574   1.384 -2.2422 -1.1667  1.8517
  135ACOH    O2 9974   9.497   4.531   1.311 -0.0460  0.1484 -0.4163
  135ACOH    C2 9975   9.545   4.408   1.290  0.8165 -0.3214 -0.1762
  135ACOH    O1 9976   9.649   4.354   1.317  0.4539 -0.4635  0.2266
  135ACOH    C1 9977   9.438   4.337   1.215  0.3633 -0.0913  0.3116
  135ACOH    H1 9978   9.410   4.380   1.119  0.0422  1.7690  1.2230
  135ACOH    H2 9979   9.349   4.347   1.278  1.4099 -0.5224  1.8772
  135ACOH    H3 9980   9.470   4.235   1.194 -0.6885  0.2760 -3.4520
  136ACOH    H4 9981   5.265   1.800   0.561 -2.5871  0.0971  1.2257
  136ACOH    O2 9982   5.263   1.897   0.568 -0.1702  0.2426  0.4220
  136ACOH    C2 9983   5.212   1.938   0.451 -0.1477  0.2625  1.2528
  136ACOH    O1 9984   5.181   1.869   0.358  0.2175 -0.2645 -0.0767
  136ACOH    C1 9985   5.197   2.084   0.445 -0.3489 -0.3158 -0.7338
  136ACOH    H1 9986   5.093   2.108   0.422 -0.0865 -0.0886 -1.6815
  136ACOH    H2 9987   5.265   2.128   0.372  1.0789  2.0558  1.9160
  136ACOH    H3 9988   5.230   2.125   0.541 -1.2804  2.2227 -1.4425
  137ACOH    H4 9989   1.283   2.293   0.744  1.9930  0.5273  0.9933
  137ACOH    O2 9990   1.309   2.324   0.656  0.4716 -0.2813  0.2462
  137ACOH    C2 9991   1.407   2.238   0.622  0.4457  0.3258  0.2554
  137ACOH    O1 9992   1.455   2.160   0.703 -0.2642 -0.3197 -0.1172
  137ACOH    C1 9993   1.459   2.286   0.490  0.0331  0.1458  0.6222
  137ACOH    H1 9994   1.455   2.208   0.414  0.4747  1.9931 -1.3412
  137ACOH    H2 9995   1.565   2.306   0.509  0.3912 -1.6502  0.6441
  137ACOH    H3 9996   1.411   2.377   0.455 -0.3715 -0.2346  0.1894
  138ACOH    H4 9997   3.505   1.783   2.149 -2.1153  0.7548 -0.4993
  138ACOH    O2 9998   3.521   1.779   2.053 -0.2217  0.0477 -0.1848
  138ACOH    C2 9999   3.511   1.648   2.018  0.4508 -0.0641  0.1076
  138ACOH    O110000   3.514   1.554   2.099  0.2554 -0.0998 -0.3233
  138ACOH    C110001   3.532   1.628   1.876 -0.4469 -0.5101 -0.4388
  138ACOH    H110002   3.555   1.717   1.818  0.2654 -2.6900 -3.6507
  138ACOH    H210003   3.439   1.593   1.832  0.1562 -1.6164 -0.8412
  138ACOH    H310004   3.616   1.562   1.857  0.1925  0.9387 -2.7809
  139ACOH    H410005   9.695   4.021   1.350  0.2837 -0.7640 -1.3075
  139ACOH    O210006   9.609   3.992   1.315 -0.8076 -0.1304  0.7517
  139ACOH    C210007   9.526   3.999   1.419 -0.3275 -0.2303 -0.9700
  139ACOH    O110008   9.553   4.038   1.535  0.5521 -0.2552 -0.3751
  139ACOH    C110009   9.389   3.970   1.388  0.2080  0.5778 -0.9170
  139ACOH    H110010   9.329   4.053   1.426  0.1123  0.1429 -0.1082
  139ACOH    H210011   9.366   3.882   1.449  1.6694  0.3405 -0.6904
  139ACOH    H310012   9.374   3.954   1.281  1.3732 -0.0735 -0.9925
  140ACOH    H410013   1.757   1.747   2.263 -0.4525  0.0067  0.7133
  140ACOH    O210014   1.687   1.813   2.276 -0.1626  0.4750 -0.0506
  140ACOH    C210015   1.720   1.918   2.205  0.2772 -0.0974  0.7693
  140ACOH    O110016   1.831   1.950   2.172  0.0535 -0.6234 -0.0812
  140ACOH    C110017   1.602   2.009   2.202  0.0340 -0.2147  0.4991
  140ACOH    H110018   1.624   2.090   2.272  1.4085 -1.0655  1.0734
  140ACOH    H210019   1.516   1.954   2.240 -0.0645 -1.5419 -1.5789
  140ACOH    H310020   1.588   2.043   2.099 -2.0841 -0.5843  0.6464
  141ACOH    H410021   5.978   3.400   1.611  1.1672 -0.8034 -0.0603
  141ACOH    O210022   6.048   3.464   1.588 -0.0199  0.3182 -0.6224
  141ACOH    C210023   6.035   3.500   1.461  0.1054  0.4612  0.0567
  141ACOH    O110024   5.947   3.462   1.382  0.1128 -0.2755  0.0525
  141ACOH    C110025   6.134   3.602   1.411  0.1010 -0.8633  1.5809
  141ACOH    H110026   6.213   3.623   1.483 -0.3625 -1.3567  2.2432
  141ACOH    H210027   6.075   3.691   1.389  1.6174  0.1423  1.5089
  141ACOH    H310028   6.186   3.565   1.323 -1.8276 -2.6655  1.1516
  142ACOH    H410029   4.832   1.522   2.285 -1.8136 -1.5385  0.3430
  142ACOH    O210030   4.871   1.473   2.211 -0.1361  0.3216 -0.0626
  142ACOH    C210031   4.890   1.549   2.104 -0.1620  0.6159  0.7272
  142ACOH    O110032   4.850   1.662   2.096  0.2545 -0.5460  0.1997
  142ACOH    C110033   4.951   1.476   1.989  1.2398 -0.0099 -0.9402
  142ACOH    H110034   4.888   1.482   1.901  1.8981 -0.6809 -1.4699
  142ACOH    H210035   4.980   1.373   2.012 -1.9376 -0.5870  0.7137
  142ACOH    H310036   5.040   1.536   1.969 -0.9245  4.4356  2.0345
  143ACOH    H410037   3.339   7.441   0.149  1.2010  1.2228  3.0654
  143ACOH    O210038   3.423   7.465   0.107 -0.2572  0.3741 -0.4956
  143ACOH    C210039   3.390   7.550   0.004 -0.1045  0.3026  0.5764
  143ACOH    O110040   3.283   7.607  -0.015 -0.1321  0.0485 -0.0204
  143ACOH    C110041   3.505   7.571  -0.083 -0.0169 -0.3143 -0.4758
  143ACOH    H110042   3.597   7.586  -0.026 -1.1562 -0.8710  1.5763
  143ACOH    H210043   3.479   7.652  -0.152  1.9781  0.5473 -0.2476
  143ACOH    H310044   3.508   7.485  -0.150  0.8604 -1.5164  1.0715
  144ACOH    H410045   5.628   2.770   0.443  0.2151  0.7250  0.1605
  144ACOH    O210046   5.704   2.712   0.427 -0.3077  0.0862 -0.0256
  144ACOH    C210047   5.779   2.711   0.538 -0.1627  1.1685  0.6118
  144ACOH    O110048   5.760   2.787   0.633  0.3099  0.0847  0.4378
  144ACOH    C110049   5.891   2.616   0.533 -0.1609  0.2557  0.2102
  144ACOH    H110050   5.955   2.628   0.445 -0.8485  0.6050 -0.2493
  144ACOH    H210051   5.853   2.513   0.531  0.7140 -0.0656 -0.4288
  144ACOH    H310052   5.950   2.629   0.623 -3.0013  0.0468  2.1929
  145ACOH    H410053   1.687   1.072   1.792 -0.3377  1.2167 -0.6994
  145ACOH    O210054   1.596   1.061   1.761 -0.5382  0.2660  0.2110
  145ACOH    C210055   1.551   0.944   1.807  0.4633 -0.2359  0.4520
  145ACOH    O110056   1.607   0.866   1.882  0.0212 -0.0803 -0.4793
  145ACOH    C110057   1.407   0.938   1.765 -0.2220 -0.0202 -0.3064
  145ACOH    H110058   1.374   0.836   1.785 -1.0933  0.0933 -1.1373
  145ACOH    H210059   1.407   0.956   1.658 -1.5338  0.0313 -0.3094
  145ACOH    H310060   1.351   1.014   1.820  1.1543 -0.1152  1.2932
  146ACOH    H410061   5.425   2.491   0.002  0.0156  0.0844 -2.4975
  146ACOH    O210062   5.460   2.403  -0.019 -0.4566 -0.7157 -0.0826
  146ACOH    C210063   5.492   2.417  -0.147  0.3222  0.0201  0.3316
  146ACOH    O110064   5.472   2.508  -0.226 -0.4118 -0.0504  0.5193
  146ACOH    C110065   5.535   2.285  -0.207 -0.6058 -0.0648 -0.4770
  146ACOH    H110066   5.451   2.224  -0.240  0.8368 -1.8546 -0.9488
  146ACOH    H210067   5.600   2.231  -0.138 -1.6336  0.4382  0.8973
  146ACOH    H310068   5.601   2.317  -0.287 -1.5501  0.8713 -0.8935
  147ACOH    H410069   5.300   8.699   1.067  0.6769  0.5931 -1.2055
  147ACOH    O210070   5.238   8.773   1.059 -0.3973 -0.1050  0.3870
  147ACOH    C210071   5.290   8.870   0.983 -1.2560 -0.2981 -0.3158
  147ACOH    O110072   5.406   8.882   0.956  0.1349 -0.2163  0.5655
  147ACOH    C110073   5.200   8.980   0.940 -0.1859 -0.9372  0.2340
  147ACOH    H110074   5.099   8.969   0.977 -0.2149 -0.8614  0.1775
  147ACOH    H210075   5.189   8.990   0.832 -0.1203  0.0077  0.3068
  147ACOH    H310076   5.244   9.074   0.973 -2.4261  0.9783 -1.9815
  148ACOH    H410077   1.183   7.010   1.399 -0.1213 -0.3574 -1.2979
  148ACOH    O210078   1.089   6.987   1.411 -0.0272 -0.2683 -0.2917
  148ACOH    C210079   1.038   7.084   1.497  0.0576  0.0015  0.1736
  148ACOH    O110080   1.103   7.174   1.549 -0.7400 -0.2290 -0.3126
  148ACOH    C110081   0.892   7.073   1.496 -0.2353 -0.3595 -0.0012
  148ACOH    H110082   0.849   7.154   1.555  1.8710 -0.0917  1.2347
  148ACOH    H210083   0.873   6.976   1.542 -0.5894  0.8550  2.5066
  148ACOH    H310084   0.858   7.078   1.392  0.9795  0.3840 -0.3701
  149ACOH    H410085   4.359   8.190   1.122  0.7405 -1.3509 -1.2130
  149ACOH    O210086   4.283   8.139   1.155  0.1643  0.2264 -0.0696
  149ACOH    C210087   4.304   8.014   1.118  0.1116  0.3446  0.3415
  149ACOH    O110088   4.391   7.971   1.038 -0.2360  0.1802 -1.1215
  149ACOH    C110089   4.187   7.935   1.163 -0.4418  0.1887  0.3187
  149ACOH    H110090   4.136   8.000   1.234  1.1819 -0.0505  1.7421
  149ACOH    H210091   4.213   7.846   1.220  0.3336  0.4984  0.4498
  149ACOH    H310092   4.115   7.912   1.084 -0.1123  0.9178 -0.1990
  150ACOH    H410093   5.646   2.887   1.344 -0.6869  1.0099  2.2689
  150ACOH    O210094   5.730   2.875   1.392  0.0770 -0.5556  0.5880
  150ACOH    C210095   5.729   2.752   1.449 -0.3434  0.3910  0.8269
  150ACOH    O110096   5.626   2.682   1.459  0.4254  0.2987  0.5195
  150ACOH    C110097   5.859   2.717   1.518  0.2175  0.4510 -0.5482
  150ACOH    H110098   5.855   2.764   1.617  1.8727 -0.7976  0.1482
  150ACOH    H210099   5.940   2.760   1.458 -0.4065  0.7578 -1.1748
  150ACOH    H310100   5.861   2.610   1.535  0.8184  0.5800  0.2674
  151ACOH    H410101   4.673   8.350   2.298 -0.2345  1.8316 -0.2225
  151ACOH    O210102   4.639   8.353   2.207 -0.1053 -0.3285 -0.3733
  151ACOH    C210103   4.537   8.264   2.203 -0.3572 -0.0836  0.2080
  151ACOH    O110104   4.514   8.172   2.279  0.4977  0.0395  0.3359
  151ACOH    C110105   4.461   8.274   2.070 -0.5298  0.6260  0.4960
  151ACOH    H110106   4.356   8.302   2.075  0.1670  3.4301  0.5969
  151ACOH    H210107   4.479   8.177   2.023 -0.4258  0.7649  0.2482
  151ACOH    H310108   4.522   8.345   2.014  0.2475 -2.4005 -2.6363
  152ACOH    H410109   1.121   4.236   1.582  1.2712 -0.4983  1.0016
  152ACOH    O210110   1.169   4.301   1.528 -0.1474  0.1549  0.4888
  152ACOH    C210111   1.294   4.245   1.520 -0.7667 -0.3691  0.7259
  152ACOH    O110112   1.318   4.136   1.562  0.0741  0.4988  0.1732
  152ACOH    C110113   1.376   4.328   1.431  0.1321 -0.3265 -0.0953
  152ACOH    H110114   1.483   4.327   1.454  0.6254 -1.6323 -2.3227
  152ACOH    H210115   1.346   4.431   1.453  0.2015  0.0527 -1.7052
  152ACOH    H310116   1.363   4.305   1.326 -0.1745  0.8407 -0.3173
  153ACOH    H410117   9.610   4.743   1.001 -2.2748 -2.1005  0.6424
  153ACOH    O210118   9.583   4.817   1.058  0.1884 -0.2748 -0.4602
  153ACOH    C210119   9.627   4.929   1.001  0.2274  0.8099 -0.1050
  153ACOH    O110120   9.708   4.933   0.908 -0.0583  0.2221  0.4398
  153ACOH    C110121   9.582   5.048   1.068  0.6804 -0.1179 -0.0662
  153ACOH    H110122   9.499   5.091   1.012  0.8969 -1.0772 -1.1381
  153ACOH    H210123   9.665   5.119   1.068 -0.4492  1.2489  0.5514
  153ACOH    H310124   9.562   5.021   1.172 -0.7778 -4.1713 -1.3372
  154ACOH    H410125   9.566   5.312   2.613  0.6315  1.1102 -0.5135
  154ACOH    O210126   9.610   5.363   2.683  0.2535  0.0935  0.4820
  154ACOH    C210127   9.700   5.441   2.630 -0.2667  0.5786  0.0537
  154ACOH    O110128   9.685   5.479   2.516  0.4380 -0.0607 -0.1334
  154ACOH    C110129   9.768   5.512   2.738 -0.4411  0.0672 -0.1061
  154ACOH    H110130   9.784   5.444   2.822 -0.3806  0.2463  0.0276
  154ACOH    H210131   9.707   5.597   2.766 -0.4065  0.1294 -0.2217
  154ACOH    H310132   9.862   5.549   2.698  0.3454  0.0276  1.6527
  155ACOH    H410133   4.962   5.138   1.182  0.0651 -1.6114  1.9210
  155ACOH    O210134   5.057   5.135   1.161 -0.3424  0.6165 -0.5304
  155ACOH    C210135   5.070   5.024   1.072 -0.0061  0.5133  0.0446
  155ACOH    O110136   4.998   4.988   0.984 -0.0856  0.2284  0.6304
  155ACOH    C110137   5.200   4.947   1.094  0.8026 -0.2005 -0.2774
  155ACOH    H110138   5.184   4.878   1.177  0.7578  0.9149  0.6624
  155ACOH    H210139   5.295   4.997   1.114 -0.0999  0.9510  1.2604
  155ACOH    H310140   5.220   4.883   1.008  2.2861  1.2045 -0.9934
  156ACOH    H410141   1.524   1.680   0.744 -3.3307  0.2858  1.3537
  156ACOH    O210142   1.528   1.593   0.786  0.0834  0.1600  0.9381
  156ACOH    C210143   1.542   1.494   0.697  0.2234  0.2946 -0.0748
  156ACOH    O110144   1.600   1.507   0.590  0.0538  0.1183 -0.5219
  156ACOH    C110145   1.505   1.364   0.752  0.1454 -0.3129  0.2081
  156ACOH    H110146   1.432   1.383   0.831 -1.7097  1.0251 -1.7894
  156ACOH    H210147   1.588   1.311   0.798  0.4256  0.4434  0.5742
  156ACOH    H310148   1.455   1.306   0.674 -1.4474  2.2371 -0.7144
  157ACOH    H410149   2.280   2.298   2.140 -0.3255  0.6769 -0.5195
  157ACOH    O210150   2.303   2.381   2.184  0.2032  0.2638 -0.0123
  157ACOH    C210151   2.430   2.399   2.156 -0.3654 -0.5956 -0.1884
  157ACOH    O110152   2.489   2.341   2.064 -0.3383  0.1059  0.0045
  157ACOH    C110153   2.474   2.523   2.218  0.5709 -0.5574  0.8987
  157ACOH    H110154   2.583   2.526   2.216  0.5400 -0.0738 -0.8215
  157ACOH    H210155   2.435   2.554   2.315 -0.6748 -0.8550  0.5045
  157ACOH    H310156   2.430   2.597   2.151 -0.3205 -0.7507  1.2581
  158ACOH    H410157   1.208   7.442   1.909 -0.3794  1.5596 -1.4166
  158ACOH    O210158   1.234   7.507   1.977 -0.4739  0.0782  0.0849
  158ACOH    C210159   1.327   7.582   1.920 -0.9694  0.6154 -0.3574
  158ACOH    O110160   1.397   7.543   1.829  0.1659 -0.1050 -0.3761
  158ACOH    C110161   1.371   7.693   2.006  0.5251  0.1929 -0.4313
  158ACOH    H110162   1.319   7.696   2.102  1.5008  1.2052  0.0732
  158ACOH    H210163   1.347   7.791   1.965 -2.0759  0.2776  1.1827
  158ACOH    H310164   1.478   7.689   2.023  0.6113  1.7893 -0.5132
  159ACOH    H410165   9.943   4.188   2.300  0.1533  0.9469 -0.7716
  159ACOH    O210166   9.934   4.139   2.217  0.6013 -0.1470 -0.1866
  159ACOH    C210167   9.949   4.216   2.111 -0.4867 -0.0404  0.2996
  159ACOH    O110168   9.977   4.334   2.111  0.1590  0.6564  0.5218
  159ACOH    C110169   9.950   4.137   1.987 -0.0865  0.5994 -0.2674
  159ACOH    H110170   9.875   4.059   1.986  0.9262 -0.4193 -3.5240
  159ACOH    H210171  10.048   4.091   1.968  0.5104  2.0725 -0.8526
  159ACOH    H310172   9.936   4.200   1.899  0.9005  0.5287 -0.4900
  160ACOH    H410173   4.680  10.162   2.341  1.0491 -1.2405  1.1692
  160ACOH    O210174   4.750  10.208   2.293 -0.7261  0.9022  0.5558
  160ACOH    C210175   4.749  10.207   2.157  0.7014 -0.0876 -0.3182
  160ACOH    O110176   4.662  10.173   2.080 -0.1538 -1.1311 -0.1969
  160ACOH    C110177   4.866  10.274   2.107  0.7764  0.0572 -0.1256
  160ACOH    H110178   4.874  10.287   1.999  0.1337 -1.6335 -0.3896
  160ACOH    H210179   4.956  10.222   2.138  0.9917  0.2163 -0.4960
  160ACOH    H310180   4.870  10.372   2.155 -2.9291 -0.1125  0.7049
  161ACOH    H410181   5.148   2.388   1.063  2.0277 -1.3396  1.3769
  161ACOH    O210182   5.181   2.354   0.978  0.2307  0.1213  0.0593
  161ACOH    C210183   5.099   2.258   0.944  0.0424  0.0114  0.1250
  161ACOH    O110184   5.004   2.211   1.005  0.1038 -0.2174  0.1973
  161ACOH    C110185   5.145   2.218   0.809 -0.0181  0.7303  0.2977
  161ACOH    H110186   5.188   2.118   0.807 -2.7728 -0.5343  1.4593
  161ACOH    H210187   5.216   2.288   0.765  1.6734 -0.7486  0.5943
  161ACOH    H310188   5.054   2.212   0.748 -1.6646 -1.6743  2.8690
  162ACOH    H410189   3.778   3.929   1.501 -0.9009 -1.7028 -0.6145
  162ACOH    O210190   3.697   3.972   1.531  0.3277  0.5228 -0.3989
  162ACOH    C210191   3.609   3.963   1.428 -0.2238 -0.1661  0.2118
  162ACOH    O110192   3.629   3.910   1.322 -0.3444  0.0552  0.9562
  162ACOH    C110193   3.480   4.025   1.458 -0.3864  0.3476  0.2574
  162ACOH    H110194   3.420   3.959   1.521  0.0592  0.2031  0.5338
  162ACOH    H210195   3.425   4.059   1.371  0.4056  0.3029 -0.2659
  162ACOH    H310196   3.506   4.112   1.518 -1.2510 -0.7158  2.2399
  163ACOH    H410197   5.340   1.544   0.753 -1.0828 -0.1413 -1.1946
  163ACOH    O210198   5.389   1.487   0.692  0.5140 -0.1817  0.0869
  163ACOH    C210199   5.346   1.513   0.563 -0.1269  0.3523  0.2110
  163ACOH    O110200   5.299   1.620   0.537 -0.2552 -0.0206 -0.1459
  163ACOH    C110201   5.427   1.435   0.465 -0.3078  0.0796  0.1423
  163ACOH    H110202   5.381   1.457   0.369 -0.2738 -1.2461 -0.1731
  163ACOH    H210203   5.425   1.328   0.485  0.7479  0.0139 -0.1012
  163ACOH    H310204   5.530   1.470   0.462  0.2149 -1.3030  1.2913
  164ACOH    H410205  10.206   5.908   0.415  0.9327 -0.8606 -0.1350
  164ACOH    O210206  10.129   5.890   0.471  0.5536  0.2845 -0.2769
  164ACOH    C210207  10.161   5.957   0.583  0.3832 -0.5658  0.2822
  164ACOH    O110208  10.262   6.025   0.598  0.4442  0.1100  0.3991
  164ACOH    C110209  10.050   5.940   0.685 -0.5898 -0.0756  0.8882
  164ACOH    H110210  10.076   5.878   0.771  0.3069  1.1199  1.4919
  164ACOH    H210211   9.961   5.900   0.636 -1.4543 -0.0542  2.4313
  164ACOH    H310212  10.027   6.038   0.727 -1.3262 -0.4247  1.3042
  165ACOH    H410213   3.840   0.616   1.785 -0.3423 -1.1363 -0.2528
  165ACOH    O210214   3.821   0.592   1.878 -0.0585 -0.3119  0.0175
  165ACOH    C210215   3.914   0.651   1.954  0.0661  0.0496  0.1531
  165ACOH    O110216   4.013   0.707   1.912 -0.3256  0.6443  0.2170
  165ACOH    C110217   3.891   0.630   2.101 -0.1926 -0.5990  0.3353
  165ACOH    H110218   3.951   0.704   2.153 -2.1930  1.0234  0.4359
  165ACOH    H210219   3.913   0.532   2.142 -0.1473 -0.9856 -0.6002
  165ACOH    H310220   3.785   0.646   2.123  0.5223  1.0839  2.8730
  166ACOH    H410221   2.627   2.857   1.996 -1.1909  2.5959 -1.0558
  166ACOH    O210222   2.571   2.883   2.071  0.1275  0.8000  0.6082
  166ACOH    C210223   2.634   2.884   2.189 -0.3683  0.0890  0.2110
  166ACOH    O110224   2.744   2.833   2.211  0.0315  0.1290  0.4697
  166ACOH    C110225   2.550   2.949   2.296  0.1745 -0.1191 -0.2263
  166ACOH    H110226   2.464   2.890   2.328 -0.7683  0.4356 -1.6729
  166ACOH    H210227   2.527   3.049   2.261 -2.2298  0.1153  1.8143
  166ACOH    H310228   2.620   2.964   2.378 -0.2036  0.3595  0.0135
  167ACOH    H410229   5.123   1.394   0.078 -0.7256  0.3330  2.8935
  167ACOH    O210230   5.210   1.432   0.098  0.4315 -0.6844  0.0878
  167ACOH    C210231   5.222   1.543   0.025 -1.1568  0.0919 -0.3592
  167ACOH    O110232   5.157   1.581  -0.067  0.5271 -0.0619 -0.0997
  167ACOH    C110233   5.322   1.632   0.086 -0.1901  0.1345 -0.0762
  167ACOH    H110234   5.330   1.724   0.028 -0.7241 -0.8367 -1.7435
  167ACOH    H210235   5.414   1.573   0.081  0.7515  1.6166 -0.8401
  167ACOH    H310236   5.294   1.652   0.189 -1.8214 -1.2580 -0.2326
  168ACOH    H410237   4.777   1.152   2.129 -0.6507  0.3172 -2.8898
  168ACOH    O210238   4.868   1.141   2.097  0.4907 -1.0489  0.6360
  168ACOH    C210239   4.942   1.077   2.187  0.2164  0.5912  0.3041
  168ACOH    O110240   4.899   1.002   2.276 -0.0980 -0.2183  0.0327
  168ACOH    C110241   5.085   1.092   2.165  0.0575  0.2853  0.4004
  168ACOH    H110242   5.103   1.162   2.084  0.0204  1.1580  1.1391
  168ACOH    H210243   5.123   0.994   2.134  2.0955  1.5706 -1.3294
  168ACOH    H310244   5.134   1.124   2.257  0.1992  2.0097 -0.2566
  169ACOH    H410245   5.774   3.996   0.253 -0.1289 -1.1375 -0.9168
  169ACOH    O210246   5.821   4.032   0.176 -0.0774 -0.1248 -0.4164
  169ACOH    C210247   5.883   3.930   0.124 -0.3494  0.0774 -0.3302
  169ACOH    O110248   5.835   3.823   0.095 -0.3934  0.4091 -0.1944
  169ACOH    C110249   6.012   3.974   0.064 -0.6172 -0.3381  0.0134
  169ACOH    H110250   6.037   4.070   0.110 -1.7068  0.1593 -0.4192
  169ACOH    H210251   6.004   3.997  -0.042  1.1132 -1.2958 -0.3554
  169ACOH    H310252   6.093   3.905   0.089 -0.1020 -0.3999 -1.7596
  170ACOH    H410253   5.143   0.839   1.215 -0.6979  0.5311 -0.2319
  170ACOH    O210254   5.185   0.873   1.296  0.0396 -0.1447 -0.3272
  170ACOH    C210255   5.089   0.949   1.347 -0.1424 -0.8255  0.0981
  170ACOH    O110256   4.971   0.929   1.348  0.0646  0.1029  0.1980
  170ACOH    C110257   5.144   1.069   1.411  0.1373  0.2697  0.4856
  170ACOH    H110258   5.111   1.071   1.515  0.1802 -1.2156  0.5401
  170ACOH    H210259   5.105   1.162   1.369 -1.3460  0.4902  2.2579
  170ACOH    H310260   5.253   1.063   1.416  0.1579  0.2787  0.0602
  171ACOH    H410261   9.304   5.620   1.751  2.6470 -0.2059  2.0778
  171ACOH    O210262   9.311   5.717   1.760 -0.2454  0.2219  0.2604
  171ACOH    C210263   9.441   5.739   1.739  0.6633  0.2130 -0.0229
  171ACOH    O110264   9.506   5.688   1.651 -0.4849  0.1227  0.1914
  171ACOH    C110265   9.475   5.864   1.804  0.8451  0.0191  0.4700
  171ACOH    H110266   9.430   5.868   1.903  1.3666 -0.3885  0.7278
  171ACOH    H210267   9.438   5.952   1.752 -0.3679 -0.7601  0.0055
  171ACOH    H310268   9.584   5.877   1.807  1.2471 -2.4270 -1.6708
  172ACOH    H410269   4.864   8.583   1.042 -1.5273  1.9536 -0.4250
  172ACOH    O210270   4.875   8.619   1.132 -0.0071  0.0740  0.1745
  172ACOH    C210271   4.784   8.713   1.137 -0.4595 -0.7307 -0.1158
  172ACOH    O110272   4.718   8.754   1.044  0.1253 -0.9507  0.0333
  172ACOH    C110273   4.768   8.758   1.277 -0.0529  0.5113  0.0932
  172ACOH    H110274   4.667   8.736   1.310 -0.3249  0.6687 -0.6362
  172ACOH    H210275   4.775   8.865   1.293  1.0596  0.2398  1.6157
  172ACOH    H310276   4.837   8.712   1.349  0.4904  2.6862  1.0029
  173ACOH    H410277   9.851   3.528   0.103 -0.0709 -0.4566  0.0107
  173ACOH    O210278   9.905   3.495   0.029 -0.0953  0.1365 -0.2680
  173ACOH    C210279   9.991   3.415   0.094  0.7196  0.7335  0.7603
  173ACOH    O110280  10.033   3.429   0.204 -0.6083 -0.0350  0.0115
  173ACOH    C110281  10.063   3.343  -0.009  0.3399  0.0808 -0.9330
  173ACOH    H110282  10.132   3.405  -0.067  0.4701  0.5200 -0.3090
  173ACOH    H210283   9.992   3.292  -0.075 -1.0463  0.5245  0.1984
  173ACOH    H310284  10.119   3.264   0.042  0.5903  2.1928  2.1663
  174ACOH    H410285   1.070   4.716   0.864 -1.2036  0.8200  1.1630
  174ACOH    O210286   1.077   4.627   0.903  0.1731  0.0286 -0.8340
  174ACOH    C210287   1.196   4.626   0.963 -0.7345  0.2269  0.5033
  174ACOH    O110288   1.267   4.716   0.993 -0.1634 -0.2739 -0.0906
  174ACOH    C110289   1.231   4.485   1.000 -0.0110  0.6769 -0.4255
  174ACOH    H110290   1.145   4.419   0.997  1.2569 -0.9780 -1.6378
  174ACOH    H210291   1.282   4.484   1.097  0.0717 -0.5439 -0.4789
  174ACOH    H310292   1.307   4.467   0.924  0.7660  0.4742  0.3836
  175ACOH    H410293   4.725   9.039   2.315 -0.9362 -0.2716 -0.2173
  175ACOH    O210294   4.714   8.977   2.389 -0.2355  0.2981  0.3870
  175ACOH    C210295   4.779   9.023   2.492 -0.0192 -0.5622 -0.0416
  175ACOH    O110296   4.844   9.127   2.498  0.1604  0.4635 -0.1710
  175ACOH    C110297   4.797   8.934   2.607 -0.6664  0.2772 -0.1442
  175ACOH    H110298   4.720   8.945   2.684 -1.2466 -0.1993 -0.6530
  175ACOH    H210299   4.895   8.948   2.652 -0.5176  2.7358 -1.1703
  175ACOH    H310300   4.800   8.829   2.578 -0.3551  0.3089 -0.2225
  176ACOH    H410301   4.678   5.542   1.597 -0.0593  0.2096  0.9344
  176ACOH    O210302   4.712   5.633   1.590  0.3258 -0.0405 -0.5839
  176ACOH    C210303   4.814   5.629   1.505  0.4275  0.5875 -0.4110
  176ACOH    O110304   4.832   5.540   1.425  0.0340 -0.6602  0.4076
  176ACOH    C110305   4.850   5.771   1.479 -0.5802  0.2085 -0.2658
  176ACOH    H110306   4.801   5.838   1.550 -1.9860 -0.2814 -0.7505
  176ACOH    H210307   4.797   5.790   1.386  0.3152 -1.3042 -1.1076
  176ACOH    H310308   4.956   5.783   1.458 -0.6185  0.2533 -0.4356
  177ACOH    H410309   3.909   7.789   1.424  1.7289  0.0790 -1.0638
  177ACOH    O210310   3.938   7.736   1.500 -0.6111 -0.0718 -0.2377
  177ACOH    C210311   4.035   7.809   1.558  0.0450  0.1651 -0.0127
  177ACOH    O110312   4.081   7.908   1.499 -0.1958  0.0244  0.2205
  177ACOH    C110313   4.078   7.765   1.691 -0.6062 -0.3572 -0.3167
  177ACOH    H110314   4.018   7.684   1.732 -1.1825  1.0439  1.6726
  177ACOH    H210315   4.073   7.851   1.757 -0.5183  0.6282 -1.5782
  177ACOH    H310316   4.181   7.729   1.695 -0.6178 -0.2352  1.1815
  178ACOH    H410317   4.907   2.296   0.097  0.5193  0.4737 -4.3659
  178ACOH    O210318   5.002   2.313   0.111  0.0993 -0.2577 -0.0514
  178ACOH    C210319   5.073   2.209   0.066 -0.1433 -0.5427 -0.1283
  178ACOH    O110320   5.040   2.119  -0.007 -0.0403 -0.1291  0.0565
  178ACOH    C110321   5.218   2.220   0.107  0.4203  1.1296 -0.5455
  178ACOH    H110322   5.269   2.123   0.112  0.3163  1.1734  3.2541
  178ACOH    H210323   5.219   2.256   0.210 -3.5416 -1.7426  0.6296
  178ACOH    H310324   5.267   2.290   0.040  0.7167 -0.5752 -2.1633
  179ACOH    H410325   9.354   5.091   0.679  0.9412 -0.3864 -0.4597
  179ACOH    O210326   9.338   5.048   0.765  0.7029  0.0131 -0.3051
  179ACOH    C210327   9.323   4.915   0.753 -0.0671 -0.1148 -0.0469
  179ACOH    O110328   9.351   4.855   0.651 -0.0460  0.1525 -0.4204
  179ACOH    C110329   9.303   4.842   0.883  0.2765 -0.4197 -0.4362
  179ACOH    H110330   9.212   4.782   0.874  0.5798 -0.7420 -1.4142
  179ACOH    H210331   9.286   4.910   0.966 -1.1750  0.6865 -1.5945
  179ACOH    H310332   9.380   4.767   0.902 -0.9493 -1.9239 -1.2448
  180ACOH    H410333   5.630   2.855   2.227  1.0867  1.0692 -0.8785
  180ACOH    O210334   5.702   2.832   2.287 -0.0216  0.2384  0.1547
  180ACOH    C210335   5.812   2.844   2.208  0.2624  0.1801 -0.1490
  180ACOH    O110336   5.808   2.860   2.088  0.1989  0.3992 -0.2216
  180ACOH    C110337   5.940   2.845   2.277  0.0229  0.4747  0.0713
  180ACOH    H110338   5.967   2.951   2.286  1.1520  0.3524 -1.5701
  180ACOH    H210339   6.015   2.795   2.216  0.1226  1.3210 -0.5168
  180ACOH    H310340   5.930   2.803   2.377 -1.1453  0.5557 -0.0096
  181ACOH    H410341   4.995   4.724   1.352  0.3472  0.9592 -1.2017
  181ACOH    O210342   5.003   4.638   1.309 -0.2130  0.6006 -0.5889
  181ACOH    C210343   4.985   4.547   1.401 -0.3242 -0.6729 -0.2476
  181ACOH    O110344   4.931   4.557   1.509 -0.1988 -0.2586  0.2103
  181ACOH    C110345   5.009   4.410   1.355  0.3374 -0.3320  0.1603
  181ACOH    H110346   4.993   4.338   1.435 -0.6608 -0.6398 -0.3177
  181ACOH    H210347   5.111   4.421   1.317  0.1133  0.4013 -0.2447
  181ACOH    H310348   4.950   4.388   1.267  0.6549 -1.0962  0.1348
  182ACOH    H410349   4.979   2.193   1.746  0.0044 -0.2509 -0.3682
  182ACOH    O210350   5.072   2.198   1.718  0.1360  0.2733  0.1366
  182ACOH    C210351   5.116   2.065   1.711 -0.2130 -0.2663  0.5417
  182ACOH    O110352   5.077   1.968   1.765  0.5154  0.7791  0.0176
  182ACOH    C110353   5.248   2.061   1.638  0.2770  0.2336 -0.2885
  182ACOH    H110354   5.270   1.960   1.602 -1.4982  0.2761 -1.5244
  182ACOH    H210355   5.323   2.086   1.714 -0.7555 -2.1162  1.5621
  182ACOH    H310356   5.246   2.135   1.559  1.1068  0.8745  0.2719
  183ACOH    H410357   9.670   3.779   0.727 -0.5680 -1.3814 -1.9592
  183ACOH    O210358   9.640   3.711   0.790 -0.2522  0.0499 -0.2284
  183ACOH    C210359   9.649   3.594   0.725 -0.3235 -0.6867 -0.2228
  183ACOH    O110360   9.667   3.577   0.608 -0.0967  0.3204 -0.0049
  183ACOH    C110361   9.619   3.488   0.820 -0.8961  0.3122 -0.0493
  183ACOH    H110362   9.676   3.498   0.912  1.4487  2.4617 -1.6878
  183ACOH    H210363   9.632   3.390   0.774  0.4261  0.8245 -0.7891
  183ACOH    H310364   9.514   3.506   0.845 -0.6360  0.1606  1.1681
  184ACOH    H410365   4.964   4.021   1.833 -1.7659 -0.0992  0.9210
  184ACOH    O210366   4.990   4.107   1.870  0.4827 -0.4877  0.2904
  184ACOH    C210367   5.003   4.186   1.764 -0.1506 -0.5525  0.3437
  184ACOH    O110368   5.030   4.154   1.651  0.3549 -0.0495 -0.6696
  184ACOH    C110369   5.010   4.332   1.800 -0.1580 -0.0775 -0.3620
  184ACOH    H110370   4.956   4.345   1.894 -0.7128  1.3517 -0.8719
  184ACOH    H210371   4.952   4.382   1.723 -2.5432 -1.6963  0.3308
  184ACOH    H310372   5.109   4.376   1.803 -1.0073  1.8847 -0.7387
  185ACOH    H410373   3.614   7.475   1.989 -0.5975  2.0037 -1.3328
  185ACOH    O210374   3.657   7.428   1.915 -0.0284  0.1004  0.1544
  185ACOH    C210375   3.748   7.520   1.864 -0.0979  0.0633  0.9891
  185ACOH    O110376   3.761   7.638   1.896 -0.7895 -0.2942  0.0083
  185ACOH    C110377   3.820   7.451   1.753  0.1164 -0.4134 -0.0544
  185ACOH    H110378   3.926   7.440   1.777  0.2520  3.3052  1.4456
  185ACOH    H210379   3.828   7.510   1.662 -5.0162 -1.1142 -1.1167
  185ACOH    H310380   3.767   7.360   1.725 -2.4302  1.2239 -0.7112
  186ACOH    H410381   5.475   4.562   0.639  0.6964  0.1088 -0.2332
  186ACOH    O210382   5.433   4.587   0.723  0.6185 -0.2584 -0.1583
  186ACOH    C210383   5.302   4.629   0.700  0.0523  0.0465 -0.6702
  186ACOH    O110384   5.230   4.625   0.600 -0.2344  0.0100 -0.2259
  186ACOH    C110385   5.246   4.661   0.832 -0.2345  0.1856 -0.8058
  186ACOH    H110386   5.179   4.579   0.858 -0.2755  0.1032 -1.1741
  186ACOH    H210387   5.198   4.759   0.838 -0.1447  0.4130 -3.1991
  186ACOH    H310388   5.325   4.675   0.906 -0.0890 -1.0261 -0.7198
  187ACOH    H410389   9.995   3.769   1.894  0.0166  0.8781 -0.1803
  187ACOH    O210390  10.000   3.725   1.808 -0.2042  0.2441  0.1280
  187ACOH    C210391   9.948   3.812   1.722  0.1872 -0.2316  0.0132
  187ACOH    O110392   9.925   3.930   1.739 -0.6674  0.0253 -0.2473
  187ACOH    C110393   9.919   3.751   1.589 -0.1652 -0.0746  0.0944
  187ACOH    H110394   9.991   3.672   1.569 -0.5342 -0.2331 -0.6285
  187ACOH    H210395   9.930   3.827   1.511 -0.5192 -0.4517 -0.3272
  187ACOH    H310396   9.820   3.706   1.594 -0.7720  1.2197  0.0382
  188ACOH    H410397   3.252   7.214   2.566 -0.2139  1.1423  0.4702
  188ACOH    O210398   3.296   7.142   2.615 -0.4123  0.2728 -0.6037
  188ACOH    C210399   3.389   7.095   2.531 -0.6457  0.0787 -0.2011
  188ACOH    O110400   3.399   7.106   2.407  0.2325  0.4802  0.6561
  188ACOH    C110401   3.475   6.999   2.607  0.0593  0.1252 -0.6733
  188ACOH    H110402   3.457   7.017   2.713  2.2288 -2.5025  0.2041
  188ACOH    H210403   3.584   7.003   2.596  0.3012  0.9395  1.7635
  188ACOH    H310404   3.433   6.900   2.586  1.2678 -0.3170 -1.0579
  189ACOH    H410405   4.386  10.117   0.034  0.1797 -0.0721  1.0140
  189ACOH    O210406   4.450  10.047   0.013 -0.0632 -0.0507  0.2024
  189ACOH    C210407   4.400   9.932   0.062 -0.2628 -0.4605 -0.8651
  189ACOH    O110408   4.308   9.917   0.138  0.2173  0.3046 -0.7386
  189ACOH    C110409   4.484   9.818   0.010  0.0523 -0.3690 -0.3356
  189ACOH    H110410   4.567   9.803   0.079 -0.6210  0.6503  0.7093
  189ACOH    H210411   4.525   9.843  -0.088 -1.4363  1.6309 -0.4825
  189ACOH    H310412   4.429   9.724   0.004 -1.2320  0.4625 -2.1419
  190ACOH    H410413   4.741   9.556   2.173 -1.3770 -0.2365  0.4876
  190ACOH    O210414   4.736   9.652   2.158  0.9623 -0.1135  0.2697
  190ACOH    C210415   4.726   9.715   2.272  1.1378 -0.1751 -0.1624
  190ACOH    O110416   4.727   9.671   2.385 -0.2874 -0.8763 -0.4750
  190ACOH    C110417   4.693   9.858   2.256 -0.1457  0.5453  0.4264
  190ACOH    H110418   4.768   9.920   2.303 -0.1015  0.4568  0.4708
  190ACOH    H210419   4.590   9.872   2.288 -0.6172 -1.1204 -0.2828
  190ACOH    H310420   4.700   9.891   2.152 -0.8214 -1.0126 -0.1339
  191ACOH    H410421   5.328   3.828   1.582  1.2653 -0.3755  0.9147
  191ACOH    O210422   5.268   3.842   1.656  0.8562  0.1804  0.4780
  191ACOH    C210423   5.344   3.862   1.756  0.4041 -0.8389  0.2812
  191ACOH    O110424   5.464   3.874   1.762  0.0166  0.1349 -0.4941
  191ACOH    C110425   5.264   3.861   1.879 -0.0365 -0.9780  0.8485
  191ACOH    H110426   5.193   3.779   1.862  1.0055 -1.7861  0.3292
  191ACOH    H210427   5.219   3.959   1.893 -0.1234 -0.8982  0.0237
  191ACOH    H310428   5.325   3.826   1.962  0.6726 -2.4027 -0.2325
  192ACOH    H410429   9.420   4.270   0.866 -0.1909  0.6651  0.1537
  192ACOH    O210430   9.405   4.189   0.918  0.3079  0.1203 -0.5347
  192ACOH    C210431   9.469   4.079   0.875  0.3250 -0.4948  0.1302
  192ACOH    O110432   9.531   4.071   0.767 -0.4370 -0.7480 -0.0893
  192ACOH    C110433   9.462   3.960   0.965 -0.6585 -0.1740  0.3031
  192ACOH    H110434   9.543   3.970   1.037 -1.1660  3.6416  0.4502
  192ACOH    H210435   9.462   3.867   0.908  1.4005  0.7020 -1.1557
  192ACOH    H310436   9.369   3.957   1.022 -0.3710 -2.1134  0.7309
  193ACOH    H410437   4.433   8.772   1.850 -0.2447 -2.6149 -2.5291
  193ACOH    O210438   4.427   8.704   1.919 -1.2278  0.0874  0.1095
  193ACOH    C210439   4.491   8.748   2.027 -0.5105  0.0979  0.1135
  193ACOH    O110440   4.542   8.858   2.034  0.1821  0.5804 -0.2174
  193ACOH    C110441   4.479   8.661   2.149  0.8122  0.3793  0.3729
  193ACOH    H110442   4.532   8.707   2.233  0.3482  1.1328  0.2527
  193ACOH    H210443   4.513   8.560   2.128  0.2244  0.7085 -2.3417
  193ACOH    H310444   4.372   8.656   2.167  0.7722  2.8224  0.9676
  194ACOH    H410445   3.593   6.671   0.253 -2.3531  1.5484 -0.1609
  194ACOH    O210446   3.630   6.715   0.332 -0.0975  0.4043 -0.5471
  194ACOH    C210447   3.761   6.689   0.342 -0.0524  0.5131 -0.9119
  194ACOH    O110448   3.818   6.607   0.275  0.3435 -0.1896  0.4508
  194ACOH    C110449   3.835   6.773   0.445  0.5403 -0.2254  0.1211
  194ACOH    H110450   3.763   6.820   0.511 -1.7863 -0.6529 -2.0633
  194ACOH    H210451   3.905   6.844   0.400  2.0199 -1.3624  0.5622
  194ACOH    H310452   3.903   6.721   0.512 -0.1962 -0.6017  0.5797
  195ACOH    H410453  10.386   6.169   1.986  0.5446  1.3343  0.2146
  195ACOH    O210454  10.315   6.192   1.924  0.5590  0.0537 -0.2957
  195ACOH    C210455  10.203   6.162   1.994  0.4969 -0.4827 -0.0245
  195ACOH    O110456  10.202   6.133   2.111 -0.6580 -0.0531 -0.5193
  195ACOH    C110457  10.083   6.195   1.910  0.1933  0.3676  0.9260
  195ACOH    H110458  10.071   6.107   1.848  1.2291  0.8531  0.0260
  195ACOH    H210459  10.099   6.284   1.849 -0.8597  0.2662  0.4832
  195ACOH    H310460   9.992   6.209   1.969  0.5199  0.8318  1.3192
  196ACOH    H410461   9.771   5.516   1.009  1.6575  1.3047 -0.3972
  196ACOH    O210462   9.704   5.577   1.044  0.5724 -0.0457 -0.0781
  196ACOH    C210463   9.654   5.520   1.152  0.2956 -0.2887 -0.1380
  196ACOH    O110464   9.677   5.408   1.200  0.1511 -0.3392  0.2569
  196ACOH    C110465   9.573   5.623   1.227  0.7145  0.7648  0.0948
  196ACOH    H110466   9.639   5.669   1.300  1.5501  0.0704 -0.2177
  196ACOH    H210467   9.484   5.575   1.269  1.0424 -0.5576 -0.6941
  196ACOH    H310468   9.536   5.703   1.162  0.3461  1.2757  0.9267
  197ACOH    H410469   5.541   3.397   2.018  1.2327  1.8708  1.6326
  197ACOH    O210470   5.590   3.436   1.944  0.4001  0.3539  0.2343
  197ACOH    C210471   5.621   3.566   1.968  0.7600 -0.4345  0.7544
  197ACOH    O110472   5.580   3.638   2.055  0.2182  0.6971  0.0235
  197ACOH    C110473   5.692   3.628   1.852 -0.0011 -1.0876  0.2593
  197ACOH    H110474   5.748   3.719   1.876 -1.1053 -0.0672 -0.9957
  197ACOH    H210475   5.608   3.653   1.788  0.1227 -1.4923 -0.0584
  197ACOH    H310476   5.759   3.555   1.807  1.0685 -1.5413  2.4701
  198ACOH    H410477   4.055   5.617   0.781 -0.6274  1.8278 -0.1258
  198ACOH    O210478   4.094   5.627   0.693  0.0621 -0.4438 -0.1037
  198ACOH    C210479   4.142   5.505   0.664 -0.3358 -0.1912  0.5879
  198ACOH    O110480   4.176   5.414   0.739  0.4260 -0.1295  0.0442
  198ACOH    C110481   4.197   5.501   0.525 -0.0352 -0.1824  0.3094
  198ACOH    H110482   4.132   5.562   0.464  0.5165 -2.4882 -2.6861
  198ACOH    H210483   4.194   5.396   0.494  0.0768 -0.6206  1.7094
  198ACOH    H310484   4.298   5.538   0.512  1.1902 -1.6221  4.7378
  199ACOH    H410485   2.340   3.954   2.370  0.2659 -1.7452  0.7088
  199ACOH    O210486   2.249   3.933   2.342  0.1010 -0.0533 -0.1316
  199ACOH    C210487   2.265   3.880   2.218 -0.7418 -0.5010  0.5024
  199ACOH    O110488   2.371   3.873   2.152  0.3872  0.1840 -1.2278
  199ACOH    C110489   2.140   3.826   2.176  0.2987  0.0892 -0.1684
  199ACOH    H110490   2.155   3.775   2.081  3.0504  0.9440 -0.2384
  199ACOH    H210491   2.056   3.895   2.167 -1.8361 -2.1446  2.1417
  199ACOH    H310492   2.103   3.752   2.247 -0.8972 -0.8112 -1.6995
  200ACOH    H410493   2.133   8.476   0.733  0.0383  1.8069  0.5942
  200ACOH    O210494   2.066   8.460   0.802 -0.2684  1.0538  0.1187
  200ACOH    C210495   2.021   8.579   0.847 -0.0940  0.2379 -0.0379
  200ACOH    O110496   2.056   8.684   0.798 -0.0441 -0.1792  0.1767
  200ACOH    C110497   1.926   8.561   0.960 -0.0683  0.2265 -0.1768
  200ACOH    H110498   1.971   8.574   1.059  0.8157  0.1860 -0.5700
  200ACOH    H210499   1.893   8.458   0.964  1.5467 -0.2266  3.8075
  200ACOH    H310500   1.841   8.629   0.962 -0.1252  0.1673 -0.6589
  201ACOH    H410501   3.550   7.810   1.517 -0.2976 -0.2265  1.0585
  201ACOH    O210502   3.627   7.862   1.548  0.0927 -0.1144 -0.0648
  201ACOH    C210503   3.608   7.906   1.672 -0.1297 -0.5164  0.5444
  201ACOH    O110504   3.495   7.915   1.717 -0.7035 -0.6319 -0.1411
  201ACOH    C110505   3.732   7.964   1.739 -0.3375 -0.0174  0.3403
  201ACOH    H110506   3.795   8.012   1.665  0.5384  0.2429  1.2432
  201ACOH    H210507   3.786   7.885   1.790 -0.7437 -1.0053 -0.7313
  201ACOH    H310508   3.708   8.040   1.814  0.1446  0.7071 -0.2360
  202ACOH    H410509   4.278   5.745   2.085 -0.0652 -1.5568 -0.5818
  202ACOH    O210510   4.372   5.744   2.063 -0.0586 -0.2434 -0.6510
  202ACOH    C210511   4.392   5.666   1.954 -0.0411 -0.1088 -0.2434
  202ACOH    O110512   4.314   5.581   1.915 -0.1466 -0.2862  0.3824
  202ACOH    C110513   4.530   5.688   1.896 -0.6200 -0.1049 -0.1605
  202ACOH    H110514   4.542   5.796   1.880 -2.2866  0.0938 -0.1406
  202ACOH    H210515   4.545   5.643   1.798  4.1917  2.5377 -0.8202
  202ACOH    H310516   4.612   5.656   1.959 -1.1446 -0.4808  0.3351
  203ACOH    H410517   9.415   5.043   1.625  0.4680 -1.1674 -1.1374
  203ACOH    O210518   9.465   5.108   1.573  0.0454 -0.3003 -0.4697
  203ACOH    C210519   9.381   5.209   1.550 -0.2861  0.2134  0.7427
  203ACOH    O110520   9.275   5.223   1.614  0.2877 -0.2320 -0.1388
  203ACOH    C110521   9.425   5.294   1.438  0.4658 -0.3824  0.0117
  203ACOH    H110522   9.424   5.400   1.463  0.4782  0.1379 -2.0627
  203ACOH    H210523   9.361   5.287   1.349 -1.6982  0.2158  1.4946
  203ACOH    H310524   9.529   5.279   1.410  0.1891 -2.0220 -0.1808
  204ACOH    H410525   4.430   8.434   1.754  0.8143  4.5144  0.0647
  204ACOH    O210526   4.524   8.411   1.760 -0.1904 -0.1848  0.0163
  204ACOH    C210527   4.599   8.486   1.675  0.0722 -0.2080 -0.4006
  204ACOH    O110528   4.551   8.555   1.588 -0.2595  0.0883 -0.0583
  204ACOH    C110529   4.743   8.445   1.677 -0.3287  0.0793  0.6391
  204ACOH    H110530   4.754   8.370   1.756  1.4119 -0.5665 -0.1958
  204ACOH    H210531   4.814   8.527   1.685 -1.4915  1.2448 -0.8335
  204ACOH    H310532   4.755   8.399   1.579  0.8451  1.5312  0.0865
  205ACOH    H410533  10.597   3.296   2.174  0.6471 -1.9392  0.2186
  205ACOH    O210534  10.507   3.266   2.151 -0.3995  0.7390  0.5737
  205ACOH    C210535  10.435   3.284   2.258  0.6632  0.0816 -0.5314
  205ACOH    O110536  10.482   3.298   2.372  0.0495  0.2608  0.1164
  205ACOH    C110537  10.294   3.259   2.233  0.8041 -0.2559 -0.3161
  205ACOH    H110538  10.229   3.332   2.281 -0.8934 -1.9869  0.0692
  205ACOH    H210539  10.262   3.164   2.275  1.1435 -0.4319 -0.4509
  205ACOH    H310540  10.272   3.260   2.126 -0.7944  1.5708  0.0062
  206ACOH    H410541   4.431   9.366   1.681  0.6419 -0.9209  0.9133
  206ACOH    O210542   4.494   9.353   1.608 -0.0672  1.0874 -0.0941
  206ACOH    C210543   4.484   9.461   1.530  0.1773 -0.5616 -0.6917
  206ACOH    O110544   4.394   9.544   1.544  0.1782 -0.1081  0.3898
  206ACOH    C110545   4.593   9.480   1.437 -0.5741  0.6048 -0.9154
  206ACOH    H110546   4.623   9.389   1.386 -1.2562 -0.1152 -0.0437
  206ACOH    H210547   4.679   9.512   1.496 -2.1217 -0.0167  1.7439
  206ACOH    H310548   4.581   9.563   1.368  2.2021  1.5451 -0.3444
  207ACOH    H410549   5.656   4.217   2.352  0.3921 -1.3134 -0.0841
  207ACOH    O210550   5.650   4.197   2.257 -0.1571  0.3312 -0.4000
  207ACOH    C210551   5.703   4.080   2.239 -0.5331  0.8724 -0.2230
  207ACOH    O110552   5.793   4.017   2.295 -0.1167  0.1434 -0.6607
  207ACOH    C110553   5.649   4.030   2.103  0.2361 -0.2354 -0.3654
  207ACOH    H110554   5.672   4.099   2.021  1.1672  1.3359  1.1815
  207ACOH    H210555   5.540   4.026   2.102  0.1805  0.6124  0.6863
  207ACOH    H310556   5.687   3.929   2.087 -1.4246 -1.2228  1.7614
  208ACOH    H410557   4.755   0.512   1.676 -0.8545  0.9674 -1.4500
  208ACOH    O210558   4.842   0.506   1.633 -0.1995 -0.3992 -0.0079
  208ACOH    C210559   4.851   0.615   1.554  0.5972 -0.1030 -0.0419
  208ACOH    O110560   4.766   0.697   1.542 -0.3909  0.5468  0.1803
  208ACOH    C110561   4.977   0.620   1.481  0.6241 -0.5253 -0.5200
  208ACOH    H110562   5.029   0.715   1.497  1.8814 -0.8684 -2.3378
  208ACOH    H210563   4.957   0.615   1.374 -0.7909 -2.4874 -0.1980
  208ACOH    H310564   5.036   0.533   1.509  0.8897 -0.8155 -1.9326
  209ACOH    H410565   4.704   3.495   1.684 -2.3442 -2.7531 -1.3455
  209ACOH    O210566   4.755   3.438   1.744 -0.5498  0.1579 -0.0281
  209ACOH    C210567   4.727   3.310   1.707 -0.0286 -0.2775 -0.2218
  209ACOH    O110568   4.647   3.272   1.623 -0.0017 -0.0622  0.0451
  209ACOH    C110569   4.811   3.222   1.791  0.1539 -0.3178  0.5167
  209ACOH    H110570   4.831   3.277   1.883  0.8102  0.1236  0.1141
  209ACOH    H210571   4.904   3.201   1.738 -0.9835 -0.6060 -1.4124
  209ACOH    H310572   4.765   3.126   1.815 -1.3577 -0.3893 -2.4672
  210ACOH    H410573   4.456   5.379   1.375 -0.4149  0.8397  1.2953
  210ACOH    O210574   4.513   5.457   1.365  0.1528  0.2219 -0.5616
  210ACOH    C210575   4.424   5.546   1.309 -0.5849  0.2361  0.1080
  210ACOH    O110576   4.305   5.531   1.301 -0.1046 -0.6705  0.1891
  210ACOH    C110577   4.479   5.684   1.308  0.1428  0.0024  0.0926
  210ACOH    H110578   4.462   5.733   1.212 -0.2311 -0.5087 -0.1072
  210ACOH    H210579   4.585   5.686   1.331 -0.3553 -1.2921  2.5885
  210ACOH    H310580   4.436   5.741   1.390 -0.1178  1.5448 -1.0855
  211ACOH    H410581   5.834   4.246   0.812 -0.2080  0.1341 -1.0923
  211ACOH    O210582   5.910   4.192   0.783  0.2745  0.0693  0.2816
  211ACOH    C210583   5.866   4.061   0.783  0.1538 -0.6571  0.3124
  211ACOH    O110584   5.773   4.010   0.845 -0.0993  0.4267 -0.4216
  211ACOH    C110585   5.979   3.983   0.729  0.1925  0.3188 -0.0755
  211ACOH    H110586   6.036   3.931   0.806 -0.9569 -0.2412  0.4087
  211ACOH    H210587   6.035   4.048   0.661 -0.5085 -0.1613 -1.1363
  211ACOH    H310588   5.939   3.909   0.660 -0.5455  1.7487 -1.2257
  212ACOH    H410589   5.157   2.520   1.668  0.6765  1.4985 -0.4544
  212ACOH    O210590   5.241   2.487   1.704  0.0848  0.1465 -0.2807
  212ACOH    C210591   5.249   2.509   1.835  0.6203 -0.7572 -0.5984
  212ACOH    O110592   5.160   2.572   1.891  0.3453  0.2623  0.7430
  212ACOH    C110593   5.371   2.462   1.905  0.3739  0.2158 -0.0295
  212ACOH    H110594   5.419   2.543   1.960  1.3490 -1.2301  1.2901
  212ACOH    H210595   5.446   2.429   1.833  1.6047  0.3188  1.2056
  212ACOH    H310596   5.339   2.383   1.974 -1.3402  1.0467  0.1626
  213ACOH    H410597   4.422   0.646   1.373 -1.2175  1.8569  0.6182
  213ACOH    O210598   4.482   0.707   1.328  0.3084 -0.6108 -0.8029
  213ACOH    C210599   4.548   0.623   1.242  0.1277 -0.8907 -0.0990
  213ACOH    O110600   4.537   0.504   1.221 -0.2374 -0.3884  0.3906
  213ACOH    C110601   4.644   0.700   1.159 -0.1929  0.2348 -1.0198
  213ACOH    H110602   4.717   0.635   1.110  0.2322 -0.4361  0.4895
  213ACOH    H210603   4.700   0.773   1.217 -0.5030  0.7034 -1.3054
  213ACOH    H310604   4.604   0.759   1.076  0.1488  1.3030 -0.4287
  214ACOH    H410605   5.637   8.644   1.122 -0.7335  0.3215  0.9011
  214ACOH    O210606   5.629   8.551   1.147  0.4403 -0.0433 -0.0645
  214ACOH    C210607   5.503   8.513   1.110  0.3603 -0.2356  0.6667
  214ACOH    O110608   5.417   8.585   1.062 -0.2634 -0.0505 -0.0174
  214ACOH    C110609   5.481   8.367   1.112  1.1904  0.1462  0.2907
  214ACOH    H110610   5.401   8.356   1.185  1.3740  2.5885  0.8998
  214ACOH    H210611   5.573   8.327   1.153 -0.1377 -1.7108  1.5631
  214ACOH    H310612   5.457   8.325   1.014  0.9286 -2.3399  1.3853
  215SOL     OW10613   2.279   9.479   0.002 -0.6614 -0.4521  0.3139
  215SOL    HW110614   2.312   9.426  -0.076  1.0633  0.1164  0.6366
  215SOL    HW210615   2.278   9.421   0.084 -0.9267 -0.6024  0.2047
  216SOL     OW10616   1.659   5.472   1.861  0.2494  0.6274  0.1525
  216SOL    HW110617   1.711   5.467   1.775 -0.7178  0.8725 -0.4632
  216SOL    HW210618   1.722   5.479   1.938  1.2115 -2.8163 -0.2740
  217SOL     OW10619   2.380   5.873   1.050  0.0420  0.0415 -0.8139
  217SOL    HW110620   2.319   5.839   1.122  2.2168  0.7998  1.4514
  217SOL    HW210621   2.411   5.965   1.073  0.3386  0.5271 -3.0404
  218SOL     OW10622   4.410  10.366   0.526  0.1291  0.1291 -0.6246
  218SOL    HW110623   4.416  10.370   0.426  2.3688  1.9368 -0.4747
  218SOL    HW210624   4.498  10.339   0.564 -1.0819 -1.8690  0.8353
  219SOL     OW10625   3.772  10.246   0.400 -0.5719  0.3314  0.4483
  219SOL    HW110626   3.726  10.209   0.481 -1.7631 -0.2502 -0.4899
  219SOL    HW210627   3.834  10.320   0.428 -0.4914 -0.2929  1.9611
  220SOL     OW10628   2.821   8.829   2.076  0.0125 -0.3896 -0.1648
  220SOL    HW110629   2.911   8.872   2.082 -0.8332  1.5356 -1.0042
  220SOL    HW210630   2.801   8.807   1.981 -0.3845 -0.8767  0.0280
  221SOL     OW10631   1.142   3.548   0.023  0.3386 -0.4139  0.3439
  221SOL    HW110632   1.114   3.643   0.037 -0.7013 -0.7687  0.6615
  221SOL    HW210633   1.131   3.497   0.109 -1.3124 -1.3806 -0.4222
  222SOL     OW10634   3.717   2.607   2.273 -0.5025  0.0593  0.3318
  222SOL    HW110635   3.728   2.514   2.237  0.8529  0.0667  0.7054
  222SOL    HW210636   3.720   2.605   2.372 -2.0434  0.3223  0.3977
  223SOL     OW10637   3.129   5.758   1.144  0.3566 -1.0181 -0.1309
  223SOL    HW110638   3.117   5.761   1.045  0.9353 -0.7082 -0.1923
  223SOL    HW210639   3.149   5.850   1.177  1.2652 -1.3052  0.1355
  224SOL     OW10640   1.090   3.033   2.019 -0.4363  0.4710 -0.6066
  224SOL    HW110641   1.112   2.945   1.975  0.8191  0.2220  0.4730
  224SOL    HW210642   1.092   3.106   1.951  0.2673 -0.0902 -1.2018
  225SOL     OW10643   4.221   9.257   0.537 -0.4460  0.2131  0.7902
  225SOL    HW110644   4.143   9.236   0.477 -0.8843  0.8644  1.1310
  225SOL    HW210645   4.190   9.312   0.614  0.1905 -0.3195  1.4268
  226SOL     OW10646   2.661   0.659   0.174 -0.0232 -0.1156 -0.0574
  226SOL    HW110647   2.580   0.661   0.232  0.2903 -0.0766  0.3877
  226SOL    HW210648   2.724   0.589   0.208  0.0789 -0.2258 -0.4684
  227SOL     OW10649   4.067   3.159   0.842  0.2579  0.0083  0.6188
  227SOL    HW110650   4.007   3.186   0.767  1.4095  0.5286 -0.1286
  227SOL    HW210651   4.052   3.220   0.920 -1.8560 -1.3190  1.2928
  228SOL     OW10652   0.781   3.324   0.957 -0.2317  0.0917 -0.5694
  228SOL    HW110653   0.737   3.406   0.920  1.6811  2.5027  2.2382
  228SOL    HW210654   0.860   3.300   0.900  0.7697  1.8251  0.0375
  229SOL     OW10655   9.368   4.340   1.669 -0.3630 -0.6943 -0.3554
  229SOL    HW110656   9.352   4.242   1.680  0.8561 -0.9676 -0.9443
  229SOL    HW210657   9.465   4.359   1.677 -0.3587  0.1930 -2.2950
  230SOL     OW10658   1.691   3.550   1.084  0.1480  0.3979 -0.1639
  230SOL    HW110659   1.683   3.452   1.098 -0.1995  0.3059 -0.9473
  230SOL    HW210660   1.672   3.598   1.169 -2.1131 -0.1179 -0.3533
  231SOL     OW10661   1.476   5.187   1.641 -0.1097 -0.0092  0.3879
  231SOL    HW110662   1.520   5.104   1.676 -1.1113 -0.4200  0.7026
  231SOL    HW210663   1.462   5.251   1.716  0.0328  0.1566  0.2729
  232SOL     OW10664   1.980   9.837   2.133  0.9506  0.1668  0.1159
  232SOL    HW110665   2.028   9.925   2.132  1.9639 -0.3379  2.1819
  232SOL    HW210666   2.012   9.781   2.056 -0.4862  1.9715 -1.8631
  233SOL     OW10667   4.057  10.103   1.054  0.5261 -0.1959 -0.2753
  233SOL    HW110668   4.116  10.182   1.067  1.0095 -0.8767  1.8741
  233SOL    HW210669   3.999  10.091   1.135  0.0234 -1.6661 -0.8371
  234SOL     OW10670   2.409   6.510   1.429 -0.2643  0.4193  0.4007
  234SOL    HW110671   2.493   6.512   1.483  1.0925 -1.1562 -1.5535
  234SOL    HW210672   2.424   6.558   1.342 -0.2585 -2.6938 -1.4100
  235SOL     OW10673   3.471   0.603   1.860 -0.5804 -0.0209  0.3686
  235SOL    HW110674   3.451   0.562   1.949  0.0656 -2.5941 -0.6165
  235SOL    HW210675   3.569   0.615   1.849 -0.4895 -1.5409 -0.7243
  236SOL     OW10676   0.775   6.166   1.346 -0.0378 -0.3340 -0.0559
  236SOL    HW110677   0.684   6.125   1.339  0.1263 -0.7369  0.1224
  236SOL    HW210678   0.844   6.095   1.333  0.2566  0.1621 -1.2506
  237SOL     OW10679   2.416   6.832   0.858  0.4784  0.1486  0.1650
  237SOL    HW110680   2.316   6.839   0.849  0.4716 -0.2234 -0.0615
  237SOL    HW210681   2.438   6.801   0.951  0.3679 -0.0931  0.1119
  238SOL     OW10682   2.021   9.894   0.321 -0.3273  0.3568 -0.1203
  238SOL    HW110683   2.075   9.853   0.395 -1.0696 -0.0105  0.2241
  238SOL    HW210684   1.931   9.850   0.317 -0.8291  1.3756 -0.2929
  239SOL     OW10685   2.149   6.813   0.495 -0.1915 -0.3819  0.2081
  239SOL    HW110686   2.055   6.780   0.502 -0.9394  1.6106 -0.1752
  239SOL    HW210687   2.153   6.889   0.430  1.6338 -0.2575  0.4433
  240SOL     OW10688   2.295   8.720   1.981 -0.3877 -0.1659  0.6102
  240SOL    HW110689   2.246   8.707   2.067 -1.1749  2.1291  0.5481
  240SOL    HW210690   2.283   8.814   1.949 -0.7138 -1.1480 -2.3816
  241SOL     OW10691   0.889   6.522   0.207  0.1285 -0.3306  0.1561
  241SOL    HW110692   0.904   6.616   0.238  1.2351 -0.7009  0.7508
  241SOL    HW210693   0.962   6.463   0.242 -0.9199 -1.5366  0.3392
  242SOL     OW10694   2.539   6.907   1.408 -1.0518 -0.6720 -0.6777
  242SOL    HW110695   2.445   6.917   1.376 -1.5198  0.5250  1.0254
  242SOL    HW210696   2.539   6.871   1.501  0.1388  0.2759 -0.3040
  243SOL     OW10697   2.632  10.102   0.075 -0.2889  0.2471 -0.1540
  243SOL    HW110698   2.642  10.194   0.036 -0.9173  0.6210  0.5378
  243SOL    HW210699   2.596  10.040   0.006 -1.5812  0.9520 -0.1296
  244SOL     OW10700   1.846   6.879   0.615 -0.1379  0.4995  0.1180
  244SOL    HW110701   1.811   6.867   0.522 -0.6094 -1.4322  0.5071
  244SOL    HW210702   1.859   6.976   0.635 -2.1333  1.0499 -1.1984
  245SOL     OW10703   0.702   4.915   1.863  0.1772  0.3927  0.0037
  245SOL    HW110704   0.678   4.966   1.945  3.2490 -0.0071  1.2201
  245SOL    HW210705   0.692   4.817   1.881 -2.6394  0.3626 -1.3232
  246SOL     OW10706   2.190   1.424   0.296  0.2368  0.1284 -0.0133
  246SOL    HW110707   2.122   1.497   0.296  1.7472  1.5627 -0.1180
  246SOL    HW210708   2.191   1.379   0.386  1.6949  2.5345  1.2195
  247SOL     OW10709   2.385   6.661   2.594  0.0372 -0.5349  0.0890
  247SOL    HW110710   2.354   6.566   2.599  0.6820 -0.7244  0.5639
  247SOL    HW210711   2.439   6.682   2.676  0.5348  0.0107 -0.3789
  248SOL     OW10712   3.101   4.201   1.297 -0.1557  0.3570  0.8380
  248SOL    HW110713   3.151   4.166   1.377 -0.7261 -2.2573  0.0835
  248SOL    HW210714   3.006   4.219   1.323  0.0617  1.0724  1.1500
  249SOL     OW10715   2.519   3.529   0.032  0.3757  0.0451  0.1522
  249SOL    HW110716   2.596   3.554  -0.028  2.0712  0.0947  2.2942
  249SOL    HW210717   2.467   3.455  -0.011  2.8264 -1.3916 -0.4380
  250SOL     OW10718   4.282   0.543   1.445 -0.1091  0.6039 -0.0947
  250SOL    HW110719   4.212   0.530   1.374 -0.5405  0.5225  0.3389
  250SOL    HW210720   4.240   0.588   1.524  0.1936 -0.0027  0.4079
  251SOL     OW10721   2.318   5.780   0.210  0.4256  0.7011  0.8002
  251SOL    HW110722   2.327   5.880   0.214  0.4244  0.7145  0.4910
  251SOL    HW210723   2.381   5.744   0.141 -0.6676  0.6294 -0.1746
  252SOL     OW10724   1.390   3.162   2.212  0.1168  0.2254 -0.0581
  252SOL    HW110725   1.379   3.262   2.216 -1.8673  0.1792 -2.8660
  252SOL    HW210726   1.317   3.119   2.264 -1.4380  0.2253 -2.1697
  253SOL     OW10727   2.362   5.074   1.007  0.3643 -0.3194  0.4465
  253SOL    HW110728   2.301   5.140   1.051  0.0553  0.6173 -1.3467
  253SOL    HW210729   2.328   5.052   0.916  1.9259 -0.8997 -0.0228
  254SOL     OW10730   3.368   8.597   1.591 -0.3726  0.1958 -0.3434
  254SOL    HW110731   3.371   8.518   1.653  0.9962  1.0145  0.6450
  254SOL    HW210732   3.424   8.577   1.510  1.8660  1.0298  0.9708
  255SOL     OW10733   3.653   9.840   0.460 -0.9122 -0.0575  0.2513
  255SOL    HW110734   3.698   9.916   0.414 -1.9865  1.2687  1.3453
  255SOL    HW210735   3.721   9.783   0.505  0.0742 -0.8367 -2.1482
  256SOL     OW10736   2.354   9.727   0.739 -0.5821 -0.3538 -0.5242
  256SOL    HW110737   2.425   9.749   0.673  0.1142 -1.9125 -0.3111
  256SOL    HW210738   2.307   9.811   0.767  1.5018  0.7516 -0.2784
  257SOL     OW10739   4.924  10.323   1.381 -0.5224 -0.0195  0.1828
  257SOL    HW110740   4.839  10.284   1.346 -1.6042  0.6166  1.9904
  257SOL    HW210741   4.904  10.378   1.463  1.3897  1.6220 -0.4082
  258SOL     OW10742   5.038   2.277   2.063 -0.1458 -0.4571  0.1811
  258SOL    HW110743   4.976   2.239   2.131 -0.8627  0.8100  0.2590
  258SOL    HW210744   4.993   2.354   2.016  1.3300  0.4359  0.2025
  259SOL     OW10745   3.350   3.667   2.533 -0.1362  0.5207 -0.0396
  259SOL    HW110746   3.252   3.672   2.554 -0.2357  1.1504 -0.6538
  259SOL    HW210747   3.364   3.615   2.449  0.1270 -0.3317  0.5210
  260SOL     OW10748   3.737   8.603   1.113  0.2040 -0.8960 -0.4209
  260SOL    HW110749   3.701   8.511   1.097  0.7540 -0.8679 -1.8913
  260SOL    HW210750   3.819   8.599   1.169 -0.1454 -1.2414  0.0662
  261SOL     OW10751   4.875   1.271   2.449  0.3054 -0.3880  0.4309
  261SOL    HW110752   4.791   1.221   2.471  1.1687 -0.6064  3.5032
  261SOL    HW210753   4.928   1.218   2.383 -0.9643 -1.3041  0.1216
  262SOL     OW10754   2.612   2.421   0.269  0.4925 -0.0703  0.1489
  262SOL    HW110755   2.584   2.342   0.215  0.3311  0.1942 -0.1564
  262SOL    HW210756   2.703   2.451   0.241  0.6452 -0.2764  0.4133
  263SOL     OW10757   4.690   4.134   1.188 -0.4557 -0.2250  0.2071
  263SOL    HW110758   4.691   4.040   1.222 -0.1953  0.3423  1.8117
  263SOL    HW210759   4.602   4.176   1.210 -0.8468 -0.3209 -1.1599
  264SOL     OW10760   3.503   3.725   0.913 -1.1467  0.0868 -0.1068
  264SOL    HW110761   3.568   3.797   0.937  0.5235 -1.2988 -0.3286
  264SOL    HW210762   3.455   3.694   0.994  0.0807 -0.3942  0.4477
  265SOL     OW10763   1.067   6.105   2.596 -0.6904 -0.3930 -0.3687
  265SOL    HW110764   0.999   6.130   2.665 -1.8359  1.1550 -1.9950
  265SOL    HW210765   1.031   6.032   2.539 -1.0992  0.5599 -1.3552
  266SOL     OW10766   2.545   1.555   2.186 -0.4152  0.0477 -0.4626
  266SOL    HW110767   2.587   1.604   2.110  1.3537 -0.4903  0.1498
  266SOL    HW210768   2.485   1.618   2.237  0.9171  1.2834 -0.3786
  267SOL     OW10769   4.579   1.691   0.941  0.4427  0.0181 -0.3180
  267SOL    HW110770   4.596   1.621   0.871  1.3688 -1.1880  1.1015
  267SOL    HW210771   4.549   1.647   1.026  2.2830  1.2362  0.9878
  268SOL     OW10772   4.144   4.892   0.040 -0.1257 -0.7454  0.6551
  268SOL    HW110773   4.180   4.843   0.119  0.1373 -0.3420  0.7856
  268SOL    HW210774   4.078   4.834  -0.007  0.0409 -1.1545  0.9177
  269SOL     OW10775   5.325   3.764   1.402  0.1701 -0.1347  0.0096
  269SOL    HW110776   5.232   3.733   1.383  0.0035  0.2353  0.2279
  269SOL    HW210777   5.369   3.791   1.316 -0.4319  1.1011  0.0737
  270SOL     OW10778   3.212  10.052   2.167 -0.3111  0.0708  0.0812
  270SOL    HW110779   3.122  10.061   2.211 -0.3059 -0.4695  0.2085
  270SOL    HW210780   3.236  10.138   2.122 -0.7022  0.3542  0.4082
  271SOL     OW10781   1.911   6.556   0.425 -0.2407  0.3498 -0.0113
  271SOL    HW110782   1.882   6.529   0.517 -3.2378 -0.1048 -1.0374
  271SOL    HW210783   1.987   6.498   0.396  1.1664  0.9194  2.4133
  272SOL     OW10784   4.244   9.969   1.503 -0.1036 -0.3667 -0.0290
  272SOL    HW110785   4.336   9.992   1.536 -0.4573 -0.6064  1.1516
  272SOL    HW210786   4.187  10.051   1.504 -0.1300 -0.3855  0.0132
  273SOL     OW10787   2.882   7.868   1.492 -0.6949  0.7629  0.5788
  273SOL    HW110788   2.826   7.790   1.520  1.3673 -2.4151 -3.5772
  273SOL    HW210789   2.856   7.896   1.400  1.7934  1.9021  0.1823
  274SOL     OW10790   4.628   1.474   0.787  0.5465 -0.1881  0.0763
  274SOL    HW110791   4.707   1.491   0.727  1.9493  0.9412  2.1825
  274SOL    HW210792   4.656   1.416   0.863 -0.4713  0.7850  1.2076
  275SOL     OW10793   2.227   3.261   0.504  0.0251  0.4508  0.6679
  275SOL    HW110794   2.288   3.340   0.495 -0.6560  0.8310 -0.8023
  275SOL    HW210795   2.222   3.213   0.417  0.2466 -1.0899  1.4905
  276SOL     OW10796   3.936   9.115   0.667  0.1152 -0.3006  0.2106
  276SOL    HW110797   4.028   9.089   0.698  0.1302 -0.5584 -0.0519
  276SOL    HW210798   3.940   9.141   0.571  0.4410  2.4361  0.9262
  277SOL     OW10799   2.983   1.881   0.685 -0.6986 -0.3446 -0.0168
  277SOL    HW110800   3.020   1.973   0.669 -0.7982  0.0489  1.9263
  277SOL    HW210801   3.054   1.823   0.726 -1.0657 -0.7190  0.0954
  278SOL     OW10802   3.556   2.700   0.665  0.1065  0.6482  0.0740
  278SOL    HW110803   3.634   2.762   0.661  0.4230  0.2039 -0.8451
  278SOL    HW210804   3.558   2.648   0.751  2.5639 -1.6039 -1.3033
  279SOL     OW10805   0.753   4.014   0.657  0.4919  0.1333  0.2604
  279SOL    HW110806   0.853   4.014   0.665  0.5323 -3.2136  0.7657
  279SOL    HW210807   0.713   4.000   0.748 -0.3723  0.3176 -0.0953
  280SOL     OW10808   2.198   2.623   1.229  0.2290  0.1467 -0.1985
  280SOL    HW110809   2.156   2.714   1.224  0.9455  0.6102  1.9186
  280SOL    HW210810   2.201   2.592   1.324 -2.4015 -3.2724 -1.1252
  281SOL     OW10811   2.104   6.468   1.023 -0.2284  0.3763 -0.3537
  281SOL    HW110812   2.131   6.383   1.069 -0.2176  0.7075  0.2652
  281SOL    HW210813   2.009   6.489   1.048  0.6420  1.9951  1.7215
  282SOL     OW10814   1.291   6.040   1.358  0.0487 -0.1622  0.3729
  282SOL    HW110815   1.226   6.071   1.288 -0.0843 -2.4502 -0.5526
  282SOL    HW210816   1.378   6.016   1.314  0.4934 -0.1178  1.2154
  283SOL     OW10817   1.960   2.557   0.124 -0.0540 -0.0773  0.5554
  283SOL    HW110818   1.918   2.579   0.037 -0.9495  0.4138  1.1004
  283SOL    HW210819   1.892   2.515   0.184  0.8332 -1.4300  0.6357
  284SOL     OW10820   3.404   2.086   1.659 -0.0177 -0.0812 -0.0689
  284SOL    HW110821   3.429   2.180   1.633 -0.0037  0.2195  1.0174
  284SOL    HW210822   3.448   2.063   1.746  0.5162 -1.3390 -0.6545
  285SOL     OW10823   4.252   2.557   1.880  0.6812 -0.4740 -0.3328
  285SOL    HW110824   4.166   2.511   1.901  0.9963 -0.2344  1.6684
  285SOL    HW210825   4.240   2.656   1.891  1.4807 -0.5148  1.1683
  286SOL     OW10826   1.555   1.826   1.814 -0.0497  0.6634  0.2979
  286SOL    HW110827   1.551   1.923   1.837  0.1498  0.4750  1.1343
  286SOL    HW210828   1.612   1.778   1.881 -0.2678 -0.0572 -0.0277
  287SOL     OW10829   2.827   4.269   1.557 -0.2533  0.0358 -0.3063
  287SOL    HW110830   2.790   4.258   1.465  0.4286  0.7787 -0.6778
  287SOL    HW210831   2.919   4.228   1.560 -0.1229  0.3461 -0.0649
  288SOL     OW10832   2.145   7.832   1.118  0.0290 -0.0388  0.1271
  288SOL    HW110833   2.129   7.787   1.206 -2.6898  0.3636 -0.1365
  288SOL    HW210834   2.244   7.837   1.101  0.5533 -0.9545  2.7026
  289SOL     OW10835   1.935   6.187   0.204  0.4941 -0.3520  0.4064
  289SOL    HW110836   1.911   6.280   0.174  1.5550 -0.1344  0.2240
  289SOL    HW210837   1.997   6.146   0.138  1.1385 -0.6681  1.2066
  290SOL     OW10838   2.672   2.695   0.938 -0.1166 -0.7342  0.3220
  290SOL    HW110839   2.611   2.752   0.994 -1.5247 -2.3366  0.4668
  290SOL    HW210840   2.698   2.613   0.990 -0.3195 -1.5585 -0.8513
  291SOL     OW10841   4.594   1.557   1.920  0.4532 -0.0544 -0.5681
  291SOL    HW110842   4.597   1.529   1.824  1.7813  0.6827 -0.7485
  291SOL    HW210843   4.629   1.650   1.929 -0.5090  0.2118  0.5214
  292SOL     OW10844   1.439   3.669   0.977  0.1395  0.0207 -0.1309
  292SOL    HW110845   1.407   3.692   1.069  1.8141  0.8414  0.2774
  292SOL    HW210846   1.528   3.623   0.984  1.6459  2.5818 -1.4129
  293SOL     OW10847   3.278   9.419   2.257  0.7276 -0.2306  0.3256
  293SOL    HW110848   3.363   9.369   2.269  1.6955  1.5169  0.8827
  293SOL    HW210849   3.219   9.369   2.193  2.6878 -0.8116 -1.0936
  294SOL     OW10850   2.938   3.076   2.215  0.3093  0.2316 -0.2890
  294SOL    HW110851   2.881   3.010   2.264  0.3542  1.2757  1.2205
  294SOL    HW210852   3.030   3.074   2.254  0.2888  1.2362 -0.1914
  295SOL     OW10853   3.170   9.520   2.481  0.2428  0.2236  0.2665
  295SOL    HW110854   3.229   9.500   2.559 -0.3326 -0.0889  0.6211
  295SOL    HW210855   3.222   9.508   2.396  1.5011  2.6023  0.6361
  296SOL     OW10856   2.598   8.501   1.252 -0.5603  0.4736  0.1267
  296SOL    HW110857   2.604   8.556   1.336 -1.3379  0.2016  0.3646
  296SOL    HW210858   2.670   8.528   1.189  0.9199 -0.2860  1.4659
  297SOL     OW10859   4.660   1.056   0.681  0.6601 -0.0736 -0.1618
  297SOL    HW110860   4.613   0.997   0.615  1.0512  1.4047 -1.8230
  297SOL    HW210861   4.607   1.140   0.694  1.2140  0.1843  0.4637
  298SOL     OW10862   2.941   8.157   1.295 -0.4446 -0.2533  0.0249
  298SOL    HW110863   2.885   8.087   1.251  0.0303  0.7072 -2.1633
  298SOL    HW210864   2.883   8.220   1.345 -1.0349 -1.1272  0.4499
  299SOL     OW10865   0.986   4.607   1.246 -0.0350  0.1054  0.2664
  299SOL    HW110866   0.909   4.613   1.182 -0.2285  0.9926  0.5814
  299SOL    HW210867   0.983   4.518   1.292 -0.8477  0.1068  0.2351
  300SOL     OW10868   1.494   4.697   2.345  0.4221  0.2059  0.0025
  300SOL    HW110869   1.523   4.625   2.282 -0.0176 -0.8319  0.9615
  300SOL    HW210870   1.549   4.779   2.330  0.2254  0.0210 -1.8153
  301SOL     OW10871   9.909   4.948   1.205  0.0910 -0.3956 -0.4519
  301SOL    HW110872   9.843   4.876   1.226  1.0059 -1.6982 -1.9548
  301SOL    HW210873   9.949   4.983   1.290 -2.0680 -0.0152  0.4302
  302SOL     OW10874   2.607   9.647   0.251 -0.2315  0.1118 -0.2596
  302SOL    HW110875   2.573   9.695   0.332  0.2717  2.7244 -1.5637
  302SOL    HW210876   2.545   9.662   0.174  0.3418 -0.7066 -0.8955
  303SOL     OW10877   4.515   4.912   0.345 -0.5212  0.9813  0.4329
  303SOL    HW110878   4.581   4.867   0.406 -0.9496 -0.9327 -0.4752
  303SOL    HW210879   4.527   5.011   0.350  2.3450  0.6756  0.3786
  304SOL     OW10880   1.780   3.821   1.497  0.4589 -0.1107  0.5398
  304SOL    HW110881   1.726   3.900   1.525 -0.9604 -1.0414  0.5089
  304SOL    HW210882   1.764   3.746   1.561  3.8391  0.4246  2.1074
  305SOL     OW10883   3.030   5.417   0.666  0.3034 -0.9024 -0.3187
  305SOL    HW110884   3.020   5.317   0.664 -1.4423 -0.7332 -1.0863
  305SOL    HW210885   3.116   5.442   0.622 -1.1213 -1.8829 -3.8244
  306SOL     OW10886   2.130   9.703   1.960  0.0862 -0.1681  0.2287
  306SOL    HW110887   2.183   9.626   1.996  0.1810 -0.7739 -1.1655
  306SOL    HW210888   2.155   9.718   1.864 -0.5160  1.0947  0.2622
  307SOL     OW10889   2.298   6.856   1.275 -0.1671 -0.2517  0.0849
  307SOL    HW110890   2.202   6.883   1.268 -0.3365 -0.7381  0.5131
  307SOL    HW210891   2.309   6.762   1.243  0.0478 -0.4408  0.6990
  308SOL     OW10892   2.118   9.180   2.373 -0.1541 -0.8751 -0.0219
  308SOL    HW110893   2.152   9.184   2.467 -0.8083  0.9713  0.1571
  308SOL    HW210894   2.102   9.085   2.347 -1.3407 -1.3198  2.2214
  309SOL     OW10895   1.916   6.483   2.277  0.3642  0.2293  0.4374
  309SOL    HW110896   1.904   6.423   2.198  3.3314 -0.3354  0.3547
  309SOL    HW210897   1.895   6.434   2.361 -0.0763 -0.0102  0.1883
  310SOL     OW10898   2.141   5.806   0.429  0.1726  0.2409  0.1674
  310SOL    HW110899   2.121   5.902   0.407  1.9003  0.4368 -0.5926
  310SOL    HW210900   2.206   5.769   0.363 -2.0259 -2.1046 -0.8133
  311SOL     OW10901   2.027   1.981   0.944  0.1727  0.4610  1.0931
  311SOL    HW110902   2.078   1.981   0.858  0.4489  1.6669  1.2471
  311SOL    HW210903   2.085   1.944   1.017 -0.3470 -1.3713  0.6229
  312SOL     OW10904   0.959   6.617   2.337 -0.4823 -0.0786  0.2345
  312SOL    HW110905   0.960   6.556   2.258  0.5681  0.1223  0.0896
  312SOL    HW210906   0.909   6.574   2.412 -1.2520 -0.3793 -0.4532
  313SOL     OW10907   2.968   5.049   2.062 -0.5080  0.4221 -0.3038
  313SOL    HW110908   2.996   5.135   2.104  2.3488 -0.1112 -1.0141
  313SOL    HW210909   2.886   5.064   2.006 -0.7360  2.4057  0.5127
  314SOL     OW10910  10.376   4.716   1.827 -0.2234 -0.2058 -0.0511
  314SOL    HW110911  10.315   4.643   1.796 -0.6642  0.4019 -0.6334
  314SOL    HW210912  10.322   4.787   1.872  0.1306  0.0534 -0.0363
  315SOL     OW10913   4.666   1.946   0.874  0.4214 -0.5538 -0.1675
  315SOL    HW110914   4.613   1.868   0.908 -0.5311  0.4669  0.7713
  315SOL    HW210915   4.606   2.026   0.868  1.4378  0.1672 -0.8879
  316SOL     OW10916   2.356   9.259   0.220 -0.4126 -0.1132  0.6297
  316SOL    HW110917   2.359   9.163   0.193 -0.6726  0.2685 -0.8101
  316SOL    HW210918   2.446   9.301   0.207 -0.8365  0.3708 -0.8094
  317SOL     OW10919   3.002   9.102   0.414  0.1153  0.1209 -0.4140
  317SOL    HW110920   3.102   9.106   0.415  0.1206  0.1001 -1.0424
  317SOL    HW210921   2.973   9.017   0.369 -0.1700 -0.5158  0.9365
  318SOL     OW10922   2.628   3.904   2.025 -0.1821 -0.0534 -0.7963
  318SOL    HW110923   2.668   3.981   2.075  0.3645 -1.2807  0.6859
  318SOL    HW210924   2.543   3.876   2.069 -0.4468 -0.2349 -1.4106
  319SOL     OW10925   3.844   2.606   1.660  0.2938 -0.2807 -0.5412
  319SOL    HW110926   3.877   2.513   1.648 -0.8997 -0.5353 -2.1123
  319SOL    HW210927   3.746   2.609   1.641  0.6047  1.5565 -2.0788
  320SOL     OW10928   0.852   2.628   1.448  0.1396 -0.2347  0.1196
  320SOL    HW110929   0.918   2.701   1.436 -0.9723  0.6507 -0.7403
  320SOL    HW210930   0.759   2.665   1.441 -0.4409 -1.6945 -0.1767
  321SOL     OW10931   3.700   8.994   0.171  0.0496  0.6428 -0.5416
  321SOL    HW110932   3.727   8.982   0.076 -1.1896  0.0969 -0.8290
  321SOL    HW210933   3.775   8.965   0.231  0.1581 -0.6978 -1.3224
  322SOL     OW10934   3.532   2.873   0.339 -0.3451 -0.1859 -0.0315
  322SOL    HW110935   3.616   2.842   0.294 -0.0573 -0.0021  0.3727
  322SOL    HW210936   3.542   2.861   0.438 -1.8944 -2.8545 -0.1664
  323SOL     OW10937   1.495   4.768   0.767 -0.2402  0.6780 -0.1456
  323SOL    HW110938   1.422   4.738   0.829 -1.4084  1.9961 -0.8693
  323SOL    HW210939   1.494   4.711   0.684 -0.3153  0.5778 -0.0761
  324SOL     OW10940   2.689   7.807   0.847  0.0378 -0.3067 -0.0183
  324SOL    HW110941   2.739   7.813   0.760  1.0376  0.0883  0.5769
  324SOL    HW210942   2.591   7.796   0.828 -0.1421  2.8087 -1.2129
  325SOL     OW10943   4.262   2.446   0.705 -0.1127  0.2126  0.2252
  325SOL    HW110944   4.232   2.444   0.800  2.2904  1.0156  1.0381
  325SOL    HW210945   4.270   2.352   0.670 -0.1813 -0.1153  1.0873
  326SOL     OW10946   1.986   2.281   1.005 -0.2486  0.1533 -0.0043
  326SOL    HW110947   2.030   2.194   0.981 -0.9750 -0.5207  1.0990
  326SOL    HW210948   1.944   2.320   0.923  0.5435 -0.2611 -0.6202
  327SOL     OW10949   3.161   8.531   0.048 -0.0751  0.6380  0.1809
  327SOL    HW110950   3.170   8.584  -0.037 -1.2116  0.5945  0.0199
  327SOL    HW210951   3.152   8.593   0.125  1.0808  0.6794  0.2889
  328SOL     OW10952   1.223   5.283   0.468 -0.6219 -0.2903  0.0553
  328SOL    HW110953   1.319   5.266   0.445 -1.0356 -2.3448 -0.1716
  328SOL    HW210954   1.217   5.367   0.523  1.2375  0.1592 -0.3935
  329SOL     OW10955   4.313  10.335   1.800 -0.1753  0.8488 -0.0364
  329SOL    HW110956   4.354  10.268   1.737 -1.7124 -1.4662  1.3794
  329SOL    HW210957   4.385  10.376   1.856  0.6796 -0.3428 -0.2485
  330SOL     OW10958   1.850   1.079   1.791  0.1273  0.0492 -0.5827
  330SOL    HW110959   1.871   1.148   1.860  1.6757 -1.0262  0.0273
  330SOL    HW210960   1.934   1.041   1.754 -0.7142 -1.7363 -0.7048
  331SOL     OW10961   4.348   4.282   1.889  0.0977 -0.2571  0.3808
  331SOL    HW110962   4.351   4.332   1.802 -0.7656 -0.9521 -0.0548
  331SOL    HW210963   4.441   4.265   1.921  0.4747 -1.7256 -1.4101
  332SOL     OW10964   4.750   9.380   2.477 -0.4442 -1.0224 -0.4029
  332SOL    HW110965   4.790   9.289   2.491  1.6254 -0.2077 -0.9074
  332SOL    HW210966   4.822   9.448   2.473 -1.9953  0.7137  0.2583
  333SOL     OW10967   3.413   4.511   0.246 -0.3235 -0.1294 -0.1365
  333SOL    HW110968   3.488   4.468   0.196 -0.5395 -1.6914  0.8502
  333SOL    HW210969   3.401   4.605   0.215  0.6830 -0.5354 -1.7653
  334SOL     OW10970   2.483   4.458   1.873 -0.0544  0.1684  0.3506
  334SOL    HW110971   2.473   4.444   1.971 -2.9198 -0.3801  0.0335
  334SOL    HW210972   2.520   4.375   1.831 -1.3682 -0.5794  0.6398
  335SOL     OW10973   2.205   8.946   0.788 -0.1669  0.1680 -0.0516
  335SOL    HW110974   2.132   8.880   0.808 -0.4543  0.6780  0.6247
  335SOL    HW210975   2.180   9.035   0.826  1.0140  0.2446  0.5721
  336SOL     OW10976   2.983   3.218   0.730  0.0697  0.0258  0.5280
  336SOL    HW110977   2.952   3.173   0.813 -1.3577 -2.1331 -1.1132
  336SOL    HW210978   3.014   3.149   0.664  0.8023  1.6602 -0.8909
  337SOL     OW10979   2.913  10.190   0.186  0.5538  0.9675 -0.0628
  337SOL    HW110980   2.822  10.149   0.174  0.4526  0.4856  2.2110
  337SOL    HW210981   2.983  10.122   0.165  0.3801 -0.1247  2.7143
  338SOL     OW10982   3.616   5.431   1.976  0.2328  0.3747  0.1150
  338SOL    HW110983   3.553   5.387   2.041 -0.1594 -0.1250 -0.5965
  338SOL    HW210984   3.577   5.518   1.946  0.0804  0.2632 -0.0075
  339SOL     OW10985   3.589   1.254   1.750  0.0239 -0.2589  0.3257
  339SOL    HW110986   3.523   1.224   1.681 -0.4935 -1.5969  1.3643
  339SOL    HW210987   3.662   1.307   1.707 -2.8228  3.1371 -0.6172
  340SOL     OW10988   1.794   4.591   2.408  0.5418 -0.0617 -0.4007
  340SOL    HW110989   1.732   4.606   2.485 -0.3360 -1.5016 -0.8046
  340SOL    HW210990   1.755   4.521   2.347  2.1921 -0.3975 -1.0847
  341SOL     OW10991   9.558   4.990   2.365 -0.6151  0.0273  0.8299
  341SOL    HW110992   9.644   4.938   2.369  0.6982  1.9606 -1.2424
  341SOL    HW210993   9.481   4.927   2.378  1.0542 -1.8829  1.8128
  342SOL     OW10994  10.487   4.875   0.413 -0.7790 -0.3842  0.5133
  342SOL    HW110995  10.573   4.898   0.369 -0.7121 -1.2061  0.2119
  342SOL    HW210996  10.411   4.918   0.363 -0.6558 -0.7938 -0.0246
  343SOL     OW10997   3.116   8.339   0.788 -0.5387 -0.2885 -0.2946
  343SOL    HW110998   3.054   8.270   0.751  0.4427 -0.2217 -2.1101
  343SOL    HW210999   3.197   8.347   0.730  0.4049  0.8275  1.1108
  344SOL     OW11000   1.797   2.892   0.025  0.2897  0.3888 -0.5180
  344SOL    HW111001   1.860   2.904   0.102 -1.3308  0.0180  0.8780
  344SOL    HW211002   1.832   2.821  -0.036  0.3147 -1.0849  1.2006
  345SOL     OW11003   2.559   8.154   1.709  0.0787  0.0776 -0.2145
  345SOL    HW111004   2.503   8.217   1.656  0.2687  0.2437 -0.2172
  345SOL    HW211005   2.539   8.060   1.681 -3.1561 -0.1859  2.5337
  346SOL     OW11006   3.032   8.003   0.463  0.7113  0.1120  0.0417
  346SOL    HW111007   2.989   8.067   0.399 -1.0718 -1.3594 -0.2645
  346SOL    HW211008   3.101   7.949   0.414  0.3923  0.0071 -0.2919
  347SOL     OW11009   2.713   0.642   0.775 -0.0687  0.5512  0.2784
  347SOL    HW111010   2.702   0.605   0.867 -0.0055  0.0591  0.0911
  347SOL    HW211011   2.707   0.741   0.778  0.6427  0.5817  0.9126
  348SOL     OW11012   2.910   1.138   1.922  0.5115 -0.8008  0.0629
  348SOL    HW111013   2.857   1.178   1.996 -0.9491 -0.6023 -1.0611
  348SOL    HW211014   2.970   1.208   1.882 -0.5653 -0.2404 -0.5916
  349SOL     OW11015   2.363   3.508   0.539  0.0488  0.3612 -0.0252
  349SOL    HW111016   2.372   3.513   0.638  2.2222  0.6350 -0.1971
  349SOL    HW211017   2.294   3.572   0.507  0.1500  1.0840  1.2149
  350SOL     OW11018   2.086   9.560   1.431  0.0786 -0.3687 -0.6344
  350SOL    HW111019   2.052   9.647   1.468 -0.8308 -1.1447  0.4100
  350SOL    HW211020   2.119   9.503   1.506 -0.2194 -1.3075 -1.2066
  351SOL     OW11021   5.298   2.741   0.590  0.2348  0.5590  0.4783
  351SOL    HW111022   5.215   2.782   0.553  0.4734  1.2143  0.6505
  351SOL    HW211023   5.277   2.691   0.674 -0.2049 -0.4136 -0.2044
  352SOL     OW11024   1.933   2.702   0.520 -0.7618 -0.1377  0.7033
  352SOL    HW111025   2.025   2.721   0.554 -0.2544 -2.1284  0.5125
  352SOL    HW211026   1.873   2.779   0.542  0.6684  0.6803  1.8700
  353SOL     OW11027   0.952   6.110   1.667 -0.3234 -0.3806 -0.3774
  353SOL    HW111028   0.865   6.065   1.648 -0.9413  0.1361  1.1183
  353SOL    HW211029   0.991   6.146   1.582 -2.7601  1.5063 -0.7349
  354SOL     OW11030   2.170   1.135   2.554  0.6405  0.2742  0.7924
  354SOL    HW111031   2.150   1.039   2.535  0.4188  0.7697 -1.6595
  354SOL    HW211032   2.093   1.176   2.602 -1.5237  0.4780 -2.6874
  355SOL     OW11033   2.437   2.311   0.087  0.0221 -0.2757 -0.1707
  355SOL    HW111034   2.340   2.321   0.110  0.1301  0.2205  0.0774
  355SOL    HW211035   2.451   2.224   0.040 -0.7667  0.2251 -1.3834
  356SOL     OW11036   2.677   1.292   0.362  0.3718 -0.4742  0.3976
  356SOL    HW111037   2.643   1.380   0.329 -1.0048 -0.4893  1.7138
  356SOL    HW211038   2.770   1.278   0.329 -0.5035  0.0590 -2.4021
  357SOL     OW11039   4.787   4.700   0.811 -0.1316 -0.3912 -0.3422
  357SOL    HW111040   4.825   4.678   0.901 -0.7363 -2.1801 -0.5102
  357SOL    HW211041   4.857   4.685   0.741 -0.1570 -0.5787 -0.3284
  358SOL     OW11042   3.197   0.455   0.335  0.1169 -0.7053 -0.0048
  358SOL    HW111043   3.190   0.549   0.369 -0.3660 -0.7143 -0.0748
  358SOL    HW211044   3.106   0.423   0.309  0.4300 -0.8301 -0.9633
  359SOL     OW11045   3.341   2.836   0.583  0.5719 -0.1415 -0.3721
  359SOL    HW111046   3.301   2.790   0.504  0.1818  0.8403 -0.7515
  359SOL    HW211047   3.427   2.791   0.607  0.4599 -0.7379 -1.0531
  360SOL     OW11048   1.228   5.475   2.577  0.2451  0.1626  0.3053
  360SOL    HW111049   1.205   5.402   2.512 -0.5155 -0.3377  1.1248
  360SOL    HW211050   1.281   5.545   2.530  1.2670 -1.0649 -0.4248
  361SOL     OW11051   3.730   0.653   1.042 -0.2723  0.6404 -0.0200
  361SOL    HW111052   3.726   0.658   1.142 -0.8551 -0.5984  0.0312
  361SOL    HW211053   3.638   0.661   1.004 -0.2452 -0.5201 -0.3597
  362SOL     OW11054   3.027   1.868   1.656 -0.2200  0.0462 -0.4569
  362SOL    HW111055   3.050   1.946   1.715  1.6224  0.0609 -1.1778
  362SOL    HW211056   3.072   1.879   1.568  0.1482 -1.9027 -0.5165
  363SOL     OW11057   3.456   1.445   1.538 -0.1157  0.0724 -0.0266
  363SOL    HW111058   3.388   1.519   1.539 -0.3530 -0.1352 -0.9738
  363SOL    HW211059   3.416   1.364   1.495  0.5313 -0.2481 -0.0251
  364SOL     OW11060   9.883   4.693   0.481  0.0859  0.3690 -0.0475
  364SOL    HW111061   9.849   4.600   0.498  0.2028  0.4428  0.5878
  364SOL    HW211062   9.809   4.748   0.442 -0.5866  0.5662  1.4549
  365SOL     OW11063   0.751   4.304   0.665 -0.3008 -0.0984 -0.3820
  365SOL    HW111064   0.716   4.345   0.581 -0.3787 -0.2340 -0.4159
  365SOL    HW211065   0.727   4.207   0.667  0.4255 -0.2871 -0.6007
  366SOL     OW11066   3.748   8.942   2.576  0.2175  0.2463  0.1375
  366SOL    HW111067   3.694   8.866   2.539  0.2656  1.1890 -1.9191
  366SOL    HW211068   3.844   8.913   2.582  0.0561 -0.2382  0.4493
  367SOL     OW11069   3.238   7.743   1.678 -0.4658 -0.1546  0.4315
  367SOL    HW111070   3.187   7.744   1.764  0.5003 -0.6311  1.0253
  367SOL    HW211071   3.321   7.799   1.688 -0.2828 -0.3238 -0.1358
  368SOL     OW11072   2.923   7.729   2.183  0.0021 -0.2372  0.1165
  368SOL    HW111073   3.017   7.696   2.180  0.0138 -0.1335 -0.8893
  368SOL    HW211074   2.917   7.818   2.138 -0.6894 -0.5487 -0.4178
  369SOL     OW11075   2.875   9.184   0.043 -0.3198 -0.4977 -0.1421
  369SOL    HW111076   2.922   9.150   0.124 -0.9877 -0.7864  0.1322
  369SOL    HW211077   2.855   9.282   0.054 -0.4235 -0.5402  0.0476
  370SOL     OW11078   1.367   7.013   0.412 -0.4004  0.0181 -0.1202
  370SOL    HW111079   1.393   7.109   0.400  0.0816  0.1461  1.7525
  370SOL    HW211080   1.329   6.978   0.326 -1.3589  2.1238 -0.6042
  371SOL     OW11081   5.271   2.894   0.840 -0.2159  0.0450  0.0859
  371SOL    HW111082   5.196   2.893   0.774 -0.4877  1.3490  0.3606
  371SOL    HW211083   5.357   2.914   0.793 -0.2043 -0.3596 -0.0667
  372SOL     OW11084   9.905   4.068   0.554 -0.1793 -0.0390 -0.2968
  372SOL    HW111085   9.991   4.035   0.515  0.5461  2.1069 -0.6070
  372SOL    HW211086   9.925   4.128   0.632 -1.4441 -0.3609  0.2893
  373SOL     OW11087   2.592   9.791   2.157  0.3252 -0.1270  0.1484
  373SOL    HW111088   2.689   9.788   2.179  0.5110 -1.0665 -0.7986
  373SOL    HW211089   2.567   9.884   2.129  1.5824 -0.5382 -2.4370
  374SOL     OW11090   1.191   4.292   2.291 -0.5878 -0.2582  0.3227
  374SOL    HW111091   1.154   4.243   2.212 -1.4409  0.6854  0.1258
  374SOL    HW211092   1.116   4.336   2.341  0.1479  0.6996  0.5884
  375SOL     OW11093   1.025   3.332   0.370  0.4672 -0.0698 -0.4152
  375SOL    HW111094   0.948   3.274   0.398  2.4755 -2.7023 -0.1035
  375SOL    HW211095   0.991   3.421   0.341 -2.5696 -0.7422  0.9061
  376SOL     OW11096   0.865   5.770   0.099  0.0803  0.4955  0.2731
  376SOL    HW111097   0.912   5.803   0.017  0.5769 -0.6283  0.0953
  376SOL    HW211098   0.926   5.708   0.149  0.5248  2.7140  2.5459
  377SOL     OW11099   2.227   6.922   2.530  0.4948  0.1219 -0.5713
  377SOL    HW111100   2.302   6.856   2.541  0.1843 -0.2708 -0.8048
  377SOL    HW211101   2.174   6.900   2.448 -0.0193  0.2536 -0.2795
  378SOL     OW11102   2.674  10.103   0.386 -0.1467  0.6034  0.5759
  378SOL    HW111103   2.645  10.190   0.425  1.5926  1.3235  0.3172
  378SOL    HW211104   2.634  10.093   0.295 -1.3794  0.5332  1.1169
  379SOL     OW11105   4.888   1.235   1.772  0.2764 -0.1451 -0.4413
  379SOL    HW111106   4.891   1.159   1.707  0.5617 -1.3357  0.9315
  379SOL    HW211107   4.796   1.241   1.812 -0.1765  1.2038 -1.6666
  380SOL     OW11108   1.225   4.715   1.346 -0.0856  0.2421 -0.1914
  380SOL    HW111109   1.145   4.673   1.303  0.3736 -0.9879  0.1517
  380SOL    HW211110   1.195   4.794   1.400 -1.3665 -1.3719  1.5510
  381SOL     OW11111   1.004   4.177   1.671  0.3783  0.2915  0.4505
  381SOL    HW111112   0.926   4.152   1.614  0.3689 -0.2575  0.6977
  381SOL    HW211113   1.003   4.121   1.754 -0.7074  2.3755  1.9062
  382SOL     OW11114   3.446   6.531   1.644  0.6129 -0.1073  0.2482
  382SOL    HW111115   3.376   6.586   1.689 -0.3956 -0.5877 -0.7148
  382SOL    HW211116   3.499   6.482   1.714  0.2690  0.5837  1.0041
  383SOL     OW11117   3.113   7.834   1.912 -0.1949  0.5298  0.4997
  383SOL    HW111118   3.160   7.905   1.964  0.0918  0.0909  0.8405
  383SOL    HW211119   3.015   7.837   1.931 -0.0745  0.2831  1.1652
  384SOL     OW11120   3.599   3.230   0.033  0.3099 -0.3279  0.2582
  384SOL    HW111121   3.694   3.254   0.015  0.2035 -0.0164  0.1120
  384SOL    HW211122   3.548   3.229  -0.053  0.0976 -0.1408  0.3824
  385SOL     OW11123   2.523   1.907   1.442 -0.1793 -0.3156  0.3991
  385SOL    HW111124   2.612   1.935   1.478  0.6043  1.0321 -2.4217
  385SOL    HW211125   2.532   1.880   1.346 -2.3171 -3.0413  0.8710
  386SOL     OW11126   2.145   1.366   0.573 -0.8568 -0.4810  0.6353
  386SOL    HW111127   2.187   1.279   0.549 -0.3367  0.0575 -0.4567
  386SOL    HW211128   2.107   1.361   0.665  1.1042 -1.1693  1.4184
  387SOL     OW11129   2.319   2.220   1.852  0.1454 -0.6308  0.5102
  387SOL    HW111130   2.292   2.315   1.833  0.9050 -0.8152 -1.5008
  387SOL    HW211131   2.417   2.217   1.872  0.4423 -1.2033 -1.0013
  388SOL     OW11132   3.207   7.188   1.331  0.2688  0.3239 -0.0544
  388SOL    HW111133   3.250   7.123   1.393  0.4953  0.2519 -0.2837
  388SOL    HW211134   3.215   7.155   1.237 -1.6774 -0.4621  0.0428
  389SOL     OW11135   2.674   8.103   2.205  0.0859 -0.0767  0.0860
  389SOL    HW111136   2.665   8.044   2.125  0.6939  0.5747 -0.4729
  389SOL    HW211137   2.697   8.196   2.175  0.3665  0.1602  1.0259
  390SOL     OW11138   4.244  10.204   0.047  0.8558  0.8806  0.1271
  390SOL    HW111139   4.146  10.221   0.059  0.5789 -0.7924  0.4194
  390SOL    HW211140   4.294  10.290   0.053 -0.2502  1.3688  3.7712
  391SOL     OW11141   2.869   9.471   0.651  0.2282 -0.5137 -0.3869
  391SOL    HW111142   2.922   9.531   0.592  0.4758  0.2967  0.6506
  391SOL    HW211143   2.920   9.387   0.668  1.4065  0.4433  0.9598
  392SOL     OW11144   3.366   5.684   0.066 -0.5245  0.4532  0.3562
  392SOL    HW111145   3.432   5.743   0.112 -0.8993  0.8277  0.4075
  392SOL    HW211146   3.407   5.648  -0.018 -1.0192  2.4591 -0.7863
  393SOL     OW11147   2.007   5.512   1.049 -0.4651  0.0072 -0.0087
  393SOL    HW111148   2.097   5.482   1.019 -0.4699 -1.0458  0.9973
  393SOL    HW211149   1.954   5.542   0.970  0.1265 -1.1021 -0.8447
  394SOL     OW11150  10.377   5.573   2.211  0.2463  0.3007  0.3004
  394SOL    HW111151  10.382   5.671   2.191  1.2915  0.0207 -0.8614
  394SOL    HW211152  10.292   5.553   2.259 -0.2793  1.6733 -0.0424
  395SOL     OW11153   1.667   3.536   2.291  0.1073 -0.1442 -0.0228
  395SOL    HW111154   1.701   3.540   2.197 -0.4074 -1.7239 -0.2973
  395SOL    HW211155   1.710   3.461   2.339 -1.1961 -0.6708  0.3524
  396SOL     OW11156   5.038   3.118   2.099 -0.0305  0.4812  0.0385
  396SOL    HW111157   5.007   3.213   2.107 -0.5682  0.2665  0.5417
  396SOL    HW211158   4.959   3.057   2.094  0.3156  0.1547 -1.4918
  397SOL     OW11159   2.131   5.193   1.701 -0.3404  0.5911  0.3902
  397SOL    HW111160   2.046   5.202   1.753  0.6112  0.6202  1.9746
  397SOL    HW211161   2.109   5.172   1.606 -2.0991 -0.8225  1.0716
  398SOL     OW11162   4.190   9.206   1.986  0.1914 -0.5438 -0.3473
  398SOL    HW111163   4.128   9.129   1.969  1.1878 -1.2514 -0.7988
  398SOL    HW211164   4.155   9.261   2.062 -0.1160 -1.8800  0.4956
  399SOL     OW11165   3.555   2.172   0.509  0.5740  0.2111  0.0167
  399SOL    HW111166   3.582   2.256   0.463  1.6536 -0.6988 -1.0395
  399SOL    HW211167   3.569   2.094   0.448  0.2134 -0.8140  1.2070
  400SOL     OW11168   5.413   3.714   1.147 -0.0529  0.3287 -0.3055
  400SOL    HW111169   5.472   3.788   1.116  0.4135  0.3576  0.6321
  400SOL    HW211170   5.405   3.646   1.075  0.6579  0.6038 -0.6543
  401SOL     OW11171   2.338   7.014   2.247  0.0103  0.3203 -0.3154
  401SOL    HW111172   2.274   6.938   2.258 -0.2333  0.0627 -3.1138
  401SOL    HW211173   2.427   6.989   2.284 -0.8715 -0.1610  1.5553
  402SOL     OW11174   4.879   3.874   1.817 -0.7266 -0.5376 -0.4604
  402SOL    HW111175   4.931   3.814   1.756 -0.0581 -1.2114  0.7465
  402SOL    HW211176   4.822   3.818   1.878 -1.3836  0.1237 -0.4592
  403SOL     OW11177   1.934   5.577   0.096  0.0150  0.0690  0.0313
  403SOL    HW111178   1.890   5.577   0.186 -1.5159  0.6294 -0.6980
  403SOL    HW211179   1.952   5.483   0.067  0.4877 -0.1108  0.9068
  404SOL     OW11180   2.876   2.113   0.321 -0.3115 -0.0437  0.1272
  404SOL    HW111181   2.944   2.040   0.313 -0.6702 -0.2864 -0.8029
  404SOL    HW211182   2.922   2.198   0.347  0.5424  0.0657 -1.5998
  405SOL     OW11183  10.406   5.999   0.002 -0.2980  0.1433  0.2098
  405SOL    HW111184  10.390   6.038  -0.088 -0.8088 -0.2747  0.1143
  405SOL    HW211185  10.503   6.006   0.025 -0.0112 -0.5709 -0.7656
  406SOL     OW11186   4.198   0.910   2.119 -0.0466 -0.4895 -0.1767
  406SOL    HW111187   4.159   0.972   2.187  0.8876 -1.0877  0.9093
  406SOL    HW211188   4.125   0.856   2.077 -0.9563  1.7107 -1.5480
  407SOL     OW11189   3.121   3.015   0.551  0.0897 -0.0032 -0.1637
  407SOL    HW111190   3.176   3.057   0.478  1.5179 -1.0039  0.3190
  407SOL    HW211191   3.173   2.943   0.595 -1.6144 -0.9531  0.3556
  408SOL     OW11192   4.941   3.649   0.452 -0.3668  0.4439 -0.0160
  408SOL    HW111193   4.956   3.603   0.539 -2.7727  0.3590  0.3611
  408SOL    HW211194   4.900   3.586   0.386 -1.0458  1.2590 -0.3813
  409SOL     OW11195   4.152   3.769   0.122  0.1603  0.2279  0.4918
  409SOL    HW111196   4.075   3.819   0.161  0.1006 -0.0521  0.7245
  409SOL    HW211197   4.158   3.790   0.024  0.0426  0.5751  0.5580
  410SOL     OW11198   5.370   2.827   0.200 -0.4200 -0.0745  0.0456
  410SOL    HW111199   5.388   2.911   0.148 -1.5194  0.5127  0.5902
  410SOL    HW211200   5.417   2.832   0.288  1.2410 -0.9619 -0.7734
  411SOL     OW11201   1.843   0.586   2.440  0.3820 -0.1898  0.1661
  411SOL    HW111202   1.832   0.501   2.388  0.6997  0.3266 -0.7340
  411SOL    HW211203   1.935   0.588   2.480  0.8527  0.3590 -0.9334
  412SOL     OW11204   4.748   1.625   1.498 -0.5830 -0.2603 -0.7668
  412SOL    HW111205   4.834   1.656   1.537 -1.4205  0.4394  0.5536
  412SOL    HW211206   4.743   1.652   1.402 -0.3849  1.8542 -0.1950
  413SOL     OW11207   3.315   5.511   0.278  0.3761 -0.5323 -0.1440
  413SOL    HW111208   3.324   5.590   0.217  1.2626  0.3224  1.0420
  413SOL    HW211209   3.364   5.433   0.239 -1.5099 -0.8782 -1.9055
  414SOL     OW11210   1.628   7.838   0.268 -0.3320  0.0788 -0.0205
  414SOL    HW111211   1.642   7.916   0.207 -2.0037 -0.8353 -1.6156
  414SOL    HW211212   1.556   7.860   0.334  1.0783  0.8542  1.3023
  415SOL     OW11213   2.172   6.219   1.169  0.5970 -0.7568  0.0956
  415SOL    HW111214   2.242   6.147   1.176  1.9313  0.4780 -0.2554
  415SOL    HW211215   2.181   6.282   1.246  0.4979 -0.0476 -0.4639
  416SOL     OW11216   2.667   0.896   1.674  0.7138  0.4735 -0.1018
  416SOL    HW111217   2.654   0.802   1.642 -1.6737  0.8519 -0.3539
  416SOL    HW211218   2.710   0.895   1.764 -1.4440 -0.9824  0.9587
  417SOL     OW11219   2.907   1.123   0.926 -0.1858 -0.0800  0.3578
  417SOL    HW111220   2.895   1.134   0.827  0.3824  1.2955  0.4361
  417SOL    HW211221   2.919   1.212   0.969 -0.0622 -0.6917  1.6350
  418SOL     OW11222   0.744   3.560   0.447  0.1889  0.1657  0.0040
  418SOL    HW111223   0.692   3.502   0.385  0.2375  0.8827 -0.7235
  418SOL    HW211224   0.733   3.528   0.541  0.0333 -0.8741 -0.3649
  419SOL     OW11225   3.998  10.269   0.121  0.2673 -0.2496 -0.1999
  419SOL    HW111226   3.932  10.195   0.104  1.2995 -1.5541  1.3390
  419SOL    HW211227   3.949  10.356   0.127 -1.3445 -1.1942  0.8336
  420SOL     OW11228   1.906   2.773   1.476  0.3544  0.1270 -0.0546
  420SOL    HW111229   1.892   2.693   1.418  2.0203  0.5097 -0.9972
  420SOL    HW211230   1.818   2.803   1.513 -0.8416  0.2832 -2.9279
  421SOL     OW11231   2.350   5.330   1.383  0.0262  0.6082 -0.3786
  421SOL    HW111232   2.300   5.343   1.469 -0.9694 -0.8527 -0.7100
  421SOL    HW211233   2.428   5.270   1.399  0.7914  1.6536 -0.1709
  422SOL     OW11234   2.325   5.726   1.700 -0.4426  0.1047  0.0677
  422SOL    HW111235   2.381   5.666   1.757 -0.6922  0.1759  0.3889
  422SOL    HW211236   2.264   5.780   1.758  1.1208  2.0808 -0.0542
  423SOL     OW11237   0.641   5.063   2.111  0.0388  0.0894  0.2566
  423SOL    HW111238   0.698   5.131   2.065 -0.3676 -0.6915 -1.4217
  423SOL    HW211239   0.683   5.039   2.199  2.9233 -1.3040 -1.4226
  424SOL     OW11240   3.156   6.938   0.090  0.1779 -0.0747  0.8001
  424SOL    HW111241   3.087   6.978   0.150  0.5566  1.4281  0.2632
  424SOL    HW211242   3.231   7.003   0.077  0.9339 -1.0598  0.1029
  425SOL     OW11243   1.435   4.509   2.601 -0.5223 -0.1894 -0.4774
  425SOL    HW111244   1.492   4.529   2.521  0.9541  2.2078  1.0868
  425SOL    HW211245   1.484   4.535   2.684 -3.1986  0.2397  1.0349
  426SOL     OW11246   2.575   3.308   0.501 -0.1361 -0.3431 -0.6478
  426SOL    HW111247   2.515   3.385   0.479 -0.1508 -0.6378 -1.6306
  426SOL    HW211248   2.662   3.343   0.535  0.3966  0.1411 -2.4514
  427SOL     OW11249   1.252   7.239   2.413  0.0675  0.3194  0.6362
  427SOL    HW111250   1.262   7.306   2.340 -1.1807  0.4986  0.6292
  427SOL    HW211251   1.237   7.148   2.374  1.0862  0.1331  0.6561
  428SOL     OW11252   3.453   6.435   0.714 -0.1514  0.1913  0.0518
  428SOL    HW111253   3.357   6.439   0.686 -0.5084  0.8825  1.3084
  428SOL    HW211254   3.461   6.377   0.795  0.3569  0.8552  0.4776
  429SOL     OW11255   1.817   5.711   1.998 -0.1313 -0.0582 -0.2114
  429SOL    HW111256   1.724   5.679   2.020 -0.7175  0.1024 -2.3754
  429SOL    HW211257   1.855   5.759   2.077 -1.6750 -0.6224  0.8949
  430SOL     OW11258   3.252   6.233   0.296  0.3141  0.4389 -0.0230
  430SOL    HW111259   3.326   6.290   0.332  0.1657  0.7437 -0.1989
  430SOL    HW211260   3.271   6.137   0.316 -0.5245  0.7145  2.2769
  431SOL     OW11261   9.650   4.997   1.850 -0.0835 -0.0626  0.2443
  431SOL    HW111262   9.717   5.069   1.868  1.7637 -1.9031  0.9167
  431SOL    HW211263   9.675   4.947   1.767 -0.4049 -0.9704  0.6802
  432SOL     OW11264   2.154   6.902   0.803 -0.8031 -0.2513 -0.2589
  432SOL    HW111265   2.146   6.874   0.708 -0.2334 -1.4321  0.0434
  432SOL    HW211266   2.135   7.000   0.810 -2.3967 -0.4624 -1.3653
  433SOL     OW11267   4.608   1.174   2.489  0.2558  0.0384  0.3495
  433SOL    HW111268   4.608   1.083   2.448  0.3639 -0.1800  0.8291
  433SOL    HW211269   4.560   1.238   2.429  0.6968 -0.2074 -0.2685
  434SOL     OW11270   2.434   4.300   1.491 -0.1696  0.0733  0.2038
  434SOL    HW111271   2.344   4.306   1.448  0.6535 -1.9128 -1.8807
  434SOL    HW211272   2.495   4.368   1.449  0.3606 -1.2042 -1.1300
  435SOL     OW11273   1.033   3.826   0.082 -0.0126  0.1787  0.1913
  435SOL    HW111274   1.119   3.837   0.032  0.0266  0.9432  0.4193
  435SOL    HW211275   0.960   3.874   0.034 -0.4222 -0.8860 -0.2666
  436SOL     OW11276   1.937   6.419   1.771 -0.1101 -0.0609  0.3244
  436SOL    HW111277   1.842   6.446   1.788 -0.0898  1.3974 -1.7603
  436SOL    HW211278   1.990   6.499   1.744  1.2253 -1.2422 -0.6046
  437SOL     OW11279   4.324   3.517   2.210 -0.0844 -0.1840  0.5974
  437SOL    HW111280   4.379   3.586   2.256 -2.0871  1.4162  0.6603
  437SOL    HW211281   4.288   3.555   2.124 -2.4417 -0.5971  1.3641
  438SOL     OW11282   2.788   4.111   1.852 -0.0156  0.4839  0.5416
  438SOL    HW111283   2.736   4.184   1.806  1.3026  1.9753  1.3841
  438SOL    HW211284   2.802   4.136   1.947  1.0245 -0.5868  0.6700
  439SOL     OW11285   9.489   5.203   2.512  0.7847 -0.1534  0.2002
  439SOL    HW111286   9.433   5.141   2.567 -0.9477  0.4674 -0.8395
  439SOL    HW211287   9.528   5.154   2.434 -1.0807  0.1615 -0.9642
  440SOL     OW11288   1.805   2.827   0.871  0.4165 -0.2539  0.1704
  440SOL    HW111289   1.896   2.787   0.864  1.0088  0.6653  2.2535
  440SOL    HW211290   1.737   2.755   0.871  1.2213 -1.0251 -0.1591
  441SOL     OW11291   3.958   8.138   1.037  0.0575  0.0224 -0.3268
  441SOL    HW111292   4.042   8.181   1.071  0.2267 -1.0701  0.6595
  441SOL    HW211293   3.880   8.197   1.057  0.4145  0.3709  0.0508
  442SOL     OW11294   3.772   4.174   0.120 -0.0573  0.6107 -0.7263
  442SOL    HW111295   3.733   4.106   0.182 -0.4580  0.9525 -0.5943
  442SOL    HW211296   3.769   4.139   0.026 -3.2707  1.6963 -1.0998
  443SOL     OW11297   4.624   3.049   0.452  0.3232  0.0387 -0.2401
  443SOL    HW111298   4.534   3.004   0.457 -0.2250  0.9166 -1.8388
  443SOL    HW211299   4.696   2.979   0.448 -0.1844 -0.6828  2.1913
  444SOL     OW11300   4.034   2.476   1.357 -0.1804  0.0420 -0.5685
  444SOL    HW111301   4.019   2.399   1.294 -0.7209 -0.7115  0.4686
  444SOL    HW211302   4.011   2.448   1.450  3.6871  0.1520  0.5065
  445SOL     OW11303   4.830   5.255   1.452 -0.6368  0.4871 -0.1589
  445SOL    HW111304   4.804   5.235   1.357  0.9733  0.2032 -0.5507
  445SOL    HW211305   4.817   5.353   1.469 -3.1110  0.1544  0.0393
  446SOL     OW11306   3.331   8.389   0.630  0.0321  0.2380  1.0058
  446SOL    HW111307   3.318   8.303   0.581 -1.3122  1.1878 -0.3510
  446SOL    HW211308   3.427   8.417   0.623 -0.1173  0.3036 -0.9832
  447SOL     OW11309   3.308   1.915   0.478 -0.0042  0.5392  0.5985
  447SOL    HW111310   3.364   1.917   0.395 -1.6853  0.3859 -0.5791
  447SOL    HW211311   3.362   1.882   0.555  1.4243  0.1193 -0.5714
  448SOL     OW11312   3.534   5.908   1.507 -0.2783  0.1365 -0.0981
  448SOL    HW111313   3.584   5.853   1.574 -2.0047  0.7062  1.7112
  448SOL    HW211314   3.512   5.852   1.427  3.5299 -0.0180 -1.1127
  449SOL     OW11315   3.860   9.924   2.213 -0.3179  0.4955 -0.2696
  449SOL    HW111316   3.802   9.958   2.139  0.8469 -2.0512 -2.4247
  449SOL    HW211317   3.820   9.840   2.251  0.0367  0.7820  0.7511
  450SOL     OW11318   3.528  10.127   1.633 -0.5562  0.1470  0.2883
  450SOL    HW111319   3.528  10.029   1.610 -0.9533  0.3367 -0.5279
  450SOL    HW211320   3.601  10.145   1.699 -0.0979 -0.5970 -0.0044
  451SOL     OW11321   2.710   3.359   1.572  0.0205 -0.1008 -0.1084
  451SOL    HW111322   2.700   3.270   1.617  0.6058  0.0501  0.3351
  451SOL    HW211323   2.621   3.401   1.560 -0.0008  0.8161  2.8949
  452SOL     OW11324   2.304   1.717   0.781 -0.1780 -0.7233  0.8399
  452SOL    HW111325   2.348   1.807   0.791  2.9647 -2.2232  1.1534
  452SOL    HW211326   2.332   1.676   0.695 -3.5882 -0.4271 -0.4818
  453SOL     OW11327   2.692   3.931   0.174 -0.2198 -0.3583 -0.4935
  453SOL    HW111328   2.621   3.868   0.143  0.5053 -1.7363  0.5991
  453SOL    HW211329   2.778   3.881   0.185  0.6291  1.0504 -0.6451
  454SOL     OW11330   2.641   1.813   0.907 -0.1597 -0.2775  0.2719
  454SOL    HW111331   2.643   1.906   0.871  1.9697 -0.2145  0.4862
  454SOL    HW211332   2.595   1.752   0.842  2.7365  0.0063 -2.1513
  455SOL     OW11333   3.401   4.744   1.098 -0.3553 -0.5313 -0.2272
  455SOL    HW111334   3.469   4.782   1.035  1.0860 -2.6846 -0.0207
  455SOL    HW211335   3.312   4.786   1.080  0.7795  1.4985 -1.2698
  456SOL     OW11336   1.581   4.094   1.262  0.0262 -0.1370  0.1953
  456SOL    HW111337   1.510   4.112   1.195  0.1306 -0.2453  0.0559
  456SOL    HW211338   1.540   4.055   1.345  0.0665 -1.3324 -0.3371
  457SOL     OW11339   4.903   1.733   2.431 -0.2673  0.4962  0.0807
  457SOL    HW111340   4.939   1.826   2.422 -1.0114  0.6325 -1.5057
  457SOL    HW211341   4.976   1.673   2.465  0.4479  1.4887  0.3282
  458SOL     OW11342   3.197   4.190   0.236  0.0784  0.0250  0.0883
  458SOL    HW111343   3.114   4.218   0.285 -0.7424 -2.3853  0.1354
  458SOL    HW211344   3.221   4.096   0.261  1.0338 -0.4071 -2.3119
  459SOL     OW11345   3.350   6.410   2.526 -0.3338  0.2350  0.3395
  459SOL    HW111346   3.278   6.342   2.536  0.3782 -0.2772  2.0728
  459SOL    HW211347   3.308   6.499   2.504 -1.3047 -0.5866 -1.1976
  460SOL     OW11348   3.631   3.339   1.221 -0.3280  0.8029 -0.0815
  460SOL    HW111349   3.659   3.279   1.146  0.0938  0.4206  0.3760
  460SOL    HW211350   3.533   3.329   1.238 -0.4265  0.8986 -0.5825
  461SOL     OW11351   0.704   5.133   2.379  0.2971 -0.2338  0.2549
  461SOL    HW111352   0.644   5.212   2.396 -1.3551 -1.2448 -0.7788
  461SOL    HW211353   0.733   5.094   2.467 -1.3065 -0.2898  0.7776
  462SOL     OW11354   3.338   8.762   1.853  0.2056 -0.1896 -0.0809
  462SOL    HW111355   3.323   8.852   1.893 -1.4568 -0.5208  0.0748
  462SOL    HW211356   3.376   8.771   1.761 -1.6494  0.7303 -0.7852
  463SOL     OW11357   4.747   3.648   1.919 -0.1298  0.0581 -0.0128
  463SOL    HW111358   4.738   3.569   1.858  1.5377  0.7288 -1.1728
  463SOL    HW211359   4.827   3.635   1.977  0.7815  1.3686 -0.9549
  464SOL     OW11360   2.843   0.485   0.570  0.1489 -0.3439  0.6330
  464SOL    HW111361   2.879   0.401   0.611  0.1181 -0.7290 -0.1059
  464SOL    HW211362   2.780   0.529   0.634  2.1233  0.4958  2.0566
  465SOL     OW11363   2.484   6.135   1.131  0.2248 -0.0774  0.0878
  465SOL    HW111364   2.464   6.197   1.207 -1.4974  0.2465 -0.6068
  465SOL    HW211365   2.558   6.172   1.075  0.1774  0.6355  0.4987
  466SOL     OW11366   3.182   7.754   2.301  0.1065  0.0776  0.0822
  466SOL    HW111367   3.153   7.843   2.335 -0.2263 -0.0806  0.2232
  466SOL    HW211368   3.205   7.694   2.378 -1.9163 -0.7066  0.1164
  467SOL     OW11369   0.814   5.136  -0.001  0.5959  0.8527 -0.3084
  467SOL    HW111370   0.860   5.100   0.080 -1.4909 -1.8378 -0.2447
  467SOL    HW211371   0.747   5.205   0.027 -0.3571 -0.3069  0.3391
  468SOL     OW11372   3.487   3.661   1.850  0.1803 -0.7958  0.0418
  468SOL    HW111373   3.500   3.746   1.902 -0.4889 -0.5843 -0.1207
  468SOL    HW211374   3.574   3.629   1.814  0.3703  0.0869 -0.2946
  469SOL     OW11375   4.142   8.610   1.515 -0.0008 -0.2966  0.5276
  469SOL    HW111376   4.182   8.695   1.482 -0.3705  0.1204  1.1718
  469SOL    HW211377   4.052   8.628   1.555  0.7693 -0.7024  2.4564
  470SOL     OW11378   3.757   4.400   2.454  0.2002 -0.6161 -0.4449
  470SOL    HW111379   3.732   4.496   2.465  2.0696 -0.1893  0.3531
  470SOL    HW211380   3.857   4.392   2.451  0.1267 -2.7434  1.5529
  471SOL     OW11381   1.683   6.221   1.975  0.0296  0.1354  0.3913
  471SOL    HW111382   1.619   6.163   2.025 -0.7980  0.5444 -0.1772
  471SOL    HW211383   1.682   6.194   1.878 -1.4163  1.9981 -0.1442
  472SOL     OW11384   2.668   1.676   1.955 -0.6302  0.8881  0.2447
  472SOL    HW111385   2.737   1.628   1.901  0.0906 -0.4044  2.2402
  472SOL    HW211386   2.604   1.723   1.894  1.6871  1.6695 -1.6537
  473SOL     OW11387   2.661   4.384   0.743 -0.1898 -0.5477  0.5367
  473SOL    HW111388   2.737   4.428   0.790  1.1239 -1.6124 -0.5495
  473SOL    HW211389   2.672   4.284   0.747 -1.6108 -0.7264  0.4920
  474SOL     OW11390   1.960   9.853   2.490  0.3902 -0.2973 -0.0350
  474SOL    HW111391   1.937   9.871   2.395  0.7826  0.1909 -0.0425
  474SOL    HW211392   1.942   9.935   2.545 -1.5808 -1.1475  0.6424
  475SOL     OW11393   4.671   1.611   2.379 -0.4615  0.3363 -0.2854
  475SOL    HW111394   4.758   1.657   2.392 -0.3191 -0.2212  0.7300
  475SOL    HW211395   4.602   1.677   2.349 -0.3268  1.2622  1.4234
  476SOL     OW11396   1.740   2.014   0.282  0.3374 -0.3383  0.1798
  476SOL    HW111397   1.840   2.019   0.283  0.3369 -0.4463  0.7837
  476SOL    HW211398   1.710   1.943   0.345 -0.1939  0.7897  1.2122
  477SOL     OW11399   0.979   3.675   1.747 -0.6782  0.1489 -0.4460
  477SOL    HW111400   1.055   3.650   1.687  0.1301 -1.6770  1.2894
  477SOL    HW211401   0.893   3.664   1.699 -0.1133 -2.4139 -0.9375
  478SOL     OW11402   2.410   1.314   2.155 -0.2921  0.4386  1.2007
  478SOL    HW111403   2.458   1.402   2.167 -1.2515  0.9392  1.4152
  478SOL    HW211404   2.329   1.312   2.214  0.3832 -1.0872  2.0966
  479SOL     OW11405   4.482   3.179   0.036 -0.0164 -0.1851  0.1922
  479SOL    HW111406   4.518   3.099   0.084  1.3506 -0.0059 -0.5181
  479SOL    HW211407   4.386   3.164   0.013  0.2628 -1.6581 -0.0250
  480SOL     OW11408  10.521   6.004   0.349  0.0927 -0.5525 -0.0359
  480SOL    HW111409  10.434   5.956   0.333  0.9470 -2.0712 -0.2131
  480SOL    HW211410  10.524   6.037   0.443 -1.1618  0.5596 -0.3557
  481SOL     OW11411   2.227   2.427   0.681  0.2428 -0.1328  0.0097
  481SOL    HW111412   2.207   2.469   0.770  1.5501  1.1949 -0.2928
  481SOL    HW211413   2.275   2.494   0.624 -0.3179 -1.0854 -1.5799
  482SOL     OW11414   4.452   3.054   1.710 -0.4316 -0.4400  0.2608
  482SOL    HW111415   4.485   2.960   1.715  1.9629  0.3576 -0.0531
  482SOL    HW211416   4.523   3.113   1.671 -1.3948  1.7294  1.6567
  483SOL     OW11417   3.144   4.753   1.782  0.2871 -0.4081  0.4330
  483SOL    HW111418   3.099   4.735   1.695  0.1278 -0.4907  0.5321
  483SOL    HW211419   3.078   4.743   1.856 -0.4492  2.9322  0.3215
  484SOL     OW11420   5.183   2.418   0.566  0.0780 -0.1659 -0.2381
  484SOL    HW111421   5.241   2.473   0.626  1.0273  0.6090 -1.8352
  484SOL    HW211422   5.198   2.445   0.471  1.9821 -4.4538 -1.2620
  485SOL     OW11423   2.000   8.144   1.959  0.5164  0.3901 -0.2948
  485SOL    HW111424   1.933   8.156   1.886 -0.0691  0.6164  0.2749
  485SOL    HW211425   2.049   8.058   1.947  0.2296  0.2990 -0.7923
  486SOL     OW11426   1.802   7.454   2.344  0.0651 -0.2750  0.6699
  486SOL    HW111427   1.714   7.476   2.303  0.2212 -1.8614 -0.5666
  486SOL    HW211428   1.798   7.467   2.443 -1.0053  1.3972  0.4149
  487SOL     OW11429   1.395   5.040   1.392  0.4226 -0.6535  0.3323
  487SOL    HW111430   1.388   5.089   1.478  1.0462  1.1627 -0.6392
  487SOL    HW211431   1.491   5.036   1.363  0.0423  0.1706 -1.0853
  488SOL     OW11432   2.257   7.705   0.263  0.7001 -0.0034 -0.4499
  488SOL    HW111433   2.265   7.625   0.322  0.8544  0.6397  0.3995
  488SOL    HW211434   2.342   7.757   0.264  0.3104  0.6440 -0.3230
  489SOL     OW11435   2.669   2.198   1.782  0.1832 -0.3749  0.6997
  489SOL    HW111436   2.624   2.272   1.732 -0.9491 -0.7028  1.2132
  489SOL    HW211437   2.766   2.218   1.792 -0.3491  1.7277  2.0451
  490SOL     OW11438   1.247   5.791   1.933 -0.1760  0.3468  0.4137
  490SOL    HW111439   1.211   5.865   1.989 -0.9582  0.0978  0.2416
  490SOL    HW211440   1.236   5.814   1.836  0.0185  0.2198  0.3609
  491SOL     OW11441   1.680   5.784   1.716 -0.5079 -0.3770 -0.2526
  491SOL    HW111442   1.706   5.874   1.681 -1.1059 -0.5912 -1.2645
  491SOL    HW211443   1.705   5.777   1.813  0.5638  0.4616 -0.4638
  492SOL     OW11444   3.608   5.235   1.688 -0.2342  0.3957  0.0013
  492SOL    HW111445   3.658   5.149   1.676 -0.2969  0.3174  0.2862
  492SOL    HW211446   3.576   5.242   1.782 -0.7777  0.4364 -0.1862
  493SOL     OW11447   2.077   9.446   0.256 -0.0820 -0.4221 -0.1687
  493SOL    HW111448   2.110   9.353   0.243  0.0485 -0.5657  1.1080
  493SOL    HW211449   2.047   9.483   0.169 -0.5636 -1.8214 -0.6131
  494SOL     OW11450   1.926  10.319   1.421  0.5543 -0.1211  0.0462
  494SOL    HW111451   1.946  10.416   1.412  1.9526 -0.1893  2.1577
  494SOL    HW211452   1.852  10.306   1.487 -0.1240 -0.4705 -0.7668
  495SOL     OW11453   3.396   0.514   0.659 -0.4078  0.4365 -0.3935
  495SOL    HW111454   3.352   0.440   0.711 -0.3318 -0.9292 -2.2187
  495SOL    HW211455   3.490   0.525   0.690 -0.5945  0.1647  0.2878
  496SOL     OW11456   3.790   4.456   0.886  0.6887  0.0436  0.1194
  496SOL    HW111457   3.798   4.523   0.960 -0.4124 -0.2721  0.5308
  496SOL    HW211458   3.819   4.366   0.920 -1.4555 -0.4642  0.7039
  497SOL     OW11459   4.101   1.241   0.510  0.3736 -0.2411  0.7739
  497SOL    HW111460   4.064   1.185   0.584 -0.1893  0.4244  0.9960
  497SOL    HW211461   4.179   1.293   0.544 -0.3489  0.6371  1.1070
  498SOL     OW11462   3.434   6.268   0.929  0.3675  0.0184  0.3164
  498SOL    HW111463   3.432   6.175   0.892  0.0477 -0.6405  1.9374
  498SOL    HW211464   3.342   6.294   0.959 -0.0891  1.8636 -2.4855
  499SOL     OW11465   9.874   3.685   0.461  0.1129 -0.5805 -0.2033
  499SOL    HW111466   9.859   3.784   0.468  2.4883 -0.1240 -1.1002
  499SOL    HW211467   9.790   3.637   0.487 -1.5870  1.6987 -1.2259
  500SOL     OW11468   1.843   6.694   0.824 -0.1044  0.1869  0.2137
  500SOL    HW111469   1.865   6.739   0.737  1.4938  1.3771  1.1990
  500SOL    HW211470   1.872   6.753   0.900  0.0974 -1.5875  1.5470
  501SOL     OW11471   1.482   4.691   1.250 -0.3988  0.1128  0.3618
  501SOL    HW111472   1.392   4.709   1.290 -0.4621 -0.7697  0.6415
  501SOL    HW211473   1.472   4.629   1.172  0.0003 -0.2766  0.6168
  502SOL     OW11474   4.777   2.800   0.428 -0.1326  0.1173  0.3387
  502SOL    HW111475   4.763   2.740   0.507  0.0524  1.2553  1.2578
  502SOL    HW211476   4.766   2.748   0.344 -2.1710 -0.7392  1.0872
  503SOL     OW11477   2.723   7.258   0.956 -0.3401 -0.0108  0.0500
  503SOL    HW111478   2.648   7.194   0.942  0.3101 -1.4571  2.8050
  503SOL    HW211479   2.710   7.307   1.042  2.0201 -0.4927  0.7155
  504SOL     OW11480   4.642   4.275   1.836 -0.4452 -0.5888  0.0184
  504SOL    HW111481   4.649   4.269   1.736 -0.7104  0.2464 -0.0524
  504SOL    HW211482   4.622   4.184   1.873 -2.5824 -0.5086 -0.8838
  505SOL     OW11483   2.068   2.716   0.886  0.6700 -0.4173  0.4659
  505SOL    HW111484   2.110   2.627   0.900  0.4004 -0.5092  0.7069
  505SOL    HW211485   2.080   2.772   0.968  2.2120  0.3418 -0.2638
  506SOL     OW11486   1.984   2.063  -0.007  0.3920  0.1331 -0.0111
  506SOL    HW111487   1.886   2.072  -0.019  0.4301 -0.8096 -1.0389
  506SOL    HW211488   2.004   2.041   0.089 -0.4097  0.0315  0.1319
  507SOL     OW11489   2.874   6.585   0.683 -0.3177  0.3063 -0.3644
  507SOL    HW111490   2.965   6.613   0.652 -0.2619  1.0655  0.4742
  507SOL    HW211491   2.813   6.665   0.683 -1.0271 -0.2251 -1.0560
  508SOL     OW11492   3.416   4.174   0.048 -0.2112 -0.2055 -0.2600
  508SOL    HW111493   3.455   4.265   0.034 -0.4652 -0.0055  0.2853
  508SOL    HW211494   3.353   4.177   0.126 -0.6176 -0.7292 -0.5663
  509SOL     OW11495   1.515   2.591   0.272  0.8781  0.1874  0.6505
  509SOL    HW111496   1.424   2.600   0.231  0.4109 -1.9838  1.1452
  509SOL    HW211497   1.558   2.682   0.280 -0.3296  0.9963 -1.6304
  510SOL     OW11498   2.920   3.780   2.450 -0.3372 -0.5893 -0.0816
  510SOL    HW111499   2.826   3.800   2.422 -0.5402 -0.5057  0.6388
  510SOL    HW211500   2.978   3.858   2.430 -0.4979 -0.4988 -0.1963
  511SOL     OW11501   1.727   5.276   2.497 -0.4123  0.0636  0.3629
  511SOL    HW111502   1.660   5.350   2.502 -0.6219 -0.0137 -1.0182
  511SOL    HW211503   1.681   5.190   2.476  0.1247  0.0521 -0.8405
  512SOL     OW11504   1.962   5.144   0.832 -0.5274  0.8193  0.8312
  512SOL    HW111505   1.867   5.176   0.831 -0.8218 -0.0488 -1.4683
  512SOL    HW211506   2.023   5.222   0.821 -1.1426  0.9539 -1.8132
  513SOL     OW11507   3.001   1.640   0.237 -0.1949 -0.4556 -0.0699
  513SOL    HW111508   2.997   1.643   0.138  1.6620  0.5817 -0.1261
  513SOL    HW211509   3.093   1.616   0.267  0.1615  2.5336  1.4333
  514SOL     OW11510   4.488  10.013   0.766  0.2879 -0.0990 -0.6375
  514SOL    HW111511   4.410   9.974   0.718 -0.3772 -0.5943  0.8228
  514SOL    HW211512   4.564  10.026   0.701  0.0819 -2.5571 -1.4379
  515SOL     OW11513   1.687   4.654   0.018  0.3294 -0.0445 -0.3496
  515SOL    HW111514   1.758   4.668   0.088  1.9098 -0.8554 -1.7593
  515SOL    HW211515   1.655   4.743  -0.014  0.7261  0.3320  0.2794
  516SOL     OW11516   3.217   7.014   1.092 -0.4420  0.9170  0.1263
  516SOL    HW111517   3.291   7.066   1.050  0.2504 -0.7382 -0.7680
  516SOL    HW211518   3.129   7.047   1.058 -0.0450  1.8194 -0.0396
  517SOL     OW11519   2.893   7.166   0.570 -0.1918 -0.8900 -0.8063
  517SOL    HW111520   2.861   7.216   0.650  2.0061  0.4414 -0.7130
  517SOL    HW211521   2.849   7.202   0.488 -1.8307 -1.7048 -0.3032
  518SOL     OW11522   4.759   3.024   2.092  0.3095 -0.4757 -0.5278
  518SOL    HW111523   4.744   2.960   2.167  0.1754  0.8297  0.5598
  518SOL    HW211524   4.672   3.039   2.044 -0.2005  0.8528  0.7932
  519SOL     OW11525   2.984   8.315   1.045 -0.5799  0.3726  0.0607
  519SOL    HW111526   3.013   8.251   1.116 -0.5193  0.1810 -0.1370
  519SOL    HW211527   3.046   8.308   0.966 -0.3138  0.9805  0.2113
  520SOL     OW11528   1.521   6.700   0.916 -0.1631 -0.2421 -0.1277
  520SOL    HW111529   1.620   6.700   0.907 -0.2712  1.2688 -1.5253
  520SOL    HW211530   1.487   6.607   0.903  1.0407 -0.7243  0.0953
  521SOL     OW11531   4.391   1.739   2.254  0.1552 -0.1875 -0.4929
  521SOL    HW111532   4.336   1.755   2.337 -0.0528 -3.4821  0.0589
  521SOL    HW211533   4.332   1.743   2.174 -0.5685 -1.8272 -0.0594
  522SOL     OW11534   1.011   2.844   1.166 -0.0190 -0.0165  0.3396
  522SOL    HW111535   0.997   2.771   1.100  0.5515 -0.3013  0.5350
  522SOL    HW211536   0.996   2.932   1.122  0.9614 -0.1794 -0.3170
  523SOL     OW11537   4.310   4.163   1.520 -0.0373  0.5525  0.3661
  523SOL    HW111538   4.397   4.130   1.557 -0.7121 -1.0557  0.5490
  523SOL    HW211539   4.290   4.253   1.558  1.1371  0.5672  0.9696
  524SOL     OW11540   9.866   5.329   1.686 -0.1100 -0.1027  0.2113
  524SOL    HW111541   9.958   5.293   1.671 -0.5705 -1.4794  0.5611
  524SOL    HW211542   9.834   5.376   1.604 -0.5109 -2.7931 -1.2178
  525SOL     OW11543  10.296   5.038   0.308 -0.4766  0.3665  0.5006
  525SOL    HW111544  10.329   5.128   0.280 -2.1484  1.4041  1.7790
  525SOL    HW211545  10.224   5.049   0.376 -1.3773 -1.9210 -0.0496
  526SOL     OW11546   1.263   3.063   1.193  0.1015  0.2819 -0.1840
  526SOL    HW111547   1.176   3.074   1.145 -0.1969  2.5228  0.8218
  526SOL    HW211548   1.279   2.966   1.211 -1.7238 -0.2310 -1.1883
  527SOL     OW11549   5.103   3.054   2.535 -0.2333  0.0513 -0.3116
  527SOL    HW111550   5.051   3.000   2.468 -0.6075 -0.0275  0.0377
  527SOL    HW211551   5.156   3.124   2.487 -0.4696 -0.0287 -0.6983
  528SOL     OW11552   3.269   2.141   0.310  0.1902 -0.0517  0.6638
  528SOL    HW111553   3.247   2.096   0.223  0.9333  0.3642  0.2575
  528SOL    HW211554   3.300   2.072   0.376  2.2454 -0.0223 -0.2522
  529SOL     OW11555   3.603   0.462   0.167 -0.4996 -0.2427 -0.3485
  529SOL    HW111556   3.514   0.507   0.171 -0.3213  0.0522  0.4649
  529SOL    HW211557   3.598   0.382   0.107 -1.0725  0.2983 -1.0332
  530SOL     OW11558   4.236   4.332   0.041  0.1987 -0.6238  0.3455
  530SOL    HW111559   4.156   4.315   0.099 -2.2661  1.7146 -2.2094
  530SOL    HW211560   4.266   4.245  -0.000 -0.9448 -1.5385  1.3944
  531SOL     OW11561   3.536   9.161   0.009  0.3853  0.2241  0.0416
  531SOL    HW111562   3.611   9.198  -0.045  0.2498 -0.2444 -0.4708
  531SOL    HW211563   3.567   9.078   0.056  0.6266  0.8570  1.0169
  532SOL     OW11564   2.597   9.509   0.661 -0.2063  0.2855  0.0570
  532SOL    HW111565   2.555   9.521   0.751 -0.6173  0.3641 -0.1461
  532SOL    HW211566   2.695   9.492   0.672 -0.2654  0.2457  0.5225
  533SOL     OW11567   2.846   1.848   1.291  0.4513 -0.5854  0.3119
  533SOL    HW111568   2.813   1.797   1.212  0.8593 -0.0222 -0.2308
  533SOL    HW211569   2.876   1.785   1.362  0.1070 -1.0939  0.0099
  534SOL     OW11570   2.512   3.123   2.640  0.4138  0.2308  0.3386
  534SOL    HW111571   2.535   3.115   2.737  2.6458 -0.2412 -0.2052
  534SOL    HW211572   2.596   3.123   2.585 -0.8335  0.1034 -1.6327
  535SOL     OW11573   3.757   9.851   1.836 -0.6171  0.0757 -0.0891
  535SOL    HW111574   3.699   9.775   1.863 -0.6015 -0.0967 -0.5356
  535SOL    HW211575   3.853   9.828   1.854 -0.7443  0.7383  1.5530
  536SOL     OW11576   0.820   2.925   0.263  0.2256  0.3039  0.3491
  536SOL    HW111577   0.771   2.961   0.343  1.0311  0.5609  0.7401
  536SOL    HW211578   0.876   2.998   0.224  0.5070 -0.0584  0.0770
  537SOL     OW11579   2.906   8.909   0.235 -0.3486  0.0166 -0.7905
  537SOL    HW111580   2.841   8.922   0.160  0.1365 -1.9614 -1.5880
  537SOL    HW211581   2.888   8.822   0.280  0.6487  0.2520  0.0850
  538SOL     OW11582   1.360   7.347   2.147  0.0811 -0.2965  0.0718
  538SOL    HW111583   1.393   7.254   2.131  0.5749 -0.0998 -0.0529
  538SOL    HW211584   1.294   7.372   2.077  1.2473  0.0821 -0.9248
  539SOL     OW11585   1.460   5.592   2.224 -0.4793 -0.9657 -0.1767
  539SOL    HW111586   1.361   5.584   2.229 -0.5816  0.8833  1.0435
  539SOL    HW211587   1.487   5.623   2.132 -1.0626 -0.8968 -0.3236
  540SOL     OW11588   1.963   1.125   2.172 -0.3009  0.2655  0.1326
  540SOL    HW111589   1.944   1.027   2.159 -2.0768  0.5066  0.8338
  540SOL    HW211590   1.989   1.165   2.084  0.0841 -0.7505 -0.2291
  541SOL     OW11591   4.337   4.095   2.587  0.3833 -0.2182  0.4895
  541SOL    HW111592   4.366   4.139   2.502  0.2115  0.0820  0.5862
  541SOL    HW211593   4.332   3.996   2.573 -0.2425 -0.1166 -0.0348
  542SOL     OW11594   1.673   6.307   0.616  0.1729 -0.4800  0.1922
  542SOL    HW111595   1.596   6.368   0.596 -1.1989 -1.4657  2.1869
  542SOL    HW211596   1.641   6.212   0.614  1.4249 -0.9201  0.7122
  543SOL     OW11597   3.402   8.777   2.249 -0.4602  0.0156  0.1823
  543SOL    HW111598   3.319   8.753   2.199 -0.1645 -0.6291 -0.0040
  543SOL    HW211599   3.462   8.833   2.192  0.1110 -1.1538 -0.3693
  544SOL     OW11600   3.726   1.897   1.632  0.7146 -0.2870 -0.4401
  544SOL    HW111601   3.765   1.970   1.687  1.9890 -2.1165  1.1429
  544SOL    HW211602   3.799   1.846   1.587 -0.2163  0.0317 -2.3894
  545SOL     OW11603   2.810   8.243   2.441 -0.4876 -0.2346  0.0425
  545SOL    HW111604   2.859   8.268   2.525  0.0857 -0.1742 -0.3117
  545SOL    HW211605   2.768   8.153   2.454 -0.3902 -0.2328  0.3940
  546SOL     OW11606   1.792   6.711   0.090 -0.6817 -0.4302  0.1937
  546SOL    HW111607   1.866   6.746   0.033 -0.7332  0.9968  0.9920
  546SOL    HW211608   1.705   6.715   0.039 -0.3883 -1.1875 -0.3843
  547SOL     OW11609   2.666   3.909   1.449  0.1912  0.3355 -0.6980
  547SOL    HW111610   2.733   3.983   1.454  1.3009 -0.7616  2.0857
  547SOL    HW211611   2.710   3.827   1.411  0.2743 -0.2062  0.5460
  548SOL     OW11612   2.386   9.087   2.252  0.1191 -0.4321 -0.4118
  548SOL    HW111613   2.392   9.118   2.347  2.3875  0.1539 -0.7029
  548SOL    HW211614   2.361   9.164   2.193  0.8435 -0.2894 -0.5386
  549SOL     OW11615   3.022   3.016   0.090  0.0258 -0.0141 -0.1127
  549SOL    HW111616   2.964   3.005   0.171 -1.7065  2.2194 -0.9725
  549SOL    HW211617   3.113   3.045   0.117  0.2650 -1.8698  1.1642
  550SOL     OW11618   2.004   0.582   1.391 -0.3432 -0.3415  0.0736
  550SOL    HW111619   2.084   0.638   1.415 -0.1672  0.8837 -3.0920
  550SOL    HW211620   1.930   0.641   1.359 -0.6717 -1.7971 -1.9546
  551SOL     OW11621   4.136   0.606   0.348  0.4572  0.2512 -0.3306
  551SOL    HW111622   4.093   0.520   0.377  0.2912  0.2553 -0.5689
  551SOL    HW211623   4.065   0.674   0.329  0.5107 -0.2160 -2.2519
  552SOL     OW11624   3.601   2.607   1.543 -0.2982  0.3205 -0.1484
  552SOL    HW111625   3.660   2.642   1.470 -0.2196 -0.4866 -0.4850
  552SOL    HW211626   3.537   2.678   1.571  0.8878  1.2293  0.2812
  553SOL     OW11627   5.652   8.798   1.107 -0.1667  0.0649  0.0999
  553SOL    HW111628   5.725   8.862   1.130  0.7890 -0.8672 -0.3321
  553SOL    HW211629   5.579   8.847   1.059 -0.2541  1.1782  1.3178
  554SOL     OW11630   4.095   4.924   2.154 -0.1481  0.0727 -0.4021
  554SOL    HW111631   4.174   4.867   2.177  0.7909  0.4214 -2.6212
  554SOL    HW211632   4.115   5.019   2.178  0.7685  0.4114 -2.3830
  555SOL     OW11633   2.284   8.509   0.245  0.1858 -0.1905 -0.0089
  555SOL    HW111634   2.352   8.436   0.237  0.1875 -0.1780 -0.1217
  555SOL    HW211635   2.237   8.519   0.157 -0.8210 -1.0466  0.4079
  556SOL     OW11636   3.245   0.857   0.640  0.2907  0.4619 -0.2325
  556SOL    HW111637   3.323   0.919   0.651  1.2902 -1.1198  1.8227
  556SOL    HW211638   3.170   0.887   0.699 -0.6194  1.8470 -2.0357
  557SOL     OW11639   3.436   1.167   1.538 -0.5190 -0.0404  0.5261
  557SOL    HW111640   3.365   1.140   1.603 -0.9118  1.1414  0.5992
  557SOL    HW211641   3.415   1.128   1.448 -0.9397 -0.1942  0.6886
  558SOL     OW11642   2.879   9.653   0.386 -0.3853 -0.0042 -0.9764
  558SOL    HW111643   2.861   9.749   0.365 -0.4349 -0.2749 -2.2542
  558SOL    HW211644   2.793   9.602   0.391 -0.5832  0.5817  2.7773
  559SOL     OW11645   4.604   4.502   0.776  0.5889  0.6550 -0.4548
  559SOL    HW111646   4.664   4.580   0.793 -0.3452  1.1803  0.5785
  559SOL    HW211647   4.637   4.423   0.828  1.0012  0.6342 -0.7480
  560SOL     OW11648   1.564   6.687   2.601 -0.0013  0.3176  0.2383
  560SOL    HW111649   1.586   6.740   2.519 -1.2651  0.2322 -0.1647
  560SOL    HW211650   1.519   6.601   2.574  0.0897  0.0339  0.9887
  561SOL     OW11651   3.136   2.119   1.619 -0.3870  0.1022 -0.6232
  561SOL    HW111652   3.100   2.165   1.700  0.8323  0.5223 -0.3117
  561SOL    HW211653   3.234   2.106   1.629 -0.1870  0.3308 -2.1232
  562SOL     OW11654   2.290   5.407   1.643 -0.9182 -0.1861 -0.5601
  562SOL    HW111655   2.366   5.414   1.708 -1.5550  0.3689  0.1381
  562SOL    HW211656   2.224   5.340   1.677 -0.0107 -1.8130 -1.9302
  563SOL     OW11657   2.380   6.405   0.835  0.0044  0.7001  0.0168
  563SOL    HW111658   2.307   6.452   0.787 -0.5800 -1.6609 -1.4608
  563SOL    HW211659   2.468   6.427   0.792 -0.2853  0.2899 -0.7926
  564SOL     OW11660   4.240   1.163   1.113  0.6173 -0.9026  0.3907
  564SOL    HW111661   4.144   1.163   1.141 -0.0571  0.0959 -1.7983
  564SOL    HW211662   4.279   1.255   1.124  1.4342 -1.3603  1.5225
  565SOL     OW11663   4.028   2.237   0.478  0.8159  0.0459  0.2706
  565SOL    HW111664   3.965   2.240   0.556  0.3423 -0.2403 -0.1025
  565SOL    HW211665   4.021   2.322   0.426  0.8189  0.0588  0.2913
  566SOL     OW11666   3.480   1.448   0.860  0.1116  0.4954  0.1797
  566SOL    HW111667   3.560   1.507   0.873  0.9121 -0.2926 -1.1864
  566SOL    HW211668   3.447   1.456   0.766 -0.9903  0.2524  0.5308
  567SOL     OW11669   1.771   5.671   1.183  0.0040  0.4320 -0.7073
  567SOL    HW111670   1.814   5.705   1.266 -0.9834  2.7429 -1.0689
  567SOL    HW211671   1.832   5.686   1.105  0.0019  0.3919 -0.7168
  568SOL     OW11672   2.239   9.852   0.147 -0.0278 -0.4619 -0.2243
  568SOL    HW111673   2.145   9.882   0.164 -0.2667 -1.5627  0.4585
  568SOL    HW211674   2.250   9.757   0.178  1.0817 -0.6226 -1.0696
  569SOL     OW11675   0.885   3.737   0.872 -0.5649  0.1285  0.7496
  569SOL    HW111676   0.979   3.710   0.894 -0.6702 -0.2066  0.7960
  569SOL    HW211677   0.862   3.822   0.918 -0.6761 -0.3954  1.6678
  570SOL     OW11678   3.637   5.758   1.694 -0.4479 -0.2771 -0.0976
  570SOL    HW111679   3.568   5.768   1.766  1.2527 -0.4656  1.6252
  570SOL    HW211680   3.632   5.666   1.655 -1.0346 -0.3552  0.1575
  571SOL     OW11681   2.605   9.333   0.216  0.0848  0.3094  0.0399
  571SOL    HW111682   2.589   9.418   0.166 -0.7203 -0.1414 -0.4736
  571SOL    HW211683   2.692   9.340   0.265  0.3254  1.1977 -0.4884
  572SOL     OW11684   3.505   5.245   1.094 -0.6905 -0.2161  0.3541
  572SOL    HW111685   3.479   5.295   1.012 -0.0389  0.6539  0.6678
  572SOL    HW211686   3.595   5.203   1.081 -1.7404 -2.3754 -0.3588
  573SOL     OW11687   3.088   3.381   1.672 -0.1015  0.4654 -0.1387
  573SOL    HW111688   3.162   3.447   1.685  1.1857 -0.8604 -0.5454
  573SOL    HW211689   3.011   3.405   1.730  0.1359  2.6209 -0.6860
  574SOL     OW11690   4.299   3.786   0.505  0.4540  0.2630 -0.6601
  574SOL    HW111691   4.336   3.738   0.426  0.0833  0.4108 -0.9252
  574SOL    HW211692   4.300   3.885   0.487  0.0784  0.2768 -0.6062
  575SOL     OW11693   3.069   4.640   2.259  0.2780  0.3654 -0.7202
  575SOL    HW111694   3.140   4.707   2.281  0.6302 -1.1430  3.0529
  575SOL    HW211695   3.111   4.551   2.245 -0.6625 -0.0891 -0.6417
  576SOL     OW11696   2.496  10.306   1.911 -0.1704  0.3431  0.1539
  576SOL    HW111697   2.507  10.237   1.840  0.3822  0.5766  0.0108
  576SOL    HW211698   2.445  10.384   1.875 -0.5806  0.1176  0.2454
  577SOL     OW11699   2.621   2.884   1.642  0.5710 -0.1404 -0.4004
  577SOL    HW111700   2.639   2.983   1.640  0.0714 -0.0537 -0.7339
  577SOL    HW211701   2.650   2.847   1.730 -1.6621  0.7673  0.7804
  578SOL     OW11702  10.135   5.572   2.365 -0.1915 -1.2313 -0.1834
  578SOL    HW111703  10.134   5.566   2.465  0.0601  0.0702 -0.0995
  578SOL    HW211704  10.046   5.545   2.329 -0.5159 -1.0007  0.4352
  579SOL     OW11705   2.561   1.038   2.392 -0.0016  0.4527  0.2712
  579SOL    HW111706   2.587   1.132   2.413  1.6290 -0.2110  1.3903
  579SOL    HW211707   2.548   0.987   2.478  0.2281 -0.6052 -0.3112
  580SOL     OW11708   1.188   2.782   1.828  0.1134 -0.2531  0.0064
  580SOL    HW111709   1.199   2.728   1.911  1.2312  1.9002  1.3010
  580SOL    HW211710   1.271   2.835   1.811 -0.5749  0.3118 -1.7931
  581SOL     OW11711   2.492   7.916   1.599  0.1135  0.3863 -0.1911
  581SOL    HW111712   2.392   7.915   1.597  0.0897  1.3353 -0.0111
  581SOL    HW211713   2.527   7.823   1.590 -0.8404 -0.3087  2.5266
  582SOL     OW11714   4.448   4.502   0.551  0.1857  0.9602 -0.1925
  582SOL    HW111715   4.362   4.496   0.602  0.3910 -1.9703 -0.1243
  582SOL    HW211716   4.525   4.498   0.615  0.4104  0.1626 -0.5151
  583SOL     OW11717   3.683   6.355   0.245 -0.1695  0.0011  0.3672
  583SOL    HW111718   3.749   6.430   0.243 -0.1439  0.0358  2.2408
  583SOL    HW211719   3.680   6.312   0.155  0.9533  1.2509 -0.2920
  584SOL     OW11720   2.351   7.168   0.318  0.1791 -0.1911 -0.1600
  584SOL    HW111721   2.376   7.261   0.345 -0.9077 -0.1053  0.5824
  584SOL    HW211722   2.358   7.159   0.219  3.4300 -0.2724 -0.0027
  585SOL     OW11723   4.499   0.893   0.522 -0.1163 -0.0367 -0.4750
  585SOL    HW111724   4.463   0.814   0.473 -0.8087  1.6366 -2.7094
  585SOL    HW211725   4.423   0.947   0.559  0.3709 -0.7944  1.7668
  586SOL     OW11726   2.686   7.606   2.222  0.1924  0.3247 -0.1642
  586SOL    HW111727   2.672   7.649   2.311  0.3877  1.4638 -0.6706
  586SOL    HW211728   2.758   7.655   2.173 -2.3041  1.9233 -2.3535
  587SOL     OW11729   1.979   0.861   2.098  0.2479 -0.4964 -0.2439
  587SOL    HW111730   1.997   0.900   2.008  0.4869 -0.1036 -0.0275
  587SOL    HW211731   1.902   0.797   2.092 -0.6017  0.5393 -0.4585
  588SOL     OW11732   3.940   5.467   1.645  0.4246 -0.3504 -0.5075
  588SOL    HW111733   3.858   5.450   1.589  0.7924 -2.7520 -0.3941
  588SOL    HW211734   3.913   5.468   1.741  0.4381 -0.6644 -0.4979
  589SOL     OW11735   2.776   7.929   1.247 -0.2579 -0.1561 -0.2040
  589SOL    HW111736   2.834   7.900   1.171 -0.6036 -0.6875 -0.2701
  589SOL    HW211737   2.716   8.003   1.217 -0.0643 -0.0436 -0.3140
  590SOL     OW11738   1.841   5.594   0.849  0.3489 -0.5645  0.7132
  590SOL    HW111739   1.758   5.543   0.829  0.9893 -0.4768 -2.4068
  590SOL    HW211740   1.817   5.685   0.883 -0.8091 -0.6215  0.0449
  591SOL     OW11741   4.033   5.840   0.510 -0.3231 -0.4975 -0.3241
  591SOL    HW111742   4.126   5.852   0.473  0.1003 -2.1954  0.1810
  591SOL    HW211743   4.035   5.773   0.584 -2.1596 -1.3745 -1.0655
  592SOL     OW11744   1.519   3.675   2.463  0.3414 -0.2005 -0.1088
  592SOL    HW111745   1.570   3.636   2.387  0.2747 -0.2167 -0.1451
  592SOL    HW211746   1.467   3.603   2.509 -2.1818  0.3361 -2.0326
  593SOL     OW11747   3.561   9.246   1.440  0.1088 -0.0220 -0.1654
  593SOL    HW111748   3.550   9.153   1.474  1.4564  0.1493  0.7720
  593SOL    HW211749   3.473   9.280   1.406 -0.5698 -1.3128  0.2821
  594SOL     OW11750   4.096   3.545   2.368  0.3227  0.2344  0.2370
  594SOL    HW111751   4.055   3.600   2.296  1.2876  0.8347  0.1367
  594SOL    HW211752   4.180   3.503   2.334  0.3311 -0.1789  0.7464
  595SOL     OW11753   4.476   3.399   0.677  0.0734 -0.1893 -0.2672
  595SOL    HW111754   4.390   3.397   0.625  0.9696 -0.6403 -1.7499
  595SOL    HW211755   4.471   3.331   0.750 -0.5330 -0.7875 -0.8475
  596SOL     OW11756   2.029   7.006   1.210  0.2664  0.0065  0.2686
  596SOL    HW111757   2.114   7.058   1.203 -0.6236  1.2464 -2.3687
  596SOL    HW211758   1.959   7.062   1.253  0.4183 -0.5146  1.1917
  597SOL     OW11759   1.147   5.041   1.304  0.7110 -0.4393 -0.0971
  597SOL    HW111760   1.091   5.102   1.360  0.3759 -1.0599  0.2544
  597SOL    HW211761   1.238   5.032   1.345  1.0928  0.6311 -0.7121
  598SOL     OW11762   1.294   3.686   0.276  0.5805 -0.6758  0.3891
  598SOL    HW111763   1.213   3.715   0.327  1.1206  1.7414 -0.0755
  598SOL    HW211764   1.308   3.588   0.288 -0.9283 -0.6434  2.5522
  599SOL     OW11765   3.253   8.741   2.527  0.5414  0.1176 -0.1665
  599SOL    HW111766   3.283   8.774   2.438  0.6690  1.5146  0.3713
  599SOL    HW211767   3.326   8.688   2.570  1.1564  0.9500 -0.1534
  600SOL     OW11768   3.087   3.870   0.537 -0.2631 -0.4373 -0.3259
  600SOL    HW111769   3.013   3.807   0.511  1.7024 -2.4030 -1.3194
  600SOL    HW211770   3.123   3.844   0.627 -2.3835  2.0536  1.3072
  601SOL     OW11771   3.700   0.736   2.626 -0.5324 -0.9924 -0.1882
  601SOL    HW111772   3.695   0.817   2.684 -1.0314 -2.2760  1.5765
  601SOL    HW211773   3.608   0.700   2.609 -0.1316 -2.8034  1.3573
  602SOL     OW11774   3.521   5.866   2.464 -0.2561  0.4973 -0.6402
  602SOL    HW111775   3.422   5.862   2.474 -0.1641  0.0460  0.0616
  602SOL    HW211776   3.561   5.778   2.488  0.0127 -0.5626 -4.5811
  603SOL     OW11777   5.505   3.227   1.139  0.4470  0.0591 -0.1217
  603SOL    HW111778   5.417   3.257   1.101  1.1963  0.6479 -1.4235
  603SOL    HW211779   5.550   3.304   1.184  1.6281  0.5397 -2.0482
  604SOL     OW11780   2.261   2.500   1.805 -0.6325 -0.0516 -0.4824
  604SOL    HW111781   2.171   2.542   1.796 -0.4153  0.3768 -0.6949
  604SOL    HW211782   2.330   2.571   1.819 -0.2629 -0.3337 -0.8456
  605SOL     OW11783   5.317   3.523   0.977  0.3134 -0.2273 -0.5844
  605SOL    HW111784   5.288   3.428   0.994  0.4119 -0.1066  0.3229
  605SOL    HW211785   5.287   3.552   0.887  1.4023 -1.5615 -1.4023
  606SOL     OW11786  10.617   4.851   1.199 -1.1198  0.9604 -0.2351
  606SOL    HW111787  10.583   4.888   1.285  0.5722  0.5607  0.6275
  606SOL    HW211788  10.715   4.870   1.191 -0.9836 -0.1753 -1.4461
  607SOL     OW11789   1.031   3.720   2.045  0.3432 -0.1553  0.3236
  607SOL    HW111790   1.030   3.716   1.945  1.2896 -0.8883  0.3352
  607SOL    HW211791   0.961   3.659   2.082 -0.4458  0.6075  0.1015
  608SOL     OW11792   3.817   1.916   0.964  0.3442 -1.1391  0.6328
  608SOL    HW111793   3.886   1.981   0.933  0.0163 -0.4948  1.2303
  608SOL    HW211794   3.747   1.964   1.016 -0.6375 -1.7761 -0.1019
  609SOL     OW11795   2.707   3.217   1.297 -0.2646  0.1491  0.2900
  609SOL    HW111796   2.699   3.210   1.198 -0.8118 -1.8480  0.4658
  609SOL    HW211797   2.616   3.217   1.338 -0.0248  0.5511  0.8383
  610SOL     OW11798   4.346   3.085   2.292 -0.1596 -0.0221  0.6791
  610SOL    HW111799   4.371   3.164   2.349 -0.2538  0.7066 -0.2669
  610SOL    HW211800   4.416   3.071   2.223 -1.1098  0.4844 -0.4114
  611SOL     OW11801   1.836   3.042   2.282  0.4278 -0.0772  0.2494
  611SOL    HW111802   1.801   2.949   2.272  0.1854  0.2149 -1.8634
  611SOL    HW211803   1.935   3.038   2.296  0.4593 -0.6558 -0.0880
  612SOL     OW11804   2.895   5.769   2.376  0.3430  0.2871  0.3959
  612SOL    HW111805   2.948   5.714   2.442  1.0593 -1.1434 -1.3208
  612SOL    HW211806   2.827   5.711   2.332 -1.0153  1.5510  0.8041
  613SOL     OW11807   3.934   9.741   2.480  0.0210  0.6414 -0.3095
  613SOL    HW111808   3.897   9.679   2.410  0.6443  0.8849 -0.8555
  613SOL    HW211809   3.864   9.808   2.505 -0.2432  0.4828 -0.6189
  614SOL     OW11810   3.653   0.549   0.734 -0.6555  0.6768  0.0326
  614SOL    HW111811   3.717   0.558   0.810 -0.9125  0.2418  0.3022
  614SOL    HW211812   3.699   0.571   0.648 -0.6589  2.3164  0.4296
  615SOL     OW11813   4.493   2.922   2.071  0.0708 -0.4760  0.4701
  615SOL    HW111814   4.499   2.879   1.981  0.3511 -1.9415  1.1683
  615SOL    HW211815   4.417   2.882   2.122  0.6100 -0.4756  1.2937
  616SOL     OW11816   2.665   5.315   0.664  0.5015  0.1758 -0.5845
  616SOL    HW111817   2.690   5.316   0.761  4.0221 -0.4074 -1.4247
  616SOL    HW211818   2.700   5.397   0.619  0.7023 -0.5450 -1.7685
  617SOL     OW11819   2.879   5.626   1.102  0.3073 -0.2611  0.7403
  617SOL    HW111820   2.973   5.659   1.102  0.1812  0.1427 -0.3971
  617SOL    HW211821   2.816   5.704   1.097 -0.0318 -0.6004 -0.4831
  618SOL     OW11822   3.314   9.339   0.644  0.9861 -0.3349 -0.0278
  618SOL    HW111823   3.335   9.429   0.607  0.6878  0.1520  0.9954
  618SOL    HW211824   3.399   9.293   0.670  1.0403  0.1883  0.7175
  619SOL     OW11825  10.470   5.940   1.176  0.2870  0.3498  0.2476
  619SOL    HW111826  10.407   5.862   1.174  2.3535 -1.3183 -1.0071
  619SOL    HW211827  10.438   6.010   1.112  1.4567 -1.9336 -2.9763
  620SOL     OW11828  10.026   5.586   1.748 -0.0120  0.2346  0.5830
  620SOL    HW111829   9.930   5.562   1.735  0.4140 -1.7976  1.1352
  620SOL    HW211830  10.077   5.569   1.663  0.4642 -1.6918  1.2473
  621SOL     OW11831   4.497   2.726   1.397 -0.7568 -0.6113  0.1976
  621SOL    HW111832   4.401   2.700   1.407 -0.8639 -0.3597 -0.1656
  621SOL    HW211833   4.504   2.807   1.338 -0.2606 -1.1251 -0.4568
  622SOL     OW11834   2.875   9.712   2.041  0.3459  0.1300 -0.2615
  622SOL    HW111835   2.860   9.799   1.995  1.1623  0.2912 -0.2264
  622SOL    HW211836   2.964   9.712   2.085 -0.2495 -0.1779  0.9728
  623SOL     OW11837   1.885   3.355   2.103 -0.2299  0.4419 -0.0353
  623SOL    HW111838   1.854   3.334   2.195  0.2591  0.6757  0.1840
  623SOL    HW211839   1.981   3.329   2.093  0.0881  1.6001 -0.0846
  624SOL     OW11840   0.723   5.500   2.177  0.1064 -0.7432 -0.0518
  624SOL    HW111841   0.733   5.435   2.103 -0.6703 -1.0564  0.1146
  624SOL    HW211842   0.788   5.479   2.250  1.4116  0.0327 -0.9643
  625SOL     OW11843   2.326   8.261   0.780 -0.0744  0.2145  0.2946
  625SOL    HW111844   2.383   8.179   0.769 -0.6212 -0.2508  0.9053
  625SOL    HW211845   2.281   8.282   0.693  1.1336  0.6651 -0.2272
  626SOL     OW11846   3.564   1.280   1.249  0.4089  0.3732 -0.6118
  626SOL    HW111847   3.579   1.216   1.324  0.9902  0.2365 -0.8421
  626SOL    HW211848   3.468   1.277   1.221 -0.1912  1.6602  1.2410
  627SOL     OW11849   3.908   3.968   2.334  0.4585 -0.4774  0.0173
  627SOL    HW111850   3.882   4.048   2.388 -0.6307 -0.9095  0.1498
  627SOL    HW211851   3.826   3.913   2.314  1.1313 -1.3348 -0.4225
  628SOL     OW11852   3.659   5.535   1.085  0.1190  0.0475  0.1125
  628SOL    HW111853   3.678   5.512   0.989  0.7552  1.9170 -0.2316
  628SOL    HW211854   3.743   5.562   1.131 -0.2350 -0.5467  1.1296
  629SOL     OW11855   4.250   9.906   0.715 -0.3308  0.0410 -0.7866
  629SOL    HW111856   4.198   9.886   0.798 -0.9117 -0.7154 -1.3366
  629SOL    HW211857   4.190   9.948   0.647  0.2901  1.2726 -0.6027
  630SOL     OW11858   2.451   0.416   0.720  0.0790  0.1459  0.3381
  630SOL    HW111859   2.410   0.366   0.796 -0.0382 -1.9280 -1.0504
  630SOL    HW211860   2.550   0.422   0.733 -0.0363  0.5204  1.0537
  631SOL     OW11861   1.483   1.823   0.684  0.4891  0.0738 -0.2549
  631SOL    HW111862   1.543   1.901   0.702  0.0512  0.4858 -0.5805
  631SOL    HW211863   1.430   1.839   0.601 -3.0127  1.5396  2.1029
  632SOL     OW11864   2.922   7.155   2.412  0.1376 -0.0303 -0.1362
  632SOL    HW111865   2.916   7.070   2.465  0.7956  0.4957  0.7750
  632SOL    HW211866   2.904   7.134   2.315 -3.6624 -0.5897  0.6198
  633SOL     OW11867   4.757   3.496   0.632  0.4938 -0.4122 -0.0190
  633SOL    HW111868   4.712   3.575   0.589 -0.5911  0.1520  2.0821
  633SOL    HW211869   4.689   3.427   0.655  1.4458 -2.0405 -1.8944
  634SOL     OW11870   4.521   2.768   2.532  0.4133 -0.7746  0.1693
  634SOL    HW111871   4.510   2.867   2.543 -0.2481 -0.9222  0.9216
  634SOL    HW211872   4.617   2.746   2.517  1.1120 -0.3147  3.5352
  635SOL     OW11873   3.083   4.639   0.333 -0.9432 -0.0512  0.0005
  635SOL    HW111874   3.045   4.592   0.254 -0.3064 -0.2536 -0.1850
  635SOL    HW211875   3.016   4.705   0.368 -0.7272  0.9827 -1.5029
  636SOL     OW11876   1.878   6.458   0.700 -1.0659 -0.0940  0.4650
  636SOL    HW111877   1.858   6.544   0.746 -0.8469  1.4760 -2.2422
  636SOL    HW211878   1.793   6.407   0.687 -1.1182 -0.6065  2.5963
  637SOL     OW11879  10.490   5.602   0.972  0.2984  0.1307 -0.5492
  637SOL    HW111880  10.470   5.593   0.874  0.2778  1.0017 -0.6278
  637SOL    HW211881  10.521   5.514   1.007  2.4860  0.3290 -1.8407
  638SOL     OW11882   2.194   1.246   2.291 -0.0638 -0.6453 -0.1377
  638SOL    HW111883   2.195   1.238   2.390  0.4409 -0.1832 -0.1051
  638SOL    HW211884   2.106   1.214   2.256 -1.2066  1.4887  0.6577
  639SOL     OW11885   4.100   5.739   2.127 -0.0297  0.5797  0.0641
  639SOL    HW111886   4.014   5.736   2.077 -0.5029  1.5843  0.8036
  639SOL    HW211887   4.094   5.807   2.200  1.6285  1.1778 -0.3277
  640SOL     OW11888   4.455   2.500   1.705  0.5881  0.2184  0.5965
  640SOL    HW111889   4.420   2.468   1.616  2.0035  1.4080 -0.4200
  640SOL    HW211890   4.384   2.490   1.774 -0.8499  0.1025 -0.8560
  641SOL     OW11891   3.904   2.256   1.225  0.1724  0.0302 -0.1338
  641SOL    HW111892   3.843   2.228   1.151  0.1189  1.6670 -0.7257
  641SOL    HW211893   3.853   2.256   1.311 -1.0633  2.6183 -0.8077
  642SOL     OW11894   4.884   2.827   1.928  0.1335  0.3044  0.2942
  642SOL    HW111895   4.857   2.731   1.932  0.2444  0.3339  1.9453
  642SOL    HW211896   4.832   2.879   1.996  1.3310  1.1039  0.6088
  643SOL     OW11897   2.757   5.381   2.158 -0.3759  0.5083 -0.1445
  643SOL    HW111898   2.678   5.439   2.140  0.4506  1.0332 -2.2707
  643SOL    HW211899   2.811   5.372   2.074  0.5101 -1.8159  0.6347
  644SOL     OW11900   2.684   6.067   0.712 -0.1212 -0.4733  0.3447
  644SOL    HW111901   2.653   6.074   0.807 -0.4632 -0.3235  0.2245
  644SOL    HW211902   2.613   6.023   0.657  0.0897 -0.5912  0.1640
  645SOL     OW11903   3.522   2.037   1.884 -0.5503  0.1073 -0.2425
  645SOL    HW111904   3.539   1.942   1.911  0.7243 -0.0997 -1.7138
  645SOL    HW211905   3.608   2.080   1.857 -1.5146  0.8571 -2.2018
  646SOL     OW11906   2.905   3.934   1.161  0.1652 -0.4842 -0.5450
  646SOL    HW111907   2.887   3.855   1.219  1.0355  0.4375  0.9980
  646SOL    HW211908   3.004   3.949   1.155  0.0587 -0.2289 -1.8152
  647SOL     OW11909   0.715   3.735   1.631  1.1646  0.6925  0.1582
  647SOL    HW111910   0.730   3.816   1.689  0.7257  0.5496  0.4748
  647SOL    HW211911   0.746   3.755   1.538 -0.8205  1.9505 -0.2634
  648SOL     OW11912   2.927   8.518   0.575  0.3788  0.3438 -0.4014
  648SOL    HW111913   3.006   8.568   0.609 -0.4913  2.2490 -1.1080
  648SOL    HW211914   2.880   8.474   0.651  0.4165  1.7022  0.4189
  649SOL     OW11915   9.726   4.174   1.719  0.3384  0.5059  0.1679
  649SOL    HW111916   9.783   4.095   1.742 -0.8934 -0.7995 -1.0850
  649SOL    HW211917   9.656   4.145   1.653 -1.2823  2.2372  1.1088
  650SOL     OW11918   3.038   5.398   0.300 -0.0688  0.5613 -0.1086
  650SOL    HW111919   2.974   5.471   0.274  0.7200  1.7038  1.1418
  650SOL    HW211920   3.130   5.435   0.306  0.5991 -0.8930 -0.9977
  651SOL     OW11921   2.925   9.040   1.489 -0.1221  0.2552 -0.2074
  651SOL    HW111922   2.920   8.990   1.575  3.0951 -1.2078 -0.8103
  651SOL    HW211923   2.955   8.979   1.416 -0.4782  2.0313 -1.8940
  652SOL     OW11924   3.627   9.018   1.840  0.4603  0.2311  0.7665
  652SOL    HW111925   3.607   9.106   1.882  0.1094  0.4229  0.2065
  652SOL    HW211926   3.599   9.020   1.744 -0.0544 -0.6676  0.8894
  653SOL     OW11927   2.583   7.704   1.864 -0.2761  0.6785 -0.1198
  653SOL    HW111928   2.557   7.637   1.934  0.1653 -0.4244 -1.0111
  653SOL    HW211929   2.529   7.787   1.877 -1.1146  0.0151  0.7423
  654SOL     OW11930   2.148   1.055   1.677 -0.3204 -0.4294 -0.3667
  654SOL    HW111931   2.137   1.148   1.644 -0.4559  0.2125  1.3956
  654SOL    HW211932   2.243   1.040   1.705 -0.2534 -0.8833 -0.8254
  655SOL     OW11933   1.635   5.047   2.396  0.6950  0.2011  0.8069
  655SOL    HW111934   1.581   5.096   2.327 -0.4103 -0.9685  0.8241
  655SOL    HW211935   1.719   5.013   2.354  0.5919  0.5219  0.3347
  656SOL     OW11936   3.914   3.896   0.204 -0.0122 -0.5566  0.0249
  656SOL    HW111937   3.955   3.981   0.233  0.8356 -0.5315 -1.2100
  656SOL    HW211938   3.814   3.905   0.204  0.0649  0.2904  0.2808
  657SOL     OW11939   4.720   2.799   2.237  0.9979  0.1708 -0.5391
  657SOL    HW111940   4.628   2.805   2.197  0.5505 -1.1264  0.2660
  657SOL    HW211941   4.758   2.709   2.218  0.5105 -0.7227  2.4945
  658SOL     OW11942   2.787   5.102   2.360 -0.2749  0.2022  0.3908
  658SOL    HW111943   2.823   5.106   2.453  0.7280  1.0197 -0.0152
  658SOL    HW211944   2.848   5.153   2.299 -1.5206  0.6238 -0.5216
  659SOL     OW11945   2.851   0.460   0.256  0.0333 -0.1546 -0.0521
  659SOL    HW111946   2.849   0.452   0.356  0.2460 -4.6045 -0.3242
  659SOL    HW211947   2.861   0.369   0.215 -0.6674  1.5186 -4.1707
  660SOL     OW11948   5.512   3.309   0.132 -0.1615 -0.6615  0.1130
  660SOL    HW111949   5.455   3.335   0.053 -2.3738 -1.7500  1.2900
  660SOL    HW211950   5.553   3.391   0.171  0.8886 -0.0940 -2.0959
  661SOL     OW11951   2.690   8.605   0.064 -0.0274  0.1997  0.3681
  661SOL    HW111952   2.680   8.673  -0.009 -0.4985 -0.3741 -0.1005
  661SOL    HW211953   2.652   8.642   0.149  1.1092  1.1253  0.4943
  662SOL     OW11954   4.479   3.713   2.319 -0.1758  0.1973  0.0826
  662SOL    HW111955   4.574   3.689   2.296 -0.3355 -1.0892  0.7214
  662SOL    HW211956   4.457   3.802   2.278  1.5155  0.8277  0.4762
  663SOL     OW11957   2.519   7.804   0.287 -0.1354  0.2143 -0.1701
  663SOL    HW111958   2.513   7.884   0.347  0.9005  0.7005 -0.6967
  663SOL    HW211959   2.589   7.741   0.321 -0.3349 -0.0497 -0.2437
  664SOL     OW11960   2.502   2.561   1.422  0.0119 -0.3722 -0.5072
  664SOL    HW111961   2.407   2.539   1.441  0.4321 -1.5377  0.3561
  664SOL    HW211962   2.546   2.484   1.374  0.9528 -0.5982  0.6668
  665SOL     OW11963   1.666   2.814   0.337 -0.3811 -0.7604  0.7473
  665SOL    HW111964   1.661   2.780   0.431  1.3982  0.8274  1.4546
  665SOL    HW211965   1.761   2.816   0.308 -0.9474 -1.5056 -1.2197
  666SOL     OW11966   4.527   2.926   0.213  0.3249  0.1223  0.0306
  666SOL    HW111967   4.470   2.938   0.295  1.0738 -0.6973  0.6830
  666SOL    HW211968   4.502   2.841   0.168 -0.1454  0.6172 -0.6474
  667SOL     OW11969   3.592   4.810   1.885  0.4770  0.0694 -0.0435
  667SOL    HW111970   3.647   4.726   1.877  1.3749  0.3273  2.8062
  667SOL    HW211971   3.584   4.853   1.796  2.6166 -1.4288 -1.0028
  668SOL     OW11972   3.029   4.031   0.024 -0.1386 -0.2131 -0.0014
  668SOL    HW111973   3.038   3.933   0.041  1.7047 -0.0906 -0.0933
  668SOL    HW211974   3.070   4.082   0.100  1.0777  0.4334 -1.0484
  669SOL     OW11975   2.606   2.013   0.411  0.2708  0.5635  0.1412
  669SOL    HW111976   2.704   2.014   0.391  0.4203  0.9789  0.8963
  669SOL    HW211977   2.579   2.099   0.454 -0.3418  0.2740  0.3431
  670SOL     OW11978   2.594   9.635   1.137 -0.2334  0.2776 -0.3642
  670SOL    HW111979   2.591   9.549   1.188 -1.0692  0.3475 -0.2883
  670SOL    HW211980   2.517   9.692   1.164 -0.1855  0.6824 -1.0802
  671SOL     OW11981   4.255   2.061   0.949  0.0752  0.0063 -0.4279
  671SOL    HW111982   4.269   1.963   0.940 -0.8042 -0.1041 -0.5886
  671SOL    HW211983   4.331   2.109   0.904  0.7846 -0.5898  0.1177
  672SOL     OW11984   2.543   8.075   2.436 -0.0145  0.4783  0.1816
  672SOL    HW111985   2.577   8.044   2.347 -1.4346  1.8689 -0.8848
  672SOL    HW211986   2.563   8.172   2.448 -0.8359  0.5749  0.8560
  673SOL     OW11987   2.129   7.544   0.071 -0.4668 -0.3651  0.4171
  673SOL    HW111988   2.185   7.586   0.143 -0.5176 -0.8934  0.7720
  673SOL    HW211989   2.159   7.576  -0.018  1.1871 -1.5531  0.5259
  674SOL     OW11990   4.547   4.695   0.142  0.2586  0.2817  0.6219
  674SOL    HW111991   4.522   4.746   0.225  1.4218  1.2443  0.4047
  674SOL    HW211992   4.510   4.742   0.062  3.2948  2.1771  0.2318
  675SOL     OW11993   3.957   1.888   2.342  0.5130 -0.6657  0.1752
  675SOL    HW111994   3.915   1.831   2.271 -2.2638 -0.9192  1.9492
  675SOL    HW211995   4.036   1.841   2.380 -0.1470 -2.1565 -0.2440
  676SOL     OW11996   0.680   5.789   2.113 -0.1158  0.2257  0.1110
  676SOL    HW111997   0.753   5.820   2.051 -0.2093  0.5264  0.1495
  676SOL    HW211998   0.686   5.690   2.125 -1.2351 -0.0902 -1.8378
  677SOL     OW11999   3.561   8.952   2.122 -0.0163  0.1242 -0.8126
  677SOL    HW112000   3.563   8.981   2.026 -1.3683 -0.6721 -1.0860
  677SOL    HW212001   3.646   8.981   2.166  0.5911  0.5763 -2.2210
  678SOL     OW12002   2.732   4.400   2.370  0.2668 -0.2003  0.2487
  678SOL    HW112003   2.633   4.402   2.376  0.3277 -0.9923  1.8920
  678SOL    HW212004   2.768   4.493   2.362 -0.4961  0.2499  1.9547
  679SOL     OW12005   3.368   7.521   1.839 -0.0846 -0.6357  0.3157
  679SOL    HW112006   3.292   7.514   1.903 -0.2102  0.2933  0.2853
  679SOL    HW212007   3.440   7.456   1.864  0.5294  0.7670  2.3299
  680SOL     OW12008   4.840   2.058   0.359  0.2957 -0.2223 -0.5166
  680SOL    HW112009   4.856   2.123   0.433 -1.1815 -0.0038 -0.3636
  680SOL    HW212010   4.749   2.018   0.369  1.0695 -2.1017 -0.7848
  681SOL     OW12011   2.690   5.356   0.036  0.0006 -0.0217 -0.0249
  681SOL    HW112012   2.779   5.331  -0.004 -0.8771 -1.2870 -1.2487
  681SOL    HW212013   2.619   5.350  -0.035 -1.0764  0.8892  0.9632
  682SOL     OW12014   0.977   5.869   2.495  0.0839  0.2107  0.1573
  682SOL    HW112015   0.898   5.880   2.435 -1.1284  1.0946  1.8717
  682SOL    HW212016   1.059   5.858   2.440 -1.2001 -0.5483 -1.6577
  683SOL     OW12017   2.810   6.629   1.098  0.0237 -0.3460  0.1237
  683SOL    HW112018   2.864   6.547   1.081 -2.1006 -1.6101 -0.7059
  683SOL    HW212019   2.854   6.708   1.055  2.1660 -1.0110  1.0698
  684SOL     OW12020   0.965   3.569   0.268  0.4528  0.3877 -0.1578
  684SOL    HW112021   0.975   3.659   0.226 -0.4505  0.9830  0.8969
  684SOL    HW212022   0.882   3.566   0.323  2.5655  0.2807  3.2024
  685SOL     OW12023   1.125   6.227   1.479  0.3330 -0.1442  0.5027
  685SOL    HW112024   1.178   6.143   1.470 -0.9512 -1.2246  2.5113
  685SOL    HW212025   1.181   6.298   1.523  1.0439 -0.3266 -0.1096
  686SOL     OW12026   1.300   2.709   0.136 -0.3921  0.5386 -0.7199
  686SOL    HW112027   1.209   2.711   0.178  0.2106  0.2032  0.5895
  686SOL    HW212028   1.291   2.681   0.040 -1.3737 -2.4831  0.1876
  687SOL     OW12029   1.331   5.152   0.120  0.0360 -0.4872 -0.2306
  687SOL    HW112030   1.342   5.250   0.138 -1.8133 -0.4967  1.0660
  687SOL    HW212031   1.379   5.099   0.190  0.6946 -0.5304 -0.7031
  688SOL     OW12032   2.925  10.221   1.733  0.1367 -0.4561 -0.2665
  688SOL    HW112033   3.001  10.157   1.743 -0.4622 -1.1175  0.0991
  688SOL    HW212034   2.909  10.268   1.819  2.0563  1.8969 -1.1307
  689SOL     OW12035   3.832   1.302   0.477  0.5453  0.3717  0.0281
  689SOL    HW112036   3.932   1.290   0.476  0.3818 -1.1764  0.5168
  689SOL    HW212037   3.798   1.285   0.569 -0.4926 -2.1305 -0.7570
  690SOL     OW12038   2.829   8.356   1.477 -0.3396  0.3792  0.2623
  690SOL    HW112039   2.849   8.317   1.567  0.0097  1.4745  0.6678
  690SOL    HW212040   2.854   8.453   1.477 -2.0534  0.8348 -0.4313
  691SOL     OW12041   1.990   8.156   0.789  0.0180  0.1186  0.1821
  691SOL    HW112042   2.060   8.107   0.842  1.8236  1.6003 -0.7835
  691SOL    HW212043   1.987   8.251   0.817 -0.1608  0.5401 -1.2343
  692SOL     OW12044   4.087   4.748   0.498 -0.1894 -0.1378 -0.0482
  692SOL    HW112045   4.084   4.648   0.492 -0.7676 -0.0821 -0.7456
  692SOL    HW212046   4.082   4.776   0.594 -1.6414 -0.7167  0.0456
  693SOL     OW12047   3.504   2.354   1.536 -0.6955 -0.2297  0.3137
  693SOL    HW112048   3.542   2.446   1.528 -1.3434  0.0726  0.6839
  693SOL    HW212049   3.418   2.349   1.483 -0.4237 -0.7523 -0.0837
  694SOL     OW12050   2.387  10.145   1.043 -0.2025 -0.5169 -0.1872
  694SOL    HW112051   2.468  10.104   1.002  0.5635 -0.3818  1.1396
  694SOL    HW212052   2.349  10.215   0.983  0.4317 -0.8665 -0.9891
  695SOL     OW12053   9.819   3.716   2.388  0.0849 -0.2924 -0.3106
  695SOL    HW112054   9.810   3.796   2.448 -1.5507  0.3382 -1.3873
  695SOL    HW212055   9.776   3.637   2.432 -1.9422  0.3836 -1.0204
  696SOL     OW12056   2.474   5.562   1.280  0.4181  0.6929 -0.3542
  696SOL    HW112057   2.436   5.473   1.307  0.2504  1.1163  0.8296
  696SOL    HW212058   2.520   5.553   1.192 -1.6909 -0.0254 -1.4174
  697SOL     OW12059   2.690   7.988   0.088 -0.5282  0.0809 -0.3207
  697SOL    HW112060   2.663   7.897   0.119  0.3282 -0.4261 -1.0087
  697SOL    HW212061   2.610   8.037   0.053 -1.4289  0.5093  2.2462
  698SOL     OW12062   3.416   8.433   1.796  0.5697  0.5086 -0.5439
  698SOL    HW112063   3.464   8.351   1.766 -0.2286 -0.4581  0.7940
  698SOL    HW212064   3.481   8.497   1.836  0.9709 -0.1490 -0.1393
  699SOL     OW12065   5.254   2.877   1.108  0.0940 -0.3539  0.4457
  699SOL    HW112066   5.272   2.877   1.010 -1.4208 -0.4083  0.1616
  699SOL    HW212067   5.205   2.794   1.133  0.1021 -0.1411  1.1787
  700SOL     OW12068   3.040   8.196   2.270  0.5657 -0.0926 -0.0091
  700SOL    HW112069   3.105   8.254   2.319  1.0376 -0.8954  0.3343
  700SOL    HW212070   2.947   8.215   2.303  0.9633 -1.2180  1.8323
  701SOL     OW12071   3.508   5.470   1.325  0.5104  0.1016  0.0984
  701SOL    HW112072   3.409   5.478   1.319  0.1845 -2.7242  0.8089
  701SOL    HW212073   3.547   5.471   1.233 -0.3233 -0.0888 -0.2648
  702SOL     OW12074   0.624   4.302   0.046  0.0822 -0.2238 -0.2116
  702SOL    HW112075   0.682   4.270   0.121  2.6710  1.6258 -1.3401
  702SOL    HW212076   0.547   4.354   0.083  0.6753 -0.3367  1.2291
  703SOL     OW12077   2.229  10.017   1.630  0.0254 -0.6239 -0.0224
  703SOL    HW112078   2.233   9.925   1.669 -1.9256 -0.7730 -0.1658
  703SOL    HW212079   2.190  10.014   1.538  0.6702  0.2676 -0.3412
  704SOL     OW12080   1.755   7.731   2.110 -0.1755 -0.3756  0.2239
  704SOL    HW112081   1.821   7.705   2.040  1.4456 -1.1825  1.9776
  704SOL    HW212082   1.681   7.664   2.113  0.7556 -1.4109  0.5394
  705SOL     OW12083  10.577   3.208   0.309 -0.3345  0.6310 -1.0814
  705SOL    HW112084  10.558   3.181   0.215  0.5916 -2.2871 -0.4780
  705SOL    HW212085  10.490   3.222   0.358 -0.8209  2.9109 -2.5264
  706SOL     OW12086   1.410   3.476   2.606  0.3937 -0.3799 -0.1114
  706SOL    HW112087   1.403   3.397   2.545  0.1916  0.4814 -1.1913
  706SOL    HW212088   1.328   3.482   2.662  0.8454 -1.5346  0.7146
  707SOL     OW12089   4.065   1.974   1.863 -0.3218  0.5639  0.1549
  707SOL    HW112090   4.161   1.947   1.854 -0.8645 -2.5274  2.6216
  707SOL    HW212091   4.060   2.065   1.903  1.5514  2.0289 -2.7222
  708SOL     OW12092   3.086   1.251   0.428 -0.6468 -0.0526  0.6185
  708SOL    HW112093   3.061   1.162   0.465 -0.6362 -0.4832 -0.4120
  708SOL    HW212094   3.123   1.240   0.336  0.1160  0.9307  0.7954
  709SOL     OW12095   2.374   4.393   0.903  0.4084  0.7751  0.8852
  709SOL    HW112096   2.446   4.426   0.964  2.5508 -0.5436 -0.8368
  709SOL    HW212097   2.400   4.412   0.808 -1.5475  0.3127  0.2391
  710SOL     OW12098   5.368   4.217   2.224  0.5911  0.2329 -0.5213
  710SOL    HW112099   5.372   4.251   2.319 -0.8018  0.6394 -0.6077
  710SOL    HW212100   5.458   4.231   2.181  1.2304  0.0651  0.7266
  711SOL     OW12101   4.502   3.473   2.628 -0.1731  0.7121  0.3880
  711SOL    HW112102   4.505   3.399   2.695 -0.8459  0.4612  0.1486
  711SOL    HW212103   4.490   3.434   2.536 -0.5275  1.1143  0.2603
  712SOL     OW12104   4.460   4.661   1.958 -0.2125 -0.1004  0.1128
  712SOL    HW112105   4.534   4.729   1.962 -0.6165  0.2690  1.5431
  712SOL    HW212106   4.500   4.569   1.955  0.3061  0.1233 -0.0294
  713SOL     OW12107   1.170   4.481  -0.001 -0.2092 -0.7522 -0.2988
  713SOL    HW112108   1.267   4.497  -0.019 -0.0975 -1.1339 -0.0384
  713SOL    HW212109   1.122   4.469  -0.088 -0.6677  3.0518 -0.6387
  714SOL     OW12110   3.374   3.689   1.170 -0.0986 -0.1034 -0.4963
  714SOL    HW112111   3.367   3.594   1.139  1.2655 -0.1588 -0.6672
  714SOL    HW212112   3.461   3.702   1.216 -0.7699  0.7899  0.5333
  715SOL     OW12113   2.144   8.183   0.534  0.4379 -0.0877  0.9768
  715SOL    HW112114   2.121   8.253   0.467  0.4602 -0.8749  0.1325
  715SOL    HW212115   2.072   8.178   0.603 -0.2512 -0.2000  0.2591
  716SOL     OW12116  10.415   3.894   1.525 -0.6581  0.5225  0.2999
  716SOL    HW112117  10.395   3.836   1.604 -0.7743 -1.1408 -0.9287
  716SOL    HW212118  10.514   3.899   1.512 -0.6885 -0.5004 -0.3821
  717SOL     OW12119   1.875   6.552   1.123  0.0227 -0.3314  0.7849
  717SOL    HW112120   1.886   6.639   1.075 -1.3410  0.4381  1.8222
  717SOL    HW212121   1.864   6.570   1.221  0.0043 -1.7002  1.0369
  718SOL     OW12122   3.181   6.213   2.155 -0.4789  0.0414 -0.2286
  718SOL    HW112123   3.280   6.205   2.168 -0.3296 -1.8289 -2.0992
  718SOL    HW212124   3.142   6.122   2.139 -1.9121  1.1156 -3.3455
  719SOL     OW12125   3.001   7.063   0.272 -0.5242 -0.5258 -0.0854
  719SOL    HW112126   2.918   7.013   0.297 -0.8184  0.3763  0.8031
  719SOL    HW212127   3.064   7.065   0.350  0.6523 -1.8104 -0.9759
  720SOL     OW12128   1.884   0.854   2.446 -0.0494 -0.2300  0.0441
  720SOL    HW112129   1.877   0.898   2.356  1.4208  1.3121  0.6666
  720SOL    HW212130   1.852   0.759   2.439  2.4344 -0.9431 -2.6921
  721SOL     OW12131   4.017   3.603   1.909  0.6507 -0.1355 -0.0063
  721SOL    HW112132   3.963   3.677   1.949  0.3063 -0.6363  0.4479
  721SOL    HW212133   3.984   3.515   1.943  1.8502 -0.4343  0.3995
  722SOL     OW12134   4.083   0.580   1.227 -0.2450 -0.3807 -0.4350
  722SOL    HW112135   4.115   0.675   1.235  1.2272 -0.9370  0.5871
  722SOL    HW212136   4.054   0.562   1.134  0.5430  0.7497 -0.9125
  723SOL     OW12137   1.889   1.035   1.164 -0.5935 -0.1158 -0.4182
  723SOL    HW112138   1.883   1.134   1.148  1.6485  0.1954  0.4162
  723SOL    HW212139   1.941   0.993   1.090  3.2770  0.2063  1.9932
  724SOL     OW12140   3.489   4.804   2.454  0.1155 -0.2002  0.3378
  724SOL    HW112141   3.526   4.896   2.446 -1.6017  0.9636  4.6526
  724SOL    HW212142   3.402   4.798   2.404  1.1771 -0.1022 -1.5642
  725SOL     OW12143   2.269   9.742   1.725 -0.1337  0.1006  0.3190
  725SOL    HW112144   2.295   9.812   1.792 -0.7212  2.2476 -1.6172
  725SOL    HW212145   2.340   9.735   1.655 -0.2363 -1.0333  0.3203
  726SOL     OW12146   4.614   1.260   1.065  0.2098 -0.4144  0.2275
  726SOL    HW112147   4.690   1.234   1.125  0.0234 -0.9437  0.2376
  726SOL    HW212148   4.588   1.182   1.008  0.0225 -0.0764 -0.1500
  727SOL     OW12149   4.052   2.217   1.988  0.2527 -0.0695 -0.2101
  727SOL    HW112150   3.980   2.286   1.998  1.9180  2.1817 -2.8883
  727SOL    HW212151   4.096   2.202   2.076  0.2741  2.7770  0.3194
  728SOL     OW12152   3.736   4.600   1.865  0.4494  0.1597  0.0888
  728SOL    HW112153   3.695   4.511   1.886 -0.0262  0.2569 -0.4092
  728SOL    HW212154   3.808   4.620   1.932  2.5273 -1.8825 -1.4486
  729SOL     OW12155   1.703   7.738   0.558 -0.2174 -0.1350  0.4197
  729SOL    HW112156   1.698   7.696   0.468 -0.6857  0.4630  0.1595
  729SOL    HW212157   1.736   7.832   0.550 -0.0280 -0.1566  0.8963
  730SOL     OW12158   2.156   0.689   0.854 -0.4612  0.2681 -0.0774
  730SOL    HW112159   2.103   0.606   0.836  2.0724 -1.4958  0.1792
  730SOL    HW212160   2.233   0.693   0.789  1.6827  0.3030  2.3845
  731SOL     OW12161   4.203   4.828   0.826 -0.7230 -0.0474  0.4940
  731SOL    HW112162   4.261   4.806   0.905 -3.7641 -0.8065  2.6117
  731SOL    HW212163   4.125   4.765   0.825 -0.8256  0.0705 -3.0743
  732SOL     OW12164   0.845   5.020   0.637  0.4677  0.4049  0.0924
  732SOL    HW112165   0.935   5.063   0.634 -0.5109  2.5144 -0.5071
  732SOL    HW212166   0.790   5.055   0.561 -1.0242 -0.4844  0.7486
  733SOL     OW12167   2.061   0.926   0.515  0.5139  0.7895  0.0487
  733SOL    HW112168   2.088   0.831   0.527  0.1371  0.5507 -0.9086
  733SOL    HW212169   2.003   0.934   0.434  0.1285  1.7543  0.4091
  734SOL     OW12170   3.588   5.180   0.342 -0.3892 -0.2566  0.2118
  734SOL    HW112171   3.618   5.214   0.431  0.1856  0.8004 -0.3780
  734SOL    HW212172   3.612   5.083   0.333 -0.9313 -0.5094  1.4109
  735SOL     OW12173   3.739   9.060   1.094  0.0554  0.1031  0.2369
  735SOL    HW112174   3.787   9.147   1.089 -0.2926  0.1753 -2.2017
  735SOL    HW212175   3.711   9.032   1.003 -2.0691 -1.3164  1.2866
  736SOL     OW12176   4.326   4.758   2.188 -0.0671  0.3806 -0.6408
  736SOL    HW112177   4.355   4.728   2.097 -0.3841  2.1300 -1.3262
  736SOL    HW212178   4.406   4.791   2.239 -0.1373  0.8957 -0.8641
  737SOL     OW12179   0.675   4.577   0.616 -0.4945 -0.5703 -0.2316
  737SOL    HW112180   0.726   4.558   0.700 -0.5299  0.2834 -0.0081
  737SOL    HW212181   0.582   4.541   0.625  0.2300 -2.6894 -0.8868
  738SOL     OW12182   3.450   1.471   0.551 -0.0195  0.1751  0.1570
  738SOL    HW112183   3.525   1.524   0.513 -0.2495 -0.4176 -1.1659
  738SOL    HW212184   3.368   1.484   0.495 -0.4772 -0.3939  0.6870
  739SOL     OW12185   1.801   1.481   1.197 -0.8650  0.6909 -0.1546
  739SOL    HW112186   1.720   1.455   1.144 -1.2261  1.6655 -0.1038
  739SOL    HW212187   1.814   1.580   1.190 -0.7844  0.8034  1.3971
  740SOL     OW12188   2.852   9.913   0.323 -0.1734 -0.1896  0.2018
  740SOL    HW112189   2.939   9.963   0.329  0.0379 -0.2224 -2.1424
  740SOL    HW212190   2.779   9.969   0.360  0.3740  1.0712 -0.6144
  741SOL     OW12191   3.898   0.759   0.264 -0.2176  0.4122 -0.2859
  741SOL    HW112192   3.875   0.682   0.205 -0.7851 -0.6883  1.3259
  741SOL    HW212193   3.840   0.837   0.241 -0.3483  0.0351 -1.2483
  742SOL     OW12194   3.718   2.194   1.465 -0.0888  0.3594  0.2241
  742SOL    HW112195   3.644   2.257   1.489 -0.6364 -0.0745 -0.3311
  742SOL    HW212196   3.681   2.103   1.449  0.2365  0.6017 -2.2212
  743SOL     OW12197   4.935   2.564   1.007  0.5457  0.1688  0.2955
  743SOL    HW112198   4.865   2.630   1.034 -1.2604 -2.2368  1.7530
  743SOL    HW212199   4.994   2.545   1.085 -0.5719 -1.8321  0.6970
  744SOL     OW12200   2.884   6.059   1.124  0.0163 -0.1208 -0.1707
  744SOL    HW112201   2.983   6.044   1.120  0.3242  2.1350 -2.5776
  744SOL    HW212202   2.857   6.080   1.218  2.1598  1.0691  0.2087
  745SOL     OW12203   4.090   7.884   0.481 -0.1985 -0.2214  0.2743
  745SOL    HW112204   4.060   7.935   0.561  1.1325 -0.9423  1.2369
  745SOL    HW212205   4.036   7.800   0.473 -0.0331 -0.3675  0.6720
  746SOL     OW12206  10.554   3.927   0.025  0.3594  0.3575  0.1342
  746SOL    HW112207  10.469   3.875   0.039 -1.4011  3.1151  0.2276
  746SOL    HW212208  10.596   3.947   0.113  0.6357 -0.2729  0.1451
  747SOL     OW12209   0.842   6.189   0.080 -0.5121  0.0343  0.2540
  747SOL    HW112210   0.785   6.107   0.086 -1.3005  0.6320  1.2125
  747SOL    HW212211   0.783   6.270   0.076  0.2411  0.6836  1.6975
  748SOL     OW12212   1.485   2.676   1.556  0.1446 -0.6828 -0.2500
  748SOL    HW112213   1.387   2.661   1.570  0.1004 -0.7204 -0.5901
  748SOL    HW212214   1.523   2.601   1.502  0.5121 -1.0503  0.4978
  749SOL     OW12215   3.893   5.775   2.631  0.2392 -0.2607  0.1213
  749SOL    HW112216   3.852   5.710   2.695  0.3988  0.8507  1.3666
  749SOL    HW212217   3.906   5.731   2.542 -2.3059 -1.0419  0.1211
  750SOL     OW12218   9.544   4.635   2.465  0.2615 -0.6966 -1.0249
  750SOL    HW112219   9.497   4.588   2.390  1.2699 -0.4076 -1.8432
  750SOL    HW212220   9.638   4.654   2.439 -0.1019  1.7340 -0.6941
  751SOL     OW12221   2.206   5.200   1.187 -0.3938 -0.4523  0.4782
  751SOL    HW112222   2.181   5.284   1.137  0.4303  0.1149  1.0034
  751SOL    HW212223   2.252   5.225   1.273  0.7295 -1.4576  0.1841
  752SOL     OW12224   3.412   0.959   1.305 -0.1988 -0.2411 -1.0148
  752SOL    HW112225   3.385   0.876   1.256 -0.0336  1.0175 -3.2792
  752SOL    HW212226   3.377   1.039   1.257  2.0572  1.1317 -0.4172
  753SOL     OW12227   5.625   3.203   0.890  0.1638 -0.0215  0.1292
  753SOL    HW112228   5.570   3.200   0.973 -2.1557 -1.1776 -1.3962
  753SOL    HW212229   5.702   3.266   0.903 -0.2899 -0.0039  3.0305
  754SOL     OW12230   3.521   4.584   2.250 -0.0959 -0.2976 -0.2018
  754SOL    HW112231   3.447   4.556   2.312  0.1736  1.1226  0.7818
  754SOL    HW212232   3.608   4.552   2.285  0.1116  0.9271  0.4405
  755SOL     OW12233   5.064   2.931   0.654 -0.1107  0.3802 -0.3513
  755SOL    HW112234   5.003   2.981   0.715  1.2377  1.5824  0.0387
  755SOL    HW212235   5.037   2.946   0.559 -1.2592 -0.2283 -0.1264
  756SOL     OW12236   3.726   8.435   0.228 -0.1217 -0.6098 -0.2225
  756SOL    HW112237   3.686   8.448   0.137 -0.6207  0.5872  0.1553
  756SOL    HW212238   3.821   8.465   0.227 -0.3923  0.2904 -0.1347
  757SOL     OW12239   2.131  10.251   0.043  0.7207  0.6702 -0.2927
  757SOL    HW112240   2.146  10.196   0.125 -0.4259  2.0817  0.8746
  757SOL    HW212241   2.188  10.333   0.046  1.1220  0.4398 -1.2121
  758SOL     OW12242  10.569   6.111   2.358  0.2755  0.3382  0.2396
  758SOL    HW112243  10.590   6.207   2.343  0.8669 -0.1308 -2.0316
  758SOL    HW212244  10.470   6.097   2.356  0.2467  0.6732 -0.9157
  759SOL     OW12245   1.323   3.194   0.121 -0.0539  0.3674 -0.4464
  759SOL    HW112246   1.374   3.117   0.161 -0.9422 -0.2119 -0.4261
  759SOL    HW212247   1.359   3.213   0.030  0.7356  0.4822 -0.1182
  760SOL     OW12248   4.579   1.119   1.477  0.0894 -0.2187 -0.0718
  760SOL    HW112249   4.549   1.064   1.400  0.5021  0.2797 -0.5962
  760SOL    HW212250   4.526   1.205   1.479 -0.6629 -0.6945  0.8330
  761SOL     OW12251   3.061   4.309   0.462 -0.0523  0.8525 -0.1641
  761SOL    HW112252   3.157   4.286   0.446  0.5329  1.7349  1.9421
  761SOL    HW212253   3.017   4.234   0.511 -1.0342 -0.4831 -2.9687
  762SOL     OW12254   2.971   5.852   1.973  1.1014  0.0471  0.0242
  762SOL    HW112255   2.890   5.794   1.966  0.0944  0.9017  3.5844
  762SOL    HW212256   2.970   5.919   1.898 -0.9964 -0.5200 -0.5021
  763SOL     OW12257   3.521   2.865   1.278  0.3761 -0.1385  0.0759
  763SOL    HW112258   3.442   2.909   1.236  0.1901  1.0708  1.6900
  763SOL    HW212259   3.603   2.920   1.259  0.1470  0.9067  2.0700
  764SOL     OW12260   3.790   0.492   2.449  0.0211 -0.3608 -0.2107
  764SOL    HW112261   3.749   0.579   2.475 -1.0691 -0.6995 -0.7869
  764SOL    HW212262   3.884   0.507   2.417 -0.3215  0.6506 -0.7424
  765SOL     OW12263   2.091   0.866   1.849  0.2703  0.3202  0.0571
  765SOL    HW112264   2.166   0.866   1.915 -0.4717 -0.2692  0.9081
  765SOL    HW212265   2.105   0.940   1.783 -0.1882  2.4055  2.2454
  766SOL     OW12266   2.544   6.319   1.747 -0.1588  0.4566 -0.8065
  766SOL    HW112267   2.499   6.405   1.769 -0.5436 -0.1872  0.9783
  766SOL    HW212268   2.611   6.334   1.674 -0.4157  2.1969 -0.6980
  767SOL     OW12269   2.541   3.589   2.202  0.3719 -0.1374  0.0218
  767SOL    HW112270   2.546   3.621   2.108 -1.3282  0.8237  0.2307
  767SOL    HW212271   2.539   3.489   2.203 -0.7893 -0.1342 -1.0331
  768SOL     OW12272   3.211   3.045   2.303  0.1284 -0.0722 -0.4978
  768SOL    HW112273   3.285   3.011   2.245  0.7940  0.8149 -0.1797
  768SOL    HW212274   3.240   3.130   2.347 -1.0945  0.2957 -0.3912
  769SOL     OW12275   2.033   3.420   0.380  0.3322  0.4027 -0.2068
  769SOL    HW112276   2.021   3.512   0.419 -1.0544  0.0012  0.3263
  769SOL    HW212277   2.084   3.363   0.445 -0.8669  0.1085  0.4885
  770SOL     OW12278   1.696   4.167   2.568  0.1700 -0.1175 -0.3907
  770SOL    HW112279   1.621   4.223   2.603 -0.0767  0.1501 -1.3448
  770SOL    HW212280   1.783   4.206   2.597 -0.0210  0.3501 -0.4433
  771SOL     OW12281   4.001   1.251   1.223 -0.0043 -0.0486  0.2979
  771SOL    HW112282   4.010   1.269   1.321  2.2965 -1.1248  0.3172
  771SOL    HW212283   3.953   1.165   1.209 -0.6642  0.2897  0.4656
  772SOL     OW12284   3.284   1.106   2.556 -0.2345 -0.8263  0.0587
  772SOL    HW112285   3.252   1.020   2.596 -2.8668 -0.1666 -0.5238
  772SOL    HW212286   3.240   1.183   2.602  0.5947  0.1284 -0.7150
  773SOL     OW12287   4.997   1.974   2.399  0.0151  0.1188  0.0536
  773SOL    HW112288   5.079   1.983   2.342 -0.4694  1.5750 -0.4200
  773SOL    HW212289   5.009   2.028   2.482  0.1522 -0.8984  0.7090
  774SOL     OW12290   4.504   2.534   2.049 -0.7953  0.5577  0.2658
  774SOL    HW112291   4.415   2.514   2.009 -0.1692 -1.4474 -0.1447
  774SOL    HW212292   4.555   2.595   1.987 -1.3774  0.7006 -0.0826
  775SOL     OW12293   3.834   2.774   0.626 -0.1266 -0.1900 -0.5822
  775SOL    HW112294   3.888   2.803   0.546 -0.3086  0.3724 -0.5059
  775SOL    HW212295   3.865   2.826   0.706 -0.0411 -0.6544 -0.3163
  776SOL     OW12296   3.608   4.885   2.152 -0.0290 -0.7650  0.1865
  776SOL    HW112297   3.575   4.811   2.210  0.7770 -2.7178 -1.7660
  776SOL    HW212298   3.608   4.855   2.057  0.8473  1.5758 -0.5916
  777SOL     OW12299   2.077   9.386   1.211  0.0876  0.3706 -0.3215
  777SOL    HW112300   2.040   9.445   1.283 -1.5961  0.6282 -1.3603
  777SOL    HW212301   2.018   9.306   1.201  0.8061 -0.1011 -0.8211
  778SOL     OW12302   2.322   6.078   0.212  0.2439 -0.2291  0.9413
  778SOL    HW112303   2.258   6.097   0.137  0.9342 -1.6491 -0.0485
  778SOL    HW212304   2.295   6.129   0.293  0.0963  2.1802 -0.5844
  779SOL     OW12305   3.719   5.361   2.618 -0.4299 -0.2297  0.2806
  779SOL    HW112306   3.737   5.299   2.542  0.4882  0.0362  0.2789
  779SOL    HW212307   3.773   5.334   2.698  0.2317  0.7483  0.1826
  780SOL     OW12308   3.713   3.960   1.823 -0.2891  0.1526 -0.2724
  780SOL    HW112309   3.772   4.040   1.815 -0.7773  0.4997 -0.3564
  780SOL    HW212310   3.691   3.925   1.732  1.7928 -1.4500 -0.2080
  781SOL     OW12311   4.424   8.387   0.342  0.0760 -0.4596  0.5283
  781SOL    HW112312   4.500   8.450   0.357 -0.5468 -0.2612  3.0808
  781SOL    HW212313   4.456   8.307   0.292  1.8611 -0.1452  1.1461
  782SOL     OW12314   4.649   2.413   0.472  0.0760  0.2127 -0.4669
  782SOL    HW112315   4.678   2.496   0.519 -1.0477 -0.6690  1.8684
  782SOL    HW212316   4.719   2.342   0.485  0.3280  0.3175 -1.1883
  783SOL     OW12317   1.751   1.431   1.494 -0.1310  0.2476 -0.0441
  783SOL    HW112318   1.747   1.453   1.397 -0.1420  0.8635  0.0955
  783SOL    HW212319   1.693   1.351   1.512 -0.0410  0.0598 -0.5579
  784SOL     OW12320   3.997   4.115   0.502  0.0862 -0.1920 -0.5744
  784SOL    HW112321   4.066   4.110   0.575 -0.2225  4.2060  0.1049
  784SOL    HW212322   3.910   4.081   0.536  0.2053  0.8286  0.7490
  785SOL     OW12323  10.299   4.349   2.190 -0.0094 -0.3518 -0.3778
  785SOL    HW112324  10.327   4.312   2.101 -1.0950 -1.1234 -0.4155
  785SOL    HW212325  10.233   4.423   2.177 -0.4860 -0.7442 -0.2082
  786SOL     OW12326  10.358   4.580   0.127 -0.0324  0.0859 -0.0678
  786SOL    HW112327  10.435   4.581   0.190 -0.1635  0.3914  0.0864
  786SOL    HW212328  10.307   4.666   0.134 -1.0730 -0.5814  0.6883
  787SOL     OW12329   1.303   5.545   1.713  0.4301  0.7243  0.6401
  787SOL    HW112330   1.314   5.447   1.729  0.3110  0.4959 -0.6201
  787SOL    HW212331   1.214   5.575   1.747 -0.0232  0.1526 -0.0479
  788SOL     OW12332   2.443   3.316   2.476 -0.2056  0.0686  0.1146
  788SOL    HW112333   2.489   3.290   2.391 -0.9697 -2.0862  0.3210
  788SOL    HW212334   2.458   3.245   2.545 -2.4719  0.1334  0.7030
  789SOL     OW12335  10.581   5.307   0.029  0.5137  0.2352  0.7337
  789SOL    HW112336  10.558   5.390   0.080 -0.0399 -0.1642  1.1449
  789SOL    HW212337  10.563   5.322  -0.069  0.8076  0.7362  0.7592
  790SOL     OW12338   5.400   4.304   0.620  0.7460 -0.0480 -0.5057
  790SOL    HW112339   5.439   4.212   0.620  0.6757 -0.0751  0.5581
  790SOL    HW212340   5.459   4.364   0.567  0.9837 -0.6201 -0.9016
  791SOL     OW12341   2.310   3.530   2.370  0.3683 -0.1677  0.0476
  791SOL    HW112342   2.340   3.441   2.405  2.8029  0.7165  0.3280
  791SOL    HW212343   2.384   3.572   2.318 -0.3680  2.1504  0.8049
  792SOL     OW12344   2.969   7.938   0.001 -0.1840 -0.6998  0.2441
  792SOL    HW112345   2.875   7.970   0.014 -0.4283 -2.3371  2.9717
  792SOL    HW212346   2.979   7.847   0.042  2.7116 -0.3622  0.3937
  793SOL     OW12347   2.536   1.859   1.162 -0.3636  0.1293  0.1670
  793SOL    HW112348   2.556   1.775   1.112 -2.1877 -0.4510  0.3861
  793SOL    HW212349   2.605   1.929   1.140  0.3970 -0.9889 -1.0216
  794SOL     OW12350   1.602   4.381   1.784  0.2734 -0.4179 -0.2730
  794SOL    HW112351   1.547   4.443   1.728  0.7069  1.4362  1.2931
  794SOL    HW212352   1.542   4.331   1.846  0.2688  1.1608  1.0162
  795SOL     OW12353   4.964   4.875   1.410 -0.6639 -0.1214  0.0398
  795SOL    HW112354   5.011   4.933   1.476 -0.2063 -1.5080  0.9524
  795SOL    HW212355   4.865   4.883   1.423 -0.6073  0.3856  0.1959
  796SOL     OW12356   2.392   1.563   0.992 -0.5624  0.3502  0.0857
  796SOL    HW112357   2.351   1.609   1.071 -0.3499  1.1497 -0.2662
  796SOL    HW212358   2.391   1.625   0.913 -1.0946 -0.5570 -0.6368
  797SOL     OW12359   5.093   4.233   2.117  0.3071  0.0821 -0.0309
  797SOL    HW112360   5.083   4.164   2.045  0.3824  0.0477 -0.0083
  797SOL    HW212361   5.187   4.234   2.150  0.3390  0.2913 -0.1268
  798SOL     OW12362   1.188   4.207   0.770  0.6571  0.5471 -0.1212
  798SOL    HW112363   1.244   4.270   0.718  0.2216 -0.8985 -2.4205
  798SOL    HW212364   1.096   4.245   0.781 -0.1445 -0.4373 -3.0888
  799SOL     OW12365   2.490   4.657   2.592  0.0610 -0.1404 -0.0319
  799SOL    HW112366   2.433   4.690   2.517  0.6833  1.4170  0.1578
  799SOL    HW212367   2.584   4.648   2.561 -0.3467 -3.2785 -0.5121
  800SOL     OW12368   1.064   4.748   2.097  0.0858  0.5417  0.5381
  800SOL    HW112369   0.966   4.727   2.095 -0.0348  1.1000  0.5474
  800SOL    HW212370   1.115   4.670   2.060 -0.5569  1.4150 -2.3049
  801SOL     OW12371   3.025   2.758   0.858  0.4011  0.0613  0.6392
  801SOL    HW112372   3.002   2.705   0.776 -2.7054  2.0749  0.1194
  801SOL    HW212373   3.007   2.703   0.939 -1.3947 -0.2414  0.0705
  802SOL     OW12374   2.903   2.517   2.406 -0.0536  0.0002 -0.2384
  802SOL    HW112375   2.861   2.607   2.416  2.0120  0.9807 -0.0842
  802SOL    HW212376   2.877   2.459   2.483  0.9784  1.4569  1.2362
  803SOL     OW12377   2.698   9.151   1.319 -0.4884 -0.4512 -0.2130
  803SOL    HW112378   2.741   9.127   1.406 -1.3550 -0.1339  0.3086
  803SOL    HW212379   2.722   9.082   1.250  0.7044 -0.3624  0.1131
  804SOL     OW12380   2.688   4.131   0.606  0.1617 -0.1819 -0.4318
  804SOL    HW112381   2.672   4.137   0.507  0.3871 -0.8147 -0.5038
  804SOL    HW212382   2.621   4.069   0.647 -0.4044  0.6547 -0.0744
  805SOL     OW12383   3.261   8.359   0.230 -0.0423 -0.2890 -0.2203
  805SOL    HW112384   3.187   8.358   0.297  0.3517  0.0062  0.2167
  805SOL    HW212385   3.239   8.424   0.157  1.1106  1.9951  1.4155
  806SOL     OW12386   2.424   6.777   0.245  0.4294  0.2065 -0.4233
  806SOL    HW112387   2.485   6.749   0.319 -1.1647  1.0714  1.2834
  806SOL    HW212388   2.330   6.752   0.269  0.2398 -2.3281 -3.6104
  807SOL     OW12389   2.855   4.755   0.720  0.1239 -0.0243  0.2965
  807SOL    HW112390   2.861   4.659   0.693  1.1727 -0.0345  0.5654
  807SOL    HW212391   2.932   4.805   0.682  0.0567  0.5377  0.8986
  808SOL     OW12392   3.256   9.739   1.312  0.2152 -0.3290 -0.4794
  808SOL    HW112393   3.245   9.673   1.238 -0.2501 -0.1500 -0.5760
  808SOL    HW212394   3.175   9.736   1.371  0.1857  0.1551 -0.4894
  809SOL     OW12395   3.706   1.547   0.432  0.1017 -0.4128 -0.3982
  809SOL    HW112396   3.758   1.466   0.460 -0.5736 -0.7018  0.0132
  809SOL    HW212397   3.739   1.626   0.484 -0.1292 -0.6713  0.1485
  810SOL     OW12398   3.161   3.051   1.462 -0.0091 -0.6326 -0.7674
  810SOL    HW112399   3.081   3.108   1.479  0.9329  0.2836  0.6853
  810SOL    HW212400   3.164   2.977   1.529  0.3724 -0.6492 -0.8039
  811SOL     OW12401   4.041  10.350   0.448 -0.1737 -0.1311 -0.0905
  811SOL    HW112402   4.060  10.325   0.543 -1.4430 -0.6577  0.0335
  811SOL    HW212403   4.053  10.270   0.389  2.4227  0.6207 -0.6574
  812SOL     OW12404   2.416   4.454   0.655 -0.1184  0.7370 -0.1598
  812SOL    HW112405   2.515   4.438   0.655  0.3656  3.4823  0.7424
  812SOL    HW212406   2.395   4.524   0.587 -1.5293 -0.1161 -0.6163
  813SOL     OW12407   3.321   3.547   2.269 -0.0219 -0.7103  0.2937
  813SOL    HW112408   3.415   3.552   2.236 -0.1898 -1.4474 -0.2847
  813SOL    HW212409   3.276   3.635   2.255  0.3592 -0.5767 -0.0863
  814SOL     OW12410  10.398   5.826   2.061 -0.4961  0.3678  0.0502
  814SOL    HW112411  10.494   5.806   2.046 -0.3685 -0.1576  1.4218
  814SOL    HW212412  10.386   5.924   2.075  0.0271  0.2946  1.0818
  815SOL     OW12413   2.874   3.684   0.473 -0.6615  0.0093 -0.0275
  815SOL    HW112414   2.845   3.636   0.391 -2.0661 -1.2575  1.1692
  815SOL    HW212415   2.800   3.744   0.505 -0.1639  0.4289  0.3565
  816SOL     OW12416   2.644   3.828   0.521 -0.1398 -0.6891  0.2347
  816SOL    HW112417   2.595   3.871   0.445  0.3734 -0.8075 -0.1638
  816SOL    HW212418   2.598   3.850   0.607 -1.2060 -1.2433 -0.1862
  817SOL     OW12419   4.123   5.888   2.356 -0.4464 -0.4286  0.2956
  817SOL    HW112420   4.064   5.934   2.423  1.6350 -0.6063  2.3070
  817SOL    HW212421   4.208   5.939   2.346  1.8680 -3.7210  2.4598
  818SOL     OW12422   2.638   5.767   0.245 -0.2076  0.1508 -0.2646
  818SOL    HW112423   2.605   5.730   0.331  0.0226 -0.2799 -0.3582
  818SOL    HW212424   2.575   5.742   0.171 -0.7490  1.0725 -0.1219
  819SOL     OW12425   2.209   5.346   0.518  0.0233  0.5341 -0.1012
  819SOL    HW112426   2.262   5.384   0.442 -1.6169  0.6395 -1.2186
  819SOL    HW212427   2.111   5.354   0.498 -0.3949 -2.4733  0.5292
  820SOL     OW12428   1.657   7.192   2.222  0.1012  0.5228 -0.7115
  820SOL    HW112429   1.602   7.113   2.249 -0.0060 -0.0356 -2.4788
  820SOL    HW212430   1.670   7.252   2.301 -0.2985 -0.9606  0.5217
  821SOL     OW12431   2.925   6.346   1.824  0.1483  0.8269  0.2023
  821SOL    HW112432   2.903   6.370   1.729 -1.9061  1.3034  0.7945
  821SOL    HW212433   2.995   6.408   1.858 -0.3591  1.7568 -0.4353
  822SOL     OW12434   5.357   3.345   2.565  0.1286  0.4672 -0.1490
  822SOL    HW112435   5.258   3.353   2.577  0.3424  1.7490  0.9270
  822SOL    HW212436   5.393   3.432   2.531  0.7442 -0.3685 -1.6949
  823SOL     OW12437   3.460   8.342   0.021 -0.2154  0.0032  0.4950
  823SOL    HW112438   3.413   8.331   0.109  0.7389  0.7933  1.1152
  823SOL    HW212439   3.516   8.261   0.003 -0.3501 -0.1255  0.6554
  824SOL     OW12440   3.805   5.222   1.015 -0.0297 -0.0031  0.1305
  824SOL    HW112441   3.835   5.212   1.110 -0.7064 -0.7379  0.2743
  824SOL    HW212442   3.862   5.166   0.956 -0.1100 -0.1575  0.1998
  825SOL     OW12443   4.282   2.785   2.194 -0.2573  0.1716  0.7122
  825SOL    HW112444   4.189   2.810   2.221  0.2465  0.5896  2.1075
  825SOL    HW212445   4.317   2.716   2.257 -0.5399 -1.8757 -1.3352
  826SOL     OW12446   2.489   8.006   0.456 -0.0385  0.0179 -0.4362
  826SOL    HW112447   2.480   8.106   0.462  0.9000 -0.0239  2.0563
  826SOL    HW212448   2.407   7.964   0.494  0.4250 -0.1709  0.3597
  827SOL     OW12449   1.852   3.091   0.913  0.3178  0.4162  0.2807
  827SOL    HW112450   1.825   2.995   0.917 -0.4615  0.6312  0.3151
  827SOL    HW212451   1.885   3.113   0.821 -0.5624  0.3904 -0.0449
  828SOL     OW12452   1.066   2.781   0.295  0.0101 -0.4094 -0.3486
  828SOL    HW112453   0.970   2.802   0.281  0.4377  2.0875  0.0466
  828SOL    HW212454   1.087   2.788   0.393  0.8866  0.6065 -0.5935
  829SOL     OW12455   3.434   0.793   2.497  0.2559 -0.9094 -0.0132
  829SOL    HW112456   3.388   0.748   2.421  1.0831  0.1470 -1.1423
  829SOL    HW212457   3.366   0.816   2.568 -0.8000 -0.2702 -1.2166
  830SOL     OW12458   3.822   4.894   2.333  0.8946 -0.0334  0.0672
  830SOL    HW112459   3.911   4.910   2.292  0.9919 -0.3547  0.1467
  830SOL    HW212460   3.750   4.914   2.267  1.0500 -0.5494 -0.2609
  831SOL     OW12461   4.140   1.196   1.685 -0.4483  0.6948  0.6267
  831SOL    HW112462   4.228   1.189   1.733 -0.0065 -0.1890 -0.2975
  831SOL    HW212463   4.089   1.110   1.696 -0.8845  0.9416  0.5565
  832SOL     OW12464   4.688   1.980   0.004 -0.6436  0.1097 -0.7548
  832SOL    HW112465   4.618   1.918   0.041 -2.3448  1.3899 -1.7557
  832SOL    HW212466   4.777   1.935   0.007 -1.3993 -1.3315  1.1010
  833SOL     OW12467   3.203   5.540   1.294  0.6620 -0.3499 -0.4043
  833SOL    HW112468   3.181   5.461   1.237 -2.3185 -0.4689  0.7707
  833SOL    HW212469   3.186   5.624   1.243 -1.0189 -0.4679 -0.0888
  834SOL     OW12470   2.028   8.392   2.106 -0.0907 -0.3644  0.1468
  834SOL    HW112471   2.019   8.293   2.095  1.1046 -0.3739 -0.7930
  834SOL    HW212472   2.060   8.432   2.021 -2.0756  1.0390  0.0461
  835SOL     OW12473   2.328   8.545   1.346 -0.3174 -0.7171  0.3142
  835SOL    HW112474   2.341   8.600   1.429 -0.1195  0.4224 -0.4610
  835SOL    HW212475   2.415   8.535   1.298 -0.6636 -0.3415 -0.3953
  836SOL     OW12476   5.249   3.887   0.941  0.3836 -0.8405 -0.7922
  836SOL    HW112477   5.201   3.874   0.854 -0.6726  1.3405 -0.5790
  836SOL    HW212478   5.346   3.901   0.923  0.2440 -0.8948 -1.6015
  837SOL     OW12479   2.897   4.395   0.092  0.2762  0.1888 -0.1259
  837SOL    HW112480   2.873   4.310   0.045 -1.8090  0.5110  0.3045
  837SOL    HW212481   2.858   4.393   0.184  0.0577  1.6814 -0.1841
  838SOL     OW12482   5.647   3.608   0.118 -0.1353 -0.3496 -0.3915
  838SOL    HW112483   5.657   3.602   0.217 -2.1397  1.5980 -0.0234
  838SOL    HW212484   5.704   3.683   0.083 -0.6630  0.0238 -0.4670
  839SOL     OW12485   3.856   0.677   1.626 -0.3768 -0.2957  0.2545
  839SOL    HW112486   3.879   0.775   1.628  0.0934 -0.4170  1.9792
  839SOL    HW212487   3.842   0.648   1.532  1.6776  0.9299 -0.4693
  840SOL     OW12488   2.076   4.279   1.678  0.1529 -0.3572  0.4303
  840SOL    HW112489   2.013   4.350   1.648  0.8973  0.0799 -0.1344
  840SOL    HW212490   2.045   4.190   1.645  1.1586  0.1614 -2.0218
  841SOL     OW12491   4.880   3.474   1.392  0.1323  0.3660  0.3601
  841SOL    HW112492   4.873   3.532   1.473 -1.1483  2.8698 -1.4764
  841SOL    HW212493   4.952   3.509   1.333 -1.1893  0.5863 -1.1523
  842SOL     OW12494   4.209   4.615   0.085 -0.0172 -0.0855  0.0334
  842SOL    HW112495   4.207   4.670   0.001 -1.0383 -0.0189  0.0958
  842SOL    HW212496   4.156   4.531   0.071  0.8115 -0.6425  0.2278
  843SOL     OW12497   3.391   7.311   2.161 -0.0082  0.8841  0.1571
  843SOL    HW112498   3.398   7.229   2.219 -1.6775  0.2767 -0.4682
  843SOL    HW212499   3.328   7.376   2.203 -0.8522  0.6456 -0.7412
  844SOL     OW12500   3.362   3.317   0.522 -0.3264 -0.0547 -0.1722
  844SOL    HW112501   3.336   3.281   0.433 -1.7359 -2.0611  0.9967
  844SOL    HW212502   3.453   3.282   0.547  0.1687  0.6954 -0.9019
  845SOL     OW12503   9.769   5.542   1.565  0.5330  0.5853 -0.6178
  845SOL    HW112504   9.836   5.602   1.520  0.9550  1.4636  1.1664
  845SOL    HW212505   9.679   5.584   1.562  1.0216  1.8934  1.6203
  846SOL     OW12506   4.932   5.172   0.483  0.6371  0.1315  0.2052
  846SOL    HW112507   4.954   5.265   0.456 -1.4870  0.1205 -1.6230
  846SOL    HW212508   4.921   5.115   0.401  2.3647 -1.8538  1.2983
  847SOL     OW12509   2.951   1.022   0.512 -0.0161  0.0223  0.1838
  847SOL    HW112510   2.927   0.926   0.529  0.0234 -0.0960 -0.4113
  847SOL    HW212511   2.884   1.081   0.557 -1.0332 -0.3037 -0.8867
  848SOL     OW12512   4.093   8.736   0.305  0.3443  0.2501 -0.3307
  848SOL    HW112513   4.085   8.703   0.400  0.5919 -1.1219 -0.7669
  848SOL    HW212514   4.189   8.752   0.284  0.3040  0.4089 -0.3873
  849SOL     OW12515   5.304   3.195   1.360  0.0285  0.4262  0.5063
  849SOL    HW112516   5.357   3.226   1.281 -1.9118 -0.3384 -1.1414
  849SOL    HW212517   5.359   3.133   1.415  0.9783 -0.0453 -0.9453
  850SOL     OW12518   1.596   4.942   1.768  0.0240 -0.2775 -0.9688
  850SOL    HW112519   1.515   4.889   1.744 -0.1448 -0.6253  0.3102
  850SOL    HW212520   1.676   4.882   1.768 -0.0847 -0.4357 -0.0373
  851SOL     OW12521   4.233   8.528   0.999  0.4352  0.0683  0.0749
  851SOL    HW112522   4.222   8.532   1.099 -1.3974  0.1929 -0.1123
  851SOL    HW212523   4.190   8.608   0.958  0.1541 -0.5801 -0.8959
  852SOL     OW12524   2.747   5.447   1.319 -0.4224 -0.0785  0.0334
  852SOL    HW112525   2.813   5.509   1.277  0.4092 -0.0538  1.3485
  852SOL    HW212526   2.690   5.405   1.248  1.8882 -1.1283 -1.2638
  853SOL     OW12527   1.253   5.949   0.666 -0.4566 -0.6213  0.3308
  853SOL    HW112528   1.303   6.024   0.623 -0.6376 -0.7063 -0.0334
  853SOL    HW212529   1.249   5.964   0.765  0.9648 -1.0170  0.4609
  854SOL     OW12530   3.505   3.970   2.524 -0.5227 -0.1551  0.4764
  854SOL    HW112531   3.528   3.887   2.576 -0.4147  0.4635  1.4236
  854SOL    HW212532   3.466   4.038   2.586 -1.4663  0.1699 -0.4684
  855SOL     OW12533   4.029   9.989   0.536 -0.7753 -0.5138  0.0355
  855SOL    HW112534   3.946   9.941   0.508 -0.7411 -0.7075  0.2597
  855SOL    HW212535   4.080  10.018   0.455  0.1868 -2.5831 -0.1365
  856SOL     OW12536   1.437   7.066   0.699 -0.9163 -0.2154  0.3143
  856SOL    HW112537   1.385   7.048   0.616  0.0037 -0.5423 -0.2005
  856SOL    HW212538   1.504   7.139   0.682  0.4451 -1.4587  0.2753
  857SOL     OW12539   4.015   2.812   0.427 -0.4752 -0.0050 -0.1910
  857SOL    HW112540   4.097   2.768   0.462  0.5333  2.4799  0.7273
  857SOL    HW212541   4.031   2.843   0.333  0.1474  1.6471  0.4351
  858SOL     OW12542   1.140   6.194   2.276 -0.1745  0.0626 -0.4439
  858SOL    HW112543   1.138   6.248   2.360 -1.2333  2.4775 -1.9824
  858SOL    HW212544   1.048   6.162   2.254  0.4177 -2.3547  0.3829
  859SOL     OW12545   3.650   3.624   1.178 -0.1500  0.0258  0.2660
  859SOL    HW112546   3.658   3.661   1.271  1.2063 -0.0956  0.2087
  859SOL    HW212547   3.638   3.524   1.183  3.6685 -0.4917  0.2440
  860SOL     OW12548   2.174   2.187   2.473  0.4450 -0.2050 -0.4023
  860SOL    HW112549   2.105   2.142   2.530  1.3888 -0.6829  0.3784
  860SOL    HW212550   2.197   2.276   2.513  1.6474 -0.8606  0.3831
  861SOL     OW12551   3.714   2.401   0.445 -0.5941 -0.0381 -0.0610
  861SOL    HW112552   3.759   2.416   0.533  0.8485 -1.0001 -0.6046
  861SOL    HW212553   3.778   2.424   0.371 -1.4892 -0.0694 -0.8509
  862SOL     OW12554   2.103   6.777   0.109  0.0276  0.5831  0.0643
  862SOL    HW112555   2.163   6.806   0.034  1.6715  1.1948  1.5646
  862SOL    HW212556   2.055   6.856   0.146 -1.3635  0.1657 -0.8096
  863SOL     OW12557   4.756   4.832   1.971  0.0440  0.3523  0.0709
  863SOL    HW112558   4.789   4.739   1.955 -2.0075 -0.6107  1.2268
  863SOL    HW212559   4.787   4.892   1.896  0.1759 -1.5735 -1.4527
  864SOL     OW12560   1.624   3.165   0.389  0.8490  0.6068  0.3843
  864SOL    HW112561   1.586   3.148   0.299  2.6529  0.8327 -0.4365
  864SOL    HW212562   1.551   3.160   0.458 -0.5056  0.3206 -1.0561
  865SOL     OW12563   3.662   9.611   1.936  0.2963  0.0014 -0.4811
  865SOL    HW112564   3.590   9.576   1.997  2.1206 -0.2491  1.5723
  865SOL    HW212565   3.709   9.534   1.892  1.2644  0.0305  0.4849
  866SOL     OW12566   1.498   2.544   1.928 -0.1960  0.3778  0.3512
  866SOL    HW112567   1.555   2.477   1.977  1.2096  0.9033 -0.5362
  866SOL    HW212568   1.550   2.628   1.914 -1.5484  1.2354  0.4068
  867SOL     OW12569   3.260   1.166   0.866 -0.4310  0.0228 -0.8230
  867SOL    HW112570   3.226   1.082   0.909 -0.0829  0.3723  0.1445
  867SOL    HW212571   3.271   1.237   0.935 -0.4601  0.7886 -1.5982
  868SOL     OW12572   3.961   5.597   0.926 -0.2483 -0.9569  0.0565
  868SOL    HW112573   3.973   5.579   1.024 -0.9580 -2.0428 -0.0327
  868SOL    HW212574   3.885   5.541   0.892  0.1934 -0.8207 -1.1810
  869SOL     OW12575   2.581   2.426   0.735  0.3088 -0.2104  0.0479
  869SOL    HW112576   2.538   2.393   0.652 -0.4278 -1.1399  0.7894
  869SOL    HW212577   2.580   2.526   0.736  1.0174 -0.1709 -1.4057
  870SOL     OW12578   3.627   7.638   1.218 -0.1699 -0.3147  0.2392
  870SOL    HW112579   3.579   7.667   1.136 -0.0191  0.7588  0.5145
  870SOL    HW212580   3.683   7.557   1.198 -0.0162  0.0284 -0.7511
  871SOL     OW12581   9.954   4.774   0.746  0.0686 -0.0334  0.0419
  871SOL    HW112582   9.923   4.736   0.659 -1.0792 -1.9523  1.2668
  871SOL    HW212583  10.050   4.752   0.760  0.2290  0.1863 -0.6628
  872SOL     OW12584   4.564  10.109   2.436  0.2061  0.0589  0.1049
  872SOL    HW112585   4.492  10.089   2.370  0.2890  0.2914 -0.0567
  872SOL    HW212586   4.543  10.064   2.523  0.4981 -0.8941 -0.3165
  873SOL     OW12587   1.473   5.975   1.168 -0.2547  1.0658 -0.5965
  873SOL    HW112588   1.537   6.023   1.109 -0.1304  0.6782 -0.7803
  873SOL    HW212589   1.440   5.893   1.121  0.5269  0.2701  0.2242
  874SOL     OW12590   2.706   4.984   1.969  0.2080  0.3053  0.2224
  874SOL    HW112591   2.743   4.989   1.877 -0.7123  1.2167 -0.1032
  874SOL    HW212592   2.612   4.950   1.966  0.4886 -0.5633  0.9106
  875SOL     OW12593   4.524   4.849   0.823 -0.3010  0.6230  0.3101
  875SOL    HW112594   4.474   4.869   0.739  1.5181  0.1315 -0.9267
  875SOL    HW212595   4.618   4.822   0.800  0.4128  1.1255  2.5407
  876SOL     OW12596   3.063   3.744   1.797 -0.1372 -0.1976 -0.2573
  876SOL    HW112597   2.985   3.805   1.782 -0.6334 -0.5553  0.8488
  876SOL    HW212598   3.062   3.710   1.891  2.0948  0.8227  0.1674
  877SOL     OW12599   2.687   8.866   2.562  0.2452 -0.4611 -0.1756
  877SOL    HW112600   2.753   8.833   2.494 -0.3517  0.1172 -1.0459
  877SOL    HW212601   2.692   8.966   2.568  0.7630 -0.5520  1.1219
  878SOL     OW12602   3.432   3.478   1.489 -0.0602  0.0995  0.3344
  878SOL    HW112603   3.395   3.544   1.555  1.5750 -0.4290  1.8441
  878SOL    HW212604   3.368   3.467   1.413 -1.9654  0.8227  1.7740
  879SOL     OW12605   1.290   7.262   0.024 -0.2116  0.0912  0.2338
  879SOL    HW112606   1.264   7.170   0.054 -1.6943 -0.3865 -2.3757
  879SOL    HW212607   1.259   7.277  -0.070 -0.6494  3.5314  0.8464
  880SOL     OW12608   3.334   9.155   0.908 -0.0355 -0.0473  0.0910
  880SOL    HW112609   3.399   9.183   0.837 -1.5775 -1.7534 -2.0503
  880SOL    HW212610   3.278   9.233   0.935 -0.5066  0.2509 -1.7253
  881SOL     OW12611   2.609   2.716   0.681  0.1435 -0.3044 -0.9404
  881SOL    HW112612   2.637   2.716   0.777  0.5553 -0.8992 -1.0633
  881SOL    HW212613   2.585   2.810   0.655  0.8837  0.0162 -0.5086
  882SOL     OW12614   4.863   5.113   0.749  0.1055  0.5793  0.1928
  882SOL    HW112615   4.892   5.111   0.653 -1.7801  0.2153 -0.4053
  882SOL    HW212616   4.931   5.068   0.806  0.9421  0.2374 -1.0582
  883SOL     OW12617   4.709   5.074   0.045  0.1711  0.1451  0.4087
  883SOL    HW112618   4.676   5.141   0.111 -0.3009  0.0295  0.2946
  883SOL    HW212619   4.685   5.103  -0.047  1.7712  0.8490  0.1943
  884SOL     OW12620   4.331   4.215   1.014  0.4653  0.6193  0.3441
  884SOL    HW112621   4.386   4.168   1.083  0.7472 -0.4927 -0.6224
  884SOL    HW212622   4.299   4.149   0.946 -1.5362  1.3573  0.5347
  885SOL     OW12623   3.641   3.955   0.239 -1.2222  0.0916  1.1764
  885SOL    HW112624   3.616   3.884   0.173 -2.7927 -0.4298  2.2997
  885SOL    HW212625   3.615   3.925   0.331  1.0151  0.7706  2.0561
  886SOL     OW12626   3.480   5.651   1.936 -0.3966  0.3519  0.2467
  886SOL    HW112627   3.459   5.654   2.033  2.9713  1.9180  1.0158
  886SOL    HW212628   3.459   5.740   1.894  0.1951  0.4002  0.0385
  887SOL     OW12629   3.177   0.728   0.393  0.4003  0.3154  0.3991
  887SOL    HW112630   3.194   0.749   0.489  2.1666  2.1721 -0.2816
  887SOL    HW212631   3.242   0.779   0.336 -1.6455  0.4487 -1.8714
  888SOL     OW12632   4.025   8.490   0.198 -0.6231  0.2229 -0.0457
  888SOL    HW112633   4.067   8.428   0.265 -1.7631 -0.4016  0.1107
  888SOL    HW212634   4.049   8.585   0.220  3.3708 -0.2760 -1.8542
  889SOL     OW12635   2.800   1.646   1.496  0.5774  0.0913  0.4234
  889SOL    HW112636   2.821   1.660   1.593  0.1993  1.6973  0.2894
  889SOL    HW212637   2.708   1.608   1.487  0.8545 -0.6551  0.7183
  890SOL     OW12638   2.257   0.390   0.936  0.3394 -0.0715  0.4412
  890SOL    HW112639   2.341   0.406   0.989 -0.5936  1.2321  1.5366
  890SOL    HW212640   2.177   0.410   0.992 -0.6987 -0.1212 -0.9920
  891SOL     OW12641   3.305   9.602   0.543  0.0309  0.2076  0.5903
  891SOL    HW112642   3.245   9.586   0.465  0.2554 -2.5374  0.9413
  891SOL    HW212643   3.327   9.700   0.548 -0.0410  0.4514 -2.7175
  892SOL     OW12644   3.857   2.128   2.440 -0.4055  0.0924 -0.0983
  892SOL    HW112645   3.775   2.112   2.495 -0.0115 -2.7250 -0.2358
  892SOL    HW212646   3.882   2.043   2.394  0.7962  1.7516 -2.5532
  893SOL     OW12647  10.059   4.788   2.561 -0.1931  0.6839  0.0705
  893SOL    HW112648  10.121   4.829   2.628  1.0970  0.0797 -0.7169
  893SOL    HW212649  10.057   4.845   2.479 -0.4428  0.5471 -0.0167
  894SOL     OW12650  10.450   5.678   1.646 -0.2684  0.0780 -0.1108
  894SOL    HW112651  10.509   5.663   1.726  0.4077 -1.3500 -0.8685
  894SOL    HW212652  10.358   5.701   1.677 -0.0413 -0.5823  1.0872
  895SOL     OW12653   2.352   8.909   1.581  0.3935 -0.2347 -0.1082
  895SOL    HW112654   2.383   8.961   1.502 -0.0965 -1.0463 -0.8383
  895SOL    HW212655   2.305   8.970   1.645  1.1087  0.4855 -0.2666
  896SOL     OW12656   5.278   3.266   1.013 -0.3165 -0.2818 -0.0766
  896SOL    HW112657   5.195   3.271   1.069  0.8301  1.0282  1.5922
  896SOL    HW212658   5.258   3.224   0.925 -2.9552  0.8778 -0.0610
  897SOL     OW12659   1.974   6.103   2.239  0.3464 -0.2539 -0.0653
  897SOL    HW112660   1.974   6.177   2.172 -0.0857  0.6774  0.9646
  897SOL    HW212661   1.986   6.016   2.191 -0.5353  0.3448 -1.4134
  898SOL     OW12662   2.270   2.022   1.163 -0.2105 -0.3955  0.0502
  898SOL    HW112663   2.329   1.943   1.178  1.2470  0.7967  0.7796
  898SOL    HW212664   2.319   2.090   1.108 -1.3228  0.1510 -0.2801
  899SOL     OW12665   1.961   5.322   2.639 -0.2325  0.3322 -0.1154
  899SOL    HW112666   2.001   5.236   2.670 -0.2959  0.6371  0.8166
  899SOL    HW212667   1.873   5.304   2.594 -0.5798 -0.0266  0.6948
  900SOL     OW12668   4.784   4.005   0.731  0.5090  0.0019 -0.4043
  900SOL    HW112669   4.837   4.088   0.746  0.4493 -0.1017  0.3962
  900SOL    HW212670   4.731   4.014   0.647  0.1355  0.9656 -0.0735
  901SOL     OW12671   1.298   3.264   1.781 -0.1238 -0.2870  0.1572
  901SOL    HW112672   1.205   3.233   1.760 -0.3360 -0.2835  1.0488
  901SOL    HW212673   1.354   3.260   1.699 -0.4073 -2.1299  0.0314
  902SOL     OW12674   4.097   1.970   2.593 -0.2091 -0.1472  0.4347
  902SOL    HW112675   4.013   2.004   2.550 -0.3054 -0.0750  0.6806
  902SOL    HW212676   4.076   1.931   2.682 -0.8577 -5.2604 -1.7775
  903SOL     OW12677   1.061   6.273   0.942  0.4785 -0.1973 -0.7516
  903SOL    HW112678   1.150   6.295   0.902  1.3378 -0.6204  0.8794
  903SOL    HW212679   1.019   6.356   0.979  1.4663 -0.4147  0.9355
  904SOL     OW12680   4.022  10.172   0.738 -0.0733 -0.1424  0.0047
  904SOL    HW112681   4.007  10.119   0.654 -0.1955  0.8699 -0.6191
  904SOL    HW212682   4.026  10.110   0.816  1.1990 -1.2106 -0.8804
  905SOL     OW12683   2.148   4.806   1.852  0.5187 -0.3189  0.7061
  905SOL    HW112684   2.090   4.728   1.873  0.0965 -1.1207 -3.0864
  905SOL    HW212685   2.096   4.891   1.866  0.3183 -0.7550  2.8019
  906SOL     OW12686   4.014   2.498   2.020 -0.0065  0.1400  0.0808
  906SOL    HW112687   3.971   2.585   2.045  0.1512  0.1298  0.4042
  906SOL    HW212688   4.076   2.470   2.094  0.7688  0.3040 -0.5009
  907SOL     OW12689   3.914   0.920   2.522 -0.2711 -0.4557 -0.2423
  907SOL    HW112690   3.947   0.995   2.580  0.5557 -2.1714  1.5519
  907SOL    HW212691   3.828   0.886   2.560 -1.1297  0.1738 -1.5947
  908SOL     OW12692   4.949   2.314   1.377  0.2365  0.8104  0.2384
  908SOL    HW112693   4.876   2.360   1.327 -0.6247 -0.8519 -0.0738
  908SOL    HW212694   4.955   2.219   1.347  1.5813  0.5468  1.2935
  909SOL     OW12695   2.176   2.277   0.157  0.3069 -0.7038  0.1416
  909SOL    HW112696   2.157   2.192   0.206  0.5709 -0.0535  1.3949
  909SOL    HW212697   2.091   2.329   0.147  0.6979  0.3801  2.2592
  910SOL     OW12698   3.960   2.530   0.614 -0.1682 -0.4401  0.3157
  910SOL    HW112699   3.893   2.604   0.619 -1.1461 -1.3237  0.4325
  910SOL    HW212700   4.049   2.567   0.587 -0.9243  0.5942 -0.7725
  911SOL     OW12701   2.431   3.779   1.497  0.0946 -0.0283  0.3869
  911SOL    HW112702   2.367   3.808   1.425 -0.5074  0.4890  1.1261
  911SOL    HW212703   2.511   3.839   1.497  0.5028 -0.5674 -0.4245
  912SOL     OW12704   1.213   6.628   1.052  0.4770  0.4203  0.0817
  912SOL    HW112705   1.244   6.554   1.111  1.0060 -0.0061 -0.7310
  912SOL    HW212706   1.224   6.715   1.100 -1.6663 -0.1467  1.6555
  913SOL     OW12707   2.558   8.536   0.513  0.0238  0.5282 -0.1445
  913SOL    HW112708   2.488   8.589   0.560 -0.8192  0.0160 -0.7970
  913SOL    HW212709   2.648   8.560   0.548 -0.2920  2.7918 -0.7872
  914SOL     OW12710   3.912  10.135   1.290  0.2033  0.0720  0.0793
  914SOL    HW112711   3.890  10.041   1.316  1.1645 -0.2001 -0.0768
  914SOL    HW212712   3.959  10.181   1.365  0.5441  0.1475 -0.1810
  915SOL     OW12713   1.964   4.992   1.934  0.0912 -0.2308 -0.7832
  915SOL    HW112714   1.939   5.068   1.875  1.2384 -0.5314 -1.6801
  915SOL    HW212715   1.887   4.929   1.941 -0.6348  0.6661 -0.5724
  916SOL     OW12716   4.721   4.185   1.580  0.2481  0.1407  0.2193
  916SOL    HW112717   4.656   4.114   1.553 -0.4630  0.2588  1.6127
  916SOL    HW212718   4.811   4.143   1.596 -0.3400 -0.5459  1.7274
  917SOL     OW12719   3.327   5.232   2.456  0.2784  0.1923 -0.2736
  917SOL    HW112720   3.354   5.265   2.546 -0.4168 -0.5165  0.2104
  917SOL    HW212721   3.261   5.295   2.415 -1.0988 -0.5932  0.6757
  918SOL     OW12722   2.951   1.062   1.209 -0.1207 -0.1922  0.4127
  918SOL    HW112723   2.887   1.082   1.135 -0.8487  0.4155  1.1930
  918SOL    HW212724   2.900   1.039   1.292  0.6892 -1.0000  0.6875
  919SOL     OW12725   4.005   1.101   0.063  0.6517 -0.4355  0.5311
  919SOL    HW112726   3.948   1.170   0.106 -1.0087 -0.2837 -1.7950
  919SOL    HW212727   4.048   1.045   0.133 -0.3196  1.0819  2.3908
  920SOL     OW12728   0.809   4.768   0.483  0.5008 -0.0530  0.2403
  920SOL    HW112729   0.816   4.854   0.533  1.2454 -0.3737  0.6910
  920SOL    HW212730   0.765   4.699   0.541 -1.8725  0.5464 -0.7951
  921SOL     OW12731   3.355   0.881   0.258 -0.2215 -0.2482  0.3120
  921SOL    HW112732   3.376   0.978   0.252 -0.2500 -0.1748  1.2795
  921SOL    HW212733   3.424   0.836   0.315 -0.7939 -0.6026  0.7358
  922SOL     OW12734   2.999   0.536   1.007 -0.2777 -0.2483 -0.8014
  922SOL    HW112735   3.054   0.487   1.074 -1.8805 -0.8139  0.1290
  922SOL    HW212736   3.058   0.569   0.933  1.2876 -0.8526  0.1527
  923SOL     OW12737   4.798   1.950   2.181  0.1122  0.0665  0.0443
  923SOL    HW112738   4.794   1.851   2.165  0.5547 -0.1941  1.4368
  923SOL    HW212739   4.882   1.971   2.231  0.1053  1.1767 -0.4073
  924SOL     OW12740   3.290   6.048   1.385  0.2618  0.2539  0.4548
  924SOL    HW112741   3.370   5.991   1.398  1.0249  0.8235 -1.5873
  924SOL    HW212742   3.293   6.125   1.449  1.4574  0.3968  0.2303
  925SOL     OW12743   0.873   4.706   1.506  0.0061  0.5695  0.1357
  925SOL    HW112744   0.775   4.698   1.526  0.0188  1.7222  0.6371
  925SOL    HW212745   0.889   4.682   1.410 -0.7815  0.5268  0.0133
  926SOL     OW12746   4.899   0.893   1.015 -0.1560  0.5132 -0.0952
  926SOL    HW112747   4.842   0.895   0.933  0.9382  5.7418 -0.9046
  926SOL    HW212748   4.853   0.942   1.089  1.1756  0.5212  0.7490
  927SOL     OW12749   2.397   9.965   0.393  0.2176  0.0191 -0.2088
  927SOL    HW112750   2.395   9.951   0.294 -0.5137 -0.9759 -0.0667
  927SOL    HW212751   2.439   9.885   0.437 -1.3240 -0.4546  0.4239
  928SOL     OW12752   3.876   3.381   1.993 -0.0705  0.3260 -0.8750
  928SOL    HW112753   3.777   3.371   1.983  0.1476 -1.0435 -1.7408
  928SOL    HW212754   3.910   3.315   2.060 -0.0806  2.5550  1.4137
  929SOL     OW12755  10.182   3.809   1.186 -0.4049 -0.0539  0.2493
  929SOL    HW112756  10.261   3.775   1.237 -0.4436 -0.4218  0.0724
  929SOL    HW212757  10.182   3.767   1.095 -0.8721 -0.1494  0.2942
  930SOL     OW12758   4.181   1.693   2.092  0.1095  0.1879  0.0624
  930SOL    HW112759   4.088   1.728   2.096 -0.1828 -0.5108 -0.4306
  930SOL    HW212760   4.188   1.609   2.146  0.2619 -0.1766 -0.5181
  931SOL     OW12761  10.299   4.596   0.980 -0.1802  0.0595  0.2637
  931SOL    HW112762  10.277   4.669   0.916  1.8275 -1.2236 -1.9347
  931SOL    HW212763  10.238   4.518   0.964 -0.6173  0.2707  0.8820
  932SOL     OW12764   5.991   3.065   1.623  0.1136  0.3764  0.3237
  932SOL    HW112765   5.899   3.026   1.628 -0.4884  1.7998  0.8527
  932SOL    HW212766   6.054   2.999   1.582 -1.7538  0.4733 -2.8632
  933SOL     OW12767   2.648   1.847   2.595  0.1536  0.4693  0.1209
  933SOL    HW112768   2.674   1.906   2.518  2.3014  1.3899  1.4988
  933SOL    HW212769   2.671   1.752   2.573 -1.0613  0.4538 -1.1402
  934SOL     OW12770   3.574   4.478   1.226  0.3993  0.1376 -0.2666
  934SOL    HW112771   3.645   4.528   1.176  0.3181 -0.6768 -1.2064
  934SOL    HW212772   3.504   4.446   1.161 -0.8518  0.9795  0.6580
  935SOL     OW12773   2.553   4.767   1.383 -0.0937  0.6763  0.0688
  935SOL    HW112774   2.476   4.792   1.324 -0.5773 -0.2201  0.3121
  935SOL    HW212775   2.555   4.827   1.462 -2.2345 -1.0515  1.4858
  936SOL     OW12776   2.203   5.643   0.662  0.1067 -0.2606 -1.0683
  936SOL    HW112777   2.192   5.696   0.577  0.3527 -0.7770 -1.4239
  936SOL    HW212778   2.207   5.546   0.640  4.0409 -0.2098 -0.8649
  937SOL     OW12779   2.082   8.182   2.494  0.3133  0.3803 -0.8164
  937SOL    HW112780   2.151   8.254   2.487  1.1103 -0.4839 -2.0091
  937SOL    HW212781   2.058   8.150   2.403 -0.9750  0.0092 -0.3573
  938SOL     OW12782   2.367   7.375   1.318 -0.5963 -0.5349 -0.0575
  938SOL    HW112783   2.369   7.472   1.341 -0.8398  0.4919 -4.0337
  938SOL    HW212784   2.461   7.339   1.318 -0.3558  0.0889 -0.0955
  939SOL     OW12785   4.121   3.822   2.205 -0.3885  0.1618  0.1528
  939SOL    HW112786   4.204   3.870   2.234 -1.1531  1.0329  0.9510
  939SOL    HW212787   4.048   3.841   2.270 -1.1850 -0.6874 -0.4878
  940SOL     OW12788   3.046   5.462   1.962  0.0295  0.7491  0.2975
  940SOL    HW112789   2.991   5.380   1.945 -2.2526  2.0771  1.0040
  940SOL    HW212790   3.124   5.463   1.899 -0.6924 -1.2306 -0.6914
  941SOL     OW12791   6.012   4.423   0.579  0.5980 -0.0011 -0.2566
  941SOL    HW112792   6.052   4.499   0.629 -0.8622 -0.0862  1.0832
  941SOL    HW212793   6.007   4.342   0.638  0.7354 -0.7019 -1.1862
  942SOL     OW12794   2.404   4.964   1.991 -0.9149  0.0210 -0.2930
  942SOL    HW112795   2.350   4.891   1.948  1.1584 -2.2036  0.7824
  942SOL    HW212796   2.382   4.968   2.088  1.0196 -1.1426  0.2292
  943SOL     OW12797   2.235   3.048   1.731  0.0164 -0.8022  0.8903
  943SOL    HW112798   2.193   3.036   1.822  0.0379 -2.8839  0.6357
  943SOL    HW212799   2.204   2.976   1.670  0.9459 -0.1010 -0.4375
  944SOL     OW12800   4.446   9.141   0.927  0.4319  0.1463  0.2643
  944SOL    HW112801   4.422   9.177   1.017  1.1102  0.2714  0.3948
  944SOL    HW212802   4.542   9.159   0.908  0.8914 -1.8861  0.4896
  945SOL     OW12803  10.389   5.407   1.371 -0.2048  0.3080  0.1276
  945SOL    HW112804  10.310   5.466   1.351  0.6018  1.5905  0.6904
  945SOL    HW212805  10.469   5.463   1.389  0.4489 -0.9503  1.2616
  946SOL     OW12806   4.081   0.431   1.685  0.0525  0.4166 -0.0567
  946SOL    HW112807   4.135   0.385   1.754  0.3209  0.9067  0.0617
  946SOL    HW212808   4.101   0.529   1.686 -0.2399  0.4870 -0.5500
  947SOL     OW12809   0.994   4.368   1.337 -0.2079 -0.1853 -0.3716
  947SOL    HW112810   1.076   4.350   1.392  1.6725  2.3153 -2.2265
  947SOL    HW212811   0.999   4.315   1.252 -0.6271 -0.1559 -0.4157
  948SOL     OW12812   1.809   6.829   2.006  0.0159 -0.4194  0.1771
  948SOL    HW112813   1.799   6.769   2.085 -0.9124  0.8449  1.0457
  948SOL    HW212814   1.827   6.922   2.037  0.9694 -0.1445 -1.1416
  949SOL     OW12815   3.651   1.487   0.184 -0.1183 -0.5181  0.2627
  949SOL    HW112816   3.684   1.554   0.117  0.8366 -2.1193 -0.8814
  949SOL    HW212817   3.677   1.516   0.276  1.6307 -0.1022 -0.3530
  950SOL     OW12818   2.743   3.886   0.945 -0.0597  0.2437  0.4186
  950SOL    HW112819   2.772   3.795   0.918  1.6317  1.0091 -0.4432
  950SOL    HW212820   2.791   3.914   1.028 -0.1119  0.5902  0.3374
  951SOL     OW12821   4.827   2.707   2.557 -0.0055 -0.1552 -0.0793
  951SOL    HW112822   4.822   2.765   2.476  1.2594  1.4918  0.9966
  951SOL    HW212823   4.871   2.620   2.533  1.9575  1.0097 -0.7944
  952SOL     OW12824   2.873   4.856   0.107 -0.0211  0.1244  0.3219
  952SOL    HW112825   2.873   4.855   0.207  1.7398 -0.1411  0.3262
  952SOL    HW212826   2.856   4.764   0.073 -0.0137  0.1031  0.3754
  953SOL     OW12827   1.193   2.650   1.034 -0.3525  0.6334  0.1444
  953SOL    HW112828   1.129   2.690   0.969  0.1694  0.1682 -0.6636
  953SOL    HW212829   1.152   2.570   1.078 -0.4459  0.5406 -0.1152
  954SOL     OW12830   4.207   3.122   0.551  0.1650 -0.1082  0.0973
  954SOL    HW112831   4.215   3.221   0.555 -0.4662 -0.0418 -0.2022
  954SOL    HW212832   4.190   3.086   0.643  1.4685 -0.0403  0.3680
  955SOL     OW12833   3.190   6.433   0.628 -0.4811 -0.2417 -0.0539
  955SOL    HW112834   3.122   6.383   0.575 -0.5131  1.3782 -1.6033
  955SOL    HW212835   3.183   6.531   0.607  1.0591  0.1623  1.2107
  956SOL     OW12836   3.200   6.633   2.153 -0.2335  0.3494  0.2905
  956SOL    HW112837   3.295   6.609   2.138  0.0927  1.8417 -0.1590
  956SOL    HW212838   3.148   6.551   2.177  1.6251 -0.1006  2.9753
  957SOL     OW12839   2.659   5.054   0.484  0.5295 -0.3818  0.4358
  957SOL    HW112840   2.642   5.149   0.510 -2.5413 -0.7652 -0.0602
  957SOL    HW212841   2.648   4.995   0.564 -0.8359 -0.6646  0.0489
  958SOL     OW12842   2.094   5.073   2.198 -0.0884 -0.0923 -0.4875
  958SOL    HW112843   2.029   5.148   2.210 -1.8031 -1.3877 -1.3941
  958SOL    HW212844   2.056   5.006   2.134  0.3130 -2.9600  2.1451
  959SOL     OW12845   3.589   3.601   0.312  0.6897 -0.7710  0.6326
  959SOL    HW112846   3.536   3.609   0.397  0.3706 -1.5759  0.5124
  959SOL    HW212847   3.536   3.551   0.244  1.5176 -1.3842  0.4322
  960SOL     OW12848   1.570   2.140   0.958 -0.2393 -0.0878  0.0871
  960SOL    HW112849   1.537   2.149   0.864  0.8305  0.7870 -0.2171
  960SOL    HW212850   1.629   2.060   0.966  2.1330  1.5209 -0.7410
  961SOL     OW12851   3.511   8.178   2.291 -0.0176  0.1630  0.1605
  961SOL    HW112852   3.488   8.143   2.200 -1.8708  1.5338  0.0735
  961SOL    HW212853   3.610   8.191   2.298  0.2787 -1.1794 -1.1927
  962SOL     OW12854   2.258   8.028   1.710  0.0966 -0.0758 -0.2799
  962SOL    HW112855   2.216   7.947   1.669  1.5461  0.2179 -2.4286
  962SOL    HW212856   2.220   8.110   1.668 -0.4657  0.3286  1.0067
  963SOL     OW12857   4.850   1.046   1.582 -0.2170  0.8563 -0.3018
  963SOL    HW112858   4.879   0.978   1.515 -1.6541 -0.0322 -0.0486
  963SOL    HW212859   4.758   1.078   1.558 -0.3727  1.1920  0.7469
  964SOL     OW12860   1.464   3.183   2.541 -0.7310 -0.2967 -0.2069
  964SOL    HW112861   1.562   3.172   2.558 -0.7455 -0.0957  0.0096
  964SOL    HW212862   1.443   3.156   2.448 -0.6092 -1.1744  0.0194
  965SOL     OW12863   4.185   2.438   0.991  0.2589 -0.0929  0.3869
  965SOL    HW112864   4.195   2.377   1.070 -0.8235 -0.6393  0.1141
  965SOL    HW212865   4.095   2.481   0.993  0.8489  1.1691  0.3320
  966SOL     OW12866   3.578  10.015   0.811 -0.3007  0.8224 -0.4330
  966SOL    HW112867   3.636  10.069   0.751 -0.5314  0.1814 -1.2507
  966SOL    HW212868   3.621  10.006   0.901  0.1299  1.6400 -0.5552
  967SOL     OW12869   3.524   2.663   0.925  0.2448 -0.7622 -0.1008
  967SOL    HW112870   3.437   2.628   0.889  0.8455 -1.7388 -0.6101
  967SOL    HW212871   3.524   2.656   1.024 -0.1235 -1.0798 -0.1208
  968SOL     OW12872   2.367   0.497   1.745  0.1776 -0.4766  0.3856
  968SOL    HW112873   2.282   0.525   1.789  0.8214  0.7918  0.8717
  968SOL    HW212874   2.348   0.437   1.668 -1.1653  0.0041  0.3402
  969SOL     OW12875   2.970   4.125   0.615 -0.2396 -0.3051  0.1439
  969SOL    HW112876   3.007   4.035   0.596  1.4537  0.8107 -2.1022
  969SOL    HW212877   2.871   4.125   0.600  0.3092 -0.8006 -3.9962
  970SOL     OW12878   2.388   9.633   1.433 -0.1769 -0.2393  0.0731
  970SOL    HW112879   2.432   9.560   1.484 -1.0301 -1.0800 -0.3601
  970SOL    HW212880   2.307   9.597   1.386 -0.2744  0.8483 -0.6339
  971SOL     OW12881   4.094   1.650   0.321  0.0212  0.2429  0.4148
  971SOL    HW112882   4.076   1.588   0.244 -0.4516  0.6631  0.1810
  971SOL    HW212883   4.186   1.635   0.356 -0.2757 -0.9609  0.6942
  972SOL     OW12884   2.551   2.308   1.309 -0.2138  1.0052  0.1349
  972SOL    HW112885   2.498   2.295   1.225  1.9071 -0.1206 -1.0516
  972SOL    HW212886   2.493   2.287   1.388 -1.2538 -1.2115 -1.1715
  973SOL     OW12887   2.566   9.074   0.434  0.0284  0.3236 -0.0460
  973SOL    HW112888   2.614   9.158   0.406  0.9261  0.2859  1.3376
  973SOL    HW212889   2.618   9.028   0.505 -1.1811 -0.6827  0.2092
  974SOL     OW12890   3.664   8.027   0.478 -0.0847  0.0522 -0.3985
  974SOL    HW112891   3.587   8.089   0.464  0.5889  0.9663 -0.0592
  974SOL    HW212892   3.694   8.032   0.573  0.2678 -0.4551 -0.4822
  975SOL     OW12893   0.640   3.501   1.744  0.3128  0.1152 -0.4052
  975SOL    HW112894   0.657   3.590   1.702 -0.8847  1.7163  2.3749
  975SOL    HW212895   0.726   3.463   1.778  0.6639  0.7698 -0.5558
  976SOL     OW12896   1.094   6.657   1.367  0.0580  0.2898  0.0738
  976SOL    HW112897   1.017   6.595   1.351 -0.6812  1.3196 -0.4443
  976SOL    HW212898   1.060   6.750   1.381  1.2329  0.8583 -0.7210
  977SOL     OW12899   4.514   8.971   1.326 -0.0053  0.0796 -0.2481
  977SOL    HW112900   4.578   9.036   1.285  0.5980 -0.2171  0.2125
  977SOL    HW212901   4.472   8.915   1.254  1.0140 -0.4139 -0.4820
  978SOL     OW12902  10.373   4.092   2.288  0.1085 -0.2877  0.2502
  978SOL    HW112903  10.430   4.109   2.369  1.2467  1.9849 -1.0077
  978SOL    HW212904  10.316   4.172   2.269 -1.3091 -1.4023 -0.2964
  979SOL     OW12905   2.148   9.817   1.189 -0.3592 -0.2344  0.2455
  979SOL    HW112906   2.164   9.744   1.123 -1.1184  0.4616 -0.7467
  979SOL    HW212907   2.086   9.785   1.260 -1.8871 -0.1362 -1.0008
  980SOL     OW12908   1.043   2.950   1.673 -0.1079 -0.3813 -0.3116
  980SOL    HW112909   1.026   2.915   1.581 -0.1105 -1.3242  0.0510
  980SOL    HW212910   1.104   2.888   1.722  1.4555  1.1021 -0.3364
  981SOL     OW12911   4.726   4.299   0.971  0.2200 -0.6193  0.0985
  981SOL    HW112912   4.724   4.231   1.044  1.7834  0.9574  1.6575
  981SOL    HW212913   4.793   4.271   0.901  0.9632 -0.6261  0.8052
  982SOL     OW12914   2.938   8.127   0.760  0.1740 -0.4380 -0.4220
  982SOL    HW112915   2.890   8.115   0.673  0.8573 -0.8742 -0.7377
  982SOL    HW212916   2.872   8.154   0.831 -0.1287  1.6869 -1.4542
  983SOL     OW12917   2.212   5.623   2.055  0.3533  0.3416 -0.6361
  983SOL    HW112918   2.168   5.594   1.970 -0.7279  2.1814 -0.7382
  983SOL    HW212919   2.154   5.599   2.132 -0.5766  2.2233 -0.7263
  984SOL     OW12920   3.461   6.403   0.406  0.2070 -0.8388 -0.0003
  984SOL    HW112921   3.478   6.410   0.504  0.2925 -1.7332  0.0543
  984SOL    HW212922   3.544   6.374   0.359 -0.3178 -2.2428 -0.0991
  985SOL     OW12923   4.060   7.990   0.813  0.2282  0.1943 -0.1673
  985SOL    HW112924   4.011   8.041   0.884  0.5091 -0.5487  0.5614
  985SOL    HW212925   4.120   8.053   0.763  1.3340  0.4192  1.3853
  986SOL     OW12926   1.509   5.698   1.957 -0.8939  0.2662  0.0674
  986SOL    HW112927   1.521   5.624   1.891 -0.7028  0.0280  0.3663
  986SOL    HW212928   1.419   5.740   1.945 -1.6598 -1.0851  0.9765
  987SOL     OW12929   3.419   2.503   2.174  0.1104 -0.3236  0.2248
  987SOL    HW112930   3.456   2.418   2.137  1.1701  0.5169 -0.6920
  987SOL    HW212931   3.488   2.546   2.234 -0.0173  0.3967 -0.1331
  988SOL     OW12932   5.222   1.425   1.463 -0.4038 -0.1855 -0.1892
  988SOL    HW112933   5.317   1.421   1.432 -0.3117  0.7318 -0.0267
  988SOL    HW212934   5.162   1.438   1.384 -0.1345  2.6170  0.0017
  989SOL     OW12935   4.398   8.774   1.126  0.2030  0.4261 -0.5460
  989SOL    HW112936   4.472   8.789   1.060 -0.8366  2.0558 -1.3657
  989SOL    HW212937   4.321   8.833   1.104 -1.0082 -0.5940  0.8522
  990SOL     OW12938   1.763   2.777   2.198  0.6836 -0.2501 -0.2478
  990SOL    HW112939   1.859   2.758   2.179  0.2929 -0.3502 -2.1944
  990SOL    HW212940   1.707   2.747   2.121 -1.0022 -0.9182  1.1952
  991SOL     OW12941   2.591   1.279   2.518  0.1468  0.0283  0.1051
  991SOL    HW112942   2.501   1.282   2.562  0.0879 -1.3486  0.1201
  991SOL    HW212943   2.661   1.263   2.588  0.3999  1.1257  0.0972
  992SOL     OW12944   2.703   8.962   1.132  0.6608 -0.0026 -0.0814
  992SOL    HW112945   2.715   8.870   1.168 -1.7123  0.4821  2.1518
  992SOL    HW212946   2.622   8.965   1.074 -0.3735  1.0386  1.3687
  993SOL     OW12947   1.905   6.907   2.591  0.4864 -0.0067  0.2572
  993SOL    HW112948   2.000   6.926   2.566  0.0604  1.2451 -0.4926
  993SOL    HW212949   1.886   6.948   2.681  1.0120 -1.4110  1.0293
  994SOL     OW12950   3.898   0.881   0.525  0.6718  0.4990  0.1026
  994SOL    HW112951   3.958   0.877   0.605  0.7473 -0.9837 -0.0141
  994SOL    HW212952   3.851   0.793   0.514 -0.3625  1.1450 -0.6974
  995SOL     OW12953   5.334   4.585   0.310 -0.0080 -0.1709 -0.8230
  995SOL    HW112954   5.298   4.596   0.402  1.1944  0.3500 -0.4050
  995SOL    HW212955   5.258   4.578   0.245 -0.8603 -0.6408  0.2090
  996SOL     OW12956   3.135   2.815   2.445  0.9731  0.1347  0.1351
  996SOL    HW112957   3.168   2.868   2.367 -0.5486 -2.2421 -2.2080
  996SOL    HW212958   3.051   2.856   2.480  1.2205  0.7488  0.0124
  997SOL     OW12959   2.243   5.397   0.012  0.1505 -0.1092 -0.4353
  997SOL    HW112960   2.148   5.366   0.025 -0.0596  0.9264  0.5675
  997SOL    HW212961   2.301   5.359   0.083  0.2658  0.1851 -0.3694
  998SOL     OW12962   1.314   6.576   0.293 -0.3235 -0.1520 -0.5212
  998SOL    HW112963   1.405   6.601   0.327 -1.0898 -0.2330  1.6317
  998SOL    HW212964   1.321   6.496   0.234  1.2688  1.1093 -2.1054
  999SOL     OW12965   2.217   8.057   0.938 -0.0332 -0.6467 -0.1915
  999SOL    HW112966   2.289   8.003   0.983  0.6337 -0.5106 -1.0844
  999SOL    HW212967   2.259   8.135   0.890 -0.4103 -2.3781 -3.4568
 1000SOL     OW12968   2.429   4.782   2.357 -0.4544  0.3047 -0.5089
 1000SOL    HW112969   2.527   4.793   2.339 -0.6581  0.9691 -1.2588
 1000SOL    HW212970   2.379   4.857   2.313 -1.2886  0.0309 -0.0336
 1001SOL     OW12971   2.098  10.100   1.373 -0.1472 -0.7842 -0.1926
 1001SOL    HW112972   2.108  10.115   1.275  1.4988 -2.9570 -0.4101
 1001SOL    HW212973   2.076  10.186   1.419  2.2030  0.8826 -2.0796
 1002SOL     OW12974   2.355  10.327   0.274 -0.1208 -0.4844 -0.4059
 1002SOL    HW112975   2.286  10.301   0.342  1.5403 -0.1734  1.4235
 1002SOL    HW212976   2.442  10.345   0.319  0.9661 -0.0349 -2.6016
 1003SOL     OW12977   3.560   1.571   2.483 -0.3331 -0.2307  0.0800
 1003SOL    HW112978   3.636   1.585   2.546  0.3456 -1.0182 -0.5505
 1003SOL    HW212979   3.476   1.557   2.535  0.1372 -0.4067  0.8009
 1004SOL     OW12980  10.540   3.531   0.233 -0.0560 -0.4593 -0.1261
 1004SOL    HW112981  10.565   3.446   0.187 -0.2641 -0.9561  0.6726
 1004SOL    HW212982  10.529   3.604   0.166  1.6158 -0.7034 -0.6832
 1005SOL     OW12983   1.269   2.646   2.035 -0.6319  0.3314 -0.6352
 1005SOL    HW112984   1.361   2.618   2.006 -0.8533  0.5063 -1.5301
 1005SOL    HW212985   1.268   2.660   2.134 -0.2815 -1.9579 -0.2799
 1006SOL     OW12986   2.696   6.194   0.967  0.1856  0.0018  0.1886
 1006SOL    HW112987   2.739   6.265   0.911 -0.7282 -0.0392 -0.5936
 1006SOL    HW212988   2.766   6.145   1.019  1.1335 -0.2789 -1.2933
 1007SOL     OW12989   2.733   6.402   1.283 -0.1390  0.0759 -0.1473
 1007SOL    HW112990   2.685   6.415   1.196 -0.4233 -0.2486 -0.0350
 1007SOL    HW212991   2.785   6.485   1.304 -1.2830  0.7308  0.1395
 1008SOL     OW12992   2.097   3.044   2.335 -0.8952 -0.7074 -0.7641
 1008SOL    HW112993   2.110   3.137   2.302 -0.1605 -1.0527 -1.4436
 1008SOL    HW212994   2.163   3.025   2.407 -1.4399 -0.5073 -0.2010
 1009SOL     OW12995   4.508   0.424   1.965  0.0749 -0.3928  0.2193
 1009SOL    HW112996   4.557   0.337   1.963  1.2336  0.2258  0.9262
 1009SOL    HW212997   4.500   0.455   2.060  2.0834  1.6053 -0.2457
 1010SOL     OW12998   3.779   4.906   1.123  0.0169  0.5200 -0.0881
 1010SOL    HW112999   3.730   4.939   1.203 -0.4460 -0.6997  0.1323
 1010SOL    HW213000   3.877   4.922   1.135 -0.2016  1.9491 -0.0558
 1011SOL     OW13001   5.822   3.660   0.823  0.3265  0.0368  0.7317
 1011SOL    HW113002   5.814   3.727   0.897  0.8691 -0.2968  1.0949
 1011SOL    HW213003   5.755   3.587   0.838 -1.7377  1.5469 -0.7967
 1012SOL     OW13004   2.621   5.788   1.627  0.2415  0.9453 -0.3421
 1012SOL    HW113005   2.534   5.750   1.657  0.0714  1.1161 -0.6197
 1012SOL    HW213006   2.638   5.762   1.532  1.1714 -0.3052  0.1435
 1013SOL     OW13007   3.550   5.585   2.525  0.5276  0.0316 -0.3257
 1013SOL    HW113008   3.558   5.573   2.426  2.6035 -1.2267 -0.0248
 1013SOL    HW213009   3.612   5.523   2.572 -0.1589  0.8777  1.7814
 1014SOL     OW13010   1.772   5.870   0.869 -0.1218 -0.3570 -0.4490
 1014SOL    HW113011   1.783   5.910   0.959  1.2682 -1.4863 -0.0948
 1014SOL    HW213012   1.806   5.934   0.799 -1.2913  0.5556 -0.1885
 1015SOL     OW13013   4.397   5.121   0.097 -0.0434 -0.0849 -0.3167
 1015SOL    HW113014   4.412   5.032   0.055 -0.9957 -0.5877  0.3854
 1015SOL    HW213015   4.474   5.144   0.155 -0.7018 -1.4059  1.1280
 1016SOL     OW13016   2.260   1.886   2.489 -0.4175 -0.2161  0.2136
 1016SOL    HW113017   2.196   1.962   2.501  0.9783  0.9501  0.3996
 1016SOL    HW213018   2.283   1.848   2.579  0.0651  0.1283  0.2339
 1017SOL     OW13019   2.321   9.338   1.339 -0.1599 -0.2815 -0.3280
 1017SOL    HW113020   2.322   9.238   1.337  0.4430 -0.2999  0.5033
 1017SOL    HW213021   2.245   9.372   1.283 -0.2083 -1.1917 -0.8325
 1018SOL     OW13022  10.236   4.174   2.572 -0.0219 -0.1618 -0.3163
 1018SOL    HW113023  10.260   4.240   2.501 -1.6516  0.3131 -0.4373
 1018SOL    HW213024  10.205   4.223   2.654  0.1922 -0.7438  0.1130
 1019SOL     OW13025   2.736   2.266   2.557  0.1951  0.6240 -0.6115
 1019SOL    HW113026   2.661   2.205   2.532 -0.2221  0.8642  0.0323
 1019SOL    HW213027   2.806   2.215   2.607 -1.0722  1.0517  1.6644
 1020SOL     OW13028   3.619  10.135   0.177  0.1809 -0.2283 -0.1586
 1020SOL    HW113029   3.565  10.206   0.133 -0.7149 -0.5385  0.4110
 1020SOL    HW213030   3.684  10.177   0.241  1.4798  0.2168 -1.7374
 1021SOL     OW13031   1.697   3.510   1.934 -0.0780 -0.4915  0.1363
 1021SOL    HW113032   1.754   3.436   1.970 -0.6021 -1.8324 -1.7077
 1021SOL    HW213033   1.712   3.593   1.987  1.3597 -1.6235  1.5365
 1022SOL     OW13034   3.310   1.030   1.728 -0.5088  0.0941  0.0389
 1022SOL    HW113035   3.295   1.072   1.817  0.3579  0.1281  0.1734
 1022SOL    HW213036   3.309   0.931   1.736 -1.4827  0.0942 -0.0939
 1023SOL     OW13037   3.164   0.956   1.026 -0.0837  0.1313 -0.0938
 1023SOL    HW113038   3.088   1.020   1.036  0.2793  0.6974 -0.9326
 1023SOL    HW213039   3.178   0.908   1.113 -2.3663 -1.0703 -0.3456
 1024SOL     OW13040   4.341   1.856   1.855  0.3324 -0.2336  0.1361
 1024SOL    HW113041   4.294   1.788   1.912  0.1863 -0.5293 -0.3413
 1024SOL    HW213042   4.350   1.822   1.762  1.6054 -0.2278  0.2491
 1025SOL     OW13043   3.374   3.008   1.727  0.1873 -0.2697  0.3134
 1025SOL    HW113044   3.300   3.066   1.694  0.6291  0.7658  1.1088
 1025SOL    HW213045   3.410   2.953   1.652 -1.9820 -1.4599  0.1049
 1026SOL     OW13046   0.892   5.435   0.523  0.1857 -0.3478  0.7334
 1026SOL    HW113047   0.874   5.388   0.609  0.6674  1.2137  1.7154
 1026SOL    HW213048   0.954   5.512   0.540  0.2427 -0.0019 -1.0016
 1027SOL     OW13049  10.089   4.044   1.293 -0.7221 -0.0144 -0.3429
 1027SOL    HW113050  10.166   4.067   1.352 -0.9602  1.7132 -0.6844
 1027SOL    HW213051  10.101   3.952   1.256 -0.0295 -0.6870  1.5250
 1028SOL     OW13052   2.653   5.644   0.804  0.6433 -0.5080  0.0395
 1028SOL    HW113053   2.598   5.645   0.887 -0.6939 -1.6314 -0.8185
 1028SOL    HW213054   2.730   5.581   0.815  0.3412 -0.8188  0.3418
 1029SOL     OW13055   3.990   9.187   0.407 -0.0689  0.3295 -0.1612
 1029SOL    HW113056   3.933   9.263   0.376 -0.5521 -0.1876 -0.5711
 1029SOL    HW213057   3.974   9.108   0.347 -2.6605 -1.4039  2.6758
 1030SOL     OW13058   3.451   6.072   2.213 -0.3221  0.6480 -0.1733
 1030SOL    HW113059   3.425   5.992   2.268 -0.1991 -0.0826 -1.1511
 1030SOL    HW213060   3.548   6.066   2.190 -0.4368  0.7997 -0.7029
 1031SOL     OW13061   0.774   3.972   1.762 -0.0897  0.0539  0.7451
 1031SOL    HW113062   0.786   4.006   1.668 -1.3663  3.2333  1.6750
 1031SOL    HW213063   0.863   3.960   1.804  0.5895 -3.0590 -1.3804
 1032SOL     OW13064   3.153   2.899   1.904 -0.1463 -0.5964  0.1112
 1032SOL    HW113065   3.140   2.997   1.916  2.2028 -0.4045  1.4260
 1032SOL    HW213066   3.098   2.849   1.971 -0.0164 -0.1164  0.5713
 1033SOL     OW13067   4.104   9.400   0.716 -0.3571 -0.3210 -0.3471
 1033SOL    HW113068   4.016   9.447   0.730  0.1159  0.6780 -0.7112
 1033SOL    HW213069   4.129   9.352   0.800 -0.1324  1.3042  0.5401
 1034SOL     OW13070   4.317   9.542   2.255  0.1413 -0.1089  0.3949
 1034SOL    HW113071   4.342   9.522   2.349 -0.0630  1.2117  0.7354
 1034SOL    HW213072   4.313   9.641   2.241  0.0868 -0.2878 -0.9752
 1035SOL     OW13073   3.915   4.205   1.721  0.0767 -0.0564 -0.1659
 1035SOL    HW113074   3.925   4.216   1.622 -2.9022  1.1696 -0.3820
 1035SOL    HW213075   3.928   4.294   1.765 -0.5948 -0.2021  0.3362
 1036SOL     OW13076   4.059   1.442   0.104  0.7278 -0.2526  0.1339
 1036SOL    HW113077   3.995   1.404   0.171 -0.5691 -0.2427 -1.0781
 1036SOL    HW213078   4.095   1.368   0.048  0.3177 -0.0267 -0.4279
 1037SOL     OW13079   3.513   2.870   1.539 -0.0718  0.2782 -0.3203
 1037SOL    HW113080   3.596   2.922   1.561  0.7514 -1.7188  1.5043
 1037SOL    HW213081   3.502   2.864   1.440  2.5516 -0.3048 -0.6061
 1038SOL     OW13082  10.096   4.631   0.295 -0.3222 -0.5314 -0.5369
 1038SOL    HW113083  10.051   4.605   0.210 -0.8721 -3.0747  0.4788
 1038SOL    HW213084  10.031   4.682   0.352 -0.8091 -1.1648 -0.5202
 1039SOL     OW13085   2.574   9.401   1.258 -0.2143  0.2681  0.0331
 1039SOL    HW113086   2.636   9.326   1.277 -1.0587 -1.2403 -2.8246
 1039SOL    HW213087   2.484   9.381   1.296 -0.1468  0.3410  0.2301
 1040SOL     OW13088   2.478   2.147   2.517  0.4104  0.2545  0.0360
 1040SOL    HW113089   2.514   2.145   2.424  1.6741  1.1890  0.4811
 1040SOL    HW213090   2.378   2.148   2.515  0.4437  1.5589 -1.3474
 1041SOL     OW13091   1.667   6.382   1.198  0.7896 -0.2209  0.2030
 1041SOL    HW113092   1.623   6.334   1.122 -0.4410  0.7713  0.2869
 1041SOL    HW213093   1.702   6.470   1.167  1.1553 -0.2349  0.5632
 1042SOL     OW13094   4.266   8.742   0.657  0.3173  0.3781 -0.2618
 1042SOL    HW113095   4.226   8.765   0.746 -0.1373 -2.7362  0.3645
 1042SOL    HW213096   4.204   8.682   0.607  1.6317  0.2239 -1.7237
 1043SOL     OW13097   0.879   5.432   2.403  0.1889  0.1346 -0.2065
 1043SOL    HW113098   0.836   5.485   2.477  0.3550 -0.9377  0.6683
 1043SOL    HW213099   0.955   5.379   2.439  1.1299  0.6385 -1.4204
 1044SOL     OW13100   3.308   2.788   1.089 -0.1810 -0.1971  0.6299
 1044SOL    HW113101   3.246   2.709   1.091  1.0387 -1.1691  0.8413
 1044SOL    HW213102   3.326   2.814   0.994 -1.7292  0.7468  0.5901
 1045SOL     OW13103   4.060   9.581   0.951  0.2161 -0.1869  0.5381
 1045SOL    HW113104   4.098   9.673   0.951 -0.3009  0.0304 -0.6883
 1045SOL    HW213105   3.977   9.579   0.896  0.8231 -1.6339 -0.3384
 1046SOL     OW13106   1.644   2.800   1.917 -0.3227 -0.0211  0.1850
 1046SOL    HW113107   1.594   2.886   1.930  2.8947  1.8379  0.7803
 1046SOL    HW213108   1.734   2.819   1.877  0.8868 -2.9891  1.3426
 1047SOL     OW13109   1.873   2.586   1.291  0.2405  0.0122  0.5203
 1047SOL    HW113110   1.830   2.598   1.201  0.8913  1.8170  0.4334
 1047SOL    HW213111   1.899   2.490   1.303  1.3609  0.0041 -1.7684
 1048SOL     OW13112   3.756   3.639   1.728 -0.0897  0.2663  0.1768
 1048SOL    HW113113   3.796   3.688   1.806  0.3713 -0.6249  0.5041
 1048SOL    HW213114   3.811   3.559   1.707  0.0581  0.7716 -1.3933
 1049SOL     OW13115   4.023   5.094   1.531 -0.3441  0.0157 -0.2046
 1049SOL    HW113116   4.074   5.011   1.509  0.1002  0.2174  0.0782
 1049SOL    HW213117   4.085   5.171   1.538 -0.6471  0.2047  0.4410
 1050SOL     OW13118   0.806   6.264   1.994  0.1662  0.1037  0.5953
 1050SOL    HW113119   0.896   6.227   1.971  0.5982  0.6083  1.4477
 1050SOL    HW213120   0.744   6.254   1.916  0.5148 -1.6425  0.5346
 1051SOL     OW13121   2.814   0.652   2.385 -0.1023  0.4939 -0.0586
 1051SOL    HW113122   2.751   0.576   2.370  1.0261 -0.0153 -2.3381
 1051SOL    HW213123   2.765   0.727   2.431 -2.9374  0.8768 -3.5074
 1052SOL     OW13124   1.868   8.085   0.320 -0.4639 -0.5197  0.3009
 1052SOL    HW113125   1.813   8.080   0.237 -0.5775 -0.9454  0.3996
 1052SOL    HW213126   1.965   8.078   0.296 -0.4840 -0.3943  0.1842
 1053SOL     OW13127   3.183   6.036   1.142 -0.0222  0.2096 -0.1290
 1053SOL    HW113128   3.199   6.126   1.103  1.2146 -0.2499 -0.7132
 1053SOL    HW213129   3.220   6.033   1.235 -1.0958  0.6542  0.3186
 1054SOL     OW13130   2.270   3.438   1.245  0.5865 -0.0593 -0.0128
 1054SOL    HW113131   2.173   3.454   1.228  0.5257  0.3664  0.6849
 1054SOL    HW213132   2.324   3.499   1.188  0.3765  1.7480  1.6758
 1055SOL     OW13133   2.963   2.779   2.052  0.3268  0.4080 -0.6084
 1055SOL    HW113134   2.983   2.681   2.046  1.5743  0.6330 -0.2412
 1055SOL    HW213135   2.875   2.792   2.097 -0.2583 -0.5825 -1.4579
 1056SOL     OW13136   2.538   6.882   2.359  0.0916 -0.0774 -0.7982
 1056SOL    HW113137   2.535   6.782   2.355  0.3199 -0.0899 -0.6659
 1056SOL    HW213138   2.586   6.910   2.442 -1.4087  0.1652 -0.0020
 1057SOL     OW13139   2.249   9.782   2.441  0.1153  0.4057 -0.2344
 1057SOL    HW113140   2.324   9.743   2.495  0.1754  1.0723  0.1805
 1057SOL    HW213141   2.162   9.760   2.484  0.0730 -0.3640 -0.7121
 1058SOL     OW13142   3.294   9.085   0.458  0.2347  0.3538 -0.3340
 1058SOL    HW113143   3.363   9.032   0.408  0.5005  1.0649 -0.7258
 1058SOL    HW213144   3.318   9.182   0.455 -0.0342  0.4603  0.7240
 1059SOL     OW13145   2.667   6.952   2.079  0.0184 -0.3747  0.4893
 1059SOL    HW113146   2.749   7.006   2.096 -1.5370  2.6292 -1.2409
 1059SOL    HW213147   2.627   6.925   2.167  0.7664  1.3469  1.3827
 1060SOL     OW13148   2.958   6.937   2.556 -0.6139 -0.3299 -0.1606
 1060SOL    HW113149   2.904   6.856   2.535  0.1071 -0.3656 -2.0043
 1060SOL    HW213150   3.021   6.918   2.630 -2.2314 -0.6728  1.1500
 1061SOL     OW13151   3.766   5.418   0.847  0.4577 -0.2499 -0.2364
 1061SOL    HW113152   3.763   5.346   0.915  0.1954 -0.8412 -0.8612
 1061SOL    HW213153   3.756   5.378   0.756  2.1417  0.3832 -0.7263
 1062SOL     OW13154   4.847   3.163   2.344  0.0449 -0.2733 -0.6262
 1062SOL    HW113155   4.766   3.136   2.397 -0.2078  0.4983 -0.6225
 1062SOL    HW213156   4.846   3.117   2.255 -1.5950  1.5399 -1.5576
 1063SOL     OW13157   1.312   6.388   1.225 -0.3455 -0.3689 -0.5977
 1063SOL    HW113158   1.355   6.436   1.301 -0.8652  2.2809 -1.9124
 1063SOL    HW213159   1.257   6.312   1.260 -1.3752  1.4037  1.7638
 1064SOL     OW13160   4.414   4.126   1.274 -0.3927 -0.0019 -0.1882
 1064SOL    HW113161   4.374   4.045   1.231 -1.1178  0.7744 -1.0186
 1064SOL    HW213162   4.363   4.148   1.357  0.3453 -0.8883  0.5101
 1065SOL     OW13163   5.102   3.358   0.119 -0.4513  0.0583 -0.3406
 1065SOL    HW113164   5.005   3.335   0.111 -0.9941  1.9999  0.4400
 1065SOL    HW213165   5.144   3.302   0.190 -1.8405  1.6490  1.8029
 1066SOL     OW13166   3.620   4.397   0.125 -0.1967  0.0238 -0.0859
 1066SOL    HW113167   3.681   4.324   0.093  1.0499  1.9626 -2.2798
 1066SOL    HW213168   3.675   4.477   0.152 -1.7118  1.6090 -1.5926
 1067SOL     OW13169   1.151   3.669   0.904  0.2043  0.0702  0.1499
 1067SOL    HW113170   1.179   3.764   0.916  0.9671 -0.2902  1.2289
 1067SOL    HW213171   1.230   3.614   0.877 -0.1609 -0.3207 -0.1232
 1068SOL     OW13172   1.770   1.920   1.407 -0.0784  0.0064 -0.2285
 1068SOL    HW113173   1.695   1.875   1.455 -1.2667  0.3356 -1.7061
 1068SOL    HW213174   1.853   1.915   1.461 -0.9279 -1.2847  0.9809
 1069SOL     OW13175  10.329   4.953   1.385  0.6421  0.3955  0.5286
 1069SOL    HW113176  10.241   4.970   1.428 -0.3239 -0.8094 -0.9381
 1069SOL    HW213177  10.326   4.866   1.336  1.5995  1.8984 -2.2672
 1070SOL     OW13178   3.172   4.974   0.383 -0.3346  0.2456  0.0990
 1070SOL    HW113179   3.207   4.967   0.290 -0.1873  2.4763 -0.0552
 1070SOL    HW213180   3.097   5.040   0.386  1.5392  2.4016  2.0111
 1071SOL     OW13181   2.221   3.092   1.111 -0.7209 -0.1907 -0.7857
 1071SOL    HW113182   2.299   3.140   1.070  0.6157 -1.4400  0.2072
 1071SOL    HW213183   2.218   3.113   1.209 -1.4451 -0.4149 -0.7600
 1072SOL     OW13184   4.008   1.387   0.991  0.1025  0.2159 -0.4617
 1072SOL    HW113185   4.037   1.324   1.063  0.4142 -0.2822 -1.0225
 1072SOL    HW213186   4.063   1.470   0.996 -1.5384  1.2373  1.4497
 1073SOL     OW13187   1.365   3.434   2.279 -0.1472  1.3292 -0.3864
 1073SOL    HW113188   1.463   3.437   2.300 -0.2814 -0.0257  0.4389
 1073SOL    HW213189   1.342   3.510   2.218  1.3494  1.8631 -0.2980
 1074SOL     OW13190   3.747   4.521   1.471 -0.0205  0.5540  0.3691
 1074SOL    HW113191   3.672   4.516   1.405  0.2289  0.2614  0.1060
 1074SOL    HW213192   3.716   4.487   1.560  0.4204 -1.6395 -0.2919
 1075SOL     OW13193   4.660  10.255   1.236 -0.1193 -0.0633 -0.6128
 1075SOL    HW113194   4.618  10.192   1.171  0.0182  2.1250 -2.9378
 1075SOL    HW213195   4.617  10.345   1.227  0.9655  0.6629  1.2503
 1076SOL     OW13196   1.976   9.870   1.424  0.2412 -0.4305 -0.2031
 1076SOL    HW113197   2.016   9.962   1.418  1.1318 -0.6214  2.0041
 1076SOL    HW213198   1.885   9.870   1.383 -0.8128  2.1158  2.0009
 1077SOL     OW13199   3.185   5.049   0.860  0.0297  0.1134 -0.0342
 1077SOL    HW113200   3.217   4.988   0.933  0.2020  0.2165 -0.0242
 1077SOL    HW213201   3.186   4.999   0.773 -1.2224 -0.3544  0.2050
 1078SOL     OW13202   0.794   3.305   2.158  0.2218  0.0770  0.7793
 1078SOL    HW113203   0.826   3.305   2.253  0.1994 -0.3657  0.7897
 1078SOL    HW213204   0.831   3.225   2.110 -0.1482  0.0415  0.5487
 1079SOL     OW13205   3.176   5.433   2.371 -0.0033 -0.7735 -0.2789
 1079SOL    HW113206   3.205   5.500   2.302  1.1758 -1.6622 -0.6550
 1079SOL    HW213207   3.115   5.477   2.436  0.3335  0.5384 -0.8355
 1080SOL     OW13208   2.762   3.581   2.523  0.5504  0.2270  0.4864
 1080SOL    HW113209   2.706   3.583   2.440 -0.4041  0.4030  1.1203
 1080SOL    HW213210   2.813   3.667   2.531 -0.1187  0.6254  0.5821
 1081SOL     OW13211   2.711   6.288   1.968 -0.1541 -0.3078  0.6290
 1081SOL    HW113212   2.630   6.291   1.910 -0.0844  2.1846  0.6220
 1081SOL    HW213213   2.793   6.297   1.911  0.0377 -0.6594  0.8471
 1082SOL     OW13214   1.546   5.219   1.181  0.1738  0.4464 -0.4664
 1082SOL    HW113215   1.546   5.120   1.169 -2.6354  0.4542 -0.8503
 1082SOL    HW213216   1.518   5.240   1.275  3.1320  0.8714  0.3882
 1083SOL     OW13217   0.712   3.144   0.742  0.0357  0.4903  0.4861
 1083SOL    HW113218   0.728   3.174   0.836 -0.8171  0.2288  0.7200
 1083SOL    HW213219   0.788   3.086   0.712  0.3580  0.6566  0.9754
 1084SOL     OW13220   5.403   3.058   0.044 -0.7104 -0.0892  0.0489
 1084SOL    HW113221   5.478   3.121   0.067 -1.1518  0.7679 -0.8090
 1084SOL    HW213222   5.315   3.105   0.059 -1.0457 -0.6251 -0.2403
 1085SOL     OW13223   4.241   4.917   0.307 -0.0003 -0.5083 -0.0058
 1085SOL    HW113224   4.339   4.897   0.312  0.3767  1.4408  0.7133
 1085SOL    HW213225   4.193   4.867   0.380  0.9133  1.0790  1.7173
 1086SOL     OW13226   3.412   9.594   2.077 -0.3228  0.1072 -0.0352
 1086SOL    HW113227   3.349   9.536   2.130  0.3955 -0.1536  0.5381
 1086SOL    HW213228   3.401   9.690   2.105  0.9240 -0.1750  1.4869
 1087SOL     OW13229   1.341   3.786   0.019 -0.5574 -0.4103 -0.0937
 1087SOL    HW113230   1.432   3.773  -0.021 -0.3159 -1.0009  0.6244
 1087SOL    HW213231   1.336   3.738   0.106 -1.3105  0.2691  0.2465
 1088SOL     OW13232   4.813   3.304   0.099 -0.1280 -0.2108 -0.5828
 1088SOL    HW113233   4.793   3.207   0.113 -1.4303 -0.0996 -1.5550
 1088SOL    HW213234   4.754   3.360   0.157  3.2230 -0.0366  2.8508
 1089SOL     OW13235   9.687   5.057   0.578  0.3058 -0.3273  0.3187
 1089SOL    HW113236   9.653   5.150   0.592 -0.4031 -0.6236  0.5747
 1089SOL    HW213237   9.711   5.016   0.667  3.2648  0.5909 -0.0002
 1090SOL     OW13238   1.905   5.713   0.557 -0.1186 -0.5144 -0.6075
 1090SOL    HW113239   1.927   5.655   0.635 -2.1953 -0.8378 -0.2156
 1090SOL    HW213240   1.989   5.749   0.517  0.9989 -0.7091  1.4941
 1091SOL     OW13241   3.400   9.339   0.201 -0.4198 -0.2915  0.2214
 1091SOL    HW113242   3.323   9.394   0.168 -0.2957  0.6044  1.3791
 1091SOL    HW213243   3.441   9.289   0.125 -1.6415 -0.1479 -0.5434
 1092SOL     OW13244   3.680   2.911   1.933  0.1094 -0.8006  0.8296
 1092SOL    HW113245   3.746   2.901   2.007  0.4276 -0.5105  0.5813
 1092SOL    HW213246   3.703   2.990   1.877 -0.9734 -0.1455  1.2817
 1093SOL     OW13247   1.491   4.640   0.288 -0.2694 -0.2055  0.0907
 1093SOL    HW113248   1.422   4.672   0.223  0.7022  0.6058 -0.5420
 1093SOL    HW213249   1.538   4.560   0.250 -0.0040  0.0002 -0.0151
 1094SOL     OW13250   9.520   4.734   0.419 -0.1725  0.3329  0.0440
 1094SOL    HW113251   9.535   4.762   0.325 -0.2913 -2.0957 -0.7243
 1094SOL    HW213252   9.442   4.784   0.457  0.5894  2.1560 -0.7391
 1095SOL     OW13253   4.442   4.074   0.183 -0.1000 -0.8196 -0.1077
 1095SOL    HW113254   4.385   4.114   0.255 -0.8494 -2.6685  0.3608
 1095SOL    HW213255   4.400   4.093   0.094  0.7105  1.2793 -0.0528
 1096SOL     OW13256   2.828   0.768   0.502 -0.8196  0.1456 -0.0163
 1096SOL    HW113257   2.846   0.671   0.521 -0.2985  0.1280 -0.6167
 1096SOL    HW213258   2.733   0.788   0.526 -0.5165 -0.1533  1.5183
 1097SOL     OW13259   2.820   8.639   0.348  0.3802  0.5636  0.3477
 1097SOL    HW113260   2.853   8.603   0.435 -1.4145  0.0243  0.8198
 1097SOL    HW213261   2.867   8.592   0.273  1.5771  0.6895  1.0098
 1098SOL     OW13262   2.966   3.079   1.218 -0.0521 -0.1802  0.3632
 1098SOL    HW113263   2.976   2.986   1.253  1.7695 -0.1852 -0.1252
 1098SOL    HW213264   2.949   3.142   1.294  1.4218 -0.5350  1.0009
 1099SOL     OW13265   2.704   9.980   1.832 -0.4056 -0.4125  0.4635
 1099SOL    HW113266   2.692   9.994   1.734 -0.8151 -0.7366  0.4688
 1099SOL    HW213267   2.788   9.927   1.847 -1.2722 -1.8604  0.1885
 1100SOL     OW13268   3.271   9.018   1.971  0.1078  0.4568 -0.4801
 1100SOL    HW113269   3.323   9.099   1.999  2.7485 -0.3502 -2.7826
 1100SOL    HW213270   3.177   9.025   2.005  1.4873  2.2999  3.2527
 1101SOL     OW13271   2.246   9.328   2.187 -0.5013 -0.1148  0.0323
 1101SOL    HW113272   2.210   9.284   2.270  1.7926 -1.1297  0.5253
 1101SOL    HW213273   2.242   9.427   2.198 -1.4608 -0.2234  0.7993
 1102SOL     OW13274   3.638   9.487   1.562  0.2386  0.2569  0.1445
 1102SOL    HW113275   3.634   9.389   1.540 -2.0056  0.1018  1.0853
 1102SOL    HW213276   3.708   9.502   1.632  1.6362 -0.4447 -1.0731
 1103SOL     OW13277   3.576   6.285   2.644  0.2105 -0.0042 -0.1785
 1103SOL    HW113278   3.596   6.218   2.572 -0.1635 -1.9566  1.4985
 1103SOL    HW213279   3.495   6.338   2.617  0.0090 -0.7780 -1.1608
 1104SOL     OW13280   3.187   6.888   1.344 -0.1431  0.9352 -0.1884
 1104SOL    HW113281   3.177   6.790   1.326 -1.0811  0.8813  0.5302
 1104SOL    HW213282   3.230   6.932   1.266  1.3023 -0.2283 -0.0638
 1105SOL     OW13283   9.990   5.024   0.804 -0.6196 -0.4057 -0.7438
 1105SOL    HW113284  10.068   5.031   0.866 -2.0150 -0.6790  1.0938
 1105SOL    HW213285   9.976   4.928   0.780 -1.9996 -0.7102  1.1131
 1106SOL     OW13286   3.681   6.054   0.377  0.2806  0.4218  0.9304
 1106SOL    HW113287   3.669   6.151   0.358 -2.1289 -0.3637 -2.1128
 1106SOL    HW213288   3.767   6.022   0.337  0.9129  1.2134  1.6450
 1107SOL     OW13289   3.268   2.080   0.037 -0.3899 -0.4225 -0.0915
 1107SOL    HW113290   3.210   2.010  -0.005  1.3421 -1.6823 -0.4513
 1107SOL    HW213291   3.358   2.080  -0.008  0.7188 -0.2001  2.0446
 1108SOL     OW13292   4.301   9.809   2.277 -0.6116 -0.2263 -0.2173
 1108SOL    HW113293   4.265   9.792   2.368 -1.7308 -0.5183 -0.7111
 1108SOL    HW213294   4.231   9.852   2.220  1.1043  3.0724  0.0272
 1109SOL     OW13295   3.788   2.218   0.654  0.1536  0.3109 -0.1769
 1109SOL    HW113296   3.749   2.254   0.739  1.1433  1.8926 -0.3672
 1109SOL    HW213297   3.718   2.215   0.583  0.1348  2.2653 -0.2648
 1110SOL     OW13298   4.888   2.527   1.901 -0.0721 -0.3157 -0.3839
 1110SOL    HW113299   4.878   2.521   1.802  0.1258 -0.2547 -0.4069
 1110SOL    HW213300   4.983   2.548   1.924 -0.0711 -0.5546 -0.1729
 1111SOL     OW13301   0.739   4.308   1.416 -0.4626  0.3529  0.2214
 1111SOL    HW113302   0.719   4.363   1.497 -2.2099 -0.0490  0.0773
 1111SOL    HW213303   0.833   4.326   1.386 -0.4402  1.9486  1.1919
 1112SOL     OW13304   3.883   5.747   1.917 -0.0656 -0.0004 -0.1952
 1112SOL    HW113305   3.897   5.649   1.905  2.1368  0.4842 -1.8762
 1112SOL    HW213306   3.886   5.793   1.828 -1.7249  1.5309  0.4964
 1113SOL     OW13307   2.931   2.514   2.117  0.1428 -0.2200 -0.7150
 1113SOL    HW113308   2.924   2.505   2.216 -0.1934 -1.1044 -0.8168
 1113SOL    HW213309   3.010   2.462   2.084  0.9453  1.0249 -0.7841
 1114SOL     OW13310   0.824   6.528   2.558 -0.0110 -0.6088  0.5248
 1114SOL    HW113311   0.807   6.430   2.553 -0.0203 -0.6754  1.6718
 1114SOL    HW213312   0.848   6.553   2.652 -0.2432  0.5241  0.2947
 1115SOL     OW13313   3.115   1.341   0.682 -0.4501 -0.0689 -0.2916
 1115SOL    HW113314   3.125   1.298   0.592 -0.9677 -1.6267  0.3664
 1115SOL    HW213315   3.175   1.295   0.747 -2.0523 -0.7524  0.7411
 1116SOL     OW13316   2.605   9.284   2.036  0.2303  0.3361 -0.1224
 1116SOL    HW113317   2.596   9.192   1.999  0.3095  1.3763 -2.8537
 1116SOL    HW213318   2.514   9.319   2.061 -0.0461  0.2962 -1.0582
 1117SOL     OW13319   5.023   3.593   2.008 -0.1746 -0.3290  0.0018
 1117SOL    HW113320   5.082   3.582   1.928 -1.0685 -0.1548 -0.6988
 1117SOL    HW213321   5.059   3.664   2.068  1.0628 -1.1803  0.2814
 1118SOL     OW13322   4.870   1.153   0.805 -0.6055  0.2605  0.3635
 1118SOL    HW113323   4.789   1.119   0.757 -0.0787  0.7704 -0.9348
 1118SOL    HW213324   4.926   1.076   0.835 -1.1213 -0.0797  0.4588
 1119SOL     OW13325   4.453   1.989   2.186 -0.4428  0.2350  0.4913
 1119SOL    HW113326   4.467   1.892   2.202  1.3401  0.2578 -0.8742
 1119SOL    HW213327   4.491   2.015   2.097 -2.5462  1.8185  0.0017
 1120SOL     OW13328   4.225   8.160   1.487  0.2741 -0.1996  0.1885
 1120SOL    HW113329   4.197   8.065   1.481 -0.5881  0.0956 -0.4687
 1120SOL    HW213330   4.224   8.201   1.396  1.4019  0.2278  0.3527
 1121SOL     OW13331   2.638   9.018   0.675 -0.1751  0.6858 -0.1335
 1121SOL    HW113332   2.583   8.986   0.752 -2.1781  1.3797 -1.2405
 1121SOL    HW213333   2.697   9.092   0.704 -0.4560  0.5161  0.8768
 1122SOL     OW13334   3.384   2.197   2.047  0.4363  0.3789 -0.1635
 1122SOL    HW113335   3.414   2.113   2.002 -0.1479  0.3327 -0.4783
 1122SOL    HW213336   3.453   2.227   2.113  1.3621  0.5015 -1.1648
 1123SOL     OW13337   3.254   1.640   1.611 -0.4881  0.2723  0.4293
 1123SOL    HW113338   3.172   1.686   1.647 -0.1244 -0.8641  2.8314
 1123SOL    HW213339   3.330   1.705   1.610 -1.3094  1.2528 -1.5393
 1124SOL     OW13340   2.577   1.149   1.997 -0.2123 -0.2243  0.2111
 1124SOL    HW113341   2.575   1.162   1.898 -1.1960  2.0389  0.4850
 1124SOL    HW213342   2.487   1.118   2.028  0.0195 -0.6852  0.4117
 1125SOL     OW13343   4.581   5.212   0.258 -0.0302  0.3461 -0.0724
 1125SOL    HW113344   4.529   5.296   0.242 -1.9274 -0.6199  0.8929
 1125SOL    HW213345   4.594   5.199   0.356 -2.0144 -1.7994 -0.0548
 1126SOL     OW13346   9.813   5.206   1.924  0.2440 -0.0562 -0.6189
 1126SOL    HW113347   9.778   5.278   1.983  1.2070  0.1959 -0.3401
 1126SOL    HW213348   9.845   5.246   1.838 -1.2977 -0.4416 -1.3835
 1127SOL     OW13349   2.414  10.264   1.519  0.4679  0.3676  0.2393
 1127SOL    HW113350   2.321  10.249   1.553  1.1016 -2.0535  0.9690
 1127SOL    HW213351   2.423  10.223   1.428  1.0948 -0.3285  0.6039
 1128SOL     OW13352   3.780   3.462   2.547  0.0153 -0.0613 -0.2591
 1128SOL    HW113353   3.739   3.512   2.471  0.3703 -0.0424 -0.4378
 1128SOL    HW213354   3.817   3.527   2.614  1.8346 -0.0730 -1.2197
 1129SOL     OW13355   2.258   8.702   2.237 -0.6275 -0.1562 -0.3737
 1129SOL    HW113356   2.321   8.751   2.296 -0.8593  1.7874 -1.6865
 1129SOL    HW213357   2.217   8.626   2.288  1.7387 -0.6432  0.8843
 1130SOL     OW13358   2.383   0.687   0.689  0.1395  0.7522 -0.3827
 1130SOL    HW113359   2.419   0.594   0.693  0.6679  0.9809  0.2653
 1130SOL    HW213360   2.312   0.692   0.618 -1.0072 -0.5158  0.6529
 1131SOL     OW13361   4.155   5.781   0.073  0.1796  0.3118  0.3800
 1131SOL    HW113362   4.198   5.723   0.004 -0.7049  0.8895 -0.6773
 1131SOL    HW213363   4.057   5.788   0.055  0.1138  1.3735  1.0426
 1132SOL     OW13364   9.655   4.611   0.905 -0.0839 -0.5118 -0.1950
 1132SOL    HW113365   9.695   4.616   0.814 -0.6285  0.4264 -0.3915
 1132SOL    HW213366   9.709   4.548   0.962  1.1968  0.1256 -0.6787
 1133SOL     OW13367   3.063   7.513   1.690  0.3858 -0.0120  0.2958
 1133SOL    HW113368   3.084   7.445   1.621  0.9094  0.0524  0.3893
 1133SOL    HW213369   3.129   7.588   1.685 -2.4956  2.5380 -2.5168
 1134SOL     OW13370   3.597   8.591   0.803  0.4066 -0.1191 -0.1383
 1134SOL    HW113371   3.590   8.495   0.779 -1.0242 -0.1619  0.3628
 1134SOL    HW213372   3.520   8.616   0.862  0.3685  1.4978 -0.8453
 1135SOL     OW13373  10.016   5.359   2.570 -0.3007 -0.0776 -0.6009
 1135SOL    HW113374  10.044   5.350   2.475 -0.8674 -1.7503 -0.6327
 1135SOL    HW213375  10.051   5.445   2.608  0.5636  0.2373 -2.0848
 1136SOL     OW13376   2.226   2.623   0.097 -0.1630 -0.1294  0.2034
 1136SOL    HW113377   2.281   2.582   0.170  0.0665  1.2877  0.8448
 1136SOL    HW213378   2.129   2.615   0.120 -0.0600  1.2639  1.2164
 1137SOL     OW13379   2.666   9.237   1.730 -0.0192 -0.5264 -0.5154
 1137SOL    HW113380   2.733   9.264   1.661 -1.3218  2.0832 -0.8428
 1137SOL    HW213381   2.689   9.278   1.818  0.5340 -2.2168  0.1499
 1138SOL     OW13382   3.904   5.343   0.171 -0.1284 -0.3421  0.1446
 1138SOL    HW113383   3.995   5.306   0.151  0.5403  1.4728 -0.2295
 1138SOL    HW213384   3.888   5.338   0.270  0.7616  0.1858  0.3220
 1139SOL     OW13385   3.330   3.968   2.313  0.4358  0.1236  0.8786
 1139SOL    HW113386   3.374   4.040   2.260 -0.5724  0.0891 -0.0129
 1139SOL    HW213387   3.374   3.961   2.402  3.4005 -1.0767 -0.6149
 1140SOL     OW13388   9.931   5.361   1.297  0.3371  0.7568  0.2200
 1140SOL    HW113389  10.005   5.333   1.234  0.6487 -1.5072  1.5208
 1140SOL    HW213390   9.847   5.374   1.245  1.4709  2.7592 -1.2035
 1141SOL     OW13391   2.791   5.994   0.183 -0.5392  0.2047 -0.6309
 1141SOL    HW113392   2.890   5.994   0.166 -0.5871  0.4457 -0.9017
 1141SOL    HW213393   2.758   5.899   0.186  0.0916  0.0337  1.6955
 1142SOL     OW13394   3.667   2.091   1.098 -0.1783  0.4918 -0.3158
 1142SOL    HW113395   3.633   2.040   1.177  0.9179  0.3419  0.0571
 1142SOL    HW213396   3.604   2.167   1.079  1.5820  2.9481  3.1496
 1143SOL     OW13397   1.307   5.066   2.259 -0.4191  0.4944  0.3068
 1143SOL    HW113398   1.226   5.070   2.201 -0.8203 -2.2214  0.6057
 1143SOL    HW213399   1.283   5.022   2.346  1.4461 -0.6943  0.2379
 1144SOL     OW13400  10.538   4.071   1.170 -0.0953  0.3041 -0.0850
 1144SOL    HW113401  10.449   4.063   1.124 -0.0053 -0.8177 -0.0765
 1144SOL    HW213402  10.533   4.142   1.240 -0.8699  0.5191 -0.3552
 1145SOL     OW13403   4.859   4.945   1.737  0.2665  0.2324 -0.1204
 1145SOL    HW113404   4.920   5.022   1.752 -0.7313  0.5836  2.4060
 1145SOL    HW213405   4.771   4.977   1.702  0.0124  0.2055  0.4853
 1146SOL     OW13406   2.882   7.402   1.907  0.1559 -0.6198 -0.1553
 1146SOL    HW113407   2.962   7.418   1.849  0.2736  0.5519  0.3124
 1146SOL    HW213408   2.832   7.322   1.874  0.1282  0.1344 -1.9794
 1147SOL     OW13409   4.060   9.579   0.358 -0.2430  0.5028  0.6038
 1147SOL    HW113410   4.150   9.557   0.395 -0.8857 -1.7189  0.9241
 1147SOL    HW213411   4.067   9.594   0.259  0.4998  0.6191  0.6701
 1148SOL     OW13412   1.590   7.530   2.195 -0.2398 -0.2306 -0.0956
 1148SOL    HW113413   1.566   7.600   2.262 -0.2426  0.9979 -1.3617
 1148SOL    HW213414   1.512   7.467   2.184 -1.3539  1.2792 -1.0902
 1149SOL     OW13415   5.553   3.627   0.365 -0.1171  0.3925  0.1839
 1149SOL    HW113416   5.475   3.691   0.363  0.0187  0.5372 -0.4751
 1149SOL    HW213417   5.564   3.592   0.458 -0.9865  0.3513  0.2760
 1150SOL     OW13418   4.038   4.412   2.149 -0.0037 -0.5791 -0.0526
 1150SOL    HW113419   4.119   4.370   2.109 -0.7439 -1.0252 -1.1079
 1150SOL    HW213420   4.037   4.396   2.248  2.0656  0.9141  0.2521
 1151SOL     OW13421   1.500   5.644   1.257 -0.4711 -0.3795 -0.2049
 1151SOL    HW113422   1.485   5.613   1.351 -2.5187 -0.5823 -0.5760
 1151SOL    HW213423   1.596   5.671   1.245 -0.1789 -0.4414  1.9022
 1152SOL     OW13424   2.969   5.154   0.372  0.0261  0.1207  0.3784
 1152SOL    HW113425   2.950   5.156   0.470  0.8661  1.0210  0.5322
 1152SOL    HW213426   2.990   5.246   0.340  2.3918 -0.5342 -0.1080
 1153SOL     OW13427   1.472   3.869   0.339 -0.4104 -0.3341 -0.0884
 1153SOL    HW113428   1.419   3.787   0.316 -0.9150  0.6397 -2.5202
 1153SOL    HW213429   1.428   3.949   0.300  0.6578  0.9988  1.3784
 1154SOL     OW13430   3.041   0.712   0.165 -0.4945 -0.5270 -0.2890
 1154SOL    HW113431   2.981   0.634   0.148  1.2293 -2.1715  0.9218
 1154SOL    HW213432   3.073   0.709   0.260  2.8756 -0.6646 -1.3929
 1155SOL     OW13433   2.265   5.322   1.977  0.4972  0.1414  0.1275
 1155SOL    HW113434   2.189   5.354   1.920  0.9066  0.6388 -0.1410
 1155SOL    HW213435   2.238   5.239   2.024 -0.4850  0.7182  0.6059
 1156SOL     OW13436   0.882   5.477   1.621  0.3733 -0.0613 -0.1503
 1156SOL    HW113437   0.802   5.416   1.622  0.6617 -0.4370  2.2026
 1156SOL    HW213438   0.951   5.439   1.559 -0.3871 -0.8925 -0.5095
 1157SOL     OW13439   3.093   4.892   0.624 -0.2489 -0.1697  0.5965
 1157SOL    HW113440   3.110   4.904   0.526  1.3675  0.9889  1.0081
 1157SOL    HW213441   3.158   4.826   0.662 -0.3457 -0.0004  1.0584
 1158SOL     OW13442   5.572   2.909   1.848 -0.0365  0.1282  0.3034
 1158SOL    HW113443   5.486   2.858   1.858 -1.6414  2.2048 -2.1765
 1158SOL    HW213444   5.616   2.918   1.937 -2.0761 -1.5072  1.5371
 1159SOL     OW13445   2.530   3.642   0.327 -0.3352 -0.0376 -0.1059
 1159SOL    HW113446   2.495   3.676   0.415  0.7037 -0.2242  0.3795
 1159SOL    HW213447   2.456   3.594   0.279  0.1920 -3.6750  2.5695
 1160SOL     OW13448   3.664   8.248   2.032 -0.0597 -0.0291 -0.1975
 1160SOL    HW113449   3.623   8.338   2.013 -0.4842  0.2530  1.9375
 1160SOL    HW213450   3.604   8.177   1.997  0.1942  0.5014 -1.7561
 1161SOL     OW13451   1.826   2.444   0.520  0.0186  0.8168 -1.4292
 1161SOL    HW113452   1.871   2.533   0.521 -1.2022  1.4537  0.6358
 1161SOL    HW213453   1.759   2.440   0.446 -0.5223  1.9337 -1.0029
 1162SOL     OW13454   3.274   9.165   2.622  0.3441  0.0651  0.3604
 1162SOL    HW113455   3.374   9.159   2.623  0.2632 -1.5832 -0.8243
 1162SOL    HW213456   3.236   9.098   2.685 -0.0146  0.9503  1.0910
 1163SOL     OW13457   3.103   9.270   2.100  0.3843 -0.1541 -0.0730
 1163SOL    HW113458   3.006   9.286   2.120 -0.2893 -3.1777 -0.7925
 1163SOL    HW213459   3.121   9.293   2.004 -0.0965 -1.6438 -0.5193
 1164SOL     OW13460   2.889   1.647   1.764  0.3121  0.6662 -0.8876
 1164SOL    HW113461   2.964   1.583   1.781  0.1250  0.7332  0.2275
 1164SOL    HW213462   2.926   1.736   1.738  0.5631 -0.0812 -3.1245
 1165SOL     OW13463   2.262   3.909   0.201 -0.1042 -0.2441  0.1861
 1165SOL    HW113464   2.220   3.860   0.277  0.9103 -0.2334  0.7611
 1165SOL    HW213465   2.191   3.948   0.143 -0.8885  0.5725  1.6627
 1166SOL     OW13466   2.856   0.715   1.241 -0.4421 -0.0268  0.3076
 1166SOL    HW113467   2.757   0.729   1.240 -0.6887 -1.6680 -2.2488
 1166SOL    HW213468   2.878   0.631   1.192  2.1286 -0.3690  2.0070
 1167SOL     OW13469   4.646   3.068   2.476 -0.7412 -0.8781 -0.4822
 1167SOL    HW113470   4.689   3.064   2.566 -1.8722 -1.8018  0.0303
 1167SOL    HW213471   4.554   3.105   2.485 -1.0648 -1.4940 -1.1766
 1168SOL     OW13472   4.644   1.181   2.217 -0.0046  0.2394 -0.2193
 1168SOL    HW113473   4.622   1.269   2.175 -1.3004 -0.7300 -1.6553
 1168SOL    HW213474   4.563   1.122   2.215  1.0215 -1.2110  0.0935
 1169SOL     OW13475   4.191   0.461   2.337 -0.0144 -0.5210 -0.4311
 1169SOL    HW113476   4.116   0.511   2.378 -0.4227  0.3799 -2.2162
 1169SOL    HW213477   4.191   0.367   2.370 -1.0502 -0.1411  0.6651
 1170SOL     OW13478   4.620   0.623   0.822  0.0122 -0.1625 -0.0240
 1170SOL    HW113479   4.679   0.698   0.793 -1.8336  1.5764  0.5766
 1170SOL    HW213480   4.654   0.537   0.784  1.2320  1.1858 -2.1124
 1171SOL     OW13481   1.851   7.933   0.990 -0.3061  0.4414 -0.0041
 1171SOL    HW113482   1.783   7.870   1.027 -0.6087  0.5144 -0.4380
 1171SOL    HW213483   1.927   7.942   1.055 -1.3726  1.4592  1.1295
 1172SOL     OW13484   1.332   4.141   0.438 -0.4586  0.5581 -0.5109
 1172SOL    HW113485   1.244   4.109   0.403  0.9013 -2.4299 -1.4161
 1172SOL    HW213486   1.379   4.193   0.366 -0.7543  0.6645 -0.6289
 1173SOL     OW13487   0.942   6.519   1.051  0.4567 -0.2720 -0.5484
 1173SOL    HW113488   1.010   6.592   1.042  0.8333 -0.3719  1.2769
 1173SOL    HW213489   0.944   6.483   1.144 -1.6802 -0.6867 -0.6323
 1174SOL     OW13490   1.782   8.207   2.560 -0.6140  0.0734 -0.0465
 1174SOL    HW113491   1.761   8.259   2.477  0.1904 -0.4381 -0.5697
 1174SOL    HW213492   1.880   8.210   2.577 -0.8693  0.8963  1.3680
 1175SOL     OW13493   4.253  10.305   1.051 -0.3650  0.1324  0.0366
 1175SOL    HW113494   4.248  10.335   0.956 -0.9329 -0.2678 -0.0627
 1175SOL    HW213495   4.283  10.381   1.108  0.7707  0.1402 -0.5682
 1176SOL     OW13496   2.506   8.276   0.459  0.1827 -0.3447 -0.3265
 1176SOL    HW113497   2.468   8.270   0.366 -1.0151 -0.0369  0.1339
 1176SOL    HW213498   2.530   8.371   0.479 -0.7684 -0.1991  0.1442
 1177SOL     OW13499   2.034   5.510   2.236  0.2045  0.2313 -0.5774
 1177SOL    HW113500   1.982   5.425   2.226 -0.2410  0.3441  0.7318
 1177SOL    HW213501   2.125   5.490   2.274 -0.0825  0.3815  0.2062
 1178SOL     OW13502   1.593   2.523   1.354  0.6824  0.2442  0.1900
 1178SOL    HW113503   1.557   2.467   1.280  1.3055 -0.6796  0.5813
 1178SOL    HW213504   1.681   2.561   1.327  1.2602 -0.6968  0.7354
 1179SOL     OW13505   3.555   1.935   0.339  0.0997 -0.3154  0.3598
 1179SOL    HW113506   3.604   1.882   0.408 -0.1305  1.5630  2.0074
 1179SOL    HW213507   3.620   1.982   0.280  0.2849 -1.3166 -0.2573
 1180SOL     OW13508   4.780   2.877   0.855 -0.2390  0.3433 -0.6935
 1180SOL    HW113509   4.812   2.890   0.949  2.0650 -3.5226 -0.8189
 1180SOL    HW213510   4.681   2.891   0.851 -0.5252 -0.3019  2.5273
 1181SOL     OW13511   1.703   4.413   0.866  0.0868  0.3726  0.8428
 1181SOL    HW113512   1.701   4.475   0.788  0.3107  1.0040  1.3344
 1181SOL    HW213513   1.671   4.323   0.837 -3.3853  1.5199  0.8435
 1182SOL     OW13514   4.546   1.423   2.145 -0.0648 -0.0294 -0.0220
 1182SOL    HW113515   4.568   1.490   2.216 -2.1919  2.2855 -1.4711
 1182SOL    HW213516   4.562   1.463   2.055  2.6000 -2.9386 -0.8971
 1183SOL     OW13517   2.489   8.009   1.326 -0.4354 -0.1684  0.0286
 1183SOL    HW113518   2.512   7.963   1.411 -0.6163  2.3898  1.5161
 1183SOL    HW213519   2.541   8.094   1.319  0.1289 -0.7037 -2.7889
 1184SOL     OW13520   3.309   8.887   1.521  0.0975 -0.3707 -0.2079
 1184SOL    HW113521   3.253   8.902   1.440 -2.3858  1.0318  1.6769
 1184SOL    HW213522   3.337   8.792   1.525 -2.7122 -1.2916 -0.9170
 1185SOL     OW13523   2.436   9.924   1.866 -0.0166 -0.2680  0.1824
 1185SOL    HW113524   2.432   9.931   1.966 -0.4145  0.2522  0.1353
 1185SOL    HW213525   2.520   9.968   1.833  0.1097 -0.4307  0.2861
 1186SOL     OW13526   1.494   3.025   1.991 -0.3786  0.6447  0.3746
 1186SOL    HW113527   1.579   3.076   1.982  0.8065 -0.9197  2.3799
 1186SOL    HW213528   1.439   3.065   2.065  0.1488 -0.3980  1.3425
 1187SOL     OW13529   2.671   7.674   1.120 -0.6115  0.2288  0.0064
 1187SOL    HW113530   2.764   7.676   1.154 -0.1005  2.0048 -1.3634
 1187SOL    HW213531   2.669   7.711   1.027 -2.9104  1.8181  0.6368
 1188SOL     OW13532   0.895   5.826   1.962  0.3984 -0.6748 -0.9280
 1188SOL    HW113533   0.970   5.876   2.004  1.0804 -0.7957 -1.9834
 1188SOL    HW213534   0.920   5.729   1.953 -1.3393 -1.4663  2.1338
 1189SOL     OW13535   3.416   2.172   0.763 -0.4183 -0.1205  0.5425
 1189SOL    HW113536   3.457   2.152   0.674  1.3954 -0.0505  1.3375
 1189SOL    HW213537   3.462   2.252   0.803  0.5654 -1.7067  2.6828
 1190SOL     OW13538   1.815   4.216   1.517  0.7285  0.1960 -0.0735
 1190SOL    HW113539   1.845   4.146   1.582 -0.9405 -0.5025 -0.0429
 1190SOL    HW213540   1.817   4.306   1.561 -0.0049 -0.2249  0.8251
 1191SOL     OW13541   2.963   9.914   1.153  0.2758 -0.0443 -0.0050
 1191SOL    HW113542   2.980   9.839   1.088 -0.8618  1.1493 -1.7323
 1191SOL    HW213543   2.904   9.881   1.227 -2.3325 -0.2699 -2.0969
 1192SOL     OW13544   1.219   7.006   2.241 -0.4407  0.0559  0.7156
 1192SOL    HW113545   1.172   7.047   2.163  0.8458 -1.5477 -0.9333
 1192SOL    HW213546   1.156   6.947   2.292 -1.1263  0.6547  0.5650
 1193SOL     OW13547   2.210   0.752   1.452  0.0946  0.1305 -0.1085
 1193SOL    HW113548   2.221   0.798   1.540  1.1018 -0.8349  0.2832
 1193SOL    HW213549   2.160   0.811   1.389 -1.2952  0.5396  1.3411
 1194SOL     OW13550   3.237   6.594   0.300  0.6902  0.3249  0.2128
 1194SOL    HW113551   3.227   6.612   0.202  1.1002  2.3578  0.5286
 1194SOL    HW213552   3.314   6.532   0.314  0.4629 -0.1968 -0.7682
 1195SOL     OW13553   1.855   2.873   1.756  0.5062  0.1553 -0.3638
 1195SOL    HW113554   1.938   2.839   1.710  0.3553  1.8344 -1.9556
 1195SOL    HW213555   1.853   2.973   1.749 -1.2269  0.1802  0.4236
 1196SOL     OW13556   4.739   4.864   0.530  0.3797 -0.3522  0.8227
 1196SOL    HW113557   4.767   4.774   0.497 -0.0320 -0.4761  0.8075
 1196SOL    HW213558   4.806   4.897   0.596  0.9772 -0.2950  0.1964
 1197SOL     OW13559   4.573   4.479   1.502 -0.7852 -0.2137 -0.3507
 1197SOL    HW113560   4.584   4.467   1.404 -1.8623  0.1915 -0.5327
 1197SOL    HW213561   4.660   4.508   1.542 -0.9085  1.9828 -1.5738
 1198SOL     OW13562   2.577   6.847   1.698 -0.2523  0.8269  0.0860
 1198SOL    HW113563   2.579   6.920   1.766 -2.0030  0.1855  0.8722
 1198SOL    HW213564   2.589   6.759   1.744 -0.3403  0.4685 -0.5791
 1199SOL     OW13565   3.365   0.469   1.322 -0.1621  0.0661 -0.2279
 1199SOL    HW113566   3.325   0.485   1.413 -2.4925 -1.5116 -0.9299
 1199SOL    HW213567   3.427   0.390   1.327 -0.4085 -0.1179 -0.0347
 1200SOL     OW13568   4.039   8.140   2.185 -0.4212  0.2201 -0.4534
 1200SOL    HW113569   4.074   8.181   2.269  0.5443 -0.4889 -0.5004
 1200SOL    HW213570   4.085   8.180   2.106 -0.0465 -0.3702 -0.5425
 1201SOL     OW13571   1.076   2.720   0.565  0.5820  0.1625 -0.1075
 1201SOL    HW113572   1.158   2.696   0.616  1.6316  1.1448 -1.3118
 1201SOL    HW213573   1.033   2.636   0.530  0.6092 -0.4096  1.2039
 1202SOL     OW13574   5.449   3.471   1.282 -0.4398 -0.2437  0.0283
 1202SOL    HW113575   5.424   3.560   1.245  0.6653 -0.2489 -0.7633
 1202SOL    HW213576   5.537   3.478   1.330 -0.7279 -0.7404  0.6347
 1203SOL     OW13577   2.614   1.978   2.305  0.3174 -0.4062 -0.5952
 1203SOL    HW113578   2.617   2.004   2.209 -0.6287  0.0529 -0.5073
 1203SOL    HW213579   2.542   1.910   2.319 -0.8957  0.9828  0.1173
 1204SOL     OW13580   1.821   6.445   0.175 -0.1483  0.4584 -0.0947
 1204SOL    HW113581   1.903   6.441   0.232 -1.0359  0.4852  1.1994
 1204SOL    HW213582   1.799   6.540   0.154  1.3168  0.3782 -2.1872
 1205SOL     OW13583   4.283   2.123   0.158 -0.3352 -0.2436  0.0339
 1205SOL    HW113584   4.297   2.186   0.081 -0.4723 -1.3025 -0.8713
 1205SOL    HW213585   4.348   2.048   0.152 -2.2203 -1.8633 -0.6849
 1206SOL     OW13586   9.663   4.549   0.049  0.4195 -0.1113 -0.3015
 1206SOL    HW113587   9.605   4.581  -0.026  1.1560 -0.0830 -0.8728
 1206SOL    HW213588   9.651   4.451   0.061 -1.6106  0.3178  1.2476
 1207SOL     OW13589  10.065   5.646   0.990  0.1016 -0.5312 -0.1505
 1207SOL    HW113590  10.000   5.712   0.953 -1.5558 -0.9590  1.9374
 1207SOL    HW213591  10.031   5.553   0.974  1.1477 -0.8247 -0.7458
 1208SOL     OW13592   2.746  10.137   2.351 -0.5131 -0.5415  0.3311
 1208SOL    HW113593   2.693  10.066   2.398 -2.0460 -0.4600 -1.2663
 1208SOL    HW213594   2.734  10.129   2.252  1.2214  0.4558  0.0113
 1209SOL     OW13595   2.355   5.636   0.888 -0.1340  0.3634  0.2079
 1209SOL    HW113596   2.303   5.665   0.807  2.6576  1.4533 -1.2434
 1209SOL    HW213597   2.343   5.703   0.961 -1.1084  0.3763  0.0421
 1210SOL     OW13598   1.978   4.866   1.555 -0.3991 -1.0393  0.3428
 1210SOL    HW113599   2.022   4.779   1.579 -0.6921 -0.9335  1.2768
 1210SOL    HW213600   2.040   4.922   1.501  0.0660 -1.5078  0.3921
 1211SOL     OW13601   5.199   3.092   1.671  0.8522  0.0781  0.5556
 1211SOL    HW113602   5.222   3.107   1.768  1.6158 -0.1571  0.4176
 1211SOL    HW213603   5.279   3.054   1.624  0.6327  0.6267 -0.2705
 1212SOL     OW13604   4.373   2.347   1.493  0.2750 -0.2148 -0.6080
 1212SOL    HW113605   4.348   2.350   1.396  1.5661 -0.3016 -0.9461
 1212SOL    HW213606   4.442   2.276   1.508  1.9479  1.4852 -0.0606
 1213SOL     OW13607   4.774   2.299   0.852  0.0603  0.4750  0.0595
 1213SOL    HW113608   4.832   2.250   0.917  0.4397  1.2847  0.3349
 1213SOL    HW213609   4.830   2.356   0.792 -0.3559  0.3673 -0.4427
 1214SOL     OW13610   4.165   7.801   0.201  0.4196 -0.0964  0.3511
 1214SOL    HW113611   4.208   7.770   0.286  0.7680  0.1565  0.2669
 1214SOL    HW213612   4.082   7.747   0.185 -0.5082  0.8986  1.6613
 1215SOL     OW13613   3.829   9.308   0.830  0.3860  0.1070 -0.4263
 1215SOL    HW113614   3.862   9.284   0.921  0.4036 -0.3851 -0.5645
 1215SOL    HW213615   3.848   9.234   0.767 -0.2041  0.1841 -0.6939
 1216SOL     OW13616   3.982   2.641   2.531 -0.1540 -0.3327  0.5978
 1216SOL    HW113617   4.026   2.552   2.544 -0.7158 -0.8925 -1.1577
 1216SOL    HW213618   3.883   2.631   2.543 -0.1520  0.1974  1.0788
 1217SOL     OW13619   3.927   4.265   1.468 -0.1870  0.1507  0.2218
 1217SOL    HW113620   3.945   4.206   1.390  0.6792  1.0973 -0.3086
 1217SOL    HW213621   3.917   4.360   1.438 -1.5575  0.2837  1.0639
 1218SOL     OW13622   3.656   0.963   0.897 -0.2303 -0.5666  0.6221
 1218SOL    HW113623   3.660   1.056   0.931  1.7735  0.2636 -1.7450
 1218SOL    HW213624   3.587   0.956   0.824  0.0873 -0.7743  0.3379
 1219SOL     OW13625   1.993   7.467   0.512  0.5492 -0.4629 -0.0875
 1219SOL    HW113626   1.932   7.430   0.582  1.2159  1.2647  1.4178
 1219SOL    HW213627   1.982   7.566   0.506  1.9548 -0.3426 -1.0281
 1220SOL     OW13628   2.812   8.275   1.804  0.3193  0.1147  0.5443
 1220SOL    HW113629   2.736   8.211   1.794 -0.0645  0.7028 -0.2981
 1220SOL    HW213630   2.893   8.225   1.835  0.6893 -1.2346 -2.4978
 1221SOL     OW13631   1.413   4.243   0.167  0.4566  0.2063  0.0362
 1221SOL    HW113632   1.495   4.298   0.177 -0.1619  1.3581 -1.0845
 1221SOL    HW213633   1.400   4.218   0.071  0.7594 -1.9596  0.5322
 1222SOL     OW13634   3.891   4.772  -0.002 -0.1912 -0.2984 -0.1413
 1222SOL    HW113635   3.847   4.860   0.014 -2.0069 -1.1743 -0.1700
 1222SOL    HW213636   3.852   4.730  -0.084  1.8566 -0.3946 -1.0923
 1223SOL     OW13637   4.824   1.643   0.091  0.0805 -0.2101 -0.5553
 1223SOL    HW113638   4.888   1.572   0.062  0.7757  0.6430 -1.1041
 1223SOL    HW213639   4.874   1.722   0.126 -0.6872  0.1775 -0.3100
 1224SOL     OW13640   4.228   0.680   0.054  0.0344 -0.2452  0.3621
 1224SOL    HW113641   4.249   0.771   0.091 -1.0289 -0.2552  0.9955
 1224SOL    HW213642   4.176   0.628   0.121 -1.9655 -0.2512 -1.1585
 1225SOL     OW13643   1.953   3.332   0.997  0.3833  0.1249 -0.8901
 1225SOL    HW113644   1.917   3.240   0.982  0.7474 -0.8586  3.6934
 1225SOL    HW213645   2.050   3.335   0.970  0.5071 -1.0098 -0.5964
 1226SOL     OW13646   3.325   2.549   0.773 -0.1749  0.3411  0.1444
 1226SOL    HW113647   3.232   2.561   0.738 -0.3204 -0.7430  0.1351
 1226SOL    HW213648   3.380   2.502   0.704  0.3554  0.9008  0.1871
 1227SOL     OW13649   4.074   1.037   0.324 -0.6390  0.2638  0.1975
 1227SOL    HW113650   4.102   1.107   0.390  1.5200 -1.3755  1.0957
 1227SOL    HW213651   4.037   0.958   0.374 -0.2475 -0.4497 -0.6380
 1228SOL     OW13652  10.547   4.331   1.241 -0.6196  0.6418 -0.6501
 1228SOL    HW113653  10.551   4.419   1.193 -0.9064  1.4494  0.7533
 1228SOL    HW213654  10.622   4.326   1.307 -0.7884 -0.0435 -0.5085
 1229SOL     OW13655   4.588   2.192   1.302  0.2261  0.0507  0.3579
 1229SOL    HW113656   4.657   2.255   1.265 -0.6840  0.8324 -0.0452
 1229SOL    HW213657   4.614   2.164   1.394  1.5547 -0.4072 -0.1453
 1230SOL     OW13658   9.929   5.072   2.584 -0.4221  0.2263 -0.2276
 1230SOL    HW113659   9.963   5.165   2.592  2.3043 -0.7164 -0.2641
 1230SOL    HW213660   9.940   5.039   2.490  3.1182 -1.7056  0.7691
 1231SOL     OW13661   3.157   9.398   0.984  0.1081  0.1938 -0.8301
 1231SOL    HW113662   3.157   9.430   0.889  0.2006  0.1230 -0.8536
 1231SOL    HW213663   3.063   9.391   1.016  0.1614  3.2988  0.1278
 1232SOL     OW13664   1.673   5.288   0.262 -0.3706  0.6161 -0.1567
 1232SOL    HW113665   1.759   5.239   0.275 -0.3524  0.4068 -1.0590
 1232SOL    HW213666   1.616   5.240   0.196 -0.3969  1.7408 -0.9804
 1233SOL     OW13667   3.851   2.354   2.291  0.1341  0.4963  0.5279
 1233SOL    HW113668   3.944   2.390   2.295 -0.2332  1.3773  1.1815
 1233SOL    HW213669   3.848   2.265   2.338  0.5216  0.7438  1.0272
 1234SOL     OW13670   2.388   8.830   1.213 -0.4916 -0.5286  0.8833
 1234SOL    HW113671   2.409   8.757   1.148  0.7233 -0.9354  1.7122
 1234SOL    HW213672   2.309   8.803   1.269 -0.9471 -0.5782  0.2261
 1235SOL     OW13673  10.103   4.591   1.862  0.1110  0.2222 -0.2066
 1235SOL    HW113674  10.068   4.636   1.944 -0.1108  0.1959 -0.2876
 1235SOL    HW213675  10.058   4.503   1.850  0.9595 -0.2833  0.2755
 1236SOL     OW13676   1.749   8.008   0.081  1.1047  0.4066  0.0630
 1236SOL    HW113677   1.737   8.086   0.020  1.6712 -0.2974 -0.9637
 1236SOL    HW213678   1.801   7.936   0.034  0.8213 -0.4811  1.0806
 1237SOL     OW13679   4.309   4.031   0.783  0.0290 -0.0843 -0.0084
 1237SOL    HW113680   4.236   3.971   0.750  0.1458 -0.2411  0.0119
 1237SOL    HW213681   4.390   3.975   0.804 -0.4295 -0.1433  1.6539
 1238SOL     OW13682   1.583   4.983   0.624 -0.6169  0.0858 -0.6466
 1238SOL    HW113683   1.563   5.072   0.665 -1.4871 -0.6283  0.4888
 1238SOL    HW213684   1.577   4.912   0.694 -1.5796 -1.0761 -1.8843
 1239SOL     OW13685   3.455   3.167   0.271  0.0499 -0.1470 -0.3832
 1239SOL    HW113686   3.477   3.206   0.182  0.3426  1.4057  0.3629
 1239SOL    HW213687   3.480   3.070   0.272  0.8859  0.0468 -1.6672
 1240SOL     OW13688   2.341   4.998   2.259 -0.3805  0.5495  0.4099
 1240SOL    HW113689   2.399   5.076   2.284  0.1563  0.8248 -1.5909
 1240SOL    HW213690   2.248   5.030   2.243 -0.5150  0.5198  1.1181
 1241SOL     OW13691   1.321   3.624   1.629  0.4386 -0.7311 -0.3105
 1241SOL    HW113692   1.332   3.567   1.711  2.0094 -0.4571 -0.3233
 1241SOL    HW213693   1.410   3.641   1.588 -0.2709 -0.2669 -1.6845
 1242SOL     OW13694   4.372   1.105   1.874 -0.5759  0.1084 -0.1264
 1242SOL    HW113695   4.349   1.011   1.897  1.8938 -0.4604  0.1833
 1242SOL    HW213696   4.455   1.107   1.818 -1.1502  2.0467 -0.9765
 1243SOL     OW13697   2.100   7.730   1.371 -0.0985  0.1516 -0.0580
 1243SOL    HW113698   2.023   7.666   1.368 -0.0026  0.0018  0.6361
 1243SOL    HW213699   2.181   7.683   1.406  0.0367  0.5872  0.2154
 1244SOL     OW13700   4.423   5.255   0.723  0.2679  0.2638  0.3617
 1244SOL    HW113701   4.349   5.319   0.741 -0.4412 -0.5845  0.4767
 1244SOL    HW213702   4.497   5.269   0.789 -0.5725 -0.1139  1.3929
 1245SOL     OW13703   3.397   8.163   0.422 -0.3320  0.8039 -0.2318
 1245SOL    HW113704   3.347   8.076   0.428 -0.0896  0.6499 -0.4391
 1245SOL    HW213705   3.352   8.223   0.355 -0.1556  0.6115 -0.5212
 1246SOL     OW13706   2.976   5.254   2.249  0.1045  0.2748 -0.0642
 1246SOL    HW113707   3.051   5.301   2.297 -0.5878  0.8771  0.4461
 1246SOL    HW213708   2.897   5.316   2.242 -0.4242 -0.4318 -0.3929
 1247SOL     OW13709   3.101   0.686   1.988  0.0156 -0.3580  0.3136
 1247SOL    HW113710   3.177   0.740   2.026  0.0380 -0.8653  0.9885
 1247SOL    HW213711   3.086   0.713   1.893 -1.1349  2.1100  1.1677
 1248SOL     OW13712   2.177   3.279   0.800  0.1764 -0.2779 -0.0560
 1248SOL    HW113713   2.273   3.251   0.801  0.4284  0.5664  2.3284
 1248SOL    HW213714   2.118   3.198   0.804  0.8194 -0.7217  0.5623
 1249SOL     OW13715   2.843   8.769   2.352 -0.6215 -0.3279 -0.0964
 1249SOL    HW113716   2.832   8.806   2.260 -0.0567  1.4542  0.5370
 1249SOL    HW213717   2.918   8.703   2.352  1.1917  1.6635 -0.3797
 1250SOL     OW13718   1.767   7.492   1.663 -0.4354 -0.0821  0.3572
 1250SOL    HW113719   1.746   7.587   1.688  0.4151 -0.0975  1.1671
 1250SOL    HW213720   1.713   7.430   1.720  0.4187 -0.0996  1.1616
 1251SOL     OW13721   2.280   1.793   0.096  0.0693 -0.0716  0.1433
 1251SOL    HW113722   2.371   1.796   0.136  0.4834 -0.2504 -0.7864
 1251SOL    HW213723   2.267   1.706   0.049 -0.7647 -0.2541  0.6948
 1252SOL     OW13724   3.127   5.663   2.098 -0.0205  0.4959 -0.1121
 1252SOL    HW113725   3.084   5.580   2.061 -0.0317  0.3510  0.2239
 1252SOL    HW213726   3.099   5.742   2.044 -0.0943  0.2921 -0.3696
 1253SOL     OW13727   3.487   4.906   1.656  0.1011 -0.7722  0.1429
 1253SOL    HW113728   3.478   4.861   1.567 -0.3032  0.5879 -0.5176
 1253SOL    HW213729   3.399   4.946   1.682  0.8367  0.9791 -0.0156
 1254SOL     OW13730   3.196   3.394   0.744  0.4446 -0.4196 -0.5948
 1254SOL    HW113731   3.275   3.359   0.693  0.6674 -0.6197 -0.1163
 1254SOL    HW213732   3.119   3.333   0.730  0.4174 -0.3099 -0.9364
 1255SOL     OW13733   3.868   3.413   1.682  0.2950 -0.0343 -0.2190
 1255SOL    HW113734   3.904   3.390   1.592  2.2049  0.3940  0.4207
 1255SOL    HW213735   3.918   3.364   1.753 -1.8410 -1.1239  0.5762
 1256SOL     OW13736   4.278   4.450   0.330 -0.6846  0.5099 -0.5841
 1256SOL    HW113737   4.292   4.517   0.257 -0.9944  1.0449 -0.1584
 1256SOL    HW213738   4.331   4.477   0.410 -0.0749 -0.2604 -0.7208
 1257SOL     OW13739   1.225   5.805   1.448  0.2278  0.1880  0.3436
 1257SOL    HW113740   1.238   5.899   1.417 -0.8098  0.1488 -0.2254
 1257SOL    HW213741   1.310   5.754   1.437  0.7539  1.0112  0.5117
 1258SOL     OW13742   2.248   8.141   1.270 -0.2277 -0.9829 -0.0523
 1258SOL    HW113743   2.329   8.095   1.306 -0.3000 -1.3555 -0.3644
 1258SOL    HW213744   2.220   8.098   1.185 -0.4775 -0.5525 -0.1902
 1259SOL     OW13745   1.909   6.173   1.035  0.2250 -0.1090 -0.0022
 1259SOL    HW113746   1.969   6.223   0.972  0.7255 -0.5812  0.0946
 1259SOL    HW213747   1.936   6.077   1.037 -1.4458 -0.6225 -1.0486
 1260SOL     OW13748   1.831   1.674   1.654 -0.5062 -0.3999 -0.3942
 1260SOL    HW113749   1.806   1.593   1.600  0.6356 -1.0460  0.0245
 1260SOL    HW213750   1.857   1.748   1.592 -2.1618 -0.1429 -0.7961
 1261SOL     OW13751   4.294   0.906   0.190  0.3398  0.1987  0.4314
 1261SOL    HW113752   4.357   0.858   0.251 -0.6476 -1.4161  0.2141
 1261SOL    HW213753   4.227   0.957   0.245  1.2164  1.1218  0.6628
 1262SOL     OW13754   2.728   0.480   1.016  0.4875 -0.1025  0.1509
 1262SOL    HW113755   2.816   0.520   0.990 -0.5005  0.1280 -3.0258
 1262SOL    HW213756   2.739   0.382   1.030  1.1863 -0.1434 -0.6207
 1263SOL     OW13757   0.701   4.807   0.166  0.2868 -0.0957 -0.5309
 1263SOL    HW113758   0.712   4.754   0.250  0.4726 -0.7956 -0.9890
 1263SOL    HW213759   0.781   4.792   0.107 -0.3266 -0.4573 -1.2856
 1264SOL     OW13760  10.375   3.774   1.790 -0.1118  0.5614  0.0429
 1264SOL    HW113761  10.415   3.705   1.851  1.4141 -1.4795 -3.1204
 1264SOL    HW213762  10.284   3.797   1.822 -0.4137 -2.4712  1.5858
 1265SOL     OW13763   3.842   3.640   0.131  0.6829 -0.6578 -0.4936
 1265SOL    HW113764   3.885   3.729   0.150 -0.8590  0.4466 -2.1570
 1265SOL    HW213765   3.906   3.567   0.157  2.3733  0.9225 -0.0922
 1266SOL     OW13766  10.539   5.354   2.411  0.7047  0.2269 -0.0267
 1266SOL    HW113767  10.444   5.364   2.384  0.5668  0.5555  0.5803
 1266SOL    HW213768  10.596   5.416   2.358  0.6961 -0.6046 -1.0200
 1267SOL     OW13769   3.801   7.989   2.259  0.5668  0.1507 -0.5155
 1267SOL    HW113770   3.789   7.895   2.226 -1.7724 -0.0610  0.8787
 1267SOL    HW213771   3.868   8.036   2.201  0.3048 -1.7707 -2.4309
 1268SOL     OW13772   4.556   3.287   0.325  0.5503 -0.2745 -0.0842
 1268SOL    HW113773   4.529   3.266   0.231  0.6068  1.0751 -0.4128
 1268SOL    HW213774   4.566   3.202   0.377  2.2916 -1.1383 -1.7831
 1269SOL     OW13775   2.522   8.364   2.483 -0.8571  0.0861 -1.0277
 1269SOL    HW113776   2.571   8.364   2.571 -1.4931  1.6661 -0.6415
 1269SOL    HW213777   2.570   8.425   2.419 -0.0065 -1.6040 -2.0199
 1270SOL     OW13778   1.625   5.996   0.567 -0.3192  0.1013  0.4603
 1270SOL    HW113779   1.569   6.006   0.485  0.1981 -0.0388  0.0859
 1270SOL    HW213780   1.592   5.919   0.621 -0.6546  0.1871  0.3742
 1271SOL     OW13781   4.198   5.520   2.288 -0.2615  0.1522  0.0388
 1271SOL    HW113782   4.132   5.583   2.247  0.8524  0.2380 -1.7206
 1271SOL    HW213783   4.254   5.480   2.215  1.8632  0.3619  1.5170
 1272SOL     OW13784   1.895   0.827   0.058 -0.2361 -0.2531  0.2367
 1272SOL    HW113785   1.872   0.739   0.099 -3.3451 -0.0828 -0.9505
 1272SOL    HW213786   1.879   0.822  -0.041 -1.4881  1.9226  0.2980
 1273SOL     OW13787  10.192   3.925   0.806  0.3027 -0.7377 -0.3555
 1273SOL    HW113788  10.196   3.956   0.711  1.9558  0.7813  0.1752
 1273SOL    HW213789  10.098   3.898   0.829 -0.2901 -0.2499 -2.1419
 1274SOL     OW13790   3.476   8.063   2.013 -0.1489  0.5757  0.1169
 1274SOL    HW113791   3.476   8.041   1.915  1.5961  0.6688  0.0755
 1274SOL    HW213792   3.447   7.983   2.065  1.8364 -0.4574 -0.3150
 1275SOL     OW13793   2.757   3.184   2.502 -0.0134 -0.4860 -0.5946
 1275SOL    HW113794   2.790   3.090   2.504 -0.2375 -0.5521  0.4591
 1275SOL    HW213795   2.824   3.242   2.456 -0.5457 -1.4078 -2.5540
 1276SOL     OW13796   2.692   2.107   1.149 -0.7349  0.0946 -0.1998
 1276SOL    HW113797   2.790   2.085   1.157 -0.8140 -0.6909 -1.2979
 1276SOL    HW213798   2.662   2.154   1.233  0.5120  0.1032  0.2639
 1277SOL     OW13799   2.450   0.693   0.363 -0.7038 -0.0688 -0.1720
 1277SOL    HW113800   2.519   0.747   0.412 -0.2227 -2.3473  1.7575
 1277SOL    HW213801   2.360   0.735   0.375 -0.0843  1.2597 -0.1542
 1278SOL     OW13802   1.471   6.337   0.987  0.4022  0.0751 -0.0189
 1278SOL    HW113803   1.409   6.356   1.064  0.7539 -2.5256  0.9692
 1278SOL    HW213804   1.430   6.369   0.902  0.1541  3.3043  1.2796
 1279SOL     OW13805   2.382   2.300   1.074 -0.0589 -0.4164  0.2265
 1279SOL    HW113806   2.321   2.377   1.056  0.2637 -0.2850 -0.3468
 1279SOL    HW213807   2.401   2.253   0.987  1.8670  0.4631  0.1486
 1280SOL     OW13808   4.286   2.186   2.535 -0.4512 -0.4767 -0.4697
 1280SOL    HW113809   4.226   2.107   2.546 -0.3991 -0.4098  0.2745
 1280SOL    HW213810   4.363   2.161   2.475  0.1291 -1.2985  0.6054
 1281SOL     OW13811  10.584   6.641   2.548 -0.1545  0.0393  0.1984
 1281SOL    HW113812  10.587   6.722   2.606  1.4019 -0.7951  1.3521
 1281SOL    HW213813  10.677   6.614   2.524 -0.6980 -0.8669 -0.9263
 1282SOL     OW13814   1.766   5.111   1.555  0.2008  0.2241 -0.3437
 1282SOL    HW113815   1.855   5.129   1.512  0.0482 -0.6518 -1.0636
 1282SOL    HW213816   1.764   5.017   1.588 -1.1286 -0.4044 -2.0787
 1283SOL     OW13817   5.030   2.893   0.361 -0.3309  0.8644 -0.0888
 1283SOL    HW113818   4.932   2.871   0.358 -0.3648  0.4701  2.5280
 1283SOL    HW213819   5.055   2.945   0.280 -2.5698  0.3642 -1.1307
 1284SOL     OW13820   2.830   4.682   2.391  0.0217 -0.5417 -0.8018
 1284SOL    HW113821   2.923   4.661   2.359  0.4351  0.3421 -0.1885
 1284SOL    HW213822   2.786   4.744   2.326  1.3022  2.2489  0.9013
 1285SOL     OW13823   4.765   2.275   0.051  0.1450 -0.0357  0.2299
 1285SOL    HW113824   4.703   2.330   0.107  0.9216  0.0017  1.0745
 1285SOL    HW213825   4.729   2.182   0.043 -0.4970  0.2405 -0.0786
 1286SOL     OW13826   3.331   9.878   1.610  0.2283  0.2478  0.0199
 1286SOL    HW113827   3.427   9.850   1.613 -0.3871 -2.0238 -0.0266
 1286SOL    HW213828   3.291   9.848   1.523 -1.3541 -1.7927  1.4108
 1287SOL     OW13829   3.908   9.292   1.095  0.3340  0.3142 -0.1260
 1287SOL    HW113830   4.001   9.329   1.099  0.7807 -0.9505  1.3722
 1287SOL    HW213831   3.843   9.364   1.119  0.9728  0.9732 -0.3410
 1288SOL     OW13832   2.232   3.795   0.538 -0.1728 -0.2366  0.5440
 1288SOL    HW113833   2.293   3.874   0.536  2.2352 -2.0510 -1.5458
 1288SOL    HW213834   2.250   3.742   0.621  1.2256 -0.8162 -0.1066
 1289SOL     OW13835   1.462   4.598   0.558  0.3011  0.9430 -0.8119
 1289SOL    HW113836   1.438   4.501   0.567  0.7673  0.8375 -0.6844
 1289SOL    HW213837   1.440   4.629   0.466 -1.7919  1.2644 -0.2473
 1290SOL     OW13838   1.431   3.269   0.551 -0.4295  0.0930 -0.0910
 1290SOL    HW113839   1.400   3.309   0.637  0.9475 -0.0566  0.4970
 1290SOL    HW213840   1.487   3.335   0.502 -1.2322  0.1850 -0.8934
 1291SOL     OW13841   1.542   2.841   2.570 -0.1191  0.1910 -0.6110
 1291SOL    HW113842   1.565   2.886   2.484  1.1297 -0.0195 -0.3950
 1291SOL    HW213843   1.615   2.856   2.636 -2.1545  2.4230  1.2349
 1292SOL     OW13844   3.073   2.059   2.327  0.2475  0.0914 -0.4249
 1292SOL    HW113845   3.002   2.074   2.257 -1.2348  1.4552  1.3284
 1292SOL    HW213846   3.130   2.140   2.335  0.0780  0.1454  0.2977
 1293SOL     OW13847   3.697   9.848   2.571  0.8757  0.5127 -0.4938
 1293SOL    HW113848   3.607   9.814   2.544  1.5929 -2.8920  1.1624
 1293SOL    HW213849   3.688   9.942   2.606 -2.0634  0.1313 -0.0954
 1294SOL     OW13850   4.153  10.089   0.305  0.1929 -0.6891  0.2510
 1294SOL    HW113851   4.241  10.055   0.274 -0.3165 -2.8779  1.1143
 1294SOL    HW213852   4.102  10.127   0.227  1.6335  0.0599 -0.3425
 1295SOL     OW13853   2.572   9.682   1.919  0.1664  0.4391 -0.5151
 1295SOL    HW113854   2.571   9.766   1.865  0.0097  0.2501 -0.8080
 1295SOL    HW213855   2.603   9.703   2.012  0.5181  0.7518 -0.6981
 1296SOL     OW13856   1.868   5.043   0.571 -0.5236  0.0376 -0.4225
 1296SOL    HW113857   1.895   5.087   0.657 -0.3569 -0.2563 -0.3231
 1296SOL    HW213858   1.780   4.996   0.584  0.1987 -1.2200 -0.0019
 1297SOL     OW13859   1.957   7.114   1.896  0.1112  0.4993 -0.0221
 1297SOL    HW113860   1.916   7.116   1.987  0.1598 -0.3593  0.0223
 1297SOL    HW213861   1.888   7.090   1.828  0.0268  1.3480 -0.2472
 1298SOL     OW13862   4.564   4.800   1.139  0.4008  0.1391 -0.2987
 1298SOL    HW113863   4.574   4.821   1.042 -0.1007  0.6830 -0.2365
 1298SOL    HW213864   4.602   4.709   1.158 -0.6633 -0.5096 -1.2416
 1299SOL     OW13865   2.580   3.164   0.260  0.1619 -0.5869  0.3276
 1299SOL    HW113866   2.556   3.070   0.285 -2.1961  0.2248  1.2008
 1299SOL    HW213867   2.538   3.228   0.325 -1.9757  1.3146 -2.8309
 1300SOL     OW13868   2.437   5.323   0.182  0.2296 -0.4115 -0.1944
 1300SOL    HW113869   2.490   5.325   0.097 -2.3777 -2.8976 -1.9595
 1300SOL    HW213870   2.459   5.240   0.233 -0.0992 -0.1645  0.3564
 1301SOL     OW13871   5.020   1.598   0.326  0.0882 -0.3461 -0.1285
 1301SOL    HW113872   5.060   1.670   0.383  2.2892  1.1316 -3.3712
 1301SOL    HW213873   4.990   1.637   0.240  2.3596 -3.4530 -2.4334
 1302SOL     OW13874   4.227   3.391   1.258 -0.0640  0.3258  0.0596
 1302SOL    HW113875   4.272   3.419   1.343  0.7662  0.6666 -0.4848
 1302SOL    HW213876   4.217   3.470   1.198 -0.2179 -0.0071 -0.3550
 1303SOL     OW13877   2.525   7.039   1.876  0.2498  0.0851  0.2190
 1303SOL    HW113878   2.581   7.010   1.954  1.0986 -0.5814 -0.6253
 1303SOL    HW213879   2.428   7.024   1.896  0.6366 -3.5523 -0.2377
 1304SOL     OW13880   2.265   5.063   2.586 -0.3204 -0.5601  0.7286
 1304SOL    HW113881   2.298   5.034   2.496 -1.3170  0.0494  0.1552
 1304SOL    HW213882   2.314   5.013   2.657  2.1078  0.6044 -0.0797
 1305SOL     OW13883   3.698   1.586   0.955 -0.2541 -1.1062 -0.0019
 1305SOL    HW113884   3.746   1.521   1.013  0.6370 -0.9813 -0.5705
 1305SOL    HW213885   3.765   1.633   0.896 -1.1246 -1.2307 -1.1153
 1306SOL     OW13886   9.929   4.610   0.084  0.2665  0.5753 -1.1336
 1306SOL    HW113887   9.835   4.590   0.055  0.7273  0.7342 -2.7431
 1306SOL    HW213888   9.959   4.696   0.043  1.1265  0.5302 -0.6073
 1307SOL     OW13889   1.602   0.680   2.352 -0.0500  0.2888  0.1225
 1307SOL    HW113890   1.543   0.674   2.433 -0.1559  0.7031  0.0771
 1307SOL    HW213891   1.688   0.633   2.370 -0.9085 -1.5208 -0.2820
 1308SOL     OW13892   3.487   8.608   2.605  0.2862  0.1108 -0.3327
 1308SOL    HW113893   3.443   8.530   2.649 -0.1335  0.0029 -0.9535
 1308SOL    HW213894   3.561   8.576   2.546  0.7562  0.2487  0.1795
 1309SOL     OW13895   1.551   6.866   1.956 -0.5987  0.1524 -0.7885
 1309SOL    HW113896   1.642   6.859   1.997 -0.0913 -0.1932 -1.9569
 1309SOL    HW213897   1.485   6.820   2.015  0.1112 -0.2726 -0.3153
 1310SOL     OW13898   1.860   0.851   1.580 -0.3603  0.1872  0.6702
 1310SOL    HW113899   1.814   0.877   1.665  0.9797 -0.9927  1.7687
 1310SOL    HW213900   1.957   0.870   1.588  0.0349 -1.4675  0.0223
 1311SOL     OW13901   3.618   8.790   0.645 -0.4906 -0.5945  0.1722
 1311SOL    HW113902   3.624   8.706   0.698  2.2197 -0.5922 -0.0964
 1311SOL    HW213903   3.674   8.861   0.687 -0.0986  0.0805 -1.4281
 1312SOL     OW13904   2.621   0.635   1.625 -0.5035  0.0057 -0.5238
 1312SOL    HW113905   2.538   0.587   1.596 -1.6659  1.4162  0.3734
 1312SOL    HW213906   2.636   0.619   1.723 -0.6971  1.1349 -0.2981
 1313SOL     OW13907   1.852   1.462   0.474  0.9584  0.0590 -0.2145
 1313SOL    HW113908   1.762   1.466   0.516  1.2501  0.3648  0.3781
 1313SOL    HW213909   1.894   1.373   0.495  1.4504  0.5399  0.8512
 1314SOL     OW13910   4.403   1.160   0.702 -0.2585 -0.3973 -0.1666
 1314SOL    HW113911   4.383   1.258   0.697  1.1335 -0.0762  0.4345
 1314SOL    HW213912   4.401   1.130   0.797  0.8193 -0.6367 -0.2225
 1315SOL     OW13913   1.919   5.154   0.334 -0.3033  0.1662  0.6550
 1315SOL    HW113914   1.947   5.116   0.245 -0.4610  0.3175  0.5389
 1315SOL    HW213915   1.911   5.080   0.401  0.1859  0.0996  0.6409
 1316SOL     OW13916   1.988   6.814   1.015  0.0263  0.4614  0.2246
 1316SOL    HW113917   2.018   6.889   1.075  1.3129  0.1316  0.0007
 1316SOL    HW213918   2.042   6.816   0.930 -1.1295  0.3394 -0.5209
 1317SOL     OW13919   2.153   7.316   1.492 -0.2758 -0.5596 -0.2881
 1317SOL    HW113920   2.235   7.351   1.446 -0.2154  0.8651  0.8383
 1317SOL    HW213921   2.177   7.238   1.549  0.5689  0.6869  1.0825
 1318SOL     OW13922   5.140   3.771   2.197 -0.6428 -0.0904  0.6164
 1318SOL    HW113923   5.088   3.842   2.244 -0.9884  0.2395 -0.2483
 1318SOL    HW213924   5.234   3.770   2.231 -0.1629  1.9280 -0.5303
 1319SOL     OW13925   2.164   8.840   0.284 -0.1006  0.3002  0.2297
 1319SOL    HW113926   2.193   8.894   0.363  1.4276 -1.8847  1.2066
 1319SOL    HW213927   2.130   8.751   0.316  0.4520 -0.5700 -1.5565
 1320SOL     OW13928   0.851   5.307   0.772  0.2685 -0.2955  0.0818
 1320SOL    HW113929   0.840   5.215   0.810 -1.0254  0.0668  0.6114
 1320SOL    HW213930   0.821   5.374   0.840 -2.4350  0.3426 -1.6528
 1321SOL     OW13931  10.553   4.329   1.906  0.8687  0.3095  0.0845
 1321SOL    HW113932  10.595   4.283   1.985  1.6329  0.7560 -0.0607
 1321SOL    HW213933  10.461   4.292   1.892  0.7259  0.2220  1.1812
 1322SOL     OW13934   1.743   6.068   1.701 -0.0544  0.5452  0.8203
 1322SOL    HW113935   1.821   6.098   1.645  1.4647 -0.2277  2.4695
 1322SOL    HW213936   1.658   6.094   1.656  1.1442  0.9090 -1.3107
 1323SOL     OW13937   2.621   9.285   2.538 -0.0534 -0.2790 -0.2593
 1323SOL    HW113938   2.696   9.219   2.538  1.0273  0.9314 -0.1313
 1323SOL    HW213939   2.655   9.374   2.508 -1.5418  0.1782 -0.6411
 1324SOL     OW13940   3.201   8.272   1.292  0.3398  0.0151  0.4886
 1324SOL    HW113941   3.102   8.258   1.296  0.2623  0.5352  0.4301
 1324SOL    HW213942   3.239   8.267   1.384 -0.0216  1.8022  0.7480
 1325SOL     OW13943   2.649   7.416   1.614  0.1615  0.2670  0.3628
 1325SOL    HW113944   2.571   7.467   1.651  0.2653  0.4545  0.3233
 1325SOL    HW213945   2.706   7.477   1.560  0.8353  0.3407  1.1505
 1326SOL     OW13946   1.234   4.685   0.159 -0.2985 -0.1233 -0.3319
 1326SOL    HW113947   1.186   4.706   0.244 -0.9967  0.0774 -0.7645
 1326SOL    HW213948   1.195   4.602   0.119 -0.3541  0.0965 -0.7380
 1327SOL     OW13949   2.119   6.101   0.030 -0.4488 -0.5625 -0.2765
 1327SOL    HW113950   2.105   6.005   0.006  4.4208 -1.1907 -1.1698
 1327SOL    HW213951   2.130   6.154  -0.054 -0.7407  0.3556  0.2642
 1328SOL     OW13952   3.716   1.697   0.036 -0.4068  0.1815 -0.0574
 1328SOL    HW113953   3.658   1.777   0.055 -0.0862  0.2352  0.7008
 1328SOL    HW213954   3.806   1.728   0.005 -0.2394  0.1137  0.3628
 1329SOL     OW13955   1.558   2.916   2.270 -0.0255 -0.4260  0.0915
 1329SOL    HW113956   1.631   2.851   2.248  0.3796  0.4195 -1.1230
 1329SOL    HW213957   1.595   3.009   2.269 -0.4219 -0.2034  2.5978
 1330SOL     OW13958   2.789   3.600   0.230  0.0152 -0.4282 -0.0988
 1330SOL    HW113959   2.693   3.625   0.243  0.0820 -0.9289  1.4566
 1330SOL    HW213960   2.795   3.504   0.203  0.1179 -0.6802  0.7948
 1331SOL     OW13961   5.493   3.567   0.632 -0.0486  0.3994  0.6209
 1331SOL    HW113962   5.495   3.468   0.618 -0.3249  0.9750 -4.0385
 1331SOL    HW213963   5.404   3.604   0.606 -0.3876  1.7801  3.5141
 1332SOL     OW13964   2.533   6.363   0.114 -0.2741 -0.5796 -0.1810
 1332SOL    HW113965   2.541   6.263   0.117 -0.3802 -0.5647  0.7713
 1332SOL    HW213966   2.510   6.397   0.205 -5.3630 -0.0821 -1.5387
 1333SOL     OW13967   2.943   1.468   1.275  0.5235  0.7549  0.1405
 1333SOL    HW113968   2.912   1.377   1.302  0.3338  0.1073 -2.1966
 1333SOL    HW213969   2.891   1.537   1.326 -0.5929 -0.4076  0.6084
 1334SOL     OW13970   3.642   5.937   0.626 -0.2207 -0.1061  0.1405
 1334SOL    HW113971   3.661   5.985   0.541 -0.2067  0.3117  0.3782
 1334SOL    HW213972   3.728   5.913   0.671 -0.2107  2.6000  1.6752
 1335SOL     OW13973   3.738   4.229   2.154 -0.3705 -0.1360  0.1045
 1335SOL    HW113974   3.798   4.279   2.217  0.0064 -0.6027  0.1242
 1335SOL    HW213975   3.783   4.144   2.127 -0.6653 -0.0800 -0.5573
 1336SOL     OW13976   2.043   6.585   1.580  0.0317 -0.1573  0.1761
 1336SOL    HW113977   2.045   6.668   1.636  0.1044 -0.5304  0.7347
 1336SOL    HW213978   2.030   6.610   1.484  2.4172  0.6382  0.0303
 1337SOL     OW13979   3.691  10.104   2.310 -0.8343  0.0173  0.1017
 1337SOL    HW113980   3.650  10.014   2.299  0.5278 -0.3817 -2.1242
 1337SOL    HW213981   3.769  10.097   2.372 -0.6894 -0.3518 -0.1186
 1338SOL     OW13982   1.705   3.173   1.924 -0.2269  0.6584 -0.2363
 1338SOL    HW113983   1.785   3.179   1.983 -1.3070  1.1314  1.2158
 1338SOL    HW213984   1.734   3.160   1.829  1.5470  0.5854  0.2999
 1339SOL     OW13985   2.405   5.250   0.712  0.2807  0.4457 -0.3522
 1339SOL    HW113986   2.497   5.280   0.689  0.4909 -0.5821 -0.8628
 1339SOL    HW213987   2.343   5.269   0.636  0.1023  0.9320 -0.0947
 1340SOL     OW13988   2.727   1.376   1.767 -0.2816 -0.2131  0.2285
 1340SOL    HW113989   2.805   1.437   1.784  1.7343 -2.7083  0.1579
 1340SOL    HW213990   2.691   1.342   1.853  1.0010 -1.8266  0.1587
 1341SOL     OW13991   1.509   6.540   0.579 -0.0793  0.5459  0.3470
 1341SOL    HW113992   1.546   6.593   0.503  0.0105 -1.3845 -0.9774
 1341SOL    HW213993   1.439   6.594   0.626 -0.2550  1.6874 -1.1890
 1342SOL     OW13994   2.262   9.631   0.296 -0.0304 -0.4188 -0.7578
 1342SOL    HW113995   2.199   9.553   0.291 -0.9811  0.1354  1.7305
 1342SOL    HW213996   2.298   9.637   0.389  0.5747  1.6979 -1.1255
 1343SOL     OW13997   3.839   9.588   0.786 -0.2681  0.0736 -0.6021
 1343SOL    HW113998   3.801   9.646   0.858  0.6363 -0.2117  0.1054
 1343SOL    HW213999   3.790   9.500   0.786 -2.1780  1.0845 -2.1911
 1344SOL     OW14000   4.945   1.852   0.208  0.5986 -0.2514 -0.4197
 1344SOL    HW114001   4.925   1.938   0.254  0.4763 -1.3644  1.6372
 1344SOL    HW214002   5.044   1.838   0.204  0.6655  0.4232 -1.6382
 1345SOL     OW14003   2.530   1.576   1.393 -0.3199 -0.2376 -0.5807
 1345SOL    HW114004   2.451   1.637   1.395  1.3291  2.0795 -2.2974
 1345SOL    HW214005   2.560   1.564   1.299  1.8465 -0.3963  0.1000
 1346SOL     OW14006   1.499   6.069   0.323  0.5488  0.3382  0.4510
 1346SOL    HW114007   1.585   6.061   0.273  0.7569 -0.0889  0.8711
 1346SOL    HW214008   1.424   6.036   0.266  0.9710 -1.5162  0.9304
 1347SOL     OW14009  10.159   5.573   0.002 -0.4425 -0.3036  0.7857
 1347SOL    HW114010  10.146   5.544   0.097  0.9564  0.9396  1.3716
 1347SOL    HW214011  10.257   5.574  -0.019 -0.7927 -1.4979 -0.9758
 1348SOL     OW14012   3.575   2.833   2.313 -0.0243 -0.3089 -0.2878
 1348SOL    HW114013   3.497   2.816   2.253  0.6070  0.4557 -1.3581
 1348SOL    HW214014   3.638   2.756   2.309 -0.2628 -0.5115 -0.1574
 1349SOL     OW14015   2.113   3.539   0.731  0.3637 -0.1108 -0.5290
 1349SOL    HW114016   2.040   3.575   0.789 -0.8536  0.3426 -2.3134
 1349SOL    HW214017   2.138   3.447   0.762 -1.8840 -0.8048 -0.7327
 1350SOL     OW14018   4.224   2.957   0.797  0.0332 -0.2835  0.6966
 1350SOL    HW114019   4.191   2.873   0.839 -2.1851  0.1132 -0.1628
 1350SOL    HW214020   4.180   3.036   0.841 -0.5595  0.2425 -0.8256
 1351SOL     OW14021   2.403  10.100   0.623 -0.5301  0.7252  0.0632
 1351SOL    HW114022   2.483  10.123   0.678 -0.7096 -0.6649  0.9288
 1351SOL    HW214023   2.432  10.052   0.540 -0.4559  0.3339  0.3148
 1352SOL     OW14024   3.714   9.714   2.247  0.1808  1.0658  0.3047
 1352SOL    HW114025   3.635   9.695   2.305 -0.4828  2.4278 -0.1388
 1352SOL    HW214026   3.693   9.688   2.152  1.3745 -1.4565  0.6854
 1353SOL     OW14027   2.289   2.820   1.949  0.1496  0.4782  0.1606
 1353SOL    HW114028   2.371   2.855   1.995 -0.1541  1.3627  0.0262
 1353SOL    HW214029   2.315   2.775   1.864  0.7716 -1.5478  1.3708
 1354SOL     OW14030   1.460   5.745   0.445 -0.0613 -0.8739  0.1755
 1354SOL    HW114031   1.510   5.771   0.528  0.7113  2.4943 -1.2810
 1354SOL    HW214032   1.363   5.738   0.465  0.0322  0.6839  1.1927
 1355SOL     OW14033   2.613   8.028   1.948  0.5770  0.8357  0.1248
 1355SOL    HW114034   2.526   7.983   1.968  0.9823 -0.1738 -0.3567
 1355SOL    HW214035   2.602   8.087   1.868  0.8452 -0.9060 -1.2268
 1356SOL     OW14036   3.734   9.185   2.234  0.5767  0.3852 -0.6541
 1356SOL    HW114037   3.782   9.267   2.266 -0.2718  1.9939 -3.3541
 1356SOL    HW214038   3.641   9.186   2.269  0.9409 -0.0804  0.3401
 1357SOL     OW14039   2.902  10.339   1.263 -1.0637 -0.2777  0.4755
 1357SOL    HW114040   2.912  10.358   1.361  0.1602  0.5549  0.2031
 1357SOL    HW214041   2.991  10.347   1.218 -1.7889  0.3819 -0.8836
 1358SOL     OW14042   3.448   2.497   0.485 -0.7227 -0.3963 -0.1995
 1358SOL    HW114043   3.544   2.469   0.481 -0.8292 -0.7165 -0.5554
 1358SOL    HW214044   3.441   2.588   0.528 -0.3900 -0.9671  1.0862
 1359SOL     OW14045   4.202   2.849   1.882 -0.1390 -0.0332 -0.4951
 1359SOL    HW114046   4.212   2.924   1.948 -1.2081 -0.3043 -0.0179
 1359SOL    HW214047   4.107   2.846   1.849 -0.4740 -2.0713  0.5700
 1360SOL     OW14048   3.462   3.129   2.037 -0.0672  0.2786  0.2980
 1360SOL    HW114049   3.374   3.170   2.013 -0.0877  1.1047  1.7016
 1360SOL    HW214050   3.490   3.065   1.966 -0.7953  1.5786 -1.1862
 1361SOL     OW14051   4.139   9.856   0.950  0.3024  0.0992 -0.3361
 1361SOL    HW114052   4.115   9.937   1.003  1.1087  0.9500 -1.2507
 1361SOL    HW214053   4.235   9.833   0.966  0.3717 -0.0194 -0.9126
 1362SOL     OW14054   2.153   6.370   1.409 -0.3522 -0.0209 -0.4949
 1362SOL    HW114055   2.238   6.421   1.423  0.1331 -1.0613  0.3815
 1362SOL    HW214056   2.086   6.398   1.478 -1.0333  1.4293 -1.7131
 1363SOL     OW14057   4.687   3.662   0.061 -0.1598 -0.2519 -0.0049
 1363SOL    HW114058   4.690   3.620   0.151 -0.5004 -1.1884 -0.4279
 1363SOL    HW214059   4.619   3.616   0.004 -0.1791  0.5367 -0.6390
 1364SOL     OW14060   2.574   7.134   0.497  0.2300 -0.2602  0.9234
 1364SOL    HW114061   2.541   7.106   0.587 -1.1758  0.2079  0.5689
 1364SOL    HW214062   2.500   7.124   0.430  1.4826 -1.2930 -0.3109
 1365SOL     OW14063   4.263   1.335   2.010  0.1177 -0.5029 -0.1765
 1365SOL    HW114064   4.298   1.252   1.966  1.4935 -0.1684  0.2644
 1365SOL    HW214065   4.340   1.393   2.038 -0.8438  1.1586 -0.9214
 1366SOL     OW14066   2.159   9.855   0.550 -0.1182 -0.1827 -0.1152
 1366SOL    HW114067   2.245   9.889   0.512 -0.0441 -1.0921 -0.7643
 1366SOL    HW214068   2.173   9.766   0.592 -0.8882 -0.6599 -0.8505
 1367SOL     OW14069   4.063   4.893   1.136  0.7651  0.0832 -0.3219
 1367SOL    HW114070   4.125   4.815   1.137  0.1630 -0.3978 -0.6074
 1367SOL    HW214071   4.113   4.975   1.165  0.6490 -0.9677  3.0211
 1368SOL     OW14072   0.944   6.413   1.294  0.4841  0.0412 -0.4932
 1368SOL    HW114073   0.868   6.349   1.279 -0.9441  1.6713 -0.4496
 1368SOL    HW214074   1.016   6.369   1.347 -0.0981 -1.7816 -1.1947
 1369SOL     OW14075   2.260   9.581   1.070  0.2718 -0.1113  0.3054
 1369SOL    HW114076   2.209   9.499   1.095 -0.9396  0.7220  0.5621
 1369SOL    HW214077   2.307   9.565   0.983 -0.3565 -0.8942  0.1014
 1370SOL     OW14078   3.363   8.282   0.965  0.1471  0.3450  0.0981
 1370SOL    HW114079   3.282   8.295   0.909  0.5250  1.5925 -0.1604
 1370SOL    HW214080   3.387   8.367   1.011  0.8098 -0.2323  0.8592
 1371SOL     OW14081   4.251   3.691   2.011  0.3052 -0.1527  0.2328
 1371SOL    HW114082   4.208   3.758   2.073 -0.3413  1.0221 -1.4580
 1371SOL    HW214083   4.181   3.650   1.952  0.9991 -0.8645 -0.1018
 1372SOL     OW14084   1.112   2.349   1.142  0.7757  0.4440 -1.2276
 1372SOL    HW114085   1.150   2.355   1.235  0.5351  0.7830 -1.1511
 1372SOL    HW214086   1.051   2.270   1.136  0.9427  0.3072 -1.1542
 1373SOL     OW14087   4.780   3.105   0.661  0.1884  0.3261  0.6162
 1373SOL    HW114088   4.767   3.015   0.702  1.4230  0.2954  0.9651
 1373SOL    HW214089   4.725   3.112   0.578  0.2179 -0.8244  0.4861
 1374SOL     OW14090   3.163   4.662   0.814  0.0780  0.3197 -0.1653
 1374SOL    HW114091   3.117   4.713   0.886  0.9253 -0.5589  1.0217
 1374SOL    HW214092   3.095   4.613   0.758 -0.5496  0.6360  0.3231
 1375SOL     OW14093   2.126   6.579   2.437 -0.5935  0.2728  0.2636
 1375SOL    HW114094   2.162   6.520   2.509  0.8381 -0.3892 -0.9733
 1375SOL    HW214095   2.056   6.530   2.385 -1.8194  0.8414  1.3452
 1376SOL     OW14096   1.108   4.862   1.558  0.1333 -0.2121 -0.3462
 1376SOL    HW114097   1.036   4.794   1.541 -0.6409  0.7069 -0.7857
 1376SOL    HW214098   1.069   4.954   1.553  0.9063  0.2481  1.4676
 1377SOL     OW14099   3.291  10.286   2.044 -0.2824  0.3546 -0.2232
 1377SOL    HW114100   3.229  10.362   2.063  0.5566  1.0738 -0.3235
 1377SOL    HW214101   3.342  10.305   1.960 -0.0096 -0.2777 -0.2015
 1378SOL     OW14102   2.145   2.126   2.185 -0.5171 -0.3645 -0.0889
 1378SOL    HW114103   2.204   2.066   2.131 -2.1967 -1.6460 -0.5313
 1378SOL    HW214104   2.179   2.130   2.279  1.5420  0.6775 -0.8453
 1379SOL     OW14105   2.857   4.471   1.313 -0.6109  0.1106 -0.1361
 1379SOL    HW114106   2.880   4.382   1.275 -1.7249  0.1509 -0.9332
 1379SOL    HW214107   2.941   4.521   1.335  0.0134 -1.0660  0.1638
 1380SOL     OW14108   3.505   3.927   0.488  0.2055  0.1984  0.1328
 1380SOL    HW114109   3.461   3.968   0.568 -0.8653 -0.3890 -0.1437
 1380SOL    HW214110   3.440   3.922   0.413  1.0634  0.2959 -0.6259
 1381SOL     OW14111   2.663   0.392   2.349  0.9963 -0.3920 -0.5231
 1381SOL    HW114112   2.693   0.298   2.365 -0.1218 -0.4197  1.6632
 1381SOL    HW214113   2.603   0.395   2.270  0.7321 -1.5998 -0.3781
 1382SOL     OW14114   4.161   8.195   0.658 -0.4237 -0.0065 -0.6019
 1382SOL    HW114115   4.192   8.239   0.742  0.6305 -1.2566 -0.3243
 1382SOL    HW214116   4.184   8.252   0.579  2.0799 -0.6147 -0.3493
 1383SOL     OW14117   2.788   8.545   1.734 -0.4633 -0.0627  0.1772
 1383SOL    HW114118   2.711   8.577   1.791  0.2312 -0.8054  1.5549
 1383SOL    HW214119   2.795   8.446   1.741  1.2177  0.0957  0.8291
 1384SOL     OW14120   2.126   0.663   0.539  0.4011  0.2097  0.1020
 1384SOL    HW114121   2.144   0.650   0.442 -1.0945 -0.9428 -0.0286
 1384SOL    HW214122   2.077   0.584   0.575 -0.3334  1.2655  1.4751
 1385SOL     OW14123   4.525   2.706   0.996 -0.1047  0.4006 -0.0629
 1385SOL    HW114124   4.439   2.693   1.046 -0.7714  1.4505 -0.9232
 1385SOL    HW214125   4.522   2.792   0.945  1.3329  0.2850 -0.3700
 1386SOL     OW14126   1.211   2.367   1.393 -0.2713  0.6337  0.2689
 1386SOL    HW114127   1.219   2.285   1.450  2.8657  0.0717 -0.9218
 1386SOL    HW214128   1.215   2.448   1.452  1.6694  0.0257  1.0237
 1387SOL     OW14129   0.730   5.884   2.369  0.0136 -0.1161  0.8189
 1387SOL    HW114130   0.675   5.966   2.388  0.0388  0.0065  0.3802
 1387SOL    HW214131   0.700   5.844   2.282  1.1170  0.3857  0.1892
 1388SOL     OW14132   4.009   9.785   1.909 -0.2525 -0.3061  0.0343
 1388SOL    HW114133   4.046   9.810   1.998  1.8605  0.1751 -0.9601
 1388SOL    HW214134   4.062   9.711   1.869  1.4047  2.1792 -2.5757
 1389SOL     OW14135   1.886  10.260   2.584 -0.5411 -0.3066 -0.3509
 1389SOL    HW114136   1.816  10.250   2.654 -1.0268 -2.6002 -1.1160
 1389SOL    HW214137   1.977  10.251   2.625 -0.7982 -0.5802  0.1588
 1390SOL     OW14138   3.374   8.001   2.470 -0.2524 -0.0423  0.0653
 1390SOL    HW114139   3.283   7.968   2.446 -0.6073 -0.2718  1.6652
 1390SOL    HW214140   3.407   8.064   2.399 -0.7371 -1.6286 -1.6016
 1391SOL     OW14141   4.361   9.392   1.828 -0.2301  0.1393  0.5687
 1391SOL    HW114142   4.302   9.323   1.870 -0.1613  0.3199  0.9630
 1391SOL    HW214143   4.422   9.430   1.897  1.0288 -0.7502 -0.0463
 1392SOL     OW14144   3.121   8.912   1.321  0.6110  0.2783  0.0842
 1392SOL    HW114145   3.091   8.824   1.285 -0.5166  0.5516  0.3375
 1392SOL    HW214146   3.169   8.964   1.249  0.8166 -0.3157 -0.2078
 1393SOL     OW14147   2.035   5.837   0.057 -0.2909  0.3590 -0.2193
 1393SOL    HW114148   2.085   5.855   0.142  0.6055 -0.9178 -0.4608
 1393SOL    HW214149   1.996   5.745   0.060  0.0025  0.1890 -1.3046
 1394SOL     OW14150   1.439   2.939   1.734  0.0741 -0.2189 -0.1209
 1394SOL    HW114151   1.442   2.981   1.825 -1.0552 -0.1726 -0.1007
 1394SOL    HW214152   1.500   2.860   1.732 -2.6056 -2.4187  1.8079
 1395SOL     OW14153   3.161   2.329   0.106 -0.0070  0.0541 -0.4440
 1395SOL    HW114154   3.223   2.407   0.116 -0.1200  0.3319 -1.8022
 1395SOL    HW214155   3.214   2.247   0.087 -0.0186  0.1945 -1.0909
 1396SOL     OW14156   1.638   2.216   0.164 -0.2938  0.2379  0.4683
 1396SOL    HW114157   1.677   2.138   0.213  0.9726 -0.1098 -1.0418
 1396SOL    HW214158   1.578   2.183   0.091 -0.6015  0.7009  0.5087
 1397SOL     OW14159   2.244   3.064   2.563 -0.0153  0.9100 -0.5507
 1397SOL    HW114160   2.174   3.127   2.599 -0.5116  0.8534 -1.4241
 1397SOL    HW214161   2.331   3.081   2.611 -0.7576  0.6033  0.9209
 1398SOL     OW14162   2.754   1.329   2.124  0.0892 -0.0637  0.7234
 1398SOL    HW114163   2.711   1.391   2.189 -1.7779 -0.0153 -0.4965
 1398SOL    HW214164   2.700   1.245   2.118 -0.0960  0.1515 -1.1284
 1399SOL     OW14165   4.203   8.980   1.146  0.2003  0.5018 -0.3832
 1399SOL    HW114166   4.111   8.957   1.177  0.2761  1.1157  0.3032
 1399SOL    HW214167   4.206   9.076   1.119  1.2264  1.1274  1.8679
 1400SOL     OW14168   3.464   1.285   1.991 -0.5172 -0.7472 -0.3536
 1400SOL    HW114169   3.503   1.372   2.022  2.2575 -2.0486 -0.0639
 1400SOL    HW214170   3.504   1.260   1.903 -0.7346 -2.0993 -0.0788
 1401SOL     OW14171   2.427   9.076   1.343 -0.1522 -0.4543 -0.1226
 1401SOL    HW114172   2.426   8.989   1.293 -0.2517  0.3480 -1.5544
 1401SOL    HW214173   2.519   9.116   1.338  0.0543 -0.7591  1.0523
 1402SOL     OW14174   4.349   1.555   2.596  0.2396  0.1008 -0.3252
 1402SOL    HW114175   4.279   1.497   2.556  0.0499 -1.1905  1.7921
 1402SOL    HW214176   4.435   1.504   2.602 -0.1569 -0.3338  2.3800
 1403SOL     OW14177   4.218   2.672   0.519  0.2206  0.1528  0.0037
 1403SOL    HW114178   4.243   2.610   0.593 -1.4177 -0.5282  0.0140
 1403SOL    HW214179   4.225   2.625   0.431 -0.1641  0.2181 -0.0641
 1404SOL     OW14180   4.202   4.515   0.663  0.2722  0.4312 -0.7580
 1404SOL    HW114181   4.166   4.587   0.723 -0.9992 -1.7744  1.1904
 1404SOL    HW214182   4.138   4.500   0.588 -0.2502  0.2238 -0.2741
 1405SOL     OW14183   1.580   7.172   1.794  0.0749  0.2319 -0.7340
 1405SOL    HW114184   1.627   7.084   1.786  0.2899  0.3855 -1.1211
 1405SOL    HW214185   1.629   7.230   1.859  1.2721  0.9613 -2.2819
 1406SOL     OW14186   0.962   4.247   1.096  0.3134 -0.4693 -0.0283
 1406SOL    HW114187   0.867   4.225   1.075  0.6352 -2.9941  0.9230
 1406SOL    HW214188   1.009   4.275   1.013 -0.4670 -2.3518 -1.1443
 1407SOL     OW14189  10.179   5.317   0.528  0.3073 -0.1360  0.0066
 1407SOL    HW114190  10.276   5.298   0.545  0.2161 -1.3180 -0.6943
 1407SOL    HW214191  10.168   5.410   0.494  1.0791  0.3775  1.1574
 1408SOL     OW14192   4.394   3.500   0.379 -0.2679 -0.4265 -0.3349
 1408SOL    HW114193   4.360   3.543   0.295 -0.3754  0.6976  0.2775
 1408SOL    HW214194   4.440   3.415   0.355 -1.9748 -1.0988 -1.3444
 1409SOL     OW14195   2.949   2.069   2.098  0.2585 -0.2690  0.8217
 1409SOL    HW114196   2.939   1.970   2.109  1.4130 -0.5702 -0.6726
 1409SOL    HW214197   2.892   2.100   2.022  2.8923 -0.4352 -1.2821
 1410SOL     OW14198   4.866   2.436   2.511 -0.4019  0.4635  0.1069
 1410SOL    HW114199   4.839   2.384   2.592 -1.1699 -0.1406 -0.5273
 1410SOL    HW214200   4.871   2.375   2.432  0.1028  1.0913 -0.3536
 1411SOL     OW14201   3.031   9.842   2.571  0.4508 -0.0173  0.7754
 1411SOL    HW114202   2.981   9.790   2.640  0.6936  0.8190  1.5790
 1411SOL    HW214203   2.968   9.870   2.498 -0.2571  1.0235  1.7787
 1412SOL     OW14204  10.207   4.325   0.145 -1.1409  0.0290 -0.0776
 1412SOL    HW114205  10.184   4.285   0.234 -0.7070 -0.7369 -0.3002
 1412SOL    HW214206  10.252   4.413   0.158 -2.3993  0.6046  0.4173
 1413SOL     OW14207   4.467   9.564   0.332  0.2666  0.1683 -0.6642
 1413SOL    HW114208   4.536   9.529   0.395  0.6374  2.3363  0.1960
 1413SOL    HW214209   4.393   9.606   0.384 -0.2722  0.4294 -1.6307
 1414SOL     OW14210   4.300   0.638   2.079  0.0669  1.2140  0.3488
 1414SOL    HW114211   4.247   0.719   2.105 -0.7036  0.7750  0.1607
 1414SOL    HW214212   4.243   0.578   2.023  0.2176 -0.0542  1.5266
 1415SOL     OW14213   3.740   7.389   1.175  0.2539 -0.0350  0.7199
 1415SOL    HW114214   3.768   7.338   1.093  0.6639  0.1293  0.7543
 1415SOL    HW214215   3.699   7.327   1.241 -0.8465 -0.0340  0.0449
 1416SOL     OW14216   3.770   4.232   1.069  0.1308  0.2044  0.0591
 1416SOL    HW114217   3.819   4.205   0.986  0.5761  1.5819 -0.1267
 1416SOL    HW214218   3.674   4.205   1.060  0.5977 -1.5070 -0.0304
 1417SOL     OW14219   3.118   5.775   0.545 -0.7156  0.2048  0.4496
 1417SOL    HW114220   3.023   5.795   0.571 -1.0118 -1.4455  0.6947
 1417SOL    HW214221   3.139   5.680   0.568  0.3248 -0.0718 -1.5291
 1418SOL     OW14222   2.357   2.503   0.321  0.2080  0.2909  0.1821
 1418SOL    HW114223   2.453   2.485   0.299  0.4746  0.9140  0.8279
 1418SOL    HW214224   2.309   2.416   0.330  0.8524 -0.0429  0.4834
 1419SOL     OW14225   3.650   8.538   1.954 -0.8782 -0.1564  0.0112
 1419SOL    HW114226   3.630   8.552   2.051  0.5410 -1.6676  0.5614
 1419SOL    HW214227   3.669   8.625   1.910  0.3755  0.3564  1.5459
 1420SOL     OW14228   3.648   3.937   1.015 -0.5205 -0.9984 -0.6461
 1420SOL    HW114229   3.645   3.907   1.111 -0.0385  0.2274 -0.2400
 1420SOL    HW214230   3.599   4.024   1.006  2.2440  0.5774 -0.8782
 1421SOL     OW14231   1.867   1.422   2.546  0.2722  0.1299  0.1120
 1421SOL    HW114232   1.918   1.506   2.525 -0.3268  0.5127  0.1623
 1421SOL    HW214233   1.808   1.399   2.469 -0.1981  0.2352  0.4377
 1422SOL     OW14234   4.172   0.896   1.209  0.0096  0.1960  0.1131
 1422SOL    HW114235   4.086   0.940   1.238 -1.0681 -1.6083 -0.2959
 1422SOL    HW214236   4.191   0.921   1.114 -0.8177 -0.5302 -0.2501
 1423SOL     OW14237   2.545   9.965   2.434 -0.3776  0.4687  0.1305
 1423SOL    HW114238   2.488   9.997   2.510  0.1828 -0.8161  1.0961
 1423SOL    HW214239   2.559   9.866   2.442 -0.0702  0.3735 -1.4838
 1424SOL     OW14240   1.992   6.982   0.254  0.8052 -0.0738  0.0560
 1424SOL    HW114241   1.919   6.932   0.300  1.6502 -1.0004  0.4326
 1424SOL    HW214242   2.002   7.072   0.294 -1.5542  0.8982 -1.4273
 1425SOL     OW14243   1.280   6.353   0.113  0.0997  0.4511  0.1428
 1425SOL    HW114244   1.366   6.326   0.156 -0.0168  1.0773  0.7764
 1425SOL    HW214245   1.203   6.324   0.170 -0.2540 -2.5298 -1.7301
 1426SOL     OW14246   4.461   0.960   2.180 -0.5044  0.4622 -0.1230
 1426SOL    HW114247   4.493   0.888   2.119 -1.0713  0.7609 -0.7970
 1426SOL    HW214248   4.361   0.969   2.171 -0.3521  1.8433 -0.6434
 1427SOL     OW14249   3.751   3.207   1.001 -0.0908  0.7966  0.0768
 1427SOL    HW114250   3.823   3.263   0.958 -2.3778  2.6998 -1.3811
 1427SOL    HW214251   3.697   3.163   0.929 -1.2832  0.5043  1.1524
 1428SOL     OW14252   3.964   4.720   1.465  0.2102  0.3781 -0.4012
 1428SOL    HW114253   3.895   4.663   1.421  1.9413 -0.8949 -1.4870
 1428SOL    HW214254   3.935   4.738   1.560 -1.0795 -1.0514 -0.4901
 1429SOL     OW14255   1.277   2.312   0.915  0.3858  0.0913 -0.2184
 1429SOL    HW114256   1.218   2.325   0.994 -0.6608  2.9026 -1.4141
 1429SOL    HW214257   1.373   2.309   0.946 -0.0678  0.1171  1.2368
 1430SOL     OW14258   4.048   1.019   2.327 -0.2814  0.3805 -0.0995
 1430SOL    HW114259   3.985   0.975   2.390  0.4102  1.8740  1.6770
 1430SOL    HW214260   4.004   1.099   2.287 -0.7532 -0.6180 -1.6198
 1431SOL     OW14261   4.479   1.036   0.971  0.3422 -0.4101 -0.2677
 1431SOL    HW114262   4.460   0.947   0.930  0.8227  0.2976 -2.0836
 1431SOL    HW214263   4.398   1.068   1.020  0.5287 -2.3315  1.3743
 1432SOL     OW14264   3.407   1.781   1.301 -0.4910  0.1370  0.1807
 1432SOL    HW114265   3.366   1.801   1.390 -0.4979 -0.5854  0.3379
 1432SOL    HW214266   3.343   1.729   1.245  0.0690 -0.6768  0.2904
 1433SOL     OW14267   1.700   4.826   0.934 -0.2856  0.1468  0.2326
 1433SOL    HW114268   1.627   4.785   0.880 -0.7210  0.9681  0.1921
 1433SOL    HW214269   1.782   4.836   0.877  0.5658 -2.7706  0.8776
 1434SOL     OW14270   2.119   7.967   0.217 -0.3536 -0.5696  0.4566
 1434SOL    HW114271   2.167   7.888   0.255  0.8845  0.1171  0.3447
 1434SOL    HW214272   2.079   7.942   0.129  1.3425 -0.6593 -0.3158
 1435SOL     OW14273   3.929   5.213   1.289 -0.2701 -0.2895 -0.4940
 1435SOL    HW114274   4.023   5.182   1.273  0.6618  1.8476  0.6425
 1435SOL    HW214275   3.897   5.179   1.377 -0.0841  0.0495 -0.2939
 1436SOL     OW14276   3.444   1.832   1.569  0.0900 -0.9565  0.0053
 1436SOL    HW114277   3.543   1.821   1.575  0.1152 -0.7571 -0.0317
 1436SOL    HW214278   3.420   1.926   1.594  0.0040 -0.6986 -1.0439
 1437SOL     OW14279   2.423   9.836   1.253 -0.1570 -0.1615 -0.1855
 1437SOL    HW114280   2.332   9.850   1.214 -0.2534 -1.2763 -0.3769
 1437SOL    HW214281   2.419   9.764   1.321  0.2967  0.8178  0.8911
 1438SOL     OW14282   2.246   8.395   2.472 -0.1659 -0.1785  0.2347
 1438SOL    HW114283   2.239   8.446   2.558 -0.3511 -3.7488  2.4248
 1438SOL    HW214284   2.342   8.379   2.450 -0.1689 -1.8820  1.4150
 1439SOL     OW14285   1.697   2.539   1.717 -0.1899 -0.0108 -0.9913
 1439SOL    HW114286   1.635   2.599   1.668 -0.9030  2.1194  2.3404
 1439SOL    HW214287   1.648   2.492   1.790  1.7665  0.7192  0.8682
 1440SOL     OW14288   2.639  10.151   0.815  0.4313  0.3737 -0.7336
 1440SOL    HW114289   2.716  10.196   0.861 -0.2934 -0.2015  1.0766
 1440SOL    HW214290   2.657  10.053   0.808 -0.4753  0.1110  0.4267
 1441SOL     OW14291   4.409   1.986   1.242  0.9611  0.0838  0.6208
 1441SOL    HW114292   4.478   2.055   1.262 -0.2154  1.1186  1.2106
 1441SOL    HW214293   4.347   2.019   1.171  0.9201 -0.7357  0.2624
 1442SOL     OW14294   2.743   4.696   1.123  0.2909  0.1371  0.5648
 1442SOL    HW114295   2.786   4.615   1.162  0.1074  0.3081  1.1216
 1442SOL    HW214296   2.811   4.747   1.071  0.1319 -0.9918 -0.7886
 1443SOL     OW14297   2.245   9.502   0.601 -0.1000 -0.2486 -0.4999
 1443SOL    HW114298   2.301   9.553   0.665 -0.5900  0.8000 -0.8948
 1443SOL    HW214299   2.292   9.418   0.575  1.6915  1.0289 -1.4998
 1444SOL     OW14300   4.376   2.293   1.170 -0.2186 -0.0723 -0.5111
 1444SOL    HW114301   4.405   2.357   1.099  0.8576  1.2925  1.0840
 1444SOL    HW214302   4.456   2.250   1.211 -0.7049  0.2073  0.7858
 1445SOL     OW14303  10.382   5.139   2.194 -0.0235  0.5810  0.0574
 1445SOL    HW114304  10.444   5.103   2.124  1.2925  0.8027  1.0674
 1445SOL    HW214305  10.388   5.081   2.276 -1.7192  0.1835 -0.0879
 1446SOL     OW14306   4.289   4.992   1.519  0.3353 -0.0489 -0.4004
 1446SOL    HW114307   4.281   4.907   1.467  0.8429  0.3164 -1.0810
 1446SOL    HW214308   4.345   4.976   1.600  0.0255 -0.4806 -0.2684
 1447SOL     OW14309   1.839   3.139   1.677 -0.5237  0.1034 -0.3176
 1447SOL    HW114310   1.804   3.124   1.584  0.4300 -0.8606 -0.5212
 1447SOL    HW214311   1.925   3.189   1.672 -0.4402 -0.0039  0.0508
 1448SOL     OW14312   3.182   6.060   0.630 -0.0811  0.0617 -0.5863
 1448SOL    HW114313   3.096   6.065   0.679  0.0615 -0.0915 -0.3173
 1448SOL    HW214314   3.171   6.099   0.539 -0.4050  0.1395 -0.5145
 1449SOL     OW14315   2.220   1.520   1.729 -0.1731 -0.3224 -0.2595
 1449SOL    HW114316   2.243   1.590   1.797  1.3609  0.3885 -1.4993
 1449SOL    HW214317   2.303   1.482   1.689 -1.0511  0.4102 -2.9037
 1450SOL     OW14318   0.677   3.564   0.847  0.4577 -0.0273  0.6139
 1450SOL    HW114319   0.608   3.602   0.909 -0.0739  1.3894 -0.8184
 1450SOL    HW214320   0.757   3.624   0.846  0.8233 -0.5174  0.6061
 1451SOL     OW14321   2.062   4.491   0.760 -0.1599 -0.2507  0.3244
 1451SOL    HW114322   2.040   4.451   0.849  0.6761 -1.0633  0.1786
 1451SOL    HW214323   2.086   4.418   0.696  0.4989  0.4197 -0.2059
 1452SOL     OW14324   3.142   4.896   1.363  0.0197 -0.0167 -0.7190
 1452SOL    HW114325   3.046   4.879   1.388  1.1253 -2.5193  2.1196
 1452SOL    HW214326   3.173   4.981   1.404 -0.4485 -0.1908 -0.0003
 1453SOL     OW14327  10.295   4.226   1.890 -0.0305 -0.0972  0.1018
 1453SOL    HW114328  10.225   4.221   1.819 -1.7810  1.4222  1.6665
 1453SOL    HW214329  10.282   4.151   1.955 -0.2970  0.2567  0.4605
 1454SOL     OW14330   4.513   0.801   1.609  0.7364 -0.0883 -0.3110
 1454SOL    HW114331   4.608   0.777   1.590  0.3568  0.2162 -2.8239
 1454SOL    HW214332   4.485   0.875   1.548 -0.7618  0.6417  1.2342
 1455SOL     OW14333   1.970   6.306   2.044 -0.1915  0.2699 -0.1061
 1455SOL    HW114334   2.015   6.368   1.979 -0.4757  0.5205 -0.0664
 1455SOL    HW214335   1.884   6.274   2.004  1.0130 -1.8599 -1.0612
 1456SOL     OW14336   2.828   5.208   1.474  0.1213  0.3386 -0.0172
 1456SOL    HW114337   2.794   5.141   1.408 -1.1969  1.1302 -0.1649
 1456SOL    HW214338   2.782   5.296   1.459 -1.1708  0.1916  2.7693
 1457SOL     OW14339   3.946   5.981   0.296  0.3460 -0.9446 -0.0923
 1457SOL    HW114340   4.007   5.978   0.216  2.6375  2.5915  1.3713
 1457SOL    HW214341   3.985   5.925   0.369  0.4736 -0.8334 -0.0735
 1458SOL     OW14342   1.869  10.336   0.835  0.2492  0.2810  0.1577
 1458SOL    HW114343   1.880  10.320   0.933 -1.1655 -0.9208  0.1414
 1458SOL    HW214344   1.782  10.296   0.804  1.4674 -0.8943 -1.9087
 1459SOL     OW14345   1.896   5.229   1.808 -0.0010  0.3629 -0.2517
 1459SOL    HW114346   1.853   5.282   1.735  1.7487  0.4635 -1.2352
 1459SOL    HW214347   1.829   5.210   1.880 -1.7415  0.2912 -1.8597
 1460SOL     OW14348   9.990   5.301   0.700  0.0386  0.2012  0.3244
 1460SOL    HW114349  10.058   5.306   0.626 -1.2755  1.5083 -0.8261
 1460SOL    HW214350   9.973   5.206   0.722  1.5675 -0.1731 -0.0137
 1461SOL     OW14351   1.758   1.914   0.952  0.1542 -0.0173  0.0237
 1461SOL    HW114352   1.851   1.951   0.959  0.3978 -0.2606 -1.6814
 1461SOL    HW214353   1.737   1.895   0.856 -0.8044 -2.1880  0.6314
 1462SOL     OW14354   2.050   5.531   1.847  0.1564 -0.6521  0.2135
 1462SOL    HW114355   2.034   5.563   1.753 -0.5154  0.1694  0.6012
 1462SOL    HW214356   1.993   5.584   1.910 -0.3760 -2.0771  0.9483
 1463SOL     OW14357   4.415   8.552   1.260 -0.0780 -0.0713  0.0795
 1463SOL    HW114358   4.456   8.578   1.348  1.0345  2.1652 -1.0436
 1463SOL    HW214359   4.394   8.635   1.208 -0.6507 -1.3658 -1.7975
 1464SOL     OW14360   2.455   9.213   0.864  0.2323 -0.0354 -0.3828
 1464SOL    HW114361   2.494   9.124   0.887  1.0257  0.2047 -0.7957
 1464SOL    HW214362   2.451   9.223   0.765  2.5530  1.4297 -0.3721
 1465SOL     OW14363   2.373   9.174   2.523  0.5476  0.5031 -0.2519
 1465SOL    HW114364   2.464   9.213   2.536  0.5724  0.9146 -1.5458
 1465SOL    HW214365   2.353   9.109   2.596  2.0800  0.0583 -0.2221
 1466SOL     OW14366   3.635   4.367   1.932  0.8038 -0.0876  0.1315
 1466SOL    HW114367   3.549   4.346   1.979  0.7742 -1.0901 -0.3495
 1466SOL    HW214368   3.711   4.325   1.982  0.8392 -0.5967 -0.3400
 1467SOL     OW14369   1.971   2.361   1.960  0.0808  0.0828  0.2362
 1467SOL    HW114370   2.025   2.281   1.988  0.9683  0.3915 -0.5616
 1467SOL    HW214371   2.007   2.396   1.874 -1.9613 -0.2282 -0.7663
 1468SOL     OW14372   1.083   3.891   1.319  0.1973 -0.9160  0.1543
 1468SOL    HW114373   1.146   3.847   1.383 -1.1174 -0.0096  2.1232
 1468SOL    HW214374   0.989   3.861   1.338 -0.2456 -0.4271 -1.1836
 1469SOL     OW14375   2.921   6.057   1.819  0.4381  0.1212  0.4014
 1469SOL    HW114376   2.941   6.151   1.849  1.3280  0.2262 -0.5108
 1469SOL    HW214377   2.934   6.050   1.720  1.8795 -1.3604  0.6912
 1470SOL     OW14378   3.630   7.143   0.828 -0.0890  0.2137  0.2772
 1470SOL    HW114379   3.616   7.047   0.852 -2.5821  0.4165 -0.2992
 1470SOL    HW214380   3.632   7.153   0.729 -1.9333  1.0421  0.3155
 1471SOL     OW14381   4.112   8.556   0.548 -1.0198  0.4103 -0.1421
 1471SOL    HW114382   4.145   8.476   0.497  0.1544 -0.2131  1.5436
 1471SOL    HW214383   4.030   8.532   0.598  1.2829 -0.8415  3.1889
 1472SOL     OW14384   4.365   0.834   1.847  0.0649  0.1365  0.0071
 1472SOL    HW114385   4.377   0.751   1.902 -2.7389 -0.8241 -0.7285
 1472SOL    HW214386   4.421   0.828   1.765  1.4803 -0.0651  0.9687
 1473SOL     OW14387   1.615   3.660   1.353  0.0279 -0.1963  0.1302
 1473SOL    HW114388   1.678   3.716   1.406  0.1022  0.1778 -0.3469
 1473SOL    HW214389   1.571   3.592   1.412 -0.2853  0.5631  0.7664
 1474SOL     OW14390   1.069   3.462   1.530  0.0354 -0.4205 -0.3853
 1474SOL    HW114391   1.160   3.486   1.497 -0.3343  0.8915 -0.4734
 1474SOL    HW214392   1.077   3.406   1.612  0.9308  1.6781  1.0030
 1475SOL     OW14393   2.069   1.788   0.537 -0.0479 -0.2158 -0.8535
 1475SOL    HW114394   2.039   1.719   0.603 -1.7447  1.2887 -0.0304
 1475SOL    HW214395   2.165   1.810   0.554 -0.9337  1.4851  2.3529
 1476SOL     OW14396   2.020   1.345   1.140 -0.0058  0.1547 -0.1402
 1476SOL    HW114397   1.947   1.406   1.171 -2.0937 -1.8827 -0.9282
 1476SOL    HW214398   2.052   1.289   1.216 -0.7702 -0.4661 -0.2765
 1477SOL     OW14399   1.164   5.809   2.301 -0.5367  0.2015  0.0427
 1477SOL    HW114400   1.244   5.862   2.325 -0.2173 -0.1689 -0.1954
 1477SOL    HW214401   1.119   5.850   2.221  1.4808 -1.6244 -2.1072
 1478SOL     OW14402   4.187   8.402   1.322 -0.7558 -0.1803 -0.0476
 1478SOL    HW114403   4.279   8.441   1.313 -1.2286  0.3612 -3.3104
 1478SOL    HW214404   4.141   8.444   1.401  0.9618  1.2947  0.2162
 1479SOL     OW14405   2.909   3.379   2.391  0.0210  0.2452  0.6409
 1479SOL    HW114406   2.911   3.421   2.300  1.8623 -2.4972 -0.6628
 1479SOL    HW214407   2.886   3.448   2.459 -0.4818  2.5633 -1.7857
 1480SOL     OW14408   1.986   1.227   0.070  0.8302 -0.5867  0.7183
 1480SOL    HW114409   1.958   1.306   0.016  0.2924 -0.6702  0.8763
 1480SOL    HW214410   2.019   1.257   0.160  0.9419 -0.5172  0.6547
 1481SOL     OW14411   4.136   5.187   2.271 -0.2508 -0.1884 -0.2619
 1481SOL    HW114412   4.156   5.166   2.366  0.9622  1.3649 -0.1630
 1481SOL    HW214413   4.215   5.231   2.228 -1.5959  1.2819 -1.3149
 1482SOL     OW14414   3.681   7.560   0.476  0.6705 -0.4873 -0.1504
 1482SOL    HW114415   3.627   7.631   0.431 -0.0811 -0.3004  1.0274
 1482SOL    HW214416   3.651   7.470   0.445 -0.1090 -0.3720  0.2761
 1483SOL     OW14417   3.656   9.421   2.555  0.4502 -0.3467  0.1471
 1483SOL    HW114418   3.654   9.476   2.638  0.3083  2.3153 -1.5661
 1483SOL    HW214419   3.590   9.457   2.489  1.2099 -1.8463 -1.4883
 1484SOL     OW14420   4.958   2.470   0.746 -0.2544  0.3453  0.0329
 1484SOL    HW114421   5.054   2.461   0.721  0.1992  1.9450  1.1163
 1484SOL    HW214422   4.951   2.517   0.834 -1.9732 -1.2426  0.7786
 1485SOL     OW14423   4.712   4.223   2.600  0.2323 -0.4169  0.1904
 1485SOL    HW114424   4.727   4.272   2.514 -0.1214  1.4316  1.1450
 1485SOL    HW214425   4.624   4.252   2.639  0.7714 -0.6148  1.5766
 1486SOL     OW14426   1.719   3.193   2.627 -0.2818  0.1401  0.0019
 1486SOL    HW114427   1.767   3.247   2.695  0.6705 -0.3985 -0.2349
 1486SOL    HW214428   1.740   3.096   2.640 -0.2562  0.0151 -0.9148
 1487SOL     OW14429   3.013   8.570   2.297  0.3732  0.3609  0.2536
 1487SOL    HW114430   2.988   8.588   2.202 -0.0543 -0.3610  0.2247
 1487SOL    HW214431   3.088   8.504   2.299 -0.3324 -0.4401  0.4417
 1488SOL     OW14432   4.461  10.339   1.556  0.5323 -0.2641 -0.3475
 1488SOL    HW114433   4.537  10.403   1.565  0.2777  0.1801 -1.2916
 1488SOL    HW214434   4.393  10.377   1.492 -0.6558 -0.4783  0.7617
 1489SOL     OW14435   1.961   2.796   0.247  0.3318  0.4702  0.1449
 1489SOL    HW114436   1.982   2.760   0.338  0.0203  0.0243  0.0429
 1489SOL    HW214437   1.962   2.722   0.180 -1.7570  0.3722  0.1791
 1490SOL     OW14438   4.051   2.807   0.094  0.4139  0.2440 -0.4620
 1490SOL    HW114439   4.139   2.851   0.078  0.3383  1.3326  1.9183
 1490SOL    HW214440   4.034   2.740   0.022  3.9914 -1.2365 -0.0319
 1491SOL     OW14441   1.549   6.554   1.680 -0.1270 -0.4510  0.6662
 1491SOL    HW114442   1.604   6.517   1.754 -0.3188 -0.6444  0.7098
 1491SOL    HW214443   1.491   6.628   1.715  1.1457  0.7184  0.3380
 1492SOL     OW14444   1.144   7.107   1.992 -0.4099 -0.4734  0.2384
 1492SOL    HW114445   1.115   7.039   1.925  0.1967  1.4595 -2.0613
 1492SOL    HW214446   1.244   7.118   1.987 -0.6950  2.0574 -0.9471
 1493SOL     OW14447   2.515   9.624   2.356  0.2911 -0.2967  0.2096
 1493SOL    HW114448   2.581   9.549   2.355 -0.9015 -1.3672 -1.4732
 1493SOL    HW214449   2.536   9.688   2.283 -0.4709 -0.5824 -0.2606
 1494SOL     OW14450  10.216   4.036   0.557  0.4858 -0.2713 -0.6669
 1494SOL    HW114451  10.194   3.957   0.500 -2.4267 -0.2667  0.3602
 1494SOL    HW214452  10.314   4.039   0.573  0.7029 -3.4721 -1.0329
 1495SOL     OW14453   0.779   4.062   1.522  0.4081  0.1995  0.1297
 1495SOL    HW114454   0.779   4.146   1.468  0.3605 -1.0225 -1.8215
 1495SOL    HW214455   0.757   3.984   1.463  0.4096 -1.1934  1.9096
 1496SOL     OW14456   2.335   8.109   0.102  0.1354  0.4255 -0.3439
 1496SOL    HW114457   2.258   8.068   0.151  0.1698 -0.9065 -1.3735
 1496SOL    HW214458   2.323   8.095   0.004  1.1303  1.2049 -0.5807
 1497SOL     OW14459   2.444   0.645   2.117  0.1077  0.1300  0.0584
 1497SOL    HW114460   2.476   0.692   2.199  2.0663  0.1032 -0.6742
 1497SOL    HW214461   2.428   0.548   2.139 -1.5500  0.5816  0.9470
 1498SOL     OW14462   3.443   0.727   0.518 -0.5102 -0.2232  0.0086
 1498SOL    HW114463   3.393   0.652   0.560 -1.4519  1.4983  2.0490
 1498SOL    HW214464   3.431   0.810   0.572  2.0999  0.9657 -1.1352
 1499SOL     OW14465   5.106   3.951   0.630 -0.2669  0.2887 -0.0174
 1499SOL    HW114466   5.040   3.955   0.555  0.5757  0.6285 -0.7559
 1499SOL    HW214467   5.155   4.038   0.635 -1.1088  0.6745  1.6652
 1500SOL     OW14468   3.881   9.689   0.521  0.0589  0.0631  0.2103
 1500SOL    HW114469   3.952   9.642   0.468  0.1977  0.3999  0.0927
 1500SOL    HW214470   3.867   9.641   0.607 -0.7206 -0.9297 -0.4667
 1501SOL     OW14471   4.124   8.102   0.317  0.0143  0.2276 -0.1989
 1501SOL    HW114472   4.182   8.075   0.240  1.4803  1.9856  0.2732
 1501SOL    HW214473   4.104   8.021   0.374  1.4855 -0.4981 -0.7063
 1502SOL     OW14474   3.298   8.351   2.047 -0.3645  0.2707 -0.6696
 1502SOL    HW114475   3.347   8.367   1.961 -0.1869  1.8108 -0.3069
 1502SOL    HW214476   3.306   8.432   2.105  1.7639 -1.6580  1.9157
 1503SOL     OW14477   3.825   3.458   0.423  0.1247 -0.1172 -0.3042
 1503SOL    HW114478   3.878   3.437   0.341 -1.2612  0.4315 -1.3570
 1503SOL    HW214479   3.739   3.502   0.397 -0.3881 -0.0469  1.4392
 1504SOL     OW14480   1.856   5.603   2.449 -0.2175 -0.5231  0.6631
 1504SOL    HW114481   1.775   5.554   2.482  0.1757 -0.9421  1.0218
 1504SOL    HW214482   1.936   5.544   2.457 -0.2298 -0.8894 -1.7876
 1505SOL     OW14483   3.809   2.092   1.808  0.5811  0.3482  0.2390
 1505SOL    HW114484   3.905   2.080   1.833  0.9601  1.2355 -0.7441
 1505SOL    HW214485   3.777   2.181   1.840 -0.0738 -0.1701  1.0393
 1506SOL     OW14486   3.422   6.053   0.782  0.1329  0.3570 -0.1332
 1506SOL    HW114487   3.336   6.061   0.733  1.0214  0.7265 -1.6433
 1506SOL    HW214488   3.493   6.018   0.721  1.9060  3.3736  0.0804
 1507SOL     OW14489   4.368   8.788   1.490  0.3334 -0.1937  0.6739
 1507SOL    HW114490   4.421   8.717   1.535  1.8821  2.3936  3.0891
 1507SOL    HW214491   4.428   8.864   1.465 -1.4346  0.7152 -0.9786
 1508SOL     OW14492   3.390   3.461   0.110  0.2505  0.3819 -0.0161
 1508SOL    HW114493   3.324   3.418   0.049 -0.0092  2.4836 -1.2473
 1508SOL    HW214494   3.483   3.434   0.083  0.0391 -0.3940  0.0167
 1509SOL     OW14495   4.674   4.370   0.289 -0.6035  0.0206 -0.6610
 1509SOL    HW114496   4.708   4.282   0.255 -1.5198 -0.4566 -0.3445
 1509SOL    HW214497   4.599   4.401   0.231 -0.4851  0.4464 -0.5877
 1510SOL     OW14498   3.175   4.364   2.608  0.3252  0.0638  0.0289
 1510SOL    HW114499   3.124   4.360   2.694  0.5925 -2.3679  0.0972
 1510SOL    HW214500   3.250   4.298   2.611  0.9614  0.6932 -1.6879
 1511SOL     OW14501   2.454   9.265   0.590  0.0994  0.1788  0.0324
 1511SOL    HW114502   2.480   9.205   0.514 -0.1229 -0.5472  0.5170
 1511SOL    HW214503   2.515   9.343   0.594 -0.4579  0.7040 -1.4631
 1512SOL     OW14504   3.967   4.640   1.998 -0.2047  0.6165  0.2244
 1512SOL    HW114505   4.015   4.725   2.018  0.1929  0.4804 -0.1375
 1512SOL    HW214506   4.001   4.568   2.059  0.2014  0.4720 -0.1673
 1513SOL     OW14507   1.299   3.246   1.457 -0.0575  0.1393 -0.1952
 1513SOL    HW114508   1.202   3.243   1.432 -0.2112  0.3951  0.3612
 1513SOL    HW214509   1.355   3.252   1.374 -0.5309  0.3417 -0.5016
 1514SOL     OW14510   4.283   4.614   2.436  0.5956  0.5720 -0.1439
 1514SOL    HW114511   4.342   4.533   2.436  1.2532  1.0396 -0.5158
 1514SOL    HW214512   4.311   4.675   2.361 -0.9354  0.3899 -0.8738
 1515SOL     OW14513   2.308   6.391   2.593  0.1801 -0.0727 -0.5048
 1515SOL    HW114514   2.389   6.364   2.644 -1.9128 -1.4635  2.2610
 1515SOL    HW214515   2.276   6.314   2.538  1.7446  1.0541 -3.0800
 1516SOL     OW14516   2.799   6.936   1.318 -0.3645  0.0416 -0.1340
 1516SOL    HW114517   2.848   6.978   1.395 -1.1145  0.9812 -0.1604
 1516SOL    HW214518   2.701   6.951   1.329 -0.5570 -0.7418 -0.7334
 1517SOL     OW14519   1.703   6.847   2.410 -0.1991 -0.5693 -0.0926
 1517SOL    HW114520   1.649   6.931   2.396  0.4504 -0.4021 -1.7151
 1517SOL    HW214521   1.793   6.872   2.444  0.5617 -0.4520 -2.1064
 1518SOL     OW14522  10.022   3.822   2.072 -0.1884  0.0863 -0.2935
 1518SOL    HW114523  10.096   3.889   2.069 -1.0026  0.9972 -0.4827
 1518SOL    HW214524  10.039   3.756   2.145 -0.0629  1.3249  0.8206
 1519SOL     OW14525   3.011   7.929   1.064 -0.2931 -0.0039 -0.0444
 1519SOL    HW114526   3.088   7.991   1.080 -0.8582  0.8639 -0.6111
 1519SOL    HW214527   2.993   7.925   0.966  0.1192 -1.5415 -0.0601
 1520SOL     OW14528   3.783   1.430   1.179  0.0770  0.7999 -0.3057
 1520SOL    HW114529   3.711   1.369   1.212 -0.0152  1.8015  1.4143
 1520SOL    HW214530   3.870   1.381   1.176  0.4882  1.1588  3.3567
 1521SOL     OW14531   2.227  10.281   2.445 -0.1372 -0.2018 -0.2638
 1521SOL    HW114532   2.181  10.329   2.371  2.1729  1.6108 -0.5768
 1521SOL    HW214533   2.167  10.280   2.526 -1.0282  1.4324 -0.8829
 1522SOL     OW14534   3.853   0.972   1.578  0.4084 -0.2487  0.2073
 1522SOL    HW114535   3.772   0.971   1.637  1.6288 -0.7800  1.9096
 1522SOL    HW214536   3.825   0.989   1.484 -1.3643  2.9023  1.2361
 1523SOL     OW14537   2.447   5.087   0.312 -0.2918 -0.0285 -0.3763
 1523SOL    HW114538   2.498   5.065   0.395 -0.7976 -0.2144 -0.1108
 1523SOL    HW214539   2.467   5.019   0.242  0.3520  0.2850 -0.4999
 1524SOL     OW14540   4.004  10.033   1.778  0.0740 -0.6118  0.1329
 1524SOL    HW114541   4.081  10.063   1.833 -0.0463 -1.1960  0.6222
 1524SOL    HW214542   4.008   9.934   1.766  0.7401 -0.3760 -1.8787
 1525SOL     OW14543   3.729   1.411   1.556  0.2466  0.1618 -0.2465
 1525SOL    HW114544   3.629   1.419   1.557  0.2806  0.7065  1.0649
 1525SOL    HW214545   3.768   1.489   1.508  0.0775  0.7314  0.5166
 1526SOL     OW14546   3.043   8.909   0.966 -0.2808 -0.1273 -0.1788
 1526SOL    HW114547   3.137   8.929   0.940  0.6485 -1.9566  1.6023
 1526SOL    HW214548   3.010   8.979   1.030 -0.1454  0.5486 -0.8492
 1527SOL     OW14549   4.669   2.265   2.031  0.2940  0.4360  0.0198
 1527SOL    HW114550   4.588   2.325   2.034  1.3221  1.8071  1.1036
 1527SOL    HW214551   4.643   2.177   1.991 -2.1195  0.2799  1.7626
 1528SOL     OW14552   3.873   4.166   0.825 -0.0314  0.1095 -0.5730
 1528SOL    HW114553   3.824   4.101   0.767  2.2042 -2.5555  0.3743
 1528SOL    HW214554   3.969   4.170   0.797  0.1805  1.9356  0.3275
 1529SOL     OW14555   9.786   3.618   0.216 -0.2971  0.2548  0.6157
 1529SOL    HW114556   9.717   3.684   0.243 -1.5596 -1.3012  1.3090
 1529SOL    HW214557   9.859   3.616   0.284  0.4073  1.8617 -0.0878
 1530SOL     OW14558   4.532   2.021   1.941  0.0428  0.3316  1.0093
 1530SOL    HW114559   4.606   1.953   1.933  0.1459  0.6728 -1.2550
 1530SOL    HW214560   4.452   1.989   1.892 -0.7061  0.8014  1.9166
 1531SOL     OW14561   2.755   2.471   1.067  0.6957  0.1977  1.0338
 1531SOL    HW114562   2.807   2.385   1.065  0.7251  0.2228  0.4714
 1531SOL    HW214563   2.716   2.485   1.158 -1.2776 -1.5931  0.4981
 1532SOL     OW14564   5.494   2.863   0.437 -0.8332 -0.2380  0.7540
 1532SOL    HW114565   5.431   2.833   0.509 -1.8348  1.3933  0.6021
 1532SOL    HW214566   5.496   2.963   0.434  0.9056 -0.2696 -0.0179
 1533SOL     OW14567   4.409   9.840   0.991 -0.0535  0.1134 -0.3598
 1533SOL    HW114568   4.406   9.874   1.086  1.1638 -0.1265 -0.2301
 1533SOL    HW214569   4.428   9.916   0.929  0.3324  0.0594 -0.3023
 1534SOL     OW14570   1.536   7.316   2.481 -0.2649 -0.0363  0.0483
 1534SOL    HW114571   1.528   7.395   2.543  0.9582  0.0996  0.0359
 1534SOL    HW214572   1.445   7.279   2.463 -0.7286  0.5811  1.0812
 1535SOL     OW14573   3.100   1.424   1.824  0.0598 -0.6849  0.3021
 1535SOL    HW114574   3.181   1.442   1.768  1.0505 -2.3625  1.1606
 1535SOL    HW214575   3.126   1.366   1.901 -2.0637 -1.5550  0.3737
 1536SOL     OW14576  10.266   5.608   0.760 -0.1836 -0.5184 -0.8311
 1536SOL    HW114577  10.356   5.579   0.728  1.9123  2.0505  2.5233
 1536SOL    HW214578  10.240   5.555   0.840 -0.9493 -0.1109 -0.8044
 1537SOL     OW14579   4.112   2.080   1.201 -0.2997  0.1015  0.6508
 1537SOL    HW114580   4.041   2.150   1.204 -0.5526 -0.2258  2.7288
 1537SOL    HW214581   4.147   2.073   1.108 -3.3317 -0.0617 -0.5535
 1538SOL     OW14582   1.703   2.335   1.977  0.4142 -0.4653 -0.3306
 1538SOL    HW114583   1.675   2.376   2.064  0.1591 -1.5952  0.1215
 1538SOL    HW214584   1.800   2.353   1.963  0.4802 -0.3567  0.2264
 1539SOL     OW14585   3.019   8.327   0.400  0.0500 -0.5499  0.6755
 1539SOL    HW114586   2.985   8.388   0.472  0.8043 -0.3475  0.8761
 1539SOL    HW214587   2.946   8.268   0.368  0.0073 -1.5400  2.5339
 1540SOL     OW14588   1.415   6.139   2.094 -0.2027  0.4687 -0.1933
 1540SOL    HW114589   1.342   6.169   2.156  0.8667  2.6083  0.0851
 1540SOL    HW214590   1.377   6.123   2.003 -1.2074  0.5103  0.2115
 1541SOL     OW14591   3.311   2.770   0.192  0.1107 -0.1866  0.5714
 1541SOL    HW114592   3.404   2.779   0.229  0.1173  0.4505  0.4047
 1541SOL    HW214593   3.303   2.825   0.109 -1.1294  1.7074  1.9170
 1542SOL     OW14594   4.888   1.102   0.447 -0.7831  0.0563 -0.0528
 1542SOL    HW114595   4.893   1.184   0.390 -1.3197 -0.4146 -0.7843
 1542SOL    HW214596   4.849   1.126   0.536 -0.4410  0.6910 -0.0684
 1543SOL     OW14597   1.951   4.372   0.991 -0.2938  0.1912 -0.1606
 1543SOL    HW114598   1.877   4.394   0.927 -0.9500  1.5962  1.0537
 1543SOL    HW214599   1.912   4.340   1.077  0.5093  0.9587  0.4958
 1544SOL     OW14600   2.997   7.327   1.465 -0.4453  0.1747 -0.4347
 1544SOL    HW114601   2.964   7.237   1.493 -0.3018  0.0368 -0.7001
 1544SOL    HW214602   3.075   7.315   1.403  0.2549  0.4986  0.3767
 1545SOL     OW14603   1.255   2.597   0.737  0.1696 -0.5682  0.1753
 1545SOL    HW114604   1.297   2.515   0.698  0.7371 -0.4754  0.5815
 1545SOL    HW214605   1.269   2.598   0.836 -1.3562 -0.8524  0.3958
 1546SOL     OW14606   1.464   2.969   0.192 -0.0475  0.2513 -0.2560
 1546SOL    HW114607   1.542   2.930   0.239  1.4705  2.2051 -1.0886
 1546SOL    HW214608   1.408   2.896   0.152  1.7271 -1.1104 -0.2687
 1547SOL     OW14609   3.064   2.534   0.609 -0.3783  0.0817  0.8465
 1547SOL    HW114610   3.084   2.589   0.528 -0.9155  1.9533  1.9514
 1547SOL    HW214611   3.059   2.437   0.583  1.9600  0.3751 -0.8843
 1548SOL     OW14612   1.366   5.710   1.026  0.0186  0.2650  0.2423
 1548SOL    HW114613   1.407   5.693   1.116  0.6715 -0.4409 -0.1933
 1548SOL    HW214614   1.379   5.631   0.967  0.5300  1.1399 -0.8381
 1549SOL     OW14615  10.000   4.969   2.335 -0.3454 -0.7028  0.1061
 1549SOL    HW114616  10.059   5.049   2.325  0.1775 -0.9951  0.8454
 1549SOL    HW214617   9.931   4.970   2.262 -1.8029  1.6260  1.4282
 1550SOL     OW14618   0.637   3.851   2.013 -0.0273 -0.0538 -0.5476
 1550SOL    HW114619   0.657   3.885   1.922 -0.0636  0.2036 -0.4600
 1550SOL    HW214620   0.597   3.759   2.007 -1.0171  0.3937 -0.8488
 1551SOL     OW14621   4.161   9.459   2.615 -0.0274 -0.0609 -0.5135
 1551SOL    HW114622   4.241   9.399   2.613  0.1040  0.1190 -0.6516
 1551SOL    HW214623   4.099   9.429   2.688  0.0062 -0.4029 -0.6254
 1552SOL     OW14624   1.126   7.312   1.807 -0.1129  0.2356  0.5027
 1552SOL    HW114625   1.153   7.239   1.870 -0.9842 -0.2167  0.3620
 1552SOL    HW214626   1.117   7.275   1.715 -2.0166  0.1732  0.6863
 1553SOL     OW14627   2.469   6.001   0.562 -0.1740 -0.4935 -0.2653
 1553SOL    HW114628   2.400   6.068   0.588  0.2712 -0.6560  1.3973
 1553SOL    HW214629   2.430   5.934   0.499 -1.0156  0.4976 -0.7908
 1554SOL     OW14630   4.835   2.262   2.252  0.3614  0.0128 -0.0405
 1554SOL    HW114631   4.759   2.265   2.188  0.3883  1.0914 -0.0277
 1554SOL    HW214632   4.830   2.177   2.306 -0.3116 -0.3453 -0.6615
 1555SOL     OW14633   1.347   3.717   1.266  0.3099  0.2213  0.1801
 1555SOL    HW114634   1.437   3.707   1.309 -0.6512  0.9791  2.4189
 1555SOL    HW214635   1.324   3.814   1.258 -1.5936  0.0103  2.4688
 1556SOL     OW14636   2.241   6.391   2.074  0.3646 -0.0313 -0.8499
 1556SOL    HW114637   2.151   6.353   2.096  0.9230 -1.3559 -0.7566
 1556SOL    HW214638   2.309   6.317   2.076  1.5757  1.0914 -0.1611
 1557SOL     OW14639  10.590   5.570   1.887 -0.6602 -0.7208  0.0079
 1557SOL    HW114640  10.685   5.543   1.902 -0.6245 -0.5720  0.0578
 1557SOL    HW214641  10.533   5.531   1.959 -0.2552  1.2669  1.4461
 1558SOL     OW14642   2.664   9.745   1.547  0.0310 -0.5048 -0.6193
 1558SOL    HW114643   2.592   9.677   1.560  1.3442 -1.4044  2.5157
 1558SOL    HW214644   2.625   9.837   1.554 -1.0223 -0.9738 -0.2083
 1559SOL     OW14645   4.681   1.411   0.205  0.1690  0.2303 -0.1653
 1559SOL    HW114646   4.701   1.507   0.228 -1.4767  0.4767  0.3357
 1559SOL    HW214647   4.647   1.406   0.111  0.4202  0.1095 -0.2502
 1560SOL     OW14648   3.236   0.862   0.011 -0.3667  0.2610  0.0580
 1560SOL    HW114649   3.144   0.833   0.039  0.1964 -1.1857  0.4544
 1560SOL    HW214650   3.300   0.845   0.086  0.4765 -0.0144 -0.7197
 1561SOL     OW14651   4.616   1.466   1.666 -0.2437 -0.1746 -0.4033
 1561SOL    HW114652   4.530   1.441   1.620 -1.6309  2.0375  0.9047
 1561SOL    HW214653   4.677   1.509   1.600 -1.5324  1.3962 -0.5878
 1562SOL     OW14654   3.572   5.083   2.450  0.3729  0.2148  0.0598
 1562SOL    HW114655   3.488   5.137   2.456  0.6809  0.6748  0.2913
 1562SOL    HW214656   3.651   5.145   2.443  0.7932 -0.1946  1.1554
 1563SOL     OW14657   3.831   3.833   0.800 -0.5955 -0.2010  0.9228
 1563SOL    HW114658   3.765   3.877   0.861  1.6523  0.0820  3.2259
 1563SOL    HW214659   3.868   3.751   0.844  2.5542  1.1247  0.8276
 1564SOL     OW14660   1.265   3.886   2.189 -0.4219  0.0764 -0.0182
 1564SOL    HW114661   1.311   3.810   2.143 -3.1144 -1.6281  0.0095
 1564SOL    HW214662   1.242   3.860   2.282 -0.5941  1.2468  0.2733
 1565SOL     OW14663   1.923   4.270   0.040  0.0592 -0.5233  0.7700
 1565SOL    HW114664   1.989   4.222   0.098  1.2806  0.9749  0.6476
 1565SOL    HW214665   1.971   4.333  -0.021 -1.3169 -1.0823 -0.9515
 1566SOL     OW14666   2.667  10.143   2.082  0.6701 -0.4361 -0.2811
 1566SOL    HW114667   2.694  10.082   2.007  4.4305  0.9492 -0.1274
 1566SOL    HW214668   2.644  10.233   2.045  3.1542  0.4404  0.2283
 1567SOL     OW14669   1.501   5.302   0.495 -0.6262 -0.2884 -0.8535
 1567SOL    HW114670   1.559   5.364   0.548 -0.4118  0.7692 -2.2906
 1567SOL    HW214671   1.553   5.266   0.418 -1.4658 -0.4056 -1.3689
 1568SOL     OW14672   3.115   1.038   1.533 -0.0725  0.2751  0.1617
 1568SOL    HW114673   3.178   1.073   1.464 -0.3692 -0.2319 -0.3663
 1568SOL    HW214674   3.163   1.032   1.621  0.7245 -0.4523 -0.3123
 1569SOL     OW14675   2.872   2.429   1.623 -0.0074 -0.3379 -0.0411
 1569SOL    HW114676   2.839   2.401   1.532  0.7786 -0.6775 -0.2204
 1569SOL    HW214677   2.801   2.483   1.668 -0.1652  0.3800 -1.1151
 1570SOL     OW14678   4.467   3.800   0.285  0.1731  0.3507 -0.1701
 1570SOL    HW114679   4.475   3.900   0.292  1.1495  0.2956 -0.4074
 1570SOL    HW214680   4.439   3.776   0.192  0.7453  0.3649 -0.3490
 1571SOL     OW14681   3.756   4.135   2.512 -0.2419 -0.0718 -0.5544
 1571SOL    HW114682   3.674   4.098   2.469  0.3891 -0.8328 -1.1038
 1571SOL    HW214683   3.744   4.234   2.526 -1.9135 -0.4504  0.8867
 1572SOL     OW14684   4.231   5.331   1.016 -0.3922  0.6068  0.2659
 1572SOL    HW114685   4.219   5.345   0.917  0.6363  0.5397  0.1256
 1572SOL    HW214686   4.174   5.395   1.066  0.7281  2.1299 -0.3691
 1573SOL     OW14687   4.232   4.750   1.412 -0.1007  0.2272  0.5168
 1573SOL    HW114688   4.271   4.661   1.386  2.2037  0.9803  1.2896
 1573SOL    HW214689   4.137   4.737   1.440 -0.4863 -1.6436 -1.5258
 1574SOL     OW14690   1.139   4.311   0.192  0.8958 -0.0281 -0.2659
 1574SOL    HW114691   1.126   4.360   0.106 -1.5738  1.5173  0.9182
 1574SOL    HW214692   1.236   4.287   0.203  1.3707  0.5078 -3.0510
 1575SOL     OW14693   4.997   5.177   1.655 -0.4723 -0.2260 -0.0246
 1575SOL    HW114694   5.084   5.222   1.636 -0.8712  0.3212 -0.5898
 1575SOL    HW214695   4.931   5.202   1.584 -1.5868  0.6989  1.3059
 1576SOL     OW14696   3.926   3.237   0.627  0.2359 -0.1339 -0.2157
 1576SOL    HW114697   3.939   3.324   0.579 -2.2918  1.6764  2.1974
 1576SOL    HW214698   3.840   3.196   0.599  1.1166 -1.5791 -0.8680
 1577SOL     OW14699   0.690   3.851   1.333 -0.6743 -0.0474 -0.2096
 1577SOL    HW114700   0.739   3.770   1.299  0.0210  0.5408 -0.6454
 1577SOL    HW214701   0.674   3.913   1.256 -0.6534  0.5036  0.2332
 1578SOL     OW14702   3.807   5.048   0.047 -0.4286  0.7355  0.3197
 1578SOL    HW114703   3.731   5.056   0.110 -1.0084 -1.5680 -0.0329
 1578SOL    HW214704   3.779   5.081  -0.043 -0.9339  0.1853  0.2683
 1579SOL     OW14705   2.587   8.605   2.335  0.3317  0.2078  0.4997
 1579SOL    HW114706   2.675   8.652   2.337 -0.0062  0.7827  2.0294
 1579SOL    HW214707   2.515   8.667   2.365 -0.2880 -0.9006  1.3655
 1580SOL     OW14708   1.318   2.778   2.275  0.9105 -0.4180 -0.4372
 1580SOL    HW114709   1.249   2.849   2.262  0.6612 -0.2111  1.7642
 1580SOL    HW214710   1.408   2.819   2.287  0.7760 -0.4539  0.7752
 1581SOL     OW14711   3.408   7.890   0.822 -0.4373  0.2412  0.1169
 1581SOL    HW114712   3.463   7.809   0.839  0.7486  0.4241 -2.5670
 1581SOL    HW214713   3.387   7.935   0.909  1.1335 -1.4626  1.4240
 1582SOL     OW14714  10.285   5.178   2.558 -0.3755  0.6919  0.0717
 1582SOL    HW114715  10.211   5.138   2.612  1.4523  0.1795  2.3277
 1582SOL    HW214716  10.334   5.106   2.509  0.3560  0.6171  0.8711
 1583SOL     OW14717  10.546   4.592   1.144  0.1989 -0.2062 -0.0895
 1583SOL    HW114718  10.573   4.685   1.170 -0.9432 -0.1708  1.0137
 1583SOL    HW214719  10.459   4.596   1.094  0.1317 -0.6847 -0.0084
 1584SOL     OW14720   2.875   9.503   1.338  0.2399  0.3572  0.3882
 1584SOL    HW114721   2.777   9.520   1.340  0.1695  0.3657 -2.3887
 1584SOL    HW214722   2.893   9.408   1.364 -0.4880  0.3778  0.9747
 1585SOL     OW14723   2.700   9.912   0.685 -0.0225  0.3334  0.0064
 1585SOL    HW114724   2.796   9.930   0.669 -0.2000  2.0348  0.7718
 1585SOL    HW214725   2.690   9.854   0.766  0.4069 -0.7951 -0.7442
 1586SOL     OW14726   3.731   5.859   2.104 -0.3503  0.0384  0.2870
 1586SOL    HW114727   3.721   5.782   2.167 -2.3215 -0.2217 -0.2940
 1586SOL    HW214728   3.782   5.829   2.023  0.4884 -0.1574  0.8910
 1587SOL     OW14729   1.010   3.149   1.055  0.2692  0.2737  0.4368
 1587SOL    HW114730   0.928   3.205   1.067 -0.1609 -0.3139  0.2877
 1587SOL    HW214731   1.056   3.175   0.970 -0.7356 -0.5827 -0.3924
 1588SOL     OW14732   1.091   5.701   1.117 -0.1472 -0.6829 -0.2012
 1588SOL    HW114733   1.055   5.775   1.173 -0.0606  0.2036 -1.3150
 1588SOL    HW214734   1.171   5.733   1.066 -0.3566 -1.4220 -1.0023
 1589SOL     OW14735   1.982   2.289   0.692 -0.2054 -0.3438  0.1022
 1589SOL    HW114736   2.078   2.316   0.699 -0.8217  1.5572  1.9482
 1589SOL    HW214737   1.935   2.346   0.626  0.0387 -1.6581 -1.2318
 1590SOL     OW14738   2.008   3.316   1.437  0.2445  0.2903  0.5491
 1590SOL    HW114739   2.036   3.375   1.361  1.0244  0.9392  1.3352
 1590SOL    HW214740   1.915   3.283   1.420  0.3434  0.5731 -0.5995
 1591SOL     OW14741   4.133   1.437   2.217 -0.5322 -0.2587  0.1701
 1591SOL    HW114742   4.034   1.429   2.206 -0.4613 -0.8781 -0.0020
 1591SOL    HW214743   4.180   1.391   2.142 -0.0964 -1.2642  1.0432
 1592SOL     OW14744   2.791   8.528   1.044  0.2350  0.3064  0.1950
 1592SOL    HW114745   2.838   8.596   0.988  1.4133 -0.3741  0.3478
 1592SOL    HW214746   2.856   8.457   1.072 -0.4804  0.2931  1.8744
 1593SOL     OW14747   3.341   5.035   2.093  0.4621  0.1356  0.4182
 1593SOL    HW114748   3.300   5.055   2.004  1.0886 -1.4284 -0.2421
 1593SOL    HW214749   3.429   4.990   2.080  1.0439  0.8115  1.8407
 1594SOL     OW14750   2.917   9.482   1.065 -0.0270 -0.6023 -0.3957
 1594SOL    HW114751   2.936   9.484   1.163 -0.8785 -0.2242 -0.2348
 1594SOL    HW214752   2.824   9.515   1.049  0.5798  0.5826 -1.4500
 1595SOL     OW14753   1.668   4.818   0.421  0.2497  0.3537  0.0822
 1595SOL    HW114754   1.615   4.741   0.386 -0.0313  0.9766 -0.8889
 1595SOL    HW214755   1.609   4.878   0.475 -0.0339  1.0441 -0.9944
 1596SOL     OW14756   1.269   4.522   1.993 -0.9339 -0.4024  0.2346
 1596SOL    HW114757   1.324   4.439   2.002  1.0130  0.5924 -1.8429
 1596SOL    HW214758   1.215   4.518   1.909  1.9164  1.8783 -1.8152
 1597SOL     OW14759   4.461   9.560   1.130  0.4889  0.3189 -0.2511
 1597SOL    HW114760   4.475   9.575   1.032  0.9758 -0.4754 -0.3006
 1597SOL    HW214761   4.462   9.648   1.178 -1.6261  0.8911 -1.2027
 1598SOL     OW14762   3.792   5.022   1.631  0.3702 -0.5202 -0.0075
 1598SOL    HW114763   3.872   5.062   1.586 -1.0044  0.6548 -1.4434
 1598SOL    HW214764   3.748   4.957   1.569 -0.2210 -0.6063  0.4969
 1599SOL     OW14765   3.291   3.736   0.161  0.0136  0.1607  0.7242
 1599SOL    HW114766   3.196   3.756   0.135  0.2693  0.3281 -0.0613
 1599SOL    HW214767   3.326   3.660   0.106  1.0763  1.5511 -0.5598
 1600SOL     OW14768   2.362   2.235   1.487  0.3225 -0.4705  0.1947
 1600SOL    HW114769   2.361   2.135   1.494 -0.9668 -0.2878  3.5965
 1600SOL    HW214770   2.270   2.269   1.471  0.3448  0.2737  1.5456
 1601SOL     OW14771   2.048   4.779   0.430 -0.0831  0.7864 -0.1807
 1601SOL    HW114772   2.004   4.752   0.516  1.8980  1.8164  1.1735
 1601SOL    HW214773   2.055   4.879   0.426 -0.1664  0.7481 -1.5510
 1602SOL     OW14774   3.795   0.595   1.304 -0.4968  0.5564  0.1156
 1602SOL    HW114775   3.865   0.552   1.247 -0.0335 -0.7444  1.6342
 1602SOL    HW214776   3.731   0.526   1.337 -0.7762  1.2842  1.1301
 1603SOL     OW14777   1.563   1.780   1.555 -0.2475 -0.1250 -0.2464
 1603SOL    HW114778   1.523   1.688   1.551 -2.8224  0.9761 -0.5154
 1603SOL    HW214779   1.559   1.814   1.649  2.0757 -0.8255  0.1516
 1604SOL     OW14780  10.512   4.571   0.352  0.1079  0.6558 -0.6086
 1604SOL    HW114781  10.511   4.668   0.378 -1.5998  0.3063  0.6806
 1604SOL    HW214782  10.446   4.521   0.408 -0.0531 -1.0087 -2.2692
 1605SOL     OW14783   3.789   5.289   0.579  0.5239 -0.6261  0.8485
 1605SOL    HW114784   3.853   5.212   0.588  1.3990  0.0839  0.7495
 1605SOL    HW214785   3.700   5.262   0.616  0.3169 -2.2748 -0.8068
 1606SOL     OW14786   2.603   7.673   1.394 -0.1167  0.3716  0.0450
 1606SOL    HW114787   2.672   7.609   1.426 -1.2213 -0.2391  1.2911
 1606SOL    HW214788   2.627   7.707   1.303  0.1899 -2.2922 -0.9224
 1607SOL     OW14789   4.961   3.938   1.479 -0.0290 -0.4549  0.2599
 1607SOL    HW114790   4.980   3.854   1.531 -0.9442 -0.0150  1.3261
 1607SOL    HW214791   4.989   4.017   1.533 -0.6188 -0.0081 -0.0922
 1608SOL     OW14792   4.150   4.322   1.182 -0.0680  0.0466  0.1707
 1608SOL    HW114793   4.206   4.293   1.104 -1.1230  2.6660 -1.6039
 1608SOL    HW214794   4.084   4.250   1.204  2.1616 -1.9356  0.5532
 1609SOL     OW14795   3.206   0.591   1.542  0.2464 -0.2965 -0.2942
 1609SOL    HW114796   3.167   0.500   1.553 -0.5017 -0.0371 -0.7138
 1609SOL    HW214797   3.140   0.649   1.494  1.6896 -0.2276 -2.2510
 1610SOL     OW14798   3.718   4.684   2.456 -0.2116  0.3719 -0.0230
 1610SOL    HW114799   3.620   4.696   2.473 -0.2381 -1.4300  1.2219
 1610SOL    HW214800   3.755   4.768   2.415 -2.2873  1.0116 -0.6538
 1611SOL     OW14801   2.047   1.976   0.288 -0.1586  0.2151 -0.2197
 1611SOL    HW114802   2.065   1.990   0.385  0.1446 -1.7073  0.0161
 1611SOL    HW214803   2.100   1.899   0.254 -0.6411  0.5436 -1.8068
 1612SOL     OW14804   2.826   9.151   0.839 -0.2559 -0.1466 -0.2169
 1612SOL    HW114805   2.897   9.213   0.805  0.4637 -0.9354 -0.1898
 1612SOL    HW214806   2.837   9.138   0.937 -0.0976 -0.7066 -0.3086
 1613SOL     OW14807  10.050   3.641   2.268  0.1507 -1.2200  0.2046
 1613SOL    HW114808  10.115   3.619   2.340  1.0094 -0.0383 -0.1964
 1613SOL    HW214809   9.957   3.645   2.306  0.6299 -0.3115  1.2989
 1614SOL     OW14810   0.881   3.794   2.322 -0.4671 -0.1615 -0.5449
 1614SOL    HW114811   0.827   3.728   2.270 -1.1081  0.6841 -0.9786
 1614SOL    HW214812   0.976   3.764   2.327 -1.1172 -2.0603  0.8911
 1615SOL     OW14813   4.398   3.933   2.197  0.4711  0.1712  0.9157
 1615SOL    HW114814   4.444   3.924   2.109 -1.1383  1.1365 -0.0432
 1615SOL    HW214815   4.420   4.022   2.238 -0.0501  0.3764  0.7484
 1616SOL     OW14816   4.718   9.402   2.216  0.5343 -0.0107  0.2255
 1616SOL    HW114817   4.731   9.400   2.315 -3.0528  2.3376  0.8400
 1616SOL    HW214818   4.651   9.332   2.189 -0.6659  1.2599 -0.1336
 1617SOL     OW14819   4.953   4.476   2.133  0.0263  1.0348 -0.1749
 1617SOL    HW114820   4.997   4.387   2.138  0.7370  1.4094  0.3976
 1617SOL    HW214821   4.880   4.474   2.064  0.5769  0.2592 -0.7370
 1618SOL     OW14822   1.189   7.003   0.104  0.5206  0.5664 -0.3868
 1618SOL    HW114823   1.175   6.906   0.123 -1.5317  0.5496 -1.8074
 1618SOL    HW214824   1.122   7.057   0.156  1.3334  1.1946  0.0166
 1619SOL     OW14825   1.853  10.301   0.234 -0.2897  0.2377  0.0112
 1619SOL    HW114826   1.805  10.310   0.322  0.7202  2.3865  0.3836
 1619SOL    HW214827   1.932  10.241   0.245  0.8599  1.8802  1.0701
 1620SOL     OW14828   2.729   8.369   2.195  0.3132  0.1603  0.0971
 1620SOL    HW114829   2.759   8.324   2.279  0.8891 -0.3211 -0.3643
 1620SOL    HW214830   2.671   8.447   2.218  0.2755 -0.1120  0.9339
 1621SOL     OW14831   4.328   2.587   2.380  0.2131  0.3091  0.0631
 1621SOL    HW114832   4.372   2.648   2.446  0.8110 -0.2847  0.2279
 1621SOL    HW214833   4.391   2.513   2.356 -2.0685 -2.8943  3.4070
 1622SOL     OW14834   9.981   5.140   1.446 -0.3647  0.0087 -0.0055
 1622SOL    HW114835  10.037   5.167   1.525 -0.9097 -1.5498  0.9328
 1622SOL    HW214836   9.945   5.222   1.403  0.8288  0.9435  0.7056
 1623SOL     OW14837   2.231   7.084   1.893 -0.0055 -0.7462  0.1158
 1623SOL    HW114838   2.131   7.095   1.899 -0.2212 -2.6685  0.5688
 1623SOL    HW214839   2.276   7.164   1.932 -1.3951 -0.4000  1.0497
 1624SOL     OW14840   1.913   0.381   1.735  0.0346 -0.3443 -0.2754
 1624SOL    HW114841   1.939   0.288   1.760  1.7096 -0.4113 -2.1434
 1624SOL    HW214842   1.846   0.416   1.800  0.0268 -2.5469  0.9245
 1625SOL     OW14843   3.514   2.340   1.119  0.0730 -0.0264 -0.3382
 1625SOL    HW114844   3.415   2.329   1.115  0.0571  0.3143 -0.8502
 1625SOL    HW214845   3.537   2.432   1.152  0.2194  0.4288 -1.7013
 1626SOL     OW14846   2.793   2.241   0.749  0.5752  0.7323  0.0289
 1626SOL    HW114847   2.839   2.233   0.661 -0.3068  1.1410 -0.4817
 1626SOL    HW214848   2.729   2.318   0.747  0.1731  0.4375  0.8578
 1627SOL     OW14849   2.188   2.846   1.539 -0.4686 -0.0074  0.4209
 1627SOL    HW114850   2.127   2.768   1.524 -1.6008  0.7621  0.9369
 1627SOL    HW214851   2.155   2.924   1.487 -0.4679  0.6835  1.4431
 1628SOL     OW14852   2.668   3.799   2.329  0.0517 -0.0811  0.3047
 1628SOL    HW114853   2.614   3.873   2.369  2.2786  1.0142  1.3637
 1628SOL    HW214854   2.609   3.742   2.271 -2.2250  1.0248  1.4735
 1629SOL     OW14855   2.946   2.772   1.324  0.7542 -0.0582 -0.5070
 1629SOL    HW114856   2.847   2.788   1.327  0.5991 -0.9492 -0.9082
 1629SOL    HW214857   2.987   2.802   1.411 -0.0687 -1.0314  0.2286
 1630SOL     OW14858   3.768   8.281   2.291 -0.1826 -0.1862 -0.1418
 1630SOL    HW114859   3.853   8.232   2.308 -0.8915 -0.8975  1.4663
 1630SOL    HW214860   3.732   8.255   2.201  1.8218  0.9285 -1.2938
 1631SOL     OW14861   3.465   9.749   2.379 -0.1951 -0.1756  0.0553
 1631SOL    HW114862   3.405   9.772   2.455 -0.5842 -0.7090 -0.0857
 1631SOL    HW214863   3.436   9.798   2.297  0.9514  1.3227  0.5329
 1632SOL     OW14864   2.585   4.673   1.745  0.2814  0.0470  0.0885
 1632SOL    HW114865   2.494   4.713   1.731 -0.1634 -0.7910  0.5772
 1632SOL    HW214866   2.576   4.579   1.777  1.3263 -0.0112  0.2341
 1633SOL     OW14867   4.583   0.689   2.103  0.2988  0.3838 -0.4703
 1633SOL    HW114868   4.491   0.654   2.122  0.1953  1.7247  1.7354
 1633SOL    HW214869   4.646   0.656   2.173  0.9368  1.6764 -0.4264
 1634SOL     OW14870   2.739   0.896   0.905 -0.1733 -0.3248 -0.1086
 1634SOL    HW114871   2.641   0.886   0.924 -0.3661  0.2532 -0.7894
 1634SOL    HW214872   2.768   0.989   0.925  0.1566 -0.3872 -0.2882
 1635SOL     OW14873   4.793   3.021   0.137  0.0221 -0.4230 -0.7123
 1635SOL    HW114874   4.852   2.942   0.119  0.0174 -0.4683 -0.5310
 1635SOL    HW214875   4.709   2.990   0.183  0.1982 -0.2609 -0.2822
 1636SOL     OW14876   4.738   2.647   1.414  0.0527 -0.2986 -0.1842
 1636SOL    HW114877   4.797   2.727   1.419  0.2812 -0.4601 -0.2630
 1636SOL    HW214878   4.642   2.676   1.408  0.0333 -0.0646  1.2835
 1637SOL     OW14879   3.492   5.754   1.267 -0.0152 -0.5527  0.3605
 1637SOL    HW114880   3.531   5.817   1.200  0.9684  0.5379  1.9283
 1637SOL    HW214881   3.529   5.662   1.253  1.2767 -0.0216  0.3078
 1638SOL     OW14882   4.363   5.400   1.719  0.3657  0.1547 -0.2340
 1638SOL    HW114883   4.329   5.486   1.758  0.7592 -0.0736  0.6277
 1638SOL    HW214884   4.286   5.346   1.685 -0.1286 -0.2470  1.4836
 1639SOL     OW14885   2.655   1.570   1.161 -0.6070 -0.4363  0.5120
 1639SOL    HW114886   2.730   1.618   1.116 -0.2782 -1.0326  0.4147
 1639SOL    HW214887   2.632   1.487   1.110 -1.7900  0.0981  0.1730
 1640SOL     OW14888  10.108   5.484   0.265  0.3230 -0.2521  0.3408
 1640SOL    HW114889  10.150   5.532   0.342 -0.8610 -2.5326  2.4992
 1640SOL    HW214890  10.032   5.428   0.298 -1.7954  0.5922 -2.8795
 1641SOL     OW14891   1.876   4.468   1.621 -0.3464  0.2536 -0.7298
 1641SOL    HW114892   1.929   4.553   1.620 -0.2869  0.2148 -0.9004
 1641SOL    HW214893   1.788   4.485   1.665 -0.6168  0.5776 -1.3916
 1642SOL     OW14894   3.587   2.356   0.868 -0.1110  0.2024  0.1829
 1642SOL    HW114895   3.676   2.400   0.855  1.4951 -2.9016  0.1713
 1642SOL    HW214896   3.569   2.344   0.965  0.0597 -0.3031  0.1516
 1643SOL     OW14897   2.024   1.240   1.951  0.3622  0.2245 -0.1434
 1643SOL    HW114898   1.979   1.324   1.921  0.8892  0.1010 -1.3321
 1643SOL    HW214899   2.119   1.240   1.919  0.0759 -1.2907 -1.1050
 1644SOL     OW14900   0.832   4.230   0.248 -0.2150 -0.0981  0.2690
 1644SOL    HW114901   0.797   4.294   0.317  0.3509  0.6562 -0.1352
 1644SOL    HW214902   0.915   4.267   0.207  0.0242 -1.0184 -0.0980
 1645SOL     OW14903   9.723   4.521   1.946  0.4940  0.0076 -0.2774
 1645SOL    HW114904   9.777   4.469   2.013  0.2131  0.7294  0.5149
 1645SOL    HW214905   9.721   4.617   1.972 -0.7735  0.0661 -0.5649
 1646SOL     OW14906   1.336   2.644   2.511 -0.2572 -0.1374 -0.8486
 1646SOL    HW114907   1.407   2.707   2.544 -0.4337 -0.6113  0.4741
 1646SOL    HW214908   1.308   2.671   2.419 -0.4224  1.8089 -0.2599
 1647SOL     OW14909   9.626   4.287   0.129 -0.0780 -0.4543 -0.7148
 1647SOL    HW114910   9.554   4.313   0.195 -0.8503 -2.1003 -0.8980
 1647SOL    HW214911   9.612   4.192   0.100  1.4233 -0.3664 -1.7520
 1648SOL     OW14912   1.374   6.131   1.781 -0.3438  0.7230 -0.4206
 1648SOL    HW114913   1.437   6.158   1.709  0.7695 -1.0029 -0.1425
 1648SOL    HW214914   1.317   6.055   1.749  0.5322 -0.4216  0.6470
 1649SOL     OW14915   5.116   2.472   1.203 -0.3522 -0.0759 -0.2776
 1649SOL    HW114916   5.060   2.409   1.258 -0.5745  0.3184 -0.0539
 1649SOL    HW214917   5.150   2.546   1.261  1.2765 -0.8849 -0.1843
 1650SOL     OW14918   3.556  10.317   2.401 -0.2529 -0.0168 -0.6553
 1650SOL    HW114919   3.633  10.378   2.421 -0.4721 -0.1277  0.6078
 1650SOL    HW214920   3.590  10.232   2.362  0.3030 -0.1761  0.1528
 1651SOL     OW14921   3.226   8.005   0.089 -0.0728  0.1141 -0.5027
 1651SOL    HW114922   3.142   7.973   0.045  0.0233  1.3342 -1.5923
 1651SOL    HW214923   3.283   8.053   0.022  1.3722 -0.4535  0.2926
 1652SOL     OW14924   0.969   4.333   0.809 -0.2795 -0.8065  0.1288
 1652SOL    HW114925   0.981   4.429   0.834 -1.2607 -0.6574  0.0483
 1652SOL    HW214926   0.879   4.321   0.765  0.9285 -1.2497 -2.3137
 1653SOL     OW14927   5.037   4.015   2.333 -0.5619 -0.1273  0.2783
 1653SOL    HW114928   4.994   4.041   2.419 -1.3549  0.7945 -0.3821
 1653SOL    HW214929   5.060   4.098   2.281  1.9958 -0.5765  0.5931
 1654SOL     OW14930   2.076   3.295   1.749 -0.0800 -0.2472 -0.2809
 1654SOL    HW114931   2.062   3.339   1.660  1.4085 -0.9749 -0.8861
 1654SOL    HW214932   2.142   3.221   1.740  0.5225  0.0390  1.5548
 1655SOL     OW14933   2.276   5.559   2.404 -0.4192 -0.0388 -0.3406
 1655SOL    HW114934   2.371   5.558   2.374 -0.5079 -0.7546 -0.6041
 1655SOL    HW214935   2.268   5.519   2.495 -0.1646  2.0464  0.6178
 1656SOL     OW14936   3.117   1.864   1.375 -0.1314  0.6624 -0.1592
 1656SOL    HW114937   3.146   1.775   1.341  0.8292  0.0533  2.0978
 1656SOL    HW214938   3.110   1.929   1.299  1.0940 -0.8226 -1.5797
 1657SOL     OW14939   2.923   2.085   1.407  0.0488  0.7289 -0.0070
 1657SOL    HW114940   3.005   2.095   1.463  0.2533  4.0595 -0.8191
 1657SOL    HW214941   2.919   1.992   1.370  2.7096  0.1182  1.1319
 1658SOL     OW14942  10.281   4.908   1.996 -0.1612 -0.1362 -0.5972
 1658SOL    HW114943  10.185   4.891   2.017 -0.4196  0.6277 -1.1128
 1658SOL    HW214944  10.289   4.994   1.946  0.9778  0.6958  0.9679
 1659SOL     OW14945   3.853   0.535   0.082 -0.5838 -0.3549  0.1253
 1659SOL    HW114946   3.845   0.587  -0.003  0.6938  2.6910  1.8218
 1659SOL    HW214947   3.761   0.509   0.114 -1.0996 -1.1036 -1.8867
 1660SOL     OW14948   4.259   2.183   0.646  0.0079  0.7943 -0.4410
 1660SOL    HW114949   4.282   2.089   0.623  1.8928  1.8777 -3.2378
 1660SOL    HW214950   4.174   2.209   0.599  0.3909  0.9784 -1.0480
 1661SOL     OW14951   2.039   6.255   0.627  0.1604  0.1634  0.5114
 1661SOL    HW114952   1.978   6.181   0.653  0.3128  0.0346  0.5035
 1661SOL    HW214953   1.997   6.343   0.649 -0.0550  0.0765  0.4460
 1662SOL     OW14954   2.729   2.761   0.256  0.9232 -0.2838 -0.8747
 1662SOL    HW114955   2.811   2.815   0.271  2.8181 -2.9004 -1.4833
 1662SOL    HW214956   2.745   2.666   0.284 -2.1084 -0.7151 -0.3703
 1663SOL     OW14957   3.488   5.851   0.265  0.2149  0.5837 -0.4469
 1663SOL    HW114958   3.526   5.762   0.291  0.2760  1.2200  1.7436
 1663SOL    HW214959   3.555   5.923   0.284 -0.1797  1.1888 -1.3261
 1664SOL     OW14960   4.186   1.551   1.561  0.0424 -0.4638 -0.5967
 1664SOL    HW114961   4.133   1.480   1.516 -0.1288 -0.7250  0.0170
 1664SOL    HW214962   4.157   1.559   1.656  2.1443 -1.6709  0.1801
 1665SOL     OW14963   4.877   1.361   0.376  0.6911  0.4374  0.5352
 1665SOL    HW114964   4.937   1.436   0.348  1.1247  0.2949  1.0708
 1665SOL    HW214965   4.788   1.371   0.331  1.6731 -0.3428 -1.6907
 1666SOL     OW14966   2.992   5.984   2.210  0.4048  0.2366 -0.6872
 1666SOL    HW114967   2.951   5.921   2.275  0.3530  2.2258  1.2679
 1666SOL    HW214968   2.994   5.942   2.119 -1.2557 -1.8541  0.2076
 1667SOL     OW14969  10.281   5.920   0.241 -0.8338 -0.3945  0.0877
 1667SOL    HW114970  10.337   5.956   0.166  0.7656 -2.8134  0.0535
 1667SOL    HW214971  10.190   5.895   0.206 -0.8830  0.6277 -0.5376
 1668SOL     OW14972   1.072   3.841   0.442  0.0328  0.3002  0.1120
 1668SOL    HW114973   0.978   3.815   0.420 -0.0915  1.4633 -0.7509
 1668SOL    HW214974   1.105   3.908   0.376  2.1066 -1.4179 -0.6910
 1669SOL     OW14975   1.580   5.541   0.252 -0.4661 -0.6939 -0.4515
 1669SOL    HW114976   1.614   5.448   0.266 -0.2379 -0.6757 -0.8926
 1669SOL    HW214977   1.652   5.607   0.273 -1.7958 -0.4440  3.8249
 1670SOL     OW14978   3.653   8.303   0.745  0.0950 -0.2010 -0.1832
 1670SOL    HW114979   3.610   8.312   0.655  1.6992  2.1419 -0.7716
 1670SOL    HW214980   3.670   8.207   0.764 -2.0809 -0.8880 -1.4969
 1671SOL     OW14981   3.585   2.615   1.194  0.0518  0.1699  0.0159
 1671SOL    HW114982   3.680   2.640   1.209  0.3908 -1.0326 -0.0440
 1671SOL    HW214983   3.526   2.693   1.215  1.0947  1.1869 -0.7719
 1672SOL     OW14984   3.287  10.238   0.473 -0.1887 -0.2233 -0.3176
 1672SOL    HW114985   3.283  10.244   0.573 -0.3445 -0.7822 -0.2918
 1672SOL    HW214986   3.273  10.329   0.434  2.1354  0.4257  0.2466
 1673SOL     OW14987   2.330   8.966   0.054 -0.0089  0.4641  0.1281
 1673SOL    HW114988   2.414   8.946   0.105 -0.1131  1.3496  0.6643
 1673SOL    HW214989   2.255   8.909   0.090  0.5281 -0.9140 -0.8889
 1674SOL     OW14990   2.438   3.592   1.077  0.2457 -0.1180 -0.4050
 1674SOL    HW114991   2.457   3.679   1.121  0.5320 -0.8841  1.0080
 1674SOL    HW214992   2.521   3.558   1.032 -0.3905  1.3212 -2.7579
 1675SOL     OW14993   3.307   0.703   1.182 -0.7172  0.0829 -1.1231
 1675SOL    HW114994   3.225   0.738   1.227 -1.0284 -0.3753 -1.3301
 1675SOL    HW214995   3.348   0.631   1.239 -0.3358  0.4625 -0.9154
 1676SOL     OW14996   4.195   9.717   2.521 -0.0624  0.2755  0.1777
 1676SOL    HW114997   4.209   9.634   2.574  0.2181 -0.4516 -1.0093
 1676SOL    HW214998   4.098   9.725   2.497  0.1967 -0.7168 -1.2928
 1677SOL     OW14999   9.815   4.691   2.403  0.3271  0.1504 -0.6454
 1677SOL    HW115000   9.852   4.630   2.333  1.3124  2.1204 -1.8961
 1677SOL    HW215001   9.890   4.724   2.461 -0.3113 -0.4580  0.5411
 1678SOL     OW15002   4.426   4.184   2.352 -0.4360 -0.3216 -0.1665
 1678SOL    HW115003   4.369   4.202   2.273 -0.1290 -0.3212 -0.3899
 1678SOL    HW215004   4.471   4.268   2.381 -0.1652 -0.4232 -0.2927
 1679SOL     OW15005   3.501   5.198   1.432  0.2101  0.1328  0.0357
 1679SOL    HW115006   3.513   5.268   1.362  0.2162  1.1933  1.0981
 1679SOL    HW215007   3.543   5.227   1.518  1.0770 -1.5933  0.2243
 1680SOL     OW15008   3.061   4.128   1.568 -0.2847 -0.0132  0.3306
 1680SOL    HW115009   3.124   4.172   1.632  2.1219  1.4987 -2.9580
 1680SOL    HW215010   3.083   4.031   1.561 -1.3415 -0.4619  2.6099
 1681SOL     OW15011   3.374   4.317   1.601 -0.2085  0.1476 -0.0805
 1681SOL    HW115012   3.469   4.284   1.605 -0.7955 -1.8319 -1.5862
 1681SOL    HW215013   3.334   4.315   1.693  0.2746 -1.9785  0.1231
 1682SOL     OW15014   3.930   2.348   1.553  0.1240  0.2513  0.3661
 1682SOL    HW115015   4.006   2.295   1.592 -1.3305 -1.9335  0.3283
 1682SOL    HW215016   3.849   2.290   1.546 -1.0778  2.0501 -1.2180
 1683SOL     OW15017   5.303   3.778   0.289 -0.0286  0.1153  0.1305
 1683SOL    HW115018   5.312   3.870   0.251 -0.0390  0.9837  2.1541
 1683SOL    HW215019   5.245   3.723   0.229  1.2626  0.9268 -1.9284
 1684SOL     OW15020   0.956   4.751   1.778  0.4800 -0.7648 -0.4194
 1684SOL    HW115021   0.893   4.767   1.854  0.8670 -1.4171  0.0424
 1684SOL    HW215022   0.908   4.769   1.692  0.3334  0.9234 -0.0017
 1685SOL     OW15023   1.899   5.275   2.272 -0.4264 -0.2937 -0.4043
 1685SOL    HW115024   1.873   5.299   2.365  1.3195  0.9878 -0.2166
 1685SOL    HW215025   1.830   5.214   2.233 -2.2552  0.7902  0.9970
 1686SOL     OW15026   3.102   7.989   2.435 -0.0668 -0.0701 -0.6683
 1686SOL    HW115027   3.038   7.964   2.508 -0.5962  0.7204 -0.8579
 1686SOL    HW215028   3.064   8.065   2.382  0.9435  0.2731 -0.9074
 1687SOL     OW15029   3.100   7.420   1.114  0.3384 -0.4719 -0.0477
 1687SOL    HW115030   3.095   7.323   1.089 -0.2561 -0.3661 -0.3370
 1687SOL    HW215031   3.177   7.434   1.176  0.1323 -1.2216  0.3907
 1688SOL     OW15032   3.657   4.966   1.358 -0.0318  0.4549  0.3041
 1688SOL    HW115033   3.588   4.895   1.368  0.4977  0.3376  3.7960
 1688SOL    HW215034   3.616   5.056   1.375  0.3835  0.4907  1.1682
 1689SOL     OW15035   2.364   7.125   0.007  0.3243 -0.4418  0.1559
 1689SOL    HW115036   2.298   7.062  -0.035  0.7675  0.2472 -1.6431
 1689SOL    HW215037   2.456   7.087  -0.000  0.4472 -0.1502  0.1511
 1690SOL     OW15038   5.066   1.482   1.679 -0.4307  0.0240  0.2358
 1690SOL    HW115039   5.030   1.398   1.720  1.6395 -0.9251  0.1871
 1690SOL    HW215040   5.123   1.459   1.601  0.0532  1.4870  0.1477
 1691SOL     OW15041   2.107  10.090   2.072 -0.4560 -0.1190 -0.5503
 1691SOL    HW115042   2.149  10.175   2.040 -0.3839  0.4157  0.9180
 1691SOL    HW215043   2.146  10.065   2.160 -1.8221 -0.6702 -0.0910
 1692SOL     OW15044   4.171   9.262   1.315 -0.4822  0.0251  0.3022
 1692SOL    HW115045   4.116   9.346   1.313  0.9753  1.0316  1.4452
 1692SOL    HW215046   4.258   9.279   1.268  0.4213 -0.4066  1.8241
 1693SOL     OW15047   4.171   3.055   2.057 -0.4244  0.2015  0.4584
 1693SOL    HW115048   4.077   3.084   2.074 -0.0032  1.1795  1.2000
 1693SOL    HW215049   4.223   3.061   2.142  0.5644  0.6729 -0.1738
 1694SOL     OW15050   2.210   2.516   1.508  0.1004 -0.2172  0.1796
 1694SOL    HW115051   2.161   2.432   1.485 -0.1318 -0.2079  0.6178
 1694SOL    HW215052   2.236   2.513   1.605  0.4134  0.0563  0.1054
 1695SOL     OW15053   3.522   4.342   0.805 -0.8472 -0.2796 -0.4572
 1695SOL    HW115054   3.470   4.413   0.852  0.1668  0.8423 -0.9967
 1695SOL    HW215055   3.616   4.373   0.792 -1.3733  0.0149 -4.3328
 1696SOL     OW15056   4.712   1.009   1.182  0.2749 -0.0277 -0.0206
 1696SOL    HW115057   4.625   1.025   1.136  0.2706 -0.6227 -0.2215
 1696SOL    HW215058   4.694   0.985   1.278  0.2551  0.5627  0.1277
 1697SOL     OW15059   1.881   4.810   1.155 -0.5917 -0.1711 -0.1564
 1697SOL    HW115060   1.816   4.777   1.086 -0.3107  0.8927 -0.9477
 1697SOL    HW215061   1.831   4.859   1.226 -0.6200  1.2067 -1.0981
 1698SOL     OW15062   4.391   5.225   1.361  0.1033  0.5902 -0.1406
 1698SOL    HW115063   4.352   5.156   1.422 -1.8320  0.5798 -1.3532
 1698SOL    HW215064   4.450   5.180   1.294 -2.5885 -0.1676 -2.0767
 1699SOL     OW15065   1.074   4.718   0.406 -0.3596  0.3957  0.2885
 1699SOL    HW115066   0.988   4.768   0.404  0.9012  2.6347  0.9951
 1699SOL    HW215067   1.097   4.695   0.501 -0.6547 -1.0965  0.0217
 1700SOL     OW15068   1.955   1.460   1.813 -0.4981 -0.0071  0.0050
 1700SOL    HW115069   1.896   1.526   1.767  0.9661  1.4882  0.1887
 1700SOL    HW215070   2.049   1.494   1.812  0.3498 -2.2668 -0.1898
 1701SOL     OW15071   2.702   1.588   2.494  0.3735 -0.3302  0.4074
 1701SOL    HW115072   2.783   1.617   2.445 -0.0027 -1.1900 -0.7358
 1701SOL    HW215073   2.683   1.491   2.475 -2.2576  0.4561 -1.2399
 1702SOL     OW15074   2.413   8.622   1.597 -0.2710 -0.2275 -0.4382
 1702SOL    HW115075   2.367   8.711   1.589  0.8368  0.2072 -2.2231
 1702SOL    HW215076   2.404   8.589   1.691 -1.5135  1.3189  0.0237
 1703SOL     OW15077   5.122   3.721   1.188  0.2417 -0.4347  0.3747
 1703SOL    HW115078   5.042   3.769   1.154  0.5940 -0.5506 -0.6261
 1703SOL    HW215079   5.204   3.752   1.139  0.5986 -1.3852  0.3420
 1704SOL     OW15080   3.433   2.786   1.859 -0.0254  0.1897 -0.0366
 1704SOL    HW115081   3.377   2.865   1.833  0.2766 -0.2019 -1.9392
 1704SOL    HW215082   3.530   2.811   1.854  0.0343  0.1491  0.8798
 1705SOL     OW15083   2.179   4.463   1.087  0.0548 -0.1531 -0.1473
 1705SOL    HW115084   2.095   4.418   1.056  0.1168 -0.1378 -0.3376
 1705SOL    HW215085   2.250   4.452   1.018  0.3557 -0.5788  0.2319
 1706SOL     OW15086   0.969   3.010   2.479  0.0993  0.2855  0.2015
 1706SOL    HW115087   1.002   3.057   2.561  2.7334 -1.8037  0.3946
 1706SOL    HW215088   0.886   2.960   2.502  0.3053  0.4518  1.3657
 1707SOL     OW15089   2.942   2.245   1.818 -0.3096 -0.2880 -0.1837
 1707SOL    HW115090   3.016   2.274   1.879 -2.2319  0.2289  1.9694
 1707SOL    HW215091   2.925   2.317   1.750 -1.2965  1.2276  1.6247
 1708SOL     OW15092   3.912   1.859   1.254  0.0349  0.2670  0.2492
 1708SOL    HW115093   3.907   1.874   1.156  2.8378 -1.8174 -0.2836
 1708SOL    HW215094   3.977   1.923   1.295  0.8479 -0.5662  0.2936
 1709SOL     OW15095   4.411   1.877   0.229  0.1319  0.3363  0.1448
 1709SOL    HW115096   4.380   1.813   0.299  2.5294  0.6404  1.5475
 1709SOL    HW215097   4.461   1.828   0.158  0.6728  0.4317  0.4506
 1710SOL     OW15098   3.277   5.502   0.571 -0.2374  0.0987  0.1434
 1710SOL    HW115099   3.313   5.501   0.478  0.9919 -3.7021  0.5912
 1710SOL    HW215100   3.329   5.568   0.626  1.0600  0.1110 -1.0712
 1711SOL     OW15101  10.279   4.111   1.484 -0.0553  0.1467 -0.4678
 1711SOL    HW115102  10.349   4.043   1.505 -1.0125 -0.7921 -0.3093
 1711SOL    HW215103  10.224   4.129   1.566  0.6459  1.6556 -0.3014
 1712SOL     OW15104   2.210   5.022   0.474  0.6891 -0.6610 -0.1067
 1712SOL    HW115105   2.290   5.056   0.424  1.0238  0.6483  1.2697
 1712SOL    HW215106   2.153   5.100   0.500 -0.4080 -1.4919 -0.0363
 1713SOL     OW15107   3.713   9.469   1.136  0.4143  0.2993 -0.3812
 1713SOL    HW115108   3.651   9.449   1.060 -1.1770  0.8162  0.7818
 1713SOL    HW215109   3.669   9.531   1.200  2.2458  0.9072  0.3144
 1714SOL     OW15110   1.777   6.917   1.720  0.8392  0.3149 -0.4871
 1714SOL    HW115111   1.793   6.861   1.802  1.9363  1.2475 -0.0540
 1714SOL    HW215112   1.732   6.861   1.650  0.3527 -0.6309  0.5587
 1715SOL     OW15113   4.310   1.959   0.471 -0.5574  0.3490 -0.4221
 1715SOL    HW115114   4.404   1.940   0.500 -1.1310 -2.5302 -0.2591
 1715SOL    HW215115   4.311   1.997   0.378  0.7344 -0.3143 -0.6982
 1716SOL     OW15116   1.709   2.356   0.775 -0.5302  0.3318 -0.1463
 1716SOL    HW115117   1.692   2.259   0.791 -0.1030  0.1701 -0.6438
 1716SOL    HW215118   1.774   2.366   0.700 -0.8590  1.0142 -0.3424
 1717SOL     OW15119   2.462   6.049   1.584  0.1837 -0.1728 -0.9474
 1717SOL    HW115120   2.534   6.037   1.652 -0.2897  0.0994 -0.3983
 1717SOL    HW215121   2.467   5.975   1.516 -1.0943 -2.0365  0.9368
 1718SOL     OW15122   3.145   0.376   1.158 -0.4570 -0.1911 -0.0402
 1718SOL    HW115123   3.152   0.276   1.153 -1.0615 -0.2122 -0.5132
 1718SOL    HW215124   3.225   0.413   1.206  0.1907 -0.8259 -0.6312
 1719SOL     OW15125   3.667   0.926   1.358 -0.2207 -0.0141  0.2259
 1719SOL    HW115126   3.699   0.835   1.382 -1.1010 -0.8905 -1.8028
 1719SOL    HW215127   3.569   0.923   1.340 -0.3433  1.4406  0.6032
 1720SOL     OW15128   2.600   6.521   0.722 -0.1010 -0.6607 -0.3894
 1720SOL    HW115129   2.689   6.488   0.691 -0.1616 -0.6214 -0.6074
 1720SOL    HW215130   2.567   6.591   0.659  0.2852  0.2221  0.3847
 1721SOL     OW15131   2.127   7.775   0.814 -0.4986 -0.5332  0.2744
 1721SOL    HW115132   2.119   7.872   0.790 -0.2737 -0.4101  0.6864
 1721SOL    HW215133   2.130   7.766   0.914  1.1744 -0.8136  0.2235
 1722SOL     OW15134   2.349   3.310   2.009 -0.0565 -0.5690  0.0681
 1722SOL    HW115135   2.369   3.388   1.949 -0.6858  0.8101  1.6375
 1722SOL    HW215136   2.318   3.233   1.953 -0.0130  0.4762 -1.4404
 1723SOL     OW15137   4.349   1.624   0.418  0.4902 -0.0906 -0.1735
 1723SOL    HW115138   4.347   1.591   0.513 -1.4043 -1.0109 -0.5162
 1723SOL    HW215139   4.368   1.547   0.357 -0.1606  0.1505 -0.6794
 1724SOL     OW15140   2.166   3.312   2.230 -0.1227  0.2643 -0.6278
 1724SOL    HW115141   2.241   3.325   2.165  0.1034 -1.8487 -0.8264
 1724SOL    HW215142   2.158   3.393   2.288  0.4476  1.7007 -2.4928
 1725SOL     OW15143   1.965   4.010   1.634  0.4809 -0.5055 -0.1007
 1725SOL    HW115144   1.924   3.936   1.582 -0.5411 -0.3032  0.3987
 1725SOL    HW215145   1.952   3.994   1.732  0.0892  0.4083  0.0093
 1726SOL     OW15146   2.590   4.496   1.405  0.7180 -0.2995  0.3346
 1726SOL    HW115147   2.572   4.594   1.403  2.1850  0.0106  1.1965
 1726SOL    HW215148   2.688   4.480   1.388  0.2579 -1.6886 -1.1027
 1727SOL     OW15149   1.101   4.106   2.124  0.0940  0.0030 -0.2608
 1727SOL    HW115150   1.010   4.072   2.146  0.2300 -0.6819 -0.7194
 1727SOL    HW215151   1.168   4.034   2.141  0.5598  0.5334  0.1596
 1728SOL     OW15152   3.717   2.893   0.887  0.2644 -0.7564 -0.6647
 1728SOL    HW115153   3.678   2.975   0.843  0.5455 -1.3437 -2.0508
 1728SOL    HW215154   3.644   2.831   0.912  0.0681 -0.2106  0.1184
 1729SOL     OW15155   4.927   4.073   2.584  0.1593 -0.0631 -0.2302
 1729SOL    HW115156   4.845   4.128   2.596 -0.9576 -1.4369 -1.3350
 1729SOL    HW215157   4.917   3.986   2.633  1.4634  0.2563  0.6348
 1730SOL     OW15158   1.532   4.002   0.607  0.1961 -0.4559  0.2452
 1730SOL    HW115159   1.532   3.903   0.603  0.0761 -0.5153  1.5234
 1730SOL    HW215160   1.472   4.039   0.536  0.0987 -1.2994 -0.1117
 1731SOL     OW15161   1.753   4.834   2.033  0.0048  0.3083 -0.3728
 1731SOL    HW115162   1.675   4.873   2.084  0.5998  0.6459  0.2937
 1731SOL    HW215163   1.732   4.740   2.006  0.0108 -0.1771  1.2649
 1732SOL     OW15164   1.128   6.706   0.532  0.1371 -0.8785 -0.4916
 1732SOL    HW115165   1.158   6.678   0.441 -0.4899 -0.0251 -0.9663
 1732SOL    HW215166   1.202   6.757   0.577 -0.3845  0.7489 -1.4506
 1733SOL     OW15167   2.719   7.201   1.772  0.1163 -0.0721  0.2284
 1733SOL    HW115168   2.701   7.278   1.712  0.7594 -0.5052 -0.5300
 1733SOL    HW215169   2.632   7.159   1.798 -0.3389  1.8486  1.9233
 1734SOL     OW15170   4.242   1.762   2.480 -0.1000  0.0633 -0.1739
 1734SOL    HW115171   4.213   1.846   2.527  0.9596 -0.1211  0.8580
 1734SOL    HW215172   4.284   1.700   2.547 -0.4157 -1.0758 -1.0233
 1735SOL     OW15173   5.127   2.982   0.133 -0.0505  0.5375 -0.0471
 1735SOL    HW115174   5.169   2.892   0.129 -0.2652  0.4330  0.0597
 1735SOL    HW215175   5.116   3.018   0.040  0.3878  0.6190 -0.0688
 1736SOL     OW15176   4.132   3.071   2.450  0.0259 -0.6236  0.1128
 1736SOL    HW115177   4.208   3.077   2.385  0.6752 -2.5184  0.6523
 1736SOL    HW215178   4.071   3.150   2.438  1.1820  0.0624 -1.4455
 1737SOL     OW15179   2.722   8.412   0.743  0.2144  0.2047  0.5597
 1737SOL    HW115180   2.719   8.443   0.838 -0.1798  1.0987  0.2655
 1737SOL    HW215181   2.652   8.343   0.728  0.4135 -0.0893  0.9676
 1738SOL     OW15182   3.249   1.228   1.288  0.6843 -0.0772 -0.2057
 1738SOL    HW115183   3.221   1.298   1.354  1.2872 -0.6059  0.6193
 1738SOL    HW215184   3.243   1.265   1.196  1.8780  1.3718  0.2752
 1739SOL     OW15185   3.196   8.373   2.443  0.2837 -0.1510  0.0240
 1739SOL    HW115186   3.156   8.404   2.529 -0.2044  0.5016 -0.4358
 1739SOL    HW215187   3.287   8.411   2.433  0.6330 -0.8157  0.5888
 1740SOL     OW15188   2.369   2.625   0.559  0.9133 -0.0151  0.4080
 1740SOL    HW115189   2.362   2.615   0.459  1.8629 -1.0611  0.4355
 1740SOL    HW215190   2.459   2.660   0.583  1.7322 -2.4253  1.0450
 1741SOL     OW15191   0.761   4.522   0.929  0.1989  0.9765  0.1839
 1741SOL    HW115192   0.682   4.570   0.969  1.1370  1.7227  1.1684
 1741SOL    HW215193   0.761   4.427   0.959 -0.6625  0.8142 -0.3121
 1742SOL     OW15194   3.260   6.683   0.038  0.1752  0.6738  0.1848
 1742SOL    HW115195   3.224   6.776   0.045 -0.1959  0.5640 -0.2745
 1742SOL    HW215196   3.272   6.659  -0.058  0.7975  0.4485  0.3205
 1743SOL     OW15197   2.503   8.586   1.882 -0.2510 -0.2488 -0.4718
 1743SOL    HW115198   2.536   8.526   1.955  0.8134 -0.4951 -1.1390
 1743SOL    HW215199   2.428   8.642   1.916 -0.3911 -1.0344  0.5363
 1744SOL     OW15200   1.812   4.066   2.361  0.0078 -0.3177 -0.0476
 1744SOL    HW115201   1.872   3.988   2.381  1.3570  0.7693  0.2842
 1744SOL    HW215202   1.766   4.095   2.445  0.1723 -0.2174  0.0081
 1745SOL     OW15203   3.447   5.891   1.009  0.1381  0.2528  0.1216
 1745SOL    HW115204   3.435   5.948   0.928 -0.6301  0.5443  0.4368
 1745SOL    HW215205   3.375   5.911   1.075  1.2523  0.6140  1.2336
 1746SOL     OW15206   2.166   0.888   0.194 -0.3229 -0.0969  0.3955
 1746SOL    HW115207   2.181   0.891   0.095 -1.0217  0.2178  0.2989
 1746SOL    HW215208   2.073   0.917   0.214 -0.1335 -0.0245  1.1612
 1747SOL     OW15209  10.284   4.741   1.210  0.1476  0.5827  0.0701
 1747SOL    HW115210  10.277   4.682   1.291 -2.8193  0.2869 -0.3450
 1747SOL    HW215211  10.272   4.687   1.127 -0.8332  1.4692 -0.3853
 1748SOL     OW15212   1.732   4.576   1.977  0.3254 -0.5269 -0.1898
 1748SOL    HW115213   1.824   4.554   1.943  0.4216  0.6803 -0.7259
 1748SOL    HW215214   1.663   4.536   1.917  0.5052 -0.1486 -0.6544
 1749SOL     OW15215  10.355   4.387   1.423  0.0150  0.9040 -0.6127
 1749SOL    HW115216  10.431   4.378   1.358  1.3201  0.5541  0.9110
 1749SOL    HW215217  10.336   4.298   1.464 -0.7866  1.1267 -0.4958
 1750SOL     OW15218   3.146   6.876   2.055 -0.5531 -0.0217  0.2220
 1750SOL    HW115219   3.231   6.885   2.003  0.1564 -0.0657  1.3711
 1750SOL    HW215220   3.149   6.791   2.108 -0.5126  0.9164  1.7299
 1751SOL     OW15221   1.412   6.461   2.531  0.3015  0.1556 -0.0123
 1751SOL    HW115222   1.446   6.406   2.454 -0.2647 -0.6196  0.2854
 1751SOL    HW215223   1.352   6.405   2.588 -0.6267  1.2103  0.0624
 1752SOL     OW15224   3.658   4.334   1.640 -0.0619  0.1694  0.7629
 1752SOL    HW115225   3.624   4.371   1.726  1.3094  0.4166  1.2194
 1752SOL    HW215226   3.752   4.302   1.653  0.9236  2.1410 -1.1552
 1753SOL     OW15227   3.994   8.805   2.488  0.2419  0.0283 -0.2795
 1753SOL    HW115228   3.963   8.857   2.408 -0.9113 -1.0410 -0.5617
 1753SOL    HW215229   4.094   8.804   2.491  0.2982  2.5420 -0.0513
 1754SOL     OW15230   3.962   5.059   0.548 -0.5284 -0.3003  0.1216
 1754SOL    HW115231   3.949   5.044   0.450 -0.0161 -3.0101  0.4098
 1754SOL    HW215232   4.060   5.066   0.568 -0.5903 -0.4820  0.5017
 1755SOL     OW15233   3.006   5.191   1.008 -0.2939  0.0121  0.4732
 1755SOL    HW115234   3.068   5.239   1.070 -0.3613  2.1018 -1.0149
 1755SOL    HW215235   3.059   5.145   0.937 -0.3324 -0.3272  0.6630
 1756SOL     OW15236   3.575   8.219   1.692  0.0513  0.2236  0.2490
 1756SOL    HW115237   3.659   8.263   1.724 -0.2721  1.2831 -0.3126
 1756SOL    HW215238   3.583   8.201   1.594 -1.2150  2.3809 -0.2937
 1757SOL     OW15239   1.882   7.493   2.617  0.0868  0.3381 -0.2301
 1757SOL    HW115240   1.837   7.427   2.678 -0.4783  1.7891  0.9840
 1757SOL    HW215241   1.978   7.502   2.642 -0.3825  1.7235  1.2225
 1758SOL     OW15242   3.897   0.839   0.915 -0.6868  0.0117 -0.1810
 1758SOL    HW115243   3.915   0.741   0.921  1.1955  0.1240 -3.1252
 1758SOL    HW215244   3.798   0.855   0.918 -0.9496 -1.8194  1.8948
 1759SOL     OW15245   1.015   2.950   0.687  0.0149 -0.1245 -0.1346
 1759SOL    HW115246   1.030   2.871   0.628 -0.7620  0.2467 -0.8494
 1759SOL    HW215247   1.047   3.033   0.641 -0.8805  0.2041 -0.1804
 1760SOL     OW15248   1.382   7.413   1.555 -0.1925  0.4853 -0.1373
 1760SOL    HW115249   1.415   7.477   1.625  0.5155 -0.7460  0.6813
 1760SOL    HW215250   1.309   7.357   1.594  0.6357 -0.6340 -0.1720
 1761SOL     OW15251   3.165   6.097   2.494 -0.2420  0.9830  0.2402
 1761SOL    HW115252   3.147   6.171   2.558  3.4083  1.7925  0.4180
 1761SOL    HW215253   3.138   6.125   2.401 -1.1097  1.5892  0.6704
 1762SOL     OW15254   2.564   6.806   1.094 -0.1459 -0.1998 -0.4960
 1762SOL    HW115255   2.505   6.817   1.174 -0.0244  0.6673 -0.5176
 1762SOL    HW215256   2.637   6.741   1.115 -0.1080  0.0325  0.1046
 1763SOL     OW15257   3.700   0.664   0.471 -0.2010 -0.0471 -0.2259
 1763SOL    HW115258   3.732   0.658   0.377  0.0203  2.0707 -0.3101
 1763SOL    HW215259   3.605   0.694   0.473  0.5508  2.4486  0.2517
 1764SOL     OW15260   2.970  10.358   0.800 -0.7006  0.3858 -0.0972
 1764SOL    HW115261   3.052  10.414   0.786 -0.2982 -0.2393 -0.2878
 1764SOL    HW215262   2.937  10.372   0.894 -0.9224  1.3440 -0.3123
 1765SOL     OW15263   9.443   4.338   2.143 -0.0863  0.4007  0.1087
 1765SOL    HW115264   9.501   4.285   2.206  1.8585  1.9036 -0.3855
 1765SOL    HW215265   9.473   4.324   2.049 -1.5728 -0.0631 -0.3242
 1766SOL     OW15266  10.296   5.684   1.153  0.4687  0.5675  0.2983
 1766SOL    HW115267  10.219   5.651   1.099  0.3146 -1.0349  1.4472
 1766SOL    HW215268  10.382   5.650   1.114  0.3825 -0.2385  0.7933
 1767SOL     OW15269   2.908   7.048   2.106 -0.0766 -0.1922 -0.0911
 1767SOL    HW115270   2.918   7.147   2.105 -0.2959 -0.1781 -1.4742
 1767SOL    HW215271   2.978   7.007   2.047 -0.0776 -0.8553  0.3603
 1768SOL     OW15272   4.182   4.214   0.311  0.7783  0.2733  0.6618
 1768SOL    HW115273   4.097   4.200   0.362  0.8569  1.6401  1.2105
 1768SOL    HW215274   4.212   4.309   0.322  1.1593  0.4189 -1.3886
 1769SOL     OW15275   3.616   9.191   0.433  0.0110  0.2933 -0.9269
 1769SOL    HW115276   3.635   9.163   0.339  2.5268  0.7946 -0.6174
 1769SOL    HW215277   3.624   9.291   0.439 -1.5749  0.3952 -0.4856
 1770SOL     OW15278   1.934   5.817   2.247  0.1384 -0.0352  0.3437
 1770SOL    HW115279   1.881   5.770   2.318  0.1057  0.0468  0.3725
 1770SOL    HW215280   2.031   5.797   2.261  0.0751 -0.6289 -0.0322
 1771SOL     OW15281   1.861   1.603   2.255  0.0254  0.7369  0.0225
 1771SOL    HW115282   1.946   1.598   2.308 -0.8719  0.5543  1.4655
 1771SOL    HW215283   1.833   1.510   2.229 -0.5836  0.6560  0.9401
 1772SOL     OW15284   0.766   4.421   0.416  0.1020 -0.4867 -0.0816
 1772SOL    HW115285   0.676   4.452   0.386  0.6735  0.1873 -1.1376
 1772SOL    HW215286   0.807   4.492   0.474  0.4850 -0.2277 -0.6660
 1773SOL     OW15287   2.875   7.101   1.563 -0.3464 -0.1208  0.3756
 1773SOL    HW115288   2.814   7.120   1.640  0.8823 -0.2060  1.3783
 1773SOL    HW215289   2.904   7.006   1.566 -1.4795 -0.5425 -1.0692
 1774SOL     OW15290   4.010   8.711   2.063  0.3865 -0.3470 -0.0741
 1774SOL    HW115291   4.082   8.645   2.040  1.7946  1.0357  0.2741
 1774SOL    HW215292   3.970   8.687   2.151  2.0494  0.2024  0.8593
 1775SOL     OW15293   3.083   3.627   2.616 -0.1692 -0.4311  0.1892
 1775SOL    HW115294   3.011   3.676   2.567 -0.6912  0.6026  1.9241
 1775SOL    HW215295   3.066   3.529   2.612 -1.7368 -0.2014  0.6135
 1776SOL     OW15296  10.317   5.291   0.176  0.0488  0.2769 -0.1654
 1776SOL    HW115297  10.230   5.333   0.202 -0.0151  0.4737 -0.7127
 1776SOL    HW215298  10.319   5.275   0.078 -0.2258 -1.6727  0.1321
 1777SOL     OW15299   4.743   3.155   1.372  0.3057  0.0594 -0.2074
 1777SOL    HW115300   4.683   3.212   1.428 -1.3154 -1.6755 -0.1572
 1777SOL    HW215301   4.833   3.149   1.417 -0.9682 -1.3470  2.2982
 1778SOL     OW15302   4.605   9.145   2.157 -0.8872 -0.2787  0.0054
 1778SOL    HW115303   4.620   9.063   2.101 -0.0749 -0.7993  0.9638
 1778SOL    HW215304   4.508   9.156   2.174 -1.0864 -0.4708 -0.9865
 1779SOL     OW15305   3.180   2.125   0.916  0.1374  0.3080 -0.5221
 1779SOL    HW115306   3.268   2.139   0.871  0.2428 -0.7559 -0.6785
 1779SOL    HW215307   3.180   2.035   0.961 -0.7603  0.4259 -0.2769
 1780SOL     OW15308   1.242   6.479   1.534 -0.5768 -0.3167 -0.3891
 1780SOL    HW115309   1.338   6.496   1.511 -0.2005  2.2401  2.7286
 1780SOL    HW215310   1.184   6.542   1.482 -0.1240  1.7599  1.5490
 1781SOL     OW15311   5.223   3.512   1.782 -0.2470  0.1212 -0.0683
 1781SOL    HW115312   5.172   3.441   1.733  0.5010 -0.7952  0.4646
 1781SOL    HW215313   5.315   3.519   1.743 -0.3324  0.8084 -0.1352
 1782SOL     OW15314   1.880   6.743   1.376 -0.1219 -0.0296 -0.9595
 1782SOL    HW115315   1.941   6.821   1.361 -1.3784  1.1213 -0.2486
 1782SOL    HW215316   1.800   6.773   1.429 -1.1138 -1.5915 -1.5325
 1783SOL     OW15317   9.909   5.400   0.938 -0.6249  0.2678 -0.6702
 1783SOL    HW115318   9.898   5.315   0.991 -3.5017  0.8141 -0.2963
 1783SOL    HW215319   9.937   5.377   0.845  1.0652 -0.9186  0.0935
 1784SOL     OW15320   3.298   7.824   0.308 -0.6321 -0.4881 -0.7373
 1784SOL    HW115321   3.271   7.881   0.230  0.1244  0.4319 -0.3468
 1784SOL    HW215322   3.397   7.811   0.306 -0.6302 -0.5804 -0.0115
 1785SOL     OW15323   2.652   6.604   1.824 -0.2811  0.1992  0.1029
 1785SOL    HW115324   2.725   6.641   1.882  1.5562 -0.9059 -1.4752
 1785SOL    HW215325   2.575   6.577   1.882  1.4432 -0.7192  2.0554
 1786SOL     OW15326   4.119   2.424   2.256  0.0694  0.1806 -0.0394
 1786SOL    HW115327   4.132   2.325   2.260  1.0801  0.2157 -1.9713
 1786SOL    HW215328   4.203   2.470   2.285  0.0636  0.4547 -0.4513
 1787SOL     OW15329   0.773   3.595   2.160  0.2068 -1.1566 -0.2869
 1787SOL    HW115330   0.784   3.496   2.170 -0.6461 -1.4034 -1.6453
 1787SOL    HW215331   0.699   3.614   2.095 -1.1781  0.3832  1.6454
 1788SOL     OW15332   2.521   7.080   1.106  0.1641  0.3702 -0.5324
 1788SOL    HW115333   2.524   7.121   1.198  1.6252  0.7221 -0.7216
 1788SOL    HW215334   2.548   6.984   1.111  1.3300  0.6814 -0.7412
 1789SOL     OW15335   1.594   4.045   1.552 -0.1695 -0.2025  0.4950
 1789SOL    HW115336   1.656   4.123   1.553 -0.5371  0.0897  2.8008
 1789SOL    HW215337   1.501   4.076   1.571 -0.9459 -0.7441 -2.1803
 1790SOL     OW15338   2.178   9.316   1.924  0.5409  0.4404  0.1070
 1790SOL    HW115339   2.154   9.326   2.021 -0.0046  0.6007 -0.0451
 1790SOL    HW215340   2.256   9.375   1.904 -0.3368  1.6216  0.0868
 1791SOL     OW15341   3.588   3.760   0.035  0.2670 -0.3778 -0.3829
 1791SOL    HW115342   3.520   3.691   0.009  1.0060 -0.6360 -1.7123
 1791SOL    HW215343   3.659   3.717   0.090  0.1731 -0.4508 -0.3184
 1792SOL     OW15344   9.883   5.459   2.274 -0.5152 -0.0918  0.2820
 1792SOL    HW115345   9.808   5.474   2.338 -0.2466 -0.5667  0.7069
 1792SOL    HW215346   9.852   5.481   2.181 -1.3283 -0.7715  0.3880
 1793SOL     OW15347  10.205   4.496   0.532 -0.0154 -0.3776 -0.4894
 1793SOL    HW115348  10.189   4.558   0.455 -0.7181 -0.4568 -0.4098
 1793SOL    HW215349  10.171   4.405   0.508 -0.4595 -0.3449  0.0040
 1794SOL     OW15350   2.110   0.609   1.746 -0.0159 -0.2452  0.2843
 1794SOL    HW115351   2.102   0.705   1.772  1.0992  1.1815 -4.1578
 1794SOL    HW215352   2.019   0.570   1.735 -0.4796  0.3695  1.7337
 1795SOL     OW15353   2.413   3.558   1.887  0.0598  0.0629  0.2077
 1795SOL    HW115354   2.357   3.634   1.854  1.3731  1.8767  2.0411
 1795SOL    HW215355   2.508   3.587   1.896  0.3260 -1.3414  2.3247
 1796SOL     OW15356   3.922   8.210  -0.001 -0.2726  0.0184 -0.1068
 1796SOL    HW115357   3.899   8.303   0.028  1.8419  1.3003 -2.3768
 1796SOL    HW215358   3.877   8.144   0.060  0.0206  2.5099  2.9315
 1797SOL     OW15359   3.502   5.695   0.635  0.0748  0.2367 -0.0076
 1797SOL    HW115360   3.464   5.685   0.727  1.5723  0.4655  0.6342
 1797SOL    HW215361   3.540   5.787   0.624 -0.7527  0.4679 -1.1160
 1798SOL     OW15362   2.955   4.032   2.315  0.0270 -0.0864 -0.0371
 1798SOL    HW115363   3.049   4.015   2.287 -0.2331 -0.6164 -0.6108
 1798SOL    HW215364   2.951   4.113   2.374  0.7244  0.4437 -0.7169
 1799SOL     OW15365   0.967   6.456   2.127  0.7147 -0.1335  0.0812
 1799SOL    HW115366   1.065   6.440   2.116  0.9806  1.1368  0.4624
 1799SOL    HW215367   0.916   6.383   2.081  1.8340 -0.3566 -0.8460
 1800SOL     OW15368   1.722   7.592   0.243  0.4892 -0.3993  0.4674
 1800SOL    HW115369   1.820   7.592   0.222  0.4106 -0.0846  0.0948
 1800SOL    HW215370   1.693   7.685   0.263 -0.1526 -0.1889 -1.3968
 1801SOL     OW15371   3.626   3.339   1.943 -0.0541 -0.3180 -0.3946
 1801SOL    HW115372   3.615   3.358   1.845 -0.9393 -0.5252 -0.3384
 1801SOL    HW215373   3.554   3.276   1.973 -0.0861  0.1364  0.4985
 1802SOL     OW15374  10.466   6.398   2.448 -0.0014 -0.1860  0.7564
 1802SOL    HW115375  10.397   6.411   2.519 -1.2255  0.5340 -0.5334
 1802SOL    HW215376  10.537   6.469   2.457  0.0176 -0.2868  1.4332
 1803SOL     OW15377   4.893   2.876   1.394  0.1207  0.5870 -0.1603
 1803SOL    HW115378   4.945   2.957   1.365  0.4566  0.5371  0.2926
 1803SOL    HW215379   4.885   2.876   1.494 -0.9689  0.7289 -0.2388
 1804SOL     OW15380   2.925   8.906   0.715  0.0143  0.5373 -0.2843
 1804SOL    HW115381   2.843   8.960   0.693 -1.5360 -0.9670  1.5890
 1804SOL    HW215382   2.960   8.933   0.804 -0.7154 -1.4312  0.6234
 1805SOL     OW15383   3.728   8.403   2.537 -0.1187 -0.2722 -0.0342
 1805SOL    HW115384   3.819   8.433   2.567  0.0343  0.3934 -1.1333
 1805SOL    HW215385   3.737   8.341   2.459 -0.6300  0.2327 -0.4994
 1806SOL     OW15386  10.501   5.514   0.712  0.2416  0.3407  0.3686
 1806SOL    HW115387  10.472   5.424   0.679 -1.4699  1.2875 -0.8012
 1806SOL    HW215388  10.579   5.546   0.659 -2.1760  1.6290 -2.5509
 1807SOL     OW15389   3.097   1.184   0.146 -0.3256 -0.2035 -0.6220
 1807SOL    HW115390   3.033   1.109   0.161 -2.1030  1.5838  1.1089
 1807SOL    HW215391   3.067   1.239   0.068 -0.9147  0.6019  0.1550
 1808SOL     OW15392   2.931   3.507   2.157 -0.2741 -0.2053 -0.4202
 1808SOL    HW115393   3.009   3.474   2.104  1.3829 -0.2296  1.9654
 1808SOL    HW215394   2.928   3.607   2.153  0.3917 -0.1517  0.1081
 1809SOL     OW15395   4.808   3.383   2.489 -0.4137  0.5549  0.1072
 1809SOL    HW115396   4.825   3.356   2.584 -1.3088  1.6134  0.5923
 1809SOL    HW215397   4.818   3.304   2.429 -0.6538 -0.3151  1.1949
 1810SOL     OW15398   3.829   4.608   1.115 -0.8170 -0.0922 -0.4626
 1810SOL    HW115399   3.839   4.706   1.096 -1.0242 -0.1443 -0.8400
 1810SOL    HW215400   3.870   4.587   1.204  1.9268 -0.1875 -1.7089
 1811SOL     OW15401   4.109   4.068   1.858  0.1158  0.3139  0.4015
 1811SOL    HW115402   4.038   4.114   1.806  1.3192 -0.8069 -2.3450
 1811SOL    HW215403   4.192   4.123   1.858  0.0051  0.4925  1.4965
 1812SOL     OW15404   9.919   4.750   1.023  0.3275 -0.5925  0.4481
 1812SOL    HW115405   9.895   4.778   0.930  0.1533  1.0392  0.9632
 1812SOL    HW215406   9.938   4.832   1.078  0.7368 -1.5603  1.7581
 1813SOL     OW15407   2.168   1.211   1.356  0.2037 -0.4327  0.1039
 1813SOL    HW115408   2.098   1.244   1.420 -0.2414  2.7480 -1.8891
 1813SOL    HW215409   2.259   1.235   1.391 -0.0420  1.3732 -0.4321
 1814SOL     OW15410   1.979   5.876   1.069  0.1138  0.1128  0.1102
 1814SOL    HW115411   2.059   5.854   1.125  0.1107 -0.0500  0.0501
 1814SOL    HW215412   1.996   5.848   0.974  0.8978  2.1393 -0.3830
 1815SOL     OW15413   3.772   5.200   2.180  0.3011  0.2149 -0.0641
 1815SOL    HW115414   3.850   5.167   2.127  0.3312  0.0883  0.0581
 1815SOL    HW215415   3.688   5.158   2.145  0.3300  0.0694  0.0404
 1816SOL     OW15416  10.128   4.350   1.189  0.0414 -0.1986  1.0331
 1816SOL    HW115417  10.190   4.372   1.263  1.3984 -0.5963  0.0376
 1816SOL    HW215418  10.104   4.252   1.193  1.3462 -0.5710  0.0598
 1817SOL     OW15419   2.536   5.676   0.461 -0.0364 -0.3631  0.3511
 1817SOL    HW115420   2.472   5.600   0.452  0.2927 -0.7852  1.4269
 1817SOL    HW215421   2.585   5.668   0.548  2.2406 -0.6381 -0.9357
 1818SOL     OW15422   3.847   1.629   1.387 -0.7134 -0.2608  0.5643
 1818SOL    HW115423   3.804   1.563   1.326 -0.7828 -0.4242  0.7905
 1818SOL    HW215424   3.863   1.715   1.338  3.7692 -1.9538 -1.2415
 1819SOL     OW15425   3.631   8.751   0.371  0.0392 -0.2463  0.2592
 1819SOL    HW115426   3.668   8.662   0.397 -1.9854 -0.9738  0.7239
 1819SOL    HW215427   3.577   8.788   0.446 -1.4617  0.0711 -0.9483
 1820SOL     OW15428   4.027   4.407   2.471 -0.2336 -0.7602  0.0052
 1820SOL    HW115429   4.039   4.357   2.556  1.3691 -0.8507 -0.2694
 1820SOL    HW215430   4.087   4.487   2.471  0.6382 -1.4027 -1.5323
 1821SOL     OW15431   4.117   9.922   2.125 -0.5540  0.5331  0.5402
 1821SOL    HW115432   4.033   9.936   2.178  0.5389  1.6489  2.0082
 1821SOL    HW215433   4.138  10.004   2.072 -0.0692  0.4609  0.6160
 1822SOL     OW15434   3.474   4.141   2.174  0.2930  0.3696  0.3730
 1822SOL    HW115435   3.415   4.213   2.137  0.0911  0.3102  0.5721
 1822SOL    HW215436   3.569   4.170   2.170  0.2369  0.5301  0.1891
 1823SOL     OW15437   2.365   1.998   2.058 -0.0919  0.0235 -0.3000
 1823SOL    HW115438   2.461   2.018   2.038 -0.4059  1.8536 -0.0586
 1823SOL    HW215439   2.313   2.001   1.973  0.1539 -1.5605 -0.5165
 1824SOL     OW15440   2.413   4.007   0.446 -0.5474 -0.1287 -0.9141
 1824SOL    HW115441   2.380   4.101   0.459 -0.4304  0.1567 -2.5180
 1824SOL    HW215442   2.409   3.984   0.349  1.8269 -0.9032 -0.8460
 1825SOL     OW15443   9.648   4.222   2.288  0.3937  0.1702  0.9879
 1825SOL    HW115444   9.666   4.124   2.296  0.5301  0.0426 -0.7757
 1825SOL    HW215445   9.680   4.268   2.371  0.9504 -1.1691  1.5408
 1826SOL     OW15446   2.482   7.084   0.755  0.4057  0.2675 -0.6436
 1826SOL    HW115447   2.461   7.137   0.836 -0.9150  0.9396 -1.4103
 1826SOL    HW215448   2.476   6.986   0.776  0.4863  0.4384  0.1625
 1827SOL     OW15449   5.086   3.348   1.605 -0.0490 -0.4322 -0.1358
 1827SOL    HW115450   5.102   3.250   1.613  0.3054 -0.5446 -1.9241
 1827SOL    HW215451   5.088   3.374   1.508  2.8842  1.8537  0.4680
 1828SOL     OW15452   3.476   1.814   0.658  0.0674 -0.3124  0.0730
 1828SOL    HW115453   3.490   1.838   0.754 -1.5536  1.1142 -0.0290
 1828SOL    HW215454   3.565   1.803   0.613  0.9035  2.8522  0.8142
 1829SOL     OW15455   1.518   6.161   1.559  0.0387  0.3887  0.4103
 1829SOL    HW115456   1.484   6.248   1.523  0.7751  0.6827  0.4092
 1829SOL    HW215457   1.533   6.098   1.484 -2.0268 -0.2907  0.5623
 1830SOL     OW15458  10.425   4.535   0.681 -0.1659 -0.8883  0.4581
 1830SOL    HW115459  10.395   4.611   0.739  0.6999  2.1311 -2.8593
 1830SOL    HW215460  10.349   4.505   0.624  0.7195  0.8456 -1.6999
 1831SOL     OW15461   0.735   4.276   2.117 -0.2217  0.0332 -0.6862
 1831SOL    HW115462   0.782   4.195   2.151 -0.2084 -0.1078 -1.0381
 1831SOL    HW215463   0.800   4.337   2.073 -0.3446 -0.1223 -1.0962
 1832SOL     OW15464   1.561   3.371   0.850  0.2803 -0.1807 -0.1062
 1832SOL    HW115465   1.475   3.394   0.804  0.0424 -1.0624 -0.1107
 1832SOL    HW215466   1.543   3.306   0.924  0.8291  0.2930  0.4554
 1833SOL     OW15467   3.842   2.433   0.829  0.2915  0.4897  0.2015
 1833SOL    HW115468   3.893   2.473   0.753  1.6492 -0.0100  0.8361
 1833SOL    HW215469   3.879   2.466   0.916 -0.1072 -0.3077  0.6833
 1834SOL     OW15470   3.579   8.124   1.220  0.0254  0.3932 -0.1855
 1834SOL    HW115471   3.505   8.071   1.263  0.0776  1.7509  1.6100
 1834SOL    HW215472   3.637   8.062   1.168 -1.6216 -0.8945 -0.5567
 1835SOL     OW15473   3.623   1.176   2.213  0.7525 -0.1231  0.3868
 1835SOL    HW115474   3.594   1.160   2.308 -0.1006  1.7621  0.4787
 1835SOL    HW215475   3.543   1.192   2.156  1.4189  2.0074  0.0046
 1836SOL     OW15476   3.161   1.428   1.445  0.1916 -0.0846  0.3229
 1836SOL    HW115477   3.185   1.499   1.511  0.0834  1.3072 -1.0928
 1836SOL    HW215478   3.069   1.445   1.410  0.2052 -0.8562 -0.1103
 1837SOL     OW15479   1.298   3.329   1.192  0.1594 -0.2597  0.0227
 1837SOL    HW115480   1.212   3.380   1.192  0.6749  0.6266  1.1739
 1837SOL    HW215481   1.279   3.232   1.176 -1.1150 -0.1636  0.8714
 1838SOL     OW15482   0.656   5.963   0.104  0.4120  0.1843 -0.1833
 1838SOL    HW115483   0.712   5.880   0.104  0.0024 -0.0903 -0.2339
 1838SOL    HW215484   0.616   5.975   0.194 -0.0272 -0.0074 -0.3522
 1839SOL     OW15485   4.499   9.361   0.147  0.0891 -0.6582  0.2952
 1839SOL    HW115486   4.468   9.446   0.190 -0.8008 -0.5413 -0.5793
 1839SOL    HW215487   4.515   9.377   0.049  1.4303 -1.1021  0.4334
 1840SOL     OW15488   3.865   8.735   0.911 -0.5842  0.0934  0.1010
 1840SOL    HW115489   3.882   8.671   0.836 -2.6268  0.6659 -0.8948
 1840SOL    HW215490   3.821   8.687   0.987 -2.7535  0.3934 -0.9163
 1841SOL     OW15491   3.237   5.957   0.354  0.9766 -0.0776 -0.2554
 1841SOL    HW115492   3.206   5.903   0.432 -0.4281  0.4323 -0.4443
 1841SOL    HW215493   3.332   5.934   0.333  0.9737 -1.1157  0.8223
 1842SOL     OW15494   0.812   6.478   0.827 -0.1274  0.0520 -0.4365
 1842SOL    HW115495   0.737   6.542   0.841 -0.3657 -0.4329  0.5346
 1842SOL    HW215496   0.871   6.478   0.908  0.2940 -0.3938 -0.7403
 1843SOL     OW15497   1.844  10.133   2.161 -0.1433 -0.1109  0.8875
 1843SOL    HW115498   1.935  10.122   2.121 -0.4494 -0.9284  0.4125
 1843SOL    HW215499   1.784  10.060   2.128 -0.9171  0.3110  1.3541
 1844SOL     OW15500   3.329   4.686   2.001 -0.2443 -0.2104  0.1738
 1844SOL    HW115501   3.420   4.710   1.965 -0.3845  0.3508  0.1885
 1844SOL    HW215502   3.263   4.683   1.926 -1.0837  3.5583  0.6715
 1845SOL     OW15503   4.860   2.733   0.154  0.4637  0.1394  0.2449
 1845SOL    HW115504   4.832   2.716   0.060  0.5040  0.3392  0.1971
 1845SOL    HW215505   4.954   2.701   0.167  0.7864  0.9798 -0.0347
 1846SOL     OW15506   2.079   3.011   1.960 -0.0836 -0.6617  0.1988
 1846SOL    HW115507   2.136   2.933   1.985  1.5486  0.4075 -0.1459
 1846SOL    HW215508   2.071   3.073   2.039 -0.0082 -0.3510 -0.0366
 1847SOL     OW15509   2.702   5.835   1.056  0.0126  0.2268  0.3843
 1847SOL    HW115510   2.606   5.863   1.057  0.0787  0.4621  1.3692
 1847SOL    HW215511   2.758   5.911   1.022 -0.5678 -1.4580 -4.5705
 1848SOL     OW15512   2.426   7.359   2.490  0.0466  0.0390 -0.0508
 1848SOL    HW115513   2.526   7.356   2.488  0.0302 -2.5612  0.4455
 1848SOL    HW215514   2.392   7.284   2.547 -2.1840  1.1517  0.1306
 1849SOL     OW15515   2.836   9.269   2.167  0.6253 -0.1680  0.8878
 1849SOL    HW115516   2.752   9.280   2.113  1.7275  0.1445 -0.8138
 1849SOL    HW215517   2.826   9.192   2.230 -0.8898 -0.2260  0.5879
 1850SOL     OW15518   2.539   9.759   0.526  0.4495  0.2745  0.9709
 1850SOL    HW115519   2.591   9.829   0.576 -0.6028 -0.3361  2.9621
 1850SOL    HW215520   2.559   9.669   0.565 -1.0398 -0.1128  0.8630
 1851SOL     OW15521   3.896   5.443   1.906 -0.8378  0.2991 -0.0911
 1851SOL    HW115522   3.799   5.432   1.929 -0.4989  1.0072  1.7636
 1851SOL    HW215523   3.951   5.383   1.963 -0.0711  1.0484 -0.0225
 1852SOL     OW15524   9.386   4.976   2.631  0.6946  0.4567  0.4071
 1852SOL    HW115525   9.439   4.937   2.706 -1.6062 -0.4064  1.6318
 1852SOL    HW215526   9.345   4.902   2.577  0.3567  1.1220 -0.2584
 1853SOL     OW15527   3.829   9.392   0.337 -0.5749 -0.1448  0.1696
 1853SOL    HW115528   3.737   9.429   0.347 -0.0383  1.1982  0.3207
 1853SOL    HW215529   3.896   9.465   0.353  0.5106 -1.0861 -0.0060
 1854SOL     OW15530   3.108   9.380   1.843  0.1826  0.3390 -0.4470
 1854SOL    HW115531   3.014   9.405   1.865  0.0978  1.5442 -2.0730
 1854SOL    HW215532   3.110   9.321   1.762  0.8247  0.4647 -0.5307
 1855SOL     OW15533   3.566   6.444   1.904  0.2885  0.4138 -0.5255
 1855SOL    HW115534   3.653   6.400   1.927 -0.7579 -2.0470 -1.1206
 1855SOL    HW215535   3.536   6.499   1.982  1.6168  0.0433  0.2765
 1856SOL     OW15536   3.124   5.764   0.018 -0.4166 -0.0588  0.4726
 1856SOL    HW115537   3.214   5.733   0.045  0.0019 -0.7024 -1.5604
 1856SOL    HW215538   3.106   5.854   0.057  0.6297 -0.4320  1.8190
 1857SOL     OW15539   2.505   3.791   0.035 -0.2451 -0.0251  0.2560
 1857SOL    HW115540   2.425   3.842   0.065  0.0550  0.4042  0.3263
 1857SOL    HW215541   2.488   3.693   0.047  0.4787  0.1796  3.3531
 1858SOL     OW15542   4.404   9.881   1.956 -0.1997  0.5870  0.6125
 1858SOL    HW115543   4.443   9.819   2.024 -0.2656 -1.0821 -0.8379
 1858SOL    HW215544   4.365   9.828   1.881 -2.0311  2.3465  0.2869
 1859SOL     OW15545   2.507   9.568   1.685 -0.4251 -0.3822  0.1671
 1859SOL    HW115546   2.521   9.602   1.778  1.0025 -1.5071  0.3860
 1859SOL    HW215547   2.491   9.469   1.688  2.3776 -0.9386 -0.9517
 1860SOL     OW15548   3.255   2.444   1.047  0.0267  0.1661  0.5204
 1860SOL    HW115549   3.159   2.416   1.046  0.0827 -0.0155 -0.2026
 1860SOL    HW215550   3.279   2.483   0.958 -0.3667  3.6066  1.8238
 1861SOL     OW15551   3.389   7.251   0.979 -0.2099  0.6380 -0.0008
 1861SOL    HW115552   3.339   7.269   0.894 -0.0030 -2.1709 -0.7755
 1861SOL    HW215553   3.485   7.233   0.958 -0.0308  0.5328  0.8907
 1862SOL     OW15554   4.339   1.795   0.890 -0.2658  0.0071 -0.0407
 1862SOL    HW115555   4.429   1.752   0.898 -0.0962  0.2502 -0.6354
 1862SOL    HW215556   4.313   1.801   0.794 -1.8273 -1.9002  0.2447
 1863SOL     OW15557   3.776   2.374   1.898  0.4638 -0.2668 -0.3867
 1863SOL    HW115558   3.691   2.425   1.887 -0.0267 -0.9493  0.1527
 1863SOL    HW215559   3.852   2.437   1.910 -0.2433  0.3439  1.0420
 1864SOL     OW15560   1.205   5.544   0.585 -0.1482 -0.0699  0.7800
 1864SOL    HW115561   1.139   5.615   0.610 -0.7135  0.2070 -1.4037
 1864SOL    HW215562   1.294   5.567   0.626 -1.0009  0.3645  2.4622
 1865SOL     OW15563   3.390   5.715   2.219  0.0122  0.8795 -0.5778
 1865SOL    HW115564   3.373   5.780   2.293 -2.9420 -0.3984 -0.0753
 1865SOL    HW215565   3.304   5.695   2.171  1.2015 -1.2491 -1.9063
 1866SOL     OW15566   2.854   6.721   2.009  0.6518 -0.4491 -0.2989
 1866SOL    HW115567   2.776   6.771   2.048  1.0667 -0.0003 -0.0345
 1866SOL    HW215568   2.938   6.750   2.054  1.0852 -0.2705 -1.2065
 1867SOL     OW15569   2.711   5.764   1.925  0.1421 -0.5048  0.2824
 1867SOL    HW115570   2.692   5.857   1.892 -1.2577 -0.0925  2.1760
 1867SOL    HW215571   2.664   5.698   1.866  1.1705 -0.0416 -1.0987
 1868SOL     OW15572   1.171   3.203   0.590 -0.0809 -0.6412 -0.3780
 1868SOL    HW115573   1.126   3.254   0.517 -0.4704 -2.0865 -1.1642
 1868SOL    HW215574   1.260   3.170   0.558  0.1341 -0.5343  0.0951
 1869SOL     OW15575   1.055   6.179   1.894 -0.2808  0.0261 -1.5483
 1869SOL    HW115576   1.117   6.257   1.886 -3.3649  2.8300  0.6214
 1869SOL    HW215577   1.019   6.156   1.804  3.4703 -1.3639 -2.7682
 1870SOL     OW15578  10.580   6.058   0.618  0.2254 -0.1740 -0.4729
 1870SOL    HW115579  10.625   6.144   0.641  2.8710 -1.5912 -0.1772
 1870SOL    HW215580  10.496   6.049   0.671 -0.3270  2.4149 -0.8419
 1871SOL     OW15581   4.904   3.916   0.425 -0.1418 -0.4088  0.1922
 1871SOL    HW115582   4.816   3.938   0.468  1.2350 -0.1897  3.0603
 1871SOL    HW215583   4.914   3.817   0.419 -1.8313 -0.4498 -2.9645
 1872SOL     OW15584   2.811   4.511   1.702 -0.1909 -0.4844  0.7432
 1872SOL    HW115585   2.717   4.544   1.698 -0.6095 -1.6052  1.2872
 1872SOL    HW215586   2.825   4.441   1.633  0.9564  1.4195 -1.0287
 1873SOL     OW15587   1.383   5.420   0.127 -0.1495 -0.6900  0.3330
 1873SOL    HW115588   1.325   5.452   0.052  0.1771 -1.8198 -0.4107
 1873SOL    HW215589   1.444   5.493   0.155 -1.2026  0.1738  0.4103
 1874SOL     OW15590   1.968   2.589   2.130 -0.6162 -0.2302  0.1042
 1874SOL    HW115591   1.968   2.504   2.077 -0.6529 -0.1845  0.0322
 1874SOL    HW215592   2.045   2.587   2.194 -1.3143 -0.8501  0.9516
 1875SOL     OW15593   4.975   3.337   0.666  0.0447 -0.7622 -0.1733
 1875SOL    HW115594   4.931   3.248   0.676  0.2451 -0.7510  0.9446
 1875SOL    HW215595   4.906   3.409   0.672 -0.1203 -0.8422 -1.1023
 1876SOL     OW15596   1.104   5.982   2.073  0.0031  0.2156  0.2087
 1876SOL    HW115597   1.089   6.031   1.987  2.4206 -1.5342 -1.2868
 1876SOL    HW215598   1.143   6.044   2.141  1.6224  0.7329 -1.1734
 1877SOL     OW15599   3.234   4.128   1.065  0.1664 -0.2353 -0.2775
 1877SOL    HW115600   3.177   4.173   1.133  0.3625 -0.3791 -0.0148
 1877SOL    HW215601   3.178   4.100   0.987 -0.2214 -0.8443  0.2118
 1878SOL     OW15602   3.410   5.017   0.540  0.0797 -0.1786  0.3212
 1878SOL    HW115603   3.331   5.007   0.480  0.4624 -0.2840 -0.1733
 1878SOL    HW215604   3.436   4.928   0.577  2.5116 -0.8772 -2.8239
 1879SOL     OW15605   4.845   2.566   2.193  0.3484 -0.2137 -0.3852
 1879SOL    HW115606   4.844   2.529   2.100  0.5130  0.0108 -0.4768
 1879SOL    HW215607   4.827   2.493   2.258 -2.2911  0.0275 -0.7474
 1880SOL     OW15608   3.735  10.219   0.690  0.0610 -0.0658 -0.2016
 1880SOL    HW115609   3.688  10.277   0.757  0.9364 -0.1476  0.4936
 1880SOL    HW215610   3.831  10.210   0.716  0.5101  0.2599 -1.7217
 1881SOL     OW15611   4.504   9.195   0.543  0.1001 -0.0321 -0.2881
 1881SOL    HW115612   4.404   9.203   0.548  0.0096 -1.1406 -0.0731
 1881SOL    HW215613   4.530   9.099   0.556  0.9537 -0.4258 -4.1788
 1882SOL     OW15614   3.369   6.339   1.425  0.3174 -0.3446 -0.1526
 1882SOL    HW115615   3.335   6.412   1.485 -1.3981 -0.8265 -0.5220
 1882SOL    HW215616   3.454   6.302   1.463  0.8996  1.4553  0.3346
 1883SOL     OW15617   3.729   1.795   0.545 -0.2333  0.3184 -0.1630
 1883SOL    HW115618   3.800   1.822   0.480  0.1996 -0.9334 -0.2288
 1883SOL    HW215619   3.769   1.791   0.637 -0.5507  0.9295  0.0002
 1884SOL     OW15620   3.179   7.807   1.386 -0.3599  0.3706 -0.2400
 1884SOL    HW115621   3.081   7.823   1.392 -0.4650  0.3449 -1.7339
 1884SOL    HW215622   3.210   7.760   1.469 -2.0317 -1.8344 -0.8141
 1885SOL     OW15623   5.504   3.147   0.377 -0.0086 -0.0790  0.9290
 1885SOL    HW115624   5.545   3.200   0.304 -0.9883 -1.3127 -0.5554
 1885SOL    HW215625   5.496   3.203   0.460  1.3272  1.2468  0.1722
 1886SOL     OW15626   3.548   2.507   1.853 -0.2543 -0.1256  0.8130
 1886SOL    HW115627   3.506   2.477   1.767 -1.8292 -0.7952  1.7772
 1886SOL    HW215628   3.518   2.601   1.874  0.4006  0.1631  0.4644
 1887SOL     OW15629   1.246   5.077   2.535  0.0787 -0.1203 -0.2021
 1887SOL    HW115630   1.270   5.109   2.627  2.2707  0.8214 -1.0454
 1887SOL    HW215631   1.224   4.980   2.538  1.7209 -0.4745  1.0821
 1888SOL     OW15632  10.611   5.591   1.445  0.3662  0.1900 -0.3428
 1888SOL    HW115633  10.550   5.622   1.518 -0.8124 -0.1743 -1.1359
 1888SOL    HW215634  10.677   5.526   1.482 -1.0546 -0.9921  0.1700
 1889SOL     OW15635  10.321   3.255   0.428 -0.1246 -0.1284 -0.1241
 1889SOL    HW115636  10.285   3.272   0.519  3.1266 -0.0882  1.2430
 1889SOL    HW215637  10.286   3.323   0.364  0.8369  2.4501  2.0239
 1890SOL     OW15638   3.630   2.287   2.135 -0.2917 -0.0338  0.6336
 1890SOL    HW115639   3.710   2.286   2.196 -0.7997 -0.8381  1.3029
 1890SOL    HW215640   3.660   2.292   2.040  0.6190 -2.0930  0.7806
 1891SOL     OW15641   9.835   5.016   2.117 -0.3130 -0.0719  0.5416
 1891SOL    HW115642   9.744   4.976   2.129 -0.6431  0.2802 -0.7550
 1891SOL    HW215643   9.830   5.090   2.051  0.8680  0.1523  0.7011
 1892SOL     OW15644   4.260   1.551   0.972  0.0863  0.3285  0.0965
 1892SOL    HW115645   4.243   1.649   0.976  0.8970  0.4310  0.9618
 1892SOL    HW215646   4.346   1.529   1.018  1.5073 -0.3991 -2.8001
 1893SOL     OW15647   3.769   8.794   1.857  0.7636 -0.4342  0.2676
 1893SOL    HW115648   3.850   8.800   1.915  1.6692  1.1735 -1.1215
 1893SOL    HW215649   3.719   8.881   1.861  0.5116 -0.5232 -0.8870
 1894SOL     OW15650   2.528   6.521   1.066 -0.5410 -0.1892  0.2063
 1894SOL    HW115651   2.496   6.460   0.993  2.5416 -2.2240  0.4648
 1894SOL    HW215652   2.606   6.574   1.033  0.4783 -0.6613  1.8278
 1895SOL     OW15653   9.894   5.733   1.362 -0.6322  0.0009 -0.5336
 1895SOL    HW115654   9.932   5.686   1.282 -0.9046  0.4311 -0.9241
 1895SOL    HW215655   9.965   5.788   1.405 -0.9155  1.2018 -1.5609
 1896SOL     OW15656   3.897   1.729   1.875  0.2804  0.2153 -0.5043
 1896SOL    HW115657   3.940   1.818   1.867 -0.9150  0.5128 -4.9024
 1896SOL    HW215658   3.958   1.659   1.839 -1.2470  0.1561 -3.1260
 1897SOL     OW15659   1.568   7.680   2.417 -0.0571  0.0321 -0.2109
 1897SOL    HW115660   1.552   7.627   2.500  0.1840 -1.0285 -0.8279
 1897SOL    HW215661   1.615   7.765   2.440 -0.8652  0.1963  0.8481
 1898SOL     OW15662   3.110  10.008   0.126 -0.0703 -0.1255 -0.3046
 1898SOL    HW115663   3.093   9.939   0.056  1.6264 -1.5120  0.6242
 1898SOL    HW215664   3.195   9.987   0.174 -0.2505  1.8431  0.9336
 1899SOL     OW15665   1.442   7.121   2.018  0.1479  0.0690 -0.4227
 1899SOL    HW115666   1.476   7.128   1.924 -0.2985  0.8126 -0.5360
 1899SOL    HW215667   1.472   7.034   2.058 -1.2426 -1.1196 -1.8817
 1900SOL     OW15668  10.083   4.458   2.517 -0.3360 -0.1987 -0.5389
 1900SOL    HW115669  10.177   4.476   2.486 -0.8902  1.7630 -1.1562
 1900SOL    HW215670  10.068   4.501   2.606 -0.1957 -1.8397  0.3011
 1901SOL     OW15671   4.330   1.794   1.593 -0.2199 -0.1687 -0.3844
 1901SOL    HW115672   4.281   1.879   1.575 -0.5263 -0.3460 -0.4049
 1901SOL    HW215673   4.270   1.716   1.573  0.5843 -0.4148 -1.9266
 1902SOL     OW15674   1.035   3.087   0.184 -0.9784  0.2737 -0.0671
 1902SOL    HW115675   1.077   3.175   0.202 -2.1269  1.0198 -0.9484
 1902SOL    HW215676   1.099   3.013   0.207 -0.0973  1.3222  0.8776
 1903SOL     OW15677   2.160   9.195   0.912  0.2749 -0.5449  0.1857
 1903SOL    HW115678   2.252   9.234   0.906  0.8327 -1.9585 -0.8447
 1903SOL    HW215679   2.092   9.268   0.913  1.4447  0.5451  1.7232
 1904SOL     OW15680   5.609   3.506   0.888 -0.3862 -0.2302  0.2411
 1904SOL    HW115681   5.549   3.469   0.959  1.8424 -2.8245  0.8908
 1904SOL    HW215682   5.560   3.512   0.801 -2.6162  1.2556  1.5603
 1905SOL     OW15683   4.273   9.595   0.545  0.1634 -0.2687  0.5577
 1905SOL    HW115684   4.260   9.520   0.610 -2.2121 -0.4488 -0.0792
 1905SOL    HW215685   4.249   9.682   0.589 -2.5810 -0.5093 -0.3637
 1906SOL     OW15686   1.847   3.279   0.211 -0.2485  0.3156  0.2987
 1906SOL    HW115687   1.755   3.280   0.250 -0.1096 -0.3325  0.6511
 1906SOL    HW215688   1.912   3.312   0.279 -0.0851 -0.2131  0.3968
 1907SOL     OW15689   2.646   6.033   1.861 -0.1192  0.4300  0.5192
 1907SOL    HW115690   2.738   6.042   1.823  0.5074 -1.3663  1.5761
 1907SOL    HW215691   2.640   6.086   1.946 -0.2834  1.1383  0.0664
 1908SOL     OW15692   2.901   2.489   0.268 -0.2391  0.1363 -0.7045
 1908SOL    HW115693   2.922   2.451   0.358  0.6466  1.8994 -0.1525
 1908SOL    HW215694   2.986   2.506   0.218 -0.6589  0.5984 -1.2685
 1909SOL     OW15695   4.648   4.048   0.514 -0.1870 -0.0245 -0.2430
 1909SOL    HW115696   4.689   4.082   0.429 -0.2328  1.5063  0.3358
 1909SOL    HW215697   4.548   4.052   0.506 -0.2169 -1.6846 -0.8267
 1910SOL     OW15698   2.641   0.791   2.583 -0.1430 -0.6430 -0.3450
 1910SOL    HW115699   2.620   0.881   2.621  1.9406 -0.1278 -0.3811
 1910SOL    HW215700   2.650   0.725   2.657 -1.3025 -0.7600 -0.2957
 1911SOL     OW15701   1.285   6.448   0.820  0.7517 -0.4021 -0.2696
 1911SOL    HW115702   1.267   6.511   0.895  0.2117 -0.5064 -0.3092
 1911SOL    HW215703   1.215   6.459   0.749  0.1058 -1.6918  0.1428
 1912SOL     OW15704   2.250   1.971   1.815  0.7387  0.3303  0.0809
 1912SOL    HW115705   2.244   2.070   1.820 -1.0233  0.2283  0.5273
 1912SOL    HW215706   2.243   1.942   1.719  1.9334  0.6594 -0.1114
 1913SOL     OW15707   2.388   8.481   0.938 -0.0170 -0.3458 -0.1444
 1913SOL    HW115708   2.313   8.478   1.004  0.5519 -1.9791  0.4442
 1913SOL    HW215709   2.369   8.417   0.863 -0.6370  1.4568 -1.5670
 1914SOL     OW15710   2.308   6.609   0.531  0.5403 -0.6904 -0.0474
 1914SOL    HW115711   2.251   6.688   0.511  0.1285 -0.9389  0.1231
 1914SOL    HW215712   2.283   6.572   0.620  0.9850 -0.7870  0.0356
 1915SOL     OW15713   2.243   7.080   1.618  0.3716  0.1343 -0.0892
 1915SOL    HW115714   2.256   7.087   1.717 -1.6375  0.1028  0.2131
 1915SOL    HW215715   2.157   7.031   1.599  0.6431  0.2927 -1.8418
 1916SOL     OW15716   4.174   4.630   1.048  0.2134  0.3105 -0.6050
 1916SOL    HW115717   4.097   4.570   1.072 -0.3884  1.0554 -0.6546
 1916SOL    HW215718   4.259   4.577   1.050 -0.1721 -0.2807  0.4620
 1917SOL     OW15719   2.297   1.689   1.924 -0.3648  0.2838 -0.1640
 1917SOL    HW115720   2.278   1.670   2.021  3.5200  1.5271  0.9435
 1917SOL    HW215721   2.327   1.784   1.915  1.4461 -0.4632 -2.2524
 1918SOL     OW15722   2.441   7.817   0.733  0.0391  0.1292  0.4464
 1918SOL    HW115723   2.489   7.903   0.718  1.0756 -0.8789 -2.2734
 1918SOL    HW215724   2.352   7.820   0.687  0.3082 -0.4390 -0.1202
 1919SOL     OW15725   2.314   0.483   0.033 -0.3440  0.4531 -0.0076
 1919SOL    HW115726   2.408   0.457   0.014 -0.4265  1.8660 -2.6091
 1919SOL    HW215727   2.293   0.466   0.129  2.1603 -1.0383  0.3047
 1920SOL     OW15728   4.471   3.334   2.369 -0.1884 -0.1690 -0.3192
 1920SOL    HW115729   4.565   3.360   2.346 -0.0625  0.6585  1.1145
 1920SOL    HW215730   4.408   3.374   2.302  0.3146  0.7592 -0.2399
 1921SOL     OW15731   0.939   5.130   2.249  0.1827 -0.5621 -0.2665
 1921SOL    HW115732   0.985   5.047   2.283 -0.2105 -0.7213 -0.1214
 1921SOL    HW215733   0.857   5.146   2.303  1.0261  0.7439  0.6553
 1922SOL     OW15734   2.809  10.049   1.546  0.3444  0.6063 -0.8694
 1922SOL    HW115735   2.895  10.034   1.499 -0.3351 -1.3184 -1.5541
 1922SOL    HW215736   2.817  10.129   1.606  2.9861 -0.3256  0.0728
 1923SOL     OW15737   2.446   6.241   1.379 -0.2802 -0.3792 -0.2034
 1923SOL    HW115738   2.453   6.164   1.443  1.1272 -0.3856 -0.3433
 1923SOL    HW215739   2.444   6.327   1.430 -2.7584 -0.5419 -0.0081
 1924SOL     OW15740   1.913   1.992   1.904  0.3692  0.3798  0.7287
 1924SOL    HW115741   1.919   2.025   1.998 -0.7718  2.1251  0.2153
 1924SOL    HW215742   1.890   1.894   1.904  0.8258  0.2626  2.2549
 1925SOL     OW15743   2.005   4.570   1.919  0.0570  0.5437 -0.1140
 1925SOL    HW115744   2.070   4.524   1.859 -0.1998 -1.5195  1.1353
 1925SOL    HW215745   2.006   4.526   2.009 -3.6805 -0.0968 -0.3187
 1926SOL     OW15746   3.669   0.996   1.807  0.3037  0.3183  0.1745
 1926SOL    HW115747   3.623   1.084   1.809 -2.0812 -0.8861 -0.3404
 1926SOL    HW215748   3.704   0.974   1.899 -0.1506  1.2326  0.5682
 1927SOL     OW15749   1.064   5.273   1.850  0.5442  0.2278  0.4499
 1927SOL    HW115750   1.124   5.203   1.811 -1.8118 -0.3374 -2.3102
 1927SOL    HW215751   1.119   5.352   1.876  2.5437 -0.3680 -1.7429
 1928SOL     OW15752   2.475   8.305   0.193  0.2353  0.5657  0.0691
 1928SOL    HW115753   2.562   8.311   0.145  0.8517  0.4141  1.1383
 1928SOL    HW215754   2.421   8.230   0.155  1.0805 -0.1098  0.1963
 1929SOL     OW15755   4.632   3.700   0.511 -0.4111  0.1884 -0.1463
 1929SOL    HW115756   4.581   3.700   0.425 -1.3488 -0.9818  0.4007
 1929SOL    HW215757   4.595   3.770   0.572  0.1110  0.8675 -0.5996
 1930SOL     OW15758   1.844   1.763   1.157 -0.3650 -0.2454  0.0520
 1930SOL    HW115759   1.827   1.820   1.237  0.0704  1.1953 -0.8580
 1930SOL    HW215760   1.846   1.820   1.075 -0.4660 -1.6490 -0.9576
 1931SOL     OW15761   0.781   3.346   1.276  0.0704 -0.3074  0.1930
 1931SOL    HW115762   0.748   3.435   1.308  0.2562  0.4785 -1.7590
 1931SOL    HW215763   0.750   3.331   1.182  0.1018 -2.2826  0.4862
 1932SOL     OW15764   2.385   1.813   2.252  0.1633 -0.4865  0.0211
 1932SOL    HW115765   2.332   1.823   2.336  0.5716 -1.9666  0.4629
 1932SOL    HW215766   2.349   1.876   2.183 -0.3849  0.5137  1.1849
 1933SOL     OW15767   3.201   1.666   0.660 -0.5708 -0.2276  0.2031
 1933SOL    HW115768   3.193   1.626   0.569 -0.3022  0.4827 -0.1353
 1933SOL    HW215769   3.296   1.688   0.678 -0.4448 -1.4792  1.1418
 1934SOL     OW15770   2.275   4.709   0.296 -0.3183  0.3422  0.2673
 1934SOL    HW115771   2.346   4.721   0.365  0.2233  2.0348 -0.5540
 1934SOL    HW215772   2.189   4.747   0.330 -0.1550  0.7895  0.1863
 1935SOL     OW15773   2.319   0.521   1.355  0.1784  0.5129 -0.1805
 1935SOL    HW115774   2.276   0.607   1.383  1.2192  0.8947  0.2661
 1935SOL    HW215775   2.324   0.459   1.433  1.7072  0.9998  0.1079
 1936SOL     OW15776   3.830   7.828   1.287 -0.2836 -0.2642 -0.6155
 1936SOL    HW115777   3.813   7.910   1.233  2.0545 -0.1297 -1.2216
 1936SOL    HW215778   3.776   7.752   1.252 -0.5194  0.4012 -1.6822
 1937SOL     OW15779   2.029   1.629   0.801  0.5463  0.0246  0.1644
 1937SOL    HW115780   2.115   1.676   0.821 -0.1304  1.6620 -0.6156
 1937SOL    HW215781   2.041   1.530   0.810  2.5295  0.2298 -0.0436
 1938SOL     OW15782   3.595   6.188   1.484 -0.1154 -0.0143  0.0578
 1938SOL    HW115783   3.686   6.221   1.460  0.0273 -0.9728 -0.7357
 1938SOL    HW215784   3.600   6.092   1.512 -0.7017  0.2785  1.2148
 1939SOL     OW15785   9.693   3.911   0.599  0.3157  0.0039  0.1492
 1939SOL    HW115786   9.623   3.970   0.638  0.5353 -0.3509  1.0857
 1939SOL    HW215787   9.770   3.966   0.569 -0.7962  0.5232 -1.8892
 1940SOL     OW15788   3.322   6.961   0.716  0.1607 -0.7822  0.3450
 1940SOL    HW115789   3.374   6.894   0.663 -1.9906 -2.1101 -0.1241
 1940SOL    HW215790   3.272   6.915   0.789 -0.4380  0.4728  0.7438
 1941SOL     OW15791   1.261   6.460   2.040  0.0581 -0.3254  0.3812
 1941SOL    HW115792   1.354   6.458   2.076  0.4123  0.9557 -0.4290
 1941SOL    HW215793   1.261   6.427   1.946 -0.5031 -1.4514  0.7632
 1942SOL     OW15794  10.181   5.768   1.414 -0.6430 -1.1651  0.3245
 1942SOL    HW115795  10.243   5.756   1.337  0.1173  1.7106  0.4282
 1942SOL    HW215796  10.216   5.839   1.474 -1.9638 -2.3551  2.5857
 1943SOL     OW15797   4.164   2.236   1.623 -0.0772 -0.1479 -0.5454
 1943SOL    HW115798   4.191   2.218   1.717 -1.9953  0.5328  0.1583
 1943SOL    HW215799   4.238   2.283   1.575  0.4025  0.7256  1.0122
 1944SOL     OW15800   3.101   8.740   0.640  0.2805  0.4185 -0.0934
 1944SOL    HW115801   3.029   8.805   0.661 -1.4394 -1.5668  0.3613
 1944SOL    HW215802   3.188   8.773   0.676 -0.8061  1.7855  1.3538
 1945SOL     OW15803   3.987   8.647   1.221 -0.4274  0.1043  0.6737
 1945SOL    HW115804   4.057   8.635   1.291 -0.2155  3.7955  1.1877
 1945SOL    HW215805   3.959   8.743   1.217 -6.0873 -1.3400  1.0147
 1946SOL     OW15806   5.271   2.525   0.330  0.0141 -0.3202  0.5159
 1946SOL    HW115807   5.203   2.546   0.259  0.4160 -0.0787  0.2032
 1946SOL    HW215808   5.335   2.601   0.339 -0.6626  0.0972  1.8850
 1947SOL     OW15809   9.619   4.432   1.722  0.0465 -0.8774  0.5406
 1947SOL    HW115810   9.635   4.476   1.810  0.3011  0.4661 -0.1710
 1947SOL    HW215811   9.665   4.343   1.721 -2.3434 -2.2261  2.8175
 1948SOL     OW15812   2.741   2.708   2.568  0.0234  0.1553 -0.0299
 1948SOL    HW115813   2.737   2.722   2.667 -0.3601  2.1194 -0.3025
 1948SOL    HW215814   2.687   2.627   2.544 -0.4321  0.0560  1.2929
 1949SOL     OW15815   1.555   4.888   2.596  0.0512 -0.3029  0.3939
 1949SOL    HW115816   1.463   4.863   2.568  0.5865 -1.8765 -0.0118
 1949SOL    HW215817   1.592   4.956   2.533 -1.2363  1.2051  1.2269
 1950SOL     OW15818   2.233   4.993   1.464  0.0996 -0.2665  0.2692
 1950SOL    HW115819   2.265   4.991   1.370 -0.1047 -1.7655  0.2152
 1950SOL    HW215820   2.290   4.933   1.520  0.2135  0.6039  1.1007
 1951SOL     OW15821   2.702   5.042   1.294  0.3430 -0.1326  0.0794
 1951SOL    HW115822   2.674   5.006   1.205 -1.1831  0.7422  0.1789
 1951SOL    HW215823   2.622   5.045   1.355  0.1818  4.0334 -0.1592
 1952SOL     OW15824   3.977   2.911   0.948  0.3772 -0.1230 -0.1523
 1952SOL    HW115825   4.007   3.002   0.918 -1.0596  0.3677 -0.1141
 1952SOL    HW215826   3.879   2.901   0.931  0.7718 -2.1569 -1.3721
 1953SOL     OW15827   2.053   1.650   2.474  0.3165 -0.0958 -0.5281
 1953SOL    HW115828   2.112   1.577   2.508 -0.7992 -1.2542 -1.0329
 1953SOL    HW215829   2.105   1.735   2.469  1.7126 -0.9121 -0.1976
 1954SOL     OW15830   2.943   9.472   0.033  0.0948 -0.0317  0.6460
 1954SOL    HW115831   2.982   9.487  -0.057 -1.8589  0.0548 -0.2101
 1954SOL    HW215832   2.893   9.553   0.062 -0.6384 -0.6389  1.1032
 1955SOL     OW15833   2.566   0.383   0.438  0.4800 -0.2933 -0.3088
 1955SOL    HW115834   2.555   0.372   0.537  1.4088 -0.8593 -0.2699
 1955SOL    HW215835   2.549   0.479   0.414 -1.2088 -0.4521  0.1920
 1956SOL     OW15836   1.413   5.334   1.873 -0.4651  0.0721  0.0908
 1956SOL    HW115837   1.433   5.277   1.952 -1.2469  1.0202  0.9984
 1956SOL    HW215838   1.468   5.418   1.877 -0.1563 -0.0895 -0.6293
 1957SOL     OW15839   2.442   4.084   1.274  0.3393 -0.1974  0.5006
 1957SOL    HW115840   2.360   4.124   1.315  0.0681  0.0173 -0.2543
 1957SOL    HW215841   2.508   4.063   1.347  0.0999  0.7377  1.0006
 1958SOL     OW15842   2.606   6.620   2.311  0.1481 -0.1647  0.0463
 1958SOL    HW115843   2.661   6.538   2.297 -0.7225 -0.6158 -0.7829
 1958SOL    HW215844   2.509   6.597   2.303 -0.2085  0.5279  1.9100
 1959SOL     OW15845   2.469   3.060   0.643  0.4812 -0.4170  0.2074
 1959SOL    HW115846   2.511   3.149   0.623  1.0339 -0.8710 -0.6799
 1959SOL    HW215847   2.413   3.032   0.566  1.2002 -1.3580  0.0222
 1960SOL     OW15848   2.435   2.836   1.023 -0.4749  0.4955  0.2379
 1960SOL    HW115849   2.384   2.882   0.950 -0.5463 -1.3691 -0.9431
 1960SOL    HW215850   2.370   2.797   1.089 -0.4357  1.4965  0.8747
 1961SOL     OW15851   3.691  10.316   1.209  0.3821  0.0366 -0.5353
 1961SOL    HW115852   3.768  10.268   1.250 -1.1156 -0.6738  1.5011
 1961SOL    HW215853   3.606  10.274   1.239 -0.8700  2.3839 -0.7133
 1962SOL     OW15854   2.805   5.538   0.221 -0.6204  0.7035 -0.1457
 1962SOL    HW115855   2.741   5.612   0.242 -0.1910  1.0869 -0.1759
 1962SOL    HW215856   2.757   5.465   0.174 -1.3069  0.4408  0.9339
 1963SOL     OW15857   2.927   1.644   2.351  0.0254  0.5999 -0.0010
 1963SOL    HW115858   2.979   1.574   2.302  0.2841  1.0745 -0.4156
 1963SOL    HW215859   2.886   1.707   2.285  0.2424  1.1471  0.3818
 1964SOL     OW15860   2.839   8.128   0.283 -0.5487  0.6808 -0.2468
 1964SOL    HW115861   2.785   8.092   0.207 -0.7894  0.6743 -0.0742
 1964SOL    HW215862   2.785   8.124   0.367 -0.1800  0.4179 -0.0210
 1965SOL     OW15863   9.758   4.921   1.585 -0.1628  0.1246 -0.1328
 1965SOL    HW115864   9.788   5.016   1.569 -0.3268  0.4064  1.1709
 1965SOL    HW215865   9.836   4.867   1.616  0.0625 -0.3148 -1.4536
 1966SOL     OW15866   0.793   6.212   0.710  0.9403 -0.3392 -0.1919
 1966SOL    HW115867   0.827   6.301   0.741  3.4334 -1.0215 -0.7812
 1966SOL    HW215868   0.849   6.180   0.633 -1.2465 -1.4701 -1.3575
 1967SOL     OW15869   1.512   6.256   2.366  0.3205 -0.3323  0.0441
 1967SOL    HW115870   1.446   6.234   2.438  0.8364 -0.2121  0.5593
 1967SOL    HW215871   1.594   6.200   2.377  0.7228  0.2469  0.0222
 1968SOL     OW15872   2.958   5.147   0.635  0.1115 -0.1298 -0.6393
 1968SOL    HW115873   2.987   5.054   0.655  2.0194  0.5103 -0.3432
 1968SOL    HW215874   2.882   5.172   0.695 -0.8155 -1.6841 -1.1394
 1969SOL     OW15875   4.162   7.753   0.888 -0.4438 -0.0581  0.1231
 1969SOL    HW115876   4.132   7.843   0.857  0.3793 -0.2367 -1.2440
 1969SOL    HW215877   4.257   7.759   0.921 -0.1326 -0.5592 -0.6660
 1970SOL     OW15878   3.836  10.357   1.546 -0.4480  0.3700 -0.0244
 1970SOL    HW115879   3.802  10.283   1.604  0.7708  0.4359  0.7949
 1970SOL    HW215880   3.908  10.407   1.594 -0.0556  1.0073 -1.2424
 1971SOL     OW15881   1.035   3.215   1.371  0.0014  0.1517 -0.3543
 1971SOL    HW115882   0.979   3.278   1.424 -0.2033 -1.5515  1.5023
 1971SOL    HW215883   0.979   3.172   1.300 -0.4653  0.1754  0.0033
 1972SOL     OW15884   4.670   3.817   1.217 -0.6574 -0.1471 -0.2111
 1972SOL    HW115885   4.697   3.831   1.122  1.0849 -1.1694  0.1238
 1972SOL    HW215886   4.669   3.719   1.238 -0.9919  0.0734  0.8448
 1973SOL     OW15887   2.654   4.623   0.289 -0.8954 -0.5339  0.2759
 1973SOL    HW115888   2.683   4.632   0.193  2.2535  1.9852  1.3767
 1973SOL    HW215889   2.685   4.534   0.324  0.1599 -0.4147 -0.3267
 1974SOL     OW15890   3.993   5.187   2.033 -0.3023 -0.6856  0.3856
 1974SOL    HW115891   4.053   5.188   2.113  0.6175 -0.5043 -0.3043
 1974SOL    HW215892   4.046   5.163   1.951 -1.4973 -2.2476  0.0391
 1975SOL     OW15893   3.600   3.338   1.672  0.6506  0.0631 -0.1997
 1975SOL    HW115894   3.543   3.390   1.609  2.2335  1.0547 -0.8596
 1975SOL    HW215895   3.697   3.356   1.651  1.2012 -0.1016  2.1062
 1976SOL     OW15896   5.027   3.740   0.789 -0.7774  0.5168 -0.1529
 1976SOL    HW115897   5.055   3.821   0.737 -1.7072 -0.2899 -1.9498
 1976SOL    HW215898   5.095   3.668   0.778  0.2286  1.1497  1.7366
 1977SOL     OW15899   3.017   7.694   0.104 -0.1409 -0.2228  0.1584
 1977SOL    HW115900   3.107   7.681   0.063 -0.0809 -0.1351  0.2612
 1977SOL    HW215901   3.021   7.671   0.202  0.2260  1.5453  0.5866
 1978SOL     OW15902   2.820   5.501   0.508  0.0873  0.1184 -0.0885
 1978SOL    HW115903   2.857   5.515   0.416 -0.2718 -1.5546 -0.5176
 1978SOL    HW215904   2.895   5.480   0.571  0.2832  0.7567 -0.1109
 1979SOL     OW15905   3.977   3.553   0.654 -0.0251 -0.2276  0.1504
 1979SOL    HW115906   3.901   3.534   0.716 -0.1298  3.5723  1.2890
 1979SOL    HW215907   3.943   3.590   0.568  0.5075  1.4801  0.6593
 1980SOL     OW15908   1.936   4.715   0.671 -0.1179  0.0797 -0.5586
 1980SOL    HW115909   1.945   4.800   0.723 -1.4831 -1.0759  1.6348
 1980SOL    HW215910   2.001   4.648   0.707 -0.9253 -0.6628 -0.4812
 1981SOL     OW15911   1.317   3.626   2.093 -0.0856 -0.3067  0.5146
 1981SOL    HW115912   1.350   3.602   2.002  0.2389 -0.6716  0.7290
 1981SOL    HW215913   1.227   3.668   2.086 -0.1842 -0.5984  0.0506
 1982SOL     OW15914   3.447   0.509   2.139 -1.0572  0.3822 -0.5162
 1982SOL    HW115915   3.393   0.426   2.126 -0.8228  0.5654 -2.7618
 1982SOL    HW215916   3.531   0.486   2.189 -0.0428 -1.1122 -2.8358
 1983SOL     OW15917   4.346   9.777   1.708  0.0904 -0.4692  0.1324
 1983SOL    HW115918   4.284   9.823   1.644 -1.5494 -1.5624  0.8866
 1983SOL    HW215919   4.375   9.690   1.670  0.8855 -0.1266 -0.0582
 1984SOL     OW15920   2.260   2.799   2.539  0.2254  0.2763  0.1237
 1984SOL    HW115921   2.240   2.761   2.630  0.1355 -0.1296 -0.0619
 1984SOL    HW215922   2.266   2.898   2.544  0.5498  0.2333  0.6401
 1985SOL     OW15923   2.322   2.003   0.778  0.0240  0.0682  0.0213
 1985SOL    HW115924   2.321   1.985   0.680 -0.9541 -0.4236  0.1065
 1985SOL    HW215925   2.411   2.038   0.806 -0.0568  1.2788 -1.2277
 1986SOL     OW15926   2.214   8.493   0.530  0.0261  0.0699  0.9194
 1986SOL    HW115927   2.227   8.482   0.431  1.6942 -2.1530  1.3387
 1986SOL    HW215928   2.267   8.571   0.563 -0.1946  0.5556  0.1195
 1987SOL     OW15929   4.177   8.536   2.352 -0.1330 -0.3377 -0.1988
 1987SOL    HW115930   4.168   8.523   2.254 -0.9653  2.4167 -0.5249
 1987SOL    HW215931   4.123   8.466   2.400 -0.2037 -1.3150 -1.6851
 1988SOL     OW15932   3.287   4.794   2.258  0.5299 -0.3991  0.0461
 1988SOL    HW115933   3.290   4.889   2.227  0.0442 -0.3618  0.1113
 1988SOL    HW215934   3.297   4.733   2.180 -0.5185 -0.3031 -0.1693
 1989SOL     OW15935   0.795   4.709   2.127  0.0025 -0.6648 -0.3221
 1989SOL    HW115936   0.720   4.681   2.067  0.1617 -1.4490 -0.1582
 1989SOL    HW215937   0.779   4.670   2.218  1.6537 -2.5281 -0.7982
 1990SOL     OW15938   3.596   8.589   2.213 -0.6027  0.2002 -0.1408
 1990SOL    HW115939   3.575   8.511   2.272  0.6732  1.0134  1.4656
 1990SOL    HW215940   3.532   8.663   2.232 -0.4228  0.3299 -0.0360
 1991SOL     OW15941   2.034   2.069   0.544  0.4267  0.2735 -0.2644
 1991SOL    HW115942   2.013   1.981   0.588  0.4675  0.0649 -0.6650
 1991SOL    HW215943   1.987   2.142   0.594 -0.8684 -0.1326 -0.8577
 1992SOL     OW15944   1.126   4.034   0.261  0.9327 -0.3616 -0.4116
 1992SOL    HW115945   1.087   4.126   0.263 -0.0350 -0.7760  2.0744
 1992SOL    HW215946   1.113   3.994   0.170  0.6685  1.6636 -1.2804
 1993SOL     OW15947   3.937   2.576   1.052 -0.1874  0.8176 -0.2308
 1993SOL    HW115948   3.978   2.657   1.011 -0.9240  1.1955 -0.2219
 1993SOL    HW215949   3.886   2.603   1.134 -1.7788  0.5705 -1.1332
 1994SOL     OW15950   2.291   1.256   1.925  0.0559  0.1598 -0.0914
 1994SOL    HW115951   2.327   1.283   2.014  0.0859 -1.7465  0.4818
 1994SOL    HW215952   2.356   1.282   1.854  0.0021  1.7413  0.4201
 1995SOL     OW15953   2.691   7.355   2.529 -0.1159 -0.0667  0.4498
 1995SOL    HW115954   2.755   7.288   2.491 -1.3938 -1.5834  0.8783
 1995SOL    HW215955   2.737   7.410   2.599  0.7819 -0.9974  0.6040
 1996SOL     OW15956   2.465   0.445   1.106 -0.6758  0.2512 -0.1987
 1996SOL    HW115957   2.556   0.482   1.086  0.2041 -1.5544  0.2511
 1996SOL    HW215958   2.431   0.483   1.191  0.1771  0.0997  0.2153
 1997SOL     OW15959   3.931   2.836   1.820  0.8965  0.0870 -0.1075
 1997SOL    HW115960   3.847   2.834   1.875 -0.5449  0.2124 -2.2817
 1997SOL    HW215961   3.926   2.766   1.749  2.3021  0.6409 -0.7534
 1998SOL     OW15962   2.941   2.155   0.046  0.3974  0.4313  0.6120
 1998SOL    HW115963   2.890   2.139   0.131  0.1451  2.0086  0.7661
 1998SOL    HW215964   3.012   2.224   0.062  0.3778  0.7033 -0.4447
 1999SOL     OW15965   4.485   4.416   0.054 -0.0169 -0.3325  0.6404
 1999SOL    HW115966   4.395   4.383   0.084 -0.0091 -1.5554 -0.6060
 1999SOL    HW215967   4.486   4.516   0.055 -1.8175 -0.2767 -0.5114
 2000SOL     OW15968   2.535   4.967   1.558 -0.4849 -0.7766 -0.0724
 2000SOL    HW115969   2.457   4.976   1.620  0.2486  0.1900  0.7297
 2000SOL    HW215970   2.619   4.990   1.607  0.2704 -1.4643 -1.0245
 2001SOL     OW15971   2.455   8.847   2.358  0.0858  0.0217  0.8209
 2001SOL    HW115972   2.515   8.881   2.432  0.7348 -0.3349  0.4628
 2001SOL    HW215973   2.434   8.922   2.296  2.4325 -0.4463 -0.5892
 2002SOL     OW15974   4.607   8.721   0.208  0.3125  0.0128 -0.1741
 2002SOL    HW115975   4.603   8.648   0.277 -0.9340 -0.2200 -0.4684
 2002SOL    HW215976   4.651   8.801   0.247  1.2278 -0.7157  0.3280
 2003SOL     OW15977   4.201   8.525   2.044  0.3650  0.2933 -0.0957
 2003SOL    HW115978   4.147   8.453   2.000 -0.7385  0.3463  1.1570
 2003SOL    HW215979   4.268   8.560   1.978 -1.8820  1.0298 -2.0853
 2004SOL     OW15980   2.581   5.951   1.336  0.0267  0.2918  0.6752
 2004SOL    HW115981   2.548   5.861   1.305 -1.0495  0.7475  0.4926
 2004SOL    HW215982   2.548   6.022   1.275  0.0376  0.9279  1.3969
 2005SOL     OW15983   1.120   3.619   1.174 -0.4498  0.2734 -0.1541
 2005SOL    HW115984   1.127   3.654   1.081  0.3941  1.3983  0.3137
 2005SOL    HW215985   1.203   3.644   1.225 -1.0463 -0.0386  0.9859
 2006SOL     OW15986   0.792   3.832   0.452 -0.2606 -0.4680 -0.1647
 2006SOL    HW115987   0.789   3.734   0.470  0.1879 -0.4431  0.0295
 2006SOL    HW215988   0.748   3.881   0.527  0.3054 -0.4594  0.1557
 2007SOL     OW15989   4.769   2.734   1.132 -0.4446  0.4677  0.0944
 2007SOL    HW115990   4.768   2.761   1.228 -1.4422 -0.3693  0.3289
 2007SOL    HW215991   4.675   2.718   1.100 -0.1963  1.6256 -1.2716
 2008SOL     OW15992   3.351  10.041   0.256 -0.2393 -0.0385 -0.5498
 2008SOL    HW115993   3.302  10.100   0.320  1.4053  1.1135 -0.3333
 2008SOL    HW215994   3.435  10.085   0.227 -0.0291 -1.3774 -2.0482
 2009SOL     OW15995   1.782   7.419   0.733 -0.2629 -0.2257 -0.0911
 2009SOL    HW115996   1.802   7.510   0.769 -1.3969 -0.4065  1.0305
 2009SOL    HW215997   1.815   7.350   0.797 -0.2485 -0.5844 -0.4855
 2010SOL     OW15998   3.174   3.771   2.207 -0.0469 -0.3112 -0.0794
 2010SOL    HW115999   3.218   3.855   2.239  2.9633 -1.5517 -0.7589
 2010SOL    HW216000   3.095   3.794   2.150 -0.3022  1.9994  1.1542
 2011SOL     OW16001   5.031   3.697   1.637 -0.8629 -0.0368 -0.3681
 2011SOL    HW116002   5.125   3.730   1.645 -0.9317 -0.1012  0.7680
 2011SOL    HW216003   5.029   3.599   1.657 -0.9153 -0.4053 -2.0883
 2012SOL     OW16004   3.445   1.039   0.713 -0.5351 -0.0010  0.1921
 2012SOL    HW116005   3.402   1.104   0.776 -0.4385  1.3093 -1.0787
 2012SOL    HW216006   3.457   1.082   0.624  0.7498 -1.3309 -0.2883
 2013SOL     OW16007   3.273   2.879   0.838 -0.5023  0.3537 -0.1802
 2013SOL    HW116008   3.191   2.828   0.864 -1.0230  1.3215  0.1195
 2013SOL    HW216009   3.298   2.856   0.744 -2.4858  1.7754 -1.0991
 2014SOL     OW16010   2.536   9.000   2.023  0.4514  0.0903  0.4418
 2014SOL    HW116011   2.476   9.015   2.102 -0.1416 -0.2570  0.0666
 2014SOL    HW216012   2.606   8.933   2.047 -1.8370 -2.6897 -0.3658
 2015SOL     OW16013   2.350   8.298   1.549 -0.1367  0.4188  0.2415
 2015SOL    HW116014   2.363   8.395   1.529  1.6813 -0.1347 -1.3110
 2015SOL    HW216015   2.307   8.254   1.470  2.5792 -0.7843 -0.6235
 2016SOL     OW16016   2.483   8.923   0.907  1.1799  0.4149 -0.0670
 2016SOL    HW116017   2.518   8.830   0.917  1.0994  0.1750 -1.7623
 2016SOL    HW216018   2.386   8.919   0.883  1.3883  0.8968 -1.0283
 2017SOL     OW16019   4.320   3.222   1.907 -0.2912  0.3097  0.0239
 2017SOL    HW116020   4.358   3.164   1.835 -0.6478  1.7387 -1.3343
 2017SOL    HW216021   4.274   3.164   1.975  1.8635 -1.2195  0.2392
 2018SOL     OW16022   4.140   8.798   0.893  0.3253 -0.4456 -0.0341
 2018SOL    HW116023   4.044   8.800   0.919  0.9445 -0.3259  2.4470
 2018SOL    HW216024   4.183   8.885   0.917  1.5588 -1.3437  1.1380
 2019SOL     OW16025   1.381   5.715   2.548 -0.1894  0.6241  0.0125
 2019SOL    HW116026   1.414   5.792   2.493 -0.4170  0.6178 -0.1325
 2019SOL    HW216027   1.401   5.733   2.645  0.6497  0.4082 -0.1222
 2020SOL     OW16028   0.664   3.993   0.276  0.4532  0.6612  0.0820
 2020SOL    HW116029   0.693   3.915   0.332  1.1093  1.3173  0.6726
 2020SOL    HW216030   0.738   4.060   0.272  0.2859  0.7765 -1.3038
 2021SOL     OW16031   3.102   2.844   1.630 -0.5526  0.4370 -0.1043
 2021SOL    HW116032   3.118   2.846   1.729  1.4687  1.3082 -0.4207
 2021SOL    HW216033   3.107   2.749   1.597 -0.5353  0.2146  0.5401
 2022SOL     OW16034   1.224   3.689   0.638 -0.3198 -0.2700 -0.3161
 2022SOL    HW116035   1.182   3.732   0.558  1.5380 -0.1412 -1.2343
 2022SOL    HW216036   1.322   3.708   0.639 -0.1189 -1.2951  1.3422
 2023SOL     OW16037   2.770   6.934   0.336 -0.0948  0.2549 -0.2434
 2023SOL    HW116038   2.750   6.842   0.369 -1.1771  0.5633 -0.0420
 2023SOL    HW216039   2.697   6.997   0.363  1.1057  1.3798  0.4580
 2024SOL     OW16040   1.685   2.172   1.360  0.7220  0.3254 -0.1561
 2024SOL    HW116041   1.670   2.077   1.332 -0.2930  0.5014 -0.1984
 2024SOL    HW216042   1.692   2.176   1.460 -1.2581  0.4913 -0.0223
 2025SOL     OW16043   4.269   5.782   0.354  0.3908 -0.0793 -0.5407
 2025SOL    HW116044   4.226   5.824   0.274  3.2898  4.1398 -0.0613
 2025SOL    HW216045   4.329   5.708   0.325 -1.9922 -1.6024 -1.7753
 2026SOL     OW16046   1.692   2.558   1.077 -0.6038  0.5722 -0.3616
 2026SOL    HW116047   1.673   2.567   0.979 -0.6329  0.8889 -0.3292
 2026SOL    HW216048   1.663   2.468   1.108  1.0772 -0.2194 -1.0214
 2027SOL     OW16049   5.421   4.204   0.920  0.2284  0.0107 -0.4417
 2027SOL    HW116050   5.346   4.202   0.986  0.1227 -0.3305 -0.5662
 2027SOL    HW216051   5.385   4.221   0.828  0.2280 -0.7155 -0.5872
 2028SOL     OW16052   1.896   0.544   0.132  0.0297  0.1943 -0.2329
 2028SOL    HW116053   1.872   0.465   0.187 -0.9955  1.3544  1.0086
 2028SOL    HW216054   1.854   0.536   0.041 -2.4387  0.6515  0.8398
 2029SOL     OW16055   4.303   8.030   0.095 -0.0788  0.2470  0.3605
 2029SOL    HW116056   4.262   7.939   0.091  2.1212 -0.8589  1.8312
 2029SOL    HW216057   4.292   8.076   0.007 -1.4123 -1.3422 -0.3187
 2030SOL     OW16058   2.994   8.630   1.524 -0.3792  0.4552  0.3202
 2030SOL    HW116059   3.053   8.574   1.582 -0.6450  0.4120  0.5505
 2030SOL    HW216060   2.952   8.701   1.580 -0.7156  0.3483  0.2024
 2031SOL     OW16061   1.288   2.953   1.490 -0.1636 -0.0882 -0.0412
 2031SOL    HW116062   1.356   2.950   1.563 -0.6174  0.9088  0.4396
 2031SOL    HW216063   1.277   3.048   1.459  0.8061 -0.6483 -2.1634
 2032SOL     OW16064   4.767   4.508   1.955  0.3411  0.1270  0.4802
 2032SOL    HW116065   4.805   4.544   1.869 -1.7666  1.4600  0.0554
 2032SOL    HW216066   4.697   4.440   1.934  0.3165 -0.0538  1.1562
 2033SOL     OW16067   4.989   1.735   1.583 -0.1800 -0.0863  0.3077
 2033SOL    HW116068   5.024   1.645   1.609 -0.9144 -0.3407  0.4319
 2033SOL    HW216069   5.026   1.805   1.645  0.0435 -0.3605  0.4833
 2034SOL     OW16070   2.756   5.148   0.887 -0.1204 -0.1034  0.5386
 2034SOL    HW116071   2.827   5.182   0.948  0.1098 -0.9459  0.7408
 2034SOL    HW216072   2.695   5.086   0.937 -0.2269 -0.4029  0.0370
 2035SOL     OW16073   3.897   8.912   0.353 -0.0327 -0.0041  0.3219
 2035SOL    HW116074   3.970   8.849   0.326  0.3786  1.0795 -1.1473
 2035SOL    HW216075   3.814   8.860   0.373  1.0504 -1.2383  1.8140
 2036SOL     OW16076   1.638   2.083   1.864  0.3237 -0.5891  0.2486
 2036SOL    HW116077   1.642   2.155   1.933  1.2465  0.7500 -1.1575
 2036SOL    HW216078   1.727   2.038   1.858  0.7355  0.4042 -1.2056
 2037SOL     OW16079   1.449   5.480   0.881  0.4827 -0.8363  0.2747
 2037SOL    HW116080   1.431   5.399   0.824  0.1104 -1.1254  0.8043
 2037SOL    HW216081   1.523   5.460   0.945 -0.4951 -1.1979  1.3056
 2038SOL     OW16082   3.201   9.418   0.067 -0.2980 -0.1230 -0.5450
 2038SOL    HW116083   3.106   9.431   0.092  0.1953 -0.3555  1.5621
 2038SOL    HW216084   3.213   9.326   0.029 -0.6218 -0.6860  0.7014
 2039SOL     OW16085   1.713   6.671   2.206 -0.1067 -0.4591  0.1993
 2039SOL    HW116086   1.691   6.739   2.275 -0.3489 -1.0620  0.7236
 2039SOL    HW216087   1.790   6.615   2.237 -1.1217 -1.6498  0.6194
 2040SOL     OW16088   1.979   7.299   2.192  0.0694  0.0552 -0.0000
 2040SOL    HW116089   1.910   7.348   2.244 -0.7190 -0.7269 -0.2995
 2040SOL    HW216090   2.067   7.303   2.240 -0.5684 -0.3795  1.2100
 2041SOL     OW16091   3.104   2.578   1.560  0.0128  0.3854  0.1411
 2041SOL    HW116092   3.015   2.537   1.578  0.2837  0.0088  0.6226
 2041SOL    HW216093   3.150   2.529   1.486  0.5556 -0.5253  1.0562
 2042SOL     OW16094   1.809   6.171   1.341  0.1437  0.1118 -0.2674
 2042SOL    HW116095   1.755   6.251   1.312 -1.2995 -0.3502  1.0475
 2042SOL    HW216096   1.873   6.146   1.269  0.1856  2.0781 -0.9525
 2043SOL     OW16097  10.595   4.714   1.576 -0.0684 -0.7802  0.6221
 2043SOL    HW116098  10.551   4.774   1.509 -1.4385 -1.0257  1.2884
 2043SOL    HW216099  10.553   4.727   1.666  1.1274 -1.1339  1.2437
 2044SOL     OW16100   3.060   8.186   1.850 -0.4984 -0.1632  0.1674
 2044SOL    HW116101   3.068   8.106   1.791  0.8800 -0.2319  0.4405
 2044SOL    HW216102   3.100   8.166   1.939  0.2812  0.9815  0.0807
 2045SOL     OW16103   3.844   1.277   0.205 -0.0241  0.1413 -0.2950
 2045SOL    HW116104   3.781   1.344   0.165  0.2459 -0.1236 -1.1933
 2045SOL    HW216105   3.823   1.264   0.301 -0.6550  0.8544 -0.3334
 2046SOL     OW16106   2.297   7.591   2.487  0.1177 -0.0597 -0.0706
 2046SOL    HW116107   2.334   7.499   2.497 -0.5551 -0.4909 -1.3345
 2046SOL    HW216108   2.261   7.602   2.394  1.4815  1.9552 -0.4061
 2047SOL     OW16109   2.794   4.167   1.274 -0.0303 -0.0856  0.0310
 2047SOL    HW116110   2.736   4.193   1.197 -1.5202  0.5932  1.3498
 2047SOL    HW216111   2.852   4.090   1.248  1.3105  1.6895 -2.5784
 2048SOL     OW16112   2.876   5.813   0.686 -0.3020  0.6040 -0.2795
 2048SOL    HW116113   2.841   5.897   0.645  0.5669  1.7255  1.1910
 2048SOL    HW216114   2.800   5.761   0.725 -0.6037  1.8974  0.8997
 2049SOL     OW16115   0.918   5.945   1.270  0.4724 -0.1876 -0.4354
 2049SOL    HW116116   0.903   5.883   1.346 -0.0346  0.7929  0.2706
 2049SOL    HW216117   0.853   5.924   1.196  1.8384 -1.9998 -1.1594
 2050SOL     OW16118   4.640   4.614   0.411 -0.3592  0.7893  0.1806
 2050SOL    HW116119   4.656   4.537   0.350  2.1776  1.0380  0.4878
 2050SOL    HW216120   4.568   4.591   0.476 -0.4937 -0.8480 -0.5303
 2051SOL     OW16121   3.311   9.817   2.586  0.4006 -0.0247 -0.2904
 2051SOL    HW116122   3.335   9.794   2.681  2.3648 -0.7572 -0.9311
 2051SOL    HW216123   3.212   9.818   2.575  0.1768 -0.8589  1.5482
 2052SOL     OW16124   3.486   9.658   0.761  0.5067 -0.4463  0.8308
 2052SOL    HW116125   3.576   9.676   0.802  1.4941  0.1229 -1.5163
 2052SOL    HW216126   3.466   9.729   0.693 -0.6735 -1.8727 -0.3270
 2053SOL     OW16127   2.931   6.386   1.534 -0.0482  0.0663 -0.4222
 2053SOL    HW116128   2.882   6.468   1.505  0.1184 -0.4514 -2.1804
 2053SOL    HW216129   2.945   6.326   1.456  1.0461 -1.0194  0.5936
 2054SOL     OW16130   0.773   5.079   0.387  0.0522  0.2883 -0.4807
 2054SOL    HW116131   0.810   5.166   0.355 -0.3216  1.0541  1.1199
 2054SOL    HW216132   0.737   5.027   0.310 -0.4516  1.8989 -1.3378
 2055SOL     OW16133   4.546  10.070   1.820 -0.6787  0.3163  0.2773
 2055SOL    HW116134   4.606  10.124   1.879 -1.6231  0.6660  0.9293
 2055SOL    HW216135   4.506   9.995   1.872 -2.4452  1.3214  0.4094
 2056SOL     OW16136   2.934   6.145   0.678 -0.0752  0.2629 -0.2226
 2056SOL    HW116137   2.933   6.187   0.587  0.4932  1.7302  0.4297
 2056SOL    HW216138   2.845   6.102   0.695 -0.0640 -0.3508 -1.6052
 2057SOL     OW16139   1.560   7.106   0.967 -0.2286  0.4870  0.2023
 2057SOL    HW116140   1.654   7.097   0.933  0.5605 -0.7143  2.6412
 2057SOL    HW216141   1.497   7.085   0.892  1.4593 -1.2549 -0.7947
 2058SOL     OW16142  10.495   3.834   2.273  0.2784 -0.2135  0.3941
 2058SOL    HW116143  10.552   3.851   2.193 -0.5656 -1.0931 -0.4117
 2058SOL    HW216144  10.433   3.911   2.287 -1.8007 -1.4575 -1.7377
 2059SOL     OW16145   1.393   4.341   0.622 -0.1341  0.2826  0.5411
 2059SOL    HW116146   1.386   4.260   0.564 -0.3568  2.3432 -2.4121
 2059SOL    HW216147   1.469   4.330   0.686 -0.1860 -2.2491  0.2128
 2060SOL     OW16148  10.099   4.188   1.691  0.1538  0.2636  0.3840
 2060SOL    HW116149  10.043   4.245   1.630 -0.5529  1.5236  2.1819
 2060SOL    HW216150  10.044   4.111   1.724  0.0686  0.4458  0.6626
 2061SOL     OW16151   3.123   2.740   0.393 -0.1903  0.5424 -0.3336
 2061SOL    HW116152   3.182   2.746   0.312 -1.5767  0.2906 -1.3968
 2061SOL    HW216153   3.078   2.829   0.408  0.9574  0.9264  0.8658
 2062SOL     OW16154   2.937   9.123   1.109 -0.0319 -0.5333 -0.1213
 2062SOL    HW116155   2.932   9.195   1.178 -0.2142  0.9866 -1.6925
 2062SOL    HW216156   2.858   9.062   1.119 -2.5940  2.3115 -1.7897
 2063SOL     OW16157   3.480   3.606   0.585 -0.5129  0.4251 -0.0428
 2063SOL    HW116158   3.421   3.533   0.621  1.5715 -1.1750  0.1605
 2063SOL    HW216159   3.430   3.693   0.590 -3.1163 -0.9710 -0.5010
 2064SOL     OW16160   4.171   0.695   1.659  0.8551  0.0013 -0.0832
 2064SOL    HW116161   4.080   0.711   1.697  0.8761  0.2194 -0.1228
 2064SOL    HW216162   4.236   0.759   1.700  0.4752  1.7097 -2.0340
 2065SOL     OW16163   0.743   3.500   2.525  0.2574 -0.2437  0.5901
 2065SOL    HW116164   0.806   3.544   2.589 -0.2108 -0.7967  1.4399
 2065SOL    HW216165   0.794   3.439   2.465  0.6882  0.2091  0.4888
 2066SOL     OW16166   5.234   2.728   2.365 -0.4456  0.1920 -0.0977
 2066SOL    HW116167   5.275   2.640   2.343 -1.3755  0.1366 -1.6697
 2066SOL    HW216168   5.290   2.775   2.433  1.3046 -0.6258 -0.9468
 2067SOL     OW16169   2.264   4.983   0.745 -0.3053 -0.4541  0.4232
 2067SOL    HW116170   2.328   5.059   0.760 -2.3664  1.6646 -1.0148
 2067SOL    HW216171   2.241   4.978   0.648 -2.8935 -0.6542  0.9955
 2068SOL     OW16172   2.590   0.873   0.569  0.3501 -0.7709  0.2669
 2068SOL    HW116173   2.503   0.844   0.607 -0.1946  1.8531  1.1241
 2068SOL    HW216174   2.605   0.970   0.588  2.7793 -0.8026 -1.1476
 2069SOL     OW16175   2.805   4.384   0.340 -0.2544 -0.0318  0.6418
 2069SOL    HW116176   2.883   4.386   0.403  0.4228  1.5784 -0.2035
 2069SOL    HW216177   2.753   4.300   0.354  1.3401 -0.8937  1.5819
 2070SOL     OW16178   2.621   4.973   1.040  0.1116  0.3588  0.0527
 2070SOL    HW116179   2.623   4.877   1.013  1.1440  0.8910 -1.8255
 2070SOL    HW216180   2.531   5.012   1.021 -0.2025 -0.1367  0.5073
 2071SOL     OW16181   3.059   6.496   1.039  0.0426  0.5652 -0.3218
 2071SOL    HW116182   3.135   6.552   1.007 -0.2354  0.4609 -1.1744
 2071SOL    HW216183   3.014   6.453   0.961  1.4151 -2.3838  0.4211
 2072SOL     OW16184   5.321   2.629   0.016 -0.4632  0.3637  0.4701
 2072SOL    HW116185   5.353   2.672  -0.068 -1.9356  1.6266  0.5292
 2072SOL    HW216186   5.348   2.685   0.095  1.4594 -1.1385  0.9053
 2073SOL     OW16187   3.956   8.538   2.551  0.2028 -0.0145 -0.0458
 2073SOL    HW116188   3.939   8.636   2.542 -3.3269 -0.5261  0.3516
 2073SOL    HW216189   4.050   8.523   2.580  0.4997  3.2941  0.9234
 2074SOL     OW16190   4.763   2.624   0.652  0.6455 -0.5125  0.4799
 2074SOL    HW116191   4.776   2.672   0.738 -2.0442 -2.6740  2.1883
 2074SOL    HW216192   4.828   2.548   0.646  2.1983  0.8524 -0.3789
 2075SOL     OW16193   3.798   4.603   0.207  0.5969  0.5557 -0.0701
 2075SOL    HW116194   3.805   4.621   0.305  3.6573 -1.4484  0.1431
 2075SOL    HW216195   3.823   4.685   0.156 -0.5351  1.4575  0.7802
 2076SOL     OW16196   1.493   5.655   1.536  0.0363 -0.0362 -0.4071
 2076SOL    HW116197   1.570   5.700   1.581 -0.7606  0.6283  0.2956
 2076SOL    HW216198   1.422   5.636   1.603 -0.5769 -0.2931 -1.1286
 2077SOL     OW16199   2.759   4.120   2.112 -0.2091 -0.0696  0.0025
 2077SOL    HW116200   2.712   4.206   2.130  1.0606  0.8844 -1.1320
 2077SOL    HW216201   2.843   4.115   2.166  0.3418 -0.0358 -0.8243
 2078SOL     OW16202   3.215   7.401   0.248  0.0540  0.1786 -0.3750
 2078SOL    HW116203   3.137   7.366   0.198 -1.0305  1.5639  0.3029
 2078SOL    HW216204   3.183   7.461   0.322  1.7171  0.1182  0.4173
 2079SOL     OW16205   0.702   6.014   1.867  0.5295 -0.0895  0.2394
 2079SOL    HW116206   0.768   5.950   1.905  0.6032 -0.0305  0.2120
 2079SOL    HW216207   0.698   6.003   1.767  2.0586  1.3543 -0.0054
 2080SOL     OW16208   5.447   2.841   2.508  0.9022 -1.0580 -0.3224
 2080SOL    HW116209   5.511   2.851   2.432 -0.1986  2.9974 -0.8507
 2080SOL    HW216210   5.430   2.930   2.550 -1.4746 -2.6164  2.2397
 2081SOL     OW16211   3.810   1.521   2.318 -0.0524  0.1968  0.0120
 2081SOL    HW116212   3.718   1.520   2.358  0.0840  1.0875  0.3486
 2081SOL    HW216213   3.878   1.523   2.392  0.1964  2.3372 -0.2547
 2082SOL     OW16214   1.130   6.863   1.856 -0.3166 -0.0698  0.2431
 2082SOL    HW116215   1.075   6.782   1.874 -0.1184 -0.4880 -0.9433
 2082SOL    HW216216   1.226   6.836   1.848 -0.2083  0.3293  0.1869
 2083SOL     OW16217   3.343   8.878   0.701  0.1682  0.0567  0.3615
 2083SOL    HW116218   3.438   8.859   0.677 -0.7506 -1.7035 -2.0689
 2083SOL    HW216219   3.317   8.969   0.669  0.7159  0.0851 -0.0012
 2084SOL     OW16220   5.144   3.493   1.319  0.3316  0.2715 -0.1576
 2084SOL    HW116221   5.153   3.575   1.263  0.3063 -1.6099 -3.0516
 2084SOL    HW216222   5.234   3.458   1.342  0.3644 -0.1998 -0.9751
 2085SOL     OW16223   4.007   9.988   0.058 -0.6639 -0.4953  0.2228
 2085SOL    HW116224   4.105  10.011   0.058 -0.3822 -1.6515 -0.0785
 2085SOL    HW216225   3.995   9.895   0.023 -1.7926 -0.7157  1.1709
 2086SOL     OW16226   3.038   1.920   2.576  0.4335  0.2219 -0.1143
 2086SOL    HW116227   3.045   1.972   2.491 -4.3549 -0.7819 -1.2549
 2086SOL    HW216228   2.983   1.972   2.642 -1.0556 -1.6465  0.1430
 2087SOL     OW16229   4.772   0.867   2.488  0.6164  0.3520  0.1635
 2087SOL    HW116230   4.675   0.871   2.464  0.2125  0.7764  1.8363
 2087SOL    HW216231   4.825   0.922   2.423 -0.4201  1.2138  0.0418
 2088SOL     OW16232   2.813   3.387   0.572  0.5075 -0.3149  0.1712
 2088SOL    HW116233   2.889   3.337   0.612  0.1413  1.2049  2.9606
 2088SOL    HW216234   2.838   3.483   0.559 -0.8267  0.1751  0.9862
 2089SOL     OW16235   0.773   5.838   1.067  0.8076  0.0696 -0.4858
 2089SOL    HW116236   0.799   5.919   1.014  1.5366  1.9385  2.6518
 2089SOL    HW216237   0.676   5.818   1.051 -0.0138  3.0016  0.4934
 2090SOL     OW16238   4.583   0.517   2.444 -0.0387 -0.4135 -0.7244
 2090SOL    HW116239   4.674   0.474   2.442  0.5098  0.6703  0.1071
 2090SOL    HW216240   4.594   0.617   2.443 -1.1767 -0.2556  0.9639
 2091SOL     OW16241   4.792   2.261   1.773  0.1843  0.0471  0.1486
 2091SOL    HW116242   4.789   2.272   1.872 -2.3617 -0.6451  0.1770
 2091SOL    HW216243   4.794   2.351   1.729 -1.2711  0.4173  0.7995
 2092SOL     OW16244   4.621   8.020   0.393  0.1463  0.7328 -0.1743
 2092SOL    HW116245   4.704   7.966   0.409 -0.0557  1.0558  2.0336
 2092SOL    HW216246   4.541   7.967   0.421 -0.2843  1.0633 -0.7599
 2093SOL     OW16247   3.676   8.296   1.411  0.3972  0.1007 -0.1961
 2093SOL    HW116248   3.649   8.216   1.357  1.9169 -0.9612  0.5885
 2093SOL    HW216249   3.775   8.307   1.406  0.3356  1.1616  0.7870
 2094SOL     OW16250   3.362   1.173   0.243  0.0230  0.4667  0.2675
 2094SOL    HW116251   3.267   1.171   0.210  0.2229 -1.2088 -0.2118
 2094SOL    HW216252   3.418   1.226   0.179 -0.2215 -0.0884 -0.4048
 2095SOL     OW16253   3.181   8.688   0.267 -0.1722 -0.4816 -0.0741
 2095SOL    HW116254   3.161   8.683   0.365  0.3592 -0.4243  0.0377
 2095SOL    HW216255   3.274   8.721   0.253 -0.7404  0.9259 -0.6315
 2096SOL     OW16256   3.123   7.299   2.513  0.1456  0.0414 -0.4653
 2096SOL    HW116257   3.070   7.230   2.464 -0.3939 -0.6813  1.1239
 2096SOL    HW216258   3.074   7.328   2.595  1.7504  0.0944  0.5020
 2097SOL     OW16259   2.607   8.960   1.723 -0.6730 -0.1214 -0.7451
 2097SOL    HW116260   2.613   9.059   1.714 -2.9229  0.2881  1.6894
 2097SOL    HW216261   2.518   8.929   1.691 -0.3796 -1.2345 -0.5052
 2098SOL     OW16262   1.834   7.237   0.120  0.1850 -0.1078 -0.0674
 2098SOL    HW116263   1.758   7.202   0.065  1.2943 -1.6225 -0.7023
 2098SOL    HW216264   1.914   7.178   0.106  0.6908 -0.1330  2.6824
 2099SOL     OW16265   1.754   2.895   0.615  0.6342  0.1750  0.0715
 2099SOL    HW116266   1.758   2.995   0.616 -1.8023  0.3176 -1.4690
 2099SOL    HW216267   1.739   2.861   0.708  0.0184  1.3093  0.3952
 2100SOL     OW16268   9.993   4.795   2.034  0.0759 -0.5078  0.3683
 2100SOL    HW116269  10.006   4.736   2.114 -0.1268 -0.0672  0.7286
 2100SOL    HW216270   9.930   4.868   2.057 -0.9653 -1.0991 -0.5709
 2101SOL     OW16271   4.960   2.907   1.657  0.5507  0.4580  0.2754
 2101SOL    HW116272   4.930   2.869   1.744 -1.7194 -0.6284 -0.9148
 2101SOL    HW216273   5.049   2.951   1.668 -0.3596  1.6628  3.4546
 2102SOL     OW16274   4.977   2.866   2.351  0.1436  0.0363 -0.0791
 2102SOL    HW116275   4.904   2.853   2.284 -0.9537 -0.0764  1.1115
 2102SOL    HW216276   5.051   2.800   2.334 -0.7703 -0.9385 -0.3003
 2103SOL     OW16277   3.898   1.718   2.160  0.4152 -0.2577  0.7203
 2103SOL    HW116278   3.881   1.714   2.062 -0.7032  1.5157  0.8285
 2103SOL    HW216279   3.861   1.636   2.203  2.6181 -1.9834 -0.5587
 2104SOL     OW16280   3.814   4.771   0.442 -0.5588  0.5740  0.3526
 2104SOL    HW116281   3.912   4.772   0.464 -0.4163  1.4734 -0.2903
 2104SOL    HW216282   3.765   4.834   0.502 -0.5458  1.1115 -0.1974
 2105SOL     OW16283   3.883   1.002   1.171 -0.2553  0.0198  0.4732
 2105SOL    HW116284   3.870   0.955   1.084 -0.4874 -0.2857  0.6716
 2105SOL    HW216285   3.807   0.981   1.232  1.2723 -2.0320  1.7607
 2106SOL     OW16286   2.950   2.289   0.974 -0.2657 -0.6771 -0.2524
 2106SOL    HW116287   2.902   2.287   0.886  0.9704 -0.3522 -0.9481
 2106SOL    HW216288   3.028   2.227   0.970  0.6125  0.3898  0.1272
 2107SOL     OW16289   4.586   5.159   0.526  0.7748  0.0877  0.1304
 2107SOL    HW116290   4.671   5.130   0.569  0.7226  1.3776  1.1370
 2107SOL    HW216291   4.523   5.193   0.596 -0.6712 -1.0914 -0.5720
 2108SOL     OW16292   1.797   4.297   1.225  0.0975 -0.6674 -0.0191
 2108SOL    HW116293   1.847   4.315   1.309 -2.5267  2.4773  0.9436
 2108SOL    HW216294   1.711   4.250   1.247 -1.1835  1.2872 -0.7860
 2109SOL     OW16295   1.649   6.103   0.988  0.0177 -0.3620  0.1953
 2109SOL    HW116296   1.744   6.130   1.006 -0.2749  0.8610 -0.0749
 2109SOL    HW216297   1.595   6.184   0.965 -0.7584 -1.2218 -1.1042
 2110SOL     OW16298   3.153   9.003   1.716  0.2828  0.2520  0.8567
 2110SOL    HW116299   3.209   8.995   1.798  2.8357 -1.5473 -0.9508
 2110SOL    HW216300   3.200   8.957   1.640 -3.2738 -0.5282 -0.9650
 2111SOL     OW16301   2.759   6.820   0.826  0.0124 -0.0856 -0.0335
 2111SOL    HW116302   2.688   6.764   0.870  0.2716 -1.5901 -1.4454
 2111SOL    HW216303   2.727   6.914   0.818 -1.0441 -0.3323  1.0722
 2112SOL     OW16304   5.224   3.179   0.707 -0.5054 -0.5112  0.0736
 2112SOL    HW116305   5.159   3.239   0.660  0.1583 -0.8634 -1.3288
 2112SOL    HW216306   5.227   3.090   0.662  0.7596 -0.5841  0.2630
 2113SOL     OW16307   4.494  10.046   1.531  0.0470 -0.2162  0.2939
 2113SOL    HW116308   4.506  10.145   1.523  1.6885 -0.4787 -0.4891
 2113SOL    HW216309   4.540  10.014   1.614  0.0036 -0.4088  0.2428
 2114SOL     OW16310   2.938   3.849   2.092  0.5345  0.3837  0.0049
 2114SOL    HW116311   2.907   3.935   2.134  0.8256  0.5379 -0.0916
 2114SOL    HW216312   2.859   3.797   2.061  0.2451 -0.1986  1.6412
 2115SOL     OW16313   2.840   5.460   0.850 -0.3671 -0.7011  0.7051
 2115SOL    HW116314   2.915   5.443   0.787  0.1549  1.9637  0.5480
 2115SOL    HW216315   2.875   5.501   0.934 -1.7319  1.7931  0.1127
 2116SOL     OW16316   2.075   4.104   1.319  0.2374  0.2754 -0.6350
 2116SOL    HW116317   2.029   4.052   1.391  0.7048 -0.4218 -0.8287
 2116SOL    HW216318   2.166   4.065   1.302  0.0695  0.3212 -1.7138
 2117SOL     OW16319   5.089   2.582   0.138  0.0014  0.1084  0.1282
 2117SOL    HW116320   5.160   2.603   0.069  0.0292 -0.0242  0.1164
 2117SOL    HW216321   5.042   2.497   0.112 -0.1670  0.2015  0.1324
 2118SOL     OW16322   2.669   8.640   1.473  0.0135 -0.0679 -0.3079
 2118SOL    HW116323   2.736   8.615   1.543  0.0093  0.1403 -0.2307
 2118SOL    HW216324   2.599   8.698   1.513 -1.5063 -2.1616  0.1722
 2119SOL     OW16325   1.776   5.697   0.331 -0.3129 -0.3340 -0.2013
 2119SOL    HW116326   1.769   5.788   0.289 -0.6579 -0.1757  0.2031
 2119SOL    HW216327   1.819   5.705   0.421 -2.6829 -0.2307  0.9508
 2120SOL     OW16328   3.513   6.593   0.128  0.1876  0.0339  0.0091
 2120SOL    HW116329   3.434   6.635   0.084  1.2727  0.9499 -1.1162
 2120SOL    HW216330   3.573   6.553   0.058  0.6418 -0.8126  0.8610
 2121SOL     OW16331   4.022   9.081   1.457  0.4383  1.0027 -0.4940
 2121SOL    HW116332   4.071   9.151   1.404  3.5317 -0.9491 -0.3357
 2121SOL    HW216333   4.088   9.027   1.509 -2.0387 -1.0918  0.5560
 2122SOL     OW16334   3.170   1.621   1.189 -0.4256 -0.6199  0.1283
 2122SOL    HW116335   3.172   1.645   1.092  0.7824  0.9750  0.5161
 2122SOL    HW216336   3.091   1.564   1.208 -1.5994  0.4282 -1.4939
 2123SOL     OW16337   3.578   2.838   2.596  0.0535 -0.3562 -0.4199
 2123SOL    HW116338   3.502   2.887   2.638  0.2685  0.6423 -1.2027
 2123SOL    HW216339   3.570   2.842   2.497  1.8385  0.8775 -0.5277
 2124SOL     OW16340   4.067  10.180   1.552  0.3179  0.0586 -0.0162
 2124SOL    HW116341   4.098  10.270   1.584  0.1027  0.5484 -1.1742
 2124SOL    HW216342   4.031  10.129   1.630 -1.9969  1.9713  0.2297
 2125SOL     OW16343   3.279   2.275   2.323  0.0488  0.1832  0.2980
 2125SOL    HW116344   3.268   2.366   2.362  1.7472  0.6332 -0.2704
 2125SOL    HW216345   3.277   2.280   2.224  2.1588 -0.1337  0.2285
 2126SOL     OW16346   4.187   5.144   1.209  0.2455  0.0326  0.1731
 2126SOL    HW116347   4.203   5.196   1.125 -0.7010 -1.9256 -1.2607
 2126SOL    HW216348   4.259   5.165   1.275 -0.3681  3.4856 -0.1556
 2127SOL     OW16349   2.461   4.718   0.903  0.2330  0.0521  0.0906
 2127SOL    HW116350   2.368   4.745   0.879 -0.2510  0.8660  2.8241
 2127SOL    HW216351   2.459   4.651   0.977  1.8661  1.4005  1.3995
 2128SOL     OW16352  10.531   3.644   2.459  0.4899 -0.0030  0.0825
 2128SOL    HW116353  10.589   3.562   2.464 -0.9940 -1.0409  0.5219
 2128SOL    HW216354  10.553   3.695   2.376  1.1423 -1.0697 -0.4137
 2129SOL     OW16355   1.780   3.307   2.373 -0.6494 -0.0471 -0.5112
 2129SOL    HW116356   1.770   3.300   2.473 -0.4564 -0.3232 -0.5108
 2129SOL    HW216357   1.774   3.216   2.333 -1.0446  0.0969 -0.7846
 2130SOL     OW16358   2.587   7.199   1.378  0.3617 -0.3514  0.0040
 2130SOL    HW116359   2.651   7.265   1.417  0.1578 -0.6703  0.9005
 2130SOL    HW216360   2.595   7.113   1.429 -0.8808 -0.3455  0.2096
 2131SOL     OW16361   3.301   0.882   2.073 -0.7404 -0.2171 -0.0551
 2131SOL    HW116362   3.385   0.881   2.019 -0.1801  0.5576  0.7864
 2131SOL    HW216363   3.322   0.856   2.167 -1.4803 -0.2526  0.1020
 2132SOL     OW16364   9.923   4.263   0.847 -0.0972 -0.2581 -0.6184
 2132SOL    HW116365   9.890   4.344   0.896  0.0465  0.1301 -1.1484
 2132SOL    HW216366   9.897   4.181   0.897 -1.8292  0.0400 -0.9959
 2133SOL     OW16367  10.247   5.376   0.929  0.1769 -0.8275  0.1372
 2133SOL    HW116368  10.194   5.312   0.985 -0.9203 -2.4326 -2.6220
 2133SOL    HW216369  10.322   5.327   0.886 -0.0890 -0.0470 -1.2266
 2134SOL     OW16370   2.526   5.205   2.263  0.2437  0.6677  0.0003
 2134SOL    HW116371   2.525   5.292   2.213  1.3453  0.6557 -0.0580
 2134SOL    HW216372   2.620   5.175   2.277 -0.0862  0.1054  1.1258
 2135SOL     OW16373   2.393   1.037   2.165 -0.6972 -0.3070  0.1347
 2135SOL    HW116374   2.453   1.010   2.239 -0.0360 -0.9022 -0.6125
 2135SOL    HW216375   2.343   1.120   2.191 -0.5302 -0.5570  1.2629
 2136SOL     OW16376   3.018  10.095   2.385 -0.1883 -0.2096 -0.2617
 2136SOL    HW116377   3.040  10.154   2.463  2.0650  0.2520 -1.1798
 2136SOL    HW216378   2.930  10.122   2.346 -1.1934 -0.2506  1.9132
 2137SOL     OW16379   1.707   4.538   0.637 -0.1419 -0.0551  0.1449
 2137SOL    HW116380   1.782   4.599   0.664 -0.9678  0.3623  1.5772
 2137SOL    HW216381   1.634   4.592   0.593 -1.4396  0.2482  2.5687
 2138SOL     OW16382   2.967   8.528   1.995  0.0860 -0.4470  0.3675
 2138SOL    HW116383   2.918   8.447   2.026 -1.8111  0.1160 -1.0826
 2138SOL    HW216384   2.976   8.526   1.896  2.2171 -0.0905  0.5410
 2139SOL     OW16385   3.968   4.389   0.112 -0.3293 -0.3124 -0.2557
 2139SOL    HW116386   3.907   4.316   0.141 -0.5320 -0.6398 -1.4682
 2139SOL    HW216387   3.916   4.474   0.102 -0.4295 -0.3974 -0.4711
 2140SOL     OW16388   0.631   4.631   1.916 -0.3388  0.5496  0.2128
 2140SOL    HW116389   0.648   4.534   1.896 -0.9506  0.2561  1.0873
 2140SOL    HW216390   0.542   4.658   1.878 -0.3265  0.6685  0.2685
 2141SOL     OW16391   2.438  10.028   2.121  0.1609 -0.4590 -0.6846
 2141SOL    HW116392   2.516  10.087   2.143  0.6033 -0.8793 -1.1077
 2141SOL    HW216393   2.381  10.016   2.202  0.9126 -0.7041 -0.1881
 2142SOL     OW16394   2.465   9.476   0.920 -1.0700 -0.3337  0.4546
 2142SOL    HW116395   2.522   9.492   1.001 -0.4937  0.7636 -0.1487
 2142SOL    HW216396   2.466   9.379   0.896 -0.4733 -0.5144  1.2031
 2143SOL     OW16397   4.743   1.795   1.853 -0.0932 -0.0157  0.4113
 2143SOL    HW116398   4.791   1.805   1.765 -1.3032 -1.8204 -0.4809
 2143SOL    HW216399   4.810   1.795   1.927  1.2624 -1.8249 -0.7589
 2144SOL     OW16400   2.478   5.447   2.110  0.6611  0.1788  0.1170
 2144SOL    HW116401   2.486   5.541   2.075 -0.8641  0.8220  1.4137
 2144SOL    HW216402   2.399   5.403   2.066  1.3238 -0.4628 -0.4241
 2145SOL     OW16403   2.597   4.850   0.660  0.2962  0.5144  0.1317
 2145SOL    HW116404   2.682   4.797   0.663  0.0503  0.1870  2.6837
 2145SOL    HW216405   2.555   4.850   0.751 -1.9738  1.4331 -0.8917
 2146SOL     OW16406   4.233   5.045   0.634 -0.2676 -0.0261  0.2873
 2146SOL    HW116407   4.254   4.963   0.686  1.9539  0.2247 -0.1454
 2146SOL    HW216408   4.306   5.113   0.648 -0.7841  0.9004 -1.3489
 2147SOL     OW16409   2.597   4.271   1.717 -0.2680 -0.5722  0.4804
 2147SOL    HW116410   2.680   4.277   1.662 -1.3903  2.6958 -1.0084
 2147SOL    HW216411   2.517   4.277   1.657 -1.5377 -0.2910  2.1657
 2148SOL     OW16412   4.222   2.673   1.365  0.6035 -0.6194  0.0796
 2148SOL    HW116413   4.180   2.762   1.383  0.3604 -0.6321 -0.4098
 2148SOL    HW216414   4.152   2.602   1.367  0.7738 -0.7794  0.3199
 2149SOL     OW16415   1.703   0.988   1.342 -0.2337 -0.3084 -0.1802
 2149SOL    HW116416   1.751   0.983   1.254  2.0964  1.3209  0.9597
 2149SOL    HW216417   1.762   0.955   1.415 -1.1942  0.7522  1.1174
 2150SOL     OW16418   4.087   3.147   0.301 -0.1469 -0.4165 -0.4042
 2150SOL    HW116419   3.997   3.103   0.311  0.4956 -2.2992 -2.5289
 2150SOL    HW216420   4.139   3.135   0.386 -0.7517 -2.0103 -0.2406
 2151SOL     OW16421   3.235   7.458   2.324 -0.1365  0.2361 -0.4099
 2151SOL    HW116422   3.190   7.396   2.389  1.0365 -0.6093 -0.3967
 2151SOL    HW216423   3.170   7.482   2.252  0.5980 -4.5863 -2.9142
 2152SOL     OW16424   3.127   1.604   0.898 -0.5801 -0.6583 -0.1811
 2152SOL    HW116425   3.080   1.518   0.915 -2.6494  0.3743 -0.5760
 2152SOL    HW216426   3.151   1.611   0.801  0.8147 -1.3733  0.0967
 2153SOL     OW16427  10.103   4.257   0.411 -0.5581  0.1990  0.4013
 2153SOL    HW116428  10.137   4.174   0.455 -1.7224 -0.0861  0.7924
 2153SOL    HW216429  10.003   4.254   0.407 -0.5559  1.0533 -0.6354
 2154SOL     OW16430   4.997   4.066   1.224  0.7421  0.0221  0.4499
 2154SOL    HW116431   4.982   4.000   1.298  1.0131 -1.3090 -0.6585
 2154SOL    HW216432   4.910   4.108   1.198  0.8464  1.5917  2.4958
 2155SOL     OW16433   1.947   7.854   2.274 -0.1598 -0.3453 -0.1665
 2155SOL    HW116434   1.916   7.822   2.363  2.2184 -0.9939  0.4689
 2155SOL    HW216435   1.894   7.809   2.202 -2.4597  0.5823  0.8990
 2156SOL     OW16436   3.017   5.541   2.548  0.3283  0.4676  0.5617
 2156SOL    HW116437   2.978   5.464   2.598 -0.0983 -0.1965 -0.7976
 2156SOL    HW216438   3.046   5.611   2.614 -0.1799 -0.4144  1.7466
 2157SOL     OW16439   2.840   9.857   2.298 -0.0347 -0.1036 -0.3070
 2157SOL    HW116440   2.889   9.944   2.305  0.7685 -0.3708 -2.2809
 2157SOL    HW216441   2.902   9.782   2.320  0.1359 -0.3659 -1.6404
 2158SOL     OW16442   4.252   3.740   2.506  0.9157  0.4136  0.2852
 2158SOL    HW116443   4.348   3.729   2.479  0.8046  0.9161 -0.3216
 2158SOL    HW216444   4.197   3.671   2.458  0.9201  0.3843  0.3230
 2159SOL     OW16445   2.890   7.935   2.012 -1.0698 -0.3191  0.2961
 2159SOL    HW116446   2.946   8.018   2.005  1.0676 -1.6470  1.3078
 2159SOL    HW216447   2.807   7.947   1.958 -1.6367  3.1579  1.8189
 2160SOL     OW16448   2.009   5.161   1.414  0.1748 -0.4826 -0.3711
 2160SOL    HW116449   1.983   5.242   1.360  0.6289  0.2042  0.4269
 2160SOL    HW216450   2.094   5.123   1.378  0.1700 -0.3723 -0.5009
 2161SOL     OW16451   0.838   5.243   2.014 -0.0002  0.2298  0.4241
 2161SOL    HW116452   0.885   5.227   2.100  0.1424 -0.3120  0.2485
 2161SOL    HW216453   0.902   5.228   1.938 -0.8425 -1.9718  0.1328
 2162SOL     OW16454   2.072   1.109   0.724  0.2896 -0.3827  0.2608
 2162SOL    HW116455   2.085   1.047   0.646  1.9422 -0.1580  0.3388
 2162SOL    HW216456   2.055   1.055   0.807 -1.9206 -0.6112 -0.3149
 2163SOL     OW16457   3.307   3.053   1.219  0.5157  0.0015  0.2017
 2163SOL    HW116458   3.276   2.973   1.167 -0.4996  0.0167  0.7729
 2163SOL    HW216459   3.242   3.072   1.293  2.2784 -0.4332  1.9108
 2164SOL     OW16460   2.793   8.753   1.273  0.3067  0.4910 -0.0837
 2164SOL    HW116461   2.764   8.708   1.358  0.8688  1.4753  0.6362
 2164SOL    HW216462   2.888   8.728   1.253 -0.0692 -0.3523 -0.8441
 2165SOL     OW16463   1.887   5.781   1.428  0.5367 -0.1344 -0.0278
 2165SOL    HW116464   1.931   5.871   1.426  0.5514 -0.1421 -0.0703
 2165SOL    HW216465   1.802   5.787   1.480  0.8782 -0.2560  0.5457
 2166SOL     OW16466   3.413   8.807   0.231  0.3253  0.0219  0.2414
 2166SOL    HW116467   3.422   8.808   0.132  0.5286  0.5174  0.2594
 2166SOL    HW216468   3.500   8.779   0.273  0.7160  1.3125  0.3174
 2167SOL     OW16469   3.844   3.414   1.378 -0.0004  0.0712 -0.2837
 2167SOL    HW116470   3.754   3.395   1.337  0.8046 -1.8634 -1.2155
 2167SOL    HW216471   3.897   3.330   1.383  1.1696  0.8844  1.7956
 2168SOL     OW16472   1.941   5.357   0.508 -0.3785 -0.3418 -0.5903
 2168SOL    HW116473   1.855   5.382   0.553 -0.4977  1.7497 -1.9433
 2168SOL    HW216474   1.922   5.296   0.431 -0.7468  0.9771 -1.5401
 2169SOL     OW16475   2.153   6.524   0.752 -0.3315 -0.2231  0.3236
 2169SOL    HW116476   2.152   6.515   0.852  0.4944  0.1778  0.3687
 2169SOL    HW216477   2.060   6.514   0.717 -0.5424 -0.9274  1.0837
 2170SOL     OW16478   2.493   9.632   0.016  0.0176 -0.2385 -0.4644
 2170SOL    HW116479   2.536   9.627  -0.074  1.0277 -0.9754  0.0513
 2170SOL    HW216480   2.413   9.572   0.017 -1.8043  2.0772 -1.8179
 2171SOL     OW16481   5.021   2.525   1.560  0.3008  0.0933 -0.1955
 2171SOL    HW116482   4.942   2.578   1.531  0.9047  0.9085 -0.3729
 2171SOL    HW216483   5.018   2.435   1.516 -1.3027 -0.4423  0.9685
 2172SOL     OW16484   1.361   4.248   2.532 -0.5401 -0.1556 -0.0101
 2172SOL    HW116485   1.380   4.346   2.541  1.7033 -0.3629 -1.7687
 2172SOL    HW216486   1.336   4.228   2.437 -1.7464 -1.1797  0.5132
 2173SOL     OW16487   0.978   4.343   2.002  0.0260 -0.2912  0.5282
 2173SOL    HW116488   1.010   4.391   1.921 -1.8871 -1.2717 -0.8557
 2173SOL    HW216489   1.044   4.273   2.028  0.7117  0.1250 -0.0931
 2174SOL     OW16490   2.611   0.454   1.341 -0.7727  0.1053  0.3476
 2174SOL    HW116491   2.558   0.376   1.375  0.6450 -0.2096  1.8904
 2174SOL    HW216492   2.697   0.422   1.303 -0.2174  0.9137  0.9196
 2175SOL     OW16493   1.850   6.374   2.518 -0.3123  0.1374  0.1182
 2175SOL    HW116494   1.805   6.285   2.511  0.3014 -0.1726  0.1478
 2175SOL    HW216495   1.876   6.390   2.613  1.0367 -0.3633 -0.1622
 2176SOL     OW16496   2.086   7.843   1.607 -0.0819  0.0587 -0.2366
 2176SOL    HW116497   2.036   7.776   1.662 -1.3226  0.5831 -0.6930
 2176SOL    HW216498   2.087   7.813   1.511  1.7157 -0.6505 -0.0141
 2177SOL     OW16499   4.348   1.440   0.234 -0.4443 -0.1903  0.2328
 2177SOL    HW116500   4.391   1.349   0.232  0.4135  0.2252 -0.5504
 2177SOL    HW216501   4.281   1.447   0.160 -1.5897 -0.6886  1.1953
 2178SOL     OW16502   2.445  10.350   2.182 -0.4402 -0.1090  0.1488
 2178SOL    HW116503   2.465  10.315   2.090 -1.8394  2.7765 -1.3293
 2178SOL    HW216504   2.368  10.299   2.221 -0.1319 -1.0439 -0.4446
 2179SOL     OW16505   3.227   9.687   1.798 -0.3144 -0.6418  0.6901
 2179SOL    HW116506   3.274   9.732   1.722 -1.7359 -1.1251 -0.5056
 2179SOL    HW216507   3.259   9.593   1.805  1.9231  0.2152  2.5524
 2180SOL     OW16508   1.517   6.457   2.167 -0.5594  0.3352 -0.2399
 2180SOL    HW116509   1.523   6.362   2.199 -2.9338 -0.9197 -3.2188
 2180SOL    HW216510   1.592   6.510   2.205  0.3579 -2.5395  2.1477
 2181SOL     OW16511   1.906   9.688   0.043 -0.4305 -0.4001  0.1118
 2181SOL    HW116512   1.806   9.688   0.043 -0.4299 -0.4292  0.2712
 2181SOL    HW216513   1.939   9.735  -0.039 -0.5812 -1.8225 -0.7694
 2182SOL     OW16514   2.025   3.616   1.779  0.7119 -0.3213 -0.7204
 2182SOL    HW116515   2.115   3.652   1.756  0.4125 -1.4126 -3.8712
 2182SOL    HW216516   2.034   3.524   1.816  0.8936 -0.3888 -0.9346
 2183SOL     OW16517   1.333   3.984   1.181  0.0555  0.2622 -0.2362
 2183SOL    HW116518   1.239   3.991   1.216  0.2824 -0.0374  0.4461
 2183SOL    HW216519   1.330   3.961   1.084 -0.5939  1.8152 -0.6000
 2184SOL     OW16520   2.012   3.497   1.234  0.3693 -0.4057 -0.0139
 2184SOL    HW116521   2.006   3.593   1.260  0.9505 -0.6278  0.9444
 2184SOL    HW216522   1.965   3.483   1.147  0.3322  0.7531 -0.1801
 2185SOL     OW16523   2.210   8.411   1.152  0.2866 -0.2051 -0.1712
 2185SOL    HW116524   2.221   8.455   1.241  1.2600  0.1868 -0.4784
 2185SOL    HW216525   2.222   8.313   1.162  1.6262 -0.0441 -0.0605
 2186SOL     OW16526   1.673   7.094   2.605  0.1153  0.1256 -0.7443
 2186SOL    HW116527   1.647   7.159   2.534 -1.6079  1.2092  0.8216
 2186SOL    HW216528   1.594   7.038   2.631  0.4824  0.3263  0.8888
 2187SOL     OW16529   2.359   7.909   1.940  0.3575  0.4228  0.7973
 2187SOL    HW116530   2.322   7.953   1.858  0.2435 -0.3004  0.4583
 2187SOL    HW216531   2.284   7.893   2.005  0.6683  2.3284  1.6787
 2188SOL     OW16532   2.370   4.107   0.886 -0.1030  0.2406 -0.2751
 2188SOL    HW116533   2.279   4.068   0.900  0.9317 -1.4745  2.0386
 2188SOL    HW216534   2.368   4.205   0.905 -1.5561  0.2957 -0.6903
 2189SOL     OW16535  10.590   3.922   0.876 -0.1246  0.3091  0.0745
 2189SOL    HW116536  10.524   3.982   0.922 -2.3068 -0.2431 -2.2253
 2189SOL    HW216537  10.583   3.830   0.913  0.4528  0.5900  0.8935
 2190SOL     OW16538   2.628   0.695   1.890 -0.5852 -0.7278 -0.0924
 2190SOL    HW116539   2.690   0.679   1.967  0.3178  0.7018 -0.5223
 2190SOL    HW216540   2.534   0.678   1.920 -0.1256 -1.4778  0.9598
 2191SOL     OW16541   4.210   9.078   0.753 -0.2515 -0.0002 -0.2876
 2191SOL    HW116542   4.286   9.087   0.817  0.6458 -0.3995 -1.2806
 2191SOL    HW216543   4.240   9.104   0.661 -1.1073 -0.8930 -0.8350
 2192SOL     OW16544   3.861   5.198   2.453  0.3394 -0.0271  0.2694
 2192SOL    HW116545   3.956   5.177   2.475  0.6976  2.5403  1.2874
 2192SOL    HW216546   3.851   5.211   2.355  1.0532 -0.2325  0.1685
 2193SOL     OW16547   1.567   2.320   1.157 -0.6601 -0.0869 -0.2912
 2193SOL    HW116548   1.574   2.257   1.235  2.7432  0.8658  0.2767
 2193SOL    HW216549   1.577   2.269   1.072  2.0690 -0.3633  0.1639
 2194SOL     OW16550   1.841   3.993   1.183 -0.2093  0.2375  0.2640
 2194SOL    HW116551   1.889   4.079   1.197 -0.3139  0.2204  0.7496
 2194SOL    HW216552   1.761   3.990   1.244 -1.3924  0.7016 -1.2454
 2195SOL     OW16553   2.580   5.403   1.072 -0.5160  0.2995  0.1998
 2195SOL    HW116554   2.646   5.365   1.007 -1.0214 -0.5363  0.1659
 2195SOL    HW216555   2.488   5.400   1.032 -0.5175  1.8834  0.0647
 2196SOL     OW16556   3.642   7.332   0.339 -0.3448 -0.4736  0.1289
 2196SOL    HW116557   3.556   7.282   0.337  1.0190 -2.9216 -2.4913
 2196SOL    HW216558   3.667   7.359   0.246 -0.4761  4.2448  1.3520
 2197SOL     OW16559   3.474   0.748   0.978  0.2334  0.3133  0.5705
 2197SOL    HW116560   3.414   0.738   1.056 -0.1993  2.4035  0.5277
 2197SOL    HW216561   3.432   0.808   0.910  1.8329  0.8329  0.0014
 2198SOL     OW16562   2.541   3.943   0.765  0.0513  0.1475  0.2732
 2198SOL    HW116563   2.619   3.931   0.826 -0.8415 -1.6883  1.1173
 2198SOL    HW216564   2.469   3.994   0.813  0.1307  0.4887  0.0332
 2199SOL     OW16565   3.326   3.393   1.218  0.4481 -0.1268  0.2195
 2199SOL    HW116566   3.320   3.294   1.229 -1.6452  0.1250  1.5756
 2199SOL    HW216567   3.285   3.419   1.130  2.6102 -0.5990 -0.9658
 2200SOL     OW16568   2.870   0.623   1.482  0.0105 -0.3216  0.0084
 2200SOL    HW116569   2.779   0.636   1.522 -0.1609 -0.7113 -0.2460
 2200SOL    HW216570   2.870   0.659   1.388 -0.6502 -2.6394 -0.9305
 2201SOL     OW16571   2.096   0.631   0.279  0.0908 -0.2064  0.3617
 2201SOL    HW116572   2.130   0.702   0.218  0.4471  0.8000  1.6967
 2201SOL    HW216573   2.011   0.593   0.243  1.3827 -1.1100 -1.8113
 2202SOL     OW16574   3.170  10.080   1.768  0.5321 -0.4206  0.6183
 2202SOL    HW116575   3.219  10.002   1.727 -2.4337 -1.8621 -0.3125
 2202SOL    HW216576   3.206  10.165   1.730  2.3520 -1.4172  0.0204
 2203SOL     OW16577   1.639   3.086   1.077 -0.4868 -0.5713  0.2389
 2203SOL    HW116578   1.718   3.107   1.019 -0.1864  0.0455  0.8620
 2203SOL    HW216579   1.631   2.987   1.089  0.0642 -0.6443 -0.0006
 2204SOL     OW16580   1.484   6.994   2.342  0.4169 -0.6119 -0.2838
 2204SOL    HW116581   1.403   6.991   2.284  0.9875 -0.5140 -1.0858
 2204SOL    HW216582   1.459   6.967   2.435 -0.7831  0.5394 -0.2509
 2205SOL     OW16583   3.589   3.124   0.788  0.0469 -0.1489  0.0141
 2205SOL    HW116584   3.508   3.117   0.846  0.7682  0.5114  1.1327
 2205SOL    HW216585   3.576   3.197   0.722 -1.6842 -2.3539 -2.1775
 2206SOL     OW16586   5.268   3.750   0.560 -0.4913  0.2997 -0.4829
 2206SOL    HW116587   5.274   3.723   0.464 -0.7549  0.5664 -0.5751
 2206SOL    HW216588   5.210   3.831   0.568 -0.6331  0.1565 -0.0757
 2207SOL     OW16589   1.895   2.971   1.261 -0.4543  0.3445 -0.5103
 2207SOL    HW116590   1.799   2.994   1.244 -0.3735  0.6558 -0.5525
 2207SOL    HW216591   1.902   2.912   1.341 -0.7415 -0.2215 -0.9033
 2208SOL     OW16592   4.522   2.147   2.395 -0.1759  0.2249 -0.1426
 2208SOL    HW116593   4.525   2.080   2.322  0.2932  0.6750 -0.5426
 2208SOL    HW216594   4.603   2.137   2.454  1.0284  1.8352 -1.4694
 2209SOL     OW16595   2.082   0.428   0.719 -0.2257 -0.1727 -0.0428
 2209SOL    HW116596   2.153   0.410   0.787 -2.1544  0.2835  2.1500
 2209SOL    HW216597   2.002   0.373   0.740 -1.0179  0.3228 -1.7116
 2210SOL     OW16598   3.601   8.350   0.497  0.2732 -0.3956 -0.0785
 2210SOL    HW116599   3.513   8.311   0.470 -0.6254  1.0915  0.6242
 2210SOL    HW216600   3.649   8.384   0.417  0.3319 -1.4372 -0.4950
 2211SOL     OW16601   1.895   2.683   2.527 -0.1851 -0.3576  0.4538
 2211SOL    HW116602   1.980   2.704   2.479  0.5825 -0.7912  1.5957
 2211SOL    HW216603   1.838   2.624   2.470  1.2595 -1.9057  0.5713
 2212SOL     OW16604   3.819   3.773   1.995  0.1158 -0.5363 -0.1414
 2212SOL    HW116605   3.876   3.838   2.046  1.4023 -0.5528 -1.5471
 2212SOL    HW216606   3.736   3.820   1.963 -0.1145 -0.2161  0.9040
 2213SOL     OW16607   3.666   9.607   0.103  0.3232 -0.8764 -0.0428
 2213SOL    HW116608   3.604   9.649   0.169 -0.0387 -1.6666  0.1339
 2213SOL    HW216609   3.707   9.677   0.045 -0.0901 -0.2708  0.4012
 2214SOL     OW16610   4.566   1.833   0.513  0.0178  0.0382 -0.1735
 2214SOL    HW116611   4.639   1.838   0.581 -0.7937 -1.0741  0.8050
 2214SOL    HW216612   4.531   1.739   0.508 -4.0091  1.2522  2.2778
 2215SOL     OW16613   1.740   2.446   0.257  0.3093  0.5333  0.1100
 2215SOL    HW116614   1.718   2.354   0.223 -0.9964 -0.1450  2.6594
 2215SOL    HW216615   1.658   2.503   0.255  0.1773  0.4319  2.2378
 2216SOL     OW16616  10.422   3.699   1.310 -0.0054  0.7987  0.1512
 2216SOL    HW116617  10.435   3.774   1.375 -0.2333  0.2577  0.8304
 2216SOL    HW216618  10.439   3.612   1.356  0.5278  0.4407 -0.7048
 2217SOL     OW16619   1.810   5.877   2.546 -0.1871  0.0095 -0.3277
 2217SOL    HW116620   1.907   5.891   2.568 -0.5146 -1.6546  2.2783
 2217SOL    HW216621   1.795   5.781   2.525 -1.0732  0.4889 -1.9969
 2218SOL     OW16622   3.025   9.250   0.686 -0.1139 -0.0422  0.0237
 2218SOL    HW116623   3.011   9.161   0.641 -1.9683  0.4131 -0.3234
 2218SOL    HW216624   3.117   9.283   0.665 -0.3218 -0.6704 -2.0015
 2219SOL     OW16625   2.933   7.670   1.192  0.1246  0.7049  0.1040
 2219SOL    HW116626   2.992   7.744   1.158  0.0373  0.7409  0.0277
 2219SOL    HW216627   2.978   7.582   1.177 -0.4839  0.6238 -1.3309
 2220SOL     OW16628   2.518   4.539   1.115 -0.3484  0.1488  0.2793
 2220SOL    HW116629   2.594   4.600   1.095  0.1351 -0.6371 -0.3326
 2220SOL    HW216630   2.511   4.523   1.213  0.2323  0.2848  0.3388
 2221SOL     OW16631   1.795   4.281   2.198 -0.0763 -0.5610 -0.0514
 2221SOL    HW116632   1.795   4.190   2.239 -1.0581 -1.2610 -1.5519
 2221SOL    HW216633   1.701   4.317   2.198 -0.1304 -0.6724 -1.8494
 2222SOL     OW16634   4.962   5.000   0.216 -0.4298 -0.6888  0.0078
 2222SOL    HW116635   5.020   4.947   0.155  0.3327  0.1830 -0.0253
 2222SOL    HW216636   4.866   4.981   0.195 -0.1672 -1.1168 -0.8261
 2223SOL     OW16637   3.450   1.207   0.514  0.1307  0.3174 -0.1553
 2223SOL    HW116638   3.421   1.186   0.421  1.0504  1.5860 -0.7455
 2223SOL    HW216639   3.457   1.306   0.525  0.0124  0.1757  1.2717
 2224SOL     OW16640   2.430   3.228   1.307 -0.1015  0.4038 -0.4559
 2224SOL    HW116641   2.384   3.314   1.284  0.5615  0.6177 -1.0055
 2224SOL    HW216642   2.437   3.171   1.225 -1.6092 -0.6895  0.1646
 2225SOL     OW16643   9.930   3.854   0.883  0.2171 -0.2626 -0.3009
 2225SOL    HW116644   9.851   3.911   0.862 -0.3094 -0.4550  1.1126
 2225SOL    HW216645   9.899   3.768   0.924  1.1497 -0.4965 -0.0756
 2226SOL     OW16646   3.533   5.243   0.677  0.3132  0.5692 -0.2288
 2226SOL    HW116647   3.493   5.315   0.734 -1.0725  0.7285 -1.3524
 2226SOL    HW216648   3.460   5.184   0.643  1.3666 -0.8971  0.0429
 2227SOL     OW16649   1.998   3.881   2.437  0.3155 -0.0236  0.2924
 2227SOL    HW116650   2.012   3.922   2.527  2.2623  0.4663 -0.2093
 2227SOL    HW216651   2.080   3.894   2.381 -0.5992 -0.9528 -1.3110
 2228SOL     OW16652   5.510   2.969   1.250  0.1044 -0.5225 -0.1633
 2228SOL    HW116653   5.536   3.064   1.231 -0.2031 -0.0739  1.5486
 2228SOL    HW216654   5.441   2.939   1.184  1.0560  0.0565 -1.4276
 2229SOL     OW16655   3.034   6.419   2.247  0.3675 -0.5593  0.6116
 2229SOL    HW116656   3.077   6.332   2.220  0.1391  0.1016 -2.0182
 2229SOL    HW216657   2.938   6.417   2.221  0.1841  0.2060  1.2299
 2230SOL     OW16658   2.525   1.839   0.189  0.3665  0.0978 -0.0489
 2230SOL    HW116659   2.535   1.920   0.247 -1.9435  0.3593  0.0447
 2230SOL    HW216660   2.577   1.852   0.105  2.7355  0.2382  1.3795
 2231SOL     OW16661   3.133   7.869   0.770 -0.2275  0.1572 -0.6048
 2231SOL    HW116662   3.232   7.882   0.780 -0.2045 -0.6288  0.1711
 2231SOL    HW216663   3.090   7.958   0.751  0.2999  0.9340  1.6762
 2232SOL     OW16664   0.986   4.423   2.443  0.6978 -0.3091  0.7028
 2232SOL    HW116665   0.947   4.355   2.506 -0.3849  0.9702  1.4296
 2232SOL    HW216666   0.917   4.449   2.376  1.3564 -0.4800 -0.0485
 2233SOL     OW16667   4.570   2.419   0.993 -0.1135  0.0169 -0.0181
 2233SOL    HW116668   4.640   2.394   0.927 -0.2895 -0.4574 -0.0279
 2233SOL    HW216669   4.556   2.518   0.992  0.2933  0.0694 -0.2767
 2234SOL     OW16670   3.274   3.943   0.334 -0.0389 -0.2794 -0.5420
 2234SOL    HW116671   3.288   3.868   0.269  0.7255  0.4858 -1.2771
 2234SOL    HW216672   3.222   3.910   0.413  0.7959 -1.7261 -0.5843
 2235SOL     OW16673  10.135   5.621   0.533  0.6671 -0.1804 -0.2341
 2235SOL    HW116674  10.180   5.617   0.622  0.0774 -2.8290 -0.0251
 2235SOL    HW216675  10.127   5.717   0.504  2.7754  0.5814  1.5546
 2236SOL     OW16676   3.184   7.220   1.880 -0.5363  0.1638  0.4647
 2236SOL    HW116677   3.184   7.223   1.780  0.3014  1.3945  0.4849
 2236SOL    HW216678   3.276   7.198   1.912 -0.5745  0.7428  0.9815
 2237SOL     OW16679   3.879   9.403   2.358 -0.1918 -0.1651  0.6538
 2237SOL    HW116680   3.818   9.459   2.414 -0.7454  0.2169 -0.3263
 2237SOL    HW216681   3.933   9.343   2.417  1.5605  2.4961  1.8719
 2238SOL     OW16682   3.914   8.444   0.709 -0.1493  0.5474 -0.1713
 2238SOL    HW116683   3.962   8.371   0.759 -0.4946 -1.2748 -2.4284
 2238SOL    HW216684   3.816   8.428   0.714 -0.2997  1.5812  0.3593
 2239SOL     OW16685   9.310   5.460   1.761 -0.2911  0.1387  0.0252
 2239SOL    HW116686   9.276   5.383   1.706  0.4101  0.1174 -0.3877
 2239SOL    HW216687   9.388   5.429   1.815  1.0032  0.9531 -1.3406
 2240SOL     OW16688   1.583   3.483   0.493  0.2563 -0.4341 -0.4354
 2240SOL    HW116689   1.662   3.516   0.545 -0.6849  1.1515  0.0074
 2240SOL    HW216690   1.601   3.496   0.395  0.7728 -0.6290 -0.3724
 2241SOL     OW16691   2.182   2.670   2.311 -0.1253  0.2192 -0.2830
 2241SOL    HW116692   2.174   2.729   2.231  0.8531  0.2489 -0.3653
 2241SOL    HW216693   2.227   2.720   2.385  0.4079 -0.3079 -0.2457
 2242SOL     OW16694   2.365   1.896   0.512 -0.1203  0.5146  0.2905
 2242SOL    HW116695   2.457   1.921   0.481 -1.4695  1.2487 -3.3305
 2242SOL    HW216696   2.353   1.797   0.503 -0.2684  0.6370 -0.9407
 2243SOL     OW16697   4.371  10.064   2.253 -0.1706  0.2080  0.9452
 2243SOL    HW116698   4.366  10.112   2.166  1.8672  2.6525  2.1073
 2243SOL    HW216699   4.362   9.965   2.238 -1.5629  0.7092 -1.8102
 2244SOL     OW16700   2.033   8.097   2.253  0.0760  0.1790  0.1438
 2244SOL    HW116701   1.985   8.016   2.287  2.6139 -1.3570  0.1576
 2244SOL    HW216702   2.044   8.090   2.154  0.5231  0.3916  0.1789
 2245SOL     OW16703   1.780   1.341   2.173  0.3989  0.3505 -0.4268
 2245SOL    HW116704   1.698   1.295   2.138  1.0191  0.6989 -2.4168
 2245SOL    HW216705   1.849   1.272   2.196 -1.5346 -0.2006  4.4411
 2246SOL     OW16706   2.709   9.788   0.923 -0.1568  0.0392 -0.2511
 2246SOL    HW116707   2.804   9.780   0.955  0.0839  0.0148 -0.9713
 2246SOL    HW216708   2.651   9.725   0.976  0.5906 -1.5491 -1.2759
 2247SOL     OW16709   4.393   0.694   0.373  0.0552 -0.8338 -0.0532
 2247SOL    HW116710   4.298   0.665   0.379 -0.5092  0.9068 -0.4644
 2247SOL    HW216711   4.444   0.630   0.316 -1.0970 -1.2007 -0.6782
 2248SOL     OW16712   3.977   1.300   1.485 -0.3018 -0.2187  0.1632
 2248SOL    HW116713   3.893   1.323   1.532 -0.3482 -0.2737  0.1072
 2248SOL    HW216714   4.046   1.269   1.551  0.1017  1.0889  0.3641
 2249SOL     OW16715   1.873   7.047   2.151  0.3580  0.4137  0.4102
 2249SOL    HW116716   1.952   7.095   2.190  0.6006  0.6400 -0.3658
 2249SOL    HW216717   1.791   7.101   2.167  0.7339  1.4845 -1.1417
 2250SOL     OW16718   3.320   8.016   1.051 -0.0520  0.1866 -0.9296
 2250SOL    HW116719   3.341   8.106   1.014 -1.5491  0.3504 -1.3988
 2250SOL    HW216720   3.336   8.016   1.150  0.0110  0.9408 -0.9372
 2251SOL     OW16721   4.939   3.362   2.133 -0.2559  0.6879  0.4499
 2251SOL    HW116722   4.934   3.377   2.231  1.0814  0.1037  0.6186
 2251SOL    HW216723   4.960   3.448   2.086  2.0558  0.4129  0.9399
 2252SOL     OW16724   2.983   0.394   1.502  0.7499 -0.2558  0.0218
 2252SOL    HW116725   2.930   0.353   1.578  0.0587 -0.3278 -0.4941
 2252SOL    HW216726   2.949   0.486   1.484  0.1222 -0.6809 -0.9846
 2253SOL     OW16727   9.884   5.593   0.656  0.2135 -0.1422 -0.3392
 2253SOL    HW116728   9.973   5.622   0.622  0.2456 -0.4221 -0.5022
 2253SOL    HW216729   9.893   5.505   0.703 -0.6329 -2.3775 -4.0856
 2254SOL     OW16730   3.190   1.262   2.024 -0.2747 -0.1255  0.3435
 2254SOL    HW116731   3.163   1.174   2.062  0.5444 -0.4582  0.1638
 2254SOL    HW216732   3.289   1.274   2.033 -0.5630  1.3912  1.6268
 2255SOL     OW16733   4.782   3.941   2.201 -0.7025 -0.1713  0.2158
 2255SOL    HW116734   4.882   3.948   2.199 -0.6382 -1.2272 -1.2126
 2255SOL    HW216735   4.754   3.880   2.274 -0.3644  0.9455  1.2952
 2256SOL     OW16736   3.099   5.239   1.679  0.2926 -0.4965  0.2725
 2256SOL    HW116737   3.133   5.187   1.757  2.7852  2.0411  0.9737
 2256SOL    HW216738   3.137   5.332   1.682 -2.2929  0.7102 -2.0889
 2257SOL     OW16739   2.991   6.838   1.529  0.8217  0.0956  0.4673
 2257SOL    HW116740   3.015   6.843   1.626  0.6763 -0.4338  0.5300
 2257SOL    HW216741   3.073   6.851   1.474  0.5822  2.5125  0.6301
 2258SOL     OW16742   1.766   4.744   1.679  0.3312  0.5987 -0.0960
 2258SOL    HW116743   1.842   4.797   1.641  2.5360 -1.5388  1.2210
 2258SOL    HW216744   1.717   4.699   1.604  1.1266  0.9805 -0.8620
 2259SOL     OW16745   1.026   3.999   1.864  0.0318 -0.1287 -0.2735
 2259SOL    HW116746   1.002   3.992   1.961  0.4992 -1.1863 -0.2267
 2259SOL    HW216747   1.095   3.930   1.842  0.1164  0.2786 -1.3055
 2260SOL     OW16748  10.546   3.557   1.994  0.4112  0.2310 -0.2143
 2260SOL    HW116749  10.578   3.541   1.900 -1.0572 -0.1915 -0.6576
 2260SOL    HW216750  10.459   3.509   2.008  1.3582 -0.9911  1.8386
 2261SOL     OW16751   1.905   1.014   0.280 -0.1689  0.3494 -0.0859
 2261SOL    HW116752   1.876   0.935   0.227  2.9091 -1.2588  0.5181
 2261SOL    HW216753   1.911   1.094   0.220  1.6259 -1.0468 -1.8240
 2262SOL     OW16754   2.670   7.408   1.181  0.2648  0.3342 -0.4733
 2262SOL    HW116755   2.728   7.412   1.262  0.3278 -0.6430 -0.4680
 2262SOL    HW216756   2.644   7.501   1.154  0.0107  0.6509  0.8336
 2263SOL     OW16757   2.897   9.633   1.700 -0.1470 -0.3330  0.1592
 2263SOL    HW116758   2.817   9.671   1.655 -1.1479 -0.3672  1.8565
 2263SOL    HW216759   2.868   9.565   1.767  1.4669 -2.2601 -1.0447
 2264SOL     OW16760   2.004   6.976   1.535 -0.5539  0.8438  0.4351
 2264SOL    HW116761   1.980   7.038   1.460 -1.6948 -0.3641 -0.2130
 2264SOL    HW216762   1.923   6.959   1.592 -0.5585 -1.0217 -0.1139
 2265SOL     OW16763   9.426   4.354   0.281  0.0132  0.0600 -0.3239
 2265SOL    HW116764   9.331   4.337   0.254  0.3303 -0.5475 -1.0708
 2265SOL    HW216765   9.429   4.430   0.346 -0.8699  0.9475 -1.3008
 2266SOL     OW16766  10.153   3.763   0.492  0.4511  0.1198 -0.1278
 2266SOL    HW116767  10.070   3.708   0.488  1.1147 -1.0356  1.5603
 2266SOL    HW216768  10.230   3.709   0.457  0.8520  0.4500  0.2368
 2267SOL     OW16769   2.857  10.343   1.982 -0.2293 -0.3018  0.2822
 2267SOL    HW116770   2.802  10.425   1.969  0.7420  0.2063 -0.6529
 2267SOL    HW216771   2.926  10.360   2.053  1.8795  0.6723 -1.9600
 2268SOL     OW16772   2.243   7.590   2.190 -0.1692 -0.3719  0.3466
 2268SOL    HW116773   2.341   7.573   2.195  0.1011  0.2181 -2.2482
 2268SOL    HW216774   2.197   7.507   2.159 -0.2557 -0.0763 -0.3251
 2269SOL     OW16775   3.236   2.574   1.815  0.0186  0.1462 -0.0994
 2269SOL    HW116776   3.195   2.568   1.724  0.2246  0.1877 -0.1956
 2269SOL    HW216777   3.285   2.661   1.824 -2.8537  1.7221  1.2416
 2270SOL     OW16778   1.649   2.913   1.427 -0.0029 -0.1174  0.7223
 2270SOL    HW116779   1.641   2.869   1.338  1.2172 -0.3500  0.7107
 2270SOL    HW216780   1.593   2.865   1.494  0.8454 -1.3255  0.5764
 2271SOL     OW16781   2.111  10.137   0.286  0.4433 -0.6921 -0.2944
 2271SOL    HW116782   2.089  10.047   0.323  1.8363 -0.7495  0.4262
 2271SOL    HW216783   2.140  10.198   0.360  1.1734 -0.1655 -0.9972
 2272SOL     OW16784   2.167  10.339   1.944  0.1050  0.0395 -0.1561
 2272SOL    HW116785   2.118  10.313   1.861  1.8466  0.3426 -1.2980
 2272SOL    HW216786   2.159  10.437   1.959  0.3209  0.0802 -0.3090
 2273SOL     OW16787   0.701   4.212   0.998  0.6882 -0.0353  0.1108
 2273SOL    HW116788   0.639   4.165   1.060 -0.2508 -0.3310 -1.0277
 2273SOL    HW216789   0.649   4.272   0.937  1.8107  1.9511  1.0651
 2274SOL     OW16790   3.216   5.305   1.161  0.0276  0.7507 -0.0514
 2274SOL    HW116791   3.305   5.274   1.125 -0.4635 -0.0400 -0.5969
 2274SOL    HW216792   3.197   5.258   1.247 -0.7731 -0.5981 -0.9394
 2275SOL     OW16793   3.295   3.270   1.858 -0.1928  0.3278  0.5076
 2275SOL    HW116794   3.211   3.282   1.805 -1.4462 -2.3520  1.8160
 2275SOL    HW216795   3.373   3.263   1.795 -0.7074  4.0831 -0.6761
 2276SOL     OW16796   1.690   7.307   1.985  0.1793  0.4760 -0.0564
 2276SOL    HW116797   1.676   7.262   2.073 -0.5065  0.9458  0.0780
 2276SOL    HW216798   1.679   7.406   1.996  0.6799  0.5915 -0.5488
 2277SOL     OW16799   5.186   3.509   0.727 -0.3013  0.4758  0.8520
 2277SOL    HW116800   5.192   3.566   0.645  2.5212 -1.2537 -0.2397
 2277SOL    HW216801   5.109   3.446   0.719 -0.8954  1.2896  0.1589
 2278SOL     OW16802   1.765   6.120   2.402 -0.1063 -0.6554  0.9499
 2278SOL    HW116803   1.837   6.103   2.334 -1.1600 -0.4473 -0.2445
 2278SOL    HW216804   1.764   6.046   2.469  0.6859 -1.0746  0.5053
 2279SOL     OW16805   2.303   5.366   0.923 -0.3164 -0.3670  0.4152
 2279SOL    HW116806   2.327   5.317   0.839  0.2331  0.4561  0.0888
 2279SOL    HW216807   2.318   5.464   0.910  0.2659 -0.2826  1.6449
 2280SOL     OW16808   4.865   2.256   0.531 -0.4346 -0.1441  0.0526
 2280SOL    HW116809   4.854   2.191   0.605 -0.2485  0.7933  0.9217
 2280SOL    HW216810   4.942   2.317   0.551 -0.7093  0.4494 -0.6613
 2281SOL     OW16811   2.390   4.879   0.113  0.0931  0.0816  0.2301
 2281SOL    HW116812   2.327   4.833   0.176 -0.9434 -0.2173 -0.9914
 2281SOL    HW216813   2.443   4.810   0.063  0.7377  0.3074  0.5991
 2282SOL     OW16814   1.989   7.709   1.912 -0.1774  0.2037  0.1570
 2282SOL    HW116815   2.062   7.754   1.964  2.3600 -1.2494 -2.0313
 2282SOL    HW216816   1.987   7.612   1.935 -1.0624  0.1346 -0.2063
 2283SOL     OW16817   4.365   1.447   0.728 -0.5015  0.1109  0.2242
 2283SOL    HW116818   4.330   1.477   0.817 -0.0715  1.8941 -0.1800
 2283SOL    HW216819   4.464   1.456   0.727 -0.4815 -0.1981 -0.3280
 2284SOL     OW16820   2.791   9.774   1.321  0.1757  0.2269 -0.2855
 2284SOL    HW116821   2.731   9.737   1.251 -2.6886  2.6491  0.8063
 2284SOL    HW216822   2.751   9.759   1.411  2.4313 -0.3054  0.6786
 2285SOL     OW16823   3.570   7.787   0.335 -0.3434  0.3107 -0.1580
 2285SOL    HW116824   3.588   7.882   0.363  1.5980  0.0481 -0.4575
 2285SOL    HW216825   3.633   7.762   0.261 -0.1610 -1.5372  0.6022
 2286SOL     OW16826   5.690   4.324   0.857  0.2063  0.3772  0.5656
 2286SOL    HW116827   5.611   4.293   0.909  1.2846  0.0879  2.0733
 2286SOL    HW216828   5.670   4.412   0.814  0.0185  1.7225  3.3190
 2287SOL     OW16829   4.262   8.482   1.718  0.0148  0.1331 -0.1331
 2287SOL    HW116830   4.229   8.388   1.713  0.9550 -0.2114 -0.0591
 2287SOL    HW216831   4.229   8.533   1.639 -3.3971  0.7124  1.5883
 2288SOL     OW16832   4.018   3.430   0.235  0.6273  0.2673 -0.0744
 2288SOL    HW116833   4.101   3.476   0.204  0.5148  1.5249  1.4406
 2288SOL    HW216834   4.036   3.332   0.247  1.3696  0.2106 -1.5458
 2289SOL     OW16835   2.057   0.955   0.959  0.1224  0.4075  0.1712
 2289SOL    HW116836   2.063   0.865   0.916 -3.1242  0.6203 -0.8712
 2289SOL    HW216837   2.149   0.989   0.978  1.4839 -2.0081 -1.7929
 2290SOL     OW16838   2.968   8.272   0.043 -0.1394 -0.8444  0.4202
 2290SOL    HW116839   3.022   8.354   0.060 -0.4658 -0.4979 -0.1948
 2290SOL    HW216840   2.945   8.227   0.129 -1.8298  0.8960  0.9031
 2291SOL     OW16841   9.780   4.064   1.049 -0.1054  0.2909  0.1154
 2291SOL    HW116842   9.712   4.125   1.090 -1.5516 -1.2586  0.1088
 2291SOL    HW216843   9.789   3.982   1.105  0.8375 -0.0872 -0.5766
 2292SOL     OW16844   2.510   3.528   1.463  0.4650 -0.2345 -0.6068
 2292SOL    HW116845   2.474   3.612   1.503  0.9858  0.2645 -1.1789
 2292SOL    HW216846   2.450   3.498   1.389  1.4396  0.8331 -1.8445
 2293SOL     OW16847   3.004   7.299   0.111  0.0337 -0.0961  0.8180
 2293SOL    HW116848   2.991   7.209   0.153 -1.2147  0.0841  0.8576
 2293SOL    HW216849   2.915   7.345   0.105  0.6303  1.0288  0.5654
 2294SOL     OW16850   3.069   0.502   2.405  0.0941 -0.1202 -0.2922
 2294SOL    HW116851   3.048   0.423   2.463 -0.1738 -0.3316 -0.6653
 2294SOL    HW216852   2.985   0.553   2.387 -0.1374 -1.0256 -1.8789
 2295SOL     OW16853   1.278   3.936   0.907 -0.1148 -0.8087 -0.1266
 2295SOL    HW116854   1.320   3.881   0.834  2.4328  0.3571  0.4248
 2295SOL    HW216855   1.258   4.027   0.872  2.2340  0.1457  0.9168
 2296SOL     OW16856   1.136   4.091   2.607  0.1785 -0.1447 -0.1669
 2296SOL    HW116857   1.051   4.144   2.607 -0.2183 -0.7644  0.5893
 2296SOL    HW216858   1.214   4.153   2.598 -0.4231  0.2770 -2.7209
 2297SOL     OW16859   2.561   1.868   1.767  0.1650 -0.1215 -0.1680
 2297SOL    HW116860   2.641   1.907   1.721 -0.2843  0.7008 -0.2715
 2297SOL    HW216861   2.481   1.877   1.708 -0.2382  0.1364  0.4093
 2298SOL     OW16862   2.653   6.621   0.353  0.1408 -0.0943  0.6437
 2298SOL    HW116863   2.732   6.559   0.350 -0.0796 -0.3966  1.1192
 2298SOL    HW216864   2.570   6.569   0.368 -0.1166  0.2616  0.4609
 2299SOL     OW16865   1.034   6.270   0.253 -0.2701  0.2417 -0.0533
 2299SOL    HW116866   0.957   6.243   0.195  0.8216  0.2583 -1.5620
 2299SOL    HW216867   1.024   6.230   0.343 -0.6072 -2.1025 -1.0963
 2300SOL     OW16868   2.848   5.275   1.890  0.3873  0.4315  0.1117
 2300SOL    HW116869   2.750   5.282   1.870  0.3399  2.4026  0.8686
 2300SOL    HW216870   2.888   5.199   1.839 -1.4781 -0.2076 -0.4255
 2301SOL     OW16871   2.097   7.199   0.834 -0.3463  0.0563 -0.3621
 2301SOL    HW116872   2.027   7.241   0.892 -0.1104  1.0902 -0.8215
 2301SOL    HW216873   2.187   7.214   0.873 -0.2917 -0.3874 -0.3113
 2302SOL     OW16874   3.648   3.837   2.323  0.0778 -0.0176 -0.2526
 2302SOL    HW116875   3.608   3.846   2.232 -0.0495 -0.6648 -0.2659
 2302SOL    HW216876   3.584   3.871   2.392  1.5647  3.7629 -0.6569
 2303SOL     OW16877   2.142   3.531   2.612 -0.1359 -0.7261 -0.2118
 2303SOL    HW116878   2.043   3.537   2.605 -0.1425  0.0491  0.5242
 2303SOL    HW216879   2.183   3.551   2.523 -0.5622  0.8989 -0.0475
 2304SOL     OW16880   1.825   7.478   1.176 -0.3159  0.2224 -0.5755
 2304SOL    HW116881   1.882   7.475   1.259  0.4023 -1.5088 -1.1290
 2304SOL    HW216882   1.798   7.573   1.159  1.1223  0.8624  0.5660
 2305SOL     OW16883   1.472   5.757   0.152  0.1361 -0.5112 -0.2247
 2305SOL    HW116884   1.499   5.671   0.197 -0.4388 -2.1369 -2.8974
 2305SOL    HW216885   1.454   5.826   0.222  1.3733 -2.3217  1.9639
 2306SOL     OW16886   4.133   3.610   1.664  0.2144 -0.7558  0.1497
 2306SOL    HW116887   4.082   3.587   1.747 -0.1541  1.8736  0.6819
 2306SOL    HW216888   4.160   3.706   1.667  1.0873 -0.8973 -2.3285
 2307SOL     OW16889   4.519   0.922   2.435 -0.1030  0.3562  0.4298
 2307SOL    HW116890   4.503   0.935   2.337  0.4402 -1.8992  0.0262
 2307SOL    HW216891   4.448   0.970   2.486 -1.0574  0.5963 -1.0749
 2308SOL     OW16892   3.933   7.660   0.519 -0.7376 -0.2797 -0.3597
 2308SOL    HW116893   3.932   7.637   0.616 -1.3729 -1.6194 -0.6719
 2308SOL    HW216894   3.852   7.622   0.475 -0.4412  0.2973 -1.4203
 2309SOL     OW16895   4.899   4.581   1.057  0.7809  0.0415 -0.2341
 2309SOL    HW116896   4.964   4.627   1.117 -0.0612  0.5528  0.3019
 2309SOL    HW216897   4.940   4.498   1.019  1.5796  0.1300  0.4440
 2310SOL     OW16898   1.888   8.836   2.476 -0.4191 -0.6376  0.0832
 2310SOL    HW116899   1.913   8.906   2.409  1.0277 -1.9888 -0.8162
 2310SOL    HW216900   1.875   8.748   2.429 -0.7952 -1.2932  1.3980
 2311SOL     OW16901   3.498   7.516   1.588  0.1292  0.4777 -0.1528
 2311SOL    HW116902   3.461   7.563   1.508  0.6994  0.0301 -0.6802
 2311SOL    HW216903   3.450   7.547   1.670 -0.0468  1.3813 -0.5960
 2312SOL     OW16904   2.895   0.994   0.231 -0.4237  0.2706  0.5028
 2312SOL    HW116905   2.950   1.002   0.314  0.6645  0.2926 -0.2075
 2312SOL    HW216906   2.905   0.902   0.193 -0.6004  0.3838  0.1795
 2313SOL     OW16907   0.637   4.444   1.636  0.3092  0.1763  0.4384
 2313SOL    HW116908   0.594   4.531   1.612  0.0848  0.1355  0.6891
 2313SOL    HW216909   0.572   4.387   1.686  1.1816  0.7775  2.2812
 2314SOL     OW16910   3.016   1.340   2.608 -0.3234 -0.2554 -0.2829
 2314SOL    HW116911   2.964   1.404   2.665 -0.3860 -0.5349 -0.0288
 2314SOL    HW216912   2.979   1.341   2.515 -0.4757 -0.1004 -0.2217
 2315SOL     OW16913   2.222  10.019   2.312  0.6955 -0.6053 -0.0415
 2315SOL    HW116914   2.247  10.101   2.365 -3.7354  0.2750  0.8493
 2315SOL    HW216915   2.242   9.937   2.366  1.8849  0.0050  0.4797
 2316SOL     OW16916   2.784   4.144  -0.008  0.0756  0.0082 -0.1322
 2316SOL    HW116917   2.869   4.092  -0.013  0.8540  1.3647 -1.1014
 2316SOL    HW216918   2.712   4.086   0.030  1.1885 -1.4448 -0.2136
 2317SOL     OW16919   1.539   5.370   1.469 -0.1165  0.0840  0.1329
 2317SOL    HW116920   1.541   5.283   1.517  2.3170 -0.5928 -1.1083
 2317SOL    HW216921   1.526   5.444   1.535  0.5677 -1.0166  1.5245
 2318SOL     OW16922   2.508   2.915   0.208  0.5399  0.1481  0.4608
 2318SOL    HW116923   2.587   2.856   0.227  1.6679  1.1904 -0.8915
 2318SOL    HW216924   2.464   2.885   0.123  0.4525  0.5605  0.3595
 2319SOL     OW16925   3.829   7.811   0.873  0.0264 -0.6141  0.0409
 2319SOL    HW116926   3.923   7.820   0.840  0.1668 -0.0978  0.5922
 2319SOL    HW216927   3.786   7.732   0.828  0.0962  0.3004 -1.6617
 2320SOL     OW16928   1.731   3.204   1.419  0.1591 -0.4316  0.0914
 2320SOL    HW116929   1.690   3.239   1.335  0.1758  0.8520  0.5969
 2320SOL    HW216930   1.676   3.129   1.455 -1.5296  0.9570  0.5028
 2321SOL     OW16931   3.425   4.761   0.129 -0.0940  0.2012 -0.2056
 2321SOL    HW116932   3.362   4.838   0.135 -2.4298 -1.7633  1.9963
 2321SOL    HW216933   3.444   4.740   0.033 -0.8150  2.3794 -0.8457
 2322SOL     OW16934   1.627   5.515   0.593  0.0481  0.1837 -0.0809
 2322SOL    HW116935   1.624   5.547   0.498  0.2644 -0.8112 -0.4230
 2322SOL    HW216936   1.624   5.594   0.654 -0.5557  0.8151 -0.9031
 2323SOL     OW16937   2.581   8.942   0.179  0.1603 -0.2918  0.1116
 2323SOL    HW116938   2.568   8.852   0.220  3.3547 -0.5620  0.6508
 2323SOL    HW216939   2.581   9.011   0.252  2.5472 -0.4255  0.2924
 2324SOL     OW16940   3.200   3.112   0.281 -0.1502 -0.1285  0.0245
 2324SOL    HW116941   3.294   3.142   0.269 -0.7119  1.6206 -0.2031
 2324SOL    HW216942   3.138   3.184   0.249 -1.5598 -0.8764  1.0204
 2325SOL     OW16943   3.320   2.931   2.627  0.1616 -0.0546  0.5580
 2325SOL    HW116944   3.259   2.877   2.569 -0.3334 -1.9721  2.7705
 2325SOL    HW216945   3.293   3.027   2.625 -2.3114 -0.7108  0.6925
 2326SOL     OW16946   2.188   2.486   0.983  0.0364  0.2881 -0.0994
 2326SOL    HW116947   2.207   2.548   1.060 -1.4863 -0.0406  0.5736
 2326SOL    HW216948   2.122   2.417   1.013  0.0907 -0.3602 -1.4695
 2327SOL     OW16949   2.286   4.281   0.468 -0.0204 -0.8135  0.3257
 2327SOL    HW116950   2.189   4.292   0.492  0.1354 -1.0184  1.0613
 2327SOL    HW216951   2.340   4.350   0.516  0.0443  0.1533 -1.1319
 2328SOL     OW16952   3.596   9.809   1.606  0.4318  0.1226 -0.4738
 2328SOL    HW116953   3.660   9.855   1.666  0.6056 -3.1545  1.9958
 2328SOL    HW216954   3.643   9.735   1.558 -1.0396 -1.0797 -0.0968
 2329SOL     OW16955   1.112   4.526   1.772 -0.0630  0.2828  0.0721
 2329SOL    HW116956   1.140   4.497   1.680 -0.2906 -0.8110  0.3359
 2329SOL    HW216957   1.056   4.608   1.766 -0.3904  0.0020 -0.8053
 2330SOL     OW16958   2.128   4.440   2.585 -0.3073  0.1444 -0.5519
 2330SOL    HW116959   2.170   4.496   2.514  1.1543 -1.3559 -0.8777
 2330SOL    HW216960   2.196   4.415   2.654 -0.8331 -1.6510 -0.6663
 2331SOL     OW16961   1.576   4.941   1.163  0.2055 -1.1177  0.0373
 2331SOL    HW116962   1.520   4.860   1.180 -0.3972 -1.1858 -2.1532
 2331SOL    HW216963   1.623   4.932   1.075 -0.0246  0.9962 -0.3292
 2332SOL     OW16964   4.136   4.227   0.768 -0.3314 -0.2116  0.1560
 2332SOL    HW116965   4.205   4.154   0.765  0.7315  0.7542  0.9350
 2332SOL    HW216966   4.175   4.312   0.733 -1.5996 -0.0217 -0.8408
 2333SOL     OW16967   2.118   3.067   1.377 -0.1416 -0.1675  0.6213
 2333SOL    HW116968   2.108   3.154   1.427  0.8486  1.5775 -2.1301
 2333SOL    HW216969   2.032   3.045   1.332  0.1027  0.2776 -0.0686
 2334SOL     OW16970   3.180   2.528   2.434 -0.0809 -0.2482  0.7933
 2334SOL    HW116971   3.173   2.628   2.440 -0.1426 -0.2071  0.0854
 2334SOL    HW216972   3.089   2.488   2.425  0.0303 -0.2605 -0.4039
 2335SOL     OW16973   3.703   3.502   0.735  0.8502  0.0519 -0.2904
 2335SOL    HW116974   3.684   3.549   0.821  0.2760 -0.9686  0.1520
 2335SOL    HW216975   3.649   3.543   0.662  0.0692 -0.1619  0.1642
 2336SOL     OW16976   3.235   2.352   1.429 -0.5792 -0.0697  0.3202
 2336SOL    HW116977   3.188   2.282   1.482 -0.9992 -0.1285 -0.1294
 2336SOL    HW216978   3.181   2.374   1.348  1.4099 -2.0809 -1.6291
 2337SOL     OW16979   4.209  10.121   1.941  0.5547 -0.3056 -0.1317
 2337SOL    HW116980   4.282  10.053   1.933  1.0632  0.1644  0.4884
 2337SOL    HW216981   4.244  10.211   1.919  0.3225  0.0124  0.7592
 2338SOL     OW16982   3.361   6.914   1.808 -0.6332 -0.1782  0.1310
 2338SOL    HW116983   3.410   6.973   1.873 -0.2917 -1.0731  0.6942
 2338SOL    HW216984   3.402   6.923   1.718 -0.8462  0.7607  0.1160
 2339SOL     OW16985   1.597   5.521   2.456 -0.2443 -0.6947  0.1047
 2339SOL    HW116986   1.545   5.545   2.538 -0.8596 -0.9551 -0.2158
 2339SOL    HW216987   1.548   5.551   2.375  0.2809 -0.6056 -0.1843
 2340SOL     OW16988   3.199   8.696   2.088  0.6860  0.3454 -0.0368
 2340SOL    HW116989   3.127   8.634   2.057  0.3323  0.6104  0.2495
 2340SOL    HW216990   3.256   8.723   2.010  0.9866 -0.5202 -0.1273
 2341SOL     OW16991   2.477   4.709   0.460  0.3838 -0.6390 -0.2749
 2341SOL    HW116992   2.547   4.682   0.393  0.8122  0.0122 -0.0893
 2341SOL    HW216993   2.518   4.766   0.531 -0.2319 -0.6831  0.1231
 2342SOL     OW16994   3.247   5.858   2.429  0.4153 -0.9046 -0.2440
 2342SOL    HW116995   3.186   5.802   2.486  1.3572 -1.4374  0.2550
 2342SOL    HW216996   3.230   5.955   2.447 -0.6937 -1.0361 -0.5450
 2343SOL     OW16997   5.380   4.361   2.477 -0.1899 -0.2286 -0.1380
 2343SOL    HW116998   5.376   4.460   2.465  0.5369 -0.4146 -2.1948
 2343SOL    HW216999   5.300   4.330   2.528  0.5392  1.6106  2.2402
 2344SOL     OW17000   1.821   7.984   0.555 -0.3085  0.5148  0.3769
 2344SOL    HW117001   1.836   8.029   0.467 -0.3807  1.5125  0.8610
 2344SOL    HW217002   1.809   8.054   0.626 -2.4661 -0.2479  0.8093
 2345SOL     OW17003   4.709   9.334   1.027 -0.0521 -0.0982 -0.3377
 2345SOL    HW117004   4.661   9.415   0.992  0.8270  0.6862  0.2241
 2345SOL    HW217005   4.769   9.297   0.956 -0.4545 -0.2477 -0.5970
 2346SOL     OW17006  10.568   5.919   1.453 -0.5394 -0.4960  0.9878
 2346SOL    HW117007  10.508   5.850   1.495 -1.3612 -0.4865 -0.1368
 2346SOL    HW217008  10.567   5.907   1.354 -2.1729  2.3086  0.6183
 2347SOL     OW17009   3.437   7.706   1.400 -0.6125  0.0035 -0.3344
 2347SOL    HW117010   3.516   7.695   1.340  0.1993  0.9297  0.5614
 2347SOL    HW217011   3.370   7.766   1.356 -1.2104 -1.4393 -1.4566
 2348SOL     OW17012   4.215   8.488   0.005  0.2026  0.0716  0.0052
 2348SOL    HW117013   4.227   8.585  -0.016  0.8994  0.0938  0.5103
 2348SOL    HW217014   4.167   8.478   0.092  1.9291 -0.0336  0.9720
 2349SOL     OW17015   4.979   3.016   1.065 -0.0429 -0.4664  0.5744
 2349SOL    HW117016   4.985   2.979   0.972  0.8865  0.8164  0.1004
 2349SOL    HW217017   5.063   2.995   1.115 -0.2898 -0.6337  0.9184
 2350SOL     OW17018   2.779   3.365   0.100 -1.1083 -1.1529  0.8938
 2350SOL    HW117019   2.681   3.383   0.099 -0.8323  0.3600 -0.8764
 2350SOL    HW217020   2.797   3.274   0.062 -1.7121 -0.8253 -0.1912
 2351SOL     OW17021   3.254   5.493   1.797 -0.0028  0.1801 -0.3116
 2351SOL    HW117022   3.345   5.532   1.811 -0.9734  1.9565  1.3975
 2351SOL    HW217023   3.220   5.518   1.706  1.0351 -0.1127 -0.7793
 2352SOL     OW17024   2.824   0.646   2.083  0.0700  0.1013 -0.4427
 2352SOL    HW117025   2.802   0.657   2.180  0.8961 -0.8286 -0.1376
 2352SOL    HW217026   2.915   0.683   2.066  0.9130 -1.8988 -0.3681
 2353SOL     OW17027   3.409  10.321   1.817  0.3861 -0.3398  0.1068
 2353SOL    HW117028   3.460  10.277   1.744 -0.3940  0.7858 -1.1280
 2353SOL    HW217029   3.432  10.419   1.819 -0.0568 -0.2511  0.9725
 2354SOL     OW17030   2.422   3.207   1.575  0.4976  0.0192 -0.0613
 2354SOL    HW117031   2.343   3.152   1.603  0.3246  1.0273  1.4683
 2354SOL    HW217032   2.425   3.212   1.475 -0.2077 -1.6964 -0.1869
 2355SOL     OW17033   1.037   6.618   1.926  0.1263 -0.0032 -0.1068
 2355SOL    HW117034   0.986   6.568   1.997 -0.3807  2.1049  1.0733
 2355SOL    HW217035   1.133   6.590   1.929  0.1102  0.0275  1.4133
 2356SOL     OW17036   5.241   3.192   0.287  0.0156  0.3961  0.2176
 2356SOL    HW117037   5.198   3.114   0.242  0.4609 -0.2168  0.8376
 2356SOL    HW217038   5.334   3.167   0.314  0.9272  1.8305 -1.4628
 2357SOL     OW17039   1.117   6.112   1.165  0.0801 -0.2868 -0.3463
 2357SOL    HW117040   1.111   6.136   1.068  1.1909 -1.5369 -0.7265
 2357SOL    HW217041   1.039   6.054   1.189 -0.5965  0.6245 -0.3022
 2358SOL     OW17042   1.205   2.590   1.573  0.0647  0.0766 -0.2855
 2358SOL    HW117043   1.150   2.657   1.524  1.5586  1.3559 -0.2194
 2358SOL    HW217044   1.199   2.607   1.671 -2.4893 -2.1549  0.0240
 2359SOL     OW17045   1.629   3.886   2.281 -0.6670 -0.3588  0.1474
 2359SOL    HW117046   1.693   3.958   2.307 -0.8805 -0.2660  0.4165
 2359SOL    HW217047   1.584   3.850   2.362 -1.6088  0.1858 -0.1291
 2360SOL     OW17048   4.732   0.707   0.128 -0.0602  0.0469  0.3414
 2360SOL    HW117049   4.744   0.733   0.032  0.8825  1.3550  0.7872
 2360SOL    HW217050   4.726   0.790   0.183 -1.5607 -0.6909  1.3074
 2361SOL     OW17051   2.087   6.494   0.195 -0.2408 -0.2601  0.2335
 2361SOL    HW117052   2.096   6.593   0.198  0.6390 -0.3627  1.2350
 2361SOL    HW217053   2.176   6.453   0.176 -0.2222 -0.9335  1.7112
 2362SOL     OW17054   2.227   4.355   1.340 -0.3559  0.7633 -0.6113
 2362SOL    HW117055   2.159   4.287   1.365  1.9580 -0.9767  1.1835
 2362SOL    HW217056   2.230   4.366   1.241 -1.0996 -1.3893 -0.8777
 2363SOL     OW17057  10.247   4.783   0.792 -0.1521  0.1703 -0.6723
 2363SOL    HW117058  10.243   4.851   0.865  0.5389 -0.4153 -0.0761
 2363SOL    HW217059  10.299   4.820   0.714 -0.6438  0.6904 -0.7539
 2364SOL     OW17060   3.017   6.300   0.440 -0.0456 -0.1750 -0.4760
 2364SOL    HW117061   3.088   6.279   0.373  1.9311  0.7233  1.2773
 2364SOL    HW217062   2.947   6.358   0.398  0.4413 -0.7497 -2.1154
 2365SOL     OW17063   3.372   1.497   0.186 -0.1009 -0.5252 -0.2416
 2365SOL    HW117064   3.471   1.496   0.195 -0.0982 -0.9923 -0.2992
 2365SOL    HW217065   3.347   1.482   0.090 -0.1829  1.6934 -0.5909
 2366SOL     OW17066   2.962   2.632   1.096 -0.3344 -0.3720 -0.3024
 2366SOL    HW117067   2.883   2.572   1.096  0.6157 -1.6405 -0.7472
 2366SOL    HW217068   2.971   2.676   1.186  0.7968 -3.3662  1.1057
 2367SOL     OW17069   1.653   4.410   0.199  0.3988  0.0528  0.0389
 2367SOL    HW117070   1.680   4.376   0.289  0.2184 -0.9701 -0.2905
 2367SOL    HW217071   1.722   4.475   0.167  0.2495  0.7515  1.0924
 2368SOL     OW17072   3.842   2.692   1.284 -0.1825 -0.3438  0.5629
 2368SOL    HW117073   3.860   2.790   1.280 -2.5093  0.2460  3.0288
 2368SOL    HW217074   3.917   2.646   1.333 -0.2845  0.5594  1.5740
 2369SOL     OW17075   1.528   6.735   0.375  0.3558 -0.4121 -0.5659
 2369SOL    HW117076   1.465   6.806   0.406 -1.6304 -1.6360 -1.6485
 2369SOL    HW217077   1.616   6.775   0.353  0.5054  1.1083  2.5875
 2370SOL     OW17078   4.414   3.747   0.742 -0.5843  0.1452  0.4195
 2370SOL    HW117079   4.374   3.750   0.650 -1.0497  1.1158  0.6455
 2370SOL    HW217080   4.385   3.664   0.789  0.0368 -0.5893 -0.4823
 2371SOL     OW17081   2.100   4.188   1.966  0.1499 -0.2204  0.2063
 2371SOL    HW117082   2.166   4.235   1.907 -1.4200 -1.1411 -2.3379
 2371SOL    HW217083   2.040   4.256   2.008 -0.5793  0.2663 -1.5766
 2372SOL     OW17084   3.212   6.585   1.264 -0.1869  0.5970  0.6221
 2372SOL    HW117085   3.121   6.569   1.225 -0.1269  3.8441 -0.9958
 2372SOL    HW217086   3.206   6.581   1.364 -1.6702 -1.2218  0.5054
 2373SOL     OW17087   3.250   8.187   1.552 -0.1844  0.0348  0.3550
 2373SOL    HW117088   3.175   8.133   1.592  2.1910 -1.9680  2.2522
 2373SOL    HW217089   3.281   8.255   1.619 -1.6528  2.3130 -1.2060
 2374SOL     OW17090   1.137   3.800   2.449  0.1347 -1.2075 -1.0497
 2374SOL    HW117091   1.138   3.898   2.469 -0.3007 -1.4294  0.1249
 2374SOL    HW217092   1.227   3.761   2.467  0.4571 -0.9237 -2.0447
 2375SOL     OW17093   3.984   0.548   0.968 -0.2752  0.1209  0.4405
 2375SOL    HW117094   4.004   0.546   0.870 -1.0895  1.4998  0.2256
 2375SOL    HW217095   3.887   0.568   0.981 -0.0297  0.6051  1.5338
 2376SOL     OW17096   2.836   3.732   1.314  0.0830  0.3466 -0.4442
 2376SOL    HW117097   2.776   3.655   1.292 -0.2261  0.0660  1.3418
 2376SOL    HW217098   2.923   3.699   1.348  0.0842  0.7834 -0.0164
 2377SOL     OW17099   2.757   7.673   1.669  0.0834 -0.3507  0.6973
 2377SOL    HW117100   2.846   7.637   1.697 -0.0394 -0.9326  0.3448
 2377SOL    HW217101   2.698   7.680   1.749 -0.2829 -2.0666  0.6048
 2378SOL     OW17102  10.207   4.924   1.008  0.0289 -0.0816 -0.4769
 2378SOL    HW117103  10.192   4.845   1.068  0.2686 -0.2499 -0.6379
 2378SOL    HW217104  10.305   4.944   1.004  0.0288 -0.1788 -0.9507
 2379SOL     OW17105   2.349   5.762   1.420  0.0747  0.5298  0.2368
 2379SOL    HW117106   2.331   5.741   1.516 -0.2884  0.9482  0.2648
 2379SOL    HW217107   2.406   5.690   1.380  0.1024  0.2767  0.7232
 2380SOL     OW17108   4.608   1.437   2.594 -0.0890  0.3358  0.0125
 2380SOL    HW117109   4.611   1.338   2.577 -1.7356  0.1288  0.8343
 2380SOL    HW217110   4.611   1.485   2.506  1.7112 -0.3828 -0.3604
 2381SOL     OW17111   3.433   9.264   1.915  0.3471  0.0653 -0.1953
 2381SOL    HW117112   3.429   9.363   1.929 -1.4082  0.0359 -0.4019
 2381SOL    HW217113   3.408   9.242   1.821  1.1553 -0.5498 -0.2737
 2382SOL     OW17114   0.979   4.987   0.174 -0.6030  0.0854  0.3577
 2382SOL    HW117115   1.031   4.903   0.191 -1.9771 -0.2970  2.9386
 2382SOL    HW217116   1.025   5.064   0.215  0.0854  0.4430 -1.0538
 2383SOL     OW17117   2.674   4.363   2.097 -0.7071 -0.3416 -0.3796
 2383SOL    HW117118   2.677   4.395   2.191  2.5145 -0.0146 -0.5344
 2383SOL    HW217119   2.689   4.440   2.035  3.1240 -1.3810 -0.8900
 2384SOL     OW17120   2.540   5.549   1.783 -0.0921 -0.4379  0.0303
 2384SOL    HW117121   2.585   5.553   1.694 -0.0444  1.3513  0.1286
 2384SOL    HW217122   2.559   5.460   1.825  0.4401 -1.0390 -1.4410
 2385SOL     OW17123   0.875   6.148   2.253  0.1882  0.4546  0.0087
 2385SOL    HW117124   0.813   6.075   2.283  0.1483  0.8004  0.7644
 2385SOL    HW217125   0.827   6.207   2.188 -0.5343  1.1566  1.1497
 2386SOL     OW17126   2.082   2.272   1.485 -0.7495 -0.2987  0.0506
 2386SOL    HW117127   2.023   2.278   1.405  0.1914 -1.4620 -0.7479
 2386SOL    HW217128   2.037   2.219   1.557 -0.9930 -0.5036 -0.2556
 2387SOL     OW17129   3.974   0.594   0.696 -0.4679 -0.5968  0.6137
 2387SOL    HW117130   3.916   0.586   0.615  0.6354  1.2035 -0.3864
 2387SOL    HW217131   4.061   0.549   0.679 -0.3700 -0.5219  0.9183
 2388SOL     OW17132   3.318   3.845   0.701 -0.0532 -0.0896 -0.1293
 2388SOL    HW117133   3.325   3.944   0.686 -0.9059  0.0433  0.3652
 2388SOL    HW217134   3.378   3.819   0.777  2.8115 -0.4815 -2.4146
 2389SOL     OW17135   1.867   7.755   2.529 -0.1269  0.1584 -0.6634
 2389SOL    HW117136   1.852   7.670   2.581 -1.2805  1.3624  1.0481
 2389SOL    HW217137   1.949   7.801   2.563  0.3069 -0.0840 -1.3634
 2390SOL     OW17138   3.053   3.344   0.190  0.6172  0.3188  0.5997
 2390SOL    HW117139   2.958   3.373   0.177  0.4724  0.1451  1.2620
 2390SOL    HW217140   3.099   3.405   0.254  0.5782 -0.3581  1.2848
 2391SOL     OW17141   3.157   2.364   1.959 -0.3957  0.6375  0.7554
 2391SOL    HW117142   3.221   2.290   1.980  0.2728  0.7899 -0.6936
 2391SOL    HW217143   3.208   2.446   1.933 -1.1590  1.0497  0.5397
 2392SOL     OW17144   2.226   2.446   2.531  0.2172  0.2187  0.3029
 2392SOL    HW117145   2.230   2.512   2.606 -1.7578 -1.5639  2.0233
 2392SOL    HW217146   2.199   2.493   2.447 -0.2806  1.7632  1.2993
 2393SOL     OW17147   3.688   3.086   1.664 -0.3176 -0.4591  0.3506
 2393SOL    HW117148   3.785   3.098   1.686 -0.5634 -1.0924  1.9068
 2393SOL    HW217149   3.642   3.175   1.661  0.3146 -0.1578 -0.4208
 2394SOL     OW17150   5.445   3.549   1.588  0.0253  0.1798  0.1994
 2394SOL    HW117151   5.523   3.494   1.557 -0.2442 -0.1212  0.0491
 2394SOL    HW217152   5.433   3.627   1.526  0.0809  0.1116  0.1010
 2395SOL     OW17153   1.827  10.342   2.337 -0.1543 -0.1405 -0.0524
 2395SOL    HW117154   1.861  10.315   2.427  0.2003 -0.7874 -0.3812
 2395SOL    HW217155   1.829  10.264   2.275  0.4900  0.5252 -0.8952
 2396SOL     OW17156   1.690   7.207   1.540  0.0388 -0.0036  0.0978
 2396SOL    HW117157   1.644   7.199   1.629 -0.5144 -2.5691 -0.3746
 2396SOL    HW217158   1.628   7.247   1.473 -0.6543 -1.1019  0.0791
 2397SOL     OW17159   2.922   1.343   2.353  0.2740 -0.0161 -0.7745
 2397SOL    HW117160   2.978   1.268   2.317  1.1343  1.0858 -1.7899
 2397SOL    HW217161   2.859   1.374   2.281  1.4745  1.7043 -1.1047
 2398SOL     OW17162   3.939   8.920   1.247  0.1910  0.2873  0.1325
 2398SOL    HW117163   3.857   8.934   1.193 -1.6113 -4.4708  1.4277
 2398SOL    HW217164   3.934   8.976   1.330 -0.5048  1.9785 -1.0372
 2399SOL     OW17165   4.206  10.186   2.416 -0.2448 -0.3917  0.1617
 2399SOL    HW117166   4.281  10.146   2.363  1.0533  1.5103  0.5245
 2399SOL    HW217167   4.232  10.192   2.512 -1.7095 -1.6930  0.6614
 2400SOL     OW17168   2.763   6.706   2.518 -0.0172  0.0630 -0.4017
 2400SOL    HW117169   2.721   6.685   2.430  2.0760  0.5569 -1.5378
 2400SOL    HW217170   2.811   6.626   2.553  0.9447  0.4795 -0.7463
 2401SOL     OW17171   9.619   4.798   0.162 -0.2786 -0.5276  0.3339
 2401SOL    HW117172   9.624   4.703   0.130  0.1359 -0.0671 -1.0239
 2401SOL    HW217173   9.708   4.842   0.147  0.2320 -0.5321  2.9961
 2402SOL     OW17174   2.984   5.304   0.029 -0.1966 -0.9289 -0.6064
 2402SOL    HW117175   3.000   5.219  -0.021 -0.0700 -0.6211 -1.0878
 2402SOL    HW217176   3.009   5.291   0.125 -0.8182 -1.6417 -0.5334
 2403SOL     OW17177  10.260   4.877   0.096  0.3434  0.0252 -0.0681
 2403SOL    HW117178  10.346   4.890   0.047  0.8528 -0.0990  0.7751
 2403SOL    HW217179  10.262   4.930   0.181 -0.0651 -0.6811  0.3842
 2404SOL     OW17180   2.009   7.735   0.578  0.1587  0.4613 -0.4556
 2404SOL    HW117181   1.956   7.819   0.567 -1.0558 -0.1936  0.2358
 2404SOL    HW217182   2.051   7.734   0.670 -0.1044  0.1610 -0.3379
 2405SOL     OW17183   2.058   3.080   0.312 -0.1929  0.4169  0.2010
 2405SOL    HW117184   2.045   2.985   0.284 -2.4171 -0.4500  3.8997
 2405SOL    HW217185   1.970   3.123   0.328  0.8265  2.7936 -0.3250
 2406SOL     OW17186   4.694   4.067   0.245 -0.5126  0.5488 -0.1248
 2406SOL    HW117187   4.607   4.066   0.196 -0.2181 -0.5601 -0.6667
 2406SOL    HW217188   4.737   3.977   0.237  0.8732  1.2062 -0.2209
 2407SOL     OW17189   1.790   3.590   0.628  0.1419 -0.7342  0.4144
 2407SOL    HW117190   1.813   3.597   0.725 -0.6302 -0.7325  0.5949
 2407SOL    HW217191   1.870   3.616   0.573  0.3634 -0.0841  1.0432
 2408SOL     OW17192   3.761   7.845   0.124  0.1560  0.4788 -0.7105
 2408SOL    HW117193   3.722   7.855   0.032  1.4588 -0.8532 -1.4342
 2408SOL    HW217194   3.780   7.936   0.162 -1.6025  1.0784 -1.2095
 2409SOL     OW17195   3.016   6.865   1.795 -0.0765 -0.1856 -0.5099
 2409SOL    HW117196   2.949   6.825   1.859  0.2606 -2.6027 -1.5951
 2409SOL    HW217197   3.100   6.888   1.845 -0.7508  0.3798  0.3808
 2410SOL     OW17198   2.789   1.178   0.672 -0.3782 -0.1121 -0.4541
 2410SOL    HW117199   2.693   1.151   0.684 -0.2320  0.3545  2.0308
 2410SOL    HW217200   2.794   1.274   0.647 -0.5276  0.4606  1.5794
 2411SOL     OW17201   1.095   5.123   0.669  0.3966 -0.2506  0.2445
 2411SOL    HW117202   1.127   5.148   0.577  0.0685 -1.4566 -0.2026
 2411SOL    HW217203   1.128   5.190   0.735  0.3634  0.8134 -0.8021
 2412SOL     OW17204   3.173   8.095   2.052 -0.2880 -0.0789  0.4541
 2412SOL    HW117205   3.227   8.179   2.046  0.1601 -0.3685  0.4484
 2412SOL    HW217206   3.116   8.098   2.134 -1.0193  0.6702 -0.0651
 2413SOL     OW17207   3.508   8.501   1.396 -0.3152  0.4036  0.5418
 2413SOL    HW117208   3.471   8.487   1.304 -0.6537  1.8877  0.4375
 2413SOL    HW217209   3.570   8.427   1.419 -2.3778 -1.4945  0.2094
 2414SOL     OW17210   3.929  10.116   2.476 -0.3197  0.1664  0.1928
 2414SOL    HW117211   4.019  10.126   2.434 -0.2801 -0.0795  0.2196
 2414SOL    HW217212   3.936  10.062   2.560 -0.6140 -0.5729 -0.2512
 2415SOL     OW17213   1.562   3.448   1.533 -0.4377 -0.2400 -0.1244
 2415SOL    HW117214   1.661   3.451   1.548 -0.3528  1.6372 -0.8476
 2415SOL    HW217215   1.539   3.370   1.475  0.7648  0.0164 -0.9637
 2416SOL     OW17216   4.386   2.928   0.457  0.3677  0.1173 -0.5670
 2416SOL    HW117217   4.322   3.000   0.485  1.8821  1.1048  0.4144
 2416SOL    HW217218   4.362   2.843   0.504 -0.0265  0.5648  0.0615
 2417SOL     OW17219   2.661   5.686   2.195 -0.3483  0.5644  0.3993
 2417SOL    HW117220   2.726   5.707   2.122 -1.3315  1.1495 -0.3280
 2417SOL    HW217221   2.574   5.730   2.174 -1.2287 -0.9158  0.9275
 2418SOL     OW17222   2.064   7.227   0.367 -0.2742  0.2313  0.2011
 2418SOL    HW117223   2.161   7.213   0.345 -0.5737 -0.3498 -0.7777
 2418SOL    HW217224   2.050   7.322   0.393  0.6024  0.2707  0.5621
 2419SOL     OW17225   2.135   1.594   1.153  0.1169 -0.2213 -0.0139
 2419SOL    HW117226   2.134   1.496   1.133  0.0534 -0.0700 -0.7650
 2419SOL    HW217227   2.044   1.633   1.133 -0.4503 -0.3847  2.1785
 2420SOL     OW17228   1.930   2.141   1.668 -0.2716  0.0049  0.0681
 2420SOL    HW117229   1.834   2.165   1.650 -0.4562 -0.0427  0.9458
 2420SOL    HW217230   1.935   2.085   1.751  0.3969 -1.0372 -0.6721
 2421SOL     OW17231   2.181   6.182   2.441  0.1814 -0.2328 -0.1919
 2421SOL    HW117232   2.276   6.154   2.424  0.5422  0.1586  1.1551
 2421SOL    HW217233   2.122   6.141   2.371  1.4649  0.3504 -1.6665
 2422SOL     OW17234   2.712   3.486   1.267 -0.1372  0.2556 -0.1852
 2422SOL    HW117235   2.743   3.392   1.250 -0.1608  0.0027  1.1094
 2422SOL    HW217236   2.667   3.491   1.356  1.0774  1.7884  0.3668
 2423SOL     OW17237  10.366   3.546   0.432 -0.5825 -0.2113 -0.0789
 2423SOL    HW117238  10.432   3.545   0.357 -2.4063 -1.1148 -1.7262
 2423SOL    HW217239  10.393   3.478   0.501 -0.0830 -0.9748 -1.0145
 2424SOL     OW17240   5.775   4.404   0.422 -0.3700  0.1237  0.0558
 2424SOL    HW117241   5.781   4.366   0.330 -0.2823  0.5720 -0.1259
 2424SOL    HW217242   5.868   4.419   0.458 -0.3858  1.1093 -0.2731
 2425SOL     OW17243   3.654   1.244   0.974 -0.2258 -0.4354 -0.2138
 2425SOL    HW117244   3.688   1.308   1.043  0.6610  0.3865 -1.4152
 2425SOL    HW217245   3.567   1.278   0.937 -0.0448 -0.2226 -0.4410
 2426SOL     OW17246   9.717   4.773   1.348 -0.2926 -0.2667  0.0964
 2426SOL    HW117247   9.629   4.765   1.302  1.1478 -2.0055 -2.4621
 2426SOL    HW217248   9.704   4.821   1.435 -3.3376  1.6781 -1.3258
 2427SOL     OW17249   4.379   4.930   1.796  0.8167  0.1864 -0.2520
 2427SOL    HW117250   4.289   4.969   1.816  0.4758  0.3024 -1.9025
 2427SOL    HW217251   4.395   4.850   1.853  0.4268  1.2062  1.3240
 2428SOL     OW17252   1.873   7.303   0.950  0.3937  0.1203 -0.1178
 2428SOL    HW117253   1.876   7.221   1.007  0.1694 -0.3461 -0.7720
 2428SOL    HW217254   1.861   7.384   1.008 -1.3106 -0.4819  0.4098
 2429SOL     OW17255   0.954   5.737   1.522 -0.3301  0.3915 -0.4997
 2429SOL    HW117256   1.053   5.733   1.505 -0.5633  1.9163 -2.3661
 2429SOL    HW217257   0.926   5.654   1.569  1.4626 -1.1734 -2.0629
 2430SOL     OW17258   4.723   3.610   2.308  0.2126  0.1814  0.2157
 2430SOL    HW117259   4.757   3.580   2.398  1.1244  1.1666  0.2076
 2430SOL    HW217260   4.706   3.530   2.251 -0.7669 -0.4709  1.4078
 2431SOL     OW17261  10.440   4.741   2.161 -0.1120 -1.2429 -0.2599
 2431SOL    HW117262  10.493   4.677   2.106  3.9001  1.1408  0.6045
 2431SOL    HW217263  10.403   4.813   2.103  0.6372 -0.9598 -0.3836
 2432SOL     OW17264   3.453   7.151   1.910  0.6203  0.1307 -0.2676
 2432SOL    HW117265   3.490   7.167   1.818  1.7328 -0.9561 -0.0160
 2432SOL    HW217266   3.505   7.205   1.976  0.4869  0.1034 -0.1404
 2433SOL     OW17267   4.008   4.465   0.485  0.2300 -0.2183 -0.2684
 2433SOL    HW117268   3.929   4.422   0.529 -0.4078  0.7889 -0.4030
 2433SOL    HW217269   4.027   4.421   0.397 -0.1704 -0.4824 -0.2190
 2434SOL     OW17270   4.325   8.239   2.517  0.1329 -0.0880 -0.3525
 2434SOL    HW117271   4.405   8.217   2.461  0.4803 -0.1782  0.1736
 2434SOL    HW217272   4.328   8.336   2.542 -0.1356  0.0020 -0.6776
 2435SOL     OW17273   1.544   6.414   0.178 -0.1451  0.3452  0.1178
 2435SOL    HW117274   1.503   6.502   0.153 -1.4207 -0.8339 -2.1054
 2435SOL    HW217275   1.643   6.424   0.184  0.1684  1.0010 -4.4709
 2436SOL     OW17276   3.052   3.616   1.468 -0.4081 -0.4229 -0.2346
 2436SOL    HW117277   3.121   3.545   1.454 -0.6008 -0.5372 -0.6014
 2436SOL    HW217278   3.000   3.596   1.551 -1.9921 -1.9510 -1.5684
 2437SOL     OW17279   1.740   3.159   0.653  0.7411 -0.7891 -0.0495
 2437SOL    HW117280   1.709   3.190   0.743  1.6824  1.1469 -0.3787
 2437SOL    HW217281   1.707   3.223   0.583  0.6012 -1.9031 -1.0107
 2438SOL     OW17282   4.262   8.739   2.507  0.6772  0.1998 -0.0179
 2438SOL    HW117283   4.360   8.733   2.527  0.7082  0.6494 -0.0350
 2438SOL    HW217284   4.236   8.664   2.446  1.1473  0.4665 -0.5560
 2439SOL     OW17285   2.032   1.360   0.849 -0.0044 -0.4760 -0.2307
 2439SOL    HW117286   2.021   1.357   0.948  0.0640  2.1788 -0.1290
 2439SOL    HW217287   2.027   1.267   0.812 -1.7610 -1.3103  2.0599
 2440SOL     OW17288   4.011   0.659   2.468 -0.0928  0.0281 -0.2879
 2440SOL    HW117289   3.962   0.746   2.473 -2.5141 -1.3329  0.5491
 2440SOL    HW217290   4.072   0.650   2.546  0.4998  1.1598 -0.6179
 2441SOL     OW17291   3.052   1.070   2.190  0.1782 -0.1482 -0.0723
 2441SOL    HW117292   3.100   0.988   2.221 -2.9006 -1.2067  2.1693
 2441SOL    HW217293   2.956   1.047   2.172 -0.4079  2.6731 -0.7262
 2442SOL     OW17294   4.160   0.895   0.902 -0.8717  0.1510  0.2690
 2442SOL    HW117295   4.060   0.889   0.906 -0.9105 -1.1668 -1.7334
 2442SOL    HW217296   4.196   0.812   0.859  0.9341  1.5082 -0.9249
 2443SOL     OW17297   3.367   4.530   0.937  0.1609 -0.0607  0.0061
 2443SOL    HW117298   3.299   4.577   0.881 -0.3568  0.0572  0.7313
 2443SOL    HW217299   3.414   4.597   0.994 -0.9749 -0.4988  1.4627
 2444SOL     OW17300   2.430   6.398   0.391  0.1541  0.1191  0.1359
 2444SOL    HW117301   2.423   6.311   0.439 -1.2563  0.2154  0.1453
 2444SOL    HW217302   2.389   6.470   0.448 -0.0942  0.5044 -0.5293
 2445SOL     OW17303   2.644   2.796   1.366 -0.2913 -0.2254 -0.2325
 2445SOL    HW117304   2.640   2.828   1.461  0.0813 -0.7206 -0.0459
 2445SOL    HW217305   2.571   2.729   1.350 -1.1318  0.7764 -0.6503
 2446SOL     OW17306   2.889   4.781   1.648  0.0062 -0.3441 -0.0087
 2446SOL    HW117307   2.849   4.693   1.676 -1.2711  0.3386  0.3565
 2446SOL    HW217308   2.882   4.790   1.549 -2.5123  0.5901  0.2238
 2447SOL     OW17309   3.646   7.933   2.513 -0.5677 -0.0704  0.1814
 2447SOL    HW117310   3.548   7.937   2.492 -0.2526 -0.3884 -1.4498
 2447SOL    HW217311   3.698   7.971   2.436  0.6032 -0.0441  0.9676
 2448SOL     OW17312   3.558   9.176   0.704 -0.3277 -0.1114 -0.1118
 2448SOL    HW117313   3.596   9.096   0.751  1.1002  0.9621  0.6068
 2448SOL    HW217314   3.588   9.175   0.609  1.0672  0.4100  0.3000
 2449SOL     OW17315  10.516   4.047   0.503  0.1100 -0.8949  0.0094
 2449SOL    HW117316  10.543   4.050   0.407  1.0319 -1.6873  0.2444
 2449SOL    HW217317  10.597   4.042   0.561 -0.4092  0.2899  0.8712
 2450SOL     OW17318   2.717   2.780   1.882 -0.5818 -0.1770  0.1849
 2450SOL    HW117319   2.808   2.806   1.916 -0.6449  0.6603 -0.2861
 2450SOL    HW217320   2.694   2.689   1.917 -0.5715  0.5843  2.2232
 2451SOL     OW17321   1.705   7.700   1.087  0.2773 -0.2347  0.0236
 2451SOL    HW117322   1.723   7.701   0.989 -0.6703 -0.9878 -0.1672
 2451SOL    HW217323   1.607   7.686   1.103  0.6611 -1.8669  1.0887
 2452SOL     OW17324   1.440   7.279   0.269  0.4203  0.5665 -0.0003
 2452SOL    HW117325   1.518   7.333   0.300 -0.8645  2.4574 -0.0182
 2452SOL    HW217326   1.425   7.295   0.171 -1.4119  2.0522  0.4911
 2453SOL     OW17327   3.269   0.655   2.308 -0.3649  0.3275  0.2596
 2453SOL    HW117328   3.197   0.607   2.357  0.0655  0.0693  0.6416
 2453SOL    HW217329   3.298   0.601   2.229  0.4258 -0.2559  0.9393
 2454SOL     OW17330   3.071   8.997   2.165  0.0667  0.2733  0.8702
 2454SOL    HW117331   3.096   9.093   2.152 -1.5831  0.6976  0.7679
 2454SOL    HW217332   3.075   8.974   2.263 -1.4826  1.0098  1.1231
 2455SOL     OW17333   5.483   3.290   0.670  0.2135 -0.0506  0.1879
 2455SOL    HW117334   5.397   3.238   0.671  0.5332 -0.6079 -0.5614
 2455SOL    HW217335   5.540   3.261   0.747  0.5901 -1.1624 -0.4981
 2456SOL     OW17336   2.436   5.844   2.460 -0.4002  0.0394  0.1519
 2456SOL    HW117337   2.352   5.820   2.412  0.4287 -0.3104 -1.1458
 2456SOL    HW217338   2.472   5.929   2.423  1.0781 -1.0434 -0.9597
 2457SOL     OW17339   3.457   6.785   2.308 -0.3024  0.0081  0.2244
 2457SOL    HW117340   3.430   6.880   2.296 -0.5380 -0.1777 -0.7722
 2457SOL    HW217341   3.553   6.774   2.286 -0.4591 -0.1228 -0.4013
 2458SOL     OW17342   4.497   3.435   1.941  0.1197 -0.0515  0.0323
 2458SOL    HW117343   4.435   3.356   1.941 -1.3382  1.0691  0.7124
 2458SOL    HW217344   4.444   3.519   1.953  1.5036  1.1649 -2.0374
 2459SOL     OW17345   1.615   7.261   0.592 -0.0953 -0.4041 -0.2044
 2459SOL    HW117346   1.669   7.329   0.641  1.5037 -1.4250 -0.5006
 2459SOL    HW217347   1.650   7.253   0.498  0.4462 -2.3615  0.1306
 2460SOL     OW17348   1.622   2.620   0.811  0.4162  0.5671  0.0726
 2460SOL    HW117349   1.541   2.646   0.757 -1.1848  1.0551  2.6044
 2460SOL    HW217350   1.654   2.530   0.782 -0.5745  0.6791 -1.4598
 2461SOL     OW17351   3.303   1.386   1.055 -0.1722  0.2778  0.4792
 2461SOL    HW117352   3.279   1.467   1.109 -0.2553 -0.4843  1.6004
 2461SOL    HW217353   3.370   1.412   0.985 -2.0643  1.8304 -0.8334
 2462SOL     OW17354   3.822   9.980   0.266 -0.6312  0.0049  0.0948
 2462SOL    HW117355   3.904   9.983   0.208 -1.9860 -1.0643 -1.9374
 2462SOL    HW217356   3.740   9.988   0.209 -1.9885  0.0735  1.9918
 2463SOL     OW17357   3.636   5.577   2.237  0.2463 -0.3788 -0.1538
 2463SOL    HW117358   3.557   5.639   2.241  0.1975 -0.4278 -0.3916
 2463SOL    HW217359   3.634   5.525   2.152  1.6257  1.0474 -1.0834
 2464SOL     OW17360  10.306   6.059   2.361 -0.1691  0.3675 -0.4086
 2464SOL    HW117361  10.253   6.089   2.282 -2.7820  1.2951  1.6178
 2464SOL    HW217362  10.297   5.960   2.372 -1.2413  0.4769 -0.2627
 2465SOL     OW17363   2.421   9.317   1.611  0.5766 -0.0820  0.4623
 2465SOL    HW117364   2.473   9.238   1.642 -1.2836 -1.2418  0.7081
 2465SOL    HW217365   2.422   9.321   1.511 -0.2586 -1.0839  0.4028
 2466SOL     OW17366   5.296   3.481   2.304 -0.2183  0.5252 -0.2735
 2466SOL    HW117367   5.197   3.479   2.320 -0.0428  2.3191  1.2988
 2466SOL    HW217368   5.324   3.574   2.281  0.8815 -0.3024 -2.4053
 2467SOL     OW17369   2.162   2.788   0.625 -0.0266 -0.2671 -0.2921
 2467SOL    HW117370   2.122   2.774   0.716  0.7099 -1.7961 -0.1882
 2467SOL    HW217371   2.232   2.718   0.608 -0.0905  0.0598 -1.9945
 2468SOL     OW17372   3.997   9.183   2.525 -0.0209  0.4345  0.1601
 2468SOL    HW117373   4.077   9.129   2.498 -0.8010 -0.4821 -0.3310
 2468SOL    HW217374   3.916   9.125   2.523 -0.5100  1.0588  1.8389
 2469SOL     OW17375   2.585   2.485   2.537  0.2283  0.0447  0.0615
 2469SOL    HW117376   2.634   2.399   2.544 -1.6318 -1.1266 -0.9677
 2469SOL    HW217377   2.498   2.478   2.587  0.4587  1.6348  0.7315
 2470SOL     OW17378   3.843   8.066   0.261  0.2917  0.4118 -0.4576
 2470SOL    HW117379   3.934   8.091   0.294 -0.0355  0.3210  0.5342
 2470SOL    HW217380   3.787   8.033   0.338 -0.3051 -0.3350 -1.1990
 2471SOL     OW17381   2.138   0.610   2.060  0.6144 -0.0964  0.6751
 2471SOL    HW117382   2.064   0.676   2.071 -0.4567 -1.1524 -0.0376
 2471SOL    HW217383   2.225   0.659   2.050 -0.3010  1.2437 -0.9924
 2472SOL     OW17384   1.180   5.538   2.233 -0.1043 -1.2571  0.2405
 2472SOL    HW117385   1.156   5.623   2.280 -3.0049 -0.5384 -2.2895
 2472SOL    HW217386   1.151   5.460   2.288 -0.8730 -0.5028  0.9339
 2473SOL     OW17387   3.653   3.636   1.466 -0.1640 -1.0183 -0.1105
 2473SOL    HW117388   3.572   3.580   1.479 -0.8717 -0.0434 -0.2634
 2473SOL    HW217389   3.726   3.605   1.527 -0.7553 -1.6914  0.2539
 2474SOL     OW17390   2.899   4.368   0.895  0.0333  0.0944 -0.0829
 2474SOL    HW117391   2.873   4.277   0.925 -1.1023  0.9264  1.5558
 2474SOL    HW217392   2.943   4.416   0.972  1.9642  0.4294 -1.3553
 2475SOL     OW17393   3.194   3.339   2.418  0.5560 -0.3202  0.2087
 2475SOL    HW117394   3.097   3.361   2.410  0.3514 -1.6940 -1.5306
 2475SOL    HW217395   3.246   3.391   2.350  0.7159 -1.3544 -0.4768
 2476SOL     OW17396  10.601   3.385   0.626  0.3109 -0.0805 -0.3276
 2476SOL    HW117397  10.610   3.291   0.659 -2.1541 -0.3743 -0.3646
 2476SOL    HW217398  10.600   3.448   0.704 -2.0888 -0.4697 -0.0125
 2477SOL     OW17399   1.640   5.966   1.400  0.0172 -0.0447 -0.3529
 2477SOL    HW117400   1.595   5.960   1.311 -1.7323  2.4206  0.3197
 2477SOL    HW217401   1.719   6.027   1.392 -1.1110  1.5086  0.1280
 2478SOL     OW17402   0.889   3.643   1.339 -0.0851 -0.4888  0.0495
 2478SOL    HW117403   0.951   3.625   1.262 -1.2482  1.6834 -1.4660
 2478SOL    HW217404   0.929   3.608   1.423  2.1207 -1.1994 -1.2472
 2479SOL     OW17405   1.738   1.998   2.528  0.1994  0.7147  0.0488
 2479SOL    HW117406   1.642   2.023   2.541 -0.2334 -0.7501 -0.1824
 2479SOL    HW217407   1.751   1.902   2.554  1.5605  0.8375 -0.1346
 2480SOL     OW17408   2.835   1.810   2.138 -0.0675  0.1481 -0.4079
 2480SOL    HW117409   2.775   1.756   2.079 -0.1884 -1.1656  0.8906
 2480SOL    HW217410   2.779   1.864   2.200  0.0565 -1.6059  1.2764
 2481SOL     OW17411   1.749   1.761   0.431  0.0278 -0.2828 -0.0009
 2481SOL    HW117412   1.824   1.755   0.365 -0.2974 -0.6942 -0.3373
 2481SOL    HW217413   1.726   1.668   0.462  0.1643 -0.0928  0.6704
 2482SOL     OW17414   3.309   6.608   0.962 -0.3810 -0.2872 -0.2125
 2482SOL    HW117415   3.338   6.596   1.057  1.1677 -0.5489 -0.7008
 2482SOL    HW217416   3.366   6.551   0.903  0.6735  2.1284 -1.5867
 2483SOL     OW17417   4.483   2.180   0.835  0.1681  0.3462  0.1727
 2483SOL    HW117418   4.411   2.223   0.781  0.7153  0.1683 -0.7157
 2483SOL    HW217419   4.568   2.233   0.826  0.8491 -0.8985 -0.9318
 2484SOL     OW17420   4.092   9.382   2.162 -0.0118  0.0588 -0.0347
 2484SOL    HW117421   4.008   9.395   2.213 -0.0273 -0.6997  0.1337
 2484SOL    HW217422   4.164   9.441   2.199 -0.6367  1.1818 -0.5866
 2485SOL     OW17423   2.750   1.003   2.194  0.3978 -0.2358  0.1785
 2485SOL    HW117424   2.710   0.994   2.103  0.3786 -0.0327  0.1679
 2485SOL    HW217425   2.680   1.035   2.258  1.1248  2.3715 -0.3041
 2486SOL     OW17426   1.447   5.233   0.736 -0.3370  0.3517  0.0812
 2486SOL    HW117427   1.436   5.236   0.636  1.0638 -1.3663 -0.1430
 2486SOL    HW217428   1.360   5.211   0.778 -0.3766 -1.5519 -0.9457
 2487SOL     OW17429   4.148   5.130   2.531  0.1130 -0.6831 -0.5176
 2487SOL    HW117430   4.162   5.207   2.593 -1.0713  0.2599 -1.3963
 2487SOL    HW217431   4.145   5.045   2.583  1.0223 -0.0922  0.5051
 2488SOL     OW17432   4.602   8.922   0.780  0.1345  0.1017 -0.0538
 2488SOL    HW117433   4.685   8.928   0.725  0.3456 -2.7448 -0.0903
 2488SOL    HW217434   4.623   8.941   0.876  0.7945 -0.3780 -0.1034
 2489SOL     OW17435   2.479   4.088   1.881  0.2792 -0.1396 -0.1031
 2489SOL    HW117436   2.532   4.169   1.858  0.4250 -0.4237 -0.7950
 2489SOL    HW217437   2.541   4.016   1.914  0.3206 -0.4390 -0.8205
 2490SOL     OW17438   2.469  10.141   1.310 -0.4091  0.2718 -0.2961
 2490SOL    HW117439   2.478  10.042   1.318 -1.7440  0.0826 -1.0248
 2490SOL    HW217440   2.450  10.165   1.214  0.6756  1.2928 -0.2647
 2491SOL     OW17441   1.774   7.695   0.826 -0.6175 -0.3222  0.3105
 2491SOL    HW117442   1.719   7.685   0.743 -0.1305 -1.7993  0.1499
 2491SOL    HW217443   1.845   7.763   0.812 -1.0221 -0.0099 -0.2226
 2492SOL     OW17444   1.417   6.961   2.627  0.1181  0.3639 -0.2166
 2492SOL    HW117445   1.333   6.991   2.672  0.1509 -0.0058  0.1002
 2492SOL    HW217446   1.429   6.862   2.641 -0.2000  0.1277 -1.5828
 2493SOL     OW17447   5.014   3.517   2.386 -0.0141 -0.6094  0.4963
 2493SOL    HW117448   4.933   3.482   2.434 -0.3938 -0.0188  0.2945
 2493SOL    HW217449   5.072   3.567   2.451 -0.0252 -0.6734  0.5556
 2494SOL     OW17450  10.107   5.522   1.479  0.1803  0.4972  0.2546
 2494SOL    HW117451  10.137   5.612   1.446  1.0251  0.1720  0.1216
 2494SOL    HW217452  10.038   5.486   1.416  2.2400 -0.3918 -1.5519
 2495SOL     OW17453   3.637   1.925   1.311 -0.4914  0.1665 -0.0216
 2495SOL    HW117454   3.553   1.871   1.319 -0.2753 -0.0869  0.5617
 2495SOL    HW217455   3.715   1.864   1.300 -0.3109  0.3733  0.1062
 2496SOL     OW17456   3.169   9.748   2.086 -0.1904 -0.3131 -0.5068
 2496SOL    HW117457   3.204   9.842   2.089 -0.3048 -0.2998  0.5534
 2496SOL    HW217458   3.202   9.703   2.003 -0.4455  0.7779 -1.2082
 2497SOL     OW17459   3.042   9.729   1.471 -0.2368 -0.7599  0.9146
 2497SOL    HW117460   2.958   9.727   1.418 -0.9751 -2.0477  2.0969
 2497SOL    HW217461   3.026   9.687   1.560  1.7621 -1.4351  0.9784
 2498SOL     OW17462   3.564   9.464   0.399  0.4277 -0.4046 -0.4899
 2498SOL    HW117463   3.496   9.427   0.335 -0.4295 -0.2091  0.2846
 2498SOL    HW217464   3.525   9.543   0.447  1.3883  0.0203 -0.3984
 2499SOL     OW17465   1.916   7.188   1.382  0.3613  0.0020 -0.2217
 2499SOL    HW117466   1.841   7.184   1.448 -0.1568 -0.1328 -0.8079
 2499SOL    HW217467   1.979   7.261   1.408 -0.8610  1.2505 -0.6394
 2500SOL     OW17468   2.332   4.885   1.232  0.3549  0.1534 -0.3058
 2500SOL    HW117469   2.310   4.948   1.157 -2.9786  0.3925  0.8084
 2500SOL    HW217470   2.267   4.810   1.232  0.8213 -0.2697  1.8671
 2501SOL     OW17471   4.448   0.967   1.319 -0.0929 -0.0369  0.4977
 2501SOL    HW117472   4.354   0.987   1.292 -0.1617 -1.0327 -0.0233
 2501SOL    HW217473   4.457   0.870   1.339  0.2647  0.4360  2.8528
 2502SOL     OW17474  10.061   5.249   2.294  0.3253 -0.0481 -0.6541
 2502SOL    HW117475   9.984   5.308   2.270 -0.5708 -0.4119  1.1631
 2502SOL    HW217476  10.143   5.279   2.245 -0.6616  1.2056 -1.5781
 2503SOL     OW17477   1.679   5.411   1.058 -0.2860  0.1855  0.1559
 2503SOL    HW117478   1.636   5.337   1.110 -0.3881  0.3254  0.2700
 2503SOL    HW217479   1.740   5.463   1.117 -1.9504  1.6063  0.6535
 2504SOL     OW17480   2.231   3.983   1.846 -0.2099 -0.6444  0.4478
 2504SOL    HW117481   2.161   4.049   1.875 -1.5869 -0.8331 -2.3264
 2504SOL    HW217482   2.321   4.019   1.870 -1.0918  0.8922  1.6074
 2505SOL     OW17483   2.163   3.831   0.885  0.5450  0.2211 -0.0477
 2505SOL    HW117484   2.078   3.779   0.887  1.2029 -0.8134  2.4072
 2505SOL    HW217485   2.235   3.776   0.841  0.0250  1.0389 -1.9885
 2506SOL     OW17486   4.751   2.399   1.195  0.0427 -0.1006 -0.2411
 2506SOL    HW117487   4.774   2.494   1.217  0.1736 -0.5353  1.5523
 2506SOL    HW217488   4.685   2.398   1.119 -1.0817  1.4750  0.6841
 2507SOL     OW17489   1.147   3.025   2.273  0.2101 -0.5284  0.2138
 2507SOL    HW117490   1.119   3.018   2.177 -1.9255  1.9374  0.6298
 2507SOL    HW217491   1.067   3.025   2.332  1.2710  2.0152  1.7336
 2508SOL     OW17492   1.631   4.612   1.458  0.2782  0.1876  0.1341
 2508SOL    HW117493   1.718   4.566   1.440  0.8674  1.1265  0.5308
 2508SOL    HW217494   1.585   4.631   1.371 -0.1156 -1.3885 -0.0217
 2509SOL     OW17495   2.678   4.152   0.333  0.0049 -0.0717 -0.7541
 2509SOL    HW117496   2.586   4.173   0.300 -0.0846 -0.8299 -1.0011
 2509SOL    HW217497   2.711   4.068   0.289 -0.4546 -1.5934  1.6767
 2510SOL     OW17498   3.114   6.697   0.540 -0.7884  0.2665  0.2713
 2510SOL    HW117499   3.099   6.795   0.541 -1.2973  0.1887  0.4416
 2510SOL    HW217500   3.140   6.668   0.448 -0.0253  0.6491  0.3637
 2511SOL     OW17501   2.539   8.668   0.271 -0.7189  0.0204 -0.3810
 2511SOL    HW117502   2.584   8.632   0.353 -0.5828  0.8903 -0.0735
 2511SOL    HW217503   2.446   8.630   0.265 -0.0868 -1.5006 -0.8305
 2512SOL     OW17504   2.827   7.512   1.416  0.1488 -0.4281  0.0368
 2512SOL    HW117505   2.894   7.438   1.425  0.4205 -0.0585  1.0547
 2512SOL    HW217506   2.873   7.593   1.380 -0.1186 -0.6946 -0.9327
 2513SOL     OW17507   3.445   5.303   2.152 -0.0761 -0.3812 -0.7881
 2513SOL    HW117508   3.414   5.357   2.230 -1.1666  2.5146 -3.1324
 2513SOL    HW217509   3.392   5.219   2.146 -0.8986  0.0040  0.7980
 2514SOL     OW17510   0.800   3.922   2.556  0.1473 -0.2189  0.3570
 2514SOL    HW117511   0.824   3.871   2.473  0.5218  1.2820 -0.4847
 2514SOL    HW217512   0.701   3.917   2.571  0.2286 -1.5308  0.5334
 2515SOL     OW17513   4.062   8.278   2.421 -0.7454  0.4240  0.0799
 2515SOL    HW117514   4.157   8.273   2.451 -0.6862 -0.5364 -0.2511
 2515SOL    HW217515   4.002   8.254   2.498 -0.5889 -2.1220 -0.5643
 2516SOL     OW17516  10.552   3.301   0.035 -0.0740  0.1946 -0.0565
 2516SOL    HW117517  10.618   3.355  -0.019  0.4602  1.4151  1.7636
 2516SOL    HW217518  10.492   3.251  -0.027 -0.6536  2.9647 -1.8625
 2517SOL     OW17519   4.005   9.328   0.134  0.1917  0.1235 -0.0748
 2517SOL    HW117520   3.951   9.269   0.073 -0.5503 -0.1164  0.8074
 2517SOL    HW217521   3.946   9.366   0.205  1.1410  0.0298  0.7809
 2518SOL     OW17522   3.971   2.132   0.893  0.2010  0.5810  0.7188
 2518SOL    HW117523   3.952   2.213   0.836  0.8250 -0.9042 -1.6580
 2518SOL    HW217524   4.070   2.117   0.898  0.0463 -0.6278  0.2831
 2519SOL     OW17525  10.050   4.594   2.240 -0.1709 -0.3649  0.2953
 2519SOL    HW117526  10.008   4.504   2.222 -0.0617 -0.4418  0.4254
 2519SOL    HW217527  10.062   4.605   2.338 -1.2830  0.2854  0.3614
 2520SOL     OW17528   4.381   0.432   2.635 -0.4558  0.0518  0.4351
 2520SOL    HW117529   4.408   0.445   2.540 -0.9183 -0.2817  0.2593
 2520SOL    HW217530   4.329   0.512   2.667  0.7382  0.7048  0.7797
 2521SOL     OW17531   3.214   5.192   1.431 -0.2034  0.3226  0.2677
 2521SOL    HW117532   3.176   5.221   1.519 -0.3247  1.3334 -0.1045
 2521SOL    HW217533   3.314   5.189   1.437 -0.2298 -0.0214  0.5576
 2522SOL     OW17534   3.051   7.990   1.660 -0.5525  0.0589 -0.1254
 2522SOL    HW117535   3.098   7.920   1.714 -1.5041 -0.7147 -0.3072
 2522SOL    HW217536   2.996   7.947   1.589  1.1024  1.1006 -2.0781
 2523SOL     OW17537   4.542   1.726   0.060  0.1250  0.0192 -0.3296
 2523SOL    HW117538   4.635   1.705   0.031 -0.4126 -0.8670 -1.4550
 2523SOL    HW217539   4.477   1.667   0.011 -1.0356  0.6898  0.3651
 2524SOL     OW17540   1.926   3.634   0.895 -0.1998 -0.6524 -1.0724
 2524SOL    HW117541   1.899   3.551   0.945  1.0586 -0.2718  0.2682
 2524SOL    HW217542   1.860   3.706   0.913  0.3056 -0.4835  0.1664
 2525SOL     OW17543  10.527   3.689   1.022  0.0600  0.6131  0.3555
 2525SOL    HW117544  10.589   3.703   1.099 -1.3209 -0.2356  1.6502
 2525SOL    HW217545  10.441   3.650   1.055  0.0192 -1.2570 -1.8314
 2526SOL     OW17546   5.114   4.562   0.149 -0.3510  0.3681  0.4131
 2526SOL    HW117547   5.060   4.641   0.123 -0.3988  0.3060  0.3225
 2526SOL    HW217548   5.053   4.487   0.175 -0.3682 -0.4774 -1.9294
 2527SOL     OW17549   2.827   7.789   0.598  0.0583  0.0302 -0.6936
 2527SOL    HW117550   2.786   7.721   0.538  0.2499 -0.3137 -0.4366
 2527SOL    HW217551   2.925   7.770   0.609  0.1181  0.3609 -0.6433
 2528SOL     OW17552   3.346   9.534   1.140 -0.7650  0.1238  0.4045
 2528SOL    HW117553   3.433   9.535   1.089 -0.3006  0.2161  1.1878
 2528SOL    HW217554   3.276   9.490   1.084  0.3976 -2.2119  0.7024
 2529SOL     OW17555   1.412   4.290   2.104 -0.0852 -0.3390  0.1010
 2529SOL    HW117556   1.361   4.272   2.189 -2.1409  2.7423 -0.4081
 2529SOL    HW217557   1.377   4.230   2.032 -0.1607 -1.1126  0.7740
 2530SOL     OW17558   4.031   2.824   2.331 -0.0067  0.0261 -0.1214
 2530SOL    HW117559   4.041   2.904   2.390 -1.5943  0.4898 -0.4535
 2530SOL    HW217560   4.019   2.742   2.388 -0.5467  0.3314  0.2119
 2531SOL     OW17561   1.548   5.015   0.219  0.1657 -0.0407  0.0690
 2531SOL    HW117562   1.603   4.953   0.276  1.1595  0.3586 -0.4479
 2531SOL    HW217563   1.570   5.000   0.123  1.1081  1.7643 -0.0111
 2532SOL     OW17564   4.418   9.297   1.177 -0.3116 -0.0061  0.2112
 2532SOL    HW117565   4.434   9.393   1.156 -1.7230  0.5781  1.6818
 2532SOL    HW217566   4.500   9.257   1.217  0.5608  0.3344 -1.2015
 2533SOL     OW17567   3.718   4.071   0.589  0.0474  0.0600  0.7666
 2533SOL    HW117568   3.686   3.978   0.572  0.2615  0.5032 -2.1839
 2533SOL    HW217569   3.647   4.136   0.561  1.0073  0.8600  0.1425
 2534SOL     OW17570   4.769   0.674   2.305  0.4947 -0.2985  0.5875
 2534SOL    HW117571   4.785   0.745   2.373  3.4360 -1.3810  1.1126
 2534SOL    HW217572   4.828   0.689   2.226  0.2804 -1.4936  0.1885
 2535SOL     OW17573   4.681   4.891   1.427 -0.0409 -0.4162  0.0513
 2535SOL    HW117574   4.616   4.897   1.351  0.4982  1.0592 -0.3187
 2535SOL    HW217575   4.639   4.929   1.509 -0.7928 -2.4475  0.6168
 2536SOL     OW17576   1.178   5.956   1.694 -0.1663  0.3715 -0.4510
 2536SOL    HW117577   1.090   6.000   1.678 -0.9632 -0.6313  1.0893
 2536SOL    HW217578   1.187   5.875   1.637 -0.2421  0.4732 -0.6057
 2537SOL     OW17579   3.234   6.289   1.117 -0.8508  0.0190 -0.1200
 2537SOL    HW117580   3.170   6.366   1.113  0.8000  1.4068 -0.2469
 2537SOL    HW217581   3.259   6.272   1.213  1.5128  1.9660 -0.3507
 2538SOL     OW17582   2.517   9.984   1.566  0.2254  0.1270 -0.4221
 2538SOL    HW117583   2.569  10.057   1.523  0.7046 -1.0192 -1.8257
 2538SOL    HW217584   2.419  10.003   1.558  0.3522  0.7422 -0.5228
 2539SOL     OW17585   4.487   2.944   0.854  0.0234  0.0133 -0.3222
 2539SOL    HW117586   4.394   2.941   0.819 -0.2173 -2.7890  0.4228
 2539SOL    HW217587   4.503   3.032   0.900 -2.3696  0.3573 -0.0970
 2540SOL     OW17588   2.097   6.082   0.405 -0.0235 -0.5246 -0.0698
 2540SOL    HW117589   2.029   6.101   0.334  0.6928 -0.3275 -0.7052
 2540SOL    HW217590   2.096   6.155   0.473 -0.3008 -0.4189 -0.1862
 2541SOL     OW17591   4.120   3.305   1.748  0.8443 -0.4944 -0.2900
 2541SOL    HW117592   4.192   3.283   1.813  0.1197  0.7303  0.9632
 2541SOL    HW217593   4.154   3.374   1.683  0.6230  0.5807  0.7098
 2542SOL     OW17594  10.229   5.775   1.778 -0.2949  0.3894 -0.4773
 2542SOL    HW117595  10.154   5.709   1.781 -2.1888  2.4124 -1.5558
 2542SOL    HW217596  10.252   5.803   1.871 -0.1327 -1.0726 -0.0779
 2543SOL     OW17597   5.221   4.118   1.076 -0.4115  0.1478  0.0675
 2543SOL    HW117598   5.135   4.119   1.128 -0.7720  0.9020 -0.5235
 2543SOL    HW217599   5.237   4.026   1.041  0.1121 -0.4977  1.9472
 2544SOL     OW17600   4.102   5.030   1.803 -0.0763  0.1197  0.5364
 2544SOL    HW117601   4.060   5.082   1.728 -1.6403 -0.3642  1.0460
 2544SOL    HW217602   4.075   4.934   1.795 -1.3613  0.2865  2.4427
 2545SOL     OW17603   4.162   8.359   0.381  0.7611  0.8487 -0.0495
 2545SOL    HW117604   4.258   8.362   0.356  0.3283  0.9283 -1.7704
 2545SOL    HW217605   4.127   8.266   0.368  0.1003  1.2742 -1.4890
 2546SOL     OW17606   3.158   7.509   2.029  0.4014  0.5549  0.7608
 2546SOL    HW117607   3.125   7.416   2.017  0.0359  0.5874  1.4861
 2546SOL    HW217608   3.083   7.574   2.015  0.3765  0.6777  1.4416
 2547SOL     OW17609   5.103   2.722   1.309 -0.1993  0.2858  0.0122
 2547SOL    HW117610   5.020   2.777   1.316 -1.1451 -1.2634  1.3273
 2547SOL    HW217611   5.176   2.764   1.362 -0.4772  1.0575 -0.2141
 2548SOL     OW17612   2.869   1.695   1.026  0.2485  0.0161 -0.2135
 2548SOL    HW117613   2.803   1.754   0.979  1.8382  1.7934 -0.2972
 2548SOL    HW217614   2.953   1.690   0.973  0.5494 -1.4337  0.3691
 2549SOL     OW17615   4.462   9.453   2.485 -0.3958 -0.1928 -0.0545
 2549SOL    HW117616   4.420   9.365   2.464 -0.6850 -1.1048  3.9020
 2549SOL    HW217617   4.562   9.446   2.474 -0.4818 -0.8008 -0.4229
 2550SOL     OW17618   3.740   9.982   1.024  0.6013  0.7422 -0.2722
 2550SOL    HW117619   3.717   9.998   1.120 -0.3147  0.7932 -0.4999
 2550SOL    HW217620   3.833  10.014   1.006  1.7741 -1.6135  1.2411
 2551SOL     OW17621   3.815   1.296   0.746  0.6610 -0.0944  0.4332
 2551SOL    HW117622   3.884   1.354   0.789  1.1616 -0.8859  0.7118
 2551SOL    HW217623   3.731   1.297   0.801  0.5209  0.7056  0.2033
 2552SOL     OW17624   2.816   3.651   0.827 -0.2460 -0.2340 -0.2905
 2552SOL    HW117625   2.844   3.611   0.914  0.6534 -0.2429 -0.5743
 2552SOL    HW217626   2.896   3.658   0.766 -0.7486  0.3086 -0.8985
 2553SOL     OW17627   1.941   7.511   1.453 -0.4429  0.0762 -0.3104
 2553SOL    HW117628   2.010   7.442   1.477  0.2227  0.7012 -0.4216
 2553SOL    HW217629   1.869   7.510   1.521  0.4989  0.5531  0.7093
 2554SOL     OW17630   1.971   5.396   1.282  0.6587 -0.2685 -0.2776
 2554SOL    HW117631   1.970   5.425   1.186  1.3157  1.3807  0.2036
 2554SOL    HW217632   1.944   5.472   1.340  0.2511 -1.2668  0.8722
 2555SOL     OW17633   2.016   8.527   2.392 -0.4881  0.4120  0.0652
 2555SOL    HW117634   2.079   8.474   2.448  0.5677  1.6833  0.0940
 2555SOL    HW217635   2.003   8.482   2.303 -1.1323 -0.9056  0.8090
 2556SOL     OW17636   3.319   4.530   2.448 -0.4829 -0.1427  0.3005
 2556SOL    HW117637   3.326   4.615   2.500 -2.4942  0.2073  0.0416
 2556SOL    HW217638   3.245   4.474   2.484  0.6300 -1.6638  0.2701
 2557SOL     OW17639   3.678   8.025   0.769 -0.2926 -0.0512 -0.0043
 2557SOL    HW117640   3.742   7.962   0.814  0.6511 -0.9574 -2.5126
 2557SOL    HW217641   3.584   7.996   0.788  0.0273  0.4473  2.5288
 2558SOL     OW17642   2.182  10.327   1.630  0.1536 -0.1660  0.2025
 2558SOL    HW117643   2.096  10.377   1.619  0.7580  1.0871  1.0961
 2558SOL    HW217644   2.163  10.230   1.644 -1.1164  0.1127  0.4468
 2559SOL     OW17645   1.871   6.030   0.660  0.2401 -0.0895 -0.2252
 2559SOL    HW117646   1.925   5.965   0.606  0.0450 -1.1760  0.8807
 2559SOL    HW217647   1.777   6.031   0.626  0.0975 -0.8311  0.1283
 2560SOL     OW17648   0.889   3.286   2.403  0.2184 -0.2433  0.0034
 2560SOL    HW117649   0.897   3.189   2.428 -0.4058  0.0957  1.5695
 2560SOL    HW217650   0.979   3.320   2.374  0.8937 -0.7688  1.4315
 2561SOL     OW17651   2.438   1.377   1.685 -0.0258 -0.2081  0.1526
 2561SOL    HW117652   2.430   1.299   1.623  1.1385  0.0561 -0.3318
 2561SOL    HW217653   2.531   1.414   1.681 -0.1086  0.1797  1.6133
 2562SOL     OW17654   1.005   3.315   0.773  0.5551 -0.3835 -0.4328
 2562SOL    HW117655   1.083   3.274   0.726  0.6138 -0.3028 -0.4050
 2562SOL    HW217656   0.989   3.407   0.738 -0.0338 -0.7004 -1.0136
 2563SOL     OW17657   2.553   5.268   1.892  0.4716 -0.0069 -0.2013
 2563SOL    HW117658   2.507   5.273   1.981  2.0307  3.0524  0.4957
 2563SOL    HW217659   2.519   5.189   1.842 -2.0603 -0.5377  2.2080
 2564SOL     OW17660   3.421   9.865   0.569 -0.4885  0.6072  0.7192
 2564SOL    HW117661   3.424   9.935   0.641 -0.6924  0.3395  0.9925
 2564SOL    HW217662   3.510   9.858   0.525 -0.5346  1.2049  0.5347
 2565SOL     OW17663   3.957   3.099   1.692 -0.2439  0.2730  0.2376
 2565SOL    HW117664   3.971   3.021   1.753 -1.0246  0.0523  0.1405
 2565SOL    HW217665   4.022   3.171   1.715  1.1046 -0.7566 -0.2726
 2566SOL     OW17666   3.056   1.498   2.126 -0.7257 -0.4340  0.3131
 2566SOL    HW117667   3.141   1.449   2.146 -0.4102  0.2952  0.7915
 2566SOL    HW217668   3.021   1.470   2.037  0.9875  0.6060 -0.7099
 2567SOL     OW17669   4.500   3.961   1.664  0.2895 -0.2262 -0.1210
 2567SOL    HW117670   4.508   3.890   1.735  1.8410 -0.4172 -0.4556
 2567SOL    HW217671   4.555   3.934   1.585 -1.2717  0.0788 -1.3273
 2568SOL     OW17672   2.785   9.291   0.432  0.6517  0.4590 -0.1683
 2568SOL    HW117673   2.803   9.334   0.520 -1.4929 -0.4218  0.7422
 2568SOL    HW217674   2.854   9.220   0.415  2.4039  2.1581 -0.2843
 2569SOL     OW17675   2.976   4.299   2.371  0.4979  0.2201  0.2391
 2569SOL    HW117676   2.882   4.334   2.369  0.1515 -0.6892 -0.1262
 2569SOL    HW217677   3.019   4.322   2.458  0.8339  2.9279 -0.6028
 2570SOL     OW17678   3.735   7.975   1.077  0.5223 -0.1373  0.6156
 2570SOL    HW117679   3.757   7.903   1.011 -0.6490 -0.4330  0.5493
 2570SOL    HW217680   3.790   8.057   1.055  0.0250 -0.1698 -0.8412
 2571SOL     OW17681   9.828   4.085   1.373  0.0658 -0.2866 -0.3824
 2571SOL    HW117682   9.923   4.068   1.346 -0.4582 -0.6760 -2.0085
 2571SOL    HW217683   9.821   4.177   1.412  1.6319 -1.2597  2.3864
 2572SOL     OW17684   2.257   7.140   1.200 -0.1082 -0.0855 -0.0965
 2572SOL    HW117685   2.291   7.225   1.241  0.7982  0.8090 -2.6310
 2572SOL    HW217686   2.329   7.071   1.203  0.1382  0.1483 -0.6815
 2573SOL     OW17687   2.228   9.602   2.223 -0.4323 -0.2561 -0.1783
 2573SOL    HW117688   2.300   9.633   2.285  0.0591 -0.9468 -0.3874
 2573SOL    HW217689   2.158   9.673   2.214  0.1286  0.3499  0.1756
 2574SOL     OW17690   3.108   0.804   1.336  0.4918  0.8843  0.0327
 2574SOL    HW117691   3.023   0.782   1.287  1.3159  1.1644 -1.5411
 2574SOL    HW217692   3.086   0.856   1.418 -0.8593  1.1079 -0.4512
 2575SOL     OW17693   0.825   3.929   1.045 -0.1882  0.1896  0.3254
 2575SOL    HW117694   0.753   3.969   0.989  0.7386 -0.5634 -1.4426
 2575SOL    HW217695   0.907   3.987   1.041 -0.7799  1.2304  2.6075
 2576SOL     OW17696   2.934   1.371   1.030 -0.0692 -0.3981  0.5860
 2576SOL    HW117697   2.849   1.382   0.980  0.6334 -1.6632 -0.8992
 2576SOL    HW217698   2.928   1.421   1.117 -1.3009  1.8302 -0.7221
 2577SOL     OW17699   1.678   2.226   1.615  0.5460  0.0186  0.2587
 2577SOL    HW117700   1.691   2.325   1.623 -1.4731  0.2966  0.4976
 2577SOL    HW217701   1.614   2.196   1.685  1.6526 -1.5850  0.6069
 2578SOL     OW17702   1.998  10.086   1.808 -0.1917 -0.7797 -0.0061
 2578SOL    HW117703   2.034  10.063   1.898  0.1182 -1.3589 -0.2772
 2578SOL    HW217704   2.021  10.013   1.743 -0.1168 -0.2065 -0.6286
 2579SOL     OW17705   1.510   6.450   1.428 -0.1127 -0.6840 -0.2834
 2579SOL    HW117706   1.573   6.416   1.358  1.9692 -0.1608  1.2523
 2579SOL    HW217707   1.563   6.490   1.503 -2.3570  1.0573  0.4271
 2580SOL     OW17708   2.274   7.485   0.449 -0.4803 -1.2005  0.3246
 2580SOL    HW117709   2.339   7.512   0.521  0.5064 -0.8805 -0.6769
 2580SOL    HW217710   2.181   7.508   0.478  0.0948  0.8689  0.6270
 2581SOL     OW17711   0.836   4.028   2.186 -0.1038 -0.1344  0.3513
 2581SOL    HW117712   0.748   4.031   2.139 -0.3017 -0.4435  0.6953
 2581SOL    HW217713   0.845   3.941   2.235  0.9394 -0.6596 -0.7330
 2582SOL     OW17714   3.029   9.645   2.291 -0.1195  0.5055 -0.6744
 2582SOL    HW117715   3.077   9.690   2.216 -0.2167  1.3978 -0.2157
 2582SOL    HW217716   3.091   9.585   2.340 -0.3000 -0.8408 -2.0649
 2583SOL     OW17717   2.315   7.899   2.514  0.5166 -0.5840 -0.7600
 2583SOL    HW117718   2.387   7.949   2.467  2.5062 -2.7682 -0.1139
 2583SOL    HW217719   2.337   7.802   2.514 -2.2343 -1.2345 -0.1653
 2584SOL     OW17720   1.891   3.610   2.560  0.5720  0.5445 -0.6446
 2584SOL    HW117721   1.852   3.640   2.473 -1.3576 -1.5679 -0.5412
 2584SOL    HW217722   1.871   3.679   2.631 -0.8606  0.6404 -1.1240
 2585SOL     OW17723   2.646   6.552   1.563  0.6506  0.2471  0.1943
 2585SOL    HW117724   2.724   6.595   1.518 -0.1057  0.7024 -0.6888
 2585SOL    HW217725   2.653   6.566   1.662  1.8008  0.0884  0.1396
 2586SOL     OW17726   4.438   4.869   2.603  0.1491 -0.3264  0.1488
 2586SOL    HW117727   4.482   4.864   2.513  0.8683 -0.5733  0.5144
 2586SOL    HW217728   4.339   4.863   2.591  0.1446  1.4473 -0.7585
 2587SOL     OW17729   4.236   3.059   0.078 -0.0398  0.5652  0.0926
 2587SOL    HW117730   4.170   3.082   0.006  0.2772  1.5511  0.1018
 2587SOL    HW217731   4.209   3.104   0.163  0.3642  0.5519  0.2282
 2588SOL     OW17732   4.683   3.525   0.293 -0.2148 -0.5541  0.2583
 2588SOL    HW117733   4.685   3.582   0.376 -1.0824 -0.9341  0.5456
 2588SOL    HW217734   4.640   3.437   0.314  0.8215 -1.1931 -0.2692
 2589SOL     OW17735   4.173   1.993   1.479  0.6394 -0.0984  0.0955
 2589SOL    HW117736   4.157   2.015   1.383  2.1911  1.0427  0.0898
 2589SOL    HW217737   4.161   2.075   1.535  0.6262 -0.5580  0.7733
 2590SOL     OW17738   0.963   5.793   0.850 -0.0386 -0.3357 -0.0843
 2590SOL    HW117739   0.912   5.875   0.874 -1.4016 -1.2862  0.3509
 2590SOL    HW217740   0.976   5.737   0.932  1.5990 -0.1599 -0.2233
 2591SOL     OW17741   1.078   6.855   2.402  0.3916  0.1718 -0.0786
 2591SOL    HW117742   1.036   6.770   2.370  0.3630  0.6599 -1.3467
 2591SOL    HW217743   1.038   6.881   2.490 -0.5691 -0.4039 -0.3437
 2592SOL     OW17744   3.501   6.736   1.477 -0.1978  0.4391 -0.0609
 2592SOL    HW117745   3.479   6.663   1.541 -2.7657  0.9969 -0.2533
 2592SOL    HW217746   3.498   6.701   1.384  1.7360  0.0632 -0.0053
 2593SOL     OW17747   4.587   2.162   1.597 -0.7655  0.5605 -0.1480
 2593SOL    HW117748   4.640   2.196   1.674 -2.7080  0.0111  1.4655
 2593SOL    HW217749   4.583   2.062   1.600  1.3480  0.3591 -2.4735
 2594SOL     OW17750   2.253   3.741   1.742  0.3987  0.0863  0.1272
 2594SOL    HW117751   2.224   3.834   1.764 -0.2480  0.4583 -2.1687
 2594SOL    HW217752   2.317   3.744   1.665  0.7565 -1.3246  0.3688
 2595SOL     OW17753   3.982   5.493   1.213 -0.3814  0.6041 -0.1213
 2595SOL    HW117754   4.071   5.513   1.254 -1.1660  0.6038  1.6197
 2595SOL    HW217755   3.937   5.420   1.265 -0.1384 -1.5122 -2.7896
 2596SOL     OW17756   2.715   4.868   2.243  0.7106 -1.0311  0.7052
 2596SOL    HW117757   2.724   4.881   2.144  1.4005 -2.5295  0.5556
 2596SOL    HW217758   2.754   4.947   2.290 -0.0551 -0.0765 -0.2118
 2597SOL     OW17759   4.147   5.347   1.527  0.4902  0.0056 -0.5165
 2597SOL    HW117760   4.068   5.380   1.580  0.7664  0.3347 -0.3099
 2597SOL    HW217761   4.177   5.419   1.465  1.6167  0.4498  0.5277
 2598SOL     OW17762   1.026   3.229   1.730  0.0370 -0.3077 -0.0453
 2598SOL    HW117763   0.939   3.247   1.776  0.5476 -0.0079  0.8354
 2598SOL    HW217764   1.035   3.132   1.710 -0.4771 -0.3458 -0.0802
 2599SOL     OW17765   2.261   3.835   1.281  0.7840  0.1520 -0.0794
 2599SOL    HW117766   2.322   3.850   1.203  1.9420 -1.5373  0.4724
 2599SOL    HW217767   2.171   3.809   1.247  1.0448  0.2645 -0.8751
 2600SOL     OW17768   3.186   8.970   0.127 -0.5370  0.6571  0.0449
 2600SOL    HW117769   3.098   8.939   0.162 -0.0717  0.2987  0.9127
 2600SOL    HW217770   3.260   8.933   0.184  0.3504 -1.5363 -2.4199
 2601SOL     OW17771   3.997   1.810   0.131 -0.7370  0.2770  0.0154
 2601SOL    HW117772   3.897   1.819   0.132 -0.6274  1.5127  0.2180
 2601SOL    HW217773   4.027   1.762   0.214 -1.0209  1.4736  0.8182
 2602SOL     OW17774   3.063   6.949   0.585  0.3684 -0.3459  0.5158
 2602SOL    HW117775   3.006   7.031   0.590  0.0293 -0.6397  1.5376
 2602SOL    HW217776   3.142   6.959   0.646  0.7247 -0.4670  0.0737
 2603SOL     OW17777   4.462   8.916   0.540 -0.1523  0.5671 -0.0846
 2603SOL    HW117778   4.381   8.857   0.543  0.0815  0.1776 -1.2830
 2603SOL    HW217779   4.512   8.907   0.626 -2.1012  1.8613  1.2179
 2604SOL     OW17780   2.782   5.024   1.700  0.3247 -0.0337  0.3282
 2604SOL    HW117781   2.808   5.089   1.629 -0.5252 -0.1836 -0.1219
 2604SOL    HW217782   2.824   4.935   1.681  2.0695  0.5523  1.3283
 2605SOL     OW17783   2.172   7.833   2.121 -0.2685 -0.4753  0.0380
 2605SOL    HW117784   2.095   7.860   2.180 -0.4907 -0.9488 -0.0328
 2605SOL    HW217785   2.210   7.746   2.153  0.3500 -0.1583  0.1754
 2606SOL     OW17786   1.353   6.192   0.502  0.7355  0.0680 -0.8575
 2606SOL    HW117787   1.408   6.150   0.429  2.2794 -1.7381  1.2513
 2606SOL    HW217788   1.399   6.275   0.534  0.4093  0.4862 -1.4603
 2607SOL     OW17789   1.544   7.335   1.347 -0.2532  0.1836 -0.3224
 2607SOL    HW117790   1.476   7.380   1.404  0.4464 -0.1203  0.7818
 2607SOL    HW217791   1.627   7.391   1.344  0.5712 -0.9394  0.9466
 2608SOL     OW17792   3.330   4.596   0.497  0.3228 -0.1362  0.3053
 2608SOL    HW117793   3.233   4.601   0.473  0.8314  1.0425 -1.6327
 2608SOL    HW217794   3.383   4.569   0.417  1.6421 -0.4416  1.2600
 2609SOL     OW17795   9.499   5.247   1.890  0.4697  0.1165 -0.3715
 2609SOL    HW117796   9.440   5.232   1.969  0.8762  1.4918  0.2010
 2609SOL    HW217797   9.520   5.159   1.847 -0.4967 -0.5515  0.5033
 2610SOL     OW17798   1.893   2.324   1.275  0.2542 -0.1419 -0.3862
 2610SOL    HW117799   1.801   2.291   1.296 -0.0221 -0.1626 -1.5779
 2610SOL    HW217800   1.917   2.299   1.181  1.7608 -0.7469  0.1412
 2611SOL     OW17801   1.052   3.998   0.664 -0.3577  0.0401  0.0256
 2611SOL    HW117802   1.054   3.937   0.584 -1.3304  0.4110 -0.2987
 2611SOL    HW217803   1.122   4.069   0.654  0.1018 -0.4264 -0.0837
 2612SOL     OW17804   4.617   1.270   1.830 -0.2607  0.4677  0.6122
 2612SOL    HW117805   4.601   1.311   1.920 -1.1935 -0.0944  0.7180
 2612SOL    HW217806   4.628   1.342   1.761 -4.4489  0.9869  0.3524
 2613SOL     OW17807   1.778   3.618   1.662 -0.5532 -0.2871  0.0336
 2613SOL    HW117808   1.732   3.583   1.744 -1.4847  0.8232 -0.0171
 2613SOL    HW217809   1.877   3.617   1.677 -0.6725 -1.0412  0.7938
 2614SOL     OW17810   2.918   4.879   0.975 -0.3677 -0.9154  0.2097
 2614SOL    HW117811   2.850   4.948   0.999  0.4178 -0.7870  2.1516
 2614SOL    HW217812   2.893   4.836   0.888 -1.3502  1.1754 -0.5806
 2615SOL     OW17813   3.124   4.626   1.338  0.2676 -0.2400 -0.0365
 2615SOL    HW117814   3.215   4.585   1.352  0.1054 -0.3285  0.7891
 2615SOL    HW217815   3.129   4.724   1.356 -0.0573 -0.4403  1.1380
 2616SOL     OW17816   4.786   9.186   0.745  0.3245 -0.1093  0.0403
 2616SOL    HW117817   4.786   9.245   0.664 -0.3083 -0.6030 -0.3261
 2616SOL    HW217818   4.824   9.097   0.721  0.7827 -0.0281  0.4615
 2617SOL     OW17819   2.821  10.165   1.067  0.1197  0.1056 -0.4785
 2617SOL    HW117820   2.816  10.204   1.158 -2.0055 -0.3742 -0.3800
 2617SOL    HW217821   2.838  10.066   1.074 -2.5680 -0.3831 -0.5152
 2618SOL     OW17822   2.499   5.351   2.516  0.4651  0.1830  0.0406
 2618SOL    HW117823   2.537   5.309   2.433  3.1642  2.3948  0.0900
 2618SOL    HW217824   2.411   5.309   2.537  0.7175 -1.8853 -2.7503
 2619SOL     OW17825   2.643   2.014   2.009  0.5370  0.8863 -0.3610
 2619SOL    HW117826   2.655   2.101   1.961  1.7995  0.3897 -0.9740
 2619SOL    HW217827   2.647   1.938   1.944 -2.3503  0.4394 -0.0819
 2620SOL     OW17828   4.054   1.496   1.812 -0.3388  0.2094  0.0181
 2620SOL    HW117829   3.971   1.477   1.864 -0.5539  0.8942 -0.0719
 2620SOL    HW217830   4.133   1.460   1.861 -0.6372  0.0282  0.3643
 2621SOL     OW17831   5.611   3.808   0.634  0.0815  0.1728  0.2837
 2621SOL    HW117832   5.685   3.822   0.700  0.5793  0.3001 -0.2918
 2621SOL    HW217833   5.590   3.711   0.627 -0.0530  0.1711  0.7164
 2622SOL     OW17834   3.094  10.098   0.850 -0.3170  0.6000 -0.2083
 2622SOL    HW117835   3.049  10.187   0.848 -1.4466  0.1330  2.2636
 2622SOL    HW217836   3.063  10.042   0.773 -2.9145  0.8116  0.6635
 2623SOL     OW17837   3.156   9.977   0.500  0.8640  0.2167  0.3148
 2623SOL    HW117838   3.239   9.932   0.466  1.4513 -0.3226  2.3997
 2623SOL    HW217839   3.167  10.076   0.493  1.1623  0.1277 -0.5977
 2624SOL     OW17840   2.225   4.482   1.791 -0.4510  1.1243  0.5402
 2624SOL    HW117841   2.196   4.405   1.734 -1.9772 -0.5679  3.5287
 2624SOL    HW217842   2.325   4.482   1.798 -0.3400  0.4112 -0.8034
 2625SOL     OW17843   4.484  10.139   1.049  0.1029  0.1603  0.3378
 2625SOL    HW117844   4.402  10.196   1.058  0.3895  0.7435 -0.8130
 2625SOL    HW217845   4.525  10.151   0.959 -0.7302 -3.0504 -0.5617
 2626SOL     OW17846   3.007   3.816   0.188  0.2382  0.6819 -0.0069
 2626SOL    HW117847   3.046   3.780   0.273 -0.7845 -0.3223  0.0622
 2626SOL    HW217848   2.956   3.743   0.142  0.0704  1.4527 -1.0515
 2627SOL     OW17849   2.849   9.354   1.571 -0.2397  0.3173  0.4711
 2627SOL    HW117850   2.947   9.331   1.569 -0.2327  0.4620 -0.9581
 2627SOL    HW217851   2.838   9.452   1.583 -0.2296  0.1708  1.7572
 2628SOL     OW17852  10.241   5.812   2.448  0.4898 -0.2046  0.3882
 2628SOL    HW117853  10.242   5.772   2.540  4.0546 -1.0982  0.0135
 2628SOL    HW217854  10.208   5.744   2.382 -1.8573  0.3660  0.9384
 2629SOL     OW17855   1.972   7.445   1.954  0.4394  0.5618  0.0290
 2629SOL    HW117856   1.973   7.389   1.871  1.1263  1.0631 -0.3002
 2629SOL    HW217857   1.988   7.387   2.033 -0.6653  0.0109 -0.1451
 2630SOL     OW17858   2.694   8.335   0.055 -0.3446 -0.1966 -0.4124
 2630SOL    HW117859   2.778   8.284   0.075  0.2392  0.3898 -1.3453
 2630SOL    HW217860   2.711   8.433   0.067 -1.1889 -0.1488  0.4162
 2631SOL     OW17861   3.392   9.969   1.266 -0.7015  0.4393  0.2737
 2631SOL    HW117862   3.352   9.880   1.288 -1.7745  1.1761  1.3633
 2631SOL    HW217863   3.323  10.027   1.224  0.0356  0.7133 -0.5708
 2632SOL     OW17864   2.263   3.549   0.231  0.0545  0.8597  0.1753
 2632SOL    HW117865   2.178   3.517   0.273  0.8223 -1.6543 -0.0929
 2632SOL    HW217866   2.250   3.563   0.133  0.0577  0.0051  0.0484
 2633SOL     OW17867   4.334   4.060   0.487 -0.0948  0.4253  0.3535
 2633SOL    HW117868   4.332   4.084   0.584 -0.9676 -0.8288  0.6551
 2633SOL    HW217869   4.260   4.107   0.439  0.3807  1.1022  0.2639
 2634SOL     OW17870   0.814   4.990   0.919 -0.1333  0.1265  0.6438
 2634SOL    HW117871   0.807   4.988   0.819  2.2021  1.6419  0.4168
 2634SOL    HW217872   0.749   5.057   0.955 -1.4120 -0.8598  0.1963
 2635SOL     OW17873   2.578   6.938   0.047 -0.3632 -0.1949  0.1537
 2635SOL    HW117874   2.519   6.926   0.127 -1.7691 -1.3770 -1.0335
 2635SOL    HW217875   2.645   6.863   0.043  0.9466  0.8918  1.2421
 2636SOL     OW17876   4.274   2.990   1.499 -0.6475 -0.0546 -0.0103
 2636SOL    HW117877   4.301   3.054   1.427  2.0227 -0.3404  0.6900
 2636SOL    HW217878   4.324   3.011   1.582 -2.3859 -0.8639  1.2668
 2637SOL     OW17879   4.787   0.829   0.769 -0.1578  0.2162 -0.0092
 2637SOL    HW117880   4.863   0.823   0.705 -1.4447  1.0487 -1.6260
 2637SOL    HW217881   4.735   0.912   0.752 -1.6457 -0.5160  0.8616
 2638SOL     OW17882   1.115   3.451   2.400  0.6141  0.1132 -0.7939
 2638SOL    HW117883   1.110   3.501   2.487 -0.2846  0.3322 -0.9689
 2638SOL    HW217884   1.209   3.453   2.366  0.8197  0.6619 -0.2006
 2639SOL     OW17885   3.386   4.112   0.669  0.1760 -0.2260  0.9872
 2639SOL    HW117886   3.443   4.165   0.732  2.1301 -1.0213 -0.0602
 2639SOL    HW217887   3.376   4.162   0.583  3.3743 -2.1943 -0.5995
 2640SOL     OW17888   3.736   0.952   0.165  0.3002 -0.4388  0.1934
 2640SOL    HW117889   3.744   1.042   0.122  0.3259 -1.0617 -1.1371
 2640SOL    HW217890   3.702   0.963   0.259  2.3088  1.1154  0.7912
 2641SOL     OW17891   2.294   6.175   0.695 -0.0968 -0.6047 -0.6324
 2641SOL    HW117892   2.198   6.202   0.686 -0.0680 -0.6179 -0.9795
 2641SOL    HW217893   2.339   6.237   0.759 -1.0622 -2.4240  1.8892
 2642SOL     OW17894   4.958   4.663   0.585 -0.7370  0.4392  0.1963
 2642SOL    HW117895   4.920   4.604   0.514 -2.8191 -0.2364  1.8047
 2642SOL    HW217896   5.057   4.667   0.576 -0.6833 -2.1538 -0.8106
 2643SOL     OW17897   5.531   3.968   1.015 -0.0347 -0.2647  0.3165
 2643SOL    HW117898   5.626   3.965   0.983  0.3368 -0.8133  1.4456
 2643SOL    HW217899   5.492   4.058   0.994  0.1223 -0.6755 -1.8475
 2644SOL     OW17900   3.566   3.551   2.128  0.2617  0.6203  0.2916
 2644SOL    HW117901   3.608   3.638   2.102  1.2826  0.5488  1.6798
 2644SOL    HW217902   3.596   3.480   2.064  0.6258  0.9899  0.0457
 2645SOL     OW17903   3.307   2.501   0.266 -0.5169  0.0272 -0.4447
 2645SOL    HW117904   3.313   2.598   0.241  1.0768  0.1215  0.2704
 2645SOL    HW217905   3.346   2.487   0.357  0.9085 -1.5783 -1.2883
 2646SOL     OW17906   3.234   6.628   1.784  0.8336  0.2068 -0.7359
 2646SOL    HW117907   3.245   6.714   1.834 -0.3573  1.1843 -2.1203
 2646SOL    HW217908   3.215   6.555   1.849  1.1428  1.1139  0.3995
 2647SOL     OW17909   3.291   0.761   1.750  0.0139  0.0451  0.6878
 2647SOL    HW117910   3.267   0.704   1.671 -0.0309  0.2543  0.5509
 2647SOL    HW217911   3.376   0.727   1.791 -0.2745 -0.4228  0.9009
 2648SOL     OW17912   2.707   7.719   2.477 -0.0088  0.1239 -0.3884
 2648SOL    HW117913   2.737   7.809   2.446  1.3213 -0.2362 -0.1891
 2648SOL    HW217914   2.662   7.727   2.566  0.6802  0.5109 -0.0703
 2649SOL     OW17915  10.424   5.633   0.034  0.2989 -0.1588 -0.2524
 2649SOL    HW117916  10.521   5.625   0.010  0.2101  1.3564 -1.1864
 2649SOL    HW217917  10.409   5.720   0.080 -0.5348 -0.6460  0.4129
 2650SOL     OW17918   3.057   4.506   1.096 -0.0113  0.1506 -0.5040
 2650SOL    HW117919   3.056   4.551   1.186 -1.9932 -1.8594  0.5066
 2650SOL    HW217920   3.151   4.505   1.061  0.8862  0.4148  1.8054
 2651SOL     OW17921   3.729   9.720   0.993  0.5438 -0.2417 -0.2721
 2651SOL    HW117922   3.733   9.816   1.020  1.4771  0.1597 -1.7558
 2651SOL    HW217923   3.692   9.665   1.068 -2.5992  1.6384 -0.3907
 2652SOL     OW17924   3.621   0.981   0.440  0.0266  0.1525 -0.3045
 2652SOL    HW117925   3.688   0.928   0.492  1.2209 -0.1920 -2.1436
 2652SOL    HW217926   3.632   1.078   0.461 -0.1598 -0.0469  0.7893
 2653SOL     OW17927  10.510   6.085   2.057 -0.5467  0.0300  0.1650
 2653SOL    HW117928  10.563   6.086   2.142  0.5675 -3.2357 -0.4312
 2653SOL    HW217929  10.569   6.057   1.981 -2.4718 -1.0092 -0.9875
 2654SOL     OW17930   3.377   5.662   0.869 -0.4051 -0.7957 -0.4679
 2654SOL    HW117931   3.430   5.741   0.901 -0.2274 -0.3559 -1.7931
 2654SOL    HW217932   3.280   5.684   0.873 -0.3774 -0.6976 -0.3295
 2655SOL     OW17933   3.588   6.675   0.726  1.2797  0.0212  0.0280
 2655SOL    HW117934   3.524   6.706   0.656  2.0647  1.0083 -0.2755
 2655SOL    HW217935   3.607   6.578   0.713 -0.4405 -0.3718  0.3622
 2656SOL     OW17936   2.140   6.830   2.286 -0.1434  0.1397  0.3295
 2656SOL    HW117937   2.145   6.841   2.187 -1.0167  0.4468  0.3129
 2656SOL    HW217938   2.099   6.741   2.307 -1.0918  0.5875  0.4004
 2657SOL     OW17939   2.999   4.496   0.669 -0.1790 -0.4027  0.6232
 2657SOL    HW117940   3.046   4.461   0.588 -2.1299  0.4110 -0.9135
 2657SOL    HW217941   2.959   4.420   0.720 -0.1531 -0.8122  0.0409
 2658SOL     OW17942   3.107   0.579   0.760 -0.5343  0.2344 -0.4591
 2658SOL    HW117943   3.065   0.666   0.736 -0.5793  0.3533  0.0466
 2658SOL    HW217944   3.207   0.589   0.759 -0.5468  0.3972 -0.0068
 2659SOL     OW17945   2.404   3.708   0.770 -0.0158  0.0624  0.0852
 2659SOL    HW117946   2.449   3.647   0.835  1.3537  1.1113  0.1518
 2659SOL    HW217947   2.442   3.801   0.780 -1.7503  0.8277 -0.3055
 2660SOL     OW17948   3.349   4.529   1.428  0.0902  0.6561 -0.2645
 2660SOL    HW117949   3.334   4.466   1.504  1.5796  2.0360  1.2086
 2660SOL    HW217950   3.402   4.483   1.357 -0.3741 -0.3161  0.0113
 2661SOL     OW17951   3.291   9.023   1.158 -0.5564 -0.0839  0.1754
 2661SOL    HW117952   3.312   9.092   1.089 -1.0557 -1.4926 -1.4305
 2661SOL    HW217953   3.374   8.995   1.205 -0.2324  0.9930  0.2426
 2662SOL     OW17954   1.152   5.279   2.389  0.2774 -0.3967  0.0058
 2662SOL    HW117955   1.200   5.207   2.439 -0.5582 -1.2527 -0.4161
 2662SOL    HW217956   1.068   5.242   2.349  0.2288  0.6172 -0.8551
 2663SOL     OW17957   2.970   8.668   0.906  0.1913  0.6973 -0.2946
 2663SOL    HW117958   3.022   8.641   0.824  1.8423  1.2644  0.5533
 2663SOL    HW217959   2.981   8.766   0.922  0.1121  0.5381  0.7761
 2664SOL     OW17960   3.363   5.382   0.860 -0.2571  0.4311 -0.1302
 2664SOL    HW117961   3.352   5.479   0.882 -3.2251  0.3276 -1.0312
 2664SOL    HW217962   3.274   5.340   0.844  1.0816 -2.0940 -1.3745
 2665SOL     OW17963   3.330   1.481   2.578  0.4910 -0.4540 -0.1762
 2665SOL    HW117964   3.254   1.545   2.565  0.0597 -0.5575  1.6637
 2665SOL    HW217965   3.321   1.404   2.516  0.6452  0.9238 -1.9472
 2666SOL     OW17966   1.729   6.010   0.179 -0.4130 -0.3322 -0.1308
 2666SOL    HW117967   1.762   5.958   0.100  0.3558 -1.4913  0.9179
 2666SOL    HW217968   1.788   6.089   0.194 -0.6196 -0.0547 -0.7709
 2667SOL     OW17969   3.365   4.312   0.480  0.1382 -0.3346 -0.2889
 2667SOL    HW117970   3.383   4.327   0.383  0.7107  0.6948 -0.0368
 2667SOL    HW217971   3.349   4.401   0.524 -1.6385 -0.9063  0.2582
 2668SOL     OW17972   4.757   4.799   0.003  0.2805 -0.4402  0.7365
 2668SOL    HW117973   4.702   4.766   0.079 -1.5712 -1.1991 -0.8913
 2668SOL    HW217974   4.734   4.895  -0.015 -0.0471 -0.5711  0.4579
 2669SOL     OW17975   2.854   4.844   1.396 -0.1985 -0.4972 -0.0361
 2669SOL    HW117976   2.805   4.763   1.363 -1.0937  0.7252 -1.8064
 2669SOL    HW217977   2.801   4.926   1.374  0.8573  0.5947  1.4427
 2670SOL     OW17978   2.347   0.853   1.966 -0.0716  0.1578  0.2738
 2670SOL    HW117979   2.345   0.933   2.025  2.9373 -0.6093  1.4854
 2670SOL    HW217980   2.406   0.783   2.005 -0.4878 -1.6074 -2.1004
 2671SOL     OW17981   4.172   1.362   2.488  0.6433  0.9966 -0.3917
 2671SOL    HW117982   4.210   1.270   2.477  1.3921  1.2427  0.1105
 2671SOL    HW217983   4.130   1.391   2.402  1.6173  0.7271 -0.9694
 2672SOL     OW17984   4.859   4.661   1.747 -0.6717  0.1509  0.4556
 2672SOL    HW117985   4.880   4.759   1.747 -0.8506  0.1901 -0.8317
 2672SOL    HW217986   4.881   4.622   1.658  0.5053 -1.2332  1.3210
 2673SOL     OW17987   2.992   6.019   1.536  0.0093 -0.0745  0.2109
 2673SOL    HW117988   2.975   5.922   1.555 -1.8396  0.2640  0.4404
 2673SOL    HW217989   2.931   6.049   1.462  0.2573  1.0131  0.4360
 2674SOL     OW17990   3.253   3.214   2.644  0.4955  0.2740  0.0785
 2674SOL    HW117991   3.228   3.237   2.549 -0.6985 -0.9482  0.0826
 2674SOL    HW217992   3.188   3.256   2.706  1.5469  1.4556  0.3983
 2675SOL     OW17993   2.316   9.030   1.856  0.2812  0.0640 -0.0935
 2675SOL    HW117994   2.273   9.120   1.864  1.7171  0.7245  0.3401
 2675SOL    HW217995   2.395   9.025   1.917 -1.4035 -2.4982  1.9969
 2676SOL     OW17996   1.617   2.836   1.162 -0.3894 -0.2576 -0.4811
 2676SOL    HW117997   1.523   2.804   1.169 -0.1755 -0.5525  1.6248
 2676SOL    HW217998   1.676   2.761   1.134 -0.1210 -1.4033  2.8971
 2677SOL     OW17999   2.711   2.522   1.950 -0.1875  0.4549 -0.4889
 2677SOL    HW118000   2.632   2.463   1.967  0.8615 -1.2536 -1.4425
 2677SOL    HW218001   2.771   2.521   2.030  1.6973 -2.7672 -1.8746
 2678SOL     OW18002   3.266   6.660   2.432 -0.6487  0.1149  0.5021
 2678SOL    HW118003   3.339   6.710   2.386 -0.7138  1.2331  1.6083
 2678SOL    HW218004   3.192   6.642   2.367 -0.0754  0.3396 -0.2173
 2679SOL     OW18005   4.559   2.761   1.839  0.5148  0.4145  0.2112
 2679SOL    HW118006   4.486   2.693   1.824  0.8813  0.0426  0.1048
 2679SOL    HW218007   4.632   2.746   1.773 -0.3780  2.2989 -1.2198
 2680SOL     OW18008   5.423   2.968   1.508 -0.1240  0.8121 -0.2330
 2680SOL    HW118009   5.391   2.875   1.529 -1.7974  1.4592  0.1167
 2680SOL    HW218010   5.472   2.967   1.420 -0.7559 -0.2739 -0.5877
 2681SOL     OW18011   1.869   4.687   0.245  0.2892  0.0350 -0.5229
 2681SOL    HW118012   1.965   4.694   0.274  0.4332  0.0461 -0.9973
 2681SOL    HW218013   1.812   4.739   0.308  0.5970  0.0328 -0.2395
 2682SOL     OW18014   4.706   3.844   1.481 -0.1058  0.2204 -0.1684
 2682SOL    HW118015   4.803   3.863   1.497 -0.1695 -0.1834  0.7531
 2682SOL    HW218016   4.691   3.825   1.384  0.5255  1.5062 -0.5306
 2683SOL     OW18017   2.734   1.999   1.592  0.1434 -0.4886  0.1997
 2683SOL    HW118018   2.695   2.076   1.642  0.4595  0.8561 -1.5452
 2683SOL    HW218019   2.831   2.017   1.574 -0.4173  0.0572 -2.6377
 2684SOL     OW18020   3.641   3.276   0.562 -0.3203 -0.0631  0.4198
 2684SOL    HW118021   3.676   3.257   0.470  0.5392  0.8672  0.5390
 2684SOL    HW218022   3.662   3.371   0.587  1.0180 -0.7858  2.2331
 2685SOL     OW18023   1.366   6.795   0.719 -0.7543 -0.3852 -0.0162
 2685SOL    HW118024   1.390   6.892   0.706 -1.5218 -0.1583  0.2134
 2685SOL    HW218025   1.401   6.764   0.807 -0.0228 -0.4784 -0.3317
 2686SOL     OW18026   4.863   8.911   0.644  0.3107 -0.2514  0.1780
 2686SOL    HW118027   4.853   8.921   0.545  1.0322  1.2360  0.2371
 2686SOL    HW218028   4.874   8.815   0.667 -0.0241 -0.6208 -1.1792
 2687SOL     OW18029   3.961   3.301   2.423  0.5937 -0.1208  0.5362
 2687SOL    HW118030   3.876   3.321   2.472  0.5409 -0.8870  0.7656
 2687SOL    HW218031   4.006   3.386   2.397 -1.3831  0.3120 -1.5658
 2688SOL     OW18032   2.173   5.792   2.412  0.1413 -0.3830 -0.2556
 2688SOL    HW118033   2.204   5.698   2.398  3.3549  0.5432  0.2220
 2688SOL    HW218034   2.119   5.798   2.496  1.2690 -1.5035  0.5612
 2689SOL     OW18035   9.941   4.095   0.021 -0.2274  0.5061  0.2633
 2689SOL    HW118036   9.886   4.150   0.083 -0.8026  0.7481 -0.4499
 2689SOL    HW218037  10.025   4.066   0.066 -0.2125  1.4572  0.8396
 2690SOL     OW18038   2.013   5.581   1.554 -0.4959 -0.7256 -0.4526
 2690SOL    HW118039   2.111   5.594   1.568 -0.4886 -2.0647  0.8334
 2690SOL    HW218040   1.975   5.660   1.507  1.1695 -0.1262 -0.8179
 2691SOL     OW18041   4.501   3.809   1.946 -0.0190  0.1093 -0.5465
 2691SOL    HW118042   4.568   3.736   1.940 -1.0331 -0.8039 -1.0046
 2691SOL    HW218043   4.412   3.771   1.972 -0.2502  1.3672  0.5410
 2692SOL     OW18044   3.188   3.483   2.019 -0.0178 -0.4002  0.2845
 2692SOL    HW118045   3.249   3.510   2.093 -1.0516 -0.5586  1.2161
 2692SOL    HW218046   3.234   3.418   1.959  0.5212 -0.9954  1.3225
 2693SOL     OW18047   3.533   1.074   2.452  0.6608  0.0361 -0.6148
 2693SOL    HW118048   3.532   0.975   2.466  1.8274  0.1247  0.2224
 2693SOL    HW218049   3.448   1.113   2.486  1.0273 -0.4580  0.9258
 2694SOL     OW18050   2.469   0.784   1.033  0.0502 -0.1974 -0.7627
 2694SOL    HW118051   2.428   0.711   0.978  0.1202 -0.3044 -0.6736
 2694SOL    HW218052   2.491   0.748   1.124  0.8175 -0.2839 -0.9749
 2695SOL     OW18053   3.117   8.447   1.725 -0.9694  0.2764 -0.1039
 2695SOL    HW118054   3.200   8.497   1.751 -0.4177 -0.6691 -0.0162
 2695SOL    HW218055   3.112   8.362   1.777 -1.3422 -0.2728 -1.0345
 2696SOL     OW18056   2.331   1.609   0.527  0.3099  0.2094 -0.0455
 2696SOL    HW118057   2.412   1.572   0.482  0.1280  0.3874 -0.5142
 2696SOL    HW218058   2.261   1.537   0.534  0.6571 -0.0638  0.7331
 2697SOL     OW18059   2.513   5.694   0.022 -0.0928 -0.0634  0.0196
 2697SOL    HW118060   2.512   5.597  -0.003  0.6018 -0.4299  1.3769
 2697SOL    HW218061   2.499   5.750  -0.060 -2.4339 -1.3529 -0.5081
 2698SOL     OW18062   1.341   4.153   1.890 -0.2324 -0.4694  0.3368
 2698SOL    HW118063   1.266   4.105   1.844 -1.1597  1.2554 -0.0027
 2698SOL    HW218064   1.422   4.094   1.892 -1.7724 -2.6151  1.2789
 2699SOL     OW18065   1.852   2.223   2.350  0.2112  0.5679  0.1341
 2699SOL    HW118066   1.824   2.145   2.405 -0.8074 -0.3283 -1.5940
 2699SOL    HW218067   1.927   2.197   2.290 -0.7570  0.5999 -1.1379
 2700SOL     OW18068   1.339   6.144   2.567 -0.3160 -0.0181 -0.2731
 2700SOL    HW118069   1.240   6.126   2.565 -0.5321  1.1815 -0.9603
 2700SOL    HW218070   1.374   6.126   2.659 -1.5591  1.5104  0.5331
 2701SOL     OW18071   4.302   3.551   0.145 -0.0586  0.0286  0.1685
 2701SOL    HW118072   4.245   3.633   0.135 -0.7991 -0.3931  0.9266
 2701SOL    HW218073   4.368   3.548   0.070  0.2075  1.5037  0.3240
 2702SOL     OW18074   3.625   5.488   1.580 -0.3317  0.0507  0.0339
 2702SOL    HW118075   3.567   5.487   1.498  0.0862 -1.2178 -0.2507
 2702SOL    HW218076   3.614   5.403   1.630  2.0832 -0.6683 -0.5888
 2703SOL     OW18077   3.247   4.311   1.839 -0.0312  0.2376  0.4368
 2703SOL    HW118078   3.148   4.299   1.841 -0.0112 -0.0902 -0.2022
 2703SOL    HW218079   3.275   4.375   1.911 -0.7669  0.7542  0.2739
 2704SOL     OW18080   2.017   3.955   0.086 -0.2480 -0.2336 -0.3213
 2704SOL    HW118081   1.972   3.865   0.091 -1.1249  0.2646  1.0066
 2704SOL    HW218082   1.979   4.015   0.155  0.0949  1.2963 -1.4346
 2705SOL     OW18083   4.557   4.809   2.344 -0.5486 -0.0746 -0.0797
 2705SOL    HW118084   4.615   4.730   2.362  0.0111  0.4554  0.4897
 2705SOL    HW218085   4.611   4.881   2.299 -0.7091  0.4846  0.6021
 2706SOL     OW18086   3.371   8.007   1.350  0.5754 -0.1994 -0.0110
 2706SOL    HW118087   3.300   7.939   1.370 -0.5795  0.9276 -0.2210
 2706SOL    HW218088   3.359   8.087   1.408 -0.8625  1.7449 -2.8769
 2707SOL     OW18089   2.031   5.051   0.108  0.8343 -0.1667  0.6740
 2707SOL    HW118090   2.010   4.954   0.092  1.3353 -0.3385  1.0597
 2707SOL    HW218091   2.113   5.076   0.056 -0.4105  0.5524 -0.9838
 2708SOL     OW18092   3.138   2.107   0.631 -0.4709 -0.7177 -0.3955
 2708SOL    HW118093   3.212   2.050   0.596 -0.9203 -0.3153 -2.0541
 2708SOL    HW218094   3.171   2.162   0.707  0.7204 -1.1120 -0.6157
 2709SOL     OW18095  10.527   4.932   0.002 -0.8065  0.2150 -0.3997
 2709SOL    HW118096  10.553   5.028   0.003 -1.1753  0.3283 -1.7453
 2709SOL    HW218097  10.597   4.878   0.049 -0.3703  1.0703 -0.0580
 2710SOL     OW18098   1.150   6.745   0.145 -0.6457 -0.1914 -0.1039
 2710SOL    HW118099   1.214   6.690   0.199 -0.8326 -1.5307 -1.2193
 2710SOL    HW218100   1.134   6.701   0.057 -0.1762  2.0834 -1.3625
 2711SOL     OW18101   2.746   8.046   0.550  0.5154 -0.2479  0.7315
 2711SOL    HW118102   2.668   8.029   0.490  0.2594 -0.1854  1.0410
 2711SOL    HW218103   2.795   7.961   0.566  3.6503  0.5945 -3.7163
 2712SOL     OW18104   3.178   6.414   1.944 -0.2883  0.3641  0.0821
 2712SOL    HW118105   3.247   6.353   1.905  0.0788  1.5032 -1.1056
 2712SOL    HW218106   3.158   6.386   2.038  1.2430 -0.4429  0.1913
 2713SOL     OW18107   2.358   4.502   0.124  0.4010 -0.5459  0.5728
 2713SOL    HW118108   2.417   4.560   0.068 -0.4449 -1.0662 -0.8779
 2713SOL    HW218109   2.325   4.555   0.202  0.8520  0.4655  0.0933
 2714SOL     OW18110   0.981   3.570   0.673  0.2572 -0.1234 -0.3835
 2714SOL    HW118111   0.921   3.629   0.726  1.2918 -0.3149  1.0515
 2714SOL    HW218112   1.070   3.614   0.662  1.2670 -1.6804  1.3097
 2715SOL     OW18113   2.823   9.091   2.445 -0.2357  0.3440 -0.0438
 2715SOL    HW118114   2.863   9.002   2.423 -1.6919 -0.5251  0.7615
 2715SOL    HW218115   2.869   9.130   2.525  1.0685  0.7809 -0.9966
 2716SOL     OW18116   4.453   0.430   2.235 -0.1640  0.7365  0.4247
 2716SOL    HW118117   4.360   0.463   2.251 -0.9498 -0.7027 -0.9585
 2716SOL    HW218118   4.511   0.451   2.314 -1.8626  0.8925  1.6393
 2717SOL     OW18119   3.997   2.140   0.226 -0.1831  0.0442 -0.1439
 2717SOL    HW118120   4.090   2.112   0.202 -0.2135 -0.7854  0.6684
 2717SOL    HW218121   3.994   2.167   0.323 -0.3518  2.0586 -0.6865
 2718SOL     OW18122   2.770   4.618   0.023 -0.1059  0.4124 -0.4407
 2718SOL    HW118123   2.794   4.615  -0.074 -1.0633 -0.7811 -0.6547
 2718SOL    HW218124   2.798   4.533   0.067 -1.7345 -0.0104 -0.1773
 2719SOL     OW18125   2.533   3.316   2.212  0.4636  0.5960 -0.6473
 2719SOL    HW118126   2.625   3.281   2.190  0.0775  0.2952 -1.8446
 2719SOL    HW218127   2.470   3.292   2.137 -0.8434 -0.1669  0.6658
 2720SOL     OW18128   1.150   5.537   1.956 -0.3518 -0.1278  0.8785
 2720SOL    HW118129   1.184   5.631   1.965 -1.2353  0.0684  2.3907
 2720SOL    HW218130   1.127   5.502   2.046  0.1993 -1.8996  0.3439
 2721SOL     OW18131   2.552   8.694   0.984 -0.3810  0.2896  0.5362
 2721SOL    HW118132   2.505   8.606   0.977  0.1698 -0.0272  0.7800
 2721SOL    HW218133   2.639   8.682   1.032 -1.4073  1.4017  2.7463
 2722SOL     OW18134   1.793   1.843   0.701  0.1628  0.2092 -0.1797
 2722SOL    HW118135   1.856   1.782   0.750 -0.8559 -0.5974  0.1549
 2722SOL    HW218136   1.776   1.807   0.609 -0.0715  0.2338 -0.1479
 2723SOL     OW18137   2.955   4.351   1.869  0.4384  0.4627  0.1206
 2723SOL    HW118138   2.933   4.432   1.814 -2.1385  0.3138  0.8653
 2723SOL    HW218139   2.922   4.269   1.822 -1.6351  0.3207  1.7323
 2724SOL     OW18140   0.879   4.888   1.191  0.0585  0.0826 -0.5986
 2724SOL    HW118141   0.962   4.914   1.239  0.9684 -0.3705 -1.8939
 2724SOL    HW218142   0.890   4.903   1.093 -2.0194  1.6344 -0.6292
 2725SOL     OW18143   3.472   8.435   2.396 -0.2342 -0.8025 -0.1146
 2725SOL    HW118144   3.482   8.429   2.496  0.9633 -1.9556 -0.2909
 2725SOL    HW218145   3.463   8.343   2.359  1.3131 -0.5075 -1.2690
 2726SOL     OW18146   4.661   8.966   0.360  0.0756  0.6791  0.3944
 2726SOL    HW118147   4.626   9.039   0.302 -0.5423 -0.0297 -0.1400
 2726SOL    HW218148   4.587   8.932   0.419  0.0068 -0.3839 -0.2773
 2727SOL     OW18149   4.680   3.773   0.887  0.0976  0.4353 -0.7811
 2727SOL    HW118150   4.637   3.734   0.805 -0.5345 -1.7563  0.5487
 2727SOL    HW218151   4.739   3.849   0.860 -1.0078  0.5235 -3.1426
 2728SOL     OW18152   2.355   7.629   1.464 -0.3119  0.0833 -0.4300
 2728SOL    HW118153   2.347   7.616   1.563 -0.0679 -3.8517 -0.8514
 2728SOL    HW218154   2.451   7.640   1.439 -0.2967  0.2281 -0.3072
 2729SOL     OW18155   4.216   0.373   0.740 -0.1719  0.2919 -0.3902
 2729SOL    HW118156   4.157   0.293   0.751  3.4766 -1.9425  4.4610
 2729SOL    HW218157   4.284   0.354   0.670  0.7583 -0.9370  0.8305
 2730SOL     OW18158   2.239   7.293   2.258  0.3659 -0.6423 -0.0396
 2730SOL    HW118159   2.277   7.328   2.344 -0.7181  1.6877 -0.4696
 2730SOL    HW218160   2.292   7.214   2.228  2.7804  0.4750  1.1044
 2731SOL     OW18161   5.328   2.703   1.467  0.1121  0.5354  0.2150
 2731SOL    HW118162   5.322   2.662   1.558  1.8484  0.8667  0.5002
 2731SOL    HW218163   5.417   2.682   1.427 -0.3260  1.0873 -1.0763
 2732SOL     OW18164   2.320   1.197   0.484  0.4724  0.0287 -0.0105
 2732SOL    HW118165   2.340   1.115   0.429  2.0613  0.7456 -0.5445
 2732SOL    HW218166   2.401   1.221   0.538  0.0924  1.3843 -0.0243
 2733SOL     OW18167   2.346   6.541   2.288 -0.4711 -0.1250  0.0334
 2733SOL    HW118168   2.292   6.498   2.215 -0.0050  2.2369 -1.7598
 2733SOL    HW218169   2.286   6.573   2.360 -1.2532  0.3680 -0.8267
 2734SOL     OW18170   1.066   2.804   1.425 -0.3311 -0.0073 -0.1983
 2734SOL    HW118171   1.143   2.860   1.455 -3.1544  2.6419  2.5728
 2734SOL    HW218172   1.039   2.831   1.333  0.8805  0.3449 -0.4603
 2735SOL     OW18173   3.144   9.595   0.332 -0.7688 -0.1014  0.4269
 2735SOL    HW118174   3.049   9.616   0.352 -0.8939 -0.5484  0.3031
 2735SOL    HW218175   3.151   9.547   0.245 -0.3177  0.9372 -0.1199
 2736SOL     OW18176   1.073   4.856   0.783  0.0233  0.1488  0.5137
 2736SOL    HW118177   1.023   4.889   0.704  1.3692 -0.0393 -0.4391
 2736SOL    HW218178   1.092   4.932   0.846  1.4924  0.8675 -0.7688
 2737SOL     OW18179   2.179   5.905   1.258  0.2169  0.3212 -0.1037
 2737SOL    HW118180   2.229   5.858   1.331  0.4606  1.3114  0.3681
 2737SOL    HW218181   2.117   5.972   1.299 -2.6285 -1.9213 -0.5647
 2738SOL     OW18182   9.849   4.211   0.303 -0.3885 -0.2250  0.6615
 2738SOL    HW118183   9.840   4.121   0.347 -0.2786 -0.5368  0.0428
 2738SOL    HW218184   9.761   4.238   0.264  0.4142 -1.6453 -2.2164
 2739SOL     OW18185   3.225   1.523   0.420 -0.3831 -0.0832 -0.8170
 2739SOL    HW118186   3.261   1.501   0.329  0.1922  0.2575 -0.6770
 2739SOL    HW218187   3.170   1.447   0.454  0.9418 -0.9976 -0.6680
 2740SOL     OW18188   3.602   9.637   1.310  0.4395 -0.1277 -0.4375
 2740SOL    HW118189   3.649   9.608   1.394 -0.7644 -1.3138 -0.1535
 2740SOL    HW218190   3.506   9.654   1.330 -0.4109 -2.7776 -2.0576
 2741SOL     OW18191   2.769   1.291   1.426 -0.5205 -0.1226  0.3896
 2741SOL    HW118192   2.817   1.208   1.456  0.3489  0.4354  0.5461
 2741SOL    HW218193   2.763   1.355   1.502 -1.2502 -0.0596  0.2832
 2742SOL     OW18194   4.526   8.656   0.674  0.0032  0.8127 -0.4361
 2742SOL    HW118195   4.525   8.723   0.749 -0.7920 -0.5936  0.8371
 2742SOL    HW218196   4.436   8.654   0.631  0.9140  2.7770 -2.5144
 2743SOL     OW18197   2.518   2.270   0.480 -0.3489  1.0650  0.1597
 2743SOL    HW118198   2.548   2.342   0.417 -0.0378  1.9857  1.3595
 2743SOL    HW218199   2.422   2.249   0.463 -0.4288  1.7296 -0.2190
 2744SOL     OW18200   3.458   5.300   0.138 -0.4224  0.0812  0.1145
 2744SOL    HW118201   3.536   5.306   0.075 -1.2178  0.7412 -0.8169
 2744SOL    HW218202   3.488   5.257   0.223  0.8884  0.0340 -0.3530
 2745SOL     OW18203   9.953   4.246   2.459  0.1273  0.0391  0.8945
 2745SOL    HW118204   9.950   4.177   2.531  0.2066 -2.4343 -1.3660
 2745SOL    HW218205  10.004   4.326   2.491  2.6940 -2.1850  2.6344
 2746SOL     OW18206   1.577   3.291   1.213 -0.0456 -1.0472  0.1955
 2746SOL    HW118207   1.607   3.208   1.167  0.4673 -0.3739 -0.6876
 2746SOL    HW218208   1.484   3.315   1.183  0.2278 -0.6966 -0.3777
 2747SOL     OW18209   1.258   3.413   0.252  0.0503  0.4126 -0.3982
 2747SOL    HW118210   1.300   3.332   0.210 -0.2099  1.3608 -2.5744
 2747SOL    HW218211   1.176   3.385   0.302  1.0172 -0.9131  0.4857
 2748SOL     OW18212   1.017   2.772   0.885  0.1854  0.8806 -0.1256
 2748SOL    HW118213   0.999   2.855   0.832 -0.2860  1.0195  0.2582
 2748SOL    HW218214   0.993   2.692   0.830 -0.9886  1.0431  0.1450
 2749SOL     OW18215   4.052   1.101   0.746  0.2316 -0.4055  0.1949
 2749SOL    HW118216   3.973   1.135   0.797  1.1139  2.7985 -0.5050
 2749SOL    HW218217   4.101   1.033   0.801 -1.5025 -0.4930  1.6697
 2750SOL     OW18218   2.058   1.313   1.578 -0.3617  0.3524  0.5136
 2750SOL    HW118219   1.959   1.326   1.591 -0.0680  1.9581  1.2490
 2750SOL    HW218220   2.107   1.394   1.612  1.0611  0.6871 -2.2148
 2751SOL     OW18221   2.523   2.135   0.883 -0.6005 -0.3573 -0.1562
 2751SOL    HW118222   2.594   2.146   0.952 -0.7914 -0.9853  0.1488
 2751SOL    HW218223   2.542   2.195   0.805 -1.1808  1.4409  1.0690
 2752SOL     OW18224   1.985  10.333   1.086 -0.5092 -0.4733  0.0930
 2752SOL    HW118225   1.978  10.349   1.184 -0.0715 -0.0246  0.0538
 2752SOL    HW218226   2.040  10.250   1.070  2.1351  1.2127  0.1621
 2753SOL     OW18227   4.252   3.856   1.729  0.3554  0.1118  0.0556
 2753SOL    HW118228   4.200   3.931   1.768 -0.2248 -0.5978  0.6682
 2753SOL    HW218229   4.333   3.892   1.682 -1.1552  1.2827 -1.6960
 2754SOL     OW18230   3.100   7.647   0.375 -0.4930  0.3435 -0.5772
 2754SOL    HW118231   3.183   7.692   0.343 -0.1421 -0.9512 -1.4993
 2754SOL    HW218232   3.099   7.647   0.475  1.8958 -1.9431 -0.5283
 2755SOL     OW18233   4.252   5.187   0.383 -0.2802  0.2219  0.4685
 2755SOL    HW118234   4.251   5.106   0.324 -1.2328  0.0858  0.6523
 2755SOL    HW218235   4.248   5.160   0.479  0.5277  0.4637  0.5757
 2756SOL     OW18236   4.506   8.167   0.214 -0.1244  0.0460 -0.2388
 2756SOL    HW118237   4.436   8.114   0.167  0.2796 -1.3434  0.6878
 2756SOL    HW218238   4.559   8.106   0.274  1.8671  1.0598 -0.9268
 2757SOL     OW18239  10.468   4.892   0.958 -0.4788  0.4168 -0.4062
 2757SOL    HW118240  10.518   4.861   0.877  1.0959  1.5109  0.1383
 2757SOL    HW218241  10.528   4.888   1.038 -1.4297  1.2033  0.3548
 2758SOL     OW18242   2.387   2.712   1.690 -0.0476  0.0817 -0.3668
 2758SOL    HW118243   2.317   2.756   1.633  1.5290  0.5383 -2.0120
 2758SOL    HW218244   2.477   2.747   1.664  0.9338 -1.6423  0.6524
 2759SOL     OW18245   3.257   1.857   0.980  0.2060 -0.2408 -0.4021
 2759SOL    HW118246   3.355   1.849   0.963  0.4377 -0.9875  1.1314
 2759SOL    HW218247   3.209   1.784   0.932  0.4447 -0.1094 -0.8416
 2760SOL     OW18248   2.373   9.511   2.002  0.1289 -0.6187  0.0169
 2760SOL    HW118249   2.341   9.543   2.091 -0.2281 -0.3539 -0.2026
 2760SOL    HW218250   2.456   9.559   1.977 -0.6056  0.3960 -0.4738
 2761SOL     OW18251   3.659   9.921   1.291  0.0779  0.7085 -0.0873
 2761SOL    HW118252   3.560   9.918   1.278 -0.0502  2.0733  0.4942
 2761SOL    HW218253   3.690   9.836   1.334 -0.5799 -0.4654 -1.8808
 2762SOL     OW18254   4.661   3.391   2.156 -0.4809 -0.7278 -0.1512
 2762SOL    HW118255   4.746   3.340   2.140 -1.6193 -2.8088  0.3699
 2762SOL    HW218256   4.608   3.395   2.072  0.0672  0.5413 -0.4657
 2763SOL     OW18257  10.396   5.369   2.042  0.3106  0.0577  0.1983
 2763SOL    HW118258  10.384   5.280   2.086 -2.1275 -0.2649 -1.0605
 2763SOL    HW218259  10.403   5.440   2.112 -2.0808 -0.6195  1.1598
 2764SOL     OW18260   1.717   5.251   0.814  0.2108 -0.1734 -0.5327
 2764SOL    HW118261   1.712   5.289   0.906 -0.1763  1.6534 -1.2831
 2764SOL    HW218262   1.626   5.252   0.773  0.5414 -0.1247 -1.2733
 2765SOL     OW18263   2.834   9.739   0.106  0.0892 -0.2161  0.6975
 2765SOL    HW118264   2.745   9.697   0.122 -1.9246  2.7620 -2.1746
 2765SOL    HW218265   2.848   9.814   0.170 -0.7430  1.1281 -0.6725
 2766SOL     OW18266   3.194   3.895   1.197 -0.0163 -0.0279  0.1277
 2766SOL    HW118267   3.232   3.969   1.143  0.3296 -1.2230 -1.2980
 2766SOL    HW218268   3.255   3.816   1.194 -1.3612 -1.0902 -0.1049
 2767SOL     OW18269   4.308   0.667   0.833  0.1859 -0.1366 -0.5923
 2767SOL    HW118270   4.404   0.640   0.838  0.3810  0.3128 -1.8368
 2767SOL    HW218271   4.250   0.587   0.849  0.7644 -0.4449 -0.0182
 2768SOL     OW18272   2.382   5.085   1.761 -0.1292 -0.1049  0.3931
 2768SOL    HW118273   2.306   5.149   1.769 -0.4589 -0.6283  1.5458
 2768SOL    HW218274   2.396   5.038   1.848  0.6404 -1.0017 -0.1985
 2769SOL     OW18275   2.133   4.629   1.496 -0.0254 -0.3748 -0.5330
 2769SOL    HW118276   2.186   4.544   1.500 -0.0711 -0.4154 -0.8056
 2769SOL    HW218277   2.123   4.658   1.401 -0.4639 -0.3487 -0.4809
 2770SOL     OW18278   1.589   4.489   2.183 -0.6042 -0.4002  0.4588
 2770SOL    HW118279   1.644   4.517   2.105  0.9222 -1.5116  1.1155
 2770SOL    HW218280   1.519   4.424   2.153  0.2240 -1.1226  0.0775
 2771SOL     OW18281   5.479   2.870   2.167 -0.3750 -0.0353  0.3158
 2771SOL    HW118282   5.439   2.830   2.085  0.8408  3.3790 -2.0735
 2771SOL    HW218283   5.407   2.902   2.228 -1.2758 -1.2268 -0.1175
 2772SOL     OW18284   5.307   2.837   1.948  0.3592  0.2712  0.2282
 2772SOL    HW118285   5.229   2.774   1.937  1.5989 -1.2887  0.1107
 2772SOL    HW218286   5.277   2.920   1.993 -1.0960 -0.9075  1.4838
 2773SOL     OW18287   4.216   3.391   0.586  0.0149 -0.9258 -0.3169
 2773SOL    HW118288   4.257   3.439   0.508  1.8658 -0.2050  1.0524
 2773SOL    HW218289   4.131   3.436   0.611  1.1785  1.0206  0.2656
 2774SOL     OW18290   9.297   4.771   2.478  0.0764  0.6972 -0.0302
 2774SOL    HW118291   9.225   4.705   2.457 -0.1672  1.0325 -0.2533
 2774SOL    HW218292   9.386   4.724   2.478  0.0264  0.5825 -1.2709
 2775SOL     OW18293   3.067   1.908   0.320  0.0483  0.2561  0.5905
 2775SOL    HW118294   3.019   1.821   0.314  2.4964 -0.9019 -4.3409
 2775SOL    HW218295   3.141   1.902   0.387  0.3969 -1.5790  0.0504
 2776SOL     OW18296   3.436   9.887   2.127  0.1753 -0.4874  0.9097
 2776SOL    HW118297   3.365   9.957   2.135  1.7380  1.1342  0.8960
 2776SOL    HW218298   3.520   9.928   2.091  1.1680 -2.3427  1.0318
 2777SOL     OW18299   4.675   8.278   0.540 -1.4184  0.4441 -0.4370
 2777SOL    HW118300   4.661   8.221   0.459  2.3996  0.2783 -1.0826
 2777SOL    HW218301   4.658   8.224   0.623 -1.2437 -0.5972 -1.0740
 2778SOL     OW18302   5.227   2.597   0.803 -0.1083  0.1290  0.0362
 2778SOL    HW118303   5.213   2.685   0.848  1.4459 -0.1514  1.1427
 2778SOL    HW218304   5.216   2.524   0.870  0.5132 -0.3993 -0.4260
 2779SOL     OW18305   3.501   2.259   0.239 -0.7854 -0.1609 -0.0969
 2779SOL    HW118306   3.408   2.232   0.265 -1.3668  1.6587 -0.1887
 2779SOL    HW218307   3.508   2.359   0.240  1.8199 -0.3090  2.1135
 2780SOL     OW18308   3.448   9.144   2.315 -0.3645  0.4653 -0.1063
 2780SOL    HW118309   3.456   9.062   2.258  0.0042  0.1258  0.4217
 2780SOL    HW218310   3.384   9.126   2.390  0.4781  0.3146  0.5906
 2781SOL     OW18311   3.071   5.997   0.148 -0.0487  0.3378  0.4560
 2781SOL    HW118312   3.124   5.974   0.230 -0.0075 -0.1165  0.3042
 2781SOL    HW218313   3.105   6.083   0.110  0.1249  0.4015  0.7477
 2782SOL     OW18314   1.984   1.604   0.316  0.1168 -0.4227  0.1430
 2782SOL    HW118315   2.025   1.673   0.375 -1.8573  1.5697 -0.7219
 2782SOL    HW218316   1.936   1.536   0.372  0.0521  0.2522  0.9106
 2783SOL     OW18317   3.463   4.787   1.388  0.0075  0.3705 -0.0973
 2783SOL    HW118318   3.426   4.698   1.412  1.6594  0.1917  1.9404
 2783SOL    HW218319   3.445   4.806   1.292 -2.5739 -1.0430  0.0633
 2784SOL     OW18320   9.893   5.152   1.023  0.0413  0.1233 -0.4797
 2784SOL    HW118321   9.905   5.095   0.941  1.2923  1.1695 -1.0533
 2784SOL    HW218322   9.900   5.095   1.105  1.8124 -0.4670 -1.0284
 2785SOL     OW18323   1.253   6.378   1.793 -0.2669 -0.2335  0.3171
 2785SOL    HW118324   1.261   6.420   1.702 -0.2415 -1.0918 -0.0844
 2785SOL    HW218325   1.319   6.304   1.802  0.2823  0.3762  1.3450
 2786SOL     OW18326   1.238   5.231   0.905 -0.2783  0.0334  0.3142
 2786SOL    HW118327   1.222   5.143   0.950 -1.5454 -0.3738 -0.9136
 2786SOL    HW218328   1.205   5.304   0.964  1.3794 -0.2503  1.6352
 2787SOL     OW18329   3.350   2.808   2.145 -0.6632  0.2731  0.2440
 2787SOL    HW118330   3.358   2.836   2.050 -2.4304  0.8808  0.2427
 2787SOL    HW218331   3.350   2.708   2.151 -1.2481  0.2259 -0.4713
 2788SOL     OW18332   3.286   3.624   1.668  0.2043 -0.0563 -0.4696
 2788SOL    HW118333   3.201   3.675   1.685 -0.7392 -2.5505  2.7859
 2788SOL    HW218334   3.360   3.665   1.722  0.1065 -0.3311 -0.1207
 2789SOL     OW18335   1.456   4.573   1.680 -0.2110  0.5390  0.1656
 2789SOL    HW118336   1.391   4.639   1.719 -1.7818 -0.4400 -0.7741
 2789SOL    HW218337   1.476   4.598   1.585  0.6297  0.6995  0.3759
 2790SOL     OW18338   3.013   0.830   0.837  0.1114 -0.8615  0.5456
 2790SOL    HW118339   3.037   0.878   0.922 -0.8450 -2.7440  1.9149
 2790SOL    HW218340   2.915   0.837   0.821  0.6235  1.9013 -1.9900
 2791SOL     OW18341  10.140   5.218   1.162 -0.4628  0.0493 -1.0841
 2791SOL    HW118342  10.102   5.149   1.102 -0.5323 -1.3078  0.4933
 2791SOL    HW218343  10.239   5.203   1.172 -0.8964 -1.5130  1.3738
 2792SOL     OW18344   3.907   4.778   1.721 -0.6232 -0.1550  0.4226
 2792SOL    HW118345   3.877   4.868   1.752  1.1784  1.4711 -2.3394
 2792SOL    HW218346   3.838   4.709   1.745 -2.5260  2.1147  1.6211
 2793SOL     OW18347   4.570   1.890   1.554  0.6881 -0.2207 -0.0902
 2793SOL    HW118348   4.634   1.819   1.525 -0.4166 -1.6876  0.9878
 2793SOL    HW218349   4.479   1.851   1.564 -0.0039  1.4201  0.2490
 2794SOL     OW18350   2.213  10.290   0.516  0.4359  0.0677 -0.1584
 2794SOL    HW118351   2.190  10.339   0.600  0.5655  0.1179 -0.1531
 2794SOL    HW218352   2.274  10.214   0.536  0.1403 -0.1687 -0.1511
 2795SOL     OW18353   0.787   5.407   1.032  0.1111 -0.1430 -0.1330
 2795SOL    HW118354   0.759   5.466   1.108  1.8191  0.7774 -0.1777
 2795SOL    HW218355   0.887   5.396   1.034 -0.1767 -2.9873 -0.1809
 2796SOL     OW18356   4.249   1.072   2.537  0.1287  0.9421  1.4370
 2796SOL    HW118357   4.247   1.036   2.630  0.5073 -1.0153  0.7149
 2796SOL    HW218358   4.159   1.061   2.495  0.3557  0.4504  1.0751
 2797SOL     OW18359   4.483   9.079   1.571 -0.0271  0.7569 -0.1066
 2797SOL    HW118360   4.503   9.176   1.584  1.5976  0.7292 -2.1177
 2797SOL    HW218361   4.502   9.053   1.477 -1.5425 -1.2850  0.1039
 2798SOL     OW18362   2.320   5.508   0.327 -0.0555 -0.0934 -0.3230
 2798SOL    HW118363   2.368   5.443   0.269  0.4784 -0.8050  0.8869
 2798SOL    HW218364   2.319   5.598   0.283 -0.5562 -0.8469 -1.8734
 2799SOL     OW18365   2.503  10.329   2.548 -0.4926 -0.3991 -0.3551
 2799SOL    HW118366   2.567  10.363   2.479 -1.0583  1.1796 -0.1321
 2799SOL    HW218367   2.419  10.299   2.503 -0.7436  0.3410 -0.3829
 2800SOL     OW18368   4.257   4.203   2.136 -0.2552  0.4288 -0.4508
 2800SOL    HW118369   4.291   4.225   2.044  1.3790 -2.1719 -0.5193
 2800SOL    HW218370   4.206   4.117   2.132  0.9942 -0.4029  1.3082
 2801SOL     OW18371   9.898   4.462   1.039 -0.0685 -1.0013 -0.1999
 2801SOL    HW118372   9.918   4.560   1.051  0.8242 -0.9267 -2.0875
 2801SOL    HW218373   9.955   4.409   1.102  0.7807 -0.3915 -0.4361
 2802SOL     OW18374   2.087   2.862   1.116 -0.0212 -0.0261  0.2678
 2802SOL    HW118375   2.157   2.933   1.110 -0.4709  0.2310 -2.5720
 2802SOL    HW218376   2.009   2.895   1.169 -0.6384  2.0153 -1.8325
 2803SOL     OW18377   2.857   4.836   0.405 -0.2524  0.2260  0.2589
 2803SOL    HW118378   2.773   4.787   0.383 -0.9386  1.6988 -0.5131
 2803SOL    HW218379   2.838   4.934   0.407  1.0783  0.4581  1.8208
 2804SOL     OW18380   1.996   4.887   0.861  0.0386 -0.0764 -0.1143
 2804SOL    HW118381   2.001   4.879   0.960 -0.4213 -1.1500 -0.1782
 2804SOL    HW218382   2.025   4.979   0.834 -2.1949  1.0544  1.1955
 2805SOL     OW18383  10.262   3.970   2.057  0.0303 -0.0560  0.0604
 2805SOL    HW118384  10.270   4.001   2.152  0.7697 -1.7968  0.5747
 2805SOL    HW218385  10.331   3.900   2.038  0.1281  0.5409 -1.8809
 2806SOL     OW18386   2.318   4.737   1.658 -0.2380 -0.6216  0.6011
 2806SOL    HW118387   2.257   4.707   1.584  0.6827  0.2842 -0.5508
 2806SOL    HW218388   2.264   4.757   1.740 -1.2557 -1.7978  0.2370
 2807SOL     OW18389   0.842   3.358   1.885  0.0414 -0.6528 -1.0188
 2807SOL    HW118390   0.823   3.333   1.980 -1.9895  1.3327 -0.8655
 2807SOL    HW218391   0.935   3.394   1.878 -0.7264  1.8023  0.7851
 2808SOL     OW18392   3.148   6.790   0.860  0.2528  0.0228  0.1572
 2808SOL    HW118393   3.061   6.812   0.904 -0.0331 -0.5563 -0.1190
 2808SOL    HW218394   3.187   6.708   0.902 -1.0126 -1.7381 -1.9871
 2809SOL     OW18395   1.359   6.757   2.117 -0.4040  1.2764  0.1392
 2809SOL    HW118396   1.348   6.657   2.123  0.6375  1.0354 -1.4637
 2809SOL    HW218397   1.286   6.802   2.169 -2.3934 -0.3088 -1.1622
 2810SOL     OW18398   3.828   3.093   0.309  0.0705  0.1298  0.5087
 2810SOL    HW118399   3.802   3.157   0.237 -0.0068  0.1541  0.5583
 2810SOL    HW218400   3.763   3.017   0.312  0.9813 -0.7055 -0.5127
 2811SOL     OW18401   0.877   6.042   0.919  0.5144 -0.2657 -0.0565
 2811SOL    HW118402   0.826   6.087   0.846  0.2646 -0.4880 -0.0212
 2811SOL    HW218403   0.946   6.105   0.956 -1.5122  1.0215  1.7186
 2812SOL     OW18404   1.971   3.771   1.297 -0.0233 -0.0240  0.6117
 2812SOL    HW118405   1.922   3.747   1.381 -1.0363 -1.3820 -0.3320
 2812SOL    HW218406   1.917   3.836   1.244 -0.0728 -0.2966  0.3243
 2813SOL     OW18407   3.494  10.220   1.362 -0.5489  0.2163  0.5490
 2813SOL    HW118408   3.479  10.126   1.333  2.6862  0.3967 -2.0178
 2813SOL    HW218409   3.521  10.222   1.458  0.7494 -1.6172  0.2296
 2814SOL     OW18410   1.886   1.198   0.507  0.3952 -0.0041 -0.3003
 2814SOL    HW118411   1.871   1.136   0.429  0.3839  0.4704 -0.6812
 2814SOL    HW218412   1.949   1.156   0.572  0.4240 -0.3943 -0.5772
 2815SOL     OW18413   1.483   7.102   1.238 -0.4651  0.2774  0.2907
 2815SOL    HW118414   1.507   7.085   1.142 -0.0297 -0.7937  0.5824
 2815SOL    HW218415   1.496   7.199   1.258  1.6357  0.1157 -0.1432
 2816SOL     OW18416   4.707   4.614   2.474  0.5336  0.2577 -0.0676
 2816SOL    HW118417   4.787   4.579   2.426  0.1519  0.4720 -0.8604
 2816SOL    HW218418   4.735   4.687   2.536  1.2720 -1.1316  1.2738
 2817SOL     OW18419   3.527   6.394   1.200  0.2070  0.0954 -0.5238
 2817SOL    HW118420   3.502   6.337   1.121  1.3884  0.4687 -1.1762
 2817SOL    HW218421   3.461   6.378   1.274  0.2527 -1.7805 -0.8508
 2818SOL     OW18422   3.142   3.871   1.463  0.7631  0.2684 -0.5956
 2818SOL    HW118423   3.135   3.885   1.364  0.2926  0.2932 -0.5619
 2818SOL    HW218424   3.114   3.778   1.485  2.3805 -0.2453 -0.6501
 2819SOL     OW18425   3.971   5.026   0.840  0.1476  0.0639  0.1352
 2819SOL    HW118426   3.955   5.067   0.751 -0.1083  0.7205  0.4864
 2819SOL    HW218427   4.060   4.982   0.841 -0.5983 -1.5299 -1.0435
 2820SOL     OW18428   4.637   4.512   1.164 -0.1265 -0.5809 -0.6333
 2820SOL    HW118429   4.572   4.495   1.090 -0.9681  2.4894 -0.6736
 2820SOL    HW218430   4.729   4.521   1.126 -0.2657 -0.9723 -1.0674
 2821SOL     OW18431   2.095   0.951   1.332  0.5894 -0.0254 -0.1360
 2821SOL    HW118432   2.147   1.036   1.342  0.6204 -0.1507  0.8206
 2821SOL    HW218433   1.999   0.973   1.317  0.2567  0.1682  2.1492
 2822SOL     OW18434   2.403   7.915   1.062 -0.6297  0.1461  0.1473
 2822SOL    HW118435   2.449   7.826   1.057 -1.7069 -0.2946 -3.2906
 2822SOL    HW218436   2.417   7.954   1.153  2.0400 -2.3430  0.9061
 2823SOL     OW18437   0.795   3.185   0.457  0.6595  0.3690  0.2947
 2823SOL    HW118438   0.761   3.216   0.545  0.8584 -0.4210  0.6526
 2823SOL    HW218439   0.723   3.191   0.389  0.2833  0.2511  0.6835
 2824SOL     OW18440   3.858   5.570   2.441  0.0091  0.6220  0.1027
 2824SOL    HW118441   3.824   5.491   2.492  0.0526  0.0406 -0.7699
 2824SOL    HW218442   3.841   5.558   2.344  1.9874  0.6603 -0.2808
 2825SOL     OW18443   3.446   9.516   1.764  0.5794  0.4360  0.0731
 2825SOL    HW118444   3.507   9.495   1.687  0.0942  1.8755 -0.7147
 2825SOL    HW218445   3.488   9.587   1.821  0.2954  0.3849  0.3473
 2826SOL     OW18446   2.973   4.755   2.025 -0.1285  0.4305 -0.0195
 2826SOL    HW118447   3.000   4.692   2.098  0.9308  0.5040 -0.3414
 2826SOL    HW218448   2.974   4.849   2.061  1.4271  0.5747 -0.3976
 2827SOL     OW18449   2.916   3.076   0.946  0.4688 -0.3132 -0.2554
 2827SOL    HW118450   2.921   2.987   0.901 -1.5569 -0.6576  0.1329
 2827SOL    HW218451   2.919   3.064   1.045  0.6384  0.0892 -0.2107
 2828SOL     OW18452   2.650   8.228   1.281  0.4331  0.5619 -0.1533
 2828SOL    HW118453   2.684   8.250   1.373 -0.1842 -0.6599  0.3778
 2828SOL    HW218454   2.601   8.307   1.245  0.2221  0.8770  0.7924
 2829SOL     OW18455   1.036   6.189   0.556 -0.4429  0.1193 -0.3531
 2829SOL    HW118456   1.103   6.122   0.524  0.1926  0.1055  0.9768
 2829SOL    HW218457   1.081   6.277   0.573 -1.3886  1.1147 -2.7294
 2830SOL     OW18458   1.158   6.608   2.575 -0.0938 -0.0279 -0.1395
 2830SOL    HW118459   1.099   6.540   2.530 -1.3408  2.1985 -2.0106
 2830SOL    HW218460   1.251   6.600   2.539 -0.6166  0.3306 -1.6234
 2831SOL     OW18461  10.080   3.909   0.250 -0.3693  0.3340 -0.2911
 2831SOL    HW118462  10.141   3.913   0.171  0.5101  1.5856  0.4294
 2831SOL    HW218463  10.110   3.837   0.313 -0.1187  0.4016 -0.3328
 2832SOL     OW18464   4.518   4.422   2.439  0.2631  0.6149 -0.0298
 2832SOL    HW118465   4.591   4.489   2.425 -0.0937  0.8870 -0.6226
 2832SOL    HW218466   4.506   4.406   2.537  0.8537  0.8549  0.0865
 2833SOL     OW18467   2.591   0.721   1.274  0.1624  0.0381  0.4281
 2833SOL    HW118468   2.559   0.789   1.340 -0.5812 -0.0804  0.1948
 2833SOL    HW218469   2.584   0.630   1.315 -2.4286 -0.2639 -0.5797
 2834SOL     OW18470   3.171   5.021   1.860 -0.1083 -0.0993  0.1177
 2834SOL    HW118471   3.117   5.013   1.944  0.4064 -4.1018  0.1906
 2834SOL    HW218472   3.177   4.931   1.816  2.2317  1.2980 -2.5924
 2835SOL     OW18473  10.294   3.488   1.967  0.0586 -0.7307  0.3089
 2835SOL    HW118474  10.203   3.513   1.998  1.0364  3.4761  0.2042
 2835SOL    HW218475  10.292   3.464   1.870 -0.9251 -0.6431  0.3097
 2836SOL     OW18476   3.381   4.424   2.091  0.1616  0.6529 -0.0601
 2836SOL    HW118477   3.429   4.507   2.118  0.3487 -0.0552  1.8351
 2836SOL    HW218478   3.285   4.431   2.119  0.1305  0.3152 -0.0805
 2837SOL     OW18479   4.413   7.867   0.522 -0.1070  0.6084  0.4294
 2837SOL    HW118480   4.317   7.894   0.527 -0.0611  0.6656  1.0887
 2837SOL    HW218481   4.433   7.801   0.594 -0.2533 -1.3562 -1.2944
 2838SOL     OW18482   2.291   8.921   0.513  0.2981  0.3111 -0.3255
 2838SOL    HW118483   2.247   8.969   0.589 -0.2006 -1.2987  0.4296
 2838SOL    HW218484   2.373   8.971   0.485 -0.2204  1.6003  0.4258
 2839SOL     OW18485   4.260   2.704   1.096  0.3994  0.1221  0.2273
 2839SOL    HW118486   4.245   2.706   1.195 -1.2378  0.5437 -0.0011
 2839SOL    HW218487   4.243   2.612   1.061  0.1817  0.1575  0.2368
 2840SOL     OW18488   1.808   6.799   0.349 -0.7122  0.0151 -0.1258
 2840SOL    HW118489   1.805   6.777   0.252 -1.5360 -0.4080 -0.0063
 2840SOL    HW218490   1.844   6.720   0.400 -1.2897 -0.1443  0.0314
 2841SOL     OW18491   3.913   3.159   2.192  0.0037 -0.3538  0.5294
 2841SOL    HW118492   3.919   3.212   2.277 -0.3162 -0.3479  0.5462
 2841SOL    HW218493   3.832   3.101   2.194 -1.1534  1.1645 -0.6265
 2842SOL     OW18494   3.951   5.030   0.268  0.1953  0.2978  0.2508
 2842SOL    HW118495   3.894   5.058   0.191  0.6657  0.9545  0.1334
 2842SOL    HW218496   4.043   5.006   0.235  0.0255 -0.6246  0.4536
 2843SOL     OW18497   2.090   0.369   2.248 -0.3591  0.1041 -0.5123
 2843SOL    HW118498   1.996   0.352   2.277 -1.0690  2.7189 -1.0858
 2843SOL    HW218499   2.090   0.436   2.173  1.9428 -0.0895 -0.7352
 2844SOL     OW18500   1.576   4.467   1.103 -0.0412 -0.1402 -0.4882
 2844SOL    HW118501   1.611   4.471   1.010 -1.0895 -0.4191 -0.9018
 2844SOL    HW218502   1.626   4.397   1.155 -1.0584 -1.7019 -1.5504
 2845SOL     OW18503   2.094   5.872   0.832  0.1046 -0.4015  0.1859
 2845SOL    HW118504   2.125   5.789   0.786  0.5727 -0.1567  0.0576
 2845SOL    HW218505   2.093   5.948   0.767  0.5930 -0.0952  0.5303
 2846SOL     OW18506   4.754   2.501   1.649  0.3437 -0.1240 -0.7803
 2846SOL    HW118507   4.754   2.550   1.562  0.7195 -1.1797 -1.3753
 2846SOL    HW218508   4.659   2.482   1.675  0.2428 -0.0896 -1.1147
 2847SOL     OW18509   4.413   4.480   0.998 -0.1783 -0.0888 -0.0891
 2847SOL    HW118510   4.386   4.384   0.990 -1.6088  0.1665  1.3240
 2847SOL    HW218511   4.449   4.512   0.910  2.4032 -2.5019  0.0086
 2848SOL     OW18512   2.820   3.023   0.294 -0.3461  0.0079 -0.3805
 2848SOL    HW118513   2.746   3.083   0.265  1.5022  1.6988 -1.6940
 2848SOL    HW218514   2.881   3.074   0.355  0.1118 -1.1686  0.1463
 2849SOL     OW18515   3.002   7.162   1.051  0.1817  0.3877 -0.4528
 2849SOL    HW118516   2.947   7.142   0.969  0.5318  0.3772 -0.6831
 2849SOL    HW218517   2.941   7.173   1.130  0.0448 -2.9912 -0.0262
 2850SOL     OW18518   1.555   5.784   0.728 -0.3157 -0.3161  0.4387
 2850SOL    HW118519   1.632   5.792   0.792  0.6867  0.8071 -0.8530
 2850SOL    HW218520   1.471   5.767   0.779  0.3260  1.3451  2.1461
 2851SOL     OW18521   2.830   1.043   1.467  0.1768  0.0013 -0.2042
 2851SOL    HW118522   2.787   1.004   1.549 -1.2276 -0.8166 -1.3138
 2851SOL    HW218523   2.929   1.050   1.482 -0.1491  0.7025  1.8942
 2852SOL     OW18524   3.166  10.092   1.127  0.4528  0.0045 -0.2861
 2852SOL    HW118525   3.081  10.047   1.155  1.2937 -1.7198 -0.4976
 2852SOL    HW218526   3.173  10.092   1.028  1.0544 -0.4964 -0.2417
 2853SOL     OW18527   1.497   3.727   0.659  0.9587 -0.4379 -0.0095
 2853SOL    HW118528   1.500   3.728   0.759  0.9069 -2.0499  0.0302
 2853SOL    HW218529   1.573   3.671   0.625 -0.7578 -2.3852 -0.7361
 2854SOL     OW18530   3.998   4.669   0.775  0.8143 -0.4495  0.2215
 2854SOL    HW118531   3.921   4.731   0.763  1.1746  0.0071  0.2159
 2854SOL    HW218532   3.965   4.578   0.798  0.2671 -0.3204 -0.0451
 2855SOL     OW18533   3.753   8.973   0.812 -0.2607  0.3704 -0.1964
 2855SOL    HW118534   3.789   8.891   0.856 -0.5143  0.6109  0.4701
 2855SOL    HW218535   3.824   9.015   0.755  0.3217  0.4943  0.6152
 2856SOL     OW18536   4.139   2.139   2.245  0.0561  0.1177 -0.4459
 2856SOL    HW118537   4.078   2.071   2.285  0.4165  0.5824  0.9044
 2856SOL    HW218538   4.234   2.111   2.259  0.2151  1.1312  0.5456
 2857SOL     OW18539   2.974   9.903   1.865 -0.1657 -0.4280  0.0614
 2857SOL    HW118540   3.051   9.965   1.879 -0.4082  0.2400 -1.4906
 2857SOL    HW218541   2.999   9.835   1.796 -0.7903 -0.5272 -0.0649
 2858SOL     OW18542   3.997   1.596   2.541  0.1094 -0.0050  0.4635
 2858SOL    HW118543   4.082   1.610   2.491  0.0473 -0.5236  0.2174
 2858SOL    HW218544   4.013   1.533   2.617 -0.1220 -0.3305  0.2422
 2859SOL     OW18545   1.169   4.991   1.035 -0.0862  0.0717 -0.3415
 2859SOL    HW118546   1.166   5.005   1.134  1.3809  0.0157 -0.2748
 2859SOL    HW218547   1.201   4.898   1.016  1.1881  0.6043 -0.8744
 2860SOL     OW18548   1.261   5.988   0.171 -0.3477 -0.4689 -0.2930
 2860SOL    HW118549   1.192   5.987   0.243 -1.1582 -1.5207 -1.0729
 2860SOL    HW218550   1.247   5.910   0.110  1.9794 -1.1110 -0.0397
 2861SOL     OW18551   4.944   1.387   0.043 -0.2703  0.2670  0.3406
 2861SOL    HW118552   4.921   1.363  -0.051  1.8863 -0.8938  0.0672
 2861SOL    HW218553   4.884   1.338   0.106 -2.1658  1.5566 -0.4173
 2862SOL     OW18554   1.603   1.173   1.511  0.3495  0.3325 -0.0807
 2862SOL    HW118555   1.563   1.126   1.590  0.9706  0.8516  0.5440
 2862SOL    HW218556   1.639   1.105   1.447 -2.4880 -0.2126 -1.1887
 2863SOL     OW18557   3.769   2.007   0.160  0.1324 -0.0543 -0.1523
 2863SOL    HW118558   3.731   2.044   0.076  0.7119  2.0305  0.4869
 2863SOL    HW218559   3.858   2.048   0.178 -0.3145  0.0895  1.8687
 2864SOL     OW18560   2.767   9.477   2.348  0.2610  0.4235 -0.5512
 2864SOL    HW118561   2.848   9.530   2.325  1.2673 -0.7785  0.2124
 2864SOL    HW218562   2.766   9.392   2.296  1.1397 -1.0335  1.7406
 2865SOL     OW18563   1.875   4.938   2.288  0.9416  0.3934  0.0875
 2865SOL    HW118564   1.849   4.924   2.192 -0.5278  0.6156  0.4386
 2865SOL    HW218565   1.960   4.889   2.307  0.9101 -0.1646 -1.1661
 2866SOL     OW18566   0.772   5.926   1.612 -0.2522  0.4614  0.2577
 2866SOL    HW118567   0.696   5.919   1.548 -0.4860  0.5700  0.5259
 2866SOL    HW218568   0.836   5.850   1.597  0.2027  1.0261 -0.7794
 2867SOL     OW18569   2.536   1.577   0.269  0.0826 -0.1001  0.0595
 2867SOL    HW118570   2.556   1.667   0.231  0.5986  0.1959  1.0115
 2867SOL    HW218571   2.441   1.553   0.249 -0.8112  1.7283  1.8504
 2868SOL     OW18572   1.779   5.419   1.620 -0.0887 -0.4333  0.0999
 2868SOL    HW118573   1.719   5.382   1.550 -1.7467  2.6206 -0.1777
 2868SOL    HW218574   1.868   5.441   1.579 -0.0099 -1.5058 -0.3246
 2869SOL     OW18575   3.525   1.804   0.946  0.0899  0.0680  0.2012
 2869SOL    HW118576   3.557   1.885   0.996  0.2800 -0.0198  0.2222
 2869SOL    HW218577   3.568   1.722   0.984  0.2228 -0.0008 -0.0986
 2870SOL     OW18578   2.649   6.139   0.369  0.4659 -0.1313  0.1797
 2870SOL    HW118579   2.708   6.090   0.305  1.2212 -1.4780  1.8633
 2870SOL    HW218580   2.603   6.074   0.430 -2.0989  0.9707 -0.5192
 2871SOL     OW18581   2.113   8.584   0.002  0.3213  0.0006  0.1035
 2871SOL    HW118582   2.109   8.671   0.053 -1.2523 -0.3074  0.5466
 2871SOL    HW218583   2.083   8.600  -0.092 -2.0562 -0.4223  0.7442
 2872SOL     OW18584   2.664   4.149   0.986  0.3047 -0.2469 -0.3134
 2872SOL    HW118585   2.693   4.061   0.948  0.6016  0.6741 -2.3022
 2872SOL    HW218586   2.566   4.160   0.973  0.5909  0.5855 -2.0063
 2873SOL     OW18587   2.955   6.865   1.098  0.0907 -0.4455 -0.1560
 2873SOL    HW118588   2.904   6.884   1.182  0.4847  2.0576 -0.4370
 2873SOL    HW218589   3.038   6.920   1.096  1.0481 -1.9010 -1.3201
 2874SOL     OW18590   0.640   5.166   1.041 -0.1789 -0.5400 -0.0280
 2874SOL    HW118591   0.583   5.156   1.122  0.1709  0.8452  0.4102
 2874SOL    HW218592   0.709   5.238   1.057 -0.8368  0.5574 -1.9361
 2875SOL     OW18593   1.825   1.724   1.902 -0.5033  0.3971  0.2092
 2875SOL    HW118594   1.809   1.694   1.808 -2.3664  0.4806  0.4746
 2875SOL    HW218595   1.874   1.653   1.952 -3.1490 -1.4345  0.2856
 2876SOL     OW18596   3.369   3.105   0.928  0.0232 -0.0064 -0.0916
 2876SOL    HW118597   3.323   3.044   0.864 -1.2198  2.3997 -1.5629
 2876SOL    HW218598   3.327   3.096   1.019 -0.6016 -0.8059 -0.4564
 2877SOL     OW18599   2.825   9.464   1.925  0.5354 -0.4732 -0.1382
 2877SOL    HW118600   2.777   9.406   1.991  0.4260 -1.9537 -1.4842
 2877SOL    HW218601   2.847   9.552   1.967 -0.2622 -1.0875  1.5963
 2878SOL     OW18602   2.290   6.616   1.160 -0.0428 -0.3988 -0.9047
 2878SOL    HW118603   2.364   6.563   1.118  0.6073  0.2447 -0.5908
 2878SOL    HW218604   2.202   6.578   1.132  0.4038 -2.0322 -0.1981
 2879SOL     OW18605  10.524   5.389   0.321 -0.9058 -0.6257  0.4193
 2879SOL    HW118606  10.462   5.353   0.252 -1.1172 -0.1077  0.3368
 2879SOL    HW218607  10.618   5.387   0.286 -1.2326  1.5074 -0.6818
 2880SOL     OW18608   4.472   9.577   2.023 -0.3838  0.4078 -0.3699
 2880SOL    HW118609   4.558   9.605   2.065  0.2434 -0.8254 -0.8142
 2880SOL    HW218610   4.411   9.540   2.093  0.1571 -0.4283 -0.3376
 2881SOL     OW18611   3.740   2.846   0.171 -0.4537 -0.0140 -0.5443
 2881SOL    HW118612   3.838   2.828   0.171 -0.1629  1.4878 -0.7191
 2881SOL    HW218613   3.709   2.865   0.077 -1.0835 -1.3494 -0.6155
 2882SOL     OW18614   3.374   9.732   0.204 -0.0676 -0.3473 -0.2446
 2882SOL    HW118615   3.311   9.692   0.271  0.7599 -0.7887  0.2749
 2882SOL    HW218616   3.405   9.821   0.235 -2.5574  1.1222 -1.7894
 2883SOL     OW18617   5.524   4.489   0.482  0.3915 -0.7016  0.0777
 2883SOL    HW118618   5.617   4.475   0.447  0.0589 -2.2088 -0.2269
 2883SOL    HW218619   5.467   4.529   0.410  0.3279 -1.5477 -0.3490
 2884SOL     OW18620   3.027   4.094   0.890 -0.0391 -0.2761 -0.7388
 2884SOL    HW118621   2.976   4.008   0.895  1.1360 -0.9930 -1.0015
 2884SOL    HW218622   3.031   4.125   0.795  1.3908 -1.0593 -0.9384
 2885SOL     OW18623   3.606  10.333   0.925 -0.0933  0.1820 -0.0213
 2885SOL    HW118624   3.625  10.310   1.021  1.3050  0.4623 -0.2304
 2885SOL    HW218625   3.578  10.429   0.919  0.1379  0.2547  0.0626
 2886SOL     OW18626   3.507   4.174   1.012  0.0915 -0.1391 -0.0571
 2886SOL    HW118627   3.504   4.230   0.930  1.4133  0.2820  0.1676
 2886SOL    HW218628   3.415   4.166   1.051  0.0562  2.9313  0.6118
 2887SOL     OW18629   3.090   5.722   0.854 -0.7233 -0.1382 -0.6550
 2887SOL    HW118630   3.023   5.650   0.836 -1.6506  0.8818 -1.3173
 2887SOL    HW218631   3.077   5.797   0.789  1.2818 -0.0743 -1.0110
 2888SOL     OW18632   3.089   0.450   2.129 -0.3319 -0.0001  0.1646
 2888SOL    HW118633   3.080   0.530   2.069  0.2586  1.0260  1.4371
 2888SOL    HW218634   3.086   0.479   2.224  0.5740 -1.4178  0.6360
 2889SOL     OW18635   4.744   0.891   0.331 -0.8358  0.4709  0.3399
 2889SOL    HW118636   4.781   0.971   0.377 -1.3494  0.1851  1.2578
 2889SOL    HW218637   4.692   0.836   0.396 -0.7858 -0.4230 -0.3651
 2890SOL     OW18638   2.431   4.263   0.233  0.2853 -0.0848  0.6049
 2890SOL    HW118639   2.372   4.251   0.313 -1.1766 -0.2545 -0.4614
 2890SOL    HW218640   2.411   4.350   0.189 -0.1237 -0.7395 -0.5264
 2891SOL     OW18641   1.058   6.501   0.670  0.1402  0.5804 -0.6641
 2891SOL    HW118642   1.089   6.583   0.621  0.8025  1.8649  1.8033
 2891SOL    HW218643   0.966   6.517   0.706 -0.1469 -0.1741 -1.0482
 2892SOL     OW18644   1.787   0.423   1.983 -0.1092  0.5538  0.1182
 2892SOL    HW118645   1.812   0.367   2.062  2.3041  1.5650  0.1022
 2892SOL    HW218646   1.755   0.512   2.014  0.4077  0.7900 -0.0214
 2893SOL     OW18647   2.853   8.814   1.670  0.1141 -0.3035 -0.6726
 2893SOL    HW118648   2.859   8.723   1.711 -1.4899 -1.1891 -2.3113
 2893SOL    HW218649   2.769   8.859   1.701 -0.9802 -0.8800 -2.7090
 2894SOL     OW18650   2.210   1.513   0.009  0.4584 -0.3156  0.2223
 2894SOL    HW118651   2.279   1.441   0.008  0.1792 -0.5880  0.1571
 2894SOL    HW218652   2.169   1.518   0.100  1.7087  0.9617  0.7220
 2895SOL     OW18653   1.317   3.436   0.738  0.0775  0.2296  0.6349
 2895SOL    HW118654   1.324   3.518   0.681  0.8530 -0.0706  0.2962
 2895SOL    HW218655   1.245   3.449   0.805  0.6214  1.4509  0.9984
 2896SOL     OW18656   2.386   8.691   0.634 -0.2683 -0.2714  0.1100
 2896SOL    HW118657   2.344   8.775   0.600 -0.3024 -0.1590  0.4309
 2896SOL    HW218658   2.422   8.707   0.726  1.0435 -0.1742 -0.3990
 2897SOL     OW18659   1.631   3.499   0.184  0.6194  0.0008 -0.4426
 2897SOL    HW118660   1.715   3.504   0.131  0.5296 -0.9220 -0.6683
 2897SOL    HW218661   1.556   3.540   0.131  0.4638 -1.1989 -1.1672
 2898SOL     OW18662   3.842   2.814   2.137 -0.0944 -0.2590  0.9982
 2898SOL    HW118663   3.915   2.824   2.205  0.2797 -0.0537  0.5610
 2898SOL    HW218664   3.784   2.737   2.163  0.2047 -0.3501  1.4084
 2899SOL     OW18665  10.424   4.953   2.397 -0.0218  0.3551 -0.7484
 2899SOL    HW118666  10.473   4.912   2.320  0.0276  0.7654 -0.9348
 2899SOL    HW218667  10.463   4.920   2.483  1.4982  1.7697 -0.8797
 2900SOL     OW18668   3.964   2.421   0.273 -0.0621  0.0443 -0.1469
 2900SOL    HW118669   3.987   2.354   0.202  0.2747  0.1116 -0.1011
 2900SOL    HW218670   4.037   2.489   0.279  0.7880 -0.9930  1.5271
 2901SOL     OW18671   2.813   7.925   2.360  0.1798  0.2252 -0.1226
 2901SOL    HW118672   2.780   7.982   2.284 -0.3689 -0.5289 -0.4614
 2901SOL    HW218673   2.892   7.872   2.329  0.0418  0.0197 -0.1155
 2902SOL     OW18674   3.069   2.300   0.443  0.2136  0.1918  0.0301
 2902SOL    HW118675   3.137   2.287   0.371  0.4359 -2.4481  0.6487
 2902SOL    HW218676   3.076   2.225   0.509 -0.4365  2.2068  2.4560
 2903SOL     OW18677   3.172   4.872   1.082 -0.6921 -0.1955  0.5910
 2903SOL    HW118678   3.082   4.892   1.045 -0.3207  0.0647 -0.1869
 2903SOL    HW218679   3.170   4.880   1.182 -1.8652 -1.5488  0.6944
 2904SOL     OW18680   3.727   8.288   1.017 -0.3720 -0.0612 -0.6404
 2904SOL    HW118681   3.721   8.322   0.923 -0.3498 -0.3256 -0.7364
 2904SOL    HW218682   3.639   8.247   1.043 -0.4544  0.2229 -0.4643
 2905SOL     OW18683   4.411   9.965   1.242  0.0093  0.2333  0.7295
 2905SOL    HW118684   4.425   9.997   1.336  2.2288  1.4207  0.0295
 2905SOL    HW218685   4.451  10.030   1.178 -1.7723 -0.3897 -1.0937
 2906SOL     OW18686   3.364   7.680   1.056 -0.1176  0.0708  0.6043
 2906SOL    HW118687   3.321   7.594   1.085  0.3748  0.4527  2.5586
 2906SOL    HW218688   3.293   7.751   1.050 -0.1859  0.0627  1.2215
 2907SOL     OW18689   1.706   6.495   1.902 -0.0864 -0.6868  0.1043
 2907SOL    HW118690   1.673   6.429   1.969 -2.3780  0.0118 -0.2969
 2907SOL    HW218691   1.703   6.587   1.941 -0.2683 -0.4213 -0.5234
 2908SOL     OW18692   1.700   5.148   2.005  0.1337  0.0231  0.0200
 2908SOL    HW118693   1.624   5.154   2.071 -0.5422 -0.1028 -0.7352
 2908SOL    HW218694   1.674   5.087   1.931  0.9219  0.1187 -0.3371
 2909SOL     OW18695   2.754   6.414   2.203  0.4022 -0.1049 -0.4666
 2909SOL    HW118696   2.719   6.412   2.110  2.7567 -1.1183 -1.3658
 2909SOL    HW218697   2.746   6.323   2.244  2.6798 -0.5496 -0.9711
 2910SOL     OW18698   3.399   6.749   0.525 -0.5052 -0.8239  0.1881
 2910SOL    HW118699   3.305   6.721   0.503 -1.2250  1.4810  0.2243
 2910SOL    HW218700   3.457   6.736   0.444 -1.2529 -0.5040 -0.4054
 2911SOL     OW18701   2.910   6.361   0.853 -0.3402  0.1418  0.1071
 2911SOL    HW118702   2.946   6.282   0.804 -0.0508  0.3119  0.0445
 2911SOL    HW218703   2.909   6.441   0.793  0.1818  0.3914  0.4293
 2912SOL     OW18704   0.685   5.632   2.573 -0.0087 -0.7216 -0.0816
 2912SOL    HW118705   0.752   5.672   2.635 -1.4897 -0.3079  1.2756
 2912SOL    HW218706   0.692   5.678   2.484  2.7223 -1.9280 -0.5354
 2913SOL     OW18707   3.923   8.964   2.283 -0.1605  0.8800 -0.2555
 2913SOL    HW118708   3.854   9.033   2.304 -0.1629  0.4366  1.2723
 2913SOL    HW218709   3.926   8.948   2.185 -1.8618  1.2772 -0.3871
 2914SOL     OW18710   2.124  10.066   1.078 -0.2395 -0.3745  0.8597
 2914SOL    HW118711   2.213  10.100   1.048 -0.5414 -0.9822 -0.7838
 2914SOL    HW218712   2.133   9.970   1.104 -0.3922 -0.4182  0.7511
 2915SOL     OW18713   4.145   2.438   2.635 -0.0807 -0.5127  0.1098
 2915SOL    HW118714   4.173   2.346   2.608  0.4624  0.5557 -3.1487
 2915SOL    HW218715   4.212   2.504   2.602 -0.7287  1.1149  1.9871
 2916SOL     OW18716   1.387   5.967   2.385  0.2580  0.5579  0.9221
 2916SOL    HW118717   1.453   6.004   2.318  1.1594  0.5765  1.8090
 2916SOL    HW218718   1.370   6.036   2.456 -1.1600  0.7622  0.3988
 2917SOL     OW18719   2.003   2.633   1.755  0.0413  0.1838  0.5093
 2917SOL    HW118720   1.948   2.568   1.703  0.2442  0.1206  0.3768
 2917SOL    HW218721   1.942   2.690   1.811 -0.2520  0.8734 -0.5034
 2918SOL     OW18722   2.284   2.957   0.841 -0.2082  0.1178  0.5677
 2918SOL    HW118723   2.357   2.997   0.786 -0.7933 -1.1802 -1.2153
 2918SOL    HW218724   2.195   2.984   0.804 -0.6220 -0.0358  1.4285
 2919SOL     OW18725  10.555   4.134   2.503  0.1206 -0.9145  0.0151
 2919SOL    HW118726  10.528   4.048   2.547 -0.1462 -0.5041  0.6704
 2919SOL    HW218727  10.604   4.191   2.569 -2.5433  0.8131  0.6039
 2920SOL     OW18728  10.464   5.162   1.242  0.3527 -0.3769  0.6496
 2920SOL    HW118729  10.441   5.245   1.293  0.7266 -0.1047  0.3773
 2920SOL    HW218730  10.429   5.082   1.291 -1.4468  0.0475  0.1018
 2921SOL     OW18731   5.512   2.964   0.743  0.7349 -0.3216  0.1346
 2921SOL    HW118732   5.589   2.915   0.701  1.8938  2.1107 -0.7031
 2921SOL    HW218733   5.546   3.046   0.788 -1.5790  1.8319 -1.8977
 2922SOL     OW18734   1.521   7.511   0.011  0.2365 -0.3510 -0.0680
 2922SOL    HW118735   1.447   7.469   0.063 -1.2195  0.7689 -1.2120
 2922SOL    HW218736   1.597   7.531   0.073 -0.6808 -0.8573  1.2461
 2923SOL     OW18737   0.784   5.616   1.231  0.4462  0.0389 -0.0968
 2923SOL    HW118738   0.739   5.641   1.316 -0.4127 -0.7636 -0.3007
 2923SOL    HW218739   0.786   5.695   1.169 -1.6459 -0.1693 -0.4892
 2924SOL     OW18740   4.532   0.528   0.205 -0.3418 -0.3199 -0.2169
 2924SOL    HW118741   4.481   0.500   0.123 -1.0110  1.3258 -0.3811
 2924SOL    HW218742   4.614   0.579   0.178 -0.4734  0.0782  0.1198
 2925SOL     OW18743   2.114   4.696   1.231 -0.2785 -0.0106 -0.1048
 2925SOL    HW118744   2.135   4.631   1.157 -0.7027 -0.3117  0.0405
 2925SOL    HW218745   2.022   4.732   1.218  0.4735  1.6412 -0.9838
 2926SOL     OW18746   2.673   7.390   0.485 -0.2553 -0.0018  0.5817
 2926SOL    HW118747   2.654   7.295   0.458 -0.8114  0.4219 -0.5152
 2926SOL    HW218748   2.713   7.390   0.577  2.4711 -1.5103 -0.5544
 2927SOL     OW18749   4.083   3.902   0.696  0.0888 -0.4982 -0.4498
 2927SOL    HW118750   4.091   3.821   0.638 -0.6555 -2.5414  2.1978
 2927SOL    HW218751   4.009   3.889   0.762  0.9185  1.7455  0.9967
 2928SOL     OW18752   2.889   7.332   2.168 -0.1205 -0.3275 -0.4920
 2928SOL    HW118753   2.824   7.389   2.218 -0.2931 -0.2146 -0.8435
 2928SOL    HW218754   2.892   7.361   2.072 -0.6812 -1.3145 -0.8178
 2929SOL     OW18755   4.311   4.494   1.319  0.5737  0.1646 -0.3120
 2929SOL    HW118756   4.408   4.469   1.317  0.2818 -1.1335  0.8811
 2929SOL    HW218757   4.257   4.421   1.278 -0.2030 -0.7994  2.2965
 2930SOL     OW18758   3.009   1.639   2.629 -0.0967  0.2904  0.5616
 2930SOL    HW118759   2.986   1.615   2.535 -0.4304  1.5261  0.3117
 2930SOL    HW218760   3.042   1.734   2.632 -0.1146  0.2693  1.6900
 2931SOL     OW18761   0.887   4.220   2.590 -0.4161  0.7212  0.8098
 2931SOL    HW118762   0.799   4.268   2.595  0.4062  2.4145 -0.7611
 2931SOL    HW218763   0.870   4.121   2.589 -2.3051  1.0306  0.2749
 2932SOL     OW18764   2.158   9.392   1.638  0.7737  0.1301 -0.6426
 2932SOL    HW118765   2.253   9.373   1.612  0.5779 -2.1872  0.2459
 2932SOL    HW218766   2.149   9.382   1.737 -0.4568  0.2021 -0.7458
 2933SOL     OW18767   2.072   3.267   0.034  0.5438  0.5999  0.0739
 2933SOL    HW118768   2.083   3.361   0.003 -0.3300  0.9643  0.8435
 2933SOL    HW218769   1.986   3.258   0.083  1.1276 -0.3604  0.9436
 2934SOL     OW18770   2.338   2.982   0.412 -0.5351 -0.3664  0.8907
 2934SOL    HW118771   2.241   2.982   0.389 -0.1576 -2.5681 -0.9190
 2934SOL    HW218772   2.391   2.957   0.331  1.4230 -0.7274  2.2559
 2935SOL     OW18773   1.349   2.780   1.206 -0.2815  0.3766  0.0134
 2935SOL    HW118774   1.375   2.708   1.271 -0.7967 -0.0253 -0.2283
 2935SOL    HW218775   1.279   2.746   1.144 -0.6647  1.1480  0.0140
 2936SOL     OW18776   1.421   3.494   1.854 -0.0653 -0.5695  0.6208
 2936SOL    HW118777   1.399   3.403   1.820  1.4231 -0.8811  0.4285
 2936SOL    HW218778   1.511   3.492   1.899 -0.6787  0.4795  1.9404
 2937SOL     OW18779   2.381   0.958   1.715 -0.6492  0.2135 -0.1072
 2937SOL    HW118780   2.471   0.934   1.679 -0.0204  2.2978  0.0022
 2937SOL    HW218781   2.363   0.907   1.798  0.2937 -0.4643 -0.3186
 2938SOL     OW18782   2.066   3.068   0.650  0.0393  0.4792  0.1279
 2938SOL    HW118783   2.073   2.979   0.606 -0.3156  0.4558  0.1105
 2938SOL    HW218784   2.086   3.140   0.584  0.7451  0.3978  0.2500
 2939SOL     OW18785   3.913   4.049   2.059  0.4354 -1.1306 -0.1502
 2939SOL    HW118786   3.982   4.054   1.986  1.5018  2.2970  1.0105
 2939SOL    HW218787   3.952   4.001   2.138  1.1181 -0.2035  0.0856
 2940SOL     OW18788   2.495   3.872   1.102 -0.4971  1.1159 -0.1694
 2940SOL    HW118789   2.583   3.865   1.055 -0.2847  0.8318  0.2673
 2940SOL    HW218790   2.489   3.960   1.149 -0.5163  1.2046 -0.3370
 2941SOL     OW18791   2.762   8.174   0.977  0.0322 -0.4175  0.0623
 2941SOL    HW118792   2.841   8.231   1.002 -0.6128  0.2509  0.5871
 2941SOL    HW218793   2.680   8.210   1.020 -0.7432 -0.5005 -1.3066
 2942SOL     OW18794   2.059   7.926   2.598  0.4830 -0.1811 -0.5023
 2942SOL    HW118795   2.048   8.021   2.570  2.4197 -0.1461 -1.1990
 2942SOL    HW218796   2.145   7.890   2.563  0.7315 -1.5804  1.4442
 2943SOL     OW18797   2.247   7.915   0.568  0.3915  0.1059 -0.8244
 2943SOL    HW118798   2.172   7.854   0.544 -0.1442  0.7778 -0.8456
 2943SOL    HW218799   2.219   8.010   0.556  1.5053  0.3553 -1.6371
 2944SOL     OW18800  10.523   3.438   1.450  0.7682 -0.3865 -0.0703
 2944SOL    HW118801  10.566   3.360   1.406  1.1191 -0.3752  0.2490
 2944SOL    HW218802  10.533   3.431   1.549  1.4716  0.4353 -0.0693
 2945SOL     OW18803   2.870   2.346   1.353 -0.0995 -0.3433 -0.0116
 2945SOL    HW118804   2.915   2.258   1.363 -0.1222 -0.2586  0.8290
 2945SOL    HW218805   2.782   2.333   1.307 -0.3998 -0.8481  0.6954
 2946SOL     OW18806   1.840   9.656   0.317  0.1515  0.8637  0.3161
 2946SOL    HW118807   1.881   9.570   0.348  0.0222  0.5704 -0.3142
 2946SOL    HW218808   1.862   9.671   0.220 -1.1255  0.7457 -0.0076
 2947SOL     OW18809   4.958   0.868   0.568 -0.4483 -0.1758 -0.4613
 2947SOL    HW118810   4.945   0.960   0.531  0.5025  0.2115  0.1220
 2947SOL    HW218811   4.991   0.808   0.496 -2.5972 -0.4545 -1.2231
 2948SOL     OW18812   1.499   5.232   2.161 -0.0458 -0.0092  0.4814
 2948SOL    HW118813   1.412   5.197   2.194 -0.8102  0.5467 -0.9021
 2948SOL    HW218814   1.499   5.332   2.168  0.5228 -0.0130  0.5706
 2949SOL     OW18815   2.380  10.025   2.635 -0.6001  0.9037 -0.7239
 2949SOL    HW118816   2.359  10.120   2.656 -1.8234  0.4596  0.1069
 2949SOL    HW218817   2.310   9.966   2.675  0.6644 -0.4108 -0.4251
 2950SOL     OW18818   3.664   3.067   2.209  0.1687  0.2660  0.1772
 2950SOL    HW118819   3.581   3.096   2.160  0.3713  0.9003  0.2098
 2950SOL    HW218820   3.651   2.974   2.244 -0.5444  0.3780  0.2148
 2951SOL     OW18821   4.924   3.857   1.012 -0.0197 -0.6653  0.5516
 2951SOL    HW118822   4.935   3.796   0.934  1.1558 -2.3168  1.9646
 2951SOL    HW218823   4.985   3.936   1.002 -0.2091 -0.6328 -0.3962
 2952SOL     OW18824   1.744   0.694   2.091 -0.6267  0.1594 -0.0217
 2952SOL    HW118825   1.682   0.691   2.169  0.6390  1.1843  1.0361
 2952SOL    HW218826   1.701   0.745   2.016 -1.4595 -0.0272  0.3245
 2953SOL     OW18827   3.873   8.590   2.250 -0.0983  0.6282 -0.0278
 2953SOL    HW118828   3.878   8.537   2.335 -0.4643  2.1000  0.9338
 2953SOL    HW218829   3.786   8.570   2.203  0.7794 -1.3430 -0.8541
 2954SOL     OW18830   2.954   3.234   1.445 -0.0851 -0.4423 -0.3799
 2954SOL    HW118831   2.858   3.247   1.420 -0.2422 -1.6877 -0.4312
 2954SOL    HW218832   2.978   3.298   1.518 -1.7897 -2.1022  1.7092
 2955SOL     OW18833  10.262   5.974   1.589  0.1863 -0.2231  0.4362
 2955SOL    HW118834  10.329   6.048   1.599 -0.7218  0.6818 -0.1327
 2955SOL    HW218835  10.245   5.932   1.678  2.1523 -1.0366  0.4561
 2956SOL     OW18836   3.504   9.422   0.925 -0.3751 -0.0137 -0.0562
 2956SOL    HW118837   3.452   9.498   0.886 -1.0595 -0.7595 -0.6048
 2956SOL    HW218838   3.558   9.378   0.853  1.8509  1.4123  0.7017
 2957SOL     OW18839   3.114   8.956   2.449 -0.6849  0.0526 -0.1525
 2957SOL    HW118840   3.122   9.029   2.517  1.2900  0.8516 -1.1973
 2957SOL    HW218841   3.136   8.868   2.492 -1.5739  0.2491  0.7364
 2958SOL     OW18842   4.618   0.518   1.734  0.9076 -0.2062  0.2109
 2958SOL    HW118843   4.584   0.484   1.822  0.9792 -0.7076  0.0450
 2958SOL    HW218844   4.572   0.605   1.713  0.0284 -0.6668  0.1846
 2959SOL     OW18845   2.887   2.936   2.528 -0.3013  0.3187 -0.7115
 2959SOL    HW118846   2.921   2.947   2.621 -2.3006  2.4825 -0.1871
 2959SOL    HW218847   2.818   2.864   2.525 -0.6472  0.6337 -0.3824
 2960SOL     OW18848   2.541   2.408   1.643  0.6216  0.1502 -0.6903
 2960SOL    HW118849   2.459   2.366   1.604  0.5663  0.0515 -0.4711
 2960SOL    HW218850   2.540   2.507   1.627  0.2348  0.2140 -0.2926
 2961SOL     OW18851   2.789   6.127   1.361 -0.1232  0.1604  0.0761
 2961SOL    HW118852   2.772   6.224   1.343  2.3112  0.8039  1.1718
 2961SOL    HW218853   2.701   6.078   1.364 -1.5376  2.7166  1.8460
 2962SOL     OW18854   2.759   1.193   0.050 -0.7955  0.0765 -0.4730
 2962SOL    HW118855   2.780   1.283   0.088 -0.3942 -0.7526  1.3131
 2962SOL    HW218856   2.817   1.123   0.093 -2.3623 -1.2922 -0.5210
 2963SOL     OW18857   3.098   4.382   2.136  0.0351 -0.0951  0.2705
 2963SOL    HW118858   3.051   4.337   2.211  1.5761 -3.2856 -0.6177
 2963SOL    HW218859   3.040   4.382   2.054 -0.8300  1.5879  0.8421
 2964SOL     OW18860   2.851   6.643   1.399  0.0464  0.7116  0.1741
 2964SOL    HW118861   2.922   6.698   1.442  0.1734  1.0745 -0.4891
 2964SOL    HW218862   2.806   6.696   1.327  0.9628 -0.4130 -1.2713
 2965SOL     OW18863   5.017   3.114   1.354  0.0076  0.3636  0.3474
 2965SOL    HW118864   4.990   3.161   1.270 -0.3189  0.3480  0.4435
 2965SOL    HW218865   5.117   3.118   1.364 -0.1648  2.8103  1.4056
 2966SOL     OW18866   2.802   1.439   0.143 -0.4564  0.5104  0.4998
 2966SOL    HW118867   2.874   1.503   0.170 -0.6192  0.1752  1.7748
 2966SOL    HW218868   2.716   1.488   0.130 -0.6795  0.5243  1.8776
 2967SOL     OW18869   4.631   4.038   1.990  0.0629 -0.0822  0.0919
 2967SOL    HW118870   4.681   4.018   2.074  1.0546  1.4137 -0.1272
 2967SOL    HW218871   4.583   3.955   1.959 -0.1777 -0.6892  2.0206
 2968SOL     OW18872   1.982   4.819   2.615 -0.0081  0.1717 -0.1319
 2968SOL    HW118873   2.004   4.767   2.533  0.2609 -1.6934  1.0882
 2968SOL    HW218874   1.924   4.763   2.675 -0.5474  1.6628  0.7677
 2969SOL     OW18875   3.635   4.928   0.279  0.0150  0.0407  0.3298
 2969SOL    HW118876   3.570   4.854   0.257 -0.1826  0.3909 -0.2778
 2969SOL    HW218877   3.718   4.889   0.318 -0.4422 -0.4385  0.8351
 2970SOL     OW18878   3.150   6.564   1.543 -0.2458  0.2193  0.2641
 2970SOL    HW118879   3.079   6.495   1.554  0.9610 -0.8445  1.5232
 2970SOL    HW218880   3.180   6.596   1.633 -2.8890  4.6335 -0.2680
 2971SOL     OW18881   2.254   2.258   0.430 -0.1241  0.4854 -0.3999
 2971SOL    HW118882   2.192   2.179   0.439  0.6635 -0.0896  0.0118
 2971SOL    HW218883   2.244   2.317   0.510  0.1393  0.1869 -0.1440
 2972SOL     OW18884   3.570   3.234   2.407 -0.2794 -0.3010 -0.3318
 2972SOL    HW118885   3.522   3.309   2.363 -0.5425 -0.8688 -1.0243
 2972SOL    HW218886   3.609   3.174   2.338  2.0781  0.5436  0.2055
 2973SOL     OW18887   3.405   7.447   1.192 -0.0180  0.7259 -0.1113
 2973SOL    HW118888   3.423   7.363   1.142 -0.1356 -0.1422  1.2784
 2973SOL    HW218889   3.492   7.487   1.223  0.0180  0.9660 -0.5148
 2974SOL     OW18890   4.687   9.182   1.262 -0.1116  0.1165  0.3152
 2974SOL    HW118891   4.695   9.238   1.179 -0.1089  1.0241  0.9150
 2974SOL    HW218892   4.775   9.181   1.309 -0.3954  0.4673  0.8524
 2975SOL     OW18893   2.728   4.614   1.995 -0.2509  0.4371  0.3256
 2975SOL    HW118894   2.814   4.665   2.008 -1.1130  1.4856  2.1139
 2975SOL    HW218895   2.673   4.659   1.925  0.8251 -0.4769 -1.1282
 2976SOL     OW18896   4.520   2.416   2.319 -0.1095  0.0487  0.0664
 2976SOL    HW118897   4.517   2.445   2.224  0.2860  0.3338  0.1405
 2976SOL    HW218898   4.543   2.319   2.324  0.4686  0.1757 -0.1060
 2977SOL     OW18899   3.554   3.898   2.035  0.0116 -0.6954  0.4672
 2977SOL    HW118900   3.508   3.966   2.093 -1.0541 -0.5127 -0.5681
 2977SOL    HW218901   3.603   3.945   1.962 -3.2736 -1.1028 -2.1015
 2978SOL     OW18902   3.524   8.948   1.256 -0.0883 -0.0475  0.0244
 2978SOL    HW118903   3.565   8.864   1.293 -1.0502 -0.3708  0.3826
 2978SOL    HW218904   3.584   8.986   1.186 -1.1120 -2.8501 -2.5152
 2979SOL     OW18905   2.566   8.074   0.769  0.9461 -0.3859 -0.4379
 2979SOL    HW118906   2.612   8.011   0.831  1.2663 -0.4067 -0.6937
 2979SOL    HW218907   2.627   8.096   0.693  0.7285  0.0068 -0.4998
 2980SOL     OW18908   9.912   4.307   1.544  0.1339 -0.1892  0.3941
 2980SOL    HW118909   9.825   4.297   1.592  0.0469 -0.6413  0.1532
 2980SOL    HW218910   9.913   4.393   1.493  0.1963  0.2538  1.1387
 2981SOL     OW18911   3.365  10.234   0.752 -0.0119  0.0314 -0.1588
 2981SOL    HW118912   3.450  10.242   0.804  1.3730 -2.3851 -1.9117
 2981SOL    HW218913   3.309  10.160   0.790  0.2499 -0.6450 -1.0616
 2982SOL     OW18914   1.702   7.340   0.344  0.0892  0.4444 -0.0337
 2982SOL    HW118915   1.743   7.289   0.269  0.3865 -0.4373  0.7284
 2982SOL    HW218916   1.718   7.438   0.330 -0.4404  0.3316 -1.4660
 2983SOL     OW18917   3.963   3.653   1.438  0.2451 -0.0538 -0.2679
 2983SOL    HW118918   4.021   3.638   1.519  1.2298  0.8323 -0.8044
 2983SOL    HW218919   3.925   3.565   1.409  3.5266 -1.1536 -1.5424
 2984SOL     OW18920   2.658   1.339   1.006  0.2491  0.0319  0.4040
 2984SOL    HW118921   2.661   1.253   1.057  0.7099 -0.1970 -0.0033
 2984SOL    HW218922   2.580   1.339   0.944  0.2242 -0.0744  0.4363
 2985SOL     OW18923   4.623   8.546   0.409  0.0345  0.5255 -0.1494
 2985SOL    HW118924   4.594   8.585   0.496 -1.5774 -1.2776  0.1712
 2985SOL    HW218925   4.664   8.456   0.424  0.0192  0.3316 -1.2054
 2986SOL     OW18926   1.950   7.124   0.613 -0.2329 -0.2350 -0.3359
 2986SOL    HW118927   1.965   7.170   0.526 -1.0350 -2.1160 -1.4931
 2986SOL    HW218928   1.995   7.176   0.686  0.8657  1.0961 -1.9156
 2987SOL     OW18929   1.107   3.360   2.013  0.4294  0.3105 -0.0908
 2987SOL    HW118930   1.140   3.384   2.105  0.3762 -0.5628  0.1678
 2987SOL    HW218931   1.183   3.326   1.958  0.1409 -0.8207  0.2013
  10.00000  10.00000   2.83200
