chitosan Film  in water:acetic acid 2%
10386
    1CHTO  H203    1   3.956   6.141   0.717
    1CHTO   O82    2   4.006   6.066   0.692
    1CHTO  C123    3   4.120   6.053   0.780
    1CHTO  H227    4   4.084   6.043   0.884
    1CHTO   O77    5   4.179   5.927   0.737
    1CHTO  C118    6   4.293   5.884   0.814
    1CHTO  H222    7   4.265   5.878   0.920
    1CHTO  C125    8   4.330   5.740   0.763
    1CHTO   O84    9   4.366   5.738   0.624
    1CHTO  H205   10   4.446   5.785   0.610
    1CHTO  C114   11   4.408   5.987   0.798
    1CHTO  H218   12   4.436   5.992   0.693
    1CHTO  C116   13   4.358   6.129   0.841
    1CHTO  H220   14   4.341   6.129   0.951
    1CHTO   O79   15   4.464   6.224   0.817
    1CHTO  H201   16   4.536   6.208   0.874
    1CHTO  C120   17   4.225   6.168   0.765
    1CHTO  H224   18   4.252   6.181   0.658
    1CHTO   N21   19   4.170   6.298   0.813
    1CHTO  H211   20   4.212   6.380   0.756
    1CHTO  H212   21   4.188   6.311   0.918
    1CHTO   O75   22   4.518   5.940   0.879
    1CHTO  C112   23   4.641   5.862   0.795
    1CHTO  H216   24   4.612   5.853   0.689
    1CHTO   O73   25   4.659   5.733   0.856
    1CHTO  C113   26   4.745   5.646   0.782
    1CHTO  H217   27   4.704   5.633   0.679
    1CHTO  C124   28   4.738   5.509   0.852
    1CHTO   O83   29   4.798   5.403   0.777
    1CHTO  H204   30   4.891   5.416   0.773
    1CHTO  C109   31   4.889   5.705   0.775
    1CHTO  H213   32   4.931   5.698   0.877
    1CHTO  C110   33   4.887   5.854   0.728
    1CHTO  H214   34   4.866   5.855   0.621
    1CHTO   O78   35   5.018   5.910   0.746
    1CHTO  H200   36   5.022   5.997   0.711
    1CHTO  C111   37   4.778   5.937   0.803
    1CHTO  H215   38   4.807   5.944   0.910
    1CHTO   N19   39   4.766   6.077   0.754
    1CHTO  H207   40   4.741   6.077   0.648
    1CHTO  H208   41   4.858   6.130   0.769
    1CHTO   O74   42   4.971   5.623   0.685
    1CHTO  C115   43   5.125   5.611   0.725
    1CHTO  H219   44   5.165   5.706   0.761
    1CHTO   O76   45   5.147   5.510   0.846
    1CHTO  C122   46   5.142   5.373   0.802
    1CHTO  H226   47   5.046   5.357   0.754
    1CHTO  C126   48   5.145   5.277   0.926
    1CHTO   O85   49   5.026   5.286   1.005
    1CHTO  H206   50   5.022   5.370   1.047
    1CHTO  C121   51   5.259   5.339   0.702
    1CHTO  H225   52   5.340   5.288   0.758
    1CHTO   O81   53   5.208   5.250   0.602
    1CHTO  H202   54   5.185   5.168   0.640
    1CHTO  C119   55   5.319   5.466   0.633
    1CHTO  H223   56   5.381   5.514   0.709
    1CHTO  C117   57   5.205   5.568   0.595
    1CHTO  H221   58   5.129   5.528   0.527
    1CHTO   N20   59   5.259   5.690   0.525
    1CHTO  H209   60   5.367   5.687   0.520
    1CHTO  H210   61   5.217   5.698   0.426
    1CHTO   O80   62   5.429   5.431   0.518
    1CHTO  C103   63   5.564   5.356   0.557
    1CHTO  H190   64   5.589   5.373   0.662
    1CHTO  C101   65   5.568   5.201   0.528
    1CHTO  H188   66   5.533   5.183   0.426
    1CHTO   O68   67   5.474   5.128   0.626
    1CHTO  H168   68   5.470   5.036   0.604
    1CHTO   C99   69   5.718   5.144   0.540
    1CHTO  H186   70   5.752   5.155   0.645
    1CHTO   N17   71   5.728   4.998   0.506
    1CHTO  H174   72   5.758   4.941   0.593
    1CHTO  H175   73   5.796   4.981   0.424
    1CHTO   C97   74   5.815   5.231   0.455
    1CHTO  H184   75   5.792   5.216   0.348
    1CHTO   O64   76   5.804   5.370   0.493
    1CHTO  C104   77   5.675   5.428   0.471
    1CHTO  H191   78   5.648   5.421   0.365
    1CHTO  C108   79   5.682   5.579   0.501
    1CHTO   O71   80   5.721   5.605   0.637
    1CHTO  H171   81   5.725   5.698   0.650
    1CHTO   O62   82   5.953   5.200   0.483
    1CHTO   C91   83   6.048   5.200   0.374
    1CHTO  H178   84   6.007   5.261   0.293
    1CHTO   C92   85   6.061   5.053   0.320
    1CHTO  H179   86   6.060   4.985   0.407
    1CHTO   O66   87   5.941   5.022   0.247
    1CHTO  H166   88   5.933   5.078   0.172
    1CHTO   C93   89   6.189   5.027   0.232
    1CHTO  H180   90   6.175   5.080   0.137
    1CHTO   N16   91   6.207   4.883   0.197
    1CHTO  H172   92   6.301   4.845   0.235
    1CHTO  H173   93   6.202   4.870   0.090
    1CHTO   C94   94   6.313   5.087   0.306
    1CHTO  H181   95   6.323   5.045   0.406
    1CHTO   O61   96   6.292   5.228   0.320
    1CHTO   C95   97   6.189   5.261   0.414
    1CHTO  H182   98   6.218   5.224   0.513
    1CHTO  C106   99   6.184   5.418   0.424
    1CHTO   O69  100   6.095   5.462   0.527
    1CHTO  H169  101   6.095   5.555   0.531
    1CHTO   O63  102   6.451   5.065   0.221
    1CHTO   C96  103   6.590   5.117   0.289
    1CHTO  H183  104   6.588   5.226   0.289
    1CHTO   C98  105   6.716   5.069   0.209
    1CHTO  H185  106   6.703   5.095   0.103
    1CHTO   O67  107   6.832   5.141   0.252
    1CHTO  H167  108   6.824   5.232   0.232
    1CHTO  C102  109   6.745   4.912   0.226
    1CHTO  H189  110   6.849   4.898   0.194
    1CHTO   N18  111   6.665   4.824   0.138
    1CHTO  H176  112   6.693   4.721   0.153
    1CHTO  H177  113   6.559   4.837   0.158
    1CHTO  C105  114   6.735   4.870   0.376
    1CHTO  H192  115   6.722   4.761   0.382
    1CHTO   O65  116   6.623   4.926   0.447
    1CHTO  C100  117   6.597   5.068   0.440
    1CHTO  H187  118   6.499   5.084   0.487
    1CHTO  C107  119   6.695   5.151   0.526
    1CHTO   O70  120   6.694   5.107   0.662
    1CHTO  H170  121   6.613   5.131   0.703
    1CHTO   O57  122   6.876   4.909   0.444
    1CHTO   C85  123   6.998   4.833   0.435
    1CHTO  H157  124   7.043   4.862   0.337
    1CHTO   C83  125   6.973   4.678   0.426
    1CHTO  H155  126   6.914   4.658   0.337
    1CHTO   O56  127   6.892   4.636   0.538
    1CHTO  H135  128   6.939   4.647   0.619
    1CHTO   C81  129   7.110   4.605   0.413
    1CHTO  H153  130   7.161   4.645   0.326
    1CHTO   N14  131   7.097   4.460   0.385
    1CHTO  H141  132   7.036   4.445   0.297
    1CHTO  H142  133   7.193   4.417   0.368
    1CHTO   C79  134   7.198   4.635   0.540
    1CHTO  H151  135   7.296   4.590   0.522
    1CHTO   O52  136   7.219   4.779   0.552
    1CHTO   C86  137   7.097   4.860   0.556
    1CHTO  H158  138   7.050   4.833   0.653
    1CHTO   C90  139   7.138   5.008   0.567
    1CHTO   O60  140   7.028   5.092   0.605
    1CHTO  H138  141   7.057   5.181   0.610
    1CHTO   O50  142   7.145   4.583   0.663
    1CHTO   C73  143   7.174   4.480   0.759
    1CHTO  H145  144   7.226   4.396   0.710
    1CHTO   C74  145   7.041   4.427   0.822
    1CHTO  H146  146   6.979   4.389   0.739
    1CHTO   O54  147   7.073   4.314   0.905
    1CHTO  H133  148   6.994   4.277   0.940
    1CHTO   C75  149   6.970   4.545   0.899
    1CHTO  H147  150   6.946   4.625   0.827
    1CHTO   N13  151   6.841   4.506   0.961
    1CHTO  H139  152   6.760   4.566   0.922
    1CHTO  H140  153   6.844   4.517   1.069
    1CHTO   C76  154   7.073   4.609   1.005
    1CHTO  H148  155   7.092   4.533   1.081
    1CHTO   O49  156   7.199   4.644   0.941
    1CHTO   C77  157   7.265   4.537   0.872
    1CHTO  H149  158   7.288   4.457   0.943
    1CHTO   C88  159   7.400   4.589   0.822
    1CHTO   O58  160   7.478   4.481   0.757
    1CHTO  H136  161   7.559   4.516   0.727
    1CHTO   O51  162   7.012   4.747   1.072
    1CHTO   C78  163   7.036   4.883   0.986
    1CHTO  H150  164   7.064   4.860   0.881
    1CHTO   C80  165   7.148   4.967   1.050
    1CHTO  H152  166   7.124   4.983   1.158
    1CHTO   O55  167   7.270   4.891   1.042
    1CHTO  H134  168   7.339   4.935   1.090
    1CHTO   C84  169   7.162   5.109   0.982
    1CHTO  H156  170   7.189   5.094   0.877
    1CHTO   N15  171   7.270   5.193   1.044
    1CHTO  H143  172   7.248   5.212   1.147
    1CHTO  H144  173   7.278   5.287   0.992
    1CHTO   C87  174   7.024   5.178   0.989
    1CHTO  H159  175   6.996   5.188   1.094
    1CHTO   O53  176   6.922   5.088   0.916
    1CHTO   C82  177   6.904   4.963   0.983
    1CHTO  H154  178   6.868   4.980   1.085
    1CHTO   C89  179   6.793   4.883   0.910
    1CHTO   O59  180   6.665   4.946   0.924
    1CHTO  H137  181   6.635   4.936   1.012
    1CHTO   O45  182   7.026   5.329   0.916
    1CHTO   C67  183   6.914   5.417   0.939
    1CHTO  H124  184   6.948   5.517   0.913
    1CHTO   C65  185   6.793   5.379   0.847
    1CHTO  H122  186   6.806   5.275   0.819
    1CHTO   O44  187   6.806   5.459   0.727
    1CHTO  H102  188   6.785   5.548   0.745
    1CHTO   C63  189   6.654   5.383   0.921
    1CHTO  H120  190   6.648   5.297   0.989
    1CHTO   N11  191   6.532   5.361   0.836
    1CHTO  H108  192   6.460   5.438   0.853
    1CHTO  H109  193   6.559   5.360   0.732
    1CHTO   C61  194   6.649   5.511   1.012
    1CHTO  H118  195   6.555   5.507   1.069
    1CHTO   O40  196   6.757   5.517   1.110
    1CHTO   C68  197   6.870   5.426   1.092
    1CHTO  H125  198   6.839   5.327   1.131
    1CHTO   C72  199   6.986   5.476   1.181
    1CHTO   O48  200   6.953   5.476   1.320
    1CHTO  H105  201   7.026   5.506   1.370
    1CHTO   O38  202   6.656   5.632   0.934
    1CHTO   C55  203   6.588   5.747   0.986
    1CHTO  H112  204   6.581   5.740   1.096
    1CHTO   C56  205   6.445   5.756   0.919
    1CHTO  H113  206   6.459   5.736   0.811
    1CHTO   O42  207   6.362   5.650   0.969
    1CHTO  H100  208   6.279   5.649   0.924
    1CHTO   C57  209   6.377   5.898   0.939
    1CHTO  H114  210   6.347   5.905   1.044
    1CHTO   N10  211   6.256   5.916   0.856
    1CHTO  H106  212   6.206   5.821   0.840
    1CHTO  H107  213   6.187   5.984   0.904
    1CHTO   C58  214   6.481   6.008   0.909
    1CHTO  H115  215   6.512   6.001   0.802
    1CHTO   O37  216   6.596   5.990   0.993
    1CHTO   C59  217   6.673   5.874   0.957
    1CHTO  H116  218   6.701   5.879   0.852
    1CHTO   C70  219   6.801   5.879   1.042
    1CHTO   O46  220   6.896   5.778   1.006
    1CHTO  H103  221   6.866   5.694   1.033
    1CHTO   O39  222   6.424   6.159   0.940
    1CHTO   C60  223   6.516   6.262   0.899
    1CHTO  H117  224   6.617   6.233   0.927
    1CHTO   C62  225   6.514   6.285   0.745
    1CHTO  H119  226   6.543   6.189   0.698
    1CHTO   O43  227   6.381   6.318   0.702
    1CHTO  H101  228   6.378   6.328   0.609
    1CHTO   C66  229   6.624   6.396   0.707
    1CHTO  H123  230   6.721   6.364   0.744
    1CHTO   N12  231   6.640   6.412   0.560
    1CHTO  H110  232   6.742   6.392   0.530
    1CHTO  H111  233   6.608   6.510   0.527
    1CHTO   C69  234   6.589   6.529   0.780
    1CHTO  H126  235   6.490   6.566   0.746
    1CHTO   O41  236   6.585   6.501   0.935
    1CHTO   C64  237   6.485   6.394   0.975
    1CHTO  H121  238   6.383   6.428   0.949
    1CHTO   C71  239   6.492   6.373   1.128
    1CHTO   O47  240   6.453   6.492   1.198
    1CHTO  H104  241   6.457   6.476   1.290
    1CHTO   O34  242   6.695   6.641   0.751
    1CHTO   C49  243   6.792   6.735   0.819
    1CHTO   H91  244   6.797   6.822   0.753
    1CHTO   C47  245   6.933   6.672   0.827
    1CHTO   H89  246   6.972   6.675   0.722
    1CHTO   O33  247   6.927   6.535   0.870
    1CHTO   H70  248   6.880   6.483   0.807
    1CHTO   C45  249   7.030   6.753   0.929
    1CHTO   H87  250   7.030   6.698   1.024
    1CHTO    N8  251   7.169   6.756   0.879
    1CHTO   H75  252   7.204   6.655   0.858
    1CHTO   H76  253   7.175   6.815   0.789
    1CHTO   C43  254   6.970   6.896   0.969
    1CHTO   H85  255   7.039   6.940   1.040
    1CHTO   O29  256   6.838   6.878   1.025
    1CHTO   C50  257   6.750   6.784   0.961
    1CHTO   H92  258   6.742   6.695   1.025
    1CHTO   C54  259   6.607   6.842   0.960
    1CHTO   O36  260   6.555   6.852   1.093
    1CHTO   H72  261   6.470   6.892   1.091
    1CHTO   O27  262   6.964   6.987   0.857
    1CHTO   C37  263   6.999   7.121   0.820
    1CHTO   H79  264   6.955   7.193   0.891
    1CHTO   C38  265   7.154   7.141   0.825
    1CHTO   H80  266   7.201   7.054   0.775
    1CHTO   O31  267   7.193   7.140   0.964
    1CHTO   H68  268   7.287   7.141   0.971
    1CHTO   C39  269   7.202   7.273   0.753
    1CHTO   H81  270   7.165   7.357   0.813
    1CHTO    N7  271   7.351   7.287   0.743
    1CHTO   H73  272   7.384   7.376   0.795
    1CHTO   H74  273   7.401   7.200   0.783
    1CHTO   C40  274   7.134   7.284   0.611
    1CHTO   H82  275   7.170   7.202   0.548
    1CHTO   O26  276   6.992   7.279   0.629
    1CHTO   C41  277   6.942   7.152   0.678
    1CHTO   H83  278   6.971   7.071   0.608
    1CHTO   C52  279   6.788   7.165   0.676
    1CHTO   O35  280   6.719   7.045   0.700
    1CHTO   H71  281   6.734   7.017   0.789
    1CHTO   O28  282   7.155   7.409   0.543
    1CHTO   C42  283   7.155   7.412   0.396
    1CHTO   H84  284   7.123   7.312   0.365
    1CHTO   C44  285   7.294   7.436   0.329
    1CHTO   H86  286   7.328   7.536   0.357
    1CHTO   O32  287   7.385   7.339   0.384
    1CHTO   H69  288   7.403   7.358   0.474
    1CHTO   C48  289   7.287   7.427   0.171
    1CHTO   H90  290   7.269   7.322   0.146
    1CHTO    N9  291   7.419   7.462   0.107
    1CHTO   H77  292   7.495   7.393   0.140
    1CHTO   H78  293   7.446   7.563   0.131
    1CHTO   C51  294   7.168   7.511   0.111
    1CHTO   H93  295   7.194   7.617   0.117
    1CHTO   O30  296   7.046   7.483   0.182
    1CHTO   C46  297   7.054   7.512   0.333
    1CHTO   H88  298   7.091   7.614   0.348
    1CHTO   C53  299   6.911   7.501   0.393
    1CHTO   O72  300   6.853   7.372   0.372
    1CHTO  H199  301   6.896   7.308   0.425
    1CHTO   O22  302   7.147   7.473   2.855
    1CHTO   C31  303   7.028   7.498   2.772
    1CHTO   H59  304   6.950   7.539   2.841
    1CHTO   C29  305   7.050   7.603   2.661
    1CHTO   H57  306   7.135   7.568   2.601
    1CHTO   O21  307   7.091   7.727   2.722
    1CHTO   H37  308   7.021   7.764   2.772
    1CHTO   C27  309   6.924   7.622   2.566
    1CHTO   H55  310   6.845   7.674   2.623
    1CHTO    N5  311   6.955   7.702   2.445
    1CHTO   H43  312   6.865   7.720   2.388
    1CHTO   H44  313   7.029   7.652   2.385
    1CHTO   C25  314   6.864   7.482   2.526
    1CHTO   H53  315   6.933   7.431   2.456
    1CHTO   O17  316   6.847   7.397   2.643
    1CHTO   C32  317   6.969   7.367   2.711
    1CHTO   H60  318   7.041   7.325   2.642
    1CHTO   C36  319   6.934   7.261   2.818
    1CHTO   O25  320   7.052   7.207   2.878
    1CHTO   H40  321   7.028   7.144   0.061
    1CHTO   O15  322   6.722   7.497   2.456
    1CHTO   C19  323   6.629   7.412   2.383
    1CHTO   H47  324   6.539   7.474   2.372
    1CHTO   C20  325   6.678   7.369   2.241
    1CHTO   H48  326   6.772   7.310   2.247
    1CHTO   O19  327   6.706   7.491   2.170
    1CHTO   H35  328   6.747   7.471   2.087
    1CHTO   C21  329   6.569   7.282   2.166
    1CHTO   H49  330   6.482   7.345   2.147
    1CHTO    N4  331   6.615   7.232   2.033
    1CHTO   H41  332   6.537   7.175   1.986
    1CHTO   H42  333   6.641   7.315   1.969
    1CHTO   C22  334   6.522   7.167   2.258
    1CHTO   H50  335   6.603   7.094   2.268
    1CHTO   O14  336   6.483   7.215   2.388
    1CHTO   C23  337   6.585   7.284   2.461
    1CHTO   H51  338   6.669   7.214   2.476
    1CHTO   C34  339   6.527   7.318   2.600
    1CHTO   O23  340   6.511   7.201   2.680
    1CHTO   H38  341   6.440   7.150   2.648
    1CHTO   O16  342   6.400   7.106   2.211
    1CHTO   C24  343   6.402   6.947   2.181
    1CHTO   H52  344   6.497   6.914   2.138
    1CHTO   C26  345   6.287   6.919   2.082
    1CHTO   H54  346   6.197   6.977   2.116
    1CHTO   O20  347   6.325   6.971   1.953
    1CHTO   H36  348   6.328   7.065   1.956
    1CHTO   C30  349   6.245   6.769   2.072
    1CHTO   H58  350   6.323   6.712   2.018
    1CHTO    N6  351   6.120   6.749   1.993
    1CHTO   H45  352   6.079   6.844   1.959
    1CHTO   H46  353   6.138   6.686   1.908
    1CHTO   C33  354   6.235   6.707   2.214
    1CHTO   H61  355   6.157   6.759   2.271
    1CHTO   O18  356   6.361   6.730   2.279
    1CHTO   C28  357   6.383   6.867   2.313
    1CHTO   H56  358   6.297   6.907   2.367
    1CHTO   C35  359   6.506   6.871   2.406
    1CHTO   O24  360   6.483   6.806   2.532
    1CHTO   H39  361   6.476   6.713   2.520
    1CHTO    O9  362   6.199   6.567   2.218
    1CHTO   C13  363   6.145   6.520   2.368
    1CHTO   H26  364   6.062   6.588   2.397
    1CHTO   C11  365   6.264   6.524   2.473
    1CHTO   H24  366   6.292   6.629   2.489
    1CHTO    O8  367   6.380   6.456   2.421
    1CHTO    H3  368   6.362   6.364   2.411
    1CHTO    C9  369   6.213   6.469   2.609
    1CHTO   H22  370   6.128   6.533   2.636
    1CHTO    N2  371   6.310   6.487   2.720
    1CHTO   H10  372   6.339   6.591   2.728
    1CHTO   H11  373   6.266   6.453   2.813
    1CHTO    C7  374   6.162   6.322   2.590
    1CHTO   H20  375   6.118   6.296   2.688
    1CHTO    O4  376   6.059   6.315   2.489
    1CHTO   C14  377   6.080   6.375   2.360
    1CHTO   H27  378   5.979   6.388   2.315
    1CHTO   C18  379   6.159   6.279   2.267
    1CHTO   O13  380   6.086   6.158   2.242
    1CHTO    H7  381   6.009   6.177   2.192
    1CHTO    O2  382   6.282   6.212   2.554
    1CHTO    C1  383   6.295   6.106   2.651
    1CHTO   H14  384   6.242   6.133   2.745
    1CHTO    C2  385   6.446   6.073   2.684
    1CHTO   H15  386   6.495   6.051   2.588
    1CHTO    O6  387   6.505   6.189   2.745
    1CHTO    H1  388   6.597   6.175   2.759
    1CHTO    C3  389   6.456   5.945   2.782
    1CHTO   H16  390   6.414   5.973   2.879
    1CHTO    N1  391   6.598   5.901   2.805
    1CHTO    H8  392   6.645   5.876   2.711
    1CHTO    H9  393   6.653   5.981   2.853
    1CHTO    C4  394   6.365   5.827   2.730
    1CHTO   H17  395   6.411   5.783   2.641
    1CHTO    O1  396   6.233   5.874   2.700
    1CHTO    C5  397   6.226   5.975   2.598
    1CHTO   H18  398   6.280   5.942   2.509
    1CHTO   C16  399   6.077   5.994   2.563
    1CHTO   O11  400   6.020   5.875   2.507
    1CHTO    H5  401   6.013   5.809   2.573
    1CHTO    O3  402   6.347   5.725   2.831
    1CHTO    C6  403   6.282   5.601   2.786
    1CHTO   H19  404   6.233   5.612   2.689
    1CHTO    C8  405   6.387   5.486   2.774
    1CHTO   H21  406   6.440   5.478   2.869
    1CHTO    O7  407   6.480   5.523   2.670
    1CHTO    H2  408   6.551   5.462   2.668
    1CHTO   C12  409   6.316   5.348   2.745
    1CHTO   H25  410   6.274   5.355   2.642
    1CHTO    N3  411   6.415   5.234   2.744
    1CHTO   H12  412   6.364   5.141   2.723
    1CHTO   H13  413   6.491   5.253   2.670
    1CHTO   C15  414   6.198   5.325   2.846
    1CHTO   H28  415   6.234   5.305   0.065
    1CHTO   O10  416   6.103   5.212   2.802
    1CHTO    H4  417   6.149   5.130   2.801
    1CHTO    O5  418   6.109   5.438   2.847
    1CHTO   C10  419   6.172   5.561   0.006
    1CHTO   H23  420   6.216   5.547   0.105
    1CHTO   C17  421   6.062   5.668   0.018
    1CHTO   O12  422   5.971   5.637   0.124
    1CHTO    H6  423   5.907   5.705   0.131
    2CHTO  H203  424   3.783   3.955   1.651
    2CHTO   O82  425   3.828   3.988   1.575
    2CHTO  C123  426   3.811   4.131   1.566
    2CHTO  H227  427   3.855   4.177   1.656
    2CHTO   O77  428   3.890   4.166   1.448
    2CHTO  C118  429   3.896   4.306   1.419
    2CHTO  H222  430   3.936   4.361   1.505
    2CHTO  C125  431   3.990   4.329   1.295
    2CHTO   O84  432   4.126   4.293   1.325
    2CHTO  H205  433   4.133   4.201   1.336
    2CHTO  C114  434   3.754   4.356   1.388
    2CHTO  H218  435   3.715   4.300   1.303
    2CHTO  C116  436   3.658   4.328   1.508
    2CHTO  H220  437   3.689   4.390   1.595
    2CHTO   O79  438   3.525   4.371   1.474
    2CHTO  H201  439   3.522   4.464   1.465
    2CHTO  C120  440   3.661   4.175   1.548
    2CHTO  H224  441   3.616   4.119   1.463
    2CHTO   N21  442   3.579   4.147   1.669
    2CHTO  H211  443   3.477   4.126   1.639
    2CHTO  H212  444   3.620   4.064   1.724
    2CHTO   O75  445   3.769   4.495   1.354
    2CHTO  C112  446   3.656   4.549   1.251
    2CHTO  H216  447   3.557   4.531   1.295
    2CHTO   O73  448   3.672   4.478   1.126
    2CHTO  C113  449   3.564   4.501   1.034
    2CHTO  H217  450   3.469   4.467   1.081
    2CHTO  C124  451   3.587   4.416   0.909
    2CHTO   O83  452   3.587   4.276   0.938
    2CHTO  H204  453   3.604   4.227   0.859
    2CHTO  C109  454   3.553   4.652   0.998
    2CHTO  H213  455   3.645   4.678   0.942
    2CHTO  C110  456   3.546   4.738   1.128
    2CHTO  H214  457   3.452   4.716   1.180
    2CHTO   O78  458   3.541   4.877   1.091
    2CHTO  H200  459   3.529   4.931   1.167
    2CHTO  C111  460   3.667   4.703   1.220
    2CHTO  H215  461   3.760   4.720   1.164
    2CHTO   N19  462   3.676   4.783   1.344
    2CHTO  H207  463   3.588   4.768   1.405
    2CHTO  H208  464   3.765   4.754   1.400
    2CHTO   O74  465   3.437   4.675   0.913
    2CHTO  C115  466   3.468   4.769   0.791
    2CHTO  H219  467   3.556   4.832   0.810
    2CHTO   O76  468   3.506   4.686   0.663
    2CHTO  C122  469   3.399   4.602   0.618
    2CHTO  H226  470   3.383   4.526   0.695
    2CHTO  C126  471   3.445   4.525   0.490
    2CHTO   O85  472   3.556   4.437   0.515
    2CHTO  H206  473   3.528   4.367   0.570
    2CHTO  C121  474   3.265   4.683   0.592
    2CHTO  H225  475   3.236   4.671   0.485
    2CHTO   O81  476   3.159   4.627   0.672
    2CHTO  H202  477   3.077   4.663   0.645
    2CHTO  C119  478   3.282   4.835   0.621
    2CHTO  H223  479   3.357   4.870   0.550
    2CHTO  C117  480   3.341   4.860   0.766
    2CHTO  H221  481   3.272   4.836   0.846
    2CHTO   N20  482   3.373   5.005   0.787
    2CHTO  H209  483   3.449   5.037   0.716
    2CHTO  H210  484   3.284   5.065   0.775
    2CHTO   O80  485   3.155   4.919   0.579
    2CHTO  C103  486   3.170   5.034   0.475
    2CHTO  H190  487   3.254   5.099   0.501
    2CHTO  C101  488   3.184   4.992   0.324
    2CHTO  H188  489   3.099   4.929   0.297
    2CHTO   O68  490   3.313   4.909   0.305
    2CHTO  H168  491   3.388   4.962   0.325
    2CHTO   C99  492   3.182   5.122   0.230
    2CHTO  H186  493   3.270   5.186   0.255
    2CHTO   N17  494   3.191   5.093   0.083
    2CHTO  H174  495   3.198   5.185   0.028
    2CHTO  H175  496   3.276   5.029   0.063
    2CHTO   C97  497   3.057   5.209   0.263
    2CHTO  H184  498   2.967   5.157   0.226
    2CHTO   O64  499   3.048   5.237   0.404
    2CHTO  C104  500   3.040   5.121   0.489
    2CHTO  H191  501   2.953   5.060   0.464
    2CHTO  C108  502   3.019   5.166   0.634
    2CHTO   O71  503   2.894   5.234   0.651
    2CHTO  H171  504   2.823   5.173   0.643
    2CHTO   O62  505   3.068   5.342   0.210
    2CHTO   C91  506   2.969   5.388   0.116
    2CHTO  H178  507   2.943   5.306   0.049
    2CHTO   C92  508   3.040   5.497   0.028
    2CHTO  H179  509   3.088   5.570   0.095
    2CHTO   O66  510   3.147   5.433   2.838
    2CHTO  H166  511   3.214   5.405   0.015
    2CHTO   C93  512   2.942   5.572   2.811
    2CHTO  H180  513   2.909   5.498   2.736
    2CHTO   N16  514   3.005   5.683   2.735
    2CHTO  H172  515   3.109   5.694   2.762
    2CHTO  H173  516   2.995   5.666   2.629
    2CHTO   C94  517   2.817   5.623   0.009
    2CHTO  H181  518   2.845   5.696   0.085
    2CHTO   O61  519   2.756   5.512   0.076
    2CHTO   C95  520   2.836   5.450   0.177
    2CHTO  H182  521   2.862   5.524   0.253
    2CHTO  C106  522   2.747   5.342   0.248
    2CHTO   O69  523   2.635   5.401   0.315
    2CHTO  H169  524   2.664   5.450   0.390
    2CHTO   O63  525   2.701   5.681   2.792
    2CHTO   C96  526   2.641   5.826   2.831
    2CHTO  H183  527   2.550   5.838   2.773
    2CHTO   C98  528   2.735   5.945   2.797
    2CHTO  H185  529   2.834   5.930   2.843
    2CHTO   O67  530   2.757   5.943   2.655
    2CHTO  H167  531   2.808   5.868   2.631
    2CHTO  C102  532   2.672   6.085   2.845
    2CHTO  H189  533   2.577   6.096   2.789
    2CHTO   N18  534   2.751   6.207   2.813
    2CHTO  H176  535   2.842   6.180   2.760
    2CHTO  H177  536   2.693   6.275   2.753
    2CHTO  C105  537   2.638   6.072   0.114
    2CHTO  H192  538   2.730   6.053   0.169
    2CHTO   O65  539   2.548   5.962   0.136
    2CHTO  C100  540   2.599   5.832   0.102
    2CHTO  H187  541   2.687   5.813   0.165
    2CHTO  C107  542   2.492   5.726   0.135
    2CHTO   O70  543   2.467   5.720   0.276
    2CHTO  H170  544   2.400   5.657   0.293
    2CHTO   O57  545   2.564   6.214   0.168
    2CHTO   C85  546   2.589   6.266   0.300
    2CHTO  H157  547   2.503   6.334   0.319
    2CHTO   C83  548   2.715   6.359   0.298
    2CHTO  H155  549   2.693   6.444   0.234
    2CHTO   O56  550   2.825   6.290   0.237
    2CHTO  H135  551   2.851   6.216   0.289
    2CHTO   C81  552   2.745   6.411   0.442
    2CHTO  H153  553   2.656   6.463   0.478
    2CHTO   N14  554   2.851   6.515   0.446
    2CHTO  H141  555   2.826   6.596   0.380
    2CHTO  H142  556   2.945   6.473   0.414
    2CHTO   C79  557   2.773   6.289   0.538
    2CHTO  H151  558   2.789   6.330   0.638
    2CHTO   O52  559   2.652   6.207   0.545
    2CHTO   C86  560   2.603   6.157   0.416
    2CHTO  H158  561   2.677   6.079   0.389
    2CHTO   C90  562   2.469   6.083   0.439
    2CHTO   O60  563   2.368   6.169   0.493
    2CHTO  H138  564   2.391   6.194   0.580
    2CHTO   O50  565   2.885   6.207   0.503
    2CHTO   C73  566   3.028   6.210   0.519
    2CHTO  H145  567   3.057   6.301   0.575
    2CHTO   C74  568   3.098   6.213   0.379
    2CHTO  H146  569   3.059   6.300   0.324
    2CHTO   O54  570   3.238   6.239   0.400
    2CHTO  H133  571   3.251   6.325   0.434
    2CHTO   C75  572   3.071   6.078   0.303
    2CHTO  H147  573   2.962   6.066   0.291
    2CHTO   N13  574   3.128   6.073   0.166
    2CHTO  H139  575   3.104   5.979   0.119
    2CHTO  H140  576   3.236   6.084   0.171
    2CHTO   C76  577   3.122   5.959   0.396
    2CHTO  H148  578   3.229   5.973   0.412
    2CHTO   O49  579   3.052   5.964   0.525
    2CHTO   C77  580   3.076   6.085   0.598
    2CHTO  H149  581   3.183   6.094   0.619
    2CHTO   C88  582   3.008   6.070   0.735
    2CHTO   O58  583   3.038   6.184   0.822
    2CHTO  H136  584   2.993   6.260   0.790
    2CHTO   O51  585   3.090   5.815   0.336
    2CHTO   C78  586   3.174   5.707   0.414
    2CHTO  H150  587   3.212   5.748   0.511
    2CHTO   C80  588   3.294   5.657   0.331
    2CHTO  H152  589   3.255   5.602   0.242
    2CHTO   O55  590   3.367   5.773   0.286
    2CHTO  H134  591   3.317   5.821   0.223
    2CHTO   C84  592   3.384   5.562   0.419
    2CHTO  H156  593   3.424   5.623   0.500
    2CHTO   N15  594   3.502   5.507   0.345
    2CHTO  H143  595   3.560   5.445   0.410
    2CHTO  H144  596   3.563   5.586   0.308
    2CHTO   C87  597   3.300   5.449   0.484
    2CHTO  H159  598   3.287   5.366   0.414
    2CHTO   O53  599   3.157   5.498   0.535
    2CHTO   C82  600   3.085   5.587   0.449
    2CHTO  H154  601   3.054   5.535   0.358
    2CHTO   C89  602   2.956   5.632   0.522
    2CHTO   O59  603   2.868   5.522   0.542
    2CHTO  H137  604   2.789   5.552   0.584
    2CHTO   O45  605   3.384   5.390   0.618
    2CHTO   C67  606   3.361   5.463   0.740
    2CHTO  H124  607   3.320   5.561   0.716
    2CHTO   C65  608   3.259   5.387   0.833
    2CHTO  H122  609   3.262   5.282   0.801
    2CHTO   O44  610   3.128   5.440   0.806
    2CHTO  H102  611   3.103   5.423   0.717
    2CHTO   C63  612   3.303   5.385   0.984
    2CHTO  H120  613   3.389   5.318   0.994
    2CHTO   N11  614   3.206   5.323   1.080
    2CHTO  H108  615   3.251   5.315   1.177
    2CHTO  H109  616   3.178   5.226   1.046
    2CHTO   C61  617   3.353   5.529   1.021
    2CHTO  H118  618   3.384   5.527   1.127
    2CHTO   O40  619   3.471   5.566   0.944
    2CHTO   C68  620   3.496   5.493   0.818
    2CHTO  H125  621   3.547   5.398   0.842
    2CHTO   C72  622   3.595   5.577   0.734
    2CHTO   O48  623   3.721   5.596   0.798
    2CHTO  H105  624   3.711   5.653   0.872
    2CHTO   O38  625   3.253   5.630   0.997
    2CHTO   C55  626   3.219   5.724   1.101
    2CHTO  H112  627   3.279   5.705   1.191
    2CHTO   C56  628   3.063   5.711   1.131
    2CHTO  H113  629   3.012   5.707   1.033
    2CHTO   O42  630   3.038   5.584   1.195
    2CHTO  H100  631   3.056   5.514   1.136
    2CHTO   C57  632   3.008   5.831   1.217
    2CHTO  H114  633   3.052   5.823   1.317
    2CHTO   N10  634   2.860   5.829   1.233
    2CHTO  H106  635   2.832   5.875   1.326
    2CHTO  H107  636   2.823   5.727   1.232
    2CHTO   C58  637   3.056   5.964   1.153
    2CHTO  H115  638   3.014   5.971   1.050
    2CHTO   O37  639   3.199   5.966   1.147
    2CHTO   C59  640   3.254   5.869   1.055
    2CHTO  H116  641   3.217   5.888   0.955
    2CHTO   C70  642   3.407   5.886   1.054
    2CHTO   O46  643   3.449   6.016   1.010
    2CHTO  H103  644   3.426   6.080   1.074
    2CHTO   O39  645   3.011   6.096   1.242
    2CHTO   C60  646   2.962   6.205   1.161
    2CHTO  H117  647   3.029   6.218   1.076
    2CHTO   C62  648   2.818   6.179   1.108
    2CHTO  H119  649   2.824   6.088   1.045
    2CHTO   O43  650   2.730   6.153   1.219
    2CHTO  H101  651   2.644   6.130   1.187
    2CHTO   C66  652   2.771   6.303   1.017
    2CHTO  H123  653   2.844   6.319   0.938
    2CHTO   N12  654   2.642   6.276   0.948
    2CHTO  H110  655   2.652   6.189   0.884
    2CHTO  H111  656   2.611   6.362   0.891
    2CHTO   C69  657   2.768   6.431   1.105
    2CHTO  H126  658   2.697   6.418   1.189
    2CHTO   O41  659   2.913   6.456   1.161
    2CHTO   C64  660   2.968   6.337   1.243
    2CHTO  H121  661   2.907   6.325   1.335
    2CHTO   C71  662   3.113   6.370   1.288
    2CHTO   O47  663   3.200   6.398   1.177
    2CHTO  H104  664   3.212   6.320   1.126
    2CHTO   O34  665   2.725   6.554   1.024
    2CHTO   C49  666   2.692   6.697   1.054
    2CHTO   H91  667   2.628   6.698   1.142
    2CHTO   C47  668   2.617   6.755   0.932
    2CHTO   H89  669   2.586   6.858   0.959
    2CHTO   O33  670   2.498   6.676   0.909
    2CHTO   H70  671   2.521   6.589   0.883
    2CHTO   C45  672   2.719   6.759   0.807
    2CHTO   H87  673   2.760   6.658   0.793
    2CHTO    N8  674   2.652   6.800   0.680
    2CHTO   H75  675   2.616   6.901   0.688
    2CHTO   H76  676   2.721   6.791   0.598
    2CHTO   C43  677   2.844   6.852   0.845
    2CHTO   H85  678   2.914   6.845   0.762
    2CHTO   O29  679   2.905   6.809   0.969
    2CHTO   C50  680   2.820   6.780   1.082
    2CHTO   H92  681   2.881   6.720   1.152
    2CHTO   C54  682   2.789   6.908   1.165
    2CHTO   O36  683   2.910   6.964   1.218
    2CHTO   H72  684   2.889   7.039   1.270
    2CHTO   O27  685   2.808   6.991   0.853
    2CHTO   C37  686   2.798   7.134   0.847
    2CHTO   H79  687   2.809   7.169   0.743
    2CHTO   C38  688   2.657   7.179   0.896
    2CHTO   H80  689   2.639   7.135   0.995
    2CHTO   O31  690   2.560   7.125   0.804
    2CHTO   H68  691   2.555   7.032   0.812
    2CHTO   C39  692   2.644   7.336   0.905
    2CHTO   H81  693   2.649   7.375   0.803
    2CHTO    N7  694   2.514   7.382   0.964
    2CHTO   H73  695   2.510   7.490   0.966
    2CHTO   H74  696   2.432   7.343   0.905
    2CHTO   C40  697   2.768   7.396   0.983
    2CHTO   H82  698   2.759   7.370   1.088
    2CHTO   O26  699   2.890   7.347   0.926
    2CHTO   C41  700   2.907   7.203   0.934
    2CHTO   H83  701   2.897   7.170   1.039
    2CHTO   C52  702   3.052   7.172   0.888
    2CHTO   O35  703   3.096   7.034   0.918
    2CHTO   H71  704   3.100   7.022   1.011
    2CHTO   O28  705   2.774   7.540   0.969
    2CHTO   C42  706   2.853   7.624   1.059
    2CHTO   H84  707   2.829   7.725   1.025
    2CHTO   C44  708   3.008   7.611   1.047
    2CHTO   H86  709   3.037   7.508   1.068
    2CHTO   O32  710   3.041   7.641   0.910
    2CHTO   H69  711   3.133   7.628   0.895
    2CHTO   C48  712   3.084   7.705   1.150
    2CHTO   H90  713   3.062   7.808   1.125
    2CHTO    N9  714   3.234   7.693   1.141
    2CHTO   H77  715   3.264   7.591   1.160
    2CHTO   H78  716   3.267   7.725   1.043
    2CHTO   C51  717   3.029   7.674   1.294
    2CHTO   H93  718   3.046   7.568   1.315
    2CHTO   O30  719   2.889   7.707   1.294
    2CHTO   C46  720   2.808   7.614   1.208
    2CHTO   H88  721   2.824   7.512   1.244
    2CHTO   C53  722   2.659   7.651   1.227
    2CHTO   O72  723   2.631   7.787   1.190
    2CHTO  H199  724   2.541   7.806   1.206
    2CHTO   O22  725   3.088   7.755   1.398
    2CHTO   C31  726   3.076   7.720   1.541
    2CHTO   H59  727   3.134   7.797   1.596
    2CHTO   C29  728   2.932   7.725   1.597
    2CHTO   H57  729   2.872   7.652   1.540
    2CHTO   O21  730   2.877   7.855   1.570
    2CHTO   H37  731   2.866   7.868   1.478
    2CHTO   C27  732   2.925   7.688   1.751
    2CHTO   H55  733   2.976   7.767   1.808
    2CHTO    N5  734   2.786   7.675   1.802
    2CHTO   H43  735   2.765   7.754   1.873
    2CHTO   H44  736   2.714   7.678   1.721
    2CHTO   C25  737   3.006   7.555   1.777
    2CHTO   H53  738   2.954   7.471   1.730
    2CHTO   O17  739   3.140   7.564   1.721
    2CHTO   C32  740   3.141   7.583   1.578
    2CHTO   H60  741   3.083   7.504   1.532
    2CHTO   C36  742   3.286   7.571   1.528
    2CHTO   O25  743   3.335   7.438   1.545
    2CHTO   H40  744   3.290   7.379   1.487
    2CHTO   O15  745   3.020   7.528   1.927
    2CHTO   C19  746   3.059   7.445   2.039
    2CHTO   H47  747   3.003   7.351   2.023
    2CHTO   C20  748   3.211   7.413   2.045
    2CHTO   H48  749   3.272   7.504   2.041
    2CHTO   O19  750   3.241   7.336   1.926
    2CHTO   H35  751   3.333   7.319   1.920
    2CHTO   C21  752   3.250   7.332   2.176
    2CHTO   H49  753   3.206   7.233   2.170
    2CHTO    N4  754   3.397   7.311   2.189
    2CHTO   H41  755   3.436   7.359   2.277
    2CHTO   H42  756   3.450   7.348   2.102
    2CHTO   C22  757   3.188   7.401   2.300
    2CHTO   H50  758   3.234   7.499   2.312
    2CHTO   O14  759   3.046   7.416   2.282
    2CHTO   C23  760   3.009   7.503   2.174
    2CHTO   H51  761   3.052   7.602   2.195
    2CHTO   C34  762   2.856   7.517   2.173
    2CHTO   O23  763   2.807   7.586   2.289
    2CHTO   H38  764   2.820   7.533   2.365
    2CHTO   O16  765   3.202   7.323   2.421
    2CHTO   C24  766   3.181   7.415   2.555
    2CHTO   H52  767   3.140   7.514   2.530
    2CHTO   C26  768   3.314   7.433   2.629
    2CHTO   H54  769   3.353   7.333   2.658
    2CHTO   O20  770   3.409   7.493   2.538
    2CHTO   H36  771   3.493   7.498   2.579
    2CHTO   C30  772   3.293   7.519   2.758
    2CHTO   H58  773   3.265   7.621   2.730
    2CHTO    N6  774   3.418   7.531   2.839
    2CHTO   H45  775   3.501   7.481   2.791
    2CHTO   H46  776   3.443   7.635   2.853
    2CHTO   C33  777   3.175   7.464   2.845
    2CHTO   H61  778   3.205   7.369   0.011
    2CHTO   O18  779   3.060   7.437   2.762
    2CHTO   C28  780   3.081   7.348   2.652
    2CHTO   H56  781   3.123   7.254   2.686
    2CHTO   C35  782   2.945   7.317   2.585
    2CHTO   O24  783   2.874   7.434   2.542
    2CHTO   H39  784   2.846   7.484   2.616
    2CHTO    O9  785   3.143   7.554   0.071
    2CHTO   C13  786   3.011   7.514   0.155
    2CHTO   H26  787   2.981   7.411   0.126
    2CHTO   C11  788   2.897   7.618   0.123
    2CHTO   H24  789   2.871   7.609   0.017
    2CHTO    O8  790   2.943   7.753   0.145
    2CHTO    H3  791   3.013   7.773   0.085
    2CHTO    C9  792   2.772   7.580   0.208
    2CHTO   H22  793   2.750   7.476   0.183
    2CHTO    N2  794   2.649   7.655   0.172
    2CHTO   H10  795   2.577   7.589   0.125
    2CHTO   H11  796   2.671   7.739   0.108
    2CHTO    C7  797   2.808   7.588   0.361
    2CHTO   H20  798   2.721   7.540   0.410
    2CHTO    O4  799   2.925   7.511   0.395
    2CHTO   C14  800   3.042   7.506   0.311
    2CHTO   H27  801   3.088   7.407   0.329
    2CHTO   C18  802   3.144   7.613   0.357
    2CHTO   O13  803   3.188   7.588   0.491
    2CHTO    H7  804   3.117   7.602   0.551
    2CHTO    O2  805   2.827   7.745   0.416
    2CHTO    C1  806   2.778   7.771   0.549
    2CHTO   H14  807   2.812   7.689   0.617
    2CHTO    C2  808   2.620   7.785   0.560
    2CHTO   H15  809   2.590   7.855   0.481
    2CHTO    O6  810   2.558   7.657   0.536
    2CHTO    H1  811   2.573   7.630   0.447
    2CHTO    C3  812   2.573   7.840   0.704
    2CHTO   H16  813   2.590   7.760   0.778
    2CHTO    N1  814   2.426   7.873   0.707
    2CHTO    H8  815   2.410   7.978   0.727
    2CHTO    H9  816   2.377   7.814   0.783
    2CHTO    C4  817   2.664   7.961   0.750
    2CHTO   H17  818   2.639   8.049   0.690
    2CHTO    O1  819   2.803   7.928   0.737
    2CHTO    C5  820   2.844   7.903   0.602
    2CHTO   H18  821   2.813   7.985   0.537
    2CHTO   C16  822   2.999   7.899   0.605
    2CHTO   O11  823   3.056   7.907   0.474
    2CHTO    H5  824   3.037   7.991   0.436
    2CHTO    O3  825   2.644   7.988   0.890
    2CHTO    C6  826   2.676   8.123   0.937
    2CHTO   H19  827   2.746   8.175   0.871
    2CHTO    C8  828   2.545   8.209   0.947
    2CHTO   H21  829   2.468   8.148   0.996
    2CHTO    O7  830   2.504   8.240   0.813
    2CHTO    H2  831   2.472   8.163   0.770
    2CHTO   C12  832   2.567   8.340   1.034
    2CHTO   H25  833   2.637   8.405   0.977
    2CHTO    N3  834   2.439   8.416   1.052
    2CHTO   H12  835   2.401   8.447   0.955
    2CHTO   H13  836   2.456   8.503   1.114
    2CHTO   C15  837   2.636   8.300   1.169
    2CHTO   H28  838   2.572   8.232   1.227
    2CHTO   O10  839   2.675   8.419   1.258
    2CHTO    H4  840   2.707   8.388   1.341
    2CHTO    O5  841   2.762   8.237   1.140
    2CHTO   C10  842   2.747   8.110   1.075
    2CHTO   H23  843   2.688   8.045   1.140
    2CHTO   C17  844   2.886   8.047   1.061
    2CHTO   O12  845   2.944   8.022   1.189
    2CHTO    H6  846   3.029   7.984   1.178
    3CHTO  H203  847   7.126   2.502   2.306
    3CHTO   O82  848   7.081   2.442   2.362
    3CHTO  C123  849   7.132   2.309   2.344
    3CHTO  H227  850   7.240   2.310   2.364
    3CHTO   O77  851   7.063   2.233   2.447
    3CHTO  C118  852   7.101   2.095   2.458
    3CHTO  H222  853   7.210   2.088   2.476
    3CHTO  C125  854   7.024   2.037   2.582
    3CHTO   O84  855   7.069   1.906   2.619
    3CHTO  H205  856   7.156   1.911   2.653
    3CHTO  C114  857   7.065   2.024   2.326
    3CHTO  H218  858   6.957   2.030   2.312
    3CHTO  C116  859   7.132   2.094   2.204
    3CHTO  H220  860   7.243   2.078   2.209
    3CHTO   O79  861   7.088   2.028   2.083
    3CHTO  H201  862   7.134   2.063   2.009
    3CHTO  C120  863   7.100   2.248   2.202
    3CHTO  H224  864   6.991   2.258   2.181
    3CHTO   N21  865   7.172   2.320   2.094
    3CHTO  H211  866   7.267   2.273   2.074
    3CHTO  H212  867   7.111   2.322   2.004
    3CHTO   O75  868   7.106   1.887   2.343
    3CHTO  C112  869   7.005   1.781   2.271
    3CHTO  H216  870   6.967   1.826   2.178
    3CHTO   O73  871   6.899   1.752   2.363
    3CHTO  C113  872   6.796   1.670   2.306
    3CHTO  H217  873   6.756   1.721   2.216
    3CHTO  C124  874   6.681   1.659   2.407
    3CHTO   O83  875   6.618   1.785   2.433
    3CHTO  H204  876   6.571   1.814   2.357
    3CHTO  C109  877   6.852   1.531   2.266
    3CHTO  H213  878   6.879   1.479   2.359
    3CHTO  C110  879   6.977   1.547   2.174
    3CHTO  H214  880   6.944   1.583   2.077
    3CHTO   O78  881   7.035   1.416   2.153
    3CHTO  H200  882   7.067   1.381   2.234
    3CHTO  C111  883   7.080   1.647   2.235
    3CHTO  H215  884   7.119   1.605   2.329
    3CHTO   N19  885   7.198   1.673   2.147
    3CHTO  H207  886   7.186   1.626   2.051
    3CHTO  H208  887   7.216   1.779   2.135
    3CHTO   O74  888   6.748   1.453   2.197
    3CHTO  C115  889   6.728   1.304   2.254
    3CHTO  H219  890   6.815   1.270   2.310
    3CHTO   O76  891   6.609   1.298   2.357
    3CHTO  C122  892   6.485   1.333   2.296
    3CHTO  H226  893   6.493   1.437   2.263
    3CHTO  C126  894   6.371   1.331   2.404
    3CHTO   O85  895   6.389   1.432   2.504
    3CHTO  H206  896   6.466   1.414   2.555
    3CHTO  C121  897   6.449   1.239   2.173
    3CHTO  H225  898   6.356   1.183   2.196
    3CHTO   O81  899   6.422   1.322   2.059
    3CHTO  H202  900   6.389   1.270   1.988
    3CHTO  C119  901   6.563   1.136   2.142
    3CHTO  H223  902   6.567   1.071   2.229
    3CHTO  C117  903   6.703   1.208   2.130
    3CHTO  H221  904   6.713   1.272   2.042
    3CHTO   N20  905   6.812   1.107   2.116
    3CHTO  H209  906   6.818   1.045   2.205
    3CHTO  H210  907   6.907   1.156   2.099
    3CHTO   O80  908   6.524   1.029   2.022
    3CHTO  C103  909   6.406   0.923   2.046
    3CHTO  H190  910   6.381   0.918   2.152
    3CHTO  C101  911   6.275   0.946   1.964
    3CHTO  H188  912   6.299   0.950   1.858
    3CHTO   O68  913   6.215   1.079   2.005
    3CHTO  H168  914   6.140   1.099   1.952
    3CHTO   C99  915   6.171   0.826   1.988
    3CHTO  H186  916   6.138   0.830   2.094
    3CHTO   N17  917   6.047   0.836   1.904
    3CHTO  H174  918   6.002   0.933   1.917
    3CHTO  H175  919   5.978   0.758   1.931
    3CHTO   C97  920   6.240   0.687   1.972
    3CHTO  H184  921   6.253   0.666   1.864
    3CHTO   O64  922   6.366   0.681   2.043
    3CHTO  C104  923   6.461   0.781   2.005
    3CHTO  H191  924   6.478   0.779   1.897
    3CHTO  C108  925   6.598   0.749   2.069
    3CHTO   O71  926   6.593   0.748   2.212
    3CHTO  H171  927   6.580   0.835   2.244
    3CHTO   O62  928   6.157   0.585   2.032
    3CHTO   C91  929   6.181   0.446   2.002
    3CHTO  H178  930   6.224   0.439   1.902
    3CHTO   C92  931   6.042   0.375   1.995
    3CHTO  H179  932   5.985   0.400   2.087
    3CHTO   O66  933   5.970   0.436   1.886
    3CHTO  H166  934   5.882   0.403   1.883
    3CHTO   C93  935   6.054   0.219   1.978
    3CHTO  H180  936   6.098   0.202   1.878
    3CHTO   N16  937   5.922   0.150   1.975
    3CHTO  H172  938   5.936   0.044   1.959
    3CHTO  H173  939   5.870   0.168   2.068
    3CHTO   C94  940   6.149   0.154   2.087
    3CHTO  H181  941   6.094   0.096   2.161
    3CHTO   O61  942   6.220   0.252   2.165
    3CHTO   C95  943   6.276   0.372   2.107
    3CHTO  H182  944   6.295   0.443   2.187
    3CHTO  C106  945   6.419   0.344   2.046
    3CHTO   O69  946   6.417   0.265   1.927
    3CHTO  H169  947   6.386   0.178   1.947
    3CHTO   O63  948   6.255   0.058   2.014
    3CHTO   C96  949   6.242   9.898   2.035
    3CHTO  H183  950   6.324   9.853   1.979
    3CHTO   C98  951   6.111   9.833   1.984
    3CHTO  H185  952   6.024   9.877   2.034
    3CHTO   O67  953   6.097   9.868   1.845
    3CHTO  H167  954   6.081   9.960   1.835
    3CHTO  C102  955   6.113   9.673   2.004
    3CHTO  H189  956   6.199   9.637   1.944
    3CHTO   N18  957   5.995   9.599   1.954
    3CHTO  H176  958   6.024   9.526   1.880
    3CHTO  H177  959   5.923   9.667   1.910
    3CHTO  C105  960   6.143   9.644   2.153
    3CHTO  H192  961   6.059   9.678   2.214
    3CHTO   O65  962   6.262   9.712   2.198
    3CHTO  C100  963   6.263   9.856   2.187
    3CHTO  H187  964   6.181   9.897   2.248
    3CHTO  C107  965   6.398   9.903   2.246
    3CHTO   O70  966   6.402   0.044   2.266
    3CHTO  H170  967   6.484   0.068   2.305
    3CHTO   O57  968   6.167   9.479   2.169
    3CHTO   C85  969   6.124   9.404   2.285
    3CHTO  H157  970   6.179   9.308   2.275
    3CHTO   C83  971   5.973   9.367   2.274
    3CHTO  H155  972   5.959   9.308   2.184
    3CHTO   O56  973   5.894   9.486   2.257
    3CHTO  H135  974   5.804   9.464   2.242
    3CHTO   C81  975   5.932   9.281   2.398
    3CHTO  H153  976   5.998   9.194   2.401
    3CHTO   N14  977   5.795   9.225   2.388
    3CHTO  H141  978   5.786   9.168   2.297
    3CHTO  H142  979   5.776   9.161   2.471
    3CHTO   C79  980   5.955   9.365   2.529
    3CHTO  H151  981   5.932   9.299   2.613
    3CHTO   O52  982   6.096   9.403   2.541
    3CHTO   C86  983   6.152   9.473   2.425
    3CHTO  H158  984   6.106   9.574   2.429
    3CHTO   C90  985   6.304   9.493   2.447
    3CHTO   O60  986   6.330   9.579   2.558
    3CHTO  H138  987   6.308   9.535   2.638
    3CHTO   O50  988   5.872   9.482   2.539
    3CHTO   C73  989   5.813   9.546   2.653
    3CHTO  H145  990   5.870   9.521   2.744
    3CHTO   C74  991   5.666   9.499   2.672
    3CHTO  H146  992   5.668   9.389   2.681
    3CHTO   O54  993   5.618   9.549   2.799
    3CHTO  H133  994   5.663   9.507   2.870
    3CHTO   C75  995   5.579   9.547   2.549
    3CHTO  H147  996   5.620   9.500   2.458
    3CHTO   N13  997   5.437   9.505   2.556
    3CHTO  H139  998   5.430   9.398   2.560
    3CHTO  H140  999   5.384   9.540   2.468
    3CHTO   C76 1000   5.596   9.705   2.532
    3CHTO  H148 1001   5.553   9.753   2.621
    3CHTO   O49 1002   5.737   9.742   2.521
    3CHTO   C77 1003   5.817   9.701   2.634
    3CHTO  H149 1004   5.779   9.749   2.725
    3CHTO   C88 1005   5.958   9.756   2.614
    3CHTO   O58 1006   6.046   9.722   2.727
    3CHTO  H136 1007   6.133   9.755   2.711
    3CHTO   O51 1008   5.529   9.757   2.396
    3CHTO   C78 1009   5.516   9.915   2.390
    3CHTO  H150 1010   5.590   9.964   2.457
    3CHTO   C80 1011   5.374   9.958   2.433
    3CHTO  H152 1012   5.300   9.907   2.367
    3CHTO   O55 1013   5.354   9.912   2.568
    3CHTO  H134 1014   5.265   9.928   2.595
    3CHTO   C84 1015   5.353   0.114   2.421
    3CHTO  H156 1016   5.419   0.161   2.494
    3CHTO   N15 1017   5.213   0.157   2.455
    3CHTO  H143 1018   5.204   0.263   2.448
    3CHTO  H144 1019   5.144   0.112   2.387
    3CHTO   C87 1020   5.395   0.164   2.280
    3CHTO  H159 1021   5.321   0.132   2.207
    3CHTO   O53 1022   5.537   0.106   2.241
    3CHTO   C82 1023   5.545   9.963   2.246
    3CHTO  H154 1024   5.475   9.919   2.175
    3CHTO   C89 1025   5.687   9.924   2.200
    3CHTO   O59 1026   5.701   9.783   2.174
    3CHTO  H137 1027   5.694   9.735   2.255
    3CHTO   O45 1028   5.398   0.334   2.276
    3CHTO   C67 1029   5.527   0.395   2.300
    3CHTO  H124 1030   5.595   0.319   2.336
    3CHTO   C65 1031   5.584   0.455   2.167
    3CHTO  H122 1032   5.498   0.474   2.102
    3CHTO   O44 1033   5.665   0.352   2.107
    3CHTO  H102 1034   5.692   0.378   2.022
    3CHTO   C63 1035   5.651   0.597   2.186
    3CHTO  H120 1036   5.572   0.671   2.200
    3CHTO   N11 1037   5.722   0.654   2.067
    3CHTO  H108 1038   5.734   0.579   1.991
    3CHTO  H109 1039   5.818   0.692   2.095
    3CHTO   C61 1040   5.734   0.597   2.320
    3CHTO  H118 1041   5.771   0.699   2.334
    3CHTO   O40 1042   5.652   0.566   2.436
    3CHTO   C68 1043   5.521   0.503   2.415
    3CHTO  H125 1044   5.447   0.582   2.390
    3CHTO   C72 1045   5.477   0.441   2.550
    3CHTO   O48 1046   5.472   0.534   2.658
    3CHTO  H105 1047   5.559   0.564   2.678
    3CHTO   O38 1048   5.844   0.504   2.316
    3CHTO   C55 1049   5.944   0.521   2.419
    3CHTO  H112 1050   5.901   0.573   2.506
    3CHTO   C56 1051   6.070   0.598   2.360
    3CHTO  H113 1052   6.097   0.546   2.267
    3CHTO   O42 1053   6.032   0.731   2.322
    3CHTO  H100 1054   6.004   0.780   2.397
    3CHTO   C57 1055   6.192   0.597   2.461
    3CHTO  H114 1056   6.164   0.659   2.546
    3CHTO   N10 1057   6.317   0.654   2.403
    3CHTO  H106 1058   6.378   0.698   2.481
    3CHTO  H107 1059   6.374   0.579   2.352
    3CHTO   C58 1060   6.215   0.452   2.512
    3CHTO  H115 1061   6.243   0.387   2.425
    3CHTO   O37 1062   6.092   0.405   2.570
    3CHTO   C59 1063   5.989   0.382   2.473
    3CHTO  H116 1064   6.027   0.318   2.393
    3CHTO   C70 1065   5.877   0.307   2.547
    3CHTO   O46 1066   5.787   0.241   2.458
    3CHTO  H103 1067   5.735   0.305   2.412
    3CHTO   O39 1068   6.329   0.442   2.630
    3CHTO   C60 1069   6.394   0.315   2.654
    3CHTO  H117 1070   6.458   0.329   2.742
    3CHTO   C62 1071   6.298   0.196   2.689
    3CHTO  H119 1072   6.233   0.233   2.771
    3CHTO   O43 1073   6.213   0.161   2.578
    3CHTO  H101 1074   6.265   0.134   2.505
    3CHTO   C66 1075   6.385   0.072   2.741
    3CHTO  H123 1076   6.453   0.106   2.819
    3CHTO   N12 1077   6.301   9.966   2.802
    3CHTO  H110 1078   6.230   9.929   2.730
    3CHTO  H111 1079   6.251   0.005   0.008
    3CHTO   C69 1080   6.471   0.021   2.622
    3CHTO  H126 1081   6.404   9.988   2.539
    3CHTO   O41 1082   6.564   0.139   2.571
    3CHTO   C64 1083   6.488   0.273   2.537
    3CHTO  H121 1084   6.428   0.260   2.445
    3CHTO   C71 1085   6.593   0.383   2.509
    3CHTO   O47 1086   6.674   0.351   2.395
    3CHTO  H104 1087   6.622   0.357   2.317
    3CHTO   O34 1088   6.559   9.901   2.662
    3CHTO   C49 1089   6.659   9.789   2.649
    3CHTO   H91 1090   6.644   9.748   2.549
    3CHTO   C47 1091   6.627   9.680   2.753
    3CHTO   H89 1092   6.539   9.625   2.712
    3CHTO   O33 1093   6.590   9.738   2.880
    3CHTO   H70 1094   6.555   9.672   0.054
    3CHTO   C45 1095   6.753   9.581   2.778
    3CHTO   H87 1096   6.807   9.618   2.867
    3CHTO    N8 1097   6.705   9.444   2.809
    3CHTO   H75 1098   6.753   9.371   2.746
    3CHTO   H76 1099   6.723   9.420   0.031
    3CHTO   C43 1100   6.861   9.591   2.661
    3CHTO   H85 1101   6.943   9.524   2.688
    3CHTO   O29 1102   6.906   9.728   2.649
    3CHTO   C50 1103   6.808   9.833   2.662
    3CHTO   H92 1104   6.820   9.882   2.760
    3CHTO   C54 1105   6.841   9.945   2.560
    3CHTO   O36 1106   6.967   0.006   2.587
    3CHTO   H72 1107   6.962   0.056   2.667
    3CHTO   O27 1108   6.810   9.542   2.535
    3CHTO   C37 1109   6.831   9.493   2.402
    3CHTO   H79 1110   6.908   9.414   2.403
    3CHTO   C38 1111   6.699   9.428   2.349
    3CHTO   H80 1112   6.616   9.497   2.368
    3CHTO   O31 1113   6.677   9.307   2.425
    3CHTO   H68 1114   6.656   9.328   2.514
    3CHTO   C39 1115   6.705   9.397   2.194
    3CHTO   H81 1116   6.779   9.318   2.179
    3CHTO    N7 1117   6.575   9.347   2.138
    3CHTO   H73 1118   6.586   9.324   2.033
    3CHTO   H74 1119   6.498   9.421   2.152
    3CHTO   C40 1120   6.757   9.524   2.116
    3CHTO   H82 1121   6.684   9.604   2.127
    3CHTO   O26 1122   6.885   9.561   2.171
    3CHTO   C41 1123   6.878   9.608   2.308
    3CHTO   H83 1124   6.807   9.692   2.315
    3CHTO   C52 1125   7.018   9.662   2.345
    3CHTO   O35 1126   7.127   9.560   2.333
    3CHTO   H71 1127   7.139   9.538   2.243
    3CHTO   O28 1128   6.777   9.500   1.975
    3CHTO   C42 1129   6.831   9.600   1.881
    3CHTO   H84 1130   6.811   9.556   1.784
    3CHTO   C44 1131   6.987   9.621   1.888
    3CHTO   H86 1132   7.014   9.651   1.990
    3CHTO   O32 1133   7.049   9.493   1.863
    3CHTO   H69 1134   7.032   9.465   1.776
    3CHTO   C48 1135   7.040   9.733   1.790
    3CHTO   H90 1136   7.025   9.699   1.687
    3CHTO    N9 1137   7.188   9.758   1.804
    3CHTO   H77 1138   7.211   9.788   1.905
    3CHTO   H78 1139   7.243   9.669   1.778
    3CHTO   C51 1140   6.955   9.862   1.813
    3CHTO   H93 1141   6.969   9.895   1.916
    3CHTO   O30 1142   6.818   9.829   1.786
    3CHTO   C46 1143   6.757   9.738   1.886
    3CHTO   H88 1144   6.766   9.782   1.985
    3CHTO   C53 1145   6.608   9.729   1.844
    3CHTO   O72 1146   6.527   9.663   1.942
    3CHTO  H199 1147   6.438   9.659   1.911
    3CHTO   O22 1148   6.987   9.969   1.721
    3CHTO   C31 1149   6.923   0.100   1.738
    3CHTO   H59 1150   6.837   0.084   1.808
    3CHTO   C29 1151   7.014   0.207   1.802
    3CHTO   H57 1152   7.098   0.226   1.734
    3CHTO   O21 1153   7.069   0.155   1.925
    3CHTO   H37 1154   7.127   0.083   1.906
    3CHTO   C27 1155   6.936   0.343   1.826
    3CHTO   H55 1156   6.858   0.325   1.902
    3CHTO    N5 1157   7.023   0.453   1.873
    3CHTO   H43 1158   7.098   0.476   1.799
    3CHTO   H44 1159   7.070   0.426   1.966
    3CHTO   C25 1160   6.859   0.384   1.695
    3CHTO   H53 1161   6.932   0.419   1.619
    3CHTO   O17 1162   6.785   0.273   1.638
    3CHTO   C32 1163   6.861   0.156   1.607
    3CHTO   H60 1164   6.942   0.180   1.537
    3CHTO   C36 1165   6.764   0.056   1.539
    3CHTO   O25 1166   6.832   9.942   1.485
    3CHTO   H40 1167   6.770   9.884   1.445
    3CHTO   O15 1168   6.756   0.501   1.726
    3CHTO   C19 1169   6.653   0.553   1.638
    3CHTO   H47 1170   6.684   0.520   1.538
    3CHTO   C20 1171   6.510   0.497   1.666
    3CHTO   H48 1172   6.474   0.525   1.767
    3CHTO   O19 1173   6.517   0.354   1.660
    3CHTO   H35 1174   6.435   0.316   1.685
    3CHTO   C21 1175   6.405   0.552   1.561
    3CHTO   H49 1176   6.429   0.509   1.463
    3CHTO    N4 1177   6.266   0.511   1.591
    3CHTO   H41 1178   6.235   0.550   1.687
    3CHTO   H42 1179   6.199   0.547   1.514
    3CHTO   C22 1180   6.420   0.706   1.545
    3CHTO   H50 1181   6.377   0.755   1.633
    3CHTO   O14 1182   6.556   0.746   1.527
    3CHTO   C23 1183   6.646   0.708   1.633
    3CHTO   H51 1184   6.607   0.751   1.726
    3CHTO   C34 1185   6.782   0.773   1.602
    3CHTO   O23 1186   6.869   0.768   1.716
    3CHTO   H38 1187   6.893   0.679   1.733
    3CHTO   O16 1188   6.355   0.750   1.425
    3CHTO   C24 1189   6.311   0.902   1.423
    3CHTO   H52 1190   6.351   0.957   1.508
    3CHTO   C26 1191   6.157   0.906   1.425
    3CHTO   H54 1192   6.119   0.835   1.348
    3CHTO   O20 1193   6.114   0.860   1.554
    3CHTO   H36 1194   6.021   0.850   1.556
    3CHTO   C30 1195   6.100   1.048   1.392
    3CHTO   H58 1196   6.121   1.117   1.475
    3CHTO    N6 1197   5.952   1.044   1.378
    3CHTO   H45 1198   5.921   1.074   1.279
    3CHTO   H46 1199   5.906   1.110   1.450
    3CHTO   C33 1200   6.172   1.107   1.266
    3CHTO   H61 1201   6.146   1.045   1.179
    3CHTO   O18 1202   6.314   1.101   1.286
    3CHTO   C28 1203   6.367   0.968   1.295
    3CHTO   H56 1204   6.339   0.908   1.209
    3CHTO   C35 1205   6.522   0.977   1.299
    3CHTO   O24 1206   6.577   1.035   1.181
    3CHTO   H39 1207   6.555   1.126   1.176
    3CHTO    O9 1208   6.128   1.240   1.233
    3CHTO   C13 1209   6.195   1.364   1.314
    3CHTO   H26 1210   6.219   1.329   1.417
    3CHTO   C11 1211   6.092   1.484   1.314
    3CHTO   H24 1212   6.004   1.452   1.373
    3CHTO    O8 1213   6.046   1.512   1.180
    3CHTO    H3 1214   5.999   1.437   1.146
    3CHTO    C9 1215   6.157   1.605   1.385
    3CHTO   H22 1216   6.187   1.568   1.484
    3CHTO    N2 1217   6.064   1.718   1.412
    3CHTO   H10 1218   6.046   1.727   1.518
    3CHTO   H11 1219   5.971   1.705   1.359
    3CHTO    C7 1220   6.287   1.647   1.308
    3CHTO   H20 1221   6.333   1.726   1.372
    3CHTO    O4 1222   6.380   1.537   1.298
    3CHTO   C14 1223   6.335   1.409   1.250
    3CHTO   H27 1224   6.413   1.336   1.283
    3CHTO   C18 1225   6.338   1.410   1.094
    3CHTO   O13 1226   6.324   1.279   1.038
    3CHTO    H7 1227   6.325   1.285   0.944
    3CHTO    O2 1228   6.257   1.710   1.155
    3CHTO    C1 1229   6.346   1.812   1.106
    3CHTO   H14 1230   6.324   1.826   0.998
    3CHTO    C2 1231   6.502   1.781   1.121
    3CHTO   H15 1232   6.519   1.755   1.227
    3CHTO    O6 1233   6.535   1.668   1.038
    3CHTO    H1 1234   6.492   1.591   1.070
    3CHTO    C3 1235   6.592   1.908   1.082
    3CHTO   H16 1236   6.587   1.922   0.973
    3CHTO    N1 1237   6.738   1.887   1.114
    3CHTO    H8 1238   6.795   1.973   1.083
    3CHTO    H9 1239   6.750   1.871   1.220
    3CHTO    C4 1240   6.535   2.040   1.146
    3CHTO   H17 1241   6.554   2.038   1.253
    3CHTO    O1 1242   6.394   2.053   1.120
    3CHTO    C5 1243   6.313   1.948   1.174
    3CHTO   H18 1244   6.331   1.938   1.281
    3CHTO   C16 1245   6.165   1.988   1.152
    3CHTO   O11 1246   6.131   2.103   1.229
    3CHTO    H5 1247   6.040   2.124   1.216
    3CHTO    O3 1248   6.594   2.156   1.085
    3CHTO    C6 1249   6.585   2.280   1.162
    3CHTO   H19 1250   6.508   2.276   1.239
    3CHTO    C8 1251   6.722   2.309   1.230
    3CHTO   H21 1252   6.801   2.302   1.155
    3CHTO    O7 1253   6.742   2.207   1.330
    3CHTO    H2 1254   6.828   2.215   1.368
    3CHTO   C12 1255   6.726   2.454   1.294
    3CHTO   H25 1256   6.655   2.452   1.379
    3CHTO    N3 1257   6.861   2.488   1.351
    3CHTO   H12 1258   6.931   2.407   1.338
    3CHTO   H13 1259   6.852   2.514   1.455
    3CHTO   C15 1260   6.675   2.559   1.189
    3CHTO   H28 1261   6.746   2.574   1.107
    3CHTO   O10 1262   6.642   2.696   1.252
    3CHTO    H4 1263   6.720   2.734   1.288
    3CHTO    O5 1264   6.547   2.521   1.136
    3CHTO   C10 1265   6.546   2.397   1.065
    3CHTO   H23 1266   6.618   2.404   0.983
    3CHTO   C17 1267   6.406   2.381   1.004
    3CHTO   O12 1268   6.400   2.274   0.909
    3CHTO    H6 1269   6.314   2.269   0.874
    4CHTO  H203 1270   5.454   6.749   0.073
    4CHTO   O82 1271   5.531   6.776   0.119
    4CHTO  C123 1272   5.545   6.919   0.112
    4CHTO  H227 1273   5.453   6.966   0.152
    4CHTO   O77 1274   5.657   6.946   0.201
    4CHTO  C118 1275   5.684   7.086   0.219
    4CHTO  H222 1276   5.594   7.137   0.255
    4CHTO  C125 1277   5.797   7.099   0.328
    4CHTO   O84 1278   5.754   7.050   0.455
    4CHTO  H205 1279   5.745   6.956   0.452
    4CHTO  C114 1280   5.728   7.147   0.085
    4CHTO  H218 1281   5.821   7.100   0.054
    4CHTO  C116 1282   5.623   7.123   2.855
    4CHTO  H220 1283   5.534   7.187   2.875
    4CHTO   O79 1284   5.677   7.166   2.729
    4CHTO  H201 1285   5.689   7.259   2.729
    4CHTO  C120 1286   5.578   6.971   2.849
    4CHTO  H224 1287   5.664   6.915   2.807
    4CHTO   N21 1288   5.464   6.952   2.755
    4CHTO  H211 1289   5.502   6.933   2.655
    4CHTO  H212 1290   5.401   6.870   2.787
    4CHTO   O75 1291   5.752   7.286   0.113
    4CHTO  C112 1292   5.876   7.347   0.028
    4CHTO  H216 1293   5.879   7.300   2.811
    4CHTO   O73 1294   5.996   7.320   0.103
    4CHTO  C113 1295   6.116   7.358   0.034
    4CHTO  H217 1296   6.120   7.305   2.818
    4CHTO  C124 1297   6.233   7.306   0.120
    4CHTO   O83 1298   6.359   7.312   0.052
    4CHTO  H204 1299   6.360   7.251   2.863
    4CHTO  C109 1300   6.119   7.512   0.013
    4CHTO  H213 1301   6.123   7.558   0.113
    4CHTO  C110 1302   5.989   7.557   2.820
    4CHTO  H214 1303   5.993   7.518   2.717
    4CHTO   O78 1304   5.985   7.701   2.810
    4CHTO  H200 1305   6.054   7.731   2.754
    4CHTO  C111 1306   5.862   7.503   0.010
    4CHTO  H215 1307   5.856   7.549   0.110
    4CHTO   N19 1308   5.735   7.535   2.822
    4CHTO  H207 1309   5.724   7.642   2.812
    4CHTO  H208 1310   5.651   7.496   2.878
    4CHTO   O74 1311   6.239   7.550   2.821
    4CHTO  C115 1312   6.291   7.700   2.850
    4CHTO  H219 1313   6.210   7.766   2.882
    4CHTO   O76 1314   6.391   7.703   0.086
    4CHTO  C122 1315   6.512   7.634   0.055
    4CHTO  H226 1316   6.486   7.531   0.030
    4CHTO  C126 1317   6.600   7.624   0.185
    4CHTO   O85 1318   6.539   7.544   0.286
    4CHTO  H206 1319   6.535   7.454   0.258
    4CHTO  C121 1320   6.591   7.701   2.818
    4CHTO  H225 1321   6.680   7.754   2.857
    4CHTO   O81 1322   6.637   7.595   2.733
    4CHTO  H202 1323   6.697   7.629   2.669
    4CHTO  C119 1324   6.504   7.802   2.736
    4CHTO  H223 1325   6.501   7.893   2.796
    4CHTO  C117 1326   6.355   7.753   2.715
    4CHTO  H221 1327   6.346   7.670   2.645
    4CHTO   N20 1328   6.271   7.862   2.655
    4CHTO  H209 1329   6.265   7.946   2.724
    4CHTO  H210 1330   6.313   7.894   2.561
    4CHTO   O80 1331   6.579   7.853   2.602
    4CHTO  C103 1332   6.643   7.994   2.597
    4CHTO  H190 1333   6.579   8.068   2.646
    4CHTO  C101 1334   6.789   8.006   2.656
    4CHTO  H188 1335   6.848   7.922   2.619
    4CHTO   O68 1336   6.781   7.993   2.810
    4CHTO  H168 1337   6.867   7.987   2.846
    4CHTO   C99 1338   6.861   8.142   2.611
    4CHTO  H186 1339   6.809   8.227   2.660
    4CHTO   N17 1340   7.006   8.151   2.652
    4CHTO  H174 1341   7.040   8.056   2.692
    4CHTO  H175 1342   7.020   8.230   2.724
    4CHTO   C97 1343   6.845   8.165   2.458
    4CHTO  H184 1344   6.905   8.089   2.405
    4CHTO   O64 1345   6.706   8.158   2.422
    4CHTO  C104 1346   6.646   8.029   2.443
    4CHTO  H191 1347   6.702   7.952   2.390
    4CHTO  C108 1348   6.506   8.030   2.380
    4CHTO   O71 1349   6.421   8.131   2.436
    4CHTO  H171 1350   6.337   8.128   2.394
    4CHTO   O62 1351   6.886   8.298   2.418
    4CHTO   C91 1352   6.902   8.323   2.277
    4CHTO  H178 1353   6.855   8.242   2.221
    4CHTO   C92 1354   7.053   8.320   2.239
    4CHTO  H179 1355   7.106   8.395   2.301
    4CHTO   O66 1356   7.107   8.192   2.278
    4CHTO  H166 1357   7.200   8.190   2.265
    4CHTO   C93 1358   7.075   8.347   2.085
    4CHTO  H180 1359   7.039   8.257   2.033
    4CHTO   N16 1360   7.218   8.358   2.047
    4CHTO  H172 1361   7.264   8.441   2.099
    4CHTO  H173 1362   7.228   8.370   1.940
    4CHTO   C94 1363   6.992   8.473   2.034
    4CHTO  H181 1364   7.056   8.552   1.995
    4CHTO   O61 1365   6.919   8.538   2.141
    4CHTO   C95 1366   6.837   8.461   2.231
    4CHTO  H182 1367   6.820   8.520   2.320
    4CHTO  C106 1368   6.695   8.440   2.166
    4CHTO   O69 1369   6.603   8.377   2.256
    4CHTO  H169 1370   6.523   8.360   2.212
    4CHTO   O63 1371   6.889   8.428   1.918
    4CHTO   C96 1372   6.955   8.370   1.784
    4CHTO  H183 1373   7.042   8.310   1.811
    4CHTO   C98 1374   7.001   8.474   1.678
    4CHTO  H185 1375   6.917   8.540   1.652
    4CHTO   O67 1376   7.099   8.558   1.740
    4CHTO  H167 1377   7.127   8.625   1.681
    4CHTO  C102 1378   7.060   8.401   1.547
    4CHTO  H189 1379   7.153   8.352   1.579
    4CHTO   N18 1380   7.099   8.493   1.437
    4CHTO  H176 1381   7.014   8.552   1.406
    4CHTO  H177 1382   7.178   8.559   1.471
    4CHTO  C105 1383   6.963   8.290   1.498
    4CHTO  H192 1384   6.880   8.335   1.443
    4CHTO   O65 1385   6.910   8.206   1.602
    4CHTO  C100 1386   6.852   8.273   1.716
    4CHTO  H187 1387   6.766   8.332   1.680
    4CHTO  C107 1388   6.798   8.168   1.815
    4CHTO   O70 1389   6.900   8.080   1.863
    4CHTO  H170 1390   6.863   8.019   1.923
    4CHTO   O57 1391   7.053   8.194   1.400
    4CHTO   C85 1392   7.018   8.175   1.262
    4CHTO  H157 1393   6.984   8.273   1.224
    4CHTO   C83 1394   6.895   8.079   1.248
    4CHTO  H155 1395   6.809   8.128   1.294
    4CHTO   O56 1396   6.919   7.959   1.325
    4CHTO  H135 1397   6.842   7.905   1.325
    4CHTO   C81 1398   6.866   8.054   1.098
    4CHTO  H153 1399   6.850   8.151   1.050
    4CHTO   N14 1400   6.739   7.980   1.073
    4CHTO  H141 1401   6.721   7.974   0.967
    4CHTO  H142 1402   6.657   8.030   1.120
    4CHTO   C79 1403   6.990   7.986   1.030
    4CHTO  H151 1404   6.968   7.976   0.924
    4CHTO   O52 1405   7.106   8.074   1.041
    4CHTO   C86 1406   7.139   8.117   1.177
    4CHTO  H158 1407   7.179   8.025   1.224
    4CHTO   C90 1408   7.257   8.217   1.173
    4CHTO   O60 1409   7.224   8.334   1.097
    4CHTO  H138 1410   7.298   8.391   1.093
    4CHTO   O50 1411   7.023   7.855   1.083
    4CHTO   C73 1412   7.099   7.757   1.010
    4CHTO  H145 1413   7.166   7.806   0.939
    4CHTO   C74 1414   7.003   7.664   0.930
    4CHTO  H146 1415   6.940   7.728   0.867
    4CHTO   O54 1416   7.083   7.585   0.840
    4CHTO  H133 1417   7.029   7.530   0.787
    4CHTO   C75 1418   6.916   7.578   1.031
    4CHTO  H147 1419   6.853   7.646   1.089
    4CHTO   N13 1420   6.823   7.484   0.964
    4CHTO  H139 1421   6.754   7.539   0.901
    4CHTO  H140 1422   6.766   7.429   1.037
    4CHTO   C76 1423   7.012   7.502   1.134
    4CHTO  H148 1424   7.069   7.426   1.080
    4CHTO   O49 1425   7.103   7.596   1.199
    4CHTO   C77 1426   7.185   7.671   1.109
    4CHTO  H149 1427   7.247   7.602   1.051
    4CHTO   C88 1428   7.282   7.755   1.193
    4CHTO   O58 1429   7.375   7.831   1.108
    4CHTO  H136 1430   7.433   7.881   1.162
    4CHTO   O51 1431   6.928   7.443   1.256
    4CHTO   C78 1432   6.977   7.297   1.316
    4CHTO  H150 1433   6.937   7.284   1.419
    4CHTO   C80 1434   7.130   7.279   1.320
    4CHTO  H152 1435   7.170   7.283   1.216
    4CHTO   O55 1436   7.184   7.390   1.396
    4CHTO  H134 1437   7.174   7.470   1.348
    4CHTO   C84 1438   7.168   7.141   1.387
    4CHTO  H156 1439   7.132   7.144   1.490
    4CHTO   N15 1440   7.316   7.118   1.394
    4CHTO  H143 1441   7.358   7.115   1.295
    4CHTO  H144 1442   7.337   7.025   1.443
    4CHTO   C87 1443   7.095   7.025   1.314
    4CHTO  H159 1444   7.143   7.005   1.218
    4CHTO   O53 1445   6.941   7.057   1.292
    4CHTO   C82 1446   6.915   7.184   1.232
    4CHTO  H154 1447   6.954   7.186   1.130
    4CHTO   C89 1448   6.762   7.205   1.222
    4CHTO   O59 1449   6.703   7.121   1.123
    4CHTO  H137 1450   6.611   7.137   1.119
    4CHTO   O45 1451   7.103   6.896   1.406
    4CHTO   C67 1452   7.084   6.769   1.341
    4CHTO  H124 1453   7.092   6.777   1.232
    4CHTO   C65 1454   7.190   6.669   1.395
    4CHTO  H122 1455   7.286   6.720   1.383
    4CHTO   O44 1456   7.193   6.548   1.316
    4CHTO  H102 1457   7.113   6.500   1.329
    4CHTO   C63 1458   7.170   6.652   1.549
    4CHTO  H120 1459   7.177   6.750   1.596
    4CHTO   N11 1460   7.279   6.579   1.621
    4CHTO  H108 1461   7.374   6.621   1.596
    4CHTO  H109 1462   7.264   6.584   1.727
    4CHTO   C61 1463   7.024   6.601   1.581
    4CHTO  H118 1464   7.011   6.624   1.688
    4CHTO   O40 1465   6.920   6.677   1.511
    4CHTO   C68 1466   6.938   6.718   1.371
    4CHTO  H125 1467   6.870   6.805   1.355
    4CHTO   C72 1468   6.891   6.607   1.273
    4CHTO   O48 1469   6.750   6.585   1.277
    4CHTO  H105 1470   6.727   6.539   1.355
    4CHTO   O38 1471   7.000   6.460   1.558
    4CHTO   C55 1472   6.934   6.389   1.666
    4CHTO  H112 1473   6.910   6.457   1.749
    4CHTO   C56 1474   7.022   6.266   1.714
    4CHTO  H113 1475   7.040   6.202   1.626
    4CHTO   O42 1476   7.151   6.312   1.758
    4CHTO  H100 1477   7.142   6.370   1.831
    4CHTO   C57 1478   6.948   6.184   1.827
    4CHTO  H114 1479   6.943   6.250   1.914
    4CHTO   N10 1480   7.018   6.061   1.870
    4CHTO  H106 1481   6.995   6.039   1.973
    4CHTO  H107 1482   7.125   6.073   1.859
    4CHTO   C58 1483   6.802   6.151   1.784
    4CHTO  H115 1484   6.804   6.073   1.704
    4CHTO   O37 1485   6.734   6.268   1.735
    4CHTO   C59 1486   6.796   6.332   1.622
    4CHTO  H116 1487   6.807   6.261   1.540
    4CHTO   C70 1488   6.702   6.445   1.576
    4CHTO   O46 1489   6.582   6.397   1.515
    4CHTO  H103 1490   6.602   6.355   1.434
    4CHTO   O39 1491   6.717   6.097   1.915
    4CHTO   C60 1492   6.578   6.068   1.889
    4CHTO  H117 1493   6.545   6.119   1.799
    4CHTO   C62 1494   6.556   5.915   1.868
    4CHTO  H119 1495   6.620   5.886   1.782
    4CHTO   O43 1496   6.602   5.843   1.984
    4CHTO  H101 1497   6.695   5.850   1.993
    4CHTO   C66 1498   6.402   5.889   1.832
    4CHTO  H123 1499   6.378   5.946   1.743
    4CHTO   N12 1500   6.375   5.747   1.798
    4CHTO  H110 1501   6.271   5.735   1.771
    4CHTO  H111 1502   6.401   5.683   1.881
    4CHTO   C69 1503   6.311   5.941   1.947
    4CHTO  H126 1504   6.328   5.880   2.039
    4CHTO   O41 1505   6.345   6.092   1.977
    4CHTO   C64 1506   6.490   6.120   2.006
    4CHTO  H121 1507   6.519   6.070   2.101
    4CHTO   C71 1508   6.503   6.273   2.027
    4CHTO   O47 1509   6.631   6.309   2.080
    4CHTO  H104 1510   6.636   6.402   2.089
    4CHTO   O34 1511   6.158   5.929   1.907
    4CHTO   C49 1512   6.045   6.032   1.885
    4CHTO   H91 1513   6.020   6.073   1.983
    4CHTO   C47 1514   5.923   5.958   1.826
    4CHTO   H89 1515   5.843   6.035   1.821
    4CHTO   O33 1516   5.879   5.854   1.915
    4CHTO   H70 1517   5.945   5.788   1.925
    4CHTO   C45 1518   5.957   5.898   1.679
    4CHTO   H87 1519   5.999   5.797   1.691
    4CHTO    N8 1520   5.830   5.887   1.602
    4CHTO   H75 1521   5.838   5.939   1.508
    4CHTO   H76 1522   5.807   5.783   1.584
    4CHTO   C43 1523   6.075   5.984   1.609
    4CHTO   H85 1524   6.167   5.942   1.650
    4CHTO   O29 1525   6.061   6.123   1.645
    4CHTO   C50 1526   6.083   6.148   1.786
    4CHTO   H92 1527   6.190   6.172   1.799
    4CHTO   C54 1528   6.012   6.280   1.822
    4CHTO   O36 1529   6.044   6.328   1.953
    4CHTO   H72 1530   6.008   6.270   2.017
    4CHTO   O27 1531   6.087   5.966   1.467
    4CHTO   C37 1532   6.202   5.935   1.385
    4CHTO   H79 1533   6.174   5.940   1.279
    4CHTO   C38 1534   6.316   6.040   1.407
    4CHTO   H80 1535   6.328   6.056   1.516
    4CHTO   O31 1536   6.272   6.163   1.348
    4CHTO   H68 1537   6.334   6.232   1.367
    4CHTO   C39 1538   6.454   5.992   1.348
    4CHTO   H81 1539   6.445   5.990   1.239
    4CHTO    N7 1540   6.569   6.083   1.381
    4CHTO   H73 1541   6.536   6.166   1.441
    4CHTO   H74 1542   6.616   6.119   1.290
    4CHTO   C40 1543   6.483   5.845   1.395
    4CHTO   H82 1544   6.491   5.845   1.505
    4CHTO   O26 1545   6.376   5.761   1.350
    4CHTO   C41 1546   6.250   5.790   1.417
    4CHTO   H83 1547   6.264   5.780   1.526
    4CHTO   C52 1548   6.146   5.685   1.373
    4CHTO   O35 1549   6.182   5.548   1.416
    4CHTO   H71 1550   6.259   5.520   1.370
    4CHTO   O28 1551   6.603   5.786   1.341
    4CHTO   C42 1552   6.677   5.688   1.421
    4CHTO   H84 1553   6.744   5.641   1.349
    4CHTO   C44 1554   6.592   5.571   1.482
    4CHTO   H86 1555   6.509   5.615   1.539
    4CHTO   O32 1556   6.537   5.499   1.371
    4CHTO   H69 1557   6.470   5.550   1.328
    4CHTO   C48 1558   6.673   5.478   1.581
    4CHTO   H90 1559   6.750   5.426   1.524
    4CHTO    N9 1560   6.587   5.371   1.642
    4CHTO   H77 1561   6.546   5.308   1.565
    4CHTO   H78 1562   6.508   5.416   1.700
    4CHTO   C51 1563   6.742   5.570   1.688
    4CHTO   H93 1564   6.664   5.628   1.737
    4CHTO   O30 1565   6.837   5.653   1.620
    4CHTO   C46 1566   6.768   5.757   1.528
    4CHTO   H88 1567   6.707   5.823   1.590
    4CHTO   C53 1568   6.878   5.840   1.458
    4CHTO   O72 1569   6.959   5.912   1.552
    4CHTO  H199 1570   7.012   5.852   1.601
    4CHTO   O22 1571   6.819   5.497   1.786
    4CHTO   C31 1572   6.820   5.544   1.925
    4CHTO   H59 1573   6.803   5.654   1.921
    4CHTO   C29 1574   6.710   5.485   2.015
    4CHTO   H57 1575   6.727   5.376   2.020
    4CHTO   O21 1576   6.582   5.505   1.953
    4CHTO   H37 1577   6.515   5.457   1.999
    4CHTO   C27 1578   6.714   5.545   2.162
    4CHTO   H55 1579   6.685   5.651   2.156
    4CHTO    N5 1580   6.621   5.475   2.255
    4CHTO   H43 1581   6.521   5.477   2.214
    4CHTO   H44 1582   6.622   5.524   2.351
    4CHTO   C25 1583   6.861   5.542   2.218
    4CHTO   H53 1584   6.889   5.439   2.243
    4CHTO   O17 1585   6.958   5.592   2.121
    4CHTO   C32 1586   6.958   5.524   1.995
    4CHTO   H60 1587   6.974   5.418   2.011
    4CHTO   C36 1588   7.076   5.577   1.910
    4CHTO   O25 1589   7.066   5.718   1.884
    4CHTO   H40 1590   7.079   5.766   1.963
    4CHTO   O15 1591   6.872   5.630   2.349
    4CHTO   C19 1592   6.921   5.763   2.383
    4CHTO   H47 1593   6.918   5.764   2.493
    4CHTO   C20 1594   7.068   5.789   2.337
    4CHTO   H48 1595   7.078   5.785   2.228
    4CHTO   O19 1596   7.150   5.684   2.393
    4CHTO   H35 1597   7.149   5.687   2.487
    4CHTO   C21 1598   7.119   5.931   2.385
    4CHTO   H49 1599   7.125   5.931   2.494
    4CHTO    N4 1600   7.255   5.965   2.335
    4CHTO   H41 1601   7.326   5.893   2.374
    4CHTO   H42 1602   7.257   5.961   2.227
    4CHTO   C22 1603   7.014   6.040   2.348
    4CHTO   H50 1604   7.016   6.059   2.240
    4CHTO   O14 1605   6.881   6.003   2.389
    4CHTO   C23 1606   6.831   5.880   2.335
    4CHTO   H51 1607   6.830   5.889   2.225
    4CHTO   C34 1608   6.686   5.862   2.383
    4CHTO   O23 1609   6.601   5.965   2.331
    4CHTO   H38 1610   6.624   6.048   2.369
    4CHTO   O16 1611   7.044   6.160   2.421
    4CHTO   C24 1612   6.955   6.288   2.396
    4CHTO   H52 1613   6.897   6.280   2.304
    4CHTO   C26 1614   7.052   6.408   2.393
    4CHTO   H54 1615   7.128   6.391   2.312
    4CHTO   O20 1616   6.984   6.528   2.354
    4CHTO   H36 1617   6.914   6.548   2.413
    4CHTO   C30 1618   7.122   6.434   2.531
    4CHTO   H58 1619   7.118   6.541   2.555
    4CHTO    N6 1620   7.266   6.399   2.529
    4CHTO   H45 1621   7.326   6.485   2.555
    4CHTO   H46 1622   7.289   6.318   2.597
    4CHTO   C33 1623   7.044   6.363   2.647
    4CHTO   H61 1624   7.068   6.255   2.645
    4CHTO   O18 1625   6.903   6.379   2.624
    4CHTO   C28 1626   6.852   6.299   2.515
    4CHTO   H56 1627   6.833   6.199   2.553
    4CHTO   C35 1628   6.714   6.353   2.469
    4CHTO   O24 1629   6.713   6.491   2.430
    4CHTO   H39 1630   6.734   6.545   2.504
    4CHTO    O9 1631   7.083   6.409   2.778
    4CHTO   C13 1632   7.152   6.288   2.869
    4CHTO   H26 1633   7.230   6.240   2.806
    4CHTO   C11 1634   7.039   6.185   0.030
    4CHTO   H24 1635   7.003   6.134   2.821
    4CHTO    O8 1636   6.928   6.255   0.089
    4CHTO    H3 1637   6.859   6.195   0.108
    4CHTO    C9 1638   7.105   6.081   0.124
    4CHTO   H22 1639   7.190   6.039   0.067
    4CHTO    N2 1640   7.018   5.963   0.148
    4CHTO   H10 1641   6.934   5.991   0.209
    4CHTO   H11 1642   7.075   5.884   0.196
    4CHTO    C7 1643   7.164   6.153   0.253
    4CHTO   H20 1644   7.267   6.112   0.260
    4CHTO    O4 1645   7.172   6.297   0.239
    4CHTO   C14 1646   7.230   6.343   0.115
    4CHTO   H27 1647   7.334   6.306   0.110
    4CHTO   C18 1648   7.237   6.497   0.118
    4CHTO   O13 1649   7.322   6.543   0.224
    4CHTO    H7 1650   7.325   6.637   0.223
    4CHTO    O2 1651   7.084   6.121   0.393
    4CHTO    C1 1652   7.171   6.084   0.500
    4CHTO   H14 1653   7.273   6.127   0.484
    4CHTO    C2 1654   7.185   5.927   0.516
    4CHTO   H15 1655   7.083   5.888   0.525
    4CHTO    O6 1656   7.248   5.872   0.399
    4CHTO    H1 1657   7.191   5.882   0.324
    4CHTO    C3 1658   7.270   5.889   0.648
    4CHTO   H16 1659   7.375   5.917   0.630
    4CHTO    N1 1660   7.268   5.742   0.676
    4CHTO    H8 1661   7.166   5.708   0.691
    4CHTO    H9 1662   7.312   5.688   0.594
    4CHTO    C4 1663   7.223   5.974   0.772
    4CHTO   H17 1664   7.128   5.935   0.809
    4CHTO    O1 1665   7.211   6.114   0.741
    4CHTO    C5 1666   7.120   6.144   0.634
    4CHTO   H18 1667   7.023   6.099   0.656
    4CHTO   C16 1668   7.101   6.298   0.626
    4CHTO   O11 1669   7.223   6.367   0.597
    4CHTO    H5 1670   7.207   6.459   0.591
    4CHTO    O3 1671   7.324   5.969   0.875
    4CHTO    C6 1672   7.277   5.980   1.014
    4CHTO   H19 1673   7.174   6.016   1.021
    4CHTO    C8 1674   7.286   5.840   1.083
    4CHTO   H21 1675   7.386   5.800   1.067
    4CHTO    O7 1676   7.190   5.754   1.018
    4CHTO    H2 1677   7.197   5.667   1.051
    4CHTO   C12 1678   7.260   5.851   1.239
    4CHTO   H25 1679   7.153   5.880   1.250
    4CHTO    N3 1680   7.277   5.719   1.307
    4CHTO   H12 1681   7.259   5.730   1.413
    4CHTO   H13 1682   7.209   5.646   1.265
    4CHTO   C15 1683   7.350   5.965   1.299
    4CHTO   H28 1684   7.456   5.937   1.297
    4CHTO   O10 1685   7.309   6.003   1.444
    4CHTO    H4 1686   7.375   6.057   1.482
    4CHTO    O5 1687   7.330   6.088   1.228
    4CHTO   C10 1688   7.367   6.082   1.090
    4CHTO   H23 1689   7.471   6.051   1.083
    4CHTO   C17 1690   7.356   6.223   1.030
    4CHTO   O12 1691   7.451   6.311   1.090
    4CHTO    H6 1692   7.445   6.396   1.050
    5CHTO  H203 1693   6.749   3.772   2.557
    5CHTO   O82 1694   6.656   3.782   2.571
    5CHTO  C123 1695   6.617   3.710   2.689
    5CHTO  H227 1696   6.674   3.748   2.775
    5CHTO   O77 1697   6.476   3.745   2.702
    5CHTO  C118 1698   6.413   3.693   2.821
    5CHTO  H222 1699   6.465   3.730   0.028
    5CHTO  C125 1700   6.265   3.745   2.823
    5CHTO   O84 1701   6.259   3.888   2.835
    5CHTO  H205 1702   6.293   3.928   2.758
    5CHTO  C114 1703   6.416   3.540   2.820
    5CHTO  H218 1704   6.356   3.504   2.736
    5CHTO  C116 1705   6.560   3.484   2.798
    5CHTO  H220 1706   6.620   3.500   0.009
    5CHTO   O79 1707   6.550   3.341   2.781
    5CHTO  H201 1708   6.522   3.300   2.861
    5CHTO  C120 1709   6.631   3.553   2.675
    5CHTO  H224 1710   6.576   3.519   2.584
    5CHTO   N21 1711   6.773   3.512   2.660
    5CHTO  H211 1712   6.816   3.489   2.756
    5CHTO  H212 1713   6.779   3.426   2.595
    5CHTO   O75 1714   6.359   3.503   0.065
    5CHTO  C112 1715   6.241   3.383   0.070
    5CHTO  H216 1716   6.288   3.289   0.104
    5CHTO   O73 1717   6.185   3.369   2.820
    5CHTO  C113 1718   6.082   3.269   2.810
    5CHTO  H217 1719   6.123   3.172   2.844
    5CHTO  C124 1720   6.044   3.251   2.662
    5CHTO   O83 1721   5.996   3.371   2.599
    5CHTO  H204 1722   5.913   3.396   2.636
    5CHTO  C109 1723   5.961   3.309   0.016
    5CHTO  H213 1724   5.922   3.404   2.857
    5CHTO  C110 1725   6.007   3.329   0.163
    5CHTO  H214 1726   6.035   3.231   0.204
    5CHTO   O78 1727   5.895   3.378   0.239
    5CHTO  H200 1728   5.917   3.383   0.330
    5CHTO  C111 1729   6.128   3.426   0.171
    5CHTO  H215 1730   6.095   3.527   0.141
    5CHTO   N19 1731   6.184   3.440   0.308
    5CHTO  H207 1732   6.110   3.481   0.374
    5CHTO  H208 1733   6.215   3.343   0.345
    5CHTO   O74 1734   5.857   3.207   0.008
    5CHTO  C115 1735   5.710   3.262   2.856
    5CHTO  H219 1736   5.710   3.370   2.840
    5CHTO   O76 1737   5.655   3.201   2.726
    5CHTO  C122 1738   5.661   3.058   2.725
    5CHTO  H226 1739   5.764   3.030   2.704
    5CHTO  C126 1740   5.577   3.005   2.603
    5CHTO   O85 1741   5.440   3.046   2.607
    5CHTO  H206 1742   5.397   3.007   2.681
    5CHTO  C121 1743   5.614   2.991   2.862
    5CHTO  H225 1744   5.547   2.906   2.837
    5CHTO   O81 1745   5.727   2.936   0.049
    5CHTO  H202 1746   5.699   2.885   0.122
    5CHTO  C119 1747   5.535   3.093   0.070
    5CHTO  H223 1748   5.447   3.119   0.010
    5CHTO  C117 1749   5.617   3.225   0.097
    5CHTO  H221 1750   5.686   3.218   0.181
    5CHTO   N20 1751   5.525   3.338   0.133
    5CHTO  H209 1752   5.582   3.426   0.158
    5CHTO  H210 1753   5.463   3.310   0.217
    5CHTO   O80 1754   5.467   3.033   0.203
    5CHTO  C103 1755   5.406   2.889   0.203
    5CHTO  H190 1756   5.415   2.842   0.105
    5CHTO  C101 1757   5.468   2.793   0.312
    5CHTO  H188 1758   5.469   2.844   0.408
    5CHTO   O68 1759   5.615   2.760   0.272
    5CHTO  H168 1760   5.666   2.839   0.270
    5CHTO   C99 1761   5.379   2.660   0.327
    5CHTO  H186 1762   5.380   2.604   0.230
    5CHTO   N17 1763   5.427   2.565   0.432
    5CHTO  H174 1764   5.423   2.613   0.529
    5CHTO  H175 1765   5.528   2.533   0.409
    5CHTO   C97 1766   5.231   2.700   0.349
    5CHTO  H184 1767   5.224   2.753   0.446
    5CHTO   O64 1768   5.186   2.782   0.240
    5CHTO  C104 1769   5.252   2.910   0.231
    5CHTO  H191 1770   5.239   2.969   0.322
    5CHTO  C108 1771   5.187   2.991   0.118
    5CHTO   O71 1772   5.048   3.013   0.143
    5CHTO  H171 1773   5.011   3.062   0.072
    5CHTO   O62 1774   5.141   2.587   0.347
    5CHTO   C91 1775   5.024   2.597   0.430
    5CHTO  H178 1776   5.056   2.633   0.528
    5CHTO   C92 1777   4.968   2.453   0.453
    5CHTO  H179 1778   5.049   2.388   0.491
    5CHTO   O66 1779   4.872   2.457   0.560
    5CHTO  H166 1780   4.800   2.514   0.539
    5CHTO   C93 1781   4.898   2.393   0.325
    5CHTO  H180 1782   4.820   2.322   0.359
    5CHTO   N16 1783   4.989   2.311   0.241
    5CHTO  H172 1784   5.026   2.227   0.298
    5CHTO  H173 1785   5.071   2.372   0.206
    5CHTO   C94 1786   4.829   2.507   0.241
    5CHTO  H181 1787   4.895   2.548   0.164
    5CHTO   O61 1788   4.794   2.618   0.326
    5CHTO   C95 1789   4.908   2.692   0.372
    5CHTO  H182 1790   4.947   2.751   0.289
    5CHTO  C106 1791   4.858   2.796   0.479
    5CHTO   O69 1792   4.964   2.884   0.520
    5CHTO  H169 1793   5.028   2.836   0.568
    5CHTO   O63 1794   4.696   2.454   0.175
    5CHTO   C96 1795   4.712   2.432   0.019
    5CHTO  H183 1796   4.814   2.398   2.881
    5CHTO   C98 1797   4.686   2.557   2.812
    5CHTO  H185 1798   4.586   2.598   2.834
    5CHTO   O67 1799   4.779   2.660   2.850
    5CHTO  H167 1800   4.760   2.692   0.054
    5CHTO  C102 1801   4.700   2.523   2.655
    5CHTO  H189 1802   4.807   2.503   2.638
    5CHTO   N18 1803   4.664   2.634   2.563
    5CHTO  H176 1804   4.561   2.663   2.578
    5CHTO  H177 1805   4.679   2.604   2.461
    5CHTO  C105 1806   4.622   2.392   2.621
    5CHTO  H192 1807   4.515   2.413   2.619
    5CHTO   O65 1808   4.644   2.286   2.716
    5CHTO  C100 1809   4.615   2.319   2.853
    5CHTO  H187 1810   4.511   2.355   2.859
    5CHTO  C107 1811   4.626   2.191   0.058
    5CHTO   O70 1812   4.526   2.096   0.021
    5CHTO  H170 1813   4.530   2.022   0.079
    5CHTO   O57 1814   4.676   2.345   2.469
    5CHTO   C85 1815   4.692   2.206   2.438
    5CHTO  H157 1816   4.623   2.151   2.506
    5CHTO   C83 1817   4.836   2.160   2.477
    5CHTO  H155 1818   4.850   2.178   2.584
    5CHTO   O56 1819   4.934   2.242   2.409
    5CHTO  H135 1820   4.927   2.331   2.438
    5CHTO   C81 1821   4.849   2.008   2.449
    5CHTO  H153 1822   4.773   1.957   2.508
    5CHTO   N14 1823   4.977   1.951   2.500
    5CHTO  H141 1824   4.975   1.844   2.490
    5CHTO  H142 1825   5.059   1.990   2.444
    5CHTO   C79 1826   4.822   1.977   2.296
    5CHTO  H151 1827   4.819   1.868   2.286
    5CHTO   O52 1828   4.690   2.027   2.256
    5CHTO   C86 1829   4.667   2.169   2.287
    5CHTO  H158 1830   4.737   2.223   2.220
    5CHTO   C90 1831   4.525   2.210   2.241
    5CHTO   O60 1832   4.422   2.136   2.308
    5CHTO  H138 1833   4.418   2.161   2.399
    5CHTO   O50 1834   4.923   2.028   2.208
    5CHTO   C73 1835   4.959   2.021   2.069
    5CHTO  H145 1836   4.870   2.030   2.006
    5CHTO   C74 1837   5.031   1.887   2.034
    5CHTO  H146 1838   4.961   1.805   2.059
    5CHTO   O54 1839   5.049   1.881   1.891
    5CHTO  H133 1840   5.106   1.949   1.862
    5CHTO   C75 1841   5.166   1.877   2.116
    5CHTO  H147 1842   5.140   1.867   2.223
    5CHTO   N13 1843   5.247   1.756   2.085
    5CHTO  H139 1844   5.336   1.755   2.146
    5CHTO  H140 1845   5.190   1.667   2.107
    5CHTO   C76 1846   5.253   2.011   2.101
    5CHTO  H148 1847   5.298   2.012   2.001
    5CHTO   O49 1848   5.172   2.132   2.119
    5CHTO   C77 1849   5.056   2.139   2.036
    5CHTO  H149 1850   5.084   2.133   1.931
    5CHTO   C88 1851   4.990   2.275   2.054
    5CHTO   O58 1852   4.875   2.293   1.963
    5CHTO  H136 1853   4.837   2.378   1.976
    5CHTO   O51 1854   5.361   2.013   2.218
    5CHTO   C78 1855   5.452   2.138   2.223
    5CHTO  H150 1856   5.411   2.221   2.162
    5CHTO   C80 1857   5.593   2.102   2.168
    5CHTO  H152 1858   5.628   2.009   2.220
    5CHTO   O55 1859   5.579   2.070   2.029
    5CHTO  H134 1860   5.551   2.146   1.980
    5CHTO   C84 1861   5.697   2.219   2.195
    5CHTO  H156 1862   5.666   2.305   2.136
    5CHTO   N15 1863   5.836   2.184   2.150
    5CHTO  H143 1864   5.837   2.165   2.045
    5CHTO  H144 1865   5.870   2.096   2.202
    5CHTO   C87 1866   5.692   2.256   2.345
    5CHTO  H159 1867   5.722   2.169   2.404
    5CHTO   O53 1868   5.549   2.296   2.379
    5CHTO   C82 1869   5.459   2.186   2.369
    5CHTO  H154 1870   5.491   2.105   2.434
    5CHTO   C89 1871   5.319   2.230   2.418
    5CHTO   O59 1872   5.321   2.264   2.557
    5CHTO  H137 1873   5.337   2.188   2.609
    5CHTO   O45 1874   5.785   2.380   2.384
    5CHTO   C67 1875   5.815   2.384   2.525
    5CHTO  H124 1876   5.771   2.299   2.576
    5CHTO   C65 1877   5.970   2.381   2.549
    5CHTO  H122 1878   6.013   2.329   2.463
    5CHTO   O44 1879   5.998   2.308   2.669
    5CHTO  H102 1880   5.972   2.218   2.660
    5CHTO   C63 1881   6.026   2.527   2.546
    5CHTO  H120 1882   5.989   2.577   2.456
    5CHTO   N11 1883   6.175   2.538   2.528
    5CHTO  H108 1884   6.199   2.581   2.433
    5CHTO  H109 1885   6.218   2.598   2.606
    5CHTO   C61 1886   5.966   2.607   2.669
    5CHTO  H118 1887   5.971   2.714   2.643
    5CHTO   O40 1888   5.827   2.576   2.694
    5CHTO   C68 1889   5.748   2.514   2.588
    5CHTO  H125 1890   5.733   2.590   2.509
    5CHTO   C72 1891   5.609   2.483   2.648
    5CHTO   O48 1892   5.612   2.395   2.761
    5CHTO  H105 1893   5.653   2.438   2.834
    5CHTO   O38 1894   6.033   2.580   2.794
    5CHTO   C55 1895   6.002   2.668   0.022
    5CHTO  H112 1896   5.902   2.712   0.007
    5CHTO   C56 1897   6.115   2.778   0.035
    5CHTO  H113 1898   6.212   2.726   0.035
    5CHTO   O42 1899   6.113   2.863   2.801
    5CHTO  H100 1900   6.134   2.813   2.724
    5CHTO   C57 1901   6.097   2.863   0.168
    5CHTO  H114 1902   6.005   2.921   0.157
    5CHTO   N10 1903   6.208   2.959   0.192
    5CHTO  H106 1904   6.185   3.054   0.145
    5CHTO  H107 1905   6.301   2.921   0.152
    5CHTO   C58 1906   6.081   2.767   0.288
    5CHTO  H115 1907   6.176   2.709   0.301
    5CHTO   O37 1908   5.973   2.675   0.265
    5CHTO   C59 1909   5.990   2.585   0.154
    5CHTO  H116 1910   6.078   2.523   0.170
    5CHTO   C70 1911   5.867   2.493   0.154
    5CHTO   O46 1912   5.879   2.384   0.062
    5CHTO  H103 1913   5.801   2.332   0.065
    5CHTO   O39 1914   6.050   2.855   0.433
    5CHTO   C60 1915   5.914   2.850   0.480
    5CHTO  H117 1916   5.847   2.830   0.397
    5CHTO   C62 1917   5.897   2.737   0.586
    5CHTO  H119 1918   5.932   2.643   0.537
    5CHTO   O43 1919   5.981   2.764   0.700
    5CHTO  H101 1920   5.973   2.694   0.762
    5CHTO   C66 1921   5.742   2.724   0.621
    5CHTO  H123 1922   5.687   2.704   0.529
    5CHTO   N12 1923   5.713   2.608   0.710
    5CHTO  H110 1924   5.607   2.600   0.728
    5CHTO  H111 1925   5.768   2.619   0.802
    5CHTO   C69 1926   5.689   2.858   0.678
    5CHTO  H126 1927   5.731   2.877   0.780
    5CHTO   O41 1928   5.726   2.979   0.584
    5CHTO   C64 1929   5.871   2.986   0.541
    5CHTO  H121 1930   5.936   3.010   0.628
    5CHTO   C71 1931   5.885   3.100   0.437
    5CHTO   O47 1932   5.852   3.226   0.496
    5CHTO  H104 1933   5.853   3.292   0.430
    5CHTO   O34 1934   5.539   2.855   0.688
    5CHTO   C49 1935   5.448   2.923   0.781
    5CHTO   H91 1936   5.503   3.007   0.823
    5CHTO   C47 1937   5.410   2.822   0.891
    5CHTO   H89 1938   5.350   2.879   0.966
    5CHTO   O33 1939   5.530   2.775   0.957
    5CHTO   H70 1940   5.583   2.726   0.897
    5CHTO   C45 1941   5.321   2.706   0.824
    5CHTO   H87 1942   5.375   2.667   0.736
    5CHTO    N8 1943   5.292   2.592   0.915
    5CHTO   H75 1944   5.385   2.550   0.951
    5CHTO   H76 1945   5.235   2.517   0.863
    5CHTO   C43 1946   5.189   2.775   0.766
    5CHTO   H85 1947   5.129   2.696   0.722
    5CHTO   O29 1948   5.224   2.876   0.670
    5CHTO   C50 1949   5.322   2.976   0.707
    5CHTO   H92 1950   5.356   3.022   0.613
    5CHTO   C54 1951   5.256   3.094   0.782
    5CHTO   O36 1952   5.157   3.159   0.701
    5CHTO   H72 1953   5.122   3.233   0.746
    5CHTO   O27 1954   5.108   2.833   0.871
    5CHTO   C37 1955   5.013   2.823   0.978
    5CHTO   H79 1956   5.043   2.744   1.048
    5CHTO   C38 1957   5.006   2.957   1.058
    5CHTO   H80 1958   4.995   3.040   0.986
    5CHTO   O31 1959   5.132   2.973   1.126
    5CHTO   H68 1960   5.201   2.990   1.065
    5CHTO   C39 1961   4.885   2.959   1.159
    5CHTO   H81 1962   4.904   2.882   1.234
    5CHTO    N7 1963   4.869   3.090   1.233
    5CHTO   H73 1964   4.946   3.160   1.205
    5CHTO   H74 1965   4.873   3.073   1.340
    5CHTO   C40 1966   4.752   2.920   1.083
    5CHTO   H82 1967   4.730   2.999   1.011
    5CHTO   O26 1968   4.771   2.794   1.018
    5CHTO   C41 1969   4.875   2.787   0.917
    5CHTO   H83 1970   4.852   2.856   0.836
    5CHTO   C52 1971   4.871   2.643   0.859
    5CHTO   O35 1972   4.893   2.536   0.963
    5CHTO   H71 1973   4.887   2.452   0.922
    5CHTO   O28 1974   4.634   2.909   1.167
    5CHTO   C42 1975   4.586   2.791   1.240
    5CHTO   H84 1976   4.498   2.830   1.292
    5CHTO   C44 1977   4.681   2.736   1.352
    5CHTO   H86 1978   4.779   2.715   1.308
    5CHTO   O32 1979   4.699   2.841   1.449
    5CHTO   H69 1980   4.617   2.861   1.491
    5CHTO   C48 1981   4.628   2.601   1.417
    5CHTO   H90 1982   4.535   2.621   1.470
    5CHTO    N9 1983   4.723   2.544   1.518
    5CHTO   H77 1984   4.682   2.453   1.559
    5CHTO   H78 1985   4.739   2.616   1.597
    5CHTO   C51 1986   4.599   2.503   1.298
    5CHTO   H93 1987   4.691   2.498   1.239
    5CHTO   O30 1988   4.490   2.560   1.224
    5CHTO   C46 1989   4.536   2.676   1.146
    5CHTO   H88 1990   4.617   2.640   1.082
    5CHTO   C53 1991   4.419   2.724   1.056
    5CHTO   O72 1992   4.388   2.624   0.958
    5CHTO  H199 1993   4.321   2.656   0.901
    5CHTO   O22 1994   4.553   2.370   1.331
    5CHTO   C31 1995   4.600   2.259   1.244
    5CHTO   H59 1996   4.535   2.172   1.271
    5CHTO   C29 1997   4.582   2.283   1.092
    5CHTO   H57 1998   4.624   2.382   1.069
    5CHTO   O21 1999   4.441   2.292   1.064
    5CHTO   H37 2000   4.404   2.366   1.107
    5CHTO   C27 2001   4.655   2.176   1.001
    5CHTO   H55 2002   4.602   2.080   1.011
    5CHTO    N5 2003   4.656   2.214   0.857
    5CHTO   H43 2004   4.555   2.225   0.821
    5CHTO   H44 2005   4.709   2.307   0.844
    5CHTO   C25 2006   4.800   2.155   1.055
    5CHTO   H53 2007   4.854   2.251   1.049
    5CHTO   O17 2008   4.792   2.113   1.194
    5CHTO   C32 2009   4.745   2.216   1.281
    5CHTO   H60 2010   4.811   2.303   1.274
    5CHTO   C36 2011   4.752   2.162   1.426
    5CHTO   O25 2012   4.886   2.136   1.467
    5CHTO   H40 2013   4.921   2.063   1.420
    5CHTO   O15 2014   4.884   2.045   0.974
    5CHTO   C19 2015   5.023   2.024   1.015
    5CHTO   H47 2016   5.043   2.104   1.089
    5CHTO   C20 2017   5.048   1.887   1.084
    5CHTO   H48 2018   5.022   1.803   1.017
    5CHTO   O19 2019   4.961   1.882   1.198
    5CHTO   H35 2020   4.964   1.798   1.238
    5CHTO   C21 2021   5.198   1.871   1.131
    5CHTO   H49 2022   5.214   1.936   1.217
    5CHTO    N4 2023   5.229   1.733   1.179
    5CHTO   H41 2024   5.331   1.728   1.213
    5CHTO   H42 2025   5.215   1.662   1.098
    5CHTO   C22 2026   5.298   1.919   1.022
    5CHTO   H50 2027   5.309   1.842   0.945
    5CHTO   O14 2028   5.257   2.043   0.962
    5CHTO   C23 2029   5.127   2.044   0.901
    5CHTO   H51 2030   5.123   1.963   0.827
    5CHTO   C34 2031   5.113   2.179   0.829
    5CHTO   O23 2032   4.997   2.184   0.745
    5CHTO   H38 2033   5.008   2.125   0.673
    5CHTO   O16 2034   5.424   1.949   1.085
    5CHTO   C24 2035   5.544   1.977   0.987
    5CHTO   H52 2036   5.510   1.992   0.885
    5CHTO   C26 2037   5.641   1.857   0.993
    5CHTO   H54 2038   5.665   1.837   1.101
    5CHTO   O20 2039   5.573   1.742   0.941
    5CHTO   H36 2040   5.626   1.665   0.952
    5CHTO   C30 2041   5.774   1.887   0.917
    5CHTO   H58 2042   5.754   1.890   0.809
    5CHTO    N6 2043   5.874   1.778   0.937
    5CHTO   H45 2044   5.835   1.685   0.899
    5CHTO   H46 2045   5.897   1.767   1.042
    5CHTO   C33 2046   5.831   2.027   0.958
    5CHTO   H61 2047   5.861   2.024   1.064
    5CHTO   O18 2048   5.728   2.127   0.944
    5CHTO   C28 2049   5.616   2.107   1.031
    5CHTO   H56 2050   5.649   2.096   1.135
    5CHTO   C35 2051   5.522   2.229   1.022
    5CHTO   O24 2052   5.584   2.350   1.069
    5CHTO   H39 2053   5.525   2.421   1.060
    5CHTO    O9 2054   5.950   2.064   0.886
    5CHTO   C13 2055   5.933   2.092   0.727
    5CHTO   H26 2056   5.837   2.049   0.693
    5CHTO   C11 2057   6.056   2.025   0.655
    5CHTO   H24 2058   6.051   1.916   0.673
    5CHTO    O8 2059   6.180   2.071   0.712
    5CHTO    H3 2060   6.189   2.164   0.698
    5CHTO    C9 2061   6.043   2.050   0.502
    5CHTO   H22 2062   5.944   2.010   0.474
    5CHTO    N2 2063   6.139   1.972   0.420
    5CHTO   H10 2064   6.117   1.985   0.315
    5CHTO   H11 2065   6.240   2.004   0.442
    5CHTO    C7 2066   6.045   2.205   0.476
    5CHTO   H20 2067   6.013   2.214   0.370
    5CHTO    O4 2068   5.949   2.278   0.555
    5CHTO   C14 2069   5.924   2.248   0.694
    5CHTO   H27 2070   5.820   2.280   0.714
    5CHTO   C18 2071   6.017   2.338   0.780
    5CHTO   O13 2072   5.973   2.344   0.916
    5CHTO    H7 2073   6.026   2.404   0.964
    5CHTO    O2 2074   6.193   2.269   0.498
    5CHTO    C1 2075   6.235   2.369   0.403
    5CHTO   H14 2076   6.152   2.442   0.388
    5CHTO    C2 2077   6.278   2.312   0.261
    5CHTO   H15 2078   6.348   2.229   0.281
    5CHTO    O6 2079   6.163   2.260   0.192
    5CHTO    H1 2080   6.189   2.212   0.116
    5CHTO    C3 2081   6.351   2.425   0.173
    5CHTO   H16 2082   6.280   2.506   0.149
    5CHTO    N1 2083   6.401   2.372   0.041
    5CHTO    H8 2084   6.449   2.452   2.867
    5CHTO    H9 2085   6.319   2.333   2.866
    5CHTO    C4 2086   6.464   2.491   0.259
    5CHTO   H17 2087   6.540   2.416   0.282
    5CHTO    O1 2088   6.408   2.545   0.380
    5CHTO    C5 2089   6.353   2.447   0.468
    5CHTO   H18 2090   6.430   2.374   0.493
    5CHTO   C16 2091   6.311   2.520   0.599
    5CHTO   O11 2092   6.213   2.622   0.576
    5CHTO    H5 2093   6.252   2.692   0.527
    5CHTO    O3 2094   6.524   2.604   0.192
    5CHTO    C6 2095   6.665   2.626   0.226
    5CHTO   H19 2096   6.695   2.574   0.317
    5CHTO    C8 2097   6.757   2.580   0.110
    5CHTO   H21 2098   6.722   2.626   0.017
    5CHTO    O7 2099   6.745   2.436   0.100
    5CHTO    H2 2100   6.659   2.413   0.070
    5CHTO   C12 2101   6.907   2.624   0.135
    5CHTO   H25 2102   6.942   2.565   0.223
    5CHTO    N3 2103   6.995   2.587   0.020
    5CHTO   H12 2104   7.097   2.615   0.041
    5CHTO   H13 2105   6.961   2.636   2.812
    5CHTO   C15 2106   6.912   2.776   0.173
    5CHTO   H28 2107   6.888   2.839   0.087
    5CHTO   O10 2108   7.048   2.819   0.231
    5CHTO    H4 2109   7.115   2.807   0.166
    5CHTO    O5 2110   6.824   2.806   0.282
    5CHTO   C10 2111   6.686   2.778   0.254
    5CHTO   H23 2112   6.655   2.835   0.166
    5CHTO   C17 2113   6.600   2.828   0.371
    5CHTO   O12 2114   6.634   2.765   0.495
    5CHTO    H6 2115   6.610   2.674   0.493
    6CHTO  H203 2116   3.881   4.214   0.672
    6CHTO   O82 2117   3.868   4.279   0.738
    6CHTO  C123 2118   3.992   4.349   0.762
    6CHTO  H227 2119   4.023   4.399   0.669
    6CHTO   O77 2120   3.954   4.448   0.862
    6CHTO  C118 2121   4.059   4.538   0.898
    6CHTO  H222 2122   4.098   4.588   0.808
    6CHTO  C125 2123   3.999   4.647   0.994
    6CHTO   O84 2124   3.906   4.731   0.925
    6CHTO  H205 2125   3.829   4.681   0.903
    6CHTO  C114 2126   4.173   4.460   0.966
    6CHTO  H218 2127   4.135   4.414   1.057
    6CHTO  C116 2128   4.225   4.345   0.873
    6CHTO  H220 2129   4.280   4.391   0.787
    6CHTO   O79 2130   4.321   4.266   0.945
    6CHTO  H201 2131   4.399   4.316   0.962
    6CHTO  C120 2132   4.106   4.256   0.820
    6CHTO  H224 2133   4.067   4.200   0.907
    6CHTO   N21 2134   4.150   4.156   0.719
    6CHTO  H211 2135   4.252   4.125   0.739
    6CHTO  H212 2136   4.084   4.071   0.720
    6CHTO   O75 2137   4.273   4.559   0.998
    6CHTO  C112 2138   4.359   4.528   1.134
    6CHTO  H216 2139   4.371   4.419   1.146
    6CHTO   O73 2140   4.287   4.586   1.244
    6CHTO  C113 2141   4.349   4.562   1.372
    6CHTO  H217 2142   4.363   4.452   1.384
    6CHTO  C124 2143   4.249   4.608   1.480
    6CHTO   O83 2144   4.286   4.568   1.612
    6CHTO  H204 2145   4.278   4.475   1.621
    6CHTO  C109 2146   4.486   4.636   1.379
    6CHTO  H213 2147   4.465   4.743   1.370
    6CHTO  C110 2148   4.576   4.588   1.259
    6CHTO  H214 2149   4.607   4.485   1.279
    6CHTO   O78 2150   4.696   4.668   1.255
    6CHTO  H200 2151   4.749   4.652   1.331
    6CHTO  C111 2152   4.501   4.596   1.123
    6CHTO  H215 2153   4.486   4.702   1.097
    6CHTO   N19 2154   4.578   4.535   1.010
    6CHTO  H207 2155   4.523   4.546   0.918
    6CHTO  H208 2156   4.596   4.431   1.030
    6CHTO   O74 2157   4.548   4.609   1.508
    6CHTO  C115 2158   4.667   4.708   1.554
    6CHTO  H219 2159   4.697   4.776   1.474
    6CHTO   O76 2160   4.623   4.801   1.671
    6CHTO  C122 2161   4.570   4.731   1.784
    6CHTO  H226 2162   4.466   4.709   1.763
    6CHTO  C126 2163   4.569   4.831   1.905
    6CHTO   O85 2164   4.510   4.775   2.023
    6CHTO  H206 2165   4.512   4.838   2.093
    6CHTO  C121 2166   4.650   4.597   1.819
    6CHTO  H225 2167   4.662   4.592   1.928
    6CHTO   O81 2168   4.571   4.484   1.781
    6CHTO  H202 2169   4.491   4.481   1.831
    6CHTO  C119 2170   4.791   4.591   1.752
    6CHTO  H223 2171   4.847   4.673   1.799
    6CHTO  C117 2172   4.788   4.615   1.596
    6CHTO  H221 2173   4.773   4.524   1.538
    6CHTO   N20 2174   4.919   4.669   1.548
    6CHTO  H209 2175   4.999   4.602   1.576
    6CHTO  H210 2176   4.918   4.680   1.440
    6CHTO   O80 2177   4.880   4.461   1.794
    6CHTO  C103 2178   4.967   4.460   1.933
    6CHTO  H190 2179   5.041   4.379   1.927
    6CHTO  C101 2180   5.045   4.591   1.972
    6CHTO  H188 2181   4.975   4.675   1.973
    6CHTO   O68 2182   5.152   4.620   1.864
    6CHTO  H168 2183   5.216   4.552   1.863
    6CHTO   C99 2184   5.108   4.577   2.119
    6CHTO  H186 2185   5.176   4.490   2.122
    6CHTO   N17 2186   5.185   4.697   2.166
    6CHTO  H174 2187   5.264   4.719   2.096
    6CHTO  H175 2188   5.226   4.678   2.264
    6CHTO   C97 2189   4.991   4.542   2.215
    6CHTO  H184 2190   4.918   4.624   2.209
    6CHTO   O64 2191   4.933   4.416   2.175
    6CHTO  C104 2192   4.867   4.420   2.048
    6CHTO  H191 2193   4.785   4.492   2.051
    6CHTO  C108 2194   4.804   4.283   2.018
    6CHTO   O71 2195   4.705   4.249   2.116
    6CHTO  H171 2196   4.673   4.162   2.099
    6CHTO   O62 2197   5.029   4.515   2.352
    6CHTO   C91 2198   4.981   4.607   2.453
    6CHTO  H178 2199   5.035   4.700   2.437
    6CHTO   C92 2200   5.026   4.553   2.594
    6CHTO  H179 2201   5.134   4.531   2.592
    6CHTO   O66 2202   5.012   4.660   2.689
    6CHTO  H166 2203   5.073   4.729   2.671
    6CHTO   C93 2204   4.940   4.431   2.645
    6CHTO  H180 2205   4.934   4.437   2.754
    6CHTO   N16 2206   5.003   4.299   2.617
    6CHTO  H172 2207   4.942   4.220   2.657
    6CHTO  H173 2208   5.017   4.286   2.511
    6CHTO   C94 2209   4.794   4.437   2.586
    6CHTO  H181 2210   4.787   4.389   2.488
    6CHTO   O61 2211   4.755   4.575   2.567
    6CHTO   C95 2212   4.823   4.636   2.455
    6CHTO  H182 2213   4.778   4.599   2.363
    6CHTO  C106 2214   4.795   4.791   2.458
    6CHTO   O69 2215   4.655   4.819   2.441
    6CHTO  H169 2216   4.629   4.799   2.353
    6CHTO   O63 2217   4.693   4.372   2.683
    6CHTO   C96 2218   4.555   4.340   2.612
    6CHTO  H183 2219   4.563   4.363   2.506
    6CHTO   C98 2220   4.435   4.420   2.669
    6CHTO  H185 2221   4.427   4.403   2.777
    6CHTO   O67 2222   4.462   4.561   2.654
    6CHTO  H167 2223   4.469   4.584   2.563
    6CHTO  C102 2224   4.297   4.381   2.595
    6CHTO  H189 2225   4.301   4.432   2.498
    6CHTO   N18 2226   4.174   4.433   2.661
    6CHTO  H176 2227   4.166   4.392   2.761
    6CHTO  H177 2228   4.087   4.407   2.603
    6CHTO  C105 2229   4.291   4.227   2.569
    6CHTO  H192 2230   4.193   4.188   2.595
    6CHTO   O65 2231   4.388   4.151   2.644
    6CHTO  C100 2232   4.527   4.184   2.626
    6CHTO  H187 2233   4.580   4.150   2.717
    6CHTO  C107 2234   4.584   4.101   2.508
    6CHTO   O70 2235   4.724   4.124   2.488
    6CHTO  H170 2236   4.754   4.074   2.414
    6CHTO   O57 2237   4.312   4.211   2.408
    6CHTO   C85 2238   4.205   4.238   2.317
    6CHTO  H157 2239   4.148   4.324   2.358
    6CHTO   C83 2240   4.104   4.119   2.314
    6CHTO  H155 2241   4.064   4.105   2.415
    6CHTO   O56 2242   4.174   3.997   2.281
    6CHTO  H135 2243   4.236   3.975   2.349
    6CHTO   C81 2244   3.986   4.153   2.218
    6CHTO  H153 2245   3.937   4.243   2.256
    6CHTO   N14 2246   3.879   4.050   2.217
    6CHTO  H141 2247   3.789   4.088   2.260
    6CHTO  H142 2248   3.908   3.962   2.271
    6CHTO   C79 2249   4.040   4.184   2.074
    6CHTO  H151 2250   3.956   4.223   2.015
    6CHTO   O52 2251   4.141   4.291   2.077
    6CHTO   C86 2252   4.252   4.265   2.169
    6CHTO  H158 2253   4.303   4.176   2.126
    6CHTO   C90 2254   4.355   4.380   2.163
    6CHTO   O60 2255   4.415   4.388   2.033
    6CHTO  H138 2256   4.483   4.453   2.033
    6CHTO   O50 2257   4.094   4.070   2.006
    6CHTO   C73 2258   4.088   3.998   1.882
    6CHTO  H145 2259   3.983   3.990   1.848
    6CHTO   C74 2260   4.145   3.854   1.903
    6CHTO  H146 2261   4.086   3.807   1.983
    6CHTO   O54 2262   4.120   3.776   1.784
    6CHTO  H133 2263   4.168   3.811   1.712
    6CHTO   C75 2264   4.298   3.864   1.942
    6CHTO  H147 2265   4.307   3.920   2.036
    6CHTO   N13 2266   4.363   3.733   1.968
    6CHTO  H139 2267   4.359   3.672   1.879
    6CHTO  H140 2268   4.466   3.748   1.995
    6CHTO   C76 2269   4.375   3.949   1.830
    6CHTO  H148 2270   4.373   3.892   1.736
    6CHTO   O49 2271   4.309   4.078   1.811
    6CHTO   C77 2272   4.171   4.070   1.772
    6CHTO  H149 2273   4.163   4.014   1.679
    6CHTO   C88 2274   4.122   4.212   1.741
    6CHTO   O58 2275   4.193   4.269   1.624
    6CHTO  H136 2276   4.283   4.281   1.644
    6CHTO   O51 2277   4.521   3.989   1.875
    6CHTO   C78 2278   4.627   4.020   1.752
    6CHTO  H150 2279   4.715   4.075   1.793
    6CHTO   C80 2280   4.565   4.104   1.638
    6CHTO  H152 2281   4.481   4.046   1.593
    6CHTO   O55 2282   4.513   4.225   1.696
    6CHTO  H134 2283   4.437   4.206   1.747
    6CHTO   C84 2284   4.672   4.138   1.527
    6CHTO  H156 2285   4.743   4.208   1.571
    6CHTO   N15 2286   4.612   4.209   1.409
    6CHTO  H143 2287   4.689   4.233   1.337
    6CHTO  H144 2288   4.565   4.300   1.440
    6CHTO   C87 2289   4.750   4.011   1.482
    6CHTO  H159 2290   4.691   3.955   1.410
    6CHTO   O53 2291   4.787   3.915   1.604
    6CHTO   C82 2292   4.679   3.888   1.694
    6CHTO  H154 2293   4.599   3.834   1.643
    6CHTO   C89 2294   4.731   3.795   1.807
    6CHTO   O59 2295   4.760   3.664   1.757
    6CHTO  H137 2296   4.680   3.618   1.741
    6CHTO   O45 2297   4.890   4.060   1.407
    6CHTO   C67 2298   5.014   4.043   1.477
    6CHTO  H124 2299   5.028   3.938   1.504
    6CHTO   C65 2300   5.130   4.087   1.383
    6CHTO  H122 2301   5.111   4.039   1.287
    6CHTO   O44 2302   5.256   4.041   1.435
    6CHTO  H102 2303   5.325   4.060   1.373
    6CHTO   C63 2304   5.119   4.242   1.358
    6CHTO  H120 2305   5.019   4.264   1.321
    6CHTO   N11 2306   5.206   4.295   1.247
    6CHTO  H108 2307   5.189   4.240   1.158
    6CHTO  H109 2308   5.309   4.288   1.275
    6CHTO   C61 2309   5.134   4.318   1.495
    6CHTO  H118 2310   5.103   4.421   1.473
    6CHTO   O40 2311   5.044   4.269   1.598
    6CHTO   C68 2312   5.017   4.125   1.614
    6CHTO  H125 2313   4.917   4.120   1.660
    6CHTO   C72 2314   5.116   4.066   1.718
    6CHTO   O48 2315   5.082   3.932   1.757
    6CHTO  H105 2316   5.002   3.933   1.806
    6CHTO   O38 2317   5.269   4.317   1.546
    6CHTO   C55 2318   5.311   4.434   1.620
    6CHTO  H112 2319   5.228   4.468   1.683
    6CHTO   C56 2320   5.365   4.548   1.523
    6CHTO  H113 2321   5.437   4.501   1.455
    6CHTO   O42 2322   5.258   4.598   1.440
    6CHTO  H100 2323   5.227   4.530   1.383
    6CHTO   C57 2324   5.433   4.667   1.602
    6CHTO  H114 2325   5.353   4.719   1.656
    6CHTO   N10 2326   5.499   4.766   1.513
    6CHTO  H106 2327   5.429   4.843   1.484
    6CHTO  H107 2328   5.538   4.718   1.425
    6CHTO   C58 2329   5.533   4.610   1.706
    6CHTO  H115 2330   5.618   4.562   1.652
    6CHTO   O37 2331   5.470   4.513   1.790
    6CHTO   C59 2332   5.426   4.396   1.719
    6CHTO  H116 2333   5.510   4.353   1.665
    6CHTO   C70 2334   5.384   4.290   1.822
    6CHTO   O46 2335   5.283   4.335   1.914
    6CHTO  H103 2336   5.319   4.400   1.971
    6CHTO   O39 2337   5.590   4.729   1.810
    6CHTO   C60 2338   5.728   4.761   1.789
    6CHTO  H117 2339   5.768   4.704   1.704
    6CHTO   C62 2340   5.746   4.912   1.755
    6CHTO  H119 2341   5.679   4.933   1.669
    6CHTO   O43 2342   5.702   4.993   1.865
    6CHTO  H101 2343   5.709   5.084   1.844
    6CHTO   C66 2344   5.898   4.937   1.711
    6CHTO  H123 2345   5.921   4.872   1.626
    6CHTO   N12 2346   5.922   5.076   1.662
    6CHTO  H110 2347   5.955   5.075   1.560
    6CHTO  H111 2348   5.833   5.137   1.674
    6CHTO   C69 2349   5.995   4.898   1.825
    6CHTO  H126 2350   5.986   4.969   1.910
    6CHTO   O41 2351   5.962   4.749   1.877
    6CHTO   C64 2352   5.815   4.725   1.912
    6CHTO  H121 2353   5.786   4.790   1.998
    6CHTO   C71 2354   5.796   4.578   1.955
    6CHTO   O47 2355   5.868   4.548   2.075
    6CHTO  H104 2356   5.960   4.548   2.057
    6CHTO   O34 2357   6.145   4.899   1.774
    6CHTO   C49 2358   6.252   5.008   1.768
    6CHTO   H91 2359   6.212   5.090   1.710
    6CHTO   C47 2360   6.377   4.950   1.698
    6CHTO   H89 2361   6.448   5.034   1.685
    6CHTO   O33 2362   6.338   4.901   1.568
    6CHTO   H70 2363   6.313   4.973   1.513
    6CHTO   C45 2364   6.442   4.836   1.792
    6CHTO   H87 2365   6.365   4.759   1.810
    6CHTO    N8 2366   6.559   4.770   1.728
    6CHTO   H75 2367   6.638   4.842   1.713
    6CHTO   H76 2368   6.530   4.727   1.634
    6CHTO   C43 2369   6.475   4.897   1.937
    6CHTO   H85 2370   6.506   4.812   1.998
    6CHTO   O29 2371   6.359   4.962   1.992
    6CHTO   C50 2372   6.287   5.058   1.911
    6CHTO   H92 2373   6.192   5.077   1.963
    6CHTO   C54 2374   6.357   5.197   1.913
    6CHTO   O36 2375   6.281   5.298   1.846
    6CHTO   H72 2376   6.279   5.280   1.754
    6CHTO   O27 2377   6.587   4.988   1.937
    6CHTO   C37 2378   6.702   4.992   2.023
    6CHTO   H79 2379   6.726   4.890   2.058
    6CHTO   C38 2380   6.826   5.044   1.944
    6CHTO   H80 2381   6.802   5.143   1.903
    6CHTO   O31 2382   6.851   4.953   1.835
    6CHTO   H68 2383   6.784   4.962   1.770
    6CHTO   C39 2384   6.953   5.055   2.038
    6CHTO   H81 2385   6.980   4.953   2.066
    6CHTO    N7 2386   7.074   5.115   1.971
    6CHTO   H73 2387   7.104   5.207   2.019
    6CHTO   H74 2388   7.056   5.132   1.866
    6CHTO   C40 2389   6.918   5.131   2.172
    6CHTO   H82 2390   6.914   5.239   2.154
    6CHTO   O26 2391   6.797   5.081   2.231
    6CHTO   C41 2392   6.679   5.084   2.146
    6CHTO   H83 2393   6.661   5.187   2.112
    6CHTO   C52 2394   6.559   5.043   2.235
    6CHTO   O35 2395   6.572   4.908   2.292
    6CHTO   H71 2396   6.500   4.891   2.349
    6CHTO   O28 2397   7.014   5.102   2.275
    6CHTO   C42 2398   7.042   5.197   2.384
    6CHTO   H84 2399   6.969   5.277   2.373
    6CHTO   C44 2400   7.183   5.264   2.375
    6CHTO   H86 2401   7.259   5.186   2.375
    6CHTO   O32 2402   7.189   5.334   2.249
    6CHTO   H69 2403   7.192   5.273   2.178
    6CHTO   C48 2404   7.212   5.362   2.497
    6CHTO   H90 2405   7.150   5.450   2.483
    6CHTO    N9 2406   7.354   5.412   2.496
    6CHTO   H77 2407   7.373   5.467   2.405
    6CHTO   H78 2408   7.423   5.329   2.504
    6CHTO   C51 2409   7.173   5.298   2.636
    6CHTO   H93 2410   7.246   5.220   2.659
    6CHTO   O30 2411   7.040   5.246   2.628
    6CHTO   C46 2412   7.023   5.136   2.526
    6CHTO   H88 2413   7.100   5.060   2.543
    6CHTO   C53 2414   6.883   5.072   2.547
    6CHTO   O72 2415   6.777   5.168   2.532
    6CHTO  H199 2416   6.780   5.229   2.604
    6CHTO   O22 2417   7.176   5.400   2.739
    6CHTO   C31 2418   7.089   5.412   2.858
    6CHTO   H59 2419   7.014   5.330   2.850
    6CHTO   C29 2420   7.162   5.394   0.110
    6CHTO   H57 2421   7.243   5.470   0.114
    6CHTO   O21 2422   7.226   5.265   0.110
    6CHTO   H37 2423   7.280   5.256   0.185
    6CHTO   C27 2424   7.066   5.415   0.235
    6CHTO   H55 2425   6.994   5.333   0.237
    6CHTO    N5 2426   7.141   5.416   0.364
    6CHTO   H43 2427   7.123   5.507   0.420
    6CHTO   H44 2428   7.113   5.330   0.423
    6CHTO   C25 2429   6.981   5.546   0.217
    6CHTO   H53 2430   7.046   5.634   0.224
    6CHTO   O17 2431   6.916   5.548   0.086
    6CHTO   C32 2432   7.007   5.545   2.857
    6CHTO   H60 2433   7.077   5.628   2.866
    6CHTO   C36 2434   6.927   5.566   2.726
    6CHTO   O25 2435   6.830   5.463   2.704
    6CHTO   H40 2436   6.790   5.475   2.620
    6CHTO   O15 2437   6.867   5.556   0.329
    6CHTO   C19 2438   6.765   5.649   0.376
    6CHTO   H47 2439   6.707   5.589   0.448
    6CHTO   C20 2440   6.821   5.774   0.449
    6CHTO   H48 2441   6.892   5.830   0.386
    6CHTO   O19 2442   6.894   5.725   0.563
    6CHTO   H35 2443   6.939   5.795   0.605
    6CHTO   C21 2444   6.706   5.874   0.494
    6CHTO   H49 2445   6.648   5.826   0.573
    6CHTO    N4 2446   6.759   6.000   0.552
    6CHTO   H41 2447   6.819   6.052   0.479
    6CHTO   H42 2448   6.677   6.064   0.583
    6CHTO   C22 2449   6.608   5.899   0.377
    6CHTO   H50 2450   6.658   5.959   0.300
    6CHTO   O14 2451   6.562   5.775   0.320
    6CHTO   C23 2452   6.665   5.693   0.264
    6CHTO   H51 2453   6.715   5.751   0.185
    6CHTO   C34 2454   6.599   5.572   0.195
    6CHTO   O23 2455   6.519   5.494   0.285
    6CHTO   H38 2456   6.480   5.423   0.237
    6CHTO   O16 2457   6.488   5.966   0.422
    6CHTO   C24 2458   6.393   6.019   0.302
    6CHTO   H52 2459   6.418   5.974   0.207
    6CHTO   C26 2460   6.405   6.172   0.292
    6CHTO   H54 2461   6.389   6.216   0.394
    6CHTO   O20 2462   6.539   6.204   0.251
    6CHTO   H36 2463   6.552   6.297   0.250
    6CHTO   C30 2464   6.299   6.233   0.194
    6CHTO   H58 2465   6.328   6.211   0.091
    6CHTO    N6 2466   6.297   6.382   0.205
    6CHTO   H45 2467   6.269   6.412   0.305
    6CHTO   H46 2468   6.226   6.423   0.134
    6CHTO   C33 2469   6.157   6.172   0.214
    6CHTO   H61 2470   6.111   6.210   0.307
    6CHTO   O18 2471   6.165   6.028   0.224
    6CHTO   C28 2472   6.246   5.981   0.332
    6CHTO   H56 2473   6.215   6.027   0.426
    6CHTO   C35 2474   6.230   5.828   0.346
    6CHTO   O24 2475   6.096   5.790   0.382
    6CHTO   H39 2476   6.078   5.818   0.470
    6CHTO    O9 2477   6.068   6.212   0.107
    6CHTO   C13 2478   5.906   6.191   0.139
    6CHTO   H26 2479   5.887   6.218   0.245
    6CHTO   C11 2480   5.864   6.041   0.108
    6CHTO   H24 2481   5.920   5.975   0.176
    6CHTO    O8 2482   5.905   6.010   2.855
    6CHTO    H3 2483   5.888   5.920   2.836
    6CHTO    C9 2484   5.712   6.023   0.136
    6CHTO   H22 2485   5.701   6.036   0.245
    6CHTO    N2 2486   5.666   5.884   0.112
    6CHTO   H10 2487   5.579   5.883   0.048
    6CHTO   H11 2488   5.644   5.835   0.206
    6CHTO    C7 2489   5.628   6.139   0.066
    6CHTO   H20 2490   5.593   6.199   0.153
    6CHTO    O4 2491   5.709   6.222   2.864
    6CHTO   C14 2492   5.815   6.291   0.052
    6CHTO   H27 2493   5.769   6.366   0.120
    6CHTO   C18 2494   5.896   6.370   2.829
    6CHTO   O13 2495   5.814   6.453   2.746
    6CHTO    H7 2496   5.868   6.499   2.685
    6CHTO    O2 2497   5.495   6.091   2.861
    6CHTO    C1 2498   5.373   6.152   0.024
    6CHTO   H14 2499   5.394   6.255   0.060
    6CHTO    C2 2500   5.302   6.070   0.139
    6CHTO   H15 2501   5.291   5.967   0.102
    6CHTO    O6 2502   5.386   6.070   0.256
    6CHTO    H1 2503   5.399   6.158   0.287
    6CHTO    C3 2504   5.157   6.132   0.173
    6CHTO   H16 2505   5.172   6.230   0.221
    6CHTO    N1 2506   5.080   6.046   0.270
    6CHTO    H8 2507   5.058   6.103   0.360
    6CHTO    H9 2508   5.135   5.957   0.296
    6CHTO    C4 2509   5.075   6.161   0.041
    6CHTO   H17 2510   5.041   6.066   2.881
    6CHTO    O1 2511   5.155   6.234   2.828
    6CHTO    C5 2512   5.275   6.167   2.786
    6CHTO   H18 2513   5.251   6.068   2.748
    6CHTO   C16 2514   5.338   6.250   2.671
    6CHTO   O11 2515   5.251   6.257   2.558
    6CHTO    H5 2516   5.290   6.311   2.492
    6CHTO    O3 2517   4.964   6.248   0.069
    6CHTO    C6 2518   4.840   6.242   2.870
    6CHTO   H19 2519   4.780   6.331   0.005
    6CHTO    C8 2520   4.865   6.236   2.715
    6CHTO   H21 2521   4.930   6.152   2.693
    6CHTO    O7 2522   4.930   6.359   2.677
    6CHTO    H2 2523   5.017   6.362   2.711
    6CHTO   C12 2524   4.729   6.217   2.636
    6CHTO   H25 2525   4.672   6.313   2.648
    6CHTO    N3 2526   4.751   6.198   2.489
    6CHTO   H12 2527   4.800   6.285   2.448
    6CHTO   H13 2528   4.811   6.109   2.473
    6CHTO   C15 2529   4.644   6.102   2.700
    6CHTO   H28 2530   4.688   6.004   2.681
    6CHTO   O10 2531   4.497   6.102   2.653
    6CHTO    H4 2532   4.493   6.084   2.561
    6CHTO    O5 2533   4.629   6.122   2.841
    6CHTO   C10 2534   4.753   6.120   0.032
    6CHTO   H23 2535   4.805   6.027   0.010
    6CHTO   C17 2536   4.720   6.122   0.182
    6CHTO   O12 2537   4.652   6.002   0.221
    6CHTO    H6 2538   4.634   6.005   0.313
    7CHTO  H203 2539   4.724   1.199   0.839
    7CHTO   O82 2540   4.677   1.156   0.770
    7CHTO  C123 2541   4.758   1.148   0.651
    7CHTO  H227 2542   4.702   1.092   0.574
    7CHTO   O77 2543   4.772   1.288   0.610
    7CHTO  C118 2544   4.844   1.307   0.488
    7CHTO  H222 2545   4.797   1.249   0.407
    7CHTO  C125 2546   4.838   1.460   0.451
    7CHTO   O84 2547   4.703   1.501   0.425
    7CHTO  H205 2548   4.702   1.591   0.400
    7CHTO  C114 2549   4.990   1.259   0.507
    7CHTO  H218 2550   5.035   1.317   0.588
    7CHTO  C116 2551   4.993   1.110   0.550
    7CHTO  H220 2552   4.959   1.046   0.464
    7CHTO   O79 2553   5.130   1.074   0.575
    7CHTO  H201 2554   5.137   0.982   0.595
    7CHTO  C120 2555   4.900   1.085   0.675
    7CHTO  H224 2556   4.949   1.137   0.760
    7CHTO   N21 2557   4.891   0.941   0.711
    7CHTO  H211 2558   4.982   0.889   0.686
    7CHTO  H212 2559   4.870   0.930   0.816
    7CHTO   O75 2560   5.055   1.285   0.381
    7CHTO  C112 2561   5.202   1.368   0.387
    7CHTO  H216 2562   5.283   1.296   0.409
    7CHTO   O73 2563   5.192   1.470   0.489
    7CHTO  C113 2564   5.306   1.556   0.500
    7CHTO  H217 2565   5.397   1.493   0.515
    7CHTO  C124 2566   5.289   1.645   0.624
    7CHTO   O83 2567   5.295   1.571   0.746
    7CHTO  H204 2568   5.225   1.509   0.750
    7CHTO  C109 2569   5.321   1.638   0.369
    7CHTO  H213 2570   5.226   1.694   0.356
    7CHTO  C110 2571   5.342   1.539   0.251
    7CHTO  H214 2572   5.438   1.489   0.264
    7CHTO   O78 2573   5.349   1.615   0.128
    7CHTO  H200 2574   5.370   1.559   0.056
    7CHTO  C111 2575   5.226   1.435   0.246
    7CHTO  H215 2576   5.133   1.487   0.219
    7CHTO   N19 2577   5.246   1.329   0.143
    7CHTO  H207 2578   5.339   1.277   0.161
    7CHTO  H208 2579   5.248   1.374   0.044
    7CHTO   O74 2580   5.431   1.733   0.380
    7CHTO  C115 2581   5.403   1.870   0.307
    7CHTO  H219 2582   5.313   1.865   0.245
    7CHTO   O76 2583   5.375   1.990   0.413
    7CHTO  C122 2584   5.491   2.028   0.489
    7CHTO  H226 2585   5.522   1.943   0.549
    7CHTO  C126 2586   5.446   2.139   0.590
    7CHTO   O85 2587   5.549   2.176   0.683
    7CHTO  H206 2588   5.568   2.104   0.739
    7CHTO  C121 2589   5.606   2.074   0.390
    7CHTO  H225 2590   5.567   2.155   0.326
    7CHTO   O81 2591   5.719   2.126   0.461
    7CHTO  H202 2592   5.756   2.060   0.517
    7CHTO  C119 2593   5.645   1.952   0.301
    7CHTO  H223 2594   5.725   1.987   0.234
    7CHTO  C117 2595   5.526   1.900   0.212
    7CHTO  H221 2596   5.543   1.805   0.161
    7CHTO   N20 2597   5.490   1.996   0.102
    7CHTO  H209 2598   5.506   1.951   0.005
    7CHTO  H210 2599   5.387   2.030   0.110
    7CHTO   O80 2600   5.721   1.839   0.381
    7CHTO  C103 2601   5.763   1.705   0.309
    7CHTO  H190 2602   5.678   1.663   0.256
    7CHTO  C101 2603   5.885   1.713   0.209
    7CHTO  H188 2604   5.970   1.756   0.261
    7CHTO   O68 2605   5.847   1.806   0.089
    7CHTO  H168 2606   5.833   1.894   0.119
    7CHTO   C99 2607   5.924   1.566   0.159
    7CHTO  H186 2608   5.839   1.527   0.098
    7CHTO   N17 2609   6.045   1.564   0.070
    7CHTO  H174 2610   6.119   1.493   0.104
    7CHTO  H175 2611   6.017   1.544   2.850
    7CHTO   C97 2612   5.938   1.468   0.279
    7CHTO  H184 2613   6.032   1.494   0.332
    7CHTO   O64 2614   5.824   1.476   0.367
    7CHTO  C104 2615   5.800   1.605   0.424
    7CHTO  H191 2616   5.888   1.643   0.478
    7CHTO  C108 2617   5.688   1.595   0.529
    7CHTO   O71 2618   5.721   1.506   0.635
    7CHTO  H171 2619   5.649   1.501   0.695
    7CHTO   O62 2620   5.945   1.327   0.246
    7CHTO   C91 2621   5.871   1.265   0.139
    7CHTO  H178 2622   5.887   1.325   0.049
    7CHTO   C92 2623   5.715   1.263   0.163
    7CHTO  H179 2624   5.681   1.365   0.190
    7CHTO   O66 2625   5.652   1.234   0.038
    7CHTO  H166 2626   5.559   1.244   0.045
    7CHTO   C93 2627   5.668   1.154   0.268
    7CHTO  H180 2628   5.570   1.117   0.234
    7CHTO   N16 2629   5.643   1.207   0.404
    7CHTO  H172 2630   5.660   1.314   0.408
    7CHTO  H173 2631   5.542   1.184   0.436
    7CHTO   C94 2632   5.769   1.033   0.273
    7CHTO  H181 2633   5.851   1.051   0.343
    7CHTO   O61 2634   5.829   1.014   0.143
    7CHTO   C95 2635   5.923   1.117   0.107
    7CHTO  H182 2636   6.016   1.100   0.161
    7CHTO  C106 2637   5.957   1.101   2.836
    7CHTO   O69 2638   6.016   0.974   2.807
    7CHTO  H169 2639   6.102   0.970   2.844
    7CHTO   O63 2640   5.692   0.902   0.310
    7CHTO   C96 2641   5.783   0.799   0.386
    7CHTO  H183 2642   5.834   0.853   0.466
    7CHTO   C98 2643   5.891   0.728   0.299
    7CHTO  H185 2644   5.951   0.803   0.246
    7CHTO   O67 2645   5.984   0.658   0.384
    7CHTO  H167 2646   5.939   0.594   0.436
    7CHTO  C102 2647   5.828   0.624   0.195
    7CHTO  H189 2648   5.912   0.562   0.161
    7CHTO   N18 2649   5.771   0.683   0.072
    7CHTO  H176 2650   5.734   0.605   0.007
    7CHTO  H177 2651   5.847   0.740   0.021
    7CHTO  C105 2652   5.726   0.530   0.267
    7CHTO  H192 2653   5.658   0.487   0.194
    7CHTO   O65 2654   5.640   0.590   0.367
    7CHTO  C100 2655   5.685   0.696   0.454
    7CHTO  H187 2656   5.595   0.752   0.483
    7CHTO  C107 2657   5.743   0.637   0.586
    7CHTO   O70 2658   5.640   0.579   0.666
    7CHTO  H170 2659   5.676   0.551   0.747
    7CHTO   O57 2660   5.817   0.411   0.326
    7CHTO   C85 2661   5.834   0.295   0.242
    7CHTO  H157 2662   5.850   0.334   0.139
    7CHTO   C83 2663   5.701   0.213   0.236
    7CHTO  H155 2664   5.623   0.277   0.194
    7CHTO   O56 2665   5.659   0.179   0.369
    7CHTO  H135 2666   5.640   0.256   0.419
    7CHTO   C81 2667   5.721   0.092   0.141
    7CHTO  H153 2668   5.755   0.130   0.044
    7CHTO   N14 2669   5.595   0.019   0.109
    7CHTO  H141 2670   5.514   0.055   0.168
    7CHTO  H142 2671   5.571   0.029   0.005
    7CHTO   C79 2672   5.834   9.999   0.199
    7CHTO  H151 2673   5.851   9.919   0.126
    7CHTO   O52 2674   5.959   0.073   0.210
    7CHTO   C86 2675   5.951   0.198   0.287
    7CHTO  H158 2676   5.937   0.165   0.393
    7CHTO   C90 2677   6.087   0.272   0.283
    7CHTO   O60 2678   6.192   0.190   0.335
    7CHTO  H138 2679   6.180   0.178   0.428
    7CHTO   O50 2680   5.801   9.940   0.326
    7CHTO   C73 2681   5.824   9.808   0.378
    7CHTO  H145 2682   5.918   9.768   0.339
    7CHTO   C74 2683   5.708   9.713   0.335
    7CHTO  H146 2684   5.703   9.714   0.225
    7CHTO   O54 2685   5.744   9.579   0.373
    7CHTO  H133 2686   5.815   9.548   0.320
    7CHTO   C75 2687   5.573   9.762   0.401
    7CHTO  H147 2688   5.551   9.862   0.363
    7CHTO   N13 2689   5.456   9.678   0.363
    7CHTO  H139 2690   5.380   9.738   0.315
    7CHTO  H140 2691   5.413   9.630   0.450
    7CHTO   C76 2692   5.592   9.775   0.559
    7CHTO  H148 2693   5.604   9.675   0.601
    7CHTO   O49 2694   5.708   9.858   0.592
    7CHTO   C77 2695   5.832   9.813   0.533
    7CHTO  H149 2696   5.857   9.714   0.571
    7CHTO   C88 2697   5.946   9.906   0.578
    7CHTO   O58 2698   5.962   9.903   0.724
    7CHTO  H136 2699   6.037   9.955   0.748
    7CHTO   O51 2700   5.470   9.855   0.622
    7CHTO   C78 2701   5.430   9.806   0.766
    7CHTO  H150 2702   5.508   9.740   0.809
    7CHTO   C80 2703   5.297   9.728   0.757
    7CHTO  H152 2704   5.224   9.789   0.700
    7CHTO   O55 2705   5.324   9.608   0.682
    7CHTO  H134 2706   5.342   9.629   0.592
    7CHTO   C84 2707   5.236   9.693   0.899
    7CHTO  H156 2708   5.303   9.621   0.946
    7CHTO   N15 2709   5.101   9.628   0.889
    7CHTO  H143 2710   5.032   9.694   0.841
    7CHTO  H144 2711   5.064   9.605   0.987
    7CHTO   C87 2712   5.233   9.821   0.987
    7CHTO  H159 2713   5.160   9.892   0.948
    7CHTO   O53 2714   5.375   9.883   0.989
    7CHTO   C82 2715   5.417   9.928   0.859
    7CHTO  H154 2716   5.346   0.001   0.819
    7CHTO   C89 2717   5.552   0.002   0.878
    7CHTO   O59 2718   5.592   0.074   0.761
    7CHTO  H137 2719   5.534   0.146   0.746
    7CHTO   O45 2720   5.192   9.783   1.141
    7CHTO   C67 2721   5.195   9.895   1.232
    7CHTO  H124 2722   5.261   9.972   1.192
    7CHTO   C65 2723   5.052   9.957   1.253
    7CHTO  H122 2724   4.982   9.875   1.240
    7CHTO   O44 2725   5.035   0.052   1.147
    7CHTO  H102 2726   4.947   0.084   1.146
    7CHTO   C63 2727   5.028   0.007   1.401
    7CHTO  H120 2728   5.004   9.921   1.463
    7CHTO   N11 2729   4.907   0.094   1.422
    7CHTO  H108 2730   4.821   0.046   1.381
    7CHTO  H109 2731   4.892   0.111   1.527
    7CHTO   C61 2732   5.161   0.066   1.460
    7CHTO  H118 2733   5.141   0.093   1.565
    7CHTO   O40 2734   5.268   9.966   1.463
    7CHTO   C68 2735   5.259   9.853   1.370
    7CHTO  H125 2736   5.199   9.772   1.417
    7CHTO   C72 2737   5.402   9.797   1.350
    7CHTO   O48 2738   5.452   9.734   1.468
    7CHTO  H105 2739   5.538   9.701   1.451
    7CHTO   O38 2740   5.207   0.181   1.387
    7CHTO   C55 2741   5.317   0.255   1.443
    7CHTO  H112 2742   5.374   0.191   1.512
    7CHTO   C56 2743   5.263   0.386   1.516
    7CHTO  H113 2744   5.196   0.438   1.444
    7CHTO   O42 2745   5.182   0.348   1.628
    7CHTO  H100 2746   5.143   0.424   1.667
    7CHTO   C57 2747   5.383   0.481   1.558
    7CHTO  H114 2748   5.439   0.429   1.635
    7CHTO   N10 2749   5.338   0.610   1.615
    7CHTO  H106 2750   5.324   0.684   1.538
    7CHTO  H107 2751   5.411   0.647   1.686
    7CHTO   C58 2752   5.476   0.502   1.435
    7CHTO  H115 2753   5.418   0.554   1.355
    7CHTO   O37 2754   5.521   0.375   1.387
    7CHTO   C59 2755   5.416   0.295   1.330
    7CHTO  H116 2756   5.365   0.350   1.251
    7CHTO   C70 2757   5.481   0.170   1.268
    7CHTO   O46 2758   5.573   0.202   1.163
    7CHTO  H103 2759   5.527   0.234   1.088
    7CHTO   O39 2760   5.611   0.592   1.474
    7CHTO   C60 2761   5.717   0.584   1.377
    7CHTO  H117 2762   5.743   0.479   1.362
    7CHTO   C62 2763   5.676   0.644   1.239
    7CHTO  H119 2764   5.586   0.588   1.206
    7CHTO   O43 2765   5.640   0.783   1.255
    7CHTO  H101 2766   5.610   0.818   1.174
    7CHTO   C66 2767   5.794   0.619   1.133
    7CHTO  H123 2768   5.812   0.511   1.126
    7CHTO   N12 2769   5.755   0.662   0.996
    7CHTO  H110 2770   5.762   0.580   0.926
    7CHTO  H111 2771   5.815   0.746   0.963
    7CHTO   C69 2772   5.926   0.684   1.183
    7CHTO  H126 2773   5.914   0.794   1.185
    7CHTO   O41 2774   5.959   0.632   1.329
    7CHTO   C64 2775   5.846   0.655   1.430
    7CHTO  H121 2776   5.826   0.764   1.440
    7CHTO   C71 2777   5.891   0.600   1.567
    7CHTO   O47 2778   5.805   0.641   1.673
    7CHTO  H104 2779   5.836   0.606   1.754
    7CHTO   O34 2780   6.045   0.649   1.088
    7CHTO   C49 2781   6.165   0.571   1.034
    7CHTO   H91 2782   6.198   0.623   0.944
    7CHTO   C47 2783   6.121   0.428   0.996
    7CHTO   H89 2784   6.208   0.382   0.942
    7CHTO   O33 2785   6.010   0.435   0.905
    7CHTO   H70 2786   6.037   0.472   0.823
    7CHTO   C45 2787   6.091   0.345   1.130
    7CHTO   H87 2788   6.019   0.402   1.191
    7CHTO    N8 2789   6.033   0.210   1.105
    7CHTO   H75 2790   6.029   0.189   0.999
    7CHTO   H76 2791   5.934   0.204   1.147
    7CHTO   C43 2792   6.226   0.340   1.218
    7CHTO   H85 2793   6.202   0.285   1.309
    7CHTO   O29 2794   6.270   0.474   1.246
    7CHTO   C50 2795   6.280   0.569   1.137
    7CHTO   H92 2796   6.281   0.668   1.184
    7CHTO   C54 2797   6.419   0.562   1.068
    7CHTO   O36 2798   6.522   0.608   1.155
    7CHTO   H72 2799   6.605   0.605   1.110
    7CHTO   O27 2800   6.332   0.265   1.154
    7CHTO   C37 2801   6.418   0.156   1.190
    7CHTO   H79 2802   6.395   0.124   1.293
    7CHTO   C38 2803   6.395   0.034   1.096
    7CHTO   H80 2804   6.398   0.071   0.992
    7CHTO   O31 2805   6.264   9.982   1.122
    7CHTO   H68 2806   6.258   9.949   1.210
    7CHTO   C39 2807   6.504   9.921   1.113
    7CHTO   H81 2808   6.491   9.878   1.212
    7CHTO    N7 2809   6.492   9.809   1.014
    7CHTO   H73 2810   6.409   9.826   0.946
    7CHTO   H74 2811   6.479   9.715   1.065
    7CHTO   C40 2812   6.648   9.984   1.111
    7CHTO   H82 2813   6.671   0.020   1.011
    7CHTO   O26 2814   6.657   0.089   1.209
    7CHTO   C41 2815   6.567   0.201   1.185
    7CHTO   H83 2816   6.589   0.246   1.086
    7CHTO   C52 2817   6.597   0.308   1.293
    7CHTO   O35 2818   6.735   0.361   1.285
    7CHTO   H71 2819   6.796   0.293   1.306
    7CHTO   O28 2820   6.749   9.890   1.153
    7CHTO   C42 2821   6.883   9.893   1.094
    7CHTO   H84 2822   6.939   9.823   1.156
    7CHTO   C44 2823   6.959   0.030   1.105
    7CHTO   H86 2824   6.897   0.108   1.060
    7CHTO   O32 2825   6.972   0.059   1.245
    7CHTO   H69 2826   7.011   0.144   1.257
    7CHTO   C48 2827   7.098   0.029   1.029
    7CHTO   H90 2828   7.164   9.957   1.079
    7CHTO    N9 2829   7.169   0.162   1.036
    7CHTO   H77 2830   7.111   0.234   1.091
    7CHTO   H78 2831   7.193   0.198   0.937
    7CHTO   C51 2832   7.072   9.979   0.882
    7CHTO   H93 2833   6.998   0.046   0.838
    7CHTO   O30 2834   7.024   9.845   0.890
    7CHTO   C46 2835   6.885   9.837   0.948
    7CHTO   H88 2836   6.818   9.897   0.886
    7CHTO   C53 2837   6.841   9.689   0.945
    7CHTO   O72 2838   6.826   9.643   0.810
    7CHTO  H199 2839   6.796   9.555   0.811
    7CHTO   O22 2840   7.190   9.972   0.800
    7CHTO   C31 2841   7.179   9.986   0.653
    7CHTO   H59 2842   7.282   9.971   0.614
    7CHTO   C29 2843   7.090   9.879   0.586
    7CHTO   H57 2844   6.991   9.884   0.634
    7CHTO   O21 2845   7.145   9.750   0.615
    7CHTO   H37 2846   7.138   9.731   0.707
    7CHTO   C27 2847   7.072   9.905   0.431
    7CHTO   H55 2848   7.170   9.895   0.382
    7CHTO    N5 2849   6.977   9.810   0.367
    7CHTO   H43 2850   7.014   9.709   0.378
    7CHTO   H44 2851   6.879   9.819   0.412
    7CHTO   C25 2852   7.025   0.053   0.412
    7CHTO   H53 2853   6.931   0.067   0.468
    7CHTO   O17 2854   7.125   0.143   0.468
    7CHTO   C32 2855   7.138   0.131   0.611
    7CHTO   H60 2856   7.042   0.155   0.656
    7CHTO   C36 2857   7.242   0.235   0.658
    7CHTO   O25 2858   7.195   0.368   0.637
    7CHTO   H40 2859   7.258   0.429   0.670
    7CHTO   O15 2860   7.002   0.093   0.262
    7CHTO   C19 2861   6.903   0.191   0.216
    7CHTO   H47 2862   6.899   0.175   0.108
    7CHTO   C20 2863   6.760   0.172   0.276
    7CHTO   H48 2864   6.759   0.183   0.385
    7CHTO   O19 2865   6.720   0.037   0.244
    7CHTO   H35 2866   6.639   0.017   0.286
    7CHTO   C21 2867   6.658   0.277   0.216
    7CHTO   H49 2868   6.646   0.257   0.110
    7CHTO    N4 2869   6.523   0.268   0.278
    7CHTO   H41 2870   6.482   0.170   0.262
    7CHTO   H42 2871   6.458   0.341   0.233
    7CHTO   C22 2872   6.719   0.420   0.229
    7CHTO   H50 2873   6.720   0.450   0.334
    7CHTO   O14 2874   6.852   0.426   0.175
    7CHTO   C23 2875   6.947   0.339   0.237
    7CHTO   H51 2876   6.953   0.365   0.344
    7CHTO   C34 2877   7.085   0.365   0.175
    7CHTO   O23 2878   7.131   0.498   0.201
    7CHTO   H38 2879   7.153   0.507   0.291
    7CHTO   O16 2880   6.648   0.515   0.147
    7CHTO   C24 2881   6.595   0.648   0.220
    7CHTO   H52 2882   6.597   0.638   0.329
    7CHTO   C26 2883   6.450   0.673   0.174
    7CHTO   H54 2884   6.447   0.665   0.062
    7CHTO   O20 2885   6.366   0.569   0.227
    7CHTO   H36 2886   6.386   0.487   0.186
    7CHTO   C30 2887   6.399   0.815   0.214
    7CHTO   H58 2888   6.386   0.821   0.323
    7CHTO    N6 2889   6.265   0.844   0.155
    7CHTO   H45 2890   6.271   0.842   0.047
    7CHTO   H46 2891   6.230   0.941   0.186
    7CHTO   C33 2892   6.505   0.923   0.177
    7CHTO   H61 2893   6.518   0.925   0.067
    7CHTO   O18 2894   6.631   0.888   0.236
    7CHTO   C28 2895   6.688   0.767   0.184
    7CHTO   H56 2896   6.696   0.773   0.075
    7CHTO   C35 2897   6.831   0.750   0.241
    7CHTO   O24 2898   6.835   0.730   0.383
    7CHTO   H39 2899   6.795   0.649   0.405
    7CHTO    O9 2900   6.464   1.056   0.214
    7CHTO   C13 2901   6.493   1.168   0.101
    7CHTO   H26 2902   6.457   1.128   0.004
    7CHTO   C11 2903   6.647   1.202   0.096
    7CHTO   H24 2904   6.701   1.112   0.063
    7CHTO    O8 2905   6.696   1.235   0.228
    7CHTO    H3 2906   6.690   1.161   0.284
    7CHTO    C9 2907   6.668   1.314   2.872
    7CHTO   H22 2908   6.625   1.274   2.779
    7CHTO    N2 2909   6.811   1.340   2.841
    7CHTO   H10 2910   6.833   1.312   2.739
    7CHTO   H11 2911   6.836   1.443   2.858
    7CHTO    C7 2912   6.586   1.441   0.032
    7CHTO   H20 2913   6.595   1.508   2.825
    7CHTO    O4 2914   6.446   1.413   0.054
    7CHTO   C14 2915   6.404   1.296   0.128
    7CHTO   H27 2916   6.302   1.273   0.093
    7CHTO   C18 2917   6.393   1.330   0.279
    7CHTO   O13 2918   6.292   1.428   0.302
    7CHTO    H7 2919   6.287   1.448   0.394
    7CHTO    O2 2920   6.648   1.516   0.163
    7CHTO    C1 2921   6.584   1.637   0.209
    7CHTO   H14 2922   6.481   1.613   0.240
    7CHTO    C2 2923   6.579   1.757   0.105
    7CHTO   H15 2924   6.681   1.766   0.064
    7CHTO    O6 2925   6.488   1.725   2.881
    7CHTO    H1 2926   6.492   1.790   2.814
    7CHTO    C3 2927   6.535   1.895   0.176
    7CHTO   H16 2928   6.428   1.889   0.201
    7CHTO    N1 2929   6.551   2.013   0.084
    7CHTO    H8 2930   6.489   2.000   2.878
    7CHTO    H9 2931   6.654   2.023   0.054
    7CHTO    C4 2932   6.611   1.916   0.312
    7CHTO   H17 2933   6.716   1.937   0.291
    7CHTO    O1 2934   6.598   1.799   0.394
    7CHTO    C5 2935   6.659   1.682   0.338
    7CHTO   H18 2936   6.763   1.703   0.311
    7CHTO   C16 2937   6.659   1.571   0.447
    7CHTO   O11 2938   6.741   1.609   0.558
    7CHTO    H5 2939   6.743   1.540   0.621
    7CHTO    O3 2940   6.554   2.023   0.390
    7CHTO    C6 2941   6.641   2.073   0.497
    7CHTO   H19 2942   6.727   2.008   0.516
    7CHTO    C8 2943   6.695   2.215   0.460
    7CHTO   H21 2944   6.610   2.279   0.438
    7CHTO    O7 2945   6.777   2.201   0.343
    7CHTO    H2 2946   6.724   2.180   0.268
    7CHTO   C12 2947   6.776   2.277   0.581
    7CHTO   H25 2948   6.868   2.216   0.591
    7CHTO    N3 2949   6.819   2.418   0.551
    7CHTO   H12 2950   6.927   2.426   0.558
    7CHTO   H13 2951   6.772   2.489   0.618
    7CHTO   C15 2952   6.693   2.264   0.715
    7CHTO   H28 2953   6.610   2.334   0.719
    7CHTO   O10 2954   6.782   2.283   0.839
    7CHTO    H4 2955   6.816   2.371   0.841
    7CHTO    O5 2956   6.646   2.130   0.736
    7CHTO   C10 2957   6.561   2.081   0.630
    7CHTO   H23 2958   6.476   2.148   0.619
    7CHTO   C17 2959   6.507   1.943   0.672
    7CHTO   O12 2960   6.425   1.953   0.789
    7CHTO    H6 2961   6.393   1.868   0.811
    8CHTO  H203 2962   7.368   7.486   1.688
    8CHTO   O82 2963   7.347   7.574   1.713
    8CHTO  C123 2964   7.242   7.626   1.629
    8CHTO  H227 2965   7.267   7.604   1.524
    8CHTO   O77 2966   7.125   7.548   1.670
    8CHTO  C118 2967   7.005   7.577   1.596
    8CHTO  H222 2968   7.023   7.562   1.489
    8CHTO  C125 2969   6.893   7.477   1.643
    8CHTO   O84 2970   6.863   7.489   1.783
    8CHTO  H205 2971   6.793   7.432   1.805
    8CHTO  C114 2972   6.965   7.724   1.619
    8CHTO  H218 2973   6.947   7.739   1.725
    8CHTO  C116 2974   7.081   7.820   1.579
    8CHTO  H220 2975   7.095   7.817   1.468
    8CHTO   O79 2976   7.041   7.955   1.610
    8CHTO  H201 2977   7.031   7.966   1.703
    8CHTO  C120 2978   7.215   7.780   1.652
    8CHTO  H224 2979   7.200   7.800   1.760
    8CHTO   N21 2980   7.330   7.864   1.608
    8CHTO  H211 2981   7.378   7.822   1.521
    8CHTO  H212 2982   7.299   7.965   1.589
    8CHTO   O75 2983   6.844   7.741   1.542
    8CHTO  C112 2984   6.723   7.822   1.620
    8CHTO  H216 2985   6.750   7.929   1.627
    8CHTO   O73 2986   6.705   7.763   1.749
    8CHTO  C113 2987   6.614   7.837   1.831
    8CHTO  H217 2988   6.645   7.943   1.834
    8CHTO  C124 2989   6.628   7.782   1.974
    8CHTO   O83 2990   6.568   7.867   2.072
    8CHTO  H204 2991   6.578   7.829   2.157
    8CHTO  C109 2992   6.470   7.828   1.774
    8CHTO  H213 2993   6.436   7.725   1.789
    8CHTO  C110 2994   6.468   7.867   1.622
    8CHTO  H214 2995   6.470   7.976   1.616
    8CHTO   O78 2996   6.343   7.824   1.565
    8CHTO  H200 2997   6.334   7.856   1.477
    8CHTO  C111 2998   6.587   7.807   1.541
    8CHTO  H215 2999   6.569   7.699   1.528
    8CHTO   N19 3000   6.599   7.865   1.405
    8CHTO  H207 3001   6.614   7.972   1.412
    8CHTO  H208 3002   6.510   7.845   1.348
    8CHTO   O74 3003   6.383   7.918   1.851
    8CHTO  C115 3004   6.226   7.894   1.845
    8CHTO  H219 3005   6.200   7.798   1.800
    8CHTO   O76 3006   6.163   7.890   1.990
    8CHTO  C122 3007   6.189   8.011   2.064
    8CHTO  H226 3008   6.296   8.016   2.085
    8CHTO  C126 3009   6.118   8.000   2.204
    8CHTO   O85 3010   6.164   7.890   2.282
    8CHTO  H206 3011   6.136   7.809   2.244
    8CHTO  C121 3012   6.141   8.141   1.987
    8CHTO  H225 3013   6.030   8.143   1.988
    8CHTO   O81 3014   6.185   8.258   2.057
    8CHTO  H202 3015   6.278   8.263   2.058
    8CHTO  C119 3016   6.190   8.144   1.837
    8CHTO  H223 3017   6.134   8.223   1.788
    8CHTO  C117 3018   6.161   8.010   1.760
    8CHTO  H221 3019   6.208   8.002   1.663
    8CHTO   N20 3020   6.015   7.986   1.734
    8CHTO  H209 3021   6.002   7.893   1.682
    8CHTO  H210 3022   5.975   8.067   1.676
    8CHTO   O80 3023   6.341   8.193   1.815
    8CHTO  C103 3024   6.369   8.339   1.756
    8CHTO  H190 3025   6.276   8.395   1.747
    8CHTO  C101 3026   6.471   8.426   1.837
    8CHTO  H188 3027   6.564   8.369   1.849
    8CHTO   O68 3028   6.413   8.451   1.976
    8CHTO  H168 3029   6.336   8.504   1.970
    8CHTO   C99 3030   6.506   8.562   1.760
    8CHTO  H186 3031   6.414   8.623   1.752
    8CHTO   N17 3032   6.608   8.646   1.829
    8CHTO  H174 3033   6.575   8.669   1.930
    8CHTO  H175 3034   6.703   8.595   1.831
    8CHTO   C97 3035   6.548   8.530   1.613
    8CHTO  H184 3036   6.646   8.482   1.615
    8CHTO   O64 3037   6.449   8.448   1.548
    8CHTO  C104 3038   6.426   8.320   1.609
    8CHTO  H191 3039   6.518   8.261   1.614
    8CHTO  C108 3040   6.329   8.240   1.521
    8CHTO   O71 3041   6.387   8.210   1.393
    8CHTO  H171 3042   6.394   8.289   1.342
    8CHTO   O62 3043   6.551   8.649   1.530
    8CHTO   C91 3044   6.664   8.663   1.441
    8CHTO  H178 3045   6.718   8.568   1.438
    8CHTO   C92 3046   6.763   8.768   1.502
    8CHTO  H179 3047   6.789   8.740   1.605
    8CHTO   O66 3048   6.887   8.758   1.429
    8CHTO  H166 3049   6.953   8.810   1.470
    8CHTO   C93 3050   6.711   8.916   1.490
    8CHTO  H180 3051   6.800   8.981   1.488
    8CHTO   N16 3052   6.633   8.962   1.608
    8CHTO  H172 3053   6.545   8.901   1.620
    8CHTO  H173 3054   6.606   9.066   1.597
    8CHTO   C94 3055   6.631   8.938   1.356
    8CHTO  H181 3056   6.523   8.928   1.371
    8CHTO   O61 3057   6.666   8.839   1.258
    8CHTO   C95 3058   6.625   8.705   1.292
    8CHTO  H182 3059   6.516   8.698   1.280
    8CHTO  C106 3060   6.688   8.608   1.185
    8CHTO   O69 3061   6.643   8.474   1.203
    8CHTO  H169 3062   6.679   8.419   1.136
    8CHTO   O63 3063   6.665   9.083   1.301
    8CHTO   C96 3064   6.593   9.117   1.167
    8CHTO  H183 3065   6.545   9.027   1.128
    8CHTO   C98 3066   6.690   9.169   1.058
    8CHTO  H185 3067   6.750   9.253   1.098
    8CHTO   O67 3068   6.785   9.064   1.031
    8CHTO  H167 3069   6.850   9.093   0.970
    8CHTO  C102 3070   6.613   9.213   0.924
    8CHTO  H189 3071   6.574   9.120   0.880
    8CHTO   N18 3072   6.698   9.275   0.819
    8CHTO  H176 3073   6.747   9.363   0.858
    8CHTO  H177 3074   6.773   9.204   0.786
    8CHTO  C105 3075   6.491   9.303   0.960
    8CHTO  H192 3076   6.526   9.403   0.987
    8CHTO   O65 3077   6.412   9.251   1.068
    8CHTO  C100 3078   6.481   9.225   1.191
    8CHTO  H187 3079   6.528   9.318   1.225
    8CHTO  C107 3080   6.377   9.182   1.297
    8CHTO   O70 3081   6.310   9.061   1.263
    8CHTO  H170 3082   6.369   8.988   1.270
    8CHTO   O57 3083   6.396   9.307   0.828
    8CHTO   C85 3084   6.318   9.423   0.790
    8CHTO  H157 3085   6.392   9.497   0.754
    8CHTO   C83 3086   6.248   9.490   0.913
    8CHTO  H155 3087   6.325   9.527   0.981
    8CHTO   O56 3088   6.174   9.391   0.987
    8CHTO  H135 3089   6.139   9.428   1.066
    8CHTO   C81 3090   6.163   9.610   0.864
    8CHTO  H153 3091   6.228   9.676   0.807
    8CHTO   N14 3092   6.109   9.695   0.973
    8CHTO  H141 3093   6.128   9.652   1.069
    8CHTO  H142 3094   6.152   9.793   0.969
    8CHTO   C79 3095   6.051   9.557   0.766
    8CHTO  H151 3096   5.996   9.644   0.730
    8CHTO   O52 3097   6.113   9.495   0.649
    8CHTO   C86 3098   6.209   9.388   0.680
    8CHTO  H158 3099   6.145   9.304   0.714
    8CHTO   C90 3100   6.278   9.340   0.550
    8CHTO   O60 3101   6.348   9.446   0.484
    8CHTO  H138 3102   6.422   9.473   0.535
    8CHTO   O50 3103   5.958   9.468   0.828
    8CHTO   C73 3104   5.824   9.417   0.818
    8CHTO  H145 3105   5.800   9.395   0.713
    8CHTO   C74 3106   5.721   9.522   0.871
    8CHTO  H146 3107   5.735   9.614   0.812
    8CHTO   O54 3108   5.588   9.474   0.842
    8CHTO  H133 3109   5.573   9.474   0.749
    8CHTO   C75 3110   5.747   9.546   1.025
    8CHTO  H147 3111   5.848   9.587   1.037
    8CHTO   N13 3112   5.656   9.646   1.087
    8CHTO  H139 3113   5.681   9.658   1.191
    8CHTO  H140 3114   5.668   9.741   1.038
    8CHTO   C76 3115   5.744   9.406   1.103
    8CHTO  H148 3116   5.642   9.368   1.102
    8CHTO   O49 3117   5.834   9.309   1.040
    8CHTO   C77 3118   5.811   9.286   0.900
    8CHTO  H149 3119   5.711   9.245   0.886
    8CHTO   C88 3120   5.909   9.179   0.852
    8CHTO   O58 3121   5.881   9.050   0.913
    8CHTO  H136 3122   5.805   9.012   0.875
    8CHTO   O51 3123   5.803   9.423   1.253
    8CHTO   C78 3124   5.748   9.312   1.353
    8CHTO  H150 3125   5.683   9.239   1.300
    8CHTO   C80 3126   5.667   9.378   1.466
    8CHTO  H152 3127   5.731   9.454   1.517
    8CHTO   O55 3128   5.557   9.446   1.405
    8CHTO  H134 3129   5.508   9.495   1.469
    8CHTO   C84 3130   5.619   9.269   1.572
    8CHTO  H156 3131   5.552   9.200   1.521
    8CHTO   N15 3132   5.542   9.329   1.686
    8CHTO  H143 3133   5.510   9.252   1.753
    8CHTO  H144 3134   5.603   9.399   1.740
    8CHTO   C87 3135   5.743   9.190   1.622
    8CHTO  H159 3136   5.809   9.257   1.677
    8CHTO   O53 3137   5.816   9.132   1.501
    8CHTO   C82 3138   5.867   9.234   1.414
    8CHTO  H154 3139   5.932   9.301   1.470
    8CHTO   C89 3140   5.954   9.165   1.306
    8CHTO   O59 3141   5.879   9.072   1.228
    8CHTO  H137 3142   5.936   9.032   1.164
    8CHTO   O45 3143   5.698   9.061   1.719
    8CHTO   C67 3144   5.793   9.018   1.819
    8CHTO  H124 3145   5.747   8.934   1.871
    8CHTO   C65 3146   5.930   8.969   1.757
    8CHTO  H122 3147   5.919   8.973   1.649
    8CHTO   O44 3148   5.949   8.832   1.795
    8CHTO  H102 3149   5.966   8.825   1.887
    8CHTO   C63 3150   6.048   9.066   1.792
    8CHTO  H120 3151   6.023   9.166   1.757
    8CHTO   N11 3152   6.178   9.041   1.722
    8CHTO  H108 3153   6.174   8.949   1.666
    8CHTO  H109 3154   6.259   9.036   1.792
    8CHTO   C61 3155   6.058   9.075   1.950
    8CHTO  H118 3156   6.125   9.158   1.975
    8CHTO   O40 3157   5.931   9.102   2.016
    8CHTO   C68 3158   5.815   9.129   1.930
    8CHTO  H125 3159   5.832   9.228   1.883
    8CHTO   C72 3160   5.689   9.145   2.020
    8CHTO   O48 3161   5.660   9.029   2.099
    8CHTO  H105 3162   5.631   8.959   2.043
    8CHTO   O38 3163   6.102   8.950   2.008
    8CHTO   C55 3164   6.220   8.952   2.090
    8CHTO  H112 3165   6.295   9.021   2.048
    8CHTO   C56 3166   6.274   8.802   2.095
    8CHTO  H113 3167   6.271   8.766   1.991
    8CHTO   O42 3168   6.413   8.795   2.131
    8CHTO  H100 3169   6.428   8.834   2.215
    8CHTO   C57 3170   6.190   8.709   2.193
    8CHTO  H114 3171   6.256   8.681   2.275
    8CHTO   N10 3172   6.149   8.582   2.130
    8CHTO  H106 3173   6.139   8.504   2.204
    8CHTO  H107 3174   6.054   8.593   2.078
    8CHTO   C58 3175   6.069   8.785   2.253
    8CHTO  H115 3176   5.994   8.804   2.173
    8CHTO   O37 3177   6.109   8.910   2.312
    8CHTO   C59 3178   6.184   9.004   2.233
    8CHTO  H116 3179   6.125   9.095   2.224
    8CHTO   C70 3180   6.312   9.042   2.310
    8CHTO   O46 3181   6.284   9.107   2.435
    8CHTO  H103 3182   6.247   9.192   2.420
    8CHTO   O39 3183   6.001   8.701   2.371
    8CHTO   C60 3184   5.862   8.732   2.386
    8CHTO  H117 3185   5.841   8.832   2.348
    8CHTO   C62 3186   5.773   8.631   2.307
    8CHTO  H119 3187   5.805   8.639   2.200
    8CHTO   O43 3188   5.800   8.497   2.351
    8CHTO  H101 3189   5.774   8.487   2.441
    8CHTO   C66 3190   5.619   8.675   2.319
    8CHTO  H123 3191   5.608   8.776   2.280
    8CHTO   N12 3192   5.530   8.590   2.236
    8CHTO  H110 3193   5.557   8.599   2.131
    8CHTO  H111 3194   5.535   8.487   2.268
    8CHTO   C69 3195   5.577   8.678   2.468
    8CHTO  H126 3196   5.580   8.575   2.511
    8CHTO   O41 3197   5.676   8.773   2.551
    8CHTO   C64 3198   5.822   8.732   2.536
    8CHTO  H121 3199   5.836   8.629   2.576
    8CHTO   C71 3200   5.913   8.826   2.619
    8CHTO   O47 3201   5.904   8.962   2.575
    8CHTO  H104 3202   5.963   9.015   2.625
    8CHTO   O34 3203   5.430   8.732   2.485
    8CHTO   C49 3204   5.353   8.865   2.485
    8CHTO   H91 3205   5.369   8.910   2.583
    8CHTO   C47 3206   5.204   8.834   2.465
    8CHTO   H89 3207   5.149   8.930   2.478
    8CHTO   O33 3208   5.163   8.743   2.569
    8CHTO   H70 3209   5.071   8.725   2.562
    8CHTO   C45 3210   5.183   8.777   2.316
    8CHTO   H87 3211   5.252   8.693   2.301
    8CHTO    N8 3212   5.044   8.728   2.294
    8CHTO   H75 3213   5.045   8.622   2.274
    8CHTO   H76 3214   4.998   8.779   2.211
    8CHTO   C43 3215   5.231   8.890   2.210
    8CHTO   H85 3216   5.223   8.844   2.112
    8CHTO   O29 3217   5.366   8.931   2.239
    8CHTO   C50 3218   5.403   8.962   2.375
    8CHTO   H92 3219   5.513   8.961   2.379
    8CHTO   C54 3220   5.370   9.109   2.413
    8CHTO   O36 3221   5.447   9.201   2.335
    8CHTO   H72 3222   5.424   9.289   2.360
    8CHTO   O27 3223   5.144   9.005   2.207
    8CHTO   C37 3224   5.074   9.075   2.102
    8CHTO   H79 3225   5.092   9.025   2.005
    8CHTO   C38 3226   4.921   9.072   2.127
    8CHTO   H80 3227   4.902   9.102   2.231
    8CHTO   O31 3228   4.877   8.935   2.112
    8CHTO   H68 3229   4.787   8.927   2.137
    8CHTO   C39 3230   4.840   9.166   2.030
    8CHTO   H81 3231   4.845   9.119   1.931
    8CHTO    N7 3232   4.693   9.176   2.064
    8CHTO   H73 3233   4.666   9.278   2.090
    8CHTO   H74 3234   4.668   9.110   2.145
    8CHTO   C40 3235   4.907   9.308   2.015
    8CHTO   H82 3236   4.885   9.368   2.103
    8CHTO   O26 3237   5.049   9.296   1.992
    8CHTO   C41 3238   5.124   9.222   2.093
    8CHTO   H83 3239   5.114   9.271   2.191
    8CHTO   C52 3240   5.273   9.228   2.051
    8CHTO   O35 3241   5.327   9.366   2.052
    8CHTO   H71 3242   5.284   9.418   1.987
    8CHTO   O28 3243   4.847   9.377   1.903
    8CHTO   C42 3244   4.909   9.439   1.785
    8CHTO   H84 3245   5.009   9.470   1.816
    8CHTO   C44 3246   4.834   9.569   1.739
    8CHTO   H86 3247   4.728   9.546   1.733
    8CHTO   O32 3248   4.847   9.666   1.844
    8CHTO   H69 3249   4.936   9.691   1.856
    8CHTO   C48 3250   4.881   9.629   1.600
    8CHTO   H90 3251   4.974   9.683   1.616
    8CHTO    N9 3252   4.784   9.732   1.548
    8CHTO   H77 3253   4.776   9.813   1.619
    8CHTO   H78 3254   4.818   9.770   1.453
    8CHTO   C51 3255   4.908   9.516   1.495
    8CHTO   H93 3256   4.812   9.473   1.464
    8CHTO   O30 3257   4.993   9.418   1.556
    8CHTO   C46 3258   4.927   9.343   1.663
    8CHTO   H88 3259   4.829   9.311   1.628
    8CHTO   C53 3260   5.016   9.219   1.691
    8CHTO   O72 3261   5.017   9.130   1.579
    8CHTO  H199 3262   5.070   9.055   1.599
    8CHTO   O22 3263   4.979   9.567   1.380
    8CHTO   C31 3264   5.035   9.483   1.272
    8CHTO   H59 3265   5.062   9.553   1.190
    8CHTO   C29 3266   5.165   9.409   1.310
    8CHTO   H57 3267   5.143   9.338   1.391
    8CHTO   O21 3268   5.258   9.505   1.364
    8CHTO   H37 3269   5.226   9.540   1.445
    8CHTO   C27 3270   5.225   9.328   1.188
    8CHTO   H55 3271   5.252   9.399   1.109
    8CHTO    N5 3272   5.346   9.250   1.226
    8CHTO   H43 3273   5.321   9.176   1.300
    8CHTO   H44 3274   5.388   9.203   1.138
    8CHTO   C25 3275   5.111   9.235   1.131
    8CHTO   H53 3276   5.084   9.160   1.207
    8CHTO   O17 3277   4.992   9.314   1.098
    8CHTO   C32 3278   4.934   9.382   1.210
    8CHTO   H60 3279   4.906   9.309   1.286
    8CHTO   C36 3280   4.806   9.454   1.162
    8CHTO   O25 3281   4.703   9.360   1.129
    8CHTO   H40 3282   4.627   9.405   1.098
    8CHTO   O15 3283   5.157   9.162   1.004
    8CHTO   C19 3284   5.220   9.130   0.877
    8CHTO   H47 3285   5.163   9.044   0.842
    8CHTO   C20 3286   5.210   9.243   0.769
    8CHTO   H48 3287   5.256   9.337   0.804
    8CHTO   O19 3288   5.070   9.267   0.747
    8CHTO   H35 3289   5.032   9.309   0.822
    8CHTO   C21 3290   5.282   9.200   0.634
    8CHTO   H49 3291   5.229   9.114   0.593
    8CHTO    N4 3292   5.280   9.306   0.531
    8CHTO   H41 3293   5.380   9.340   0.507
    8CHTO   H42 3294   5.233   9.270   0.440
    8CHTO   C22 3295   5.426   9.151   0.669
    8CHTO   H50 3296   5.482   9.236   0.709
    8CHTO   O14 3297   5.421   9.045   0.765
    8CHTO   C23 3298   5.367   9.082   0.892
    8CHTO   H51 3299   5.432   9.161   0.934
    8CHTO   C34 3300   5.375   8.960   0.985
    8CHTO   O23 3301   5.511   8.921   1.008
    8CHTO   H38 3302   5.513   8.846   1.064
    8CHTO   O16 3303   5.494   9.094   0.555
    8CHTO   C24 3304   5.653   9.100   0.568
    8CHTO   H52 3305   5.685   9.123   0.670
    8CHTO   C26 3306   5.708   9.208   0.472
    8CHTO   H54 3307   5.667   9.188   0.370
    8CHTO   O20 3308   5.659   9.336   0.516
    8CHTO   H36 3309   5.566   9.341   0.503
    8CHTO   C30 3310   5.864   9.203   0.464
    8CHTO   H58 3311   5.908   9.234   0.561
    8CHTO    N6 3312   5.917   9.299   0.363
    8CHTO   H45 3313   6.025   9.294   0.360
    8CHTO   H46 3314   5.887   9.400   0.389
    8CHTO   C33 3315   5.912   9.057   0.437
    8CHTO   H61 3316   5.874   9.026   0.338
    8CHTO   O18 3317   5.856   8.970   0.537
    8CHTO   C28 3318   5.713   8.961   0.532
    8CHTO   H56 3319   5.679   8.933   0.432
    8CHTO   C35 3320   5.666   8.851   0.630
    8CHTO   O24 3321   5.703   8.873   0.766
    8CHTO   H39 3322   5.673   8.802   0.819
    8CHTO    O9 3323   6.055   9.043   0.430
    8CHTO   C13 3324   6.098   8.906   0.356
    8CHTO   H26 3325   6.015   8.833   0.369
    8CHTO   C11 3326   6.233   8.851   0.418
    8CHTO   H24 3327   6.214   8.827   0.523
    8CHTO    O8 3328   6.336   8.952   0.415
    8CHTO    H3 3329   6.312   9.024   0.470
    8CHTO    C9 3330   6.268   8.721   0.342
    8CHTO   H22 3331   6.180   8.655   0.353
    8CHTO    N2 3332   6.379   8.644   0.403
    8CHTO   H10 3333   6.391   8.550   0.352
    8CHTO   H11 3334   6.359   8.628   0.508
    8CHTO    C7 3335   6.288   8.751   0.189
    8CHTO   H20 3336   6.297   8.651   0.142
    8CHTO    O4 3337   6.175   8.820   0.130
    8CHTO   C14 3338   6.110   8.928   0.199
    8CHTO   H27 3339   6.007   8.932   0.159
    8CHTO   C18 3340   6.176   9.064   0.163
    8CHTO   O13 3341   6.160   9.093   0.023
    8CHTO    H7 3342   6.202   9.175   0.003
    8CHTO    O2 3343   6.426   8.836   0.159
    8CHTO    C1 3344   6.456   8.872   0.023
    8CHTO   H14 3345   6.379   8.943   2.868
    8CHTO    C2 3346   6.466   8.751   2.801
    8CHTO   H15 3347   6.530   8.676   2.849
    8CHTO    O6 3348   6.335   8.695   2.779
    8CHTO    H1 3349   6.277   8.760   2.743
    8CHTO    C3 3350   6.530   8.797   2.660
    8CHTO   H16 3351   6.457   8.861   2.607
    8CHTO    N1 3352   6.558   8.679   2.572
    8CHTO    H8 3353   6.664   8.670   2.551
    8CHTO    H9 3354   6.504   8.687   2.479
    8CHTO    C4 3355   6.657   8.889   2.683
    8CHTO   H17 3356   6.738   8.827   2.723
    8CHTO    O1 3357   6.625   8.994   2.775
    8CHTO    C5 3358   6.590   8.950   0.025
    8CHTO   H18 3359   6.666   8.882   0.063
    8CHTO   C16 3360   6.583   9.074   0.117
    8CHTO   O11 3361   6.712   9.133   0.135
    8CHTO    H5 3362   6.742   9.170   0.055
    8CHTO    O3 3363   6.698   8.960   2.564
    8CHTO    C6 3364   6.830   8.925   2.507
    8CHTO   H19 3365   6.870   8.832   2.547
    8CHTO    C8 3366   6.817   8.909   2.351
    8CHTO   H21 3367   6.775   9.001   2.311
    8CHTO    O7 3368   6.728   8.800   2.325
    8CHTO    H2 3369   6.641   8.822   2.351
    8CHTO   C12 3370   6.959   8.884   2.285
    8CHTO   H25 3371   6.993   8.784   2.320
    8CHTO    N3 3372   6.951   8.878   2.135
    8CHTO   H12 3373   7.049   8.857   2.094
    8CHTO   H13 3374   6.914   8.972   2.097
    8CHTO   C15 3375   7.062   8.992   2.337
    8CHTO   H28 3376   7.042   9.091   2.295
    8CHTO   O10 3377   7.208   8.953   2.308
    8CHTO    H4 3378   7.223   8.950   2.215
    8CHTO    O5 3379   7.062   8.997   2.480
    8CHTO   C10 3380   6.936   9.036   2.537
    8CHTO   H23 3381   6.905   9.131   2.492
    8CHTO   C17 3382   6.963   9.061   2.686
    8CHTO   O12 3383   6.863   9.144   2.744
    8CHTO    H6 3384   6.882   9.157   2.835
    9CHTO  H203 3385   6.767   3.053   1.468
    9CHTO   O82 3386   6.695   3.106   1.439
    9CHTO  C123 3387   6.649   3.058   1.312
    9CHTO  H227 3388   6.618   2.952   1.323
    9CHTO   O77 3389   6.532   3.141   1.286
    9CHTO  C118 3390   6.459   3.102   1.168
    9CHTO  H222 3391   6.435   2.995   1.173
    9CHTO  C125 3392   6.326   3.184   1.165
    9CHTO   O84 3393   6.243   3.149   1.276
    9CHTO  H205 3394   6.164   3.199   1.273
    9CHTO  C114 3395   6.546   3.128   1.044
    9CHTO  H218 3396   6.568   3.235   1.039
    9CHTO  C116 3397   6.683   3.052   1.055
    9CHTO  H220 3398   6.664   2.943   1.040
    9CHTO   O79 3399   6.768   3.094   0.946
    9CHTO  H201 3400   6.847   3.043   0.946
    9CHTO  C120 3401   6.753   3.077   1.195
    9CHTO  H224 3402   6.789   3.182   1.194
    9CHTO   N21 3403   6.872   2.990   1.212
    9CHTO  H211 3404   6.889   2.968   1.316
    9CHTO  H212 3405   6.959   3.037   1.169
    9CHTO   O75 3406   6.462   3.091   0.933
    9CHTO  C112 3407   6.517   3.133   0.783
    9CHTO  H216 3408   6.608   3.074   0.761
    9CHTO   O73 3409   6.543   3.274   0.783
    9CHTO  C113 3410   6.614   3.318   0.666
    9CHTO  H217 3411   6.712   3.265   0.664
    9CHTO  C124 3412   6.645   3.467   0.681
    9CHTO   O83 3413   6.529   3.549   0.699
    9CHTO  H204 3414   6.555   3.639   0.710
    9CHTO  C109 3415   6.535   3.289   0.534
    9CHTO  H213 3416   6.451   3.361   0.532
    9CHTO  C110 3417   6.476   3.145   0.532
    9CHTO  H214 3418   6.555   3.074   0.508
    9CHTO   O78 3419   6.381   3.139   0.424
    9CHTO  H200 3420   6.349   3.051   0.413
    9CHTO  C111 3421   6.412   3.105   0.669
    9CHTO  H215 3422   6.324   3.169   0.686
    9CHTO   N19 3423   6.364   2.964   0.673
    9CHTO  H207 3424   6.319   2.943   0.769
    9CHTO  H208 3425   6.447   2.897   0.656
    9CHTO   O74 3426   6.619   3.315   0.417
    9CHTO  C115 3427   6.750   3.217   0.401
    9CHTO  H219 3428   6.757   3.146   0.484
    9CHTO   O76 3429   6.741   3.124   0.267
    9CHTO  C122 3430   6.760   3.196   0.144
    9CHTO  H226 3431   6.678   3.268   0.133
    9CHTO  C126 3432   6.747   3.097   0.023
    9CHTO   O85 3433   6.615   3.042   0.010
    9CHTO  H206 3434   6.555   3.109   2.866
    9CHTO  C121 3435   6.898   3.270   0.145
    9CHTO  H225 3436   6.979   3.195   0.164
    9CHTO   O81 3437   6.928   3.332   0.019
    9CHTO  H202 3438   6.863   3.397   2.881
    9CHTO  C119 3439   6.897   3.374   0.261
    9CHTO  H223 3440   6.994   3.423   0.259
    9CHTO  C117 3441   6.879   3.308   0.403
    9CHTO  H221 3442   6.861   3.379   0.484
    9CHTO   N20 3443   6.999   3.229   0.448
    9CHTO  H209 3444   7.043   3.274   0.536
    9CHTO  H210 3445   7.073   3.222   0.369
    9CHTO   O80 3446   6.801   3.492   0.234
    9CHTO  C103 3447   6.830   3.634   0.299
    9CHTO  H190 3448   6.837   3.626   0.408
    9CHTO  C101 3449   6.956   3.712   0.244
    9CHTO  H188 3450   6.956   3.705   0.135
    9CHTO   O68 3451   7.086   3.644   0.298
    9CHTO  H168 3452   7.161   3.683   0.257
    9CHTO   C99 3453   6.952   3.867   0.285
    9CHTO  H186 3454   6.963   3.876   0.395
    9CHTO   N17 3455   7.063   3.949   0.224
    9CHTO  H174 3456   7.060   4.050   0.263
    9CHTO  H175 3457   7.054   3.949   0.116
    9CHTO   C97 3458   6.812   3.927   0.252
    9CHTO  H184 3459   6.800   3.929   0.143
    9CHTO   O64 3460   6.710   3.850   0.317
    9CHTO  C104 3461   6.699   3.716   0.267
    9CHTO  H191 3462   6.681   3.714   0.159
    9CHTO  C108 3463   6.576   3.649   0.331
    9CHTO   O71 3464   6.454   3.718   0.296
    9CHTO  H171 3465   6.452   3.802   0.337
    9CHTO   O62 3466   6.795   4.059   0.308
    9CHTO   C91 3467   6.717   4.153   0.231
    9CHTO  H178 3468   6.742   4.139   0.126
    9CHTO   C92 3469   6.765   4.296   0.269
    9CHTO  H179 3470   6.875   4.298   0.274
    9CHTO   O66 3471   6.730   4.387   0.163
    9CHTO  H166 3472   6.778   4.366   0.085
    9CHTO   C93 3473   6.701   4.351   0.402
    9CHTO  H180 3474   6.728   4.458   0.408
    9CHTO   N16 3475   6.757   4.293   0.527
    9CHTO  H172 3476   6.709   4.336   0.613
    9CHTO  H173 3477   6.863   4.310   0.531
    9CHTO   C94 3478   6.543   4.339   0.395
    9CHTO  H181 3479   6.502   4.288   0.482
    9CHTO   O61 3480   6.495   4.267   0.280
    9CHTO   C95 3481   6.558   4.141   0.251
    9CHTO  H182 3482   6.538   4.072   0.333
    9CHTO  C106 3483   6.486   4.084   0.125
    9CHTO   O69 3484   6.543   3.960   0.082
    9CHTO  H169 3485   6.497   3.929   0.007
    9CHTO   O63 3486   6.487   4.484   0.385
    9CHTO   C96 3487   6.371   4.515   0.481
    9CHTO  H183 3488   6.370   4.440   0.560
    9CHTO   C98 3489   6.231   4.516   0.414
    9CHTO  H185 3490   6.233   4.582   0.326
    9CHTO   O67 3491   6.207   4.384   0.363
    9CHTO  H167 3492   6.126   4.382   0.316
    9CHTO  C102 3493   6.116   4.562   0.516
    9CHTO  H189 3494   6.107   4.481   0.590
    9CHTO   N18 3495   5.981   4.577   0.455
    9CHTO  H176 3496   5.909   4.605   0.531
    9CHTO  H177 3497   5.984   4.651   0.377
    9CHTO  C105 3498   6.161   4.690   0.592
    9CHTO  H192 3499   6.157   4.776   0.524
    9CHTO   O65 3500   6.294   4.681   0.645
    9CHTO  C100 3501   6.397   4.654   0.550
    9CHTO  H187 3502   6.396   4.733   0.473
    9CHTO  C107 3503   6.535   4.660   0.621
    9CHTO   O70 3504   6.550   4.559   0.721
    9CHTO  H170 3505   6.492   4.576   0.793
    9CHTO   O57 3506   6.061   4.709   0.715
    9CHTO   C85 3507   6.003   4.837   0.744
    9CHTO  H157 3508   5.949   4.867   0.651
    9CHTO   C83 3509   6.114   4.946   0.765
    9CHTO  H155 3510   6.167   4.959   0.671
    9CHTO   O56 3511   6.211   4.899   0.861
    9CHTO  H135 3512   6.256   4.824   0.828
    9CHTO   C81 3513   6.047   5.081   0.803
    9CHTO  H153 3514   5.976   5.107   0.724
    9CHTO   N14 3515   6.140   5.197   0.805
    9CHTO  H141 3516   6.135   5.249   0.898
    9CHTO  H142 3517   6.241   5.165   0.789
    9CHTO   C79 3518   5.965   5.063   0.937
    9CHTO  H151 3519   5.917   5.158   0.958
    9CHTO   O52 3520   5.859   4.965   0.916
    9CHTO   C86 3521   5.906   4.834   0.870
    9CHTO  H158 3522   5.956   4.791   0.959
    9CHTO   C90 3523   5.781   4.745   0.845
    9CHTO   O60 3524   5.814   4.608   0.820
    9CHTO  H138 3525   5.850   4.569   0.898
    9CHTO   O50 3526   6.046   5.025   1.050
    9CHTO   C73 3527   6.045   5.062   1.188
    9CHTO  H145 3528   5.941   5.071   1.224
    9CHTO   C74 3529   6.117   5.198   1.208
    9CHTO  H146 3530   6.066   5.272   1.145
    9CHTO   O54 3531   6.098   5.241   1.345
    9CHTO  H133 3532   6.008   5.262   1.360
    9CHTO   C75 3533   6.269   5.182   1.168
    9CHTO  H147 3534   6.274   5.153   1.062
    9CHTO   N13 3535   6.347   5.307   1.178
    9CHTO  H139 3536   6.344   5.344   1.279
    9CHTO  H140 3537   6.306   5.382   1.112
    9CHTO   C76 3538   6.334   5.062   1.252
    9CHTO  H148 3539   6.336   5.092   1.357
    9CHTO   O49 3540   6.255   4.939   1.237
    9CHTO   C77 3541   6.117   4.952   1.274
    9CHTO  H149 3542   6.110   4.979   1.379
    9CHTO   C88 3543   6.051   4.815   1.261
    9CHTO   O58 3544   5.908   4.818   1.308
    9CHTO  H136 3545   5.857   4.870   1.250
    9CHTO   O51 3546   6.482   5.023   1.195
    9CHTO   C78 3547   6.583   4.983   1.313
    9CHTO  H150 3548   6.529   4.976   1.410
    9CHTO   C80 3549   6.694   5.090   1.325
    9CHTO  H152 3550   6.749   5.096   1.228
    9CHTO   O55 3551   6.630   5.217   1.348
    9CHTO  H134 3552   6.583   5.244   1.272
    9CHTO   C84 3553   6.794   5.053   1.442
    9CHTO  H156 3554   6.738   5.056   1.535
    9CHTO   N15 3555   6.907   5.151   1.455
    9CHTO  H143 3556   6.868   5.249   1.475
    9CHTO  H144 3557   6.970   5.122   1.537
    9CHTO   C87 3558   6.847   4.909   1.421
    9CHTO  H159 3559   6.914   4.905   1.335
    9CHTO   O53 3560   6.727   4.811   1.400
    9CHTO   C82 3561   6.647   4.846   1.286
    9CHTO  H154 3562   6.708   4.847   1.196
    9CHTO   C89 3563   6.541   4.734   1.267
    9CHTO   O59 3564   6.477   4.742   1.139
    9CHTO  H137 3565   6.424   4.819   1.135
    9CHTO   O45 3566   6.926   4.858   1.555
    9CHTO   C67 3567   7.027   4.760   1.529
    9CHTO  H124 3568   6.993   4.695   1.448
    9CHTO   C65 3569   7.163   4.827   1.488
    9CHTO  H122 3570   7.161   4.928   1.529
    9CHTO   O44 3571   7.163   4.834   1.345
    9CHTO  H102 3572   7.095   4.891   1.314
    9CHTO   C63 3573   7.288   4.758   1.555
    9CHTO  H120 3574   7.291   4.786   1.660
    9CHTO   N11 3575   7.422   4.806   1.508
    9CHTO  H108 3576   7.437   4.778   1.406
    9CHTO  H109 3577   7.499   4.763   1.568
    9CHTO   C61 3578   7.266   4.602   1.551
    9CHTO  H118 3579   7.354   4.556   1.599
    9CHTO   O40 3580   7.149   4.562   1.628
    9CHTO   C68 3581   7.047   4.664   1.654
    9CHTO  H125 3582   7.079   4.724   1.742
    9CHTO   C72 3583   6.915   4.594   1.693
    9CHTO   O48 3584   6.864   4.509   1.590
    9CHTO  H105 3585   6.784   4.469   1.619
    9CHTO   O38 3586   7.248   4.554   1.416
    9CHTO   C55 3587   7.312   4.430   1.379
    9CHTO  H112 3588   7.348   4.377   1.468
    9CHTO   C56 3589   7.429   4.461   1.277
    9CHTO  H113 3590   7.387   4.528   1.199
    9CHTO   O42 3591   7.532   4.537   1.343
    9CHTO  H100 3592   7.570   4.487   1.413
    9CHTO   C57 3593   7.487   4.330   1.211
    9CHTO  H114 3594   7.541   4.276   1.289
    9CHTO   N10 3595   7.583   4.356   1.100
    9CHTO  H106 3596   7.637   4.448   1.118
    9CHTO  H107 3597   7.655   4.275   1.093
    9CHTO   C58 3598   7.370   4.240   1.162
    9CHTO  H115 3599   7.319   4.291   1.077
    9CHTO   O37 3600   7.276   4.216   1.268
    9CHTO   C59 3601   7.209   4.335   1.312
    9CHTO  H116 3602   7.160   4.384   1.227
    9CHTO   C70 3603   7.099   4.294   1.412
    9CHTO   O46 3604   6.998   4.212   1.353
    9CHTO  H103 3605   6.949   4.262   1.290
    9CHTO   O39 3606   7.424   4.096   1.115
    9CHTO   C60 3607   7.328   4.020   1.041
    9CHTO  H117 3608   7.228   4.037   1.081
    9CHTO   C62 3609   7.325   4.058   0.890
    9CHTO  H119 3610   7.295   4.165   0.885
    9CHTO   O43 3611   7.458   4.046   0.834
    9CHTO  H101 3612   7.515   4.111   0.871
    9CHTO   C66 3613   7.216   3.968   0.814
    9CHTO  H123 3614   7.119   3.984   0.863
    9CHTO   N12 3615   7.196   4.008   0.673
    9CHTO  H110 3616   7.119   3.947   0.627
    9CHTO  H111 3617   7.289   4.000   0.619
    9CHTO   C69 3618   7.254   3.818   0.831
    9CHTO  H126 3619   7.353   3.799   0.784
    9CHTO   O41 3620   7.261   3.784   0.982
    9CHTO   C64 3621   7.358   3.868   1.059
    9CHTO  H121 3622   7.461   3.848   1.023
    9CHTO   C71 3623   7.352   3.827   1.209
    9CHTO   O47 3624   7.221   3.845   1.265
    9CHTO  H104 3625   7.203   3.936   1.273
    9CHTO   O34 3626   7.150   3.722   0.765
    9CHTO   C49 3627   7.038   3.620   0.793
    9CHTO   H91 3628   7.029   3.559   0.703
    9CHTO   C47 3629   6.905   3.696   0.816
    9CHTO   H89 3630   6.826   3.619   0.817
    9CHTO   O33 3631   6.882   3.784   0.703
    9CHTO   H70 3632   6.946   3.853   0.702
    9CHTO   C45 3633   6.908   3.770   0.958
    9CHTO   H87 3634   6.996   3.835   0.963
    9CHTO    N8 3635   6.788   3.854   0.982
    9CHTO   H75 3636   6.797   3.905   1.076
    9CHTO   H76 3637   6.777   3.926   0.902
    9CHTO   C43 3638   6.931   3.660   1.073
    9CHTO   H85 3639   6.937   3.715   1.167
    9CHTO   O29 3640   7.052   3.587   1.046
    9CHTO   C50 3641   7.070   3.528   0.915
    9CHTO   H92 3642   7.177   3.502   0.907
    9CHTO   C54 3643   7.000   3.389   0.908
    9CHTO   O36 3644   7.031   3.318   0.788
    9CHTO   H72 3645   6.993   3.233   0.791
    9CHTO   O27 3646   6.820   3.568   1.087
    9CHTO   C37 3647   6.742   3.510   1.193
    9CHTO   H79 3648   6.711   3.408   1.165
    9CHTO   C38 3649   6.826   3.496   1.325
    9CHTO   H80 3650   6.884   3.588   1.339
    9CHTO   O31 3651   6.918   3.387   1.303
    9CHTO   H68 3652   6.977   3.380   1.376
    9CHTO   C39 3653   6.736   3.473   1.452
    9CHTO   H81 3654   6.687   3.376   1.442
    9CHTO    N7 3655   6.816   3.471   1.580
    9CHTO   H73 3656   6.784   3.548   1.648
    9CHTO   H74 3657   6.808   3.374   1.628
    9CHTO   C40 3658   6.623   3.583   1.453
    9CHTO   H82 3659   6.672   3.680   1.451
    9CHTO   O26 3660   6.543   3.562   1.335
    9CHTO   C41 3661   6.614   3.597   1.213
    9CHTO   H83 3662   6.642   3.703   1.216
    9CHTO   C52 3663   6.517   3.577   1.094
    9CHTO   O35 3664   6.399   3.665   1.102
    9CHTO   H71 3665   6.425   3.754   1.088
    9CHTO   O28 3666   6.536   3.580   1.568
    9CHTO   C42 3667   6.441   3.689   1.595
    9CHTO   H84 3668   6.406   3.668   1.696
    9CHTO   C44 3669   6.312   3.691   1.505
    9CHTO   H86 3670   6.343   3.702   1.400
    9CHTO   O32 3671   6.249   3.562   1.519
    9CHTO   H69 3672   6.301   3.496   1.479
    9CHTO   C48 3673   6.215   3.811   1.540
    9CHTO   H90 3674   6.182   3.799   1.643
    9CHTO    N9 3675   6.090   3.812   1.456
    9CHTO   H77 3676   6.003   3.803   1.518
    9CHTO   H78 3677   6.092   3.733   1.382
    9CHTO   C51 3678   6.300   3.942   1.527
    9CHTO   H93 3679   6.344   3.942   1.427
    9CHTO   O30 3680   6.400   3.938   1.630
    9CHTO   C46 3681   6.506   3.831   1.599
    9CHTO   H88 3682   6.550   3.854   1.501
    9CHTO   C53 3683   6.615   3.840   1.708
    9CHTO   O72 3684   6.680   3.967   1.705
    9CHTO  H199 3685   6.748   3.970   1.770
    9CHTO   O22 3686   6.228   4.066   1.549
    9CHTO   C31 3687   6.266   4.185   1.470
    9CHTO   H59 3688   6.201   4.267   1.507
    9CHTO   C29 3689   6.413   4.231   1.493
    9CHTO   H57 3690   6.476   4.142   1.479
    9CHTO   O21 3691   6.426   4.270   1.631
    9CHTO   H37 3692   6.516   4.284   1.652
    9CHTO   C27 3693   6.461   4.345   1.393
    9CHTO   H55 3694   6.407   4.438   1.417
    9CHTO    N5 3695   6.607   4.370   1.402
    9CHTO   H43 3696   6.662   4.282   1.374
    9CHTO   H44 3697   6.634   4.453   1.338
    9CHTO   C25 3698   6.419   4.303   1.247
    9CHTO   H53 3699   6.469   4.208   1.223
    9CHTO   O17 3700   6.275   4.286   1.245
    9CHTO   C32 3701   6.234   4.170   1.318
    9CHTO   H60 3702   6.287   4.082   1.279
    9CHTO   C36 3703   6.084   4.150   1.291
    9CHTO   O25 3704   6.062   4.121   1.152
    9CHTO   H40 3705   5.971   4.108   1.137
    9CHTO   O15 3706   6.456   4.410   1.134
    9CHTO   C19 3707   6.428   4.381   0.993
    9CHTO   H47 3708   6.484   4.459   0.940
    9CHTO   C20 3709   6.478   4.241   0.945
    9CHTO   H48 3710   6.436   4.159   1.005
    9CHTO   O19 3711   6.621   4.239   0.963
    9CHTO   H35 3712   6.643   4.237   1.054
    9CHTO   C21 3713   6.440   4.212   0.794
    9CHTO   H49 3714   6.495   4.282   0.730
    9CHTO    N4 3715   6.479   4.075   0.751
    9CHTO   H41 3716   6.454   4.060   0.647
    9CHTO   H42 3717   6.428   4.001   0.811
    9CHTO   C22 3718   6.288   4.240   0.775
    9CHTO   H50 3719   6.232   4.170   0.837
    9CHTO   O14 3720   6.259   4.376   0.814
    9CHTO   C23 3721   6.278   4.400   0.954
    9CHTO   H51 3722   6.212   4.330   1.008
    9CHTO   C34 3723   6.231   4.542   0.987
    9CHTO   O23 3724   6.089   4.554   0.970
    9CHTO   H38 3725   6.067   4.554   0.879
    9CHTO   O16 3726   6.245   4.234   0.637
    9CHTO   C24 3727   6.142   4.110   0.602
    9CHTO   H52 3728   6.143   4.033   0.680
    9CHTO   C26 3729   6.184   4.047   0.468
    9CHTO   H54 3730   6.187   4.127   0.390
    9CHTO   O20 3731   6.318   3.994   0.481
    9CHTO   H36 3732   6.380   4.064   0.492
    9CHTO   C30 3733   6.083   3.938   0.422
    9CHTO   H58 3734   6.088   3.851   0.490
    9CHTO    N6 3735   6.117   3.885   0.287
    9CHTO   H45 3736   6.113   3.964   0.214
    9CHTO   H46 3737   6.048   3.807   0.259
    9CHTO   C33 3738   5.936   3.991   0.429
    9CHTO   H61 3739   5.923   4.070   0.352
    9CHTO   O18 3740   5.911   4.050   0.558
    9CHTO   C28 3741   5.996   4.161   0.591
    9CHTO   H56 3742   5.991   4.238   0.514
    9CHTO   C35 3743   5.947   4.221   0.725
    9CHTO   O24 3744   5.814   4.274   0.716
    9CHTO   H39 3745   5.788   4.308   0.799
    9CHTO    O9 3746   5.840   3.888   0.398
    9CHTO   C13 3747   5.726   3.930   0.287
    9CHTO   H26 3748   5.775   3.995   0.210
    9CHTO   C11 3749   5.604   4.005   0.357
    9CHTO   H24 3750   5.630   4.112   0.364
    9CHTO    O8 3751   5.585   3.956   0.491
    9CHTO    H3 3752   5.660   3.976   0.544
    9CHTO    C9 3753   5.478   3.987   0.269
    9CHTO   H22 3754   5.509   4.015   0.167
    9CHTO    N2 3755   5.367   4.080   0.299
    9CHTO   H10 3756   5.289   4.069   0.226
    9CHTO   H11 3757   5.329   4.061   0.398
    9CHTO    C7 3758   5.439   3.834   0.269
    9CHTO   H20 3759   5.374   3.821   0.179
    9CHTO    O4 3760   5.553   3.746   0.259
    9CHTO   C14 3761   5.675   3.803   0.205
    9CHTO   H27 3762   5.652   3.836   0.101
    9CHTO   C18 3763   5.783   3.693   0.194
    9CHTO   O13 3764   5.751   3.600   0.091
    9CHTO    H7 3765   5.760   3.641   0.007
    9CHTO    O2 3766   5.356   3.791   0.406
    9CHTO    C1 3767   5.235   3.717   0.385
    9CHTO   H14 3768   5.233   3.675   0.282
    9CHTO    C2 3769   5.104   3.805   0.407
    9CHTO   H15 3770   5.120   3.859   0.502
    9CHTO    O6 3771   5.093   3.899   0.300
    9CHTO    H1 3772   5.161   3.963   0.305
    9CHTO    C3 3773   4.971   3.715   0.417
    9CHTO   H16 3774   4.949   3.676   0.316
    9CHTO    N1 3775   4.850   3.795   0.459
    9CHTO    H8 3776   4.876   3.899   0.476
    9CHTO    H9 3777   4.806   3.754   0.549
    9CHTO    C4 3778   4.995   3.589   0.507
    9CHTO   H17 3779   5.005   3.621   0.611
    9CHTO    O1 3780   5.113   3.518   0.465
    9CHTO    C5 3781   5.234   3.595   0.482
    9CHTO   H18 3782   5.240   3.632   0.584
    9CHTO   C16 3783   5.354   3.500   0.457
    9CHTO   O11 3784   5.358   3.395   0.553
    9CHTO    H5 3785   5.429   3.337   0.534
    9CHTO    O3 3786   4.885   3.497   0.495
    9CHTO    C6 3787   4.883   3.379   0.582
    9CHTO   H19 3788   4.983   3.348   0.612
    9CHTO    C8 3789   4.800   3.406   0.712
    9CHTO   H21 3790   4.705   3.452   0.683
    9CHTO    O7 3791   4.875   3.499   0.793
    9CHTO    H2 3792   4.877   3.583   0.753
    9CHTO   C12 3793   4.770   3.271   0.790
    9CHTO   H25 3794   4.868   3.234   0.828
    9CHTO    N3 3795   4.682   3.295   0.909
    9CHTO   H12 3796   4.587   3.335   0.878
    9CHTO   H13 3797   4.669   3.203   0.964
    9CHTO   C15 3798   4.712   3.166   0.689
    9CHTO   H28 3799   4.615   3.196   0.650
    9CHTO   O10 3800   4.701   3.026   0.746
    9CHTO    H4 3801   4.637   3.025   0.815
    9CHTO    O5 3802   4.804   3.145   0.581
    9CHTO   C10 3803   4.821   3.263   0.500
    9CHTO   H23 3804   4.723   3.293   0.463
    9CHTO   C17 3805   4.905   3.227   0.376
    9CHTO   O12 3806   5.036   3.181   0.411
    9CHTO    H6 3807   5.084   3.161   0.333
   10CHTO  H203 3808   3.504   6.260   2.506
   10CHTO   O82 3809   3.597   6.265   2.517
   10CHTO  C123 3810   3.632   6.349   2.629
   10CHTO  H227 3811   3.741   6.348   2.641
   10CHTO   O77 3812   3.587   6.482   2.588
   10CHTO  C118 3813   3.629   6.586   2.678
   10CHTO  H222 3814   3.738   6.583   2.691
   10CHTO  C125 3815   3.590   6.721   2.606
   10CHTO   O84 3816   3.655   6.834   2.666
   10CHTO  H205 3817   3.629   6.912   2.622
   10CHTO  C114 3818   3.559   6.568   2.814
   10CHTO  H218 3819   3.452   6.580   2.801
   10CHTO  C116 3820   3.581   6.422   2.871
   10CHTO  H220 3821   3.685   6.416   0.030
   10CHTO   O79 3822   3.494   6.401   0.102
   10CHTO  H201 3823   3.404   6.407   0.075
   10CHTO  C120 3824   3.559   6.310   2.762
   10CHTO  H224 3825   3.449   6.306   2.744
   10CHTO   N21 3826   3.600   6.176   2.812
   10CHTO  H211 3827   3.704   6.158   2.791
   10CHTO  H212 3828   3.539   6.099   2.767
   10CHTO   O75 3829   3.610   6.677   0.012
   10CHTO  C112 3830   3.590   6.672   0.176
   10CHTO  H216 3831   3.642   6.584   0.215
   10CHTO   O73 3832   3.449   6.667   0.203
   10CHTO  C113 3833   3.421   6.638   0.341
   10CHTO  H217 3834   3.468   6.541   0.368
   10CHTO  C124 3835   3.269   6.621   0.357
   10CHTO   O83 3836   3.216   6.515   0.277
   10CHTO  H204 3837   3.221   6.538   0.186
   10CHTO  C109 3838   3.475   6.751   0.433
   10CHTO  H213 3839   3.411   6.839   0.416
   10CHTO  C110 3840   3.624   6.785   0.401
   10CHTO  H214 3841   3.687   6.705   0.440
   10CHTO   O78 3842   3.658   6.905   0.473
   10CHTO  H200 3843   3.749   6.924   0.462
   10CHTO  C111 3844   3.647   6.800   0.247
   10CHTO  H215 3845   3.591   6.888   0.211
   10CHTO   N19 3846   3.789   6.823   0.211
   10CHTO  H207 3847   3.799   6.834   0.104
   10CHTO  H208 3848   3.825   6.913   0.259
   10CHTO   O74 3849   3.461   6.710   0.573
   10CHTO  C115 3850   3.392   6.818   0.671
   10CHTO  H219 3851   3.379   6.915   0.621
   10CHTO   O76 3852   3.247   6.774   0.712
   10CHTO  C122 3853   3.251   6.658   0.796
   10CHTO  H226 3854   3.308   6.581   0.743
   10CHTO  C126 3855   3.105   6.601   0.810
   10CHTO   O85 3856   3.098   6.482   0.890
   10CHTO  H206 3857   3.142   6.412   0.846
   10CHTO  C121 3858   3.318   6.690   0.936
   10CHTO  H225 3859   3.238   6.704   1.012
   10CHTO   O81 3860   3.397   6.577   0.975
   10CHTO  H202 3861   3.427   6.587   1.063
   10CHTO  C119 3862   3.406   6.820   0.932
   10CHTO  H223 3863   3.335   6.903   0.937
   10CHTO  C117 3864   3.487   6.834   0.797
   10CHTO  H221 3865   3.564   6.759   0.784
   10CHTO   N20 3866   3.560   6.965   0.792
   10CHTO  H209 3867   3.491   7.047   0.796
   10CHTO  H210 3868   3.631   6.971   0.874
   10CHTO   O80 3869   3.492   6.841   1.071
   10CHTO  C103 3870   3.448   6.954   1.178
   10CHTO  H190 3871   3.522   6.959   1.258
   10CHTO  C101 3872   3.428   7.100   1.122
   10CHTO  H188 3873   3.364   7.096   1.034
   10CHTO   O68 3874   3.568   7.156   1.078
   10CHTO  H168 3875   3.602   7.104   1.007
   10CHTO   C99 3876   3.360   7.195   1.231
   10CHTO  H186 3877   3.431   7.210   1.315
   10CHTO   N17 3878   3.327   7.332   1.178
   10CHTO  H174 3879   3.343   7.337   1.071
   10CHTO  H175 3880   3.227   7.362   1.204
   10CHTO   C97 3881   3.235   7.126   1.293
   10CHTO  H184 3882   3.156   7.120   1.217
   10CHTO   O64 3883   3.271   6.996   1.343
   10CHTO  C104 3884   3.314   6.903   1.243
   10CHTO  H191 3885   3.239   6.890   1.165
   10CHTO  C108 3886   3.333   6.765   1.307
   10CHTO   O71 3887   3.209   6.713   1.355
   10CHTO  H171 3888   3.223   6.629   1.394
   10CHTO   O62 3889   3.187   7.199   1.409
   10CHTO   C91 3890   3.061   7.156   1.465
   10CHTO  H178 3891   3.036   7.058   1.425
   10CHTO   C92 3892   2.945   7.252   1.423
   10CHTO  H179 3893   2.971   7.355   1.453
   10CHTO   O66 3894   2.938   7.257   1.279
   10CHTO  H166 3895   2.916   7.172   1.244
   10CHTO   C93 3896   2.807   7.210   1.486
   10CHTO  H180 3897   2.773   7.120   1.433
   10CHTO   N16 3898   2.700   7.311   1.465
   10CHTO  H172 3899   2.607   7.276   1.508
   10CHTO  H173 3900   2.728   7.405   1.509
   10CHTO   C94 3901   2.821   7.174   1.640
   10CHTO  H181 3902   2.835   7.264   1.701
   10CHTO   O61 3903   2.935   7.090   1.664
   10CHTO   C95 3904   3.060   7.146   1.622
   10CHTO  H182 3905   3.071   7.246   1.665
   10CHTO  C106 3906   3.178   7.059   1.678
   10CHTO   O69 3907   3.171   6.923   1.633
   10CHTO  H169 3908   3.243   6.875   1.668
   10CHTO   O63 3909   2.687   7.093   1.688
   10CHTO   C96 3910   2.701   7.019   1.826
   10CHTO  H183 3911   2.799   7.044   1.868
   10CHTO   C98 3912   2.690   6.865   1.815
   10CHTO  H185 3913   2.601   6.839   1.756
   10CHTO   O67 3914   2.802   6.818   1.737
   10CHTO  H167 3915   2.795   6.848   1.648
   10CHTO  C102 3916   2.686   6.791   1.958
   10CHTO  H189 3917   2.788   6.799   1.999
   10CHTO   N18 3918   2.657   6.645   1.951
   10CHTO  H176 3919   2.734   6.595   1.894
   10CHTO  H177 3920   2.561   6.629   1.906
   10CHTO  C105 3921   2.590   6.866   2.054
   10CHTO  H192 3922   2.486   6.845   2.026
   10CHTO   O65 3923   2.609   7.008   2.054
   10CHTO  C100 3924   2.592   7.072   1.926
   10CHTO  H187 3925   2.492   7.047   1.886
   10CHTO  C107 3926   2.601   7.225   1.944
   10CHTO   O70 3927   2.493   7.274   2.025
   10CHTO  H170 3928   2.501   7.243   2.113
   10CHTO   O57 3929   2.620   6.807   2.205
   10CHTO   C85 3930   2.546   6.857   2.317
   10CHTO  H157 3931   2.450   6.896   2.277
   10CHTO   C83 3932   2.621   6.981   2.376
   10CHTO  H155 3933   2.624   7.058   2.300
   10CHTO   O56 3934   2.758   6.946   2.404
   10CHTO  H135 3935   2.762   6.881   2.471
   10CHTO   C81 3936   2.542   7.035   2.499
   10CHTO  H153 3937   2.440   7.056   2.467
   10CHTO   N14 3938   2.592   7.165   2.548
   10CHTO  H141 3939   2.529   7.203   2.625
   10CHTO  H142 3940   2.692   7.155   2.586
   10CHTO   C79 3941   2.536   6.924   2.611
   10CHTO  H151 3942   2.470   6.962   2.689
   10CHTO   O52 3943   2.471   6.804   2.559
   10CHTO   C86 3944   2.523   6.750   2.433
   10CHTO  H158 3945   2.617   6.699   2.461
   10CHTO   C90 3946   2.425   6.638   2.388
   10CHTO   O60 3947   2.470   6.568   2.271
   10CHTO  H138 3948   2.407   6.502   2.248
   10CHTO   O50 3949   2.663   6.891   2.671
   10CHTO   C73 3950   2.675   6.847   2.808
   10CHTO  H145 3951   2.591   6.780   2.833
   10CHTO   C74 3952   2.671   6.969   0.024
   10CHTO  H146 3953   2.578   7.024   0.004
   10CHTO   O54 3954   2.660   6.918   0.158
   10CHTO  H133 3955   2.652   6.989   0.219
   10CHTO   C75 3956   2.799   7.058   0.000
   10CHTO  H147 3957   2.798   7.093   2.778
   10CHTO   N13 3958   2.801   7.180   0.084
   10CHTO  H139 3959   2.803   7.154   0.188
   10CHTO  H140 3960   2.889   7.239   0.062
   10CHTO   C76 3961   2.930   6.968   0.019
   10CHTO  H148 3962   2.933   6.934   0.122
   10CHTO   O49 3963   2.925   6.852   2.812
   10CHTO   C77 3964   2.808   6.769   2.830
   10CHTO  H149 3965   2.809   6.729   0.049
   10CHTO   C88 3966   2.816   6.647   2.737
   10CHTO   O58 3967   2.928   6.559   2.775
   10CHTO  H136 3968   3.009   6.601   2.757
   10CHTO   O51 3969   3.064   7.052   2.857
   10CHTO   C78 3970   3.194   7.036   0.073
   10CHTO  H150 3971   3.212   6.929   0.098
   10CHTO   C80 3972   3.177   7.116   0.205
   10CHTO  H152 3973   3.143   7.219   0.179
   10CHTO   O55 3974   3.072   7.054   0.281
   10CHTO  H134 3975   3.096   6.967   0.307
   10CHTO   C84 3976   3.311   7.125   0.288
   10CHTO  H156 3977   3.337   7.024   0.320
   10CHTO   N15 3978   3.298   7.207   0.412
   10CHTO  H143 3979   3.270   7.308   0.387
   10CHTO  H144 3980   3.391   7.209   0.466
   10CHTO   C87 3981   3.425   7.176   0.196
   10CHTO  H159 3982   3.404   7.278   0.162
   10CHTO   O53 3983   3.435   7.083   0.077
   10CHTO   C82 3984   3.317   7.086   2.877
   10CHTO  H154 3985   3.301   7.188   2.841
   10CHTO   C89 3986   3.343   6.998   2.753
   10CHTO   O59 3987   3.442   7.057   2.668
   10CHTO  H137 3988   3.456   7.002   2.594
   10CHTO   O45 3989   3.570   7.169   0.268
   10CHTO   C67 3990   3.624   7.297   0.304
   10CHTO  H124 3991   3.544   7.371   0.319
   10CHTO   C65 3992   3.706   7.283   0.435
   10CHTO  H122 3993   3.643   7.225   0.503
   10CHTO   O44 3994   3.731   7.412   0.492
   10CHTO  H102 3995   3.770   7.403   0.577
   10CHTO   C63 3996   3.833   7.193   0.408
   10CHTO  H120 3997   3.800   7.098   0.368
   10CHTO   N11 3998   3.908   7.150   0.531
   10CHTO  H108 3999   3.873   7.203   0.617
   10CHTO  H109 4000   4.013   7.166   0.519
   10CHTO   C61 4001   3.921   7.260   0.295
   10CHTO  H118 4002   3.997   7.185   0.269
   10CHTO   O40 4003   3.843   7.285   0.174
   10CHTO   C68 4004   3.713   7.353   0.185
   10CHTO  H125 4005   3.658   7.330   0.091
   10CHTO   C72 4006   3.729   7.507   0.190
   10CHTO   O48 4007   3.785   7.561   0.070
   10CHTO  H105 4008   3.793   7.654   0.079
   10CHTO   O38 4009   3.983   7.384   0.336
   10CHTO   C55 4010   4.125   7.400   0.316
   10CHTO  H112 4011   4.171   7.307   0.278
   10CHTO   C56 4012   4.189   7.444   0.455
   10CHTO  H113 4013   4.123   7.522   0.497
   10CHTO   O42 4014   4.185   7.334   0.547
   10CHTO  H100 4015   4.235   7.262   0.515
   10CHTO   C57 4016   4.336   7.500   0.439
   10CHTO  H114 4017   4.400   7.416   0.413
   10CHTO   N10 4018   4.391   7.560   0.564
   10CHTO  H106 4019   4.349   7.511   0.651
   10CHTO  H107 4020   4.498   7.551   0.566
   10CHTO   C58 4021   4.340   7.603   0.324
   10CHTO  H115 4022   4.274   7.689   0.350
   10CHTO   O37 4023   4.292   7.542   0.203
   10CHTO   C59 4024   4.152   7.508   0.206
   10CHTO  H116 4025   4.093   7.597   0.226
   10CHTO   C70 4026   4.114   7.455   0.067
   10CHTO   O46 4027   4.121   7.556   2.848
   10CHTO  H103 4028   4.210   7.581   2.833
   10CHTO   O39 4029   4.495   7.656   0.294
   10CHTO   C60 4030   4.505   7.766   0.202
   10CHTO  H117 4031   4.458   7.738   0.107
   10CHTO   C62 4032   4.436   7.896   0.254
   10CHTO  H119 4033   4.329   7.872   0.266
   10CHTO   O43 4034   4.489   7.931   0.383
   10CHTO  H101 4035   4.580   7.953   0.377
   10CHTO   C66 4036   4.450   8.013   0.145
   10CHTO  H123 4037   4.409   7.977   0.050
   10CHTO   N12 4038   4.370   8.133   0.180
   10CHTO  H110 4039   4.382   8.209   0.105
   10CHTO  H111 4040   4.266   8.105   0.191
   10CHTO   C69 4041   4.600   8.044   0.122
   10CHTO  H126 4042   4.646   8.079   0.217
   10CHTO   O41 4043   4.672   7.912   0.075
   10CHTO   C64 4044   4.655   7.793   0.171
   10CHTO  H121 4045   4.708   7.815   0.267
   10CHTO   C71 4046   4.722   7.668   0.108
   10CHTO   O47 4047   4.863   7.687   0.091
   10CHTO  H104 4048   4.905   7.690   0.175
   10CHTO   O34 4049   4.621   8.153   0.013
   10CHTO   C49 4050   4.722   8.267   0.010
   10CHTO   H91 4051   4.807   8.235   0.069
   10CHTO   C47 4052   4.658   8.393   0.071
   10CHTO   H89 4053   4.737   8.471   0.073
   10CHTO   O33 4054   4.620   8.364   0.207
   10CHTO   H70 4055   4.587   8.441   0.249
   10CHTO   C45 4056   4.535   8.439   2.859
   10CHTO   H87 4057   4.466   8.354   2.849
   10CHTO    N8 4058   4.460   8.554   0.035
   10CHTO   H75 4059   4.455   8.636   2.848
   10CHTO   H76 4060   4.360   8.522   0.062
   10CHTO   C43 4061   4.590   8.467   2.710
   10CHTO   H85 4062   4.502   8.485   2.649
   10CHTO   O29 4063   4.668   8.356   2.661
   10CHTO   C50 4064   4.768   8.296   2.746
   10CHTO   H92 4065   4.795   8.200   2.700
   10CHTO   C54 4066   4.901   8.377   2.740
   10CHTO   O36 4067   5.007   8.309   2.807
   10CHTO   H72 4068   5.086   8.359   2.800
   10CHTO   O27 4069   4.668   8.588   2.703
   10CHTO   C37 4070   4.716   8.686   2.610
   10CHTO   H79 4071   4.804   8.647   2.555
   10CHTO   C38 4072   4.606   8.720   2.503
   10CHTO   H80 4073   4.512   8.739   2.557
   10CHTO   O31 4074   4.589   8.604   2.419
   10CHTO   H68 4075   4.550   8.534   2.468
   10CHTO   C39 4076   4.643   8.846   2.417
   10CHTO   H81 4077   4.729   8.819   2.354
   10CHTO    N7 4078   4.534   8.891   2.324
   10CHTO   H73 4079   4.501   8.992   2.346
   10CHTO   H74 4080   4.449   8.824   2.328
   10CHTO   C40 4081   4.691   8.963   2.511
   10CHTO   H82 4082   4.607   9.000   2.570
   10CHTO   O26 4083   4.799   8.918   2.595
   10CHTO   C41 4084   4.759   8.813   2.688
   10CHTO   H83 4085   4.674   8.849   2.750
   10CHTO   C52 4086   4.880   8.789   2.781
   10CHTO   O35 4087   4.849   8.703   0.013
   10CHTO   H71 4088   4.927   8.690   0.064
   10CHTO   O28 4089   4.750   9.071   2.437
   10CHTO   C42 4090   4.732   9.211   2.477
   10CHTO   H84 4091   4.729   9.209   2.586
   10CHTO   C44 4092   4.598   9.278   2.430
   10CHTO   H86 4093   4.584   9.257   2.324
   10CHTO   O32 4094   4.489   9.215   2.501
   10CHTO   H69 4095   4.480   9.126   2.473
   10CHTO   C48 4096   4.596   9.436   2.448
   10CHTO   H90 4097   4.589   9.458   2.555
   10CHTO    N9 4098   4.475   9.499   2.385
   10CHTO   H77 4099   4.478   9.606   2.400
   10CHTO   H78 4100   4.385   9.458   2.427
   10CHTO   C51 4101   4.731   9.493   2.393
   10CHTO   H93 4102   4.739   9.465   2.288
   10CHTO   O30 4103   4.835   9.435   2.472
   10CHTO   C46 4104   4.857   9.295   2.437
   10CHTO   H88 4105   4.872   9.288   2.329
   10CHTO   C53 4106   4.984   9.245   2.510
   10CHTO   O72 4107   5.100   9.317   2.466
   10CHTO  H199 4108   5.121   9.293   2.378
   10CHTO   O22 4109   4.748   9.635   2.409
   10CHTO   C31 4110   4.846   9.707   2.324
   10CHTO   H59 4111   4.846   9.812   2.360
   10CHTO   C29 4112   4.991   9.654   2.335
   10CHTO   H57 4113   4.989   9.547   2.310
   10CHTO   O21 4114   5.031   9.663   2.474
   10CHTO   H37 4115   5.040   9.753   2.500
   10CHTO   C27 4116   5.093   9.727   2.238
   10CHTO   H55 4117   5.108   9.830   2.274
   10CHTO    N5 4118   5.225   9.658   2.235
   10CHTO   H43 4119   5.302   9.723   2.273
   10CHTO   H44 4120   5.250   9.624   2.136
   10CHTO   C25 4121   5.030   9.740   2.095
   10CHTO   H53 4122   5.023   9.639   2.049
   10CHTO   O17 4123   4.896   9.797   2.101
   10CHTO   C32 4124   4.804   9.714   2.174
   10CHTO   H60 4125   4.805   9.613   2.132
   10CHTO   C36 4126   4.661   9.772   2.156
   10CHTO   O25 4127   4.618   9.765   2.020
   10CHTO   H40 4128   4.669   9.823   1.967
   10CHTO   O15 4129   5.115   9.827   2.006
   10CHTO   C19 4130   5.189   9.890   1.898
   10CHTO   H47 4131   5.113   9.912   1.822
   10CHTO   C20 4132   5.259   0.023   1.940
   10CHTO   H48 4133   5.324   0.009   2.027
   10CHTO   O19 4134   5.153   0.114   1.978
   10CHTO   H35 4135   5.190   0.193   2.013
   10CHTO   C21 4136   5.347   0.084   1.823
   10CHTO   H49 4137   5.282   0.114   1.742
   10CHTO    N4 4138   5.423   0.205   1.865
   10CHTO   H41 4139   5.481   0.242   1.783
   10CHTO   H42 4140   5.354   0.282   1.898
   10CHTO   C22 4141   5.440   9.972   1.769
   10CHTO   H50 4142   5.507   9.941   1.849
   10CHTO   O14 4143   5.361   9.860   1.726
   10CHTO   C23 4144   5.291   9.793   1.832
   10CHTO   H51 4145   5.366   9.757   1.904
   10CHTO   C34 4146   5.220   9.671   1.773
   10CHTO   O23 4147   5.311   9.577   1.715
   10CHTO   H38 4148   5.348   9.613   1.637
   10CHTO   O16 4149   5.512   0.007   1.650
   10CHTO   C24 4150   5.673   0.009   1.668
   10CHTO   H52 4151   5.702   0.021   1.773
   10CHTO   C26 4152   5.730   0.125   1.585
   10CHTO   H54 4153   5.695   0.114   1.480
   10CHTO   O20 4154   5.677   0.248   1.638
   10CHTO   H36 4155   5.702   0.321   1.583
   10CHTO   C30 4156   5.886   0.125   1.585
   10CHTO   H58 4157   5.924   0.150   1.685
   10CHTO    N6 4158   5.942   0.228   1.494
   10CHTO   H45 4159   6.050   0.225   1.496
   10CHTO   H46 4160   5.909   0.326   1.525
   10CHTO   C33 4161   5.941   9.982   1.552
   10CHTO   H61 4162   5.920   9.959   1.446
   10CHTO   O18 4163   5.877   9.884   1.635
   10CHTO   C28 4164   5.735   9.874   1.620
   10CHTO   H56 4165   5.709   9.858   1.515
   10CHTO   C35 4166   5.688   9.751   1.701
   10CHTO   O24 4167   5.712   9.762   1.842
   10CHTO   H39 4168   5.681   9.685   1.885
   10CHTO    O9 4169   6.085   9.976   1.566
   10CHTO   C13 4170   6.159   9.887   1.455
   10CHTO   H26 4171   6.136   9.932   1.356
   10CHTO   C11 4172   6.110   9.736   1.463
   10CHTO   H24 4173   6.004   9.733   1.434
   10CHTO    O8 4174   6.120   9.687   1.598
   10CHTO    H3 4175   6.087   9.600   1.604
   10CHTO    C9 4176   6.194   9.655   1.360
   10CHTO   H22 4177   6.178   9.705   1.264
   10CHTO    N2 4178   6.140   9.518   1.338
   10CHTO   H10 4179   6.035   9.523   1.312
   10CHTO   H11 4180   6.196   9.469   1.259
   10CHTO    C7 4181   6.348   9.665   1.396
   10CHTO   H20 4182   6.395   9.694   1.299
   10CHTO    O4 4183   6.377   9.765   1.496
   10CHTO   C14 4184   6.318   9.894   1.470
   10CHTO   H27 4185   6.358   9.928   1.373
   10CHTO   C18 4186   6.368   9.994   1.577
   10CHTO   O13 4187   6.344   9.950   1.710
   10CHTO    H7 4188   6.378   0.012   1.771
   10CHTO    O2 4189   6.416   9.523   1.443
   10CHTO    C1 4190   6.547   9.528   1.502
   10CHTO   H14 4191   6.544   9.593   1.592
   10CHTO    C2 4192   6.663   9.581   1.406
   10CHTO   H15 4193   6.651   9.528   1.311
   10CHTO    O6 4194   6.645   9.722   1.384
   10CHTO    H1 4195   6.708   9.754   1.321
   10CHTO    C3 4196   6.809   9.552   1.468
   10CHTO   H16 4197   6.822   9.613   1.559
   10CHTO    N1 4198   6.921   9.588   1.374
   10CHTO    H8 4199   6.882   9.632   1.283
   10CHTO    H9 4200   6.981   9.502   1.350
   10CHTO    C4 4201   6.815   9.402   1.516
   10CHTO   H17 4202   6.803   9.337   1.428
   10CHTO    O1 4203   6.710   9.377   1.610
   10CHTO    C5 4204   6.579   9.385   1.552
   10CHTO   H18 4205   6.576   9.318   1.466
   10CHTO   C16 4206   6.476   9.334   1.657
   10CHTO   O11 4207   6.478   9.411   1.778
   10CHTO    H5 4208   6.446   9.498   1.762
   10CHTO    O3 4209   6.936   9.368   1.586
   10CHTO    C6 4210   6.964   9.224   1.586
   10CHTO   H19 4211   6.878   9.165   1.557
   10CHTO    C8 4212   7.080   9.192   1.486
   10CHTO   H21 4213   7.165   9.256   1.509
   10CHTO    O7 4214   7.031   9.222   1.353
   10CHTO    H2 4215   7.022   9.315   1.343
   10CHTO   C12 4216   7.123   9.040   1.498
   10CHTO   H25 4217   7.038   8.980   1.461
   10CHTO    N3 4218   7.240   9.009   1.408
   10CHTO   H12 4219   7.325   9.070   1.434
   10CHTO   H13 4220   7.212   9.024   1.305
   10CHTO   C15 4221   7.149   9.004   1.648
   10CHTO   H28 4222   7.239   9.052   1.687
   10CHTO   O10 4223   7.158   8.852   1.672
   10CHTO    H4 4224   7.234   8.818   1.628
   10CHTO    O5 4225   7.036   9.038   1.730
   10CHTO   C10 4226   7.004   9.178   1.729
   10CHTO   H23 4227   7.091   9.235   1.763
   10CHTO   C17 4228   6.890   9.202   1.830
   10CHTO   O12 4229   6.934   9.184   1.965
   10CHTO    H6 4230   6.994   9.252   1.989
   11CHTO  H203 4231   4.824   4.905   2.172
   11CHTO   O82 4232   4.884   4.881   2.104
   11CHTO  C123 4233   4.950   4.999   2.053
   11CHTO  H227 4234   5.006   5.046   2.135
   11CHTO   O77 4235   5.042   4.944   1.953
   11CHTO  C118 4236   5.127   5.042   1.892
   11CHTO  H222 4237   5.184   5.096   1.970
   11CHTO  C125 4238   5.229   4.967   1.798
   11CHTO   O84 4239   5.319   4.886   1.874
   11CHTO  H205 4240   5.273   4.813   1.911
   11CHTO  C114 4241   5.041   5.143   1.812
   11CHTO  H218 4242   4.985   5.087   1.737
   11CHTO  C116 4243   4.934   5.209   1.905
   11CHTO  H220 4244   4.984   5.277   1.977
   11CHTO   O79 4245   4.848   5.291   1.823
   11CHTO  H201 4246   4.802   5.239   1.760
   11CHTO  C120 4247   4.851   5.100   1.984
   11CHTO  H224 4248   4.788   5.047   1.910
   11CHTO   N21 4249   4.758   5.163   2.083
   11CHTO  H211 4250   4.740   5.096   2.166
   11CHTO  H212 4251   4.798   5.257   2.119
   11CHTO   O75 4252   5.133   5.232   1.746
   11CHTO  C112 4253   5.201   5.354   1.836
   11CHTO  H216 4254   5.233   5.313   1.933
   11CHTO   O73 4255   5.102   5.457   1.852
   11CHTO  C113 4256   5.142   5.560   1.943
   11CHTO  H217 4257   5.170   5.515   2.040
   11CHTO  C124 4258   5.022   5.652   1.967
   11CHTO   O83 4259   4.911   5.583   2.025
   11CHTO  H204 4260   4.874   5.523   1.963
   11CHTO  C109 4261   5.263   5.637   1.884
   11CHTO  H213 4262   5.227   5.690   1.794
   11CHTO  C110 4263   5.379   5.539   1.847
   11CHTO  H214 4264   5.424   5.503   1.939
   11CHTO   O78 4265   5.480   5.612   1.775
   11CHTO  H200 4266   5.521   5.674   1.831
   11CHTO  C111 4267   5.326   5.418   1.763
   11CHTO  H215 4268   5.293   5.455   1.665
   11CHTO   N19 4269   5.430   5.314   1.737
   11CHTO  H207 4270   5.388   5.234   1.679
   11CHTO  H208 4271   5.513   5.358   1.683
   11CHTO   O74 4272   5.311   5.736   1.981
   11CHTO  C115 4273   5.317   5.887   1.929
   11CHTO  H219 4274   5.274   5.898   1.829
   11CHTO   O76 4275   5.232   5.985   2.020
   11CHTO  C122 4276   5.273   5.978   2.158
   11CHTO  H226 4277   5.227   5.889   2.201
   11CHTO  C126 4278   5.210   6.100   2.235
   11CHTO   O85 4279   5.257   6.227   2.188
   11CHTO  H206 4280   5.217   6.296   2.237
   11CHTO  C121 4281   5.430   5.974   2.178
   11CHTO  H225 4282   5.458   6.040   2.262
   11CHTO   O81 4283   5.472   5.842   2.216
   11CHTO  H202 4284   5.452   5.780   2.148
   11CHTO  C119 4285   5.504   6.022   2.050
   11CHTO  H223 4286   5.463   6.121   2.030
   11CHTO  C117 4287   5.470   5.930   1.926
   11CHTO  H221 4288   5.525   5.836   1.924
   11CHTO   N20 4289   5.508   5.998   1.798
   11CHTO  H209 4290   5.586   5.943   1.748
   11CHTO  H210 4291   5.423   6.009   1.732
   11CHTO   O80 4292   5.660   6.056   2.073
   11CHTO  C103 4293   5.708   6.211   2.097
   11CHTO  H190 4294   5.817   6.217   2.088
   11CHTO  C101 4295   5.646   6.320   2.002
   11CHTO  H188 4296   5.537   6.316   2.009
   11CHTO   O68 4297   5.686   6.289   1.858
   11CHTO  H168 4298   5.650   6.207   1.831
   11CHTO   C99 4299   5.692   6.466   2.049
   11CHTO  H186 4300   5.803   6.472   2.046
   11CHTO   N17 4301   5.638   6.579   1.965
   11CHTO  H174 4302   5.718   6.630   1.915
   11CHTO  H175 4303   5.565   6.542   1.895
   11CHTO   C97 4304   5.653   6.484   2.199
   11CHTO  H184 4305   5.543   6.480   2.206
   11CHTO   O64 4306   5.716   6.381   2.278
   11CHTO  C104 4307   5.672   6.247   2.247
   11CHTO  H191 4308   5.565   6.236   2.262
   11CHTO  C108 4309   5.739   6.149   2.344
   11CHTO   O71 4310   5.700   6.175   2.479
   11CHTO  H171 4311   5.742   6.113   2.537
   11CHTO   O62 4312   5.705   6.606   2.256
   11CHTO   C91 4313   5.617   6.677   2.345
   11CHTO  H178 4314   5.514   6.659   2.313
   11CHTO   C92 4315   5.641   6.831   2.325
   11CHTO  H179 4316   5.633   6.856   2.218
   11CHTO   O66 4317   5.533   6.902   2.388
   11CHTO  H166 4318   5.452   6.887   2.342
   11CHTO   C93 4319   5.776   6.882   2.389
   11CHTO  H180 4320   5.762   6.989   2.412
   11CHTO   N16 4321   5.889   6.877   2.295
   11CHTO  H172 4322   5.979   6.916   2.342
   11CHTO  H173 4323   5.906   6.775   2.262
   11CHTO   C94 4324   5.808   6.805   2.523
   11CHTO  H181 4325   5.879   6.723   2.508
   11CHTO   O61 4326   5.690   6.745   2.579
   11CHTO   C95 4327   5.634   6.639   2.499
   11CHTO  H182 4328   5.699   6.551   2.506
   11CHTO  C106 4329   5.496   6.597   2.560
   11CHTO   O69 4330   5.509   6.555   2.697
   11CHTO  H169 4331   5.526   6.630   2.751
   11CHTO   O63 4332   5.865   6.908   2.628
   11CHTO   C96 4333   5.972   6.844   2.726
   11CHTO  H183 4334   6.010   6.752   2.682
   11CHTO   C98 4335   5.919   6.811   2.868
   11CHTO  H185 4336   5.872   6.900   0.030
   11CHTO   O67 4337   5.814   6.713   2.855
   11CHTO  H167 4338   5.740   6.751   2.811
   11CHTO  C102 4339   6.036   6.758   0.083
   11CHTO  H189 4340   6.068   6.661   0.042
   11CHTO   N18 4341   5.994   6.732   0.223
   11CHTO  H176 4342   5.917   6.656   0.225
   11CHTO  H177 4343   5.956   6.823   0.268
   11CHTO  C105 4344   6.157   6.856   0.075
   11CHTO  H192 4345   6.131   6.950   0.125
   11CHTO   O65 4346   6.196   6.887   2.822
   11CHTO  C100 4347   6.093   6.943   2.740
   11CHTO  H187 4348   6.058   7.037   2.786
   11CHTO  C107 4349   6.153   6.977   2.602
   11CHTO   O70 4350   6.248   7.083   2.611
   11CHTO  H170 4351   6.280   7.105   2.525
   11CHTO   O57 4352   6.281   6.784   0.150
   11CHTO   C85 4353   6.370   6.864   0.229
   11CHTO  H157 4354   6.306   6.937   0.283
   11CHTO   C83 4355   6.464   6.949   0.137
   11CHTO  H155 4356   6.402   7.021   0.083
   11CHTO   O56 4357   6.524   6.865   0.037
   11CHTO  H135 4358   6.584   6.804   0.077
   11CHTO   C81 4359   6.565   7.028   0.226
   11CHTO  H153 4360   6.508   7.089   0.296
   11CHTO   N14 4361   6.646   7.126   0.150
   11CHTO  H141 4362   6.705   7.184   0.217
   11CHTO  H142 4363   6.711   7.075   0.081
   11CHTO   C79 4364   6.652   6.927   0.310
   11CHTO  H151 4365   6.718   6.986   0.374
   11CHTO   O52 4366   6.565   6.849   0.398
   11CHTO   C86 4367   6.457   6.777   0.329
   11CHTO  H158 4368   6.509   6.695   0.276
   11CHTO   C90 4369   6.367   6.708   0.434
   11CHTO   O60 4370   6.306   6.803   0.523
   11CHTO  H138 4371   6.249   6.758   0.582
   11CHTO   O50 4372   6.733   6.839   0.229
   11CHTO   C73 4373   6.834   6.740   0.255
   11CHTO  H145 4374   6.801   6.673   0.336
   11CHTO   C74 4375   6.967   6.809   0.298
   11CHTO  H146 4376   6.946   6.869   0.388
   11CHTO   O54 4377   7.060   6.706   0.340
   11CHTO  H133 4378   7.083   6.651   0.268
   11CHTO   C75 4379   7.020   6.898   0.179
   11CHTO  H147 4380   6.947   6.979   0.161
   11CHTO   N13 4381   7.148   6.968   0.208
   11CHTO  H139 4382   7.225   6.896   0.231
   11CHTO  H140 4383   7.135   7.034   0.293
   11CHTO   C76 4384   7.028   6.812   0.044
   11CHTO  H148 4385   7.111   6.742   0.053
   11CHTO   O49 4386   6.904   6.738   0.019
   11CHTO   C77 4387   6.858   6.656   0.127
   11CHTO  H149 4388   6.933   6.579   0.149
   11CHTO   C88 4389   6.731   6.581   0.085
   11CHTO   O58 4390   6.757   6.491   2.852
   11CHTO  H136 4391   6.814   6.421   2.879
   11CHTO   O51 4392   7.044   6.909   2.799
   11CHTO   C78 4393   7.076   6.832   2.663
   11CHTO  H150 4394   7.065   6.722   2.675
   11CHTO   C80 4395   7.220   6.863   2.618
   11CHTO  H152 4396   7.235   6.974   2.620
   11CHTO   O55 4397   7.308   6.806   2.717
   11CHTO  H134 4398   7.303   6.853   2.798
   11CHTO   C84 4399   7.252   6.808   2.473
   11CHTO  H156 4400   7.253   6.700   2.478
   11CHTO   N15 4401   7.389   6.849   2.425
   11CHTO  H143 4402   7.407   6.807   2.328
   11CHTO  H144 4403   7.395   6.956   2.418
   11CHTO   C87 4404   7.141   6.851   2.374
   11CHTO  H159 4405   7.144   6.959   2.360
   11CHTO   O53 4406   7.005   6.809   2.432
   11CHTO   C82 4407   6.975   6.876   2.554
   11CHTO  H154 4408   6.977   6.985   2.540
   11CHTO   C89 4409   6.830   6.838   2.592
   11CHTO   O59 4410   6.777   6.922   2.695
   11CHTO  H137 4411   6.690   6.894   2.717
   11CHTO   O45 4412   7.161   6.776   2.227
   11CHTO   C67 4413   7.056   6.795   2.130
   11CHTO  H124 4414   6.964   6.753   2.171
   11CHTO   C65 4415   7.032   6.947   2.095
   11CHTO  H122 4416   7.112   7.003   2.143
   11CHTO   O44 4417   6.907   6.985   2.156
   11CHTO  H102 4418   6.895   7.078   2.150
   11CHTO   C63 4419   7.048   6.979   1.941
   11CHTO  H120 4420   7.153   6.963   1.914
   11CHTO   N11 4421   7.029   7.122   1.901
   11CHTO  H108 4422   6.927   7.150   1.913
   11CHTO  H109 4423   7.058   7.136   1.799
   11CHTO   C61 4424   6.964   6.875   1.857
   11CHTO  H118 4425   6.998   6.885   1.753
   11CHTO   O40 4426   6.989   6.737   1.896
   11CHTO   C68 4427   7.088   6.711   2.000
   11CHTO  H125 4428   7.187   6.740   1.961
   11CHTO   C72 4429   7.093   6.558   2.025
   11CHTO   O48 4430   6.965   6.501   2.056
   11CHTO  H105 4431   6.974   6.409   2.069
   11CHTO   O38 4432   6.822   6.898   1.867
   11CHTO   C55 4433   6.742   6.834   1.765
   11CHTO  H112 4434   6.797   6.749   1.721
   11CHTO   C56 4435   6.699   6.938   1.654
   11CHTO  H113 4436   6.649   7.022   1.706
   11CHTO   O42 4437   6.817   6.993   1.592
   11CHTO  H100 4438   6.793   7.061   1.532
   11CHTO   C57 4439   6.603   6.871   1.549
   11CHTO  H114 4440   6.663   6.800   1.493
   11CHTO   N10 4441   6.546   6.967   1.450
   11CHTO  H106 4442   6.526   6.916   1.357
   11CHTO  H107 4443   6.615   7.048   1.432
   11CHTO   C58 4444   6.488   6.794   1.620
   11CHTO  H115 4445   6.416   6.867   1.664
   11CHTO   O37 4446   6.537   6.707   1.724
   11CHTO   C59 4447   6.615   6.771   1.827
   11CHTO  H116 4448   6.554   6.848   1.877
   11CHTO   C70 4449   6.655   6.666   1.932
   11CHTO   O46 4450   6.543   6.610   2.002
   11CHTO  H103 4451   6.492   6.558   1.944
   11CHTO   O39 4452   6.414   6.694   1.512
   11CHTO   C60 4453   6.271   6.689   1.521
   11CHTO  H117 4454   6.238   6.732   1.616
   11CHTO   C62 4455   6.204   6.771   1.407
   11CHTO  H119 4456   6.235   6.877   1.422
   11CHTO   O43 4457   6.256   6.726   1.280
   11CHTO  H101 4458   6.219   6.778   1.210
   11CHTO   C66 4459   6.043   6.760   1.418
   11CHTO  H123 4460   6.013   6.795   1.516
   11CHTO   N12 4461   5.975   6.849   1.320
   11CHTO  H110 4462   5.910   6.918   1.370
   11CHTO  H111 4463   5.920   6.791   1.246
   11CHTO   C69 4464   6.001   6.611   1.406
   11CHTO  H126 4465   6.037   6.570   1.309
   11CHTO   O41 4466   6.070   6.532   1.525
   11CHTO   C64 4467   6.224   6.541   1.519
   11CHTO  H121 4468   6.260   6.494   1.425
   11CHTO   C71 4469   6.285   6.460   1.637
   11CHTO   O47 4470   6.252   6.516   1.765
   11CHTO  H104 4471   6.160   6.506   1.781
   11CHTO   O34 4472   5.841   6.591   1.412
   11CHTO   C49 4473   5.742   6.607   1.528
   11CHTO   H91 4474   5.797   6.649   1.611
   11CHTO   C47 4475   5.689   6.467   1.567
   11CHTO   H89 4476   5.634   6.480   1.663
   11CHTO   O33 4477   5.801   6.380   1.591
   11CHTO   H70 4478   5.847   6.363   1.511
   11CHTO   C45 4479   5.589   6.412   1.454
   11CHTO   H87 4480   5.642   6.412   1.358
   11CHTO    N8 4481   5.541   6.274   1.480
   11CHTO   H75 4482   5.625   6.206   1.489
   11CHTO   H76 4483   5.483   6.271   1.571
   11CHTO   C43 4484   5.468   6.516   1.436
   11CHTO   H85 4485   5.406   6.478   1.354
   11CHTO   O29 4486   5.521   6.647   1.405
   11CHTO   C50 4487   5.624   6.701   1.490
   11CHTO   H92 4488   5.668   6.786   1.435
   11CHTO   C54 4489   5.563   6.771   1.615
   11CHTO   O36 4490   5.476   6.878   1.579
   11CHTO   H72 4491   5.526   6.949   1.543
   11CHTO   O27 4492   5.383   6.522   1.552
   11CHTO   C37 4493   5.245   6.519   1.594
   11CHTO   H79 4494   5.223   6.607   1.656
   11CHTO   C38 4495   5.148   6.523   1.472
   11CHTO   H80 4496   5.179   6.445   1.401
   11CHTO   O31 4497   5.164   6.652   1.410
   11CHTO   H68 4498   5.248   6.658   1.369
   11CHTO   C39 4499   4.998   6.499   1.515
   11CHTO   H81 4500   4.967   6.586   1.573
   11CHTO    N7 4501   4.904   6.487   1.398
   11CHTO   H73 4502   4.803   6.471   1.434
   11CHTO   H74 4503   4.908   6.577   1.339
   11CHTO   C40 4504   4.987   6.373   1.610
   11CHTO   H82 4505   5.001   6.280   1.554
   11CHTO   O26 4506   5.080   6.384   1.719
   11CHTO   C41 4507   5.220   6.391   1.679
   11CHTO   H83 4508   5.246   6.302   1.620
   11CHTO   C52 4509   5.306   6.391   1.807
   11CHTO   O35 4510   5.290   6.268   1.885
   11CHTO   H71 4511   5.327   6.195   1.838
   11CHTO   O28 4512   4.862   6.370   1.682
   11CHTO   C42 4513   4.763   6.263   1.671
   11CHTO   H84 4514   4.779   6.216   1.574
   11CHTO   C44 4515   4.615   6.315   1.671
   11CHTO   H86 4516   4.596   6.365   1.766
   11CHTO   O32 4517   4.603   6.411   1.565
   11CHTO   H69 4518   4.652   6.489   1.585
   11CHTO   C48 4519   4.511   6.197   1.656
   11CHTO   H90 4520   4.523   6.153   1.556
   11CHTO    N9 4521   4.368   6.244   1.662
   11CHTO   H77 4522   4.349   6.314   1.582
   11CHTO   H78 4523   4.349   6.290   1.758
   11CHTO   C51 4524   4.541   6.085   1.763
   11CHTO   H93 4525   4.519   6.126   1.862
   11CHTO   O30 4526   4.677   6.042   1.751
   11CHTO   C46 4527   4.777   6.151   1.779
   11CHTO   H88 4528   4.755   6.193   1.878
   11CHTO   C53 4529   4.917   6.086   1.781
   11CHTO   O72 4530   4.930   5.993   1.889
   11CHTO  H199 4531   4.929   6.039   1.971
   11CHTO   O22 4532   4.464   5.965   1.739
   11CHTO   C31 4533   4.417   5.883   1.852
   11CHTO   H59 4534   4.478   5.914   1.940
   11CHTO   C29 4535   4.269   5.911   1.887
   11CHTO   H57 4536   4.210   5.897   1.795
   11CHTO   O21 4537   4.257   6.049   1.924
   11CHTO   H37 4538   4.166   6.073   1.932
   11CHTO   C27 4539   4.213   5.814   1.999
   11CHTO   H55 4540   4.262   5.839   2.093
   11CHTO    N5 4541   4.066   5.827   2.017
   11CHTO   H43 4542   4.014   5.797   1.928
   11CHTO   H44 4543   4.034   5.768   2.101
   11CHTO   C25 4544   4.253   5.666   1.966
   11CHTO   H53 4545   4.202   5.634   1.873
   11CHTO   O17 4546   4.397   5.657   1.945
   11CHTO   C32 4547   4.443   5.731   1.831
   11CHTO   H60 4548   4.391   5.697   1.741
   11CHTO   C36 4549   4.594   5.697   1.818
   11CHTO   O25 4550   4.650   5.749   1.697
   11CHTO   H40 4551   4.614   5.704   1.623
   11CHTO   O15 4552   4.215   5.567   2.084
   11CHTO   C19 4553   4.244   5.424   2.081
   11CHTO   H47 4554   4.299   5.408   1.988
   11CHTO   C20 4555   4.330   5.375   2.201
   11CHTO   H48 4556   4.280   5.392   2.297
   11CHTO   O19 4557   4.452   5.452   2.201
   11CHTO   H35 4558   4.502   5.436   2.124
   11CHTO   C21 4559   4.362   5.219   2.190
   11CHTO   H49 4560   4.431   5.204   2.107
   11CHTO    N4 4561   4.430   5.166   2.311
   11CHTO   H41 4562   4.451   5.061   2.298
   11CHTO   H42 4563   4.524   5.218   2.327
   11CHTO   C22 4564   4.233   5.139   2.156
   11CHTO   H50 4565   4.170   5.133   2.245
   11CHTO   O14 4566   4.159   5.199   2.048
   11CHTO   C23 4567   4.118   5.334   2.073
   11CHTO   H51 4568   4.061   5.335   2.167
   11CHTO   C34 4569   4.021   5.378   1.962
   11CHTO   O23 4570   3.898   5.306   1.972
   11CHTO   H38 4571   3.840   5.333   1.904
   11CHTO   O16 4572   4.268   5.007   2.110
   11CHTO   C24 4573   4.144   4.908   2.084
   11CHTO   H52 4574   4.049   4.962   2.077
   11CHTO   C26 4575   4.135   4.804   2.198
   11CHTO   H54 4576   4.235   4.755   2.208
   11CHTO   O20 4577   4.107   4.875   2.320
   11CHTO   H36 4578   4.109   4.816   2.393
   11CHTO   C30 4579   4.029   4.695   2.166
   11CHTO   H58 4580   3.928   4.740   2.168
   11CHTO    N6 4581   4.027   4.587   2.269
   11CHTO   H45 4582   4.002   4.629   2.366
   11CHTO   H46 4583   4.123   4.539   2.275
   11CHTO   C33 4584   4.050   4.637   2.022
   11CHTO   H61 4585   4.146   4.583   2.019
   11CHTO   O18 4586   4.056   4.746   1.928
   11CHTO   C28 4587   4.165   4.837   1.948
   11CHTO   H56 4588   4.260   4.782   1.951
   11CHTO   C35 4589   4.170   4.938   1.832
   11CHTO   O24 4590   4.197   4.876   1.706
   11CHTO   H39 4591   4.125   4.822   1.680
   11CHTO    O9 4592   3.951   4.540   1.983
   11CHTO   C13 4593   3.800   4.599   1.954
   11CHTO   H26 4594   3.786   4.692   2.014
   11CHTO   C11 4595   3.694   4.488   1.993
   11CHTO   H24 4596   3.710   4.462   2.099
   11CHTO    O8 4597   3.718   4.370   1.914
   11CHTO    H3 4598   3.802   4.333   1.936
   11CHTO    C9 4599   3.552   4.551   1.978
   11CHTO   H22 4600   3.545   4.625   2.058
   11CHTO    N2 4601   3.444   4.455   2.012
   11CHTO   H10 4602   3.437   4.378   1.936
   11CHTO   H11 4603   3.350   4.507   2.021
   11CHTO    C7 4604   3.538   4.629   1.840
   11CHTO   H20 4605   3.541   4.736   1.872
   11CHTO    O4 4606   3.648   4.602   1.750
   11CHTO   C14 4607   3.777   4.642   1.802
   11CHTO   H27 4608   3.783   4.754   1.796
   11CHTO   C18 4609   3.886   4.586   1.706
   11CHTO   O13 4610   3.886   4.655   1.581
   11CHTO    H7 4611   3.807   4.636   1.534
   11CHTO    O2 4612   3.395   4.605   1.759
   11CHTO    C1 4613   3.380   4.661   1.628
   11CHTO   H14 4614   3.459   4.620   1.562
   11CHTO    C2 4615   3.387   4.820   1.622
   11CHTO   H15 4616   3.320   4.856   1.702
   11CHTO    O6 4617   3.522   4.863   1.650
   11CHTO    H1 4618   3.544   4.842   1.739
   11CHTO    C3 4619   3.342   4.879   1.479
   11CHTO   H16 4620   3.426   4.866   1.410
   11CHTO    N1 4621   3.317   5.027   1.484
   11CHTO    H8 4622   3.407   5.079   1.512
   11CHTO    H9 4623   3.238   5.049   1.555
   11CHTO    C4 4624   3.223   4.800   1.415
   11CHTO   H17 4625   3.128   4.835   1.457
   11CHTO    O1 4626   3.236   4.658   1.432
   11CHTO    C5 4627   3.244   4.615   1.568
   11CHTO   H18 4628   3.163   4.660   1.627
   11CHTO   C16 4629   3.224   4.461   1.567
   11CHTO   O11 4630   3.205   4.408   1.698
   11CHTO    H5 4631   3.194   4.315   1.693
   11CHTO    O3 4632   3.226   4.818   1.272
   11CHTO    C6 4633   3.100   4.798   1.200
   11CHTO   H19 4634   3.023   4.751   1.260
   11CHTO    C8 4635   3.047   4.937   1.150
   11CHTO   H21 4636   3.128   4.989   1.100
   11CHTO    O7 4637   3.008   5.010   1.268
   11CHTO    H2 4638   2.982   5.097   1.245
   11CHTO   C12 4639   2.927   4.918   1.049
   11CHTO   H25 4640   2.843   4.874   1.107
   11CHTO    N3 4641   2.879   5.051   0.996
   11CHTO   H12 4642   2.795   5.035   0.930
   11CHTO   H13 4643   2.959   5.101   0.944
   11CHTO   C15 4644   2.968   4.817   0.936
   11CHTO   H28 4645   3.047   4.858   0.873
   11CHTO   O10 4646   2.849   4.773   0.846
   11CHTO    H4 4647   2.779   4.739   0.899
   11CHTO    O5 4648   3.011   4.693   0.994
   11CHTO   C10 4649   3.127   4.704   1.079
   11CHTO   H23 4650   3.210   4.744   1.021
   11CHTO   C17 4651   3.166   4.563   1.124
   11CHTO   O12 4652   3.207   4.483   1.012
   11CHTO    H6 4653   3.230   4.397   1.042
   12CHTO  H203 4654   5.032   1.068   0.247
   12CHTO   O82 4655   5.078   1.011   0.189
   12CHTO  C123 4656   5.171   0.929   0.262
   12CHTO  H227 4657   5.225   0.993   0.334
   12CHTO   O77 4658   5.084   0.836   0.334
   12CHTO  C118 4659   5.152   0.746   0.423
   12CHTO  H222 4660   5.209   0.802   0.499
   12CHTO  C125 4661   5.039   0.662   0.496
   12CHTO   O84 4662   5.089   0.589   0.608
   12CHTO  H205 4663   5.020   0.539   0.646
   12CHTO  C114 4664   5.246   0.656   0.340
   12CHTO  H218 4665   5.185   0.600   0.270
   12CHTO  C116 4666   5.346   0.741   0.255
   12CHTO  H220 4667   5.418   0.791   0.324
   12CHTO   O79 4668   5.423   0.651   0.173
   12CHTO  H201 4669   5.367   0.606   0.112
   12CHTO  C120 4670   5.269   0.849   0.169
   12CHTO  H224 4671   5.211   0.793   0.092
   12CHTO   N21 4672   5.363   0.938   0.095
   12CHTO  H211 4673   5.319   1.035   0.079
   12CHTO  H212 4674   5.456   0.949   0.150
   12CHTO   O75 4675   5.310   0.569   0.436
   12CHTO  C112 4676   5.344   0.411   0.386
   12CHTO  H216 4677   5.451   0.405   0.357
   12CHTO   O73 4678   5.258   0.378   0.275
   12CHTO  C113 4679   5.279   0.247   0.222
   12CHTO  H217 4680   5.386   0.235   0.197
   12CHTO  C124 4681   5.201   0.240   0.089
   12CHTO   O83 4682   5.060   0.259   0.104
   12CHTO  H204 4683   5.022   0.186   0.150
   12CHTO  C109 4684   5.237   0.141   0.327
   12CHTO  H213 4685   5.130   0.156   0.348
   12CHTO  C110 4686   5.320   0.163   0.458
   12CHTO  H214 4687   5.423   0.133   0.438
   12CHTO   O78 4688   5.271   0.074   0.559
   12CHTO  H200 4689   5.182   0.094   0.581
   12CHTO  C111 4690   5.315   0.312   0.505
   12CHTO  H215 4691   5.214   0.333   0.542
   12CHTO   N19 4692   5.408   0.340   0.617
   12CHTO  H207 4693   5.400   0.444   0.648
   12CHTO  H208 4694   5.386   0.276   0.701
   12CHTO   O74 4695   5.258   0.004   0.280
   12CHTO  C115 4696   5.127   9.934   0.212
   12CHTO  H219 4697   5.039   9.999   0.216
   12CHTO   O76 4698   5.150   9.905   0.058
   12CHTO  C122 4699   5.047   9.833   2.872
   12CHTO  H226 4700   5.085   9.808   2.772
   12CHTO  C126 4701   4.920   9.924   2.848
   12CHTO   O85 4702   4.949   0.038   2.767
   12CHTO  H206 4703   4.872   0.090   2.758
   12CHTO  C121 4704   5.011   9.699   0.065
   12CHTO  H225 4705   4.922   9.654   0.015
   12CHTO   O81 4706   5.119   9.606   0.052
   12CHTO  H202 4707   5.133   9.584   2.844
   12CHTO  C119 4708   4.976   9.724   0.215
   12CHTO  H223 4709   4.888   9.790   0.215
   12CHTO  C117 4710   5.092   9.801   0.289
   12CHTO  H221 4711   5.186   9.747   0.297
   12CHTO   N20 4712   5.052   9.831   0.431
   12CHTO  H209 4713   4.966   9.897   0.433
   12CHTO  H210 4714   5.135   9.876   0.484
   12CHTO   O80 4715   4.919   9.594   0.286
   12CHTO  C103 4716   4.765   9.577   0.305
   12CHTO  H190 4717   4.723   9.663   0.356
   12CHTO  C101 4718   4.682   9.552   0.172
   12CHTO  H188 4719   4.730   9.473   0.115
   12CHTO   O68 4720   4.684   9.682   0.086
   12CHTO  H168 4721   4.772   9.703   0.061
   12CHTO   C99 4722   4.532   9.507   0.205
   12CHTO  H186 4723   4.481   9.590   0.258
   12CHTO   N17 4724   4.450   9.475   0.084
   12CHTO  H174 4725   4.348   9.454   0.113
   12CHTO  H175 4726   4.494   9.392   0.031
   12CHTO   C97 4727   4.535   9.389   0.306
   12CHTO  H184 4728   4.579   9.301   0.255
   12CHTO   O64 4729   4.609   9.425   0.424
   12CHTO  C104 4730   4.748   9.452   0.402
   12CHTO  H191 4731   4.800   9.366   0.359
   12CHTO  C108 4732   4.810   9.476   0.541
   12CHTO   O71 4733   4.954   9.480   0.538
   12CHTO  H171 4734   4.986   9.499   0.624
   12CHTO   O62 4735   4.404   9.359   0.358
   12CHTO   C91 4736   4.364   9.221   0.354
   12CHTO  H178 4737   4.362   9.191   0.249
   12CHTO   C92 4738   4.216   9.212   0.406
   12CHTO  H179 4739   4.152   9.280   0.347
   12CHTO   O66 4740   4.164   9.081   0.377
   12CHTO  H166 4741   4.215   9.015   0.420
   12CHTO   C93 4742   4.204   9.238   0.561
   12CHTO  H180 4743   4.117   9.181   0.598
   12CHTO   N16 4744   4.174   9.379   0.597
   12CHTO  H172 4745   4.079   9.409   0.554
   12CHTO  H173 4746   4.253   9.444   0.561
   12CHTO   C94 4747   4.333   9.188   0.636
   12CHTO  H181 4748   4.409   9.267   0.643
   12CHTO   O61 4749   4.393   9.080   0.562
   12CHTO   C95 4750   4.456   9.121   0.439
   12CHTO  H182 4751   4.551   9.170   0.463
   12CHTO  C106 4752   4.493   8.991   0.359
   12CHTO   O69 4753   4.569   9.022   0.241
   12CHTO  H169 4754   4.654   9.051   0.265
   12CHTO   O63 4755   4.294   9.141   0.780
   12CHTO   C96 4756   4.399   9.053   0.852
   12CHTO  H183 4757   4.442   8.984   0.780
   12CHTO   C98 4758   4.334   8.968   0.967
   12CHTO  H185 4759   4.230   8.941   0.940
   12CHTO   O67 4760   4.404   8.844   0.978
   12CHTO  H167 4761   4.359   8.787   1.038
   12CHTO  C102 4762   4.337   9.041   1.109
   12CHTO  H189 4763   4.301   8.965   1.180
   12CHTO   N18 4764   4.246   9.156   1.125
   12CHTO  H176 4765   4.255   9.196   1.225
   12CHTO  H177 4766   4.144   9.125   1.108
   12CHTO  C105 4767   4.486   9.076   1.142
   12CHTO  H192 4768   4.490   9.161   1.210
   12CHTO   O65 4769   4.573   9.101   1.030
   12CHTO  C100 4770   4.515   9.148   0.907
   12CHTO  H187 4771   4.473   9.248   0.925
   12CHTO  C107 4772   4.630   9.163   0.803
   12CHTO   O70 4773   4.724   9.264   0.841
   12CHTO  H170 4774   4.684   9.349   0.836
   12CHTO   O57 4775   4.537   8.952   1.211
   12CHTO   C85 4776   4.516   8.924   1.350
   12CHTO  H157 4777   4.408   8.942   1.370
   12CHTO   C83 4778   4.593   9.028   1.439
   12CHTO  H155 4779   4.541   9.124   1.432
   12CHTO   O56 4780   4.725   9.049   1.386
   12CHTO  H135 4781   4.768   9.118   1.433
   12CHTO   C81 4782   4.591   8.982   1.587
   12CHTO  H153 4783   4.487   8.974   1.618
   12CHTO   N14 4784   4.648   9.081   1.681
   12CHTO  H141 4785   4.634   9.048   1.782
   12CHTO  H142 4786   4.753   9.092   1.663
   12CHTO   C79 4787   4.656   8.839   1.599
   12CHTO  H151 4788   4.652   8.811   1.704
   12CHTO   O52 4789   4.570   8.745   1.527
   12CHTO   C86 4790   4.557   8.776   1.385
   12CHTO  H158 4791   4.658   8.753   1.343
   12CHTO   C90 4792   4.460   8.675   1.318
   12CHTO   O60 4793   4.512   8.542   1.326
   12CHTO  H138 4794   4.451   8.483   1.284
   12CHTO   O50 4795   4.793   8.829   1.552
   12CHTO   C73 4796   4.859   8.701   1.553
   12CHTO  H145 4797   4.789   8.623   1.521
   12CHTO   C74 4798   4.904   8.668   1.699
   12CHTO  H146 4799   4.817   8.681   1.764
   12CHTO   O54 4800   4.937   8.528   1.703
   12CHTO  H133 4801   4.860   8.476   1.691
   12CHTO   C75 4802   5.024   8.762   1.741
   12CHTO  H147 4803   4.991   8.867   1.733
   12CHTO   N13 4804   5.068   8.745   1.881
   12CHTO  H139 4805   5.171   8.713   1.886
   12CHTO  H140 4806   5.007   8.672   1.932
   12CHTO   C76 4807   5.142   8.740   1.635
   12CHTO  H148 4808   5.164   8.633   1.635
   12CHTO   O49 4809   5.093   8.779   1.503
   12CHTO   C77 4810   4.984   8.696   1.458
   12CHTO  H149 4811   5.020   8.593   1.454
   12CHTO   C88 4812   4.951   8.730   1.312
   12CHTO   O58 4813   4.930   8.875   1.289
   12CHTO  H136 4814   5.010   8.922   1.303
   12CHTO   O51 4815   5.275   8.830   1.663
   12CHTO   C78 4816   5.405   8.739   1.636
   12CHTO  H150 4817   5.375   8.637   1.604
   12CHTO   C80 4818   5.491   8.726   1.764
   12CHTO  H152 4819   5.533   8.826   1.789
   12CHTO   O55 4820   5.406   8.682   1.871
   12CHTO  H134 4821   5.345   8.750   1.894
   12CHTO   C84 4822   5.609   8.623   1.739
   12CHTO  H156 4823   5.563   8.526   1.722
   12CHTO   N15 4824   5.701   8.606   1.857
   12CHTO  H143 4825   5.701   8.504   1.890
   12CHTO  H144 4826   5.670   8.668   1.939
   12CHTO   C87 4827   5.689   8.659   1.612
   12CHTO  H159 4828   5.756   8.743   1.631
   12CHTO   O53 4829   5.592   8.696   1.493
   12CHTO   C82 4830   5.494   8.796   1.524
   12CHTO  H154 4831   5.543   8.889   1.555
   12CHTO   C89 4832   5.416   8.827   1.394
   12CHTO   O59 4833   5.334   8.943   1.407
   12CHTO  H137 4834   5.264   8.927   1.467
   12CHTO   O45 4835   5.780   8.523   1.566
   12CHTO   C67 4836   5.877   8.533   1.460
   12CHTO  H124 4837   5.928   8.437   1.455
   12CHTO   C65 4838   5.814   8.563   1.319
   12CHTO  H122 4839   5.706   8.552   1.330
   12CHTO   O44 4840   5.860   8.463   1.227
   12CHTO  H102 4841   5.816   8.472   1.145
   12CHTO   C63 4842   5.840   8.712   1.275
   12CHTO  H120 4843   5.802   8.778   1.352
   12CHTO   N11 4844   5.763   8.759   1.155
   12CHTO  H108 4845   5.713   8.677   1.107
   12CHTO  H109 4846   5.827   8.809   1.085
   12CHTO   C61 4847   5.996   8.735   1.268
   12CHTO  H118 4848   6.013   8.843   1.273
   12CHTO   O40 4849   6.069   8.675   1.379
   12CHTO   C68 4850   5.991   8.638   1.497
   12CHTO  H125 4851   5.947   8.731   1.539
   12CHTO   C72 4852   6.086   8.581   1.604
   12CHTO   O48 4853   6.183   8.676   1.649
   12CHTO  H105 4854   6.244   8.695   1.580
   12CHTO   O38 4855   6.054   8.680   1.148
   12CHTO   C55 4856   6.185   8.727   1.111
   12CHTO  H112 4857   6.240   8.760   1.201
   12CHTO   C56 4858   6.172   8.842   1.003
   12CHTO  H113 4859   6.103   8.806   0.925
   12CHTO   O42 4860   6.110   8.956   1.064
   12CHTO  H100 4861   6.094   9.023   1.000
   12CHTO   C57 4862   6.312   8.881   0.940
   12CHTO  H114 4863   6.369   8.934   1.017
   12CHTO   N10 4864   6.300   8.974   0.824
   12CHTO  H106 4865   6.382   8.960   0.755
   12CHTO  H107 4866   6.207   8.957   0.772
   12CHTO   C58 4867   6.390   8.752   0.902
   12CHTO  H115 4868   6.339   8.702   0.815
   12CHTO   O37 4869   6.396   8.661   1.013
   12CHTO   C59 4870   6.268   8.609   1.053
   12CHTO  H116 4871   6.218   8.563   0.968
   12CHTO   C70 4872   6.294   8.500   1.158
   12CHTO   O46 4873   6.177   8.425   1.194
   12CHTO  H103 4874   6.117   8.481   1.240
   12CHTO   O39 4875   6.546   8.784   0.867
   12CHTO   C60 4876   6.582   8.770   0.728
   12CHTO  H117 4877   6.493   8.767   0.666
   12CHTO   C62 4878   6.668   8.892   0.683
   12CHTO  H119 4879   6.604   8.982   0.699
   12CHTO   O43 4880   6.784   8.903   0.767
   12CHTO  H101 4881   6.759   8.926   0.855
   12CHTO   C66 4882   6.703   8.880   0.527
   12CHTO  H123 4883   6.610   8.872   0.471
   12CHTO   N12 4884   6.772   9.001   0.474
   12CHTO  H110 4885   6.787   9.075   0.552
   12CHTO  H111 4886   6.717   9.042   0.391
   12CHTO   C69 4887   6.784   8.751   0.502
   12CHTO  H126 4888   6.882   8.756   0.556
   12CHTO   O41 4889   6.702   8.627   0.554
   12CHTO   C64 4890   6.660   8.637   0.703
   12CHTO  H121 4891   6.750   8.635   0.768
   12CHTO   C71 4892   6.573   8.513   0.737
   12CHTO   O47 4893   6.648   8.392   0.726
   12CHTO  H104 4894   6.710   8.386   0.796
   12CHTO   O34 4895   6.813   8.730   0.348
   12CHTO   C49 4896   6.945   8.678   0.290
   12CHTO   H91 4897   7.024   8.746   0.324
   12CHTO   C47 4898   6.935   8.680   0.136
   12CHTO   H89 4899   7.036   8.649   0.100
   12CHTO   O33 4900   6.910   8.813   0.090
   12CHTO   H70 4901   6.917   8.817   2.878
   12CHTO   C45 4902   6.820   8.577   0.084
   12CHTO   H87 4903   6.725   8.631   0.079
   12CHTO    N8 4904   6.856   8.531   2.829
   12CHTO   H75 4905   6.948   8.475   2.831
   12CHTO   H76 4906   6.866   8.616   2.763
   12CHTO   C43 4907   6.796   8.460   0.194
   12CHTO   H85 4908   6.727   8.503   0.266
   12CHTO   O29 4909   6.922   8.425   0.255
   12CHTO   C50 4910   6.979   8.531   0.334
   12CHTO   H92 4911   6.946   8.519   0.438
   12CHTO   C54 4912   7.133   8.510   0.342
   12CHTO   O36 4913   7.166   8.385   0.404
   12CHTO   H72 4914   7.143   8.314   0.348
   12CHTO   O27 4915   6.728   8.343   0.144
   12CHTO   C37 4916   6.647   8.246   0.212
   12CHTO   H79 4917   6.632   8.158   0.147
   12CHTO   C38 4918   6.718   8.193   0.342
   12CHTO   H80 4919   6.753   8.280   0.400
   12CHTO   O31 4920   6.833   8.118   0.298
   12CHTO   H68 4921   6.886   8.093   0.372
   12CHTO   C39 4922   6.622   8.107   0.432
   12CHTO   H81 4923   6.596   8.017   0.376
   12CHTO    N7 4924   6.687   8.063   0.561
   12CHTO   H73 4925   6.687   7.956   0.568
   12CHTO   H74 4926   6.637   8.107   0.646
   12CHTO   C40 4927   6.489   8.188   0.456
   12CHTO   H82 4928   6.511   8.278   0.513
   12CHTO   O26 4929   6.430   8.217   0.328
   12CHTO   C41 4930   6.508   8.308   0.246
   12CHTO   H83 4931   6.522   8.403   0.298
   12CHTO   C52 4932   6.424   8.335   0.119
   12CHTO   O35 4933   6.482   8.433   0.030
   12CHTO   H71 4934   6.431   8.439   2.834
   12CHTO   O28 4935   6.387   8.111   0.524
   12CHTO   C42 4936   6.302   8.172   0.628
   12CHTO   H84 4937   6.337   8.275   0.639
   12CHTO   C44 4938   6.314   8.106   0.769
   12CHTO   H86 4939   6.287   8.001   0.761
   12CHTO   O32 4940   6.452   8.113   0.809
   12CHTO   H69 4941   6.479   8.203   0.820
   12CHTO   C48 4942   6.218   8.174   0.877
   12CHTO   H90 4943   6.258   8.274   0.897
   12CHTO    N9 4944   6.221   8.101   1.009
   12CHTO   H77 4945   6.249   8.168   1.088
   12CHTO   H78 4946   6.125   8.055   1.030
   12CHTO   C51 4947   6.073   8.190   0.819
   12CHTO   H93 4948   6.027   8.091   0.812
   12CHTO   O30 4949   6.078   8.256   0.692
   12CHTO   C46 4950   6.152   8.180   0.587
   12CHTO   H88 4951   6.110   8.079   0.580
   12CHTO   C53 4952   6.131   8.254   0.453
   12CHTO   O72 4953   5.993   8.255   0.415
   12CHTO  H199 4954   5.984   8.298   0.332
   12CHTO   O22 4955   5.993   8.276   0.903
   12CHTO   C31 4956   5.850   8.298   0.874
   12CHTO   H59 4957   5.831   8.255   0.773
   12CHTO   C29 4958   5.755   8.225   0.972
   12CHTO   H57 4959   5.777   8.262   1.074
   12CHTO   O21 4960   5.788   8.084   0.971
   12CHTO   H37 4961   5.742   8.040   1.040
   12CHTO   C27 4962   5.603   8.251   0.939
   12CHTO   H55 4963   5.579   8.203   0.843
   12CHTO    N5 4964   5.511   8.197   1.043
   12CHTO   H43 4965   5.526   8.090   1.054
   12CHTO   H44 4966   5.528   8.246   1.137
   12CHTO   C25 4967   5.579   8.405   0.919
   12CHTO   H53 4968   5.591   8.457   1.016
   12CHTO   O17 4969   5.675   8.461   0.825
   12CHTO   C32 4970   5.812   8.449   0.866
   12CHTO   H60 4971   5.826   8.495   0.963
   12CHTO   C36 4972   5.894   8.528   0.761
   12CHTO   O25 4973   6.030   8.544   0.800
   12CHTO   H40 4974   6.077   8.589   0.732
   12CHTO   O15 4975   5.434   8.433   0.863
   12CHTO   C19 4976   5.375   8.559   0.822
   12CHTO   H47 4977   5.442   8.636   0.865
   12CHTO   C20 4978   5.371   8.580   0.667
   12CHTO   H48 4979   5.313   8.500   0.617
   12CHTO   O19 4980   5.506   8.572   0.618
   12CHTO   H35 4981   5.539   8.485   0.628
   12CHTO   C21 4982   5.305   8.718   0.627
   12CHTO   H49 4983   5.370   8.799   0.662
   12CHTO    N4 4984   5.289   8.737   0.480
   12CHTO   H41 4985   5.386   8.736   0.433
   12CHTO   H42 4986   5.228   8.657   0.439
   12CHTO   C22 4987   5.170   8.734   0.704
   12CHTO   H50 4988   5.100   8.659   0.667
   12CHTO   O14 4989   5.192   8.716   0.845
   12CHTO   C23 4990   5.234   8.584   0.882
   12CHTO   H51 4991   5.160   8.513   0.844
   12CHTO   C34 4992   5.233   8.579   1.035
   12CHTO   O23 4993   5.248   8.445   1.083
   12CHTO   H38 4994   5.242   8.444   1.177
   12CHTO   O16 4995   5.115   8.866   0.690
   12CHTO   C24 4996   4.950   8.885   0.723
   12CHTO   H52 4997   4.923   8.990   0.734
   12CHTO   C26 4998   4.909   8.812   0.853
   12CHTO   H54 4999   4.947   8.707   0.848
   12CHTO   O20 5000   4.975   8.878   0.963
   12CHTO   H36 5001   4.943   8.966   0.972
   12CHTO   C30 5002   4.755   8.805   0.871
   12CHTO   H58 5003   4.715   8.906   0.891
   12CHTO    N6 5004   4.718   8.722   0.989
   12CHTO   H45 5005   4.610   8.719   0.999
   12CHTO   H46 5006   4.761   8.765   1.079
   12CHTO   C33 5007   4.688   8.755   0.739
   12CHTO   H61 5008   4.719   8.652   0.718
   12CHTO   O18 5009   4.730   8.839   0.630
   12CHTO   C28 5010   4.870   8.831   0.601
   12CHTO   H56 5011   4.899   8.728   0.582
   12CHTO   C35 5012   4.901   8.913   0.473
   12CHTO   O24 5013   4.862   9.051   0.481
   12CHTO   H39 5014   4.768   9.057   0.481
   12CHTO    O9 5015   4.544   8.751   0.749
   12CHTO   C13 5016   4.470   8.690   0.624
   12CHTO   H26 5017   4.524   8.723   0.532
   12CHTO   C11 5018   4.320   8.741   0.624
   12CHTO   H24 5019   4.322   8.850   0.614
   12CHTO    O8 5020   4.255   8.711   0.749
   12CHTO    H3 5021   4.169   8.748   0.750
   12CHTO    C9 5022   4.251   8.681   0.500
   12CHTO   H22 5023   4.314   8.710   0.414
   12CHTO    N2 5024   4.119   8.743   0.472
   12CHTO   H10 5025   4.042   8.667   0.463
   12CHTO   H11 5026   4.123   8.803   0.383
   12CHTO    C7 5027   4.251   8.524   0.510
   12CHTO   H20 5028   4.216   8.491   0.409
   12CHTO    O4 5029   4.383   8.469   0.531
   12CHTO   C14 5030   4.476   8.532   0.623
   12CHTO   H27 5031   4.577   8.504   0.586
   12CHTO   C18 5032   4.461   8.470   0.765
   12CHTO   O13 5033   4.508   8.335   0.768
   12CHTO    H7 5034   4.451   8.280   0.719
   12CHTO    O2 5035   4.149   8.465   0.626
   12CHTO    C1 5036   4.068   8.355   0.581
   12CHTO   H14 5037   4.121   8.301   0.500
   12CHTO    C2 5038   3.925   8.399   0.528
   12CHTO   H15 5039   3.881   8.462   0.606
   12CHTO    O6 5040   3.941   8.475   0.407
   12CHTO    H1 5041   3.983   8.557   0.426
   12CHTO    C3 5042   3.831   8.271   0.500
   12CHTO   H16 5043   3.869   8.218   0.412
   12CHTO    N1 5044   3.689   8.312   0.468
   12CHTO    H8 5045   3.688   8.375   0.381
   12CHTO    H9 5046   3.629   8.224   0.451
   12CHTO    C4 5047   3.838   8.169   0.620
   12CHTO   H17 5048   3.785   8.211   0.706
   12CHTO    O1 5049   3.974   8.140   0.655
   12CHTO    C5 5050   4.052   8.253   0.697
   12CHTO   H18 5051   4.002   8.303   0.781
   12CHTO   C16 5052   4.189   8.200   0.746
   12CHTO   O11 5053   4.176   8.114   0.860
   12CHTO    H5 5054   4.260   8.081   0.883
   12CHTO    O3 5055   3.781   8.042   0.582
   12CHTO    C6 5056   3.733   7.958   0.692
   12CHTO   H19 5057   3.765   7.995   0.791
   12CHTO    C8 5058   3.577   7.953   0.691
   12CHTO   H21 5059   3.545   7.922   0.591
   12CHTO    O7 5060   3.529   8.086   0.718
   12CHTO    H2 5061   3.436   8.089   0.710
   12CHTO   C12 5062   3.524   7.847   0.796
   12CHTO   H25 5063   3.548   7.889   0.897
   12CHTO    N3 5064   3.374   7.834   0.790
   12CHTO   H12 5065   3.340   7.764   0.864
   12CHTO   H13 5066   3.344   7.801   0.691
   12CHTO   C15 5067   3.599   7.710   0.779
   12CHTO   H28 5068   3.570   7.659   0.687
   12CHTO   O10 5069   3.579   7.616   0.899
   12CHTO    H4 5070   3.488   7.591   0.905
   12CHTO    O5 5071   3.742   7.729   0.782
   12CHTO   C10 5072   3.790   7.814   0.677
   12CHTO   H23 5073   3.759   7.773   0.581
   12CHTO   C17 5074   3.944   7.810   0.678
   12CHTO   O12 5075   3.999   7.856   0.802
   12CHTO    H6 5076   4.092   7.852   0.799
   13CHTO  H203 5077   7.271   3.642   2.402
   13CHTO   O82 5078   7.192   3.668   2.359
   13CHTO  C123 5079   7.155   3.801   2.401
   13CHTO  H227 5080   7.238   3.870   2.377
   13CHTO   O77 5081   7.039   3.830   2.317
   13CHTO  C118 5082   6.988   3.964   2.333
   13CHTO  H222 5083   7.068   4.037   2.313
   13CHTO  C125 5084   6.872   3.985   2.228
   13CHTO   O84 5085   6.921   3.977   2.094
   13CHTO  H205 5086   6.948   3.890   2.075
   13CHTO  C114 5087   6.936   3.981   2.477
   13CHTO  H218 5088   6.855   3.910   2.493
   13CHTO  C116 5089   7.048   3.949   2.582
   13CHTO  H220 5090   7.125   4.030   2.578
   13CHTO   O79 5091   6.990   3.955   2.714
   13CHTO  H201 5092   6.964   4.042   2.735
   13CHTO  C120 5093   7.115   3.809   2.553
   13CHTO  H224 5094   7.038   3.732   2.576
   13CHTO   N21 5095   7.230   3.784   2.643
   13CHTO  H211 5096   7.242   3.678   2.660
   13CHTO  H212 5097   7.321   3.827   2.603
   13CHTO   O75 5098   6.887   4.116   2.483
   13CHTO  C112 5099   6.759   4.134   2.581
   13CHTO  H216 5100   6.772   4.071   2.670
   13CHTO   O73 5101   6.642   4.096   2.506
   13CHTO  C113 5102   6.521   4.096   2.582
   13CHTO  H217 5103   6.532   4.027   2.669
   13CHTO  C124 5104   6.411   4.039   2.491
   13CHTO   O83 5105   6.287   4.016   2.559
   13CHTO  H204 5106   6.226   3.977   2.499
   13CHTO  C109 5107   6.490   4.241   2.632
   13CHTO  H213 5108   6.467   4.301   2.542
   13CHTO  C110 5109   6.613   4.301   2.707
   13CHTO  H214 5110   6.622   4.251   2.804
   13CHTO   O78 5111   6.585   4.440   2.735
   13CHTO  H200 5112   6.654   4.477   2.787
   13CHTO  C111 5113   6.744   4.284   2.625
   13CHTO  H215 5114   6.737   4.346   2.535
   13CHTO   N19 5115   6.865   4.329   2.699
   13CHTO  H207 5116   6.856   4.433   2.725
   13CHTO  H208 5117   6.953   4.315   2.637
   13CHTO   O74 5118   6.372   4.238   2.718
   13CHTO  C115 5119   6.287   4.379   2.730
   13CHTO  H219 5120   6.328   4.444   2.807
   13CHTO   O76 5121   6.295   4.463   2.594
   13CHTO  C122 5122   6.216   4.583   2.591
   13CHTO  H226 5123   6.219   4.620   2.489
   13CHTO  C126 5124   6.282   4.696   2.679
   13CHTO   O85 5125   6.413   4.731   2.633
   13CHTO  H206 5126   6.449   4.798   2.688
   13CHTO  C121 5127   6.066   4.557   2.631
   13CHTO  H225 5128   6.015   4.655   2.641
   13CHTO   O81 5129   6.001   4.485   2.525
   13CHTO  H202 5130   5.998   4.538   2.447
   13CHTO  C119 5131   6.052   4.479   2.765
   13CHTO  H223 5132   6.092   4.545   2.843
   13CHTO  C117 5133   6.138   4.346   2.768
   13CHTO  H221 5134   6.107   4.269   2.698
   13CHTO   N20 5135   6.132   4.282   0.021
   13CHTO  H209 5136   6.190   4.190   0.021
   13CHTO  H210 5137   6.030   4.260   0.048
   13CHTO   O80 5138   5.901   4.464   2.810
   13CHTO  C103 5139   5.843   4.556   0.040
   13CHTO  H190 5140   5.908   4.556   0.128
   13CHTO  C101 5141   5.811   4.705   2.881
   13CHTO  H188 5142   5.758   4.704   2.786
   13CHTO   O68 5143   5.944   4.782   2.862
   13CHTO  H168 5144   5.995   4.742   2.793
   13CHTO   C99 5145   5.718   4.777   0.108
   13CHTO  H186 5146   5.776   4.789   0.203
   13CHTO   N17 5147   5.671   4.915   0.068
   13CHTO  H174 5148   5.702   4.938   2.849
   13CHTO  H175 5149   5.709   4.989   0.138
   13CHTO   C97 5150   5.597   4.687   0.144
   13CHTO  H184 5151   5.531   4.680   0.056
   13CHTO   O64 5152   5.643   4.557   0.186
   13CHTO  C104 5153   5.710   4.483   0.082
   13CHTO  H191 5154   5.646   4.473   2.876
   13CHTO  C108 5155   5.737   4.341   0.132
   13CHTO   O71 5156   5.614   4.270   0.150
   13CHTO  H171 5157   5.632   4.183   0.182
   13CHTO   O62 5158   5.525   4.733   0.260
   13CHTO   C91 5159   5.381   4.733   0.251
   13CHTO  H178 5160   5.354   4.780   0.156
   13CHTO   C92 5161   5.325   4.827   0.362
   13CHTO  H179 5162   5.361   4.791   0.460
   13CHTO   O66 5163   5.383   4.957   0.342
   13CHTO  H166 5164   5.360   5.014   0.413
   13CHTO   C93 5165   5.168   4.832   0.358
   13CHTO  H180 5166   5.141   4.883   0.264
   13CHTO   N16 5167   5.109   4.916   0.466
   13CHTO  H172 5168   5.048   4.994   0.424
   13CHTO  H173 5169   5.053   4.857   0.537
   13CHTO   C94 5170   5.105   4.687   0.356
   13CHTO  H181 5171   5.048   4.665   0.446
   13CHTO   O61 5172   5.203   4.581   0.352
   13CHTO   C95 5173   5.314   4.589   0.261
   13CHTO  H182 5174   5.391   4.520   0.294
   13CHTO  C106 5175   5.270   4.537   0.118
   13CHTO   O69 5176   5.233   4.399   0.122
   13CHTO  H169 5177   5.152   4.389   0.170
   13CHTO   O63 5178   5.008   4.674   0.229
   13CHTO   C96 5179   4.856   4.709   0.262
   13CHTO  H183 5180   4.855   4.786   0.340
   13CHTO   C98 5181   4.771   4.589   0.312
   13CHTO  H185 5182   4.780   4.505   0.242
   13CHTO   O67 5183   4.827   4.543   0.436
   13CHTO  H167 5184   4.912   4.506   0.422
   13CHTO  C102 5185   4.617   4.628   0.335
   13CHTO  H189 5186   4.616   4.697   0.420
   13CHTO   N18 5187   4.527   4.515   0.372
   13CHTO  H176 5188   4.479   4.535   0.467
   13CHTO  H177 5189   4.582   4.423   0.378
   13CHTO  C105 5190   4.564   4.707   0.211
   13CHTO  H192 5191   4.549   4.638   0.128
   13CHTO   O65 5192   4.654   4.812   0.169
   13CHTO  C100 5193   4.787   4.768   0.135
   13CHTO  H187 5194   4.780   4.690   0.058
   13CHTO  C107 5195   4.867   4.887   0.076
   13CHTO   O70 5196   4.813   4.928   2.832
   13CHTO  H170 5197   4.829   4.862   2.767
   13CHTO   O57 5198   4.424   4.771   0.259
   13CHTO   C85 5199   4.356   4.871   0.183
   13CHTO  H157 5200   4.428   4.954   0.170
   13CHTO   C83 5201   4.241   4.928   0.272
   13CHTO  H155 5202   4.287   4.979   0.357
   13CHTO   O56 5203   4.160   4.822   0.328
   13CHTO  H135 5204   4.117   4.774   0.260
   13CHTO   C81 5205   4.160   5.030   0.189
   13CHTO  H153 5206   4.230   5.100   0.143
   13CHTO   N14 5207   4.073   5.116   0.274
   13CHTO  H141 5208   4.132   5.164   0.350
   13CHTO  H142 5209   4.027   5.192   0.214
   13CHTO   C79 5210   4.084   4.954   0.072
   13CHTO  H151 5211   4.079   5.022   2.869
   13CHTO   O52 5212   4.153   4.832   0.026
   13CHTO   C86 5213   4.298   4.821   0.043
   13CHTO  H158 5214   4.316   4.713   0.029
   13CHTO   C90 5215   4.366   4.891   2.804
   13CHTO   O60 5216   4.508   4.868   2.801
   13CHTO  H138 5217   4.524   4.778   2.780
   13CHTO   O50 5218   3.950   4.913   0.104
   13CHTO   C73 5219   3.832   4.876   0.033
   13CHTO  H145 5220   3.855   4.855   2.809
   13CHTO   C74 5221   3.727   4.991   0.040
   13CHTO  H146 5222   3.774   5.081   2.879
   13CHTO   O54 5223   3.617   4.958   2.835
   13CHTO  H133 5224   3.554   5.027   2.834
   13CHTO   C75 5225   3.685   5.014   0.191
   13CHTO  H147 5226   3.775   5.043   0.247
   13CHTO   N13 5227   3.586   5.122   0.211
   13CHTO  H139 5228   3.627   5.199   0.276
   13CHTO  H140 5229   3.559   5.168   0.117
   13CHTO   C76 5230   3.634   4.875   0.252
   13CHTO  H148 5231   3.546   4.846   0.195
   13CHTO   O49 5232   3.736   4.771   0.235
   13CHTO   C77 5233   3.772   4.748   0.097
   13CHTO  H149 5234   3.683   4.718   0.040
   13CHTO   C88 5235   3.869   4.630   0.089
   13CHTO   O58 5236   3.805   4.509   0.131
   13CHTO  H136 5237   3.867   4.439   0.132
   13CHTO   O51 5238   3.598   4.881   0.419
   13CHTO   C78 5239   3.710   4.924   0.539
   13CHTO  H150 5240   3.668   4.895   0.638
   13CHTO   C80 5241   3.737   5.076   0.542
   13CHTO  H152 5242   3.779   5.106   0.444
   13CHTO   O55 5243   3.611   5.142   0.560
   13CHTO  H134 5244   3.574   5.122   0.644
   13CHTO   C84 5245   3.841   5.114   0.655
   13CHTO  H156 5246   3.794   5.091   0.751
   13CHTO   N15 5247   3.875   5.260   0.657
   13CHTO  H143 5248   3.944   5.281   0.736
   13CHTO  H144 5249   3.786   5.318   0.672
   13CHTO   C87 5250   3.967   5.026   0.640
   13CHTO  H159 5251   4.021   5.053   0.549
   13CHTO   O53 5252   3.929   4.879   0.635
   13CHTO   C82 5253   3.842   4.845   0.526
   13CHTO  H154 5254   3.890   4.865   0.430
   13CHTO   C89 5255   3.817   4.693   0.533
   13CHTO   O59 5256   3.938   4.618   0.515
   13CHTO  H137 5257   3.969   4.628   0.427
   13CHTO   O45 5258   4.065   5.041   0.764
   13CHTO   C67 5259   4.198   4.997   0.733
   13CHTO  H124 5260   4.198   4.923   0.653
   13CHTO   C65 5261   4.285   5.119   0.689
   13CHTO  H122 5262   4.226   5.172   0.614
   13CHTO   O44 5263   4.407   5.073   0.628
   13CHTO  H102 5264   4.462   5.032   0.692
   13CHTO   C63 5265   4.300   5.219   0.810
   13CHTO  H120 5266   4.200   5.248   0.843
   13CHTO   N11 5267   4.363   5.351   0.776
   13CHTO  H108 5268   4.290   5.429   0.779
   13CHTO  H109 5269   4.409   5.348   0.679
   13CHTO   C61 5270   4.367   5.145   0.932
   13CHTO  H118 5271   4.352   5.212   1.018
   13CHTO   O40 5272   4.299   5.020   0.965
   13CHTO   C68 5273   4.259   4.926   0.860
   13CHTO  H125 5274   4.178   4.863   0.904
   13CHTO   C72 5275   4.376   4.829   0.826
   13CHTO   O48 5276   4.337   4.725   0.736
   13CHTO  H105 5277   4.411   4.669   0.720
   13CHTO   O38 5278   4.508   5.122   0.915
   13CHTO   C55 5279   4.588   5.054   1.014
   13CHTO  H112 5280   4.563   4.947   1.010
   13CHTO   C56 5281   4.574   5.112   1.164
   13CHTO  H113 5282   4.585   5.221   1.157
   13CHTO   O42 5283   4.442   5.088   1.215
   13CHTO  H100 5284   4.424   4.996   1.219
   13CHTO   C57 5285   4.684   5.051   1.260
   13CHTO  H114 5286   4.659   4.946   1.275
   13CHTO   N10 5287   4.688   5.115   1.395
   13CHTO  H106 5288   4.620   5.064   1.462
   13CHTO  H107 5289   4.660   5.219   1.388
   13CHTO   C58 5290   4.823   5.059   1.192
   13CHTO  H115 5291   4.851   5.167   1.180
   13CHTO   O37 5292   4.821   4.996   1.064
   13CHTO   C59 5293   4.737   5.064   0.969
   13CHTO  H116 5294   4.767   5.168   0.961
   13CHTO   C70 5295   4.757   4.998   0.832
   13CHTO   O46 5296   4.890   5.015   0.781
   13CHTO  H103 5297   4.906   5.106   0.762
   13CHTO   O39 5298   4.938   4.980   1.277
   13CHTO   C60 5299   5.069   5.037   1.256
   13CHTO  H117 5300   5.079   5.066   1.151
   13CHTO   C62 5301   5.088   5.164   1.344
   13CHTO  H119 5302   5.009   5.236   1.313
   13CHTO   O43 5303   5.067   5.130   1.482
   13CHTO  H101 5304   4.977   5.106   1.497
   13CHTO   C66 5305   5.231   5.229   1.315
   13CHTO  H123 5306   5.240   5.248   1.208
   13CHTO   N12 5307   5.247   5.361   1.382
   13CHTO  H110 5308   5.345   5.401   1.360
   13CHTO  H111 5309   5.170   5.428   1.349
   13CHTO   C69 5310   5.342   5.127   1.354
   13CHTO  H126 5311   5.334   5.102   1.462
   13CHTO   O41 5312   5.320   4.996   1.268
   13CHTO   C64 5313   5.180   4.931   1.284
   13CHTO  H121 5314   5.168   4.891   1.387
   13CHTO   C71 5315   5.173   4.813   1.183
   13CHTO   O47 5316   5.058   4.731   1.203
   13CHTO  H104 5317   5.067   4.682   1.283
   13CHTO   O34 5318   5.487   5.182   1.327
   13CHTO   C49 5319   5.591   5.227   1.222
   13CHTO   H91 5320   5.614   5.140   1.161
   13CHTO   C47 5321   5.718   5.273   1.299
   13CHTO   H89 5322   5.795   5.295   1.222
   13CHTO   O33 5323   5.763   5.163   1.380
   13CHTO   H70 5324   5.702   5.145   1.449
   13CHTO   C45 5325   5.683   5.405   1.383
   13CHTO   H87 5326   5.597   5.383   1.447
   13CHTO    N8 5327   5.795   5.450   1.470
   13CHTO   H75 5328   5.881   5.477   1.409
   13CHTO   H76 5329   5.823   5.371   1.538
   13CHTO   C43 5330   5.632   5.521   1.283
   13CHTO   H85 5331   5.598   5.601   1.348
   13CHTO   O29 5332   5.527   5.472   1.197
   13CHTO   C50 5333   5.539   5.343   1.133
   13CHTO   H92 5334   5.438   5.315   1.100
   13CHTO   C54 5335   5.616   5.357   0.998
   13CHTO   O36 5336   5.620   5.235   0.923
   13CHTO   H72 5337   5.533   5.212   0.895
   13CHTO   O27 5338   5.739   5.577   1.203
   13CHTO   C37 5339   5.755   5.697   1.126
   13CHTO   H79 5340   5.676   5.703   1.050
   13CHTO   C38 5341   5.743   5.825   1.215
   13CHTO   H80 5342   5.816   5.817   1.297
   13CHTO   O31 5343   5.611   5.832   1.270
   13CHTO   H68 5344   5.598   5.763   1.333
   13CHTO   C39 5345   5.772   5.957   1.133
   13CHTO   H81 5346   5.684   5.974   1.071
   13CHTO    N7 5347   5.788   6.080   1.219
   13CHTO   H73 5348   5.776   6.056   1.324
   13CHTO   H74 5349   5.716   6.156   1.190
   13CHTO   C40 5350   5.895   5.944   1.034
   13CHTO   H82 5351   5.990   5.968   1.082
   13CHTO   O26 5352   5.899   5.817   0.968
   13CHTO   C41 5353   5.893   5.701   1.056
   13CHTO   H83 5354   5.972   5.708   1.132
   13CHTO   C52 5355   5.921   5.574   0.972
   13CHTO   O35 5356   6.060   5.570   0.919
   13CHTO   H71 5357   6.073   5.641   0.860
   13CHTO   O28 5358   5.872   6.030   0.920
   13CHTO   C42 5359   5.952   6.141   0.870
   13CHTO   H84 5360   6.040   6.093   0.828
   13CHTO   C44 5361   6.004   6.247   0.973
   13CHTO   H86 5362   5.922   6.275   1.039
   13CHTO   O32 5363   6.105   6.184   1.054
   13CHTO   H69 5364   6.134   6.242   1.121
   13CHTO   C48 5365   6.059   6.380   0.906
   13CHTO   H90 5366   6.153   6.358   0.855
   13CHTO    N9 5367   6.092   6.486   1.008
   13CHTO   H77 5368   6.168   6.450   1.075
   13CHTO   H78 5369   6.126   6.576   0.958
   13CHTO   C51 5370   5.954   6.428   0.800
   13CHTO   H93 5371   5.858   6.441   0.851
   13CHTO   O30 5372   5.948   6.325   0.700
   13CHTO   C46 5373   5.876   6.207   0.750
   13CHTO   H88 5374   5.778   6.240   0.785
   13CHTO   C53 5375   5.856   6.109   0.632
   13CHTO   O72 5376   5.980   6.068   0.572
   13CHTO  H199 5377   5.963   6.008   0.502
   13CHTO   O22 5378   5.989   6.548   0.728
   13CHTO   C31 5379   5.881   6.632   0.670
   13CHTO   H59 5380   5.932   6.710   0.610
   13CHTO   C29 5381   5.786   6.556   0.574
   13CHTO   H57 5382   5.742   6.472   0.630
   13CHTO   O21 5383   5.865   6.499   0.468
   13CHTO   H37 5384   5.922   6.433   0.502
   13CHTO   C27 5385   5.669   6.647   0.520
   13CHTO   H55 5386   5.712   6.726   0.456
   13CHTO    N5 5387   5.570   6.571   0.439
   13CHTO   H43 5388   5.493   6.637   0.402
   13CHTO   H44 5389   5.619   6.522   0.356
   13CHTO   C25 5390   5.600   6.719   0.642
   13CHTO   H53 5391   5.551   6.644   0.706
   13CHTO   O17 5392   5.698   6.792   0.720
   13CHTO   C32 5393   5.799   6.709   0.779
   13CHTO   H60 5394   5.751   6.637   0.845
   13CHTO   C36 5395   5.890   6.799   0.868
   13CHTO   O25 5396   5.954   6.903   0.793
   13CHTO   H40 5397   6.016   6.866   0.733
   13CHTO   O15 5398   5.497   6.819   0.596
   13CHTO   C19 5399   5.384   6.891   0.651
   13CHTO   H47 5400   5.381   6.861   0.757
   13CHTO   C20 5401   5.401   7.046   0.642
   13CHTO   H48 5402   5.429   7.078   0.540
   13CHTO   O19 5403   5.511   7.082   0.728
   13CHTO   H35 5404   5.592   7.048   0.695
   13CHTO   C21 5405   5.270   7.126   0.683
   13CHTO   H49 5406   5.256   7.115   0.791
   13CHTO    N4 5407   5.279   7.271   0.654
   13CHTO   H41 5408   5.267   7.328   0.745
   13CHTO   H42 5409   5.374   7.297   0.609
   13CHTO   C22 5410   5.147   7.060   0.616
   13CHTO   H50 5411   5.155   7.074   0.507
   13CHTO   O14 5412   5.143   6.921   0.647
   13CHTO   C23 5413   5.250   6.846   0.588
   13CHTO   H51 5414   5.247   6.862   0.479
   13CHTO   C34 5415   5.223   6.697   0.613
   13CHTO   O23 5416   5.103   6.653   0.549
   13CHTO   H38 5417   5.088   6.562   0.568
   13CHTO   O16 5418   5.021   7.112   0.663
   13CHTO   C24 5419   4.900   7.072   0.564
   13CHTO   H52 5420   4.932   7.000   0.488
   13CHTO   C26 5421   4.848   7.199   0.494
   13CHTO   H54 5422   4.821   7.274   0.572
   13CHTO   O20 5423   4.955   7.253   0.414
   13CHTO   H36 5424   4.930   7.336   0.378
   13CHTO   C30 5425   4.720   7.168   0.408
   13CHTO   H58 5426   4.748   7.105   0.323
   13CHTO    N6 5427   4.662   7.292   0.350
   13CHTO   H45 5428   4.735   7.340   0.286
   13CHTO   H46 5429   4.574   7.268   0.291
   13CHTO   C33 5430   4.616   7.088   0.492
   13CHTO   H61 5431   4.577   7.151   0.574
   13CHTO   O18 5432   4.682   6.974   0.550
   13CHTO   C28 5433   4.786   7.005   0.644
   13CHTO   H56 5434   4.750   7.075   0.720
   13CHTO   C35 5435   4.831   6.874   0.711
   13CHTO   O24 5436   4.726   6.812   0.786
   13CHTO   H39 5437   4.756   6.732   0.823
   13CHTO    O9 5438   4.501   7.048   0.416
   13CHTO   C13 5439   4.370   6.999   0.509
   13CHTO   H26 5440   4.341   7.085   0.573
   13CHTO   C11 5441   4.407   6.871   0.596
   13CHTO   H24 5442   4.482   6.902   0.671
   13CHTO    O8 5443   4.466   6.772   0.510
   13CHTO    H3 5444   4.498   6.700   0.562
   13CHTO    C9 5445   4.280   6.823   0.671
   13CHTO   H22 5446   4.248   6.909   0.732
   13CHTO    N2 5447   4.310   6.718   0.771
   13CHTO   H10 5448   4.342   6.627   0.722
   13CHTO   H11 5449   4.386   6.752   0.840
   13CHTO    C7 5450   4.164   6.790   0.567
   13CHTO   H20 5451   4.079   6.850   0.605
   13CHTO    O4 5452   4.195   6.833   0.433
   13CHTO   C14 5453   4.242   6.969   0.419
   13CHTO   H27 5454   4.160   7.037   0.451
   13CHTO   C18 5455   4.266   6.995   0.268
   13CHTO   O13 5456   4.146   6.983   0.192
   13CHTO    H7 5457   4.086   7.051   0.216
   13CHTO    O2 5458   4.121   6.633   0.560
   13CHTO    C1 5459   3.979   6.613   0.564
   13CHTO   H14 5460   3.927   6.701   0.518
   13CHTO    C2 5461   3.922   6.592   0.710
   13CHTO   H15 5462   3.982   6.511   0.755
   13CHTO    O6 5463   3.941   6.713   0.786
   13CHTO    H1 5464   3.918   6.699   0.876
   13CHTO    C3 5465   3.767   6.550   0.707
   13CHTO   H16 5466   3.709   6.637   0.674
   13CHTO    N1 5467   3.716   6.511   0.843
   13CHTO    H8 5468   3.682   6.408   0.845
   13CHTO    H9 5469   3.791   6.525   0.919
   13CHTO    C4 5470   3.742   6.438   0.599
   13CHTO   H17 5471   3.783   6.343   0.636
   13CHTO    O1 5472   3.801   6.473   0.472
   13CHTO    C5 5473   3.943   6.490   0.475
   13CHTO   H18 5474   3.991   6.402   0.518
   13CHTO   C16 5475   3.992   6.509   0.330
   13CHTO   O11 5476   3.961   6.395   0.249
   13CHTO    H5 5477   3.989   6.410   0.161
   13CHTO    O3 5478   3.602   6.426   0.569
   13CHTO    C6 5479   3.545   6.295   0.531
   13CHTO   H19 5480   3.457   6.310   0.469
   13CHTO    C8 5481   3.639   6.202   0.446
   13CHTO   H21 5482   3.735   6.192   0.497
   13CHTO    O7 5483   3.659   6.268   0.319
   13CHTO    H2 5484   3.721   6.221   0.267
   13CHTO   C12 5485   3.577   6.058   0.428
   13CHTO   H25 5486   3.486   6.070   0.365
   13CHTO    N3 5487   3.671   5.967   0.354
   13CHTO   H12 5488   3.763   5.955   0.409
   13CHTO   H13 5489   3.624   5.871   0.338
   13CHTO   C15 5490   3.534   6.003   0.569
   13CHTO   H28 5491   3.620   5.986   0.634
   13CHTO   O10 5492   3.450   5.874   0.562
   13CHTO    H4 5493   3.379   5.884   0.502
   13CHTO    O5 5494   3.442   6.093   0.631
   13CHTO   C10 5495   3.498   6.223   0.661
   13CHTO   H23 5496   3.581   6.210   0.730
   13CHTO   C17 5497   3.390   6.305   0.732
   13CHTO   O12 5498   3.352   6.249   0.858
   13CHTO    H6 5499   3.308   6.168   0.845
   14CHTO  H203 5500   5.491   4.544   0.671
   14CHTO   O82 5501   5.406   4.584   0.667
   14CHTO  C123 5502   5.306   4.488   0.707
   14CHTO  H227 5503   5.327   4.456   0.810
   14CHTO   O77 5504   5.183   4.568   0.704
   14CHTO  C118 5505   5.066   4.493   0.740
   14CHTO  H222 5506   5.088   4.437   0.833
   14CHTO  C125 5507   4.948   4.593   0.770
   14CHTO   O84 5508   4.925   4.687   0.664
   14CHTO  H205 5509   4.894   4.642   0.588
   14CHTO  C114 5510   5.038   4.390   0.628
   14CHTO  H218 5511   5.033   4.443   0.533
   14CHTO  C116 5512   5.158   4.290   0.620
   14CHTO  H220 5513   5.158   4.227   0.713
   14CHTO   O79 5514   5.137   4.199   0.511
   14CHTO  H201 5515   5.136   4.245   0.429
   14CHTO  C120 5516   5.296   4.366   0.607
   14CHTO  H224 5517   5.301   4.403   0.502
   14CHTO   N21 5518   5.413   4.275   0.624
   14CHTO  H211 5519   5.442   4.233   0.529
   14CHTO  H212 5520   5.390   4.197   0.696
   14CHTO   O75 5521   4.909   4.334   0.661
   14CHTO  C112 5522   4.840   4.217   0.558
   14CHTO  H216 5523   4.889   4.120   0.576
   14CHTO   O73 5524   4.855   4.260   0.422
   14CHTO  C113 5525   4.806   4.165   0.326
   14CHTO  H217 5526   4.859   4.068   0.341
   14CHTO  C124 5527   4.843   4.215   0.185
   14CHTO   O83 5528   4.984   4.220   0.163
   14CHTO  H204 5529   5.019   4.133   0.155
   14CHTO  C109 5530   4.652   4.144   0.341
   14CHTO  H213 5531   4.604   4.238   0.311
   14CHTO  C110 5532   4.617   4.109   0.489
   14CHTO  H214 5533   4.647   4.006   0.508
   14CHTO   O78 5534   4.473   4.113   0.502
   14CHTO  H200 5535   4.448   4.082   0.588
   14CHTO  C111 5536   4.686   4.205   0.591
   14CHTO  H215 5537   4.641   4.305   0.580
   14CHTO   N19 5538   4.666   4.164   0.732
   14CHTO  H207 5539   4.713   4.235   0.798
   14CHTO  H208 5540   4.708   4.065   0.749
   14CHTO   O74 5541   4.604   4.036   0.254
   14CHTO  C115 5542   4.522   4.082   0.122
   14CHTO  H219 5543   4.564   4.173   0.079
   14CHTO   O76 5544   4.533   3.975   0.007
   14CHTO  C122 5545   4.478   3.847   0.043
   14CHTO  H226 5546   4.548   3.801   0.114
   14CHTO  C126 5547   4.479   3.754   2.798
   14CHTO   O85 5548   4.399   3.806   2.691
   14CHTO  H206 5549   4.308   3.801   2.713
   14CHTO  C121 5550   4.333   3.857   0.107
   14CHTO  H225 5551   4.265   3.786   0.054
   14CHTO   O81 5552   4.337   3.815   0.245
   14CHTO  H202 5553   4.250   3.808   0.279
   14CHTO  C119 5554   4.276   4.001   0.093
   14CHTO  H223 5555   4.277   4.021   2.868
   14CHTO  C117 5556   4.370   4.107   0.163
   14CHTO  H221 5557   4.369   4.103   0.271
   14CHTO   N20 5558   4.326   4.246   0.129
   14CHTO  H209 5559   4.335   4.264   0.023
   14CHTO  H210 5560   4.386   4.318   0.184
   14CHTO   O80 5561   4.119   4.010   0.126
   14CHTO  C103 5562   4.023   4.072   0.019
   14CHTO  H190 5563   4.071   4.156   2.852
   14CHTO  C101 5564   3.969   3.975   2.791
   14CHTO  H188 5565   3.916   3.892   2.838
   14CHTO   O68 5566   4.089   3.917   2.709
   14CHTO  H168 5567   4.139   3.859   2.763
   14CHTO   C99 5568   3.866   4.053   2.695
   14CHTO  H186 5569   3.924   4.129   2.637
   14CHTO   N17 5570   3.799   3.965   2.594
   14CHTO  H174 5571   3.734   3.894   2.644
   14CHTO  H175 5572   3.873   3.914   2.534
   14CHTO   C97 5573   3.761   4.134   2.777
   14CHTO  H184 5574   3.682   4.065   2.811
   14CHTO   O64 5575   3.819   4.207   0.005
   14CHTO  C104 5576   3.898   4.129   0.096
   14CHTO  H191 5577   3.840   4.045   0.137
   14CHTO  C108 5578   3.939   4.215   0.217
   14CHTO   O71 5579   3.826   4.253   0.295
   14CHTO  H171 5580   3.773   4.314   0.247
   14CHTO   O62 5581   3.706   4.239   2.695
   14CHTO   C91 5582   3.566   4.270   2.708
   14CHTO  H178 5583   3.524   4.210   2.789
   14CHTO   C92 5584   3.493   4.224   2.577
   14CHTO  H179 5585   3.521   4.120   2.553
   14CHTO   O66 5586   3.352   4.219   2.605
   14CHTO  H166 5587   3.305   4.182   2.533
   14CHTO   C93 5588   3.516   4.323   2.456
   14CHTO  H180 5589   3.433   4.305   2.385
   14CHTO   N16 5590   3.639   4.295   2.378
   14CHTO  H172 5591   3.634   4.196   2.336
   14CHTO  H173 5592   3.726   4.304   2.442
   14CHTO   C94 5593   3.511   4.473   2.503
   14CHTO  H181 5594   3.611   4.518   2.508
   14CHTO   O61 5595   3.456   4.487   2.635
   14CHTO   C95 5596   3.536   4.424   2.737
   14CHTO  H182 5597   3.632   4.477   2.743
   14CHTO  C106 5598   3.466   4.443   2.876
   14CHTO   O69 5599   3.457   4.582   0.029
   14CHTO  H169 5600   3.543   4.617   0.045
   14CHTO   O63 5601   3.423   4.553   2.400
   14CHTO   C96 5602   3.419   4.706   2.426
   14CHTO  H183 5603   3.463   4.727   2.523
   14CHTO   C98 5604   3.275   4.765   2.425
   14CHTO  H185 5605   3.223   4.735   2.332
   14CHTO   O67 5606   3.202   4.702   2.532
   14CHTO  H167 5607   3.187   4.611   2.512
   14CHTO  C102 5608   3.274   4.925   2.441
   14CHTO  H189 5609   3.308   4.945   2.544
   14CHTO   N18 5610   3.140   4.988   2.431
   14CHTO  H176 5611   3.098   4.969   2.333
   14CHTO  H177 5612   3.147   5.094   2.447
   14CHTO  C105 5613   3.377   4.989   2.343
   14CHTO  H192 5614   3.336   4.987   2.242
   14CHTO   O65 5615   3.504   4.922   2.343
   14CHTO  C100 5616   3.503   4.782   2.316
   14CHTO  H187 5617   3.457   4.765   2.218
   14CHTO  C107 5618   3.650   4.734   2.308
   14CHTO   O70 5619   3.722   4.757   2.430
   14CHTO  H170 5620   3.690   4.700   2.498
   14CHTO   O57 5621   3.397   5.144   2.394
   14CHTO   C85 5622   3.499   5.225   2.333
   14CHTO  H157 5623   3.508   5.190   2.228
   14CHTO   C83 5624   3.638   5.196   2.399
   14CHTO  H155 5625   3.663   5.091   2.384
   14CHTO   O56 5626   3.628   5.214   2.542
   14CHTO  H135 5627   3.612   5.304   2.563
   14CHTO   C81 5628   3.747   5.283   2.329
   14CHTO  H153 5629   3.747   5.258   2.223
   14CHTO   N14 5630   3.884   5.251   2.375
   14CHTO  H141 5631   3.904   5.146   2.362
   14CHTO  H142 5632   3.956   5.307   2.319
   14CHTO   C79 5633   3.710   5.435   2.343
   14CHTO  H151 5634   3.783   5.491   2.285
   14CHTO   O52 5635   3.579   5.462   2.284
   14CHTO   C86 5636   3.471   5.380   2.341
   14CHTO  H158 5637   3.463   5.414   2.446
   14CHTO   C90 5638   3.337   5.417   2.274
   14CHTO   O60 5639   3.303   5.554   2.298
   14CHTO  H138 5640   3.221   5.574   2.256
   14CHTO   O50 5641   3.712   5.482   2.479
   14CHTO   C73 5642   3.699   5.578   2.585
   14CHTO  H145 5643   3.605   5.563   2.639
   14CHTO   C74 5644   3.704   5.723   2.529
   14CHTO  H146 5645   3.618   5.732   2.461
   14CHTO   O54 5646   3.679   5.815   2.637
   14CHTO  H133 5647   3.748   5.811   2.701
   14CHTO   C75 5648   3.841   5.746   2.455
   14CHTO  H147 5649   3.842   5.682   2.365
   14CHTO   N13 5650   3.859   5.882   2.400
   14CHTO  H139 5651   3.954   5.889   2.349
   14CHTO  H140 5652   3.858   5.955   2.480
   14CHTO   C76 5653   3.965   5.700   2.546
   14CHTO  H148 5654   3.987   5.778   2.619
   14CHTO   O49 5655   3.943   5.572   2.616
   14CHTO   C77 5656   3.817   5.558   2.685
   14CHTO  H149 5657   3.809   5.631   2.765
   14CHTO   C88 5658   3.809   5.420   2.751
   14CHTO   O58 5659   3.916   5.399   2.851
   14CHTO  H136 5660   3.999   5.397   2.808
   14CHTO   O51 5661   4.086   5.664   2.451
   14CHTO   C78 5662   4.222   5.726   2.492
   14CHTO  H150 5663   4.212   5.794   2.581
   14CHTO   C80 5664   4.277   5.807   2.373
   14CHTO  H152 5665   4.277   5.741   2.284
   14CHTO   O55 5666   4.187   5.917   2.350
   14CHTO  H134 5667   4.211   5.962   2.271
   14CHTO   C84 5668   4.424   5.860   2.399
   14CHTO  H156 5669   4.418   5.937   2.476
   14CHTO   N15 5670   4.485   5.924   2.278
   14CHTO  H143 5671   4.491   5.853   2.198
   14CHTO  H144 5672   4.583   5.961   2.300
   14CHTO   C87 5673   4.514   5.746   2.454
   14CHTO  H159 5674   4.534   5.674   2.374
   14CHTO   O53 5675   4.444   5.675   2.570
   14CHTO   C82 5676   4.321   5.614   2.529
   14CHTO  H154 5677   4.338   5.549   2.443
   14CHTO   C89 5678   4.267   5.525   2.643
   14CHTO   O59 5679   4.356   5.417   2.672
   14CHTO  H137 5680   4.320   5.363   2.739
   14CHTO   O45 5681   4.656   5.810   2.512
   14CHTO   C67 5682   4.772   5.726   2.511
   14CHTO  H124 5683   4.854   5.786   2.551
   14CHTO   C65 5684   4.756   5.598   2.600
   14CHTO  H122 5685   4.662   5.608   2.653
   14CHTO   O44 5686   4.862   5.597   2.697
   14CHTO  H102 5687   4.945   5.582   2.656
   14CHTO   C63 5688   4.744   5.468   2.513
   14CHTO  H120 5689   4.660   5.481   2.444
   14CHTO   N11 5690   4.703   5.344   2.587
   14CHTO  H108 5691   4.685   5.265   2.517
   14CHTO  H109 5692   4.781   5.316   2.655
   14CHTO   C61 5693   4.874   5.455   2.425
   14CHTO  H118 5694   4.852   5.380   2.347
   14CHTO   O40 5695   4.910   5.579   2.356
   14CHTO   C68 5696   4.815   5.690   2.362
   14CHTO  H125 5697   4.727   5.660   2.302
   14CHTO   C72 5698   4.878   5.813   2.291
   14CHTO   O48 5699   5.000   5.856   2.351
   14CHTO  H105 5700   5.033   5.931   2.305
   14CHTO   O38 5701   4.992   5.419   2.501
   14CHTO   C55 5702   5.081   5.322   2.441
   14CHTO  H112 5703   5.055   5.306   2.335
   14CHTO   C56 5704   5.076   5.187   2.524
   14CHTO  H113 5705   5.095   5.214   2.630
   14CHTO   O42 5706   4.944   5.131   2.519
   14CHTO  H100 5707   4.882   5.189   2.560
   14CHTO   C57 5708   5.182   5.082   2.473
   14CHTO  H114 5709   5.145   5.046   2.377
   14CHTO   N10 5710   5.196   4.963   2.561
   14CHTO  H106 5711   5.126   4.886   2.532
   14CHTO  H107 5712   5.178   4.990   2.665
   14CHTO   C58 5713   5.320   5.149   2.451
   14CHTO  H115 5714   5.369   5.169   2.549
   14CHTO   O37 5715   5.309   5.272   2.377
   14CHTO   C59 5716   5.228   5.373   2.439
   14CHTO  H116 5717   5.265   5.394   2.540
   14CHTO   C70 5718   5.245   5.500   2.353
   14CHTO   O46 5719   5.194   5.617   2.417
   14CHTO  H103 5720   5.206   5.691   2.360
   14CHTO   O39 5721   5.415   5.045   2.360
   14CHTO   C60 5722   5.547   5.093   2.326
   14CHTO  H117 5723   5.559   5.196   2.359
   14CHTO   C62 5724   5.658   5.006   2.393
   14CHTO  H119 5725   5.642   5.015   2.502
   14CHTO   O43 5726   5.641   4.868   2.355
   14CHTO  H101 5727   5.654   4.857   2.263
   14CHTO   C66 5728   5.802   5.066   2.355
   14CHTO  H123 5729   5.808   5.167   2.394
   14CHTO   N12 5730   5.915   4.994   2.420
   14CHTO  H110 5731   5.907   5.003   2.527
   14CHTO  H111 5732   5.915   4.891   2.390
   14CHTO   C69 5733   5.820   5.075   2.201
   14CHTO  H126 5734   5.831   4.973   2.157
   14CHTO   O41 5735   5.698   5.147   2.135
   14CHTO   C64 5736   5.566   5.092   2.171
   14CHTO  H121 5737   5.558   4.987   2.135
   14CHTO   C71 5738   5.457   5.173   2.097
   14CHTO   O47 5739   5.465   5.314   2.126
   14CHTO  H104 5740   5.542   5.350   2.086
   14CHTO   O34 5741   5.948   5.159   2.164
   14CHTO   C49 5742   6.003   5.291   2.095
   14CHTO   H91 5743   6.063   5.258   2.010
   14CHTO   C47 5744   6.092   5.364   2.197
   14CHTO   H89 5745   6.137   5.449   2.139
   14CHTO   O33 5746   6.198   5.279   2.243
   14CHTO   H70 5747   6.256   5.258   2.172
   14CHTO   C45 5748   6.004   5.419   2.322
   14CHTO   H87 5749   6.001   5.341   2.399
   14CHTO    N8 5750   6.072   5.538   2.378
   14CHTO   H75 5751   6.071   5.619   2.307
   14CHTO   H76 5752   6.022   5.570   2.469
   14CHTO   C43 5753   5.849   5.440   2.278
   14CHTO   H85 5754   5.802   5.342   2.289
   14CHTO   O29 5755   5.843   5.486   2.142
   14CHTO   C50 5756   5.892   5.391   2.046
   14CHTO   H92 5757   5.807   5.333   2.008
   14CHTO   C54 5758   5.937   5.474   1.922
   14CHTO   O36 5759   5.973   5.391   1.811
   14CHTO   H72 5760   5.897   5.347   1.778
   14CHTO   O27 5761   5.774   5.523   2.367
   14CHTO   C37 5762   5.719   5.574   2.490
   14CHTO   H79 5763   5.800   5.600   2.560
   14CHTO   C38 5764   5.639   5.705   2.462
   14CHTO   H80 5765   5.565   5.684   2.384
   14CHTO   O31 5766   5.733   5.803   2.413
   14CHTO   H68 5767   5.762   5.780   2.327
   14CHTO   C39 5768   5.565   5.756   2.592
   14CHTO   H81 5769   5.642   5.781   2.665
   14CHTO    N7 5770   5.484   5.880   2.568
   14CHTO   H73 5771   5.406   5.860   2.496
   14CHTO   H74 5772   5.440   5.913   2.661
   14CHTO   C40 5773   5.478   5.639   2.653
   14CHTO   H82 5774   5.395   5.615   2.587
   14CHTO   O26 5775   5.563   5.524   2.676
   14CHTO   C41 5776   5.626   5.469   2.557
   14CHTO   H83 5777   5.548   5.437   2.485
   14CHTO   C52 5778   5.704   5.342   2.601
   14CHTO   O35 5779   5.814   5.371   2.700
   14CHTO   H71 5780   5.880   5.423   2.659
   14CHTO   O28 5781   5.426   5.672   2.783
   14CHTO   C42 5782   5.320   5.598   2.852
   14CHTO   H84 5783   5.326   5.635   0.072
   14CHTO   C44 5784   5.334   5.442   2.863
   14CHTO   H86 5785   5.328   5.399   2.762
   14CHTO   O32 5786   5.464   5.414   0.036
   14CHTO   H69 5787   5.481   5.322   0.034
   14CHTO   C48 5788   5.220   5.377   0.070
   14CHTO   H90 5789   5.242   5.402   0.174
   14CHTO    N9 5790   5.220   5.227   0.065
   14CHTO   H77 5791   5.203   5.193   2.845
   14CHTO   H78 5792   5.143   5.187   0.130
   14CHTO   C51 5793   5.077   5.437   0.036
   14CHTO   H93 5794   5.039   5.389   2.828
   14CHTO   O30 5795   5.084   5.580   0.023
   14CHTO   C46 5796   5.175   5.629   2.802
   14CHTO   H88 5797   5.156   5.577   2.708
   14CHTO   C53 5798   5.145   5.779   2.788
   14CHTO   O72 5799   5.176   5.826   2.657
   14CHTO  H199 5800   5.157   5.918   2.651
   14CHTO   O22 5801   4.988   5.415   0.147
   14CHTO   C31 5802   4.844   5.445   0.139
   14CHTO   H59 5803   4.829   5.499   0.043
   14CHTO   C29 5804   4.755   5.319   0.135
   14CHTO   H57 5805   4.775   5.262   0.227
   14CHTO   O21 5806   4.798   5.236   0.026
   14CHTO   H37 5807   4.778   5.276   2.825
   14CHTO   C27 5808   4.601   5.355   0.128
   14CHTO   H55 5809   4.580   5.402   0.031
   14CHTO    N5 5810   4.515   5.235   0.141
   14CHTO   H43 5811   4.528   5.189   0.238
   14CHTO   H44 5812   4.411   5.262   0.127
   14CHTO   C25 5813   4.566   5.462   0.239
   14CHTO   H53 5814   4.576   5.416   0.338
   14CHTO   O17 5815   4.657   5.575   0.232
   14CHTO   C32 5816   4.795   5.542   0.251
   14CHTO   H60 5817   4.807   5.493   0.348
   14CHTO   C36 5818   4.875   5.675   0.256
   14CHTO   O25 5819   4.860   5.753   0.137
   14CHTO   H40 5820   4.771   5.782   0.128
   14CHTO   O15 5821   4.423   5.516   0.222
   14CHTO   C19 5822   4.310   5.580   0.156
   14CHTO   H47 5823   4.298   5.523   0.063
   14CHTO   C20 5824   4.178   5.569   0.239
   14CHTO   H48 5825   4.189   5.612   0.340
   14CHTO   O19 5826   4.150   5.429   0.254
   14CHTO   H35 5827   4.132   5.389   0.171
   14CHTO   C21 5828   4.057   5.644   0.168
   14CHTO   H49 5829   4.036   5.594   0.074
   14CHTO    N4 5830   3.932   5.641   0.249
   14CHTO   H41 5831   3.853   5.691   0.195
   14CHTO   H42 5832   3.948   5.691   0.343
   14CHTO   C22 5833   4.105   5.788   0.134
   14CHTO   H50 5834   4.129   5.836   0.228
   14CHTO   O14 5835   4.221   5.782   0.049
   14CHTO   C23 5836   4.337   5.728   0.115
   14CHTO   H51 5837   4.359   5.792   0.202
   14CHTO   C34 5838   4.456   5.737   0.018
   14CHTO   O23 5839   4.482   5.871   2.860
   14CHTO   H38 5840   4.515   5.921   0.051
   14CHTO   O16 5841   4.005   5.863   0.062
   14CHTO   C24 5842   4.021   6.032   0.039
   14CHTO   H52 5843   3.937   6.087   0.082
   14CHTO   C26 5844   4.019   6.053   2.768
   14CHTO   H54 5845   4.097   5.987   2.722
   14CHTO   O20 5846   3.890   6.011   2.720
   14CHTO   H36 5847   3.881   5.918   2.727
   14CHTO   C30 5848   4.050   6.201   2.728
   14CHTO   H58 5849   3.970   6.267   2.764
   14CHTO    N6 5850   4.056   6.219   2.580
   14CHTO   H45 5851   4.132   6.155   2.537
   14CHTO   H46 5852   3.960   6.194   2.536
   14CHTO   C33 5853   4.181   6.247   2.798
   14CHTO   H61 5854   4.265   6.183   2.766
   14CHTO   O18 5855   4.162   6.229   0.058
   14CHTO   C28 5856   4.151   6.093   0.101
   14CHTO   H56 5857   4.237   6.035   0.069
   14CHTO   C35 5858   4.146   6.098   0.256
   14CHTO   O24 5859   4.270   6.142   0.312
   14CHTO   H39 5860   4.265   6.137   0.406
   14CHTO    O9 5861   4.221   6.382   2.768
   14CHTO   C13 5862   4.376   6.413   2.812
   14CHTO   H26 5863   4.438   6.325   2.785
   14CHTO   C11 5864   4.381   6.444   0.086
   14CHTO   H24 5865   4.345   6.355   0.140
   14CHTO    O8 5866   4.293   6.553   0.118
   14CHTO    H3 5867   4.204   6.530   0.100
   14CHTO    C9 5868   4.530   6.466   0.125
   14CHTO   H22 5869   4.580   6.371   0.101
   14CHTO    N2 5870   4.550   6.481   0.272
   14CHTO   H10 5871   4.456   6.494   0.323
   14CHTO   H11 5872   4.602   6.395   0.312
   14CHTO    C7 5873   4.595   6.578   0.032
   14CHTO   H20 5874   4.676   6.523   2.861
   14CHTO    O4 5875   4.503   6.632   2.818
   14CHTO   C14 5876   4.439   6.536   2.731
   14CHTO   H27 5877   4.515   6.497   2.660
   14CHTO   C18 5878   4.338   6.618   2.648
   14CHTO   O13 5879   4.280   6.543   2.541
   14CHTO    H7 5880   4.223   6.477   2.575
   14CHTO    O2 5881   4.662   6.700   0.111
   14CHTO    C1 5882   4.760   6.771   0.034
   14CHTO   H14 5883   4.743   6.754   2.807
   14CHTO    C2 5884   4.908   6.729   0.068
   14CHTO   H15 5885   4.917   6.737   0.178
   14CHTO    O6 5886   4.929   6.592   0.030
   14CHTO    H1 5887   4.920   6.582   2.819
   14CHTO    C3 5888   5.014   6.827   2.879
   14CHTO   H16 5889   5.012   6.809   2.771
   14CHTO    N1 5890   5.154   6.802   0.044
   14CHTO    H8 5891   5.182   6.700   0.021
   14CHTO    H9 5892   5.161   6.818   0.150
   14CHTO    C4 5893   4.971   6.978   0.016
   14CHTO   H17 5894   4.987   7.007   0.120
   14CHTO    O1 5895   4.834   6.998   2.861
   14CHTO    C5 5896   4.740   6.923   0.058
   14CHTO   H18 5897   4.758   6.943   0.163
   14CHTO   C16 5898   4.597   6.971   0.023
   14CHTO   O11 5899   4.563   6.946   2.768
   14CHTO    H5 5900   4.474   6.971   2.752
   14CHTO    O3 5901   5.045   7.065   2.809
   14CHTO    C6 5902   5.058   7.204   2.856
   14CHTO   H19 5903   5.000   7.225   0.064
   14CHTO    C8 5904   5.208   7.234   0.006
   14CHTO   H21 5905   5.268   7.209   2.800
   14CHTO    O7 5906   5.245   7.150   0.117
   14CHTO    H2 5907   5.337   7.157   0.133
   14CHTO   C12 5908   5.228   7.388   0.039
   14CHTO   H25 5909   5.172   7.407   0.134
   14CHTO    N3 5910   5.371   7.422   0.065
   14CHTO   H12 5911   5.408   7.365   0.150
   14CHTO   H13 5912   5.431   7.401   2.859
   14CHTO   C15 5913   5.163   7.475   2.807
   14CHTO   H28 5914   5.219   7.467   2.713
   14CHTO   O10 5915   5.151   7.625   2.847
   14CHTO    H4 5916   5.124   7.676   2.773
   14CHTO    O5 5917   5.026   7.438   2.786
   14CHTO   C10 5918   5.007   7.302   2.746
   14CHTO   H23 5919   5.062   7.284   2.653
   14CHTO   C17 5920   4.858   7.282   2.716
   14CHTO   O12 5921   4.816   7.360   2.604
   14CHTO    H6 5922   4.724   7.348   2.590
   15CHTO  H203 5923   5.708   4.651   2.467
   15CHTO   O82 5924   5.730   4.573   2.419
   15CHTO  C123 5925   5.613   4.522   2.353
   15CHTO  H227 5926   5.575   4.599   2.284
   15CHTO   O77 5927   5.666   4.409   2.277
   15CHTO  C118 5928   5.569   4.346   2.191
   15CHTO  H222 5929   5.526   4.422   2.123
   15CHTO  C125 5930   5.646   4.239   2.104
   15CHTO   O84 5931   5.705   4.137   2.184
   15CHTO  H205 5932   5.750   4.075   2.129
   15CHTO  C114 5933   5.457   4.284   2.276
   15CHTO  H218 5934   5.499   4.206   2.338
   15CHTO  C116 5935   5.392   4.390   2.370
   15CHTO  H220 5936   5.332   4.461   2.308
   15CHTO   O79 5937   5.299   4.323   2.456
   15CHTO  H201 5938   5.343   4.263   2.513
   15CHTO  C120 5939   5.501   4.471   2.452
   15CHTO  H224 5940   5.545   4.400   2.525
   15CHTO   N21 5941   5.441   4.582   2.530
   15CHTO  H211 5942   5.355   4.623   2.480
   15CHTO  H212 5943   5.514   4.660   2.549
   15CHTO   O75 5944   5.363   4.229   2.182
   15CHTO  C112 5945   5.330   4.069   2.199
   15CHTO  H216 5946   5.342   4.040   2.305
   15CHTO   O73 5947   5.422   3.998   2.115
   15CHTO  C113 5948   5.407   3.855   2.114
   15CHTO  H217 5949   5.414   3.818   2.218
   15CHTO  C124 5950   5.527   3.797   2.038
   15CHTO   O83 5951   5.535   3.840   1.901
   15CHTO  H204 5952   5.463   3.806   1.853
   15CHTO  C109 5953   5.269   3.817   2.054
   15CHTO  H213 5954   5.268   3.852   1.949
   15CHTO  C110 5955   5.156   3.888   2.136
   15CHTO  H214 5956   5.150   3.840   2.234
   15CHTO   O78 5957   5.030   3.864   2.070
   15CHTO  H200 5958   5.006   3.773   2.076
   15CHTO  C111 5959   5.182   4.040   2.152
   15CHTO  H215 5960   5.169   4.089   2.054
   15CHTO   N19 5961   5.087   4.106   2.246
   15CHTO  H207 5962   5.094   4.062   2.344
   15CHTO  H208 5963   4.986   4.097   2.209
   15CHTO   O74 5964   5.246   3.672   2.056
   15CHTO  C115 5965   5.284   3.592   1.920
   15CHTO  H219 5966   5.311   3.660   1.839
   15CHTO   O76 5967   5.411   3.502   1.940
   15CHTO  C122 5968   5.384   3.393   2.029
   15CHTO  H226 5969   5.348   3.434   2.123
   15CHTO  C126 5970   5.520   3.322   2.062
   15CHTO   O85 5971   5.507   3.226   2.167
   15CHTO  H206 5972   5.456   3.153   2.139
   15CHTO  C121 5973   5.276   3.293   1.967
   15CHTO  H225 5974   5.328   3.201   1.932
   15CHTO   O81 5975   5.182   3.257   2.068
   15CHTO  H202 5976   5.224   3.210   2.137
   15CHTO  C119 5977   5.202   3.357   1.845
   15CHTO  H223 5978   5.276   3.363   1.765
   15CHTO  C117 5979   5.157   3.505   1.877
   15CHTO  H221 5980   5.087   3.515   1.960
   15CHTO   N20 5981   5.088   3.567   1.760
   15CHTO  H209 5982   5.002   3.507   1.732
   15CHTO  H210 5983   5.056   3.667   1.784
   15CHTO   O80 5984   5.091   3.259   1.778
   15CHTO  C103 5985   5.135   3.118   1.721
   15CHTO  H190 5986   5.243   3.104   1.733
   15CHTO  C101 5987   5.060   2.994   1.781
   15CHTO  H188 5988   4.952   3.011   1.773
   15CHTO   O68 5989   5.096   2.983   1.930
   15CHTO  H168 5990   5.064   3.058   1.976
   15CHTO   C99 5991   5.097   2.860   1.700
   15CHTO  H186 5992   5.204   2.839   1.713
   15CHTO   N17 5993   5.022   2.738   1.747
   15CHTO  H174 5994   4.917   2.749   1.728
   15CHTO  H175 5995   5.062   2.650   1.700
   15CHTO   C97 5996   5.077   2.883   1.547
   15CHTO  H184 5997   4.968   2.893   1.530
   15CHTO   O64 5998   5.147   3.002   1.503
   15CHTO  C104 5999   5.106   3.124   1.566
   15CHTO  H191 6000   5.000   3.142   1.551
   15CHTO  C108 6001   5.179   3.241   1.498
   15CHTO   O71 6002   5.322   3.227   1.503
   15CHTO  H171 6003   5.352   3.236   1.592
   15CHTO   O62 6004   5.122   2.772   1.466
   15CHTO   C91 6005   5.260   2.755   1.426
   15CHTO  H178 6006   5.303   2.853   1.409
   15CHTO   C92 6007   5.260   2.685   1.286
   15CHTO  H179 6008   5.190   2.737   1.218
   15CHTO   O66 6009   5.390   2.703   1.228
   15CHTO  H166 6010   5.391   2.673   1.139
   15CHTO   C93 6011   5.229   2.530   1.294
   15CHTO  H180 6012   5.261   2.488   1.197
   15CHTO   N16 6013   5.084   2.498   1.302
   15CHTO  H172 6014   5.070   2.391   1.303
   15CHTO  H173 6015   5.042   2.543   1.390
   15CHTO   C94 6016   5.313   2.462   1.409
   15CHTO  H181 6017   5.249   2.424   1.490
   15CHTO   O61 6018   5.407   2.551   1.471
   15CHTO   C95 6019   5.352   2.672   1.527
   15CHTO  H182 6020   5.295   2.646   1.616
   15CHTO  C106 6021   5.475   2.756   1.576
   15CHTO   O69 6022   5.436   2.881   1.635
   15CHTO  H169 6023   5.513   2.929   1.660
   15CHTO   O63 6024   5.393   2.343   1.344
   15CHTO   C96 6025   5.462   2.245   1.444
   15CHTO  H183 6026   5.440   2.278   1.546
   15CHTO   C98 6027   5.616   2.241   1.427
   15CHTO  H185 6028   5.640   2.236   1.319
   15CHTO   O67 6029   5.667   2.369   1.471
   15CHTO  H167 6030   5.759   2.374   1.455
   15CHTO  C102 6031   5.687   2.120   1.505
   15CHTO  H189 6032   5.679   2.144   1.612
   15CHTO   N18 6033   5.832   2.105   1.478
   15CHTO  H176 6034   5.873   2.023   1.536
   15CHTO  H177 6035   5.849   2.087   1.373
   15CHTO  C105 6036   5.607   1.989   1.478
   15CHTO  H192 6037   5.616   1.963   1.372
   15CHTO   O65 6038   5.468   2.006   1.509
   15CHTO  C100 6039   5.401   2.101   1.425
   15CHTO  H187 6040   5.413   2.070   1.320
   15CHTO  C107 6041   5.250   2.094   1.461
   15CHTO   O70 6042   5.170   2.159   1.362
   15CHTO  H170 6043   5.080   2.154   1.387
   15CHTO   O57 6044   5.676   1.867   1.571
   15CHTO   C85 6045   5.604   1.795   1.673
   15CHTO  H157 6046   5.522   1.861   1.709
   15CHTO   C83 6047   5.699   1.775   1.796
   15CHTO  H155 6048   5.723   1.874   1.836
   15CHTO   O56 6049   5.825   1.718   1.752
   15CHTO  H135 6050   5.869   1.776   1.694
   15CHTO   C81 6051   5.626   1.692   1.905
   15CHTO  H153 6052   5.534   1.744   1.931
   15CHTO   N14 6053   5.702   1.684   2.033
   15CHTO  H141 6054   5.725   1.783   2.068
   15CHTO  H142 6055   5.643   1.634   2.107
   15CHTO   C79 6056   5.588   1.551   1.847
   15CHTO  H151 6057   5.532   1.498   1.925
   15CHTO   O52 6058   5.498   1.567   1.733
   15CHTO   C86 6059   5.550   1.653   1.626
   15CHTO  H158 6060   5.632   1.594   1.582
   15CHTO   C90 6061   5.444   1.667   1.515
   15CHTO   O60 6062   5.322   1.724   1.564
   15CHTO  H138 6063   5.335   1.814   1.586
   15CHTO   O50 6064   5.701   1.470   1.808
   15CHTO   C73 6065   5.725   1.329   1.797
   15CHTO  H145 6066   5.631   1.276   1.771
   15CHTO   C74 6067   5.777   1.273   1.933
   15CHTO  H146 6068   5.702   1.296   2.010
   15CHTO   O54 6069   5.783   1.129   1.924
   15CHTO  H133 6070   5.697   1.093   1.916
   15CHTO   C75 6071   5.917   1.339   1.965
   15CHTO  H147 6072   5.902   1.448   1.974
   15CHTO   N13 6073   5.975   1.296   2.094
   15CHTO  H139 6074   5.990   1.189   2.095
   15CHTO  H140 6075   5.908   1.322   2.175
   15CHTO   C76 6076   6.016   1.315   1.842
   15CHTO  H148 6077   6.035   1.208   1.834
   15CHTO   O49 6078   5.956   1.363   1.717
   15CHTO   C77 6079   5.830   1.302   1.685
   15CHTO  H149 6080   5.844   1.194   1.674
   15CHTO   C88 6081   5.785   1.354   1.548
   15CHTO   O58 6082   5.660   1.285   1.502
   15CHTO  H136 6083   5.679   1.196   1.480
   15CHTO   O51 6084   6.151   1.399   1.862
   15CHTO   C78 6085   6.258   1.392   1.744
   15CHTO  H150 6086   6.209   1.408   1.645
   15CHTO   C80 6087   6.330   1.255   1.741
   15CHTO  H152 6088   6.356   1.227   1.845
   15CHTO   O55 6089   6.238   1.156   1.692
   15CHTO  H134 6090   6.169   1.142   1.753
   15CHTO   C84 6091   6.463   1.256   1.655
   15CHTO  H156 6092   6.435   1.263   1.550
   15CHTO   N15 6093   6.543   1.130   1.670
   15CHTO  H143 6094   6.570   1.115   1.773
   15CHTO  H144 6095   6.486   1.046   1.636
   15CHTO   C87 6096   6.547   1.381   1.691
   15CHTO  H159 6097   6.580   1.375   1.795
   15CHTO   O53 6098   6.461   1.503   1.670
   15CHTO   C82 6099   6.355   1.509   1.766
   15CHTO  H154 6100   6.397   1.506   1.867
   15CHTO   C89 6101   6.282   1.644   1.752
   15CHTO   O59 6102   6.370   1.755   1.779
   15CHTO  H137 6103   6.434   1.761   1.711
   15CHTO   O45 6104   6.675   1.399   1.597
   15CHTO   C67 6105   6.761   1.506   1.639
   15CHTO  H124 6106   6.702   1.581   1.692
   15CHTO   C65 6107   6.874   1.454   1.736
   15CHTO  H122 6108   6.887   1.348   1.713
   15CHTO   O44 6109   6.823   1.466   1.870
   15CHTO  H102 6110   6.821   1.556   1.896
   15CHTO   C63 6111   7.015   1.519   1.705
   15CHTO  H120 6112   7.054   1.473   1.614
   15CHTO   N11 6113   7.124   1.487   1.802
   15CHTO  H108 6114   7.104   1.535   1.896
   15CHTO  H109 6115   7.218   1.522   1.764
   15CHTO   C61 6116   6.996   1.672   1.671
   15CHTO  H118 6117   7.095   1.709   1.643
   15CHTO   O40 6118   6.910   1.690   1.555
   15CHTO   C68 6119   6.821   1.581   1.514
   15CHTO  H125 6120   6.880   1.509   1.453
   15CHTO   C72 6121   6.710   1.637   1.422
   15CHTO   O48 6122   6.630   1.737   1.485
   15CHTO  H105 6123   6.568   1.771   1.423
   15CHTO   O38 6124   6.948   1.747   1.786
   15CHTO   C55 6125   6.882   1.873   1.766
   15CHTO  H112 6126   6.804   1.862   1.689
   15CHTO   C56 6127   6.983   1.991   1.731
   15CHTO  H113 6128   7.061   1.991   1.809
   15CHTO   O42 6129   7.050   1.963   1.607
   15CHTO  H100 6130   7.104   1.887   1.615
   15CHTO   C57 6131   6.909   2.130   1.726
   15CHTO  H114 6132   6.842   2.127   1.640
   15CHTO   N10 6133   6.999   2.247   1.707
   15CHTO  H106 6134   7.095   2.228   1.753
   15CHTO  H107 6135   7.013   2.266   1.602
   15CHTO   C58 6136   6.823   2.149   1.854
   15CHTO  H115 6137   6.891   2.162   1.942
   15CHTO   O37 6138   6.738   2.036   1.878
   15CHTO   C59 6139   6.804   1.910   1.896
   15CHTO  H116 6140   6.871   1.915   1.982
   15CHTO   C70 6141   6.696   1.804   1.924
   15CHTO   O46 6142   6.618   1.833   2.041
   15CHTO  H103 6143   6.672   1.827   2.118
   15CHTO   O39 6144   6.720   2.285   1.844
   15CHTO   C60 6145   6.630   2.300   1.732
   15CHTO  H117 6146   6.689   2.321   1.643
   15CHTO   C62 6147   6.543   2.174   1.702
   15CHTO  H119 6148   6.612   2.095   1.666
   15CHTO   O43 6149   6.479   2.129   1.822
   15CHTO  H101 6150   6.543   2.097   1.883
   15CHTO   C66 6151   6.437   2.207   1.585
   15CHTO  H123 6152   6.492   2.242   1.497
   15CHTO   N12 6153   6.363   2.086   1.541
   15CHTO  H110 6154   6.294   2.112   1.462
   15CHTO  H111 6155   6.433   2.010   1.507
   15CHTO   C69 6156   6.345   2.321   1.634
   15CHTO  H126 6157   6.296   2.292   1.730
   15CHTO   O41 6158   6.433   2.444   1.656
   15CHTO   C64 6159   6.541   2.426   1.759
   15CHTO  H121 6160   6.495   2.417   1.859
   15CHTO   C71 6161   6.628   2.554   1.759
   15CHTO   O47 6162   6.552   2.669   1.799
   15CHTO  H104 6163   6.491   2.692   1.731
   15CHTO   O34 6164   6.232   2.359   1.533
   15CHTO   C49 6165   6.197   2.413   1.396
   15CHTO   H91 6166   6.228   2.337   1.324
   15CHTO   C47 6167   6.275   2.544   1.372
   15CHTO   H89 6168   6.254   2.574   1.267
   15CHTO   O33 6169   6.415   2.518   1.386
   15CHTO   H70 6170   6.445   2.462   1.316
   15CHTO   C45 6171   6.221   2.656   1.474
   15CHTO   H87 6172   6.230   2.618   1.577
   15CHTO    N8 6173   6.298   2.783   1.466
   15CHTO   H75 6174   6.289   2.826   1.367
   15CHTO   H76 6175   6.402   2.764   1.487
   15CHTO   C43 6176   6.063   2.677   1.450
   15CHTO   H85 6177   6.029   2.747   1.527
   15CHTO   O29 6178   5.993   2.551   1.457
   15CHTO   C50 6179   6.045   2.438   1.384
   15CHTO   H92 6180   5.995   2.349   1.425
   15CHTO   C54 6181   5.999   2.438   1.236
   15CHTO   O36 6182   5.856   2.431   1.225
   15CHTO   H72 6183   5.832   2.431   1.135
   15CHTO   O27 6184   6.037   2.742   1.324
   15CHTO   C37 6185   5.958   2.798   1.219
   15CHTO   H79 6186   5.911   2.718   1.158
   15CHTO   C38 6187   5.843   2.886   1.276
   15CHTO   H80 6188   5.886   2.957   1.348
   15CHTO   O31 6189   5.753   2.798   1.346
   15CHTO   H68 6190   5.687   2.847   1.390
   15CHTO   C39 6191   5.768   2.965   1.161
   15CHTO   H81 6192   5.715   2.892   1.100
   15CHTO    N7 6193   5.665   3.061   1.214
   15CHTO   H73 6194   5.614   3.110   1.133
   15CHTO   H74 6195   5.712   3.134   1.278
   15CHTO   C40 6196   5.871   3.038   1.066
   15CHTO   H82 6197   5.917   3.122   1.119
   15CHTO   O26 6198   5.970   2.944   1.020
   15CHTO   C41 6199   6.049   2.884   1.127
   15CHTO   H83 6200   6.095   2.963   1.187
   15CHTO   C52 6201   6.163   2.801   1.063
   15CHTO   O35 6202   6.115   2.690   0.975
   15CHTO   H71 6203   6.074   2.726   0.899
   15CHTO   O28 6204   5.812   3.084   0.943
   15CHTO   C42 6205   5.862   3.199   0.867
   15CHTO   H84 6206   5.849   3.167   0.763
   15CHTO   C44 6207   6.014   3.237   0.881
   15CHTO   H86 6208   6.036   3.253   0.987
   15CHTO   O32 6209   6.091   3.123   0.836
   15CHTO   H69 6210   6.081   3.052   0.896
   15CHTO   C48 6211   6.055   3.368   0.802
   15CHTO   H90 6212   6.052   3.345   0.695
   15CHTO    N9 6213   6.197   3.410   0.831
   15CHTO   H77 6214   6.265   3.331   0.803
   15CHTO   H78 6215   6.220   3.500   0.775
   15CHTO   C51 6216   5.952   3.483   0.831
   15CHTO   H93 6217   5.959   3.509   0.937
   15CHTO   O30 6218   5.822   3.434   0.796
   15CHTO   C46 6219   5.773   3.326   0.886
   15CHTO   H88 6220   5.778   3.359   0.989
   15CHTO   C53 6221   5.626   3.303   0.844
   15CHTO   O72 6222   5.557   3.222   0.939
   15CHTO  H199 6223   5.468   3.210   0.912
   15CHTO   O22 6224   5.973   3.599   0.748
   15CHTO   C31 6225   5.911   3.731   0.778
   15CHTO   H59 6226   5.941   3.797   0.693
   15CHTO   C29 6227   5.756   3.730   0.782
   15CHTO   H57 6228   5.725   3.656   0.857
   15CHTO   O21 6229   5.709   3.683   0.654
   15CHTO   H37 6230   5.732   3.593   0.641
   15CHTO   C27 6231   5.696   3.870   0.821
   15CHTO   H55 6232   5.720   3.943   0.742
   15CHTO    N5 6233   5.547   3.866   0.836
   15CHTO   H43 6234   5.517   3.896   0.935
   15CHTO   H44 6235   5.500   3.929   0.762
   15CHTO   C25 6236   5.766   3.920   0.952
   15CHTO   H53 6237   5.747   3.846   1.032
   15CHTO   O17 6238   5.910   3.926   0.930
   15CHTO   C32 6239   5.970   3.798   0.906
   15CHTO   H60 6240   5.952   3.733   0.992
   15CHTO   C36 6241   6.123   3.817   0.892
   15CHTO   O25 6242   6.182   3.870   1.012
   15CHTO   H40 6243   6.158   3.960   1.022
   15CHTO   O15 6244   5.713   4.063   0.999
   15CHTO   C19 6245   5.720   4.138   1.124
   15CHTO   H47 6246   5.816   4.107   1.168
   15CHTO   C20 6247   5.720   4.293   1.105
   15CHTO   H48 6248   5.629   4.327   1.054
   15CHTO   O19 6249   5.832   4.326   1.020
   15CHTO   H35 6250   5.913   4.304   1.062
   15CHTO   C21 6251   5.732   4.371   1.242
   15CHTO   H49 6252   5.833   4.359   1.280
   15CHTO    N4 6253   5.710   4.517   1.227
   15CHTO   H41 6254   5.720   4.567   1.322
   15CHTO   H42 6255   5.783   4.558   1.159
   15CHTO   C22 6256   5.637   4.310   1.350
   15CHTO   H50 6257   5.534   4.341   1.328
   15CHTO   O14 6258   5.641   4.167   1.352
   15CHTO   C23 6259   5.611   4.101   1.228
   15CHTO   H51 6260   5.511   4.134   1.196
   15CHTO   C34 6261   5.601   3.950   1.257
   15CHTO   O23 6262   5.723   3.895   1.309
   15CHTO   H38 6263   5.712   3.804   1.326
   15CHTO   O16 6264   5.672   4.352   1.484
   15CHTO   C24 6265   5.811   4.285   1.554
   15CHTO   H52 6266   5.875   4.237   1.480
   15CHTO   C26 6267   5.772   4.182   1.662
   15CHTO   H54 6268   5.708   4.232   1.738
   15CHTO   O20 6269   5.694   4.076   1.602
   15CHTO   H36 6270   5.611   4.109   1.574
   15CHTO   C30 6271   5.899   4.126   1.734
   15CHTO   H58 6272   5.961   4.071   1.662
   15CHTO    N6 6273   5.864   4.029   1.842
   15CHTO   H45 6274   5.804   4.077   1.918
   15CHTO   H46 6275   5.954   3.990   1.887
   15CHTO   C33 6276   5.985   4.244   1.787
   15CHTO   H61 6277   5.930   4.297   1.867
   15CHTO   O18 6278   6.011   4.337   1.681
   15CHTO   C28 6279   5.895   4.397   1.621
   15CHTO   H56 6280   5.834   4.447   1.696
   15CHTO   C35 6281   5.943   4.503   1.519
   15CHTO   O24 6282   6.017   4.609   1.581
   15CHTO   H39 6283   6.100   4.578   1.610
   15CHTO    O9 6284   6.108   4.199   1.848
   15CHTO   C13 6285   6.151   4.280   1.983
   15CHTO   H26 6286   6.068   4.268   2.056
   15CHTO   C11 6287   6.179   4.433   1.950
   15CHTO   H24 6288   6.084   4.479   1.919
   15CHTO    O8 6289   6.271   4.446   1.840
   15CHTO    H3 6290   6.234   4.410   1.762
   15CHTO    C9 6291   6.226   4.500   2.082
   15CHTO   H22 6292   6.148   4.477   2.156
   15CHTO    N2 6293   6.230   4.648   2.076
   15CHTO   H10 6294   6.251   4.688   2.174
   15CHTO   H11 6295   6.304   4.681   2.004
   15CHTO    C7 6296   6.361   4.434   2.128
   15CHTO   H20 6297   6.378   4.478   2.229
   15CHTO    O4 6298   6.352   4.291   2.142
   15CHTO   C14 6299   6.277   4.210   2.049
   15CHTO   H27 6300   6.239   4.127   2.111
   15CHTO   C18 6301   6.372   4.147   1.944
   15CHTO   O13 6302   6.467   4.059   2.006
   15CHTO    H7 6303   6.523   4.023   1.940
   15CHTO    O2 6304   6.486   4.471   2.028
   15CHTO    C1 6305   6.617   4.460   2.087
   15CHTO   H14 6306   6.620   4.370   2.153
   15CHTO    C2 6307   6.663   4.587   2.172
   15CHTO   H15 6308   6.646   4.674   2.107
   15CHTO    O6 6309   6.580   4.598   2.289
   15CHTO    H1 6310   6.598   4.678   2.334
   15CHTO    C3 6311   6.818   4.577   2.212
   15CHTO   H16 6312   6.831   4.495   2.285
   15CHTO    N1 6313   6.868   4.703   2.278
   15CHTO    H8 6314   6.810   4.723   2.367
   15CHTO    H9 6315   6.972   4.692   2.304
   15CHTO    C4 6316   6.905   4.537   2.087
   15CHTO   H17 6317   6.907   4.621   2.017
   15CHTO    O1 6318   6.852   4.420   2.025
   15CHTO    C5 6319   6.719   4.435   1.972
   15CHTO   H18 6320   6.715   4.520   1.905
   15CHTO   C16 6321   6.686   4.307   1.892
   15CHTO   O11 6322   6.772   4.289   1.779
   15CHTO    H5 6323   6.754   4.355   1.715
   15CHTO    O3 6324   7.039   4.500   2.125
   15CHTO    C6 6325   7.139   4.513   2.018
   15CHTO   H19 6326   7.095   4.531   1.920
   15CHTO    C8 6327   7.234   4.634   2.050
   15CHTO   H21 6328   7.272   4.621   2.151
   15CHTO    O7 6329   7.154   4.754   2.044
   15CHTO    H2 6330   7.123   4.768   1.956
   15CHTO   C12 6331   7.356   4.638   1.949
   15CHTO   H25 6332   7.313   4.663   1.850
   15CHTO    N3 6333   7.453   4.748   1.983
   15CHTO   H12 6334   7.420   4.805   2.069
   15CHTO   H13 6335   7.552   4.709   2.000
   15CHTO   C15 6336   7.423   4.496   1.940
   15CHTO   H28 6337   7.474   4.470   2.033
   15CHTO   O10 6338   7.522   4.484   1.821
   15CHTO    H4 6339   7.480   4.508   1.740
   15CHTO    O5 6340   7.325   4.395   1.908
   15CHTO   C10 6341   7.222   4.382   2.007
   15CHTO   H23 6342   7.268   4.360   2.104
   15CHTO   C17 6343   7.136   4.260   1.970
   15CHTO   O12 6344   7.075   4.274   1.842
   15CHTO    H6 6345   7.023   4.199   1.823
   16CHTO  H203 6346   3.989   4.050   1.180
   16CHTO   O82 6347   4.054   4.047   1.112
   16CHTO  C123 6348   4.145   3.939   1.136
   16CHTO  H227 6349   4.088   3.844   1.135
   16CHTO   O77 6350   4.235   3.945   1.021
   16CHTO  C118 6351   4.326   3.834   1.014
   16CHTO  H222 6352   4.270   3.739   1.015
   16CHTO  C125 6353   4.401   3.848   0.876
   16CHTO   O84 6354   4.477   3.730   0.843
   16CHTO  H205 6355   4.515   3.740   0.758
   16CHTO  C114 6356   4.422   3.840   1.134
   16CHTO  H218 6357   4.483   3.930   1.126
   16CHTO  C116 6358   4.345   3.847   1.270
   16CHTO  H220 6359   4.302   3.746   1.292
   16CHTO   O79 6360   4.438   3.873   1.377
   16CHTO  H201 6361   4.480   3.956   1.364
   16CHTO  C120 6362   4.229   3.955   1.268
   16CHTO  H224 6363   4.278   4.055   1.270
   16CHTO   N21 6364   4.144   3.944   1.390
   16CHTO  H211 6365   4.186   4.006   1.469
   16CHTO  H212 6366   4.043   3.975   1.369
   16CHTO   O75 6367   4.505   3.722   1.123
   16CHTO  C112 6368   4.654   3.743   1.182
   16CHTO  H216 6369   4.654   3.831   1.248
   16CHTO   O73 6370   4.743   3.761   1.070
   16CHTO  C113 6371   4.876   3.797   1.108
   16CHTO  H217 6372   4.873   3.893   1.165
   16CHTO  C124 6373   4.953   3.822   0.978
   16CHTO   O83 6374   5.086   3.871   0.998
   16CHTO  H204 6375   5.131   3.875   0.916
   16CHTO  C109 6376   4.941   3.685   1.196
   16CHTO  H213 6377   4.955   3.598   1.130
   16CHTO  C110 6378   4.848   3.646   1.315
   16CHTO  H214 6379   4.847   3.728   1.387
   16CHTO   O78 6380   4.905   3.531   1.381
   16CHTO  H200 6381   4.855   3.510   1.457
   16CHTO  C111 6382   4.703   3.618   1.265
   16CHTO  H215 6383   4.705   3.531   1.197
   16CHTO   N19 6384   4.608   3.585   1.374
   16CHTO  H207 6385   4.603   3.666   1.446
   16CHTO  H208 6386   4.639   3.494   1.424
   16CHTO   O74 6387   5.071   3.730   1.245
   16CHTO  C115 6388   5.181   3.614   1.242
   16CHTO  H219 6389   5.149   3.526   1.297
   16CHTO   O76 6390   5.208   3.563   1.093
   16CHTO  C122 6391   5.307   3.460   1.081
   16CHTO  H226 6392   5.324   3.445   0.974
   16CHTO  C126 6393   5.247   3.324   1.134
   16CHTO   O85 6394   5.337   3.214   1.129
   16CHTO  H206 6395   5.408   3.227   1.190
   16CHTO  C121 6396   5.443   3.502   1.149
   16CHTO  H225 6397   5.509   3.412   1.150
   16CHTO   O81 6398   5.506   3.601   1.067
   16CHTO  H202 6399   5.594   3.617   1.097
   16CHTO  C119 6400   5.425   3.553   1.296
   16CHTO  H223 6401   5.389   3.466   1.352
   16CHTO  C117 6402   5.315   3.665   1.307
   16CHTO  H221 6403   5.337   3.759   1.256
   16CHTO   N20 6404   5.293   3.702   1.451
   16CHTO  H209 6405   5.385   3.738   1.494
   16CHTO  H210 6406   5.216   3.778   1.458
   16CHTO   O80 6407   5.566   3.584   1.370
   16CHTO  C103 6408   5.676   3.476   1.372
   16CHTO  H190 6409   5.639   3.383   1.328
   16CHTO  C101 6410   5.811   3.514   1.303
   16CHTO  H188 6411   5.852   3.602   1.352
   16CHTO   O68 6412   5.784   3.549   1.155
   16CHTO  H168 6413   5.863   3.578   1.114
   16CHTO   C99 6414   5.915   3.393   1.319
   16CHTO  H186 6415   5.875   3.305   1.263
   16CHTO   N17 6416   6.050   3.422   1.261
   16CHTO  H174 6417   6.057   3.525   1.229
   16CHTO  H175 6418   6.071   3.355   1.179
   16CHTO   C97 6419   5.926   3.347   1.468
   16CHTO  H184 6420   5.987   3.421   1.522
   16CHTO   O64 6421   5.796   3.331   1.527
   16CHTO  C104 6422   5.709   3.445   1.522
   16CHTO  H191 6423   5.756   3.533   1.567
   16CHTO  C108 6424   5.583   3.417   1.606
   16CHTO   O71 6425   5.617   3.400   1.744
   16CHTO  H171 6426   5.539   3.390   1.794
   16CHTO   O62 6427   5.987   3.217   1.478
   16CHTO   C91 6428   6.024   3.170   1.610
   16CHTO  H178 6429   5.991   3.242   1.684
   16CHTO   C92 6430   6.180   3.162   1.621
   16CHTO  H179 6431   6.219   3.105   1.535
   16CHTO   O66 6432   6.231   3.296   1.605
   16CHTO  H166 6433   6.325   3.295   1.603
   16CHTO   C93 6434   6.231   3.098   1.757
   16CHTO  H180 6435   6.206   3.169   1.837
   16CHTO   N16 6436   6.378   3.080   1.764
   16CHTO  H172 6437   6.405   2.976   1.772
   16CHTO  H173 6438   6.427   3.125   1.678
   16CHTO   C94 6439   6.154   2.963   1.784
   16CHTO  H181 6440   6.177   2.888   1.709
   16CHTO   O61 6441   6.013   2.988   1.778
   16CHTO   C95 6442   5.966   3.029   1.649
   16CHTO  H182 6443   5.996   2.955   1.575
   16CHTO  C106 6444   5.809   3.028   1.653
   16CHTO   O69 6445   5.760   2.896   1.680
   16CHTO  H169 6446   5.780   2.872   1.769
   16CHTO   O63 6447   6.190   2.903   1.936
   16CHTO   C96 6448   6.104   2.771   1.981
   16CHTO  H183 6449   6.160   2.723   2.061
   16CHTO   C98 6450   6.081   2.663   1.870
   16CHTO  H185 6451   6.054   2.713   1.775
   16CHTO   O67 6452   6.208   2.599   1.845
   16CHTO  H167 6453   6.269   2.660   1.808
   16CHTO  C102 6454   5.968   2.556   1.908
   16CHTO  H189 6455   6.007   2.499   1.994
   16CHTO   N18 6456   5.937   2.455   1.804
   16CHTO  H176 6457   5.862   2.386   1.840
   16CHTO  H177 6458   6.026   2.400   1.778
   16CHTO  C105 6459   5.843   2.636   1.954
   16CHTO  H192 6460   5.816   2.707   1.875
   16CHTO   O65 6461   5.878   2.711   2.071
   16CHTO  C100 6462   5.967   2.820   2.045
   16CHTO  H187 6463   5.917   2.889   1.975
   16CHTO  C107 6464   5.993   2.898   2.176
   16CHTO   O70 6465   5.872   2.956   2.227
   16CHTO  H170 6466   5.814   2.889   2.257
   16CHTO   O57 6467   5.713   2.539   1.987
   16CHTO   C85 6468   5.583   2.595   1.957
   16CHTO  H157 6469   5.591   2.632   1.852
   16CHTO   C83 6470   5.556   2.721   2.045
   16CHTO  H155 6471   5.637   2.792   2.027
   16CHTO   O56 6472   5.565   2.685   2.184
   16CHTO  H135 6473   5.559   2.761   2.238
   16CHTO   C81 6474   5.422   2.785   2.001
   16CHTO  H153 6475   5.428   2.806   1.894
   16CHTO   N14 6476   5.401   2.919   2.064
   16CHTO  H141 6477   5.406   2.996   1.990
   16CHTO  H142 6478   5.307   2.924   2.113
   16CHTO   C79 6479   5.303   2.684   2.024
   16CHTO  H151 6480   5.216   2.727   1.975
   16CHTO   O52 6481   5.329   2.557   1.956
   16CHTO   C86 6482   5.461   2.496   1.974
   16CHTO  H158 6483   5.458   2.453   2.077
   16CHTO   C90 6484   5.477   2.376   1.877
   16CHTO   O60 6485   5.377   2.276   1.900
   16CHTO  H138 6486   5.292   2.309   1.874
   16CHTO   O50 6487   5.270   2.663   2.162
   16CHTO   C73 6488   5.174   2.613   2.256
   16CHTO  H145 6489   5.202   2.511   2.287
   16CHTO   C74 6490   5.030   2.607   2.196
   16CHTO  H146 6491   5.037   2.547   2.104
   16CHTO   O54 6492   4.947   2.534   2.288
   16CHTO  H133 6493   4.862   2.520   2.250
   16CHTO   C75 6494   4.977   2.753   2.166
   16CHTO  H147 6495   5.041   2.798   2.088
   16CHTO   N13 6496   4.840   2.758   2.108
   16CHTO  H139 6497   4.802   2.659   2.091
   16CHTO  H140 6498   4.772   2.810   2.175
   16CHTO   C76 6499   4.993   2.844   2.296
   16CHTO  H148 6500   4.922   2.809   2.371
   16CHTO   O49 6501   5.129   2.837   2.349
   16CHTO   C77 6502   5.171   2.704   2.383
   16CHTO  H149 6503   5.103   2.661   2.456
   16CHTO   C88 6504   5.307   2.714   2.452
   16CHTO   O58 6505   5.347   2.587   2.501
   16CHTO  H136 6506   5.427   2.596   2.549
   16CHTO   O51 6507   4.972   2.999   2.260
   16CHTO   C78 6508   4.939   3.086   2.388
   16CHTO  H150 6509   4.955   3.028   2.482
   16CHTO   C80 6510   4.791   3.132   2.383
   16CHTO  H152 6511   4.774   3.185   2.286
   16CHTO   O55 6512   4.711   3.013   2.385
   16CHTO  H134 6513   4.620   3.035   2.374
   16CHTO   C84 6514   4.757   3.229   2.503
   16CHTO  H156 6515   4.765   3.171   2.595
   16CHTO   N15 6516   4.616   3.282   2.497
   16CHTO  H143 6517   4.597   3.345   2.581
   16CHTO  H144 6518   4.602   3.338   2.407
   16CHTO   C87 6519   4.860   3.345   2.510
   16CHTO  H159 6520   4.847   3.414   2.427
   16CHTO   O53 6521   5.005   3.286   2.509
   16CHTO   C82 6522   5.033   3.208   2.392
   16CHTO  H154 6523   5.022   3.268   2.302
   16CHTO   C89 6524   5.181   3.161   2.397
   16CHTO   O59 6525   5.272   3.271   2.389
   16CHTO  H137 6526   5.265   3.323   2.467
   16CHTO   O45 6527   4.843   3.428   2.652
   16CHTO   C67 6528   4.933   3.540   2.666
   16CHTO  H124 6529   5.006   3.537   2.584
   16CHTO   C65 6530   4.855   3.676   2.659
   16CHTO  H122 6531   4.754   3.655   2.693
   16CHTO   O44 6532   4.850   3.714   2.520
   16CHTO  H102 6533   4.934   3.744   2.491
   16CHTO   C63 6534   4.910   3.784   2.762
   16CHTO  H120 6535   4.875   3.756   2.862
   16CHTO   N11 6536   4.854   3.922   2.750
   16CHTO  H108 6537   4.887   3.982   2.833
   16CHTO  H109 6538   4.747   3.919   2.748
   16CHTO   C61 6539   5.067   3.776   2.766
   16CHTO  H118 6540   5.100   3.846   2.845
   16CHTO   O40 6541   5.113   3.643   2.806
   16CHTO   C68 6542   5.019   3.531   2.798
   16CHTO  H125 6543   4.951   3.535   0.005
   16CHTO   C72 6544   5.098   3.398   2.808
   16CHTO   O48 6545   5.166   3.384   0.051
   16CHTO  H105 6546   5.237   3.445   0.056
   16CHTO   O38 6547   5.125   3.814   2.640
   16CHTO   C55 6548   5.269   3.811   2.631
   16CHTO  H112 6549   5.310   3.741   2.705
   16CHTO   C56 6550   5.332   3.956   2.645
   16CHTO  H113 6551   5.290   4.018   2.564
   16CHTO   O42 6552   5.290   4.015   2.769
   16CHTO  H100 6553   5.198   4.031   2.769
   16CHTO   C57 6554   5.489   3.947   2.634
   16CHTO  H114 6555   5.523   3.897   2.725
   16CHTO   N10 6556   5.556   4.079   2.631
   16CHTO  H106 6557   5.564   4.116   2.530
   16CHTO  H107 6558   5.656   4.071   2.673
   16CHTO   C58 6559   5.532   3.861   2.511
   16CHTO  H115 6560   5.525   3.922   2.418
   16CHTO   O37 6561   5.456   3.740   2.495
   16CHTO   C59 6562   5.314   3.756   2.493
   16CHTO  H116 6563   5.285   3.824   2.413
   16CHTO   C70 6564   5.251   3.619   2.464
   16CHTO   O46 6565   5.284   3.570   2.333
   16CHTO  H103 6566   5.240   3.621   2.268
   16CHTO   O39 6567   5.681   3.808   2.534
   16CHTO   C60 6568   5.754   3.784   2.413
   16CHTO  H117 6569   5.687   3.787   2.327
   16CHTO   C62 6570   5.863   3.893   2.394
   16CHTO  H119 6571   5.808   3.990   2.390
   16CHTO   O43 6572   5.951   3.897   2.508
   16CHTO  H101 6573   5.998   3.816   2.516
   16CHTO   C66 6574   5.938   3.868   2.255
   16CHTO  H123 6575   5.864   3.864   2.175
   16CHTO   N12 6576   6.030   3.979   2.220
   16CHTO  H110 6577   6.000   4.026   2.127
   16CHTO  H111 6578   6.036   4.052   2.300
   16CHTO   C69 6579   6.010   3.730   2.258
   16CHTO  H126 6580   6.088   3.730   2.338
   16CHTO   O41 6581   5.903   3.617   2.287
   16CHTO   C64 6582   5.819   3.642   2.415
   16CHTO  H121 6583   5.885   3.634   2.504
   16CHTO   C71 6584   5.712   3.530   2.426
   16CHTO   O47 6585   5.623   3.531   2.314
   16CHTO  H104 6586   5.562   3.460   2.322
   16CHTO   O34 6587   6.080   3.698   2.122
   16CHTO   C49 6588   6.200   3.613   2.073
   16CHTO   H91 6589   6.189   3.517   2.122
   16CHTO   C47 6590   6.334   3.678   2.116
   16CHTO   H89 6591   6.355   3.637   2.218
   16CHTO   O33 6592   6.323   3.821   2.126
   16CHTO   H70 6593   6.262   3.844   2.193
   16CHTO   C45 6594   6.454   3.644   2.014
   16CHTO   H87 6595   6.449   3.718   1.932
   16CHTO    N8 6596   6.586   3.658   2.080
   16CHTO   H75 6597   6.598   3.581   2.155
   16CHTO   H76 6598   6.665   3.651   2.007
   16CHTO   C43 6599   6.430   3.503   1.940
   16CHTO   H85 6600   6.514   3.490   1.872
   16CHTO   O29 6601   6.304   3.504   1.869
   16CHTO   C50 6602   6.199   3.589   1.919
   16CHTO   H92 6603   6.204   3.687   1.869
   16CHTO   C54 6604   6.062   3.531   1.875
   16CHTO   O36 6605   6.044   3.542   1.734
   16CHTO   H72 6606   5.960   3.509   1.710
   16CHTO   O27 6607   6.432   3.392   2.031
   16CHTO   C37 6608   6.495   3.316   2.136
   16CHTO   H79 6609   6.556   3.383   2.199
   16CHTO   C38 6610   6.386   3.254   2.229
   16CHTO   H80 6611   6.316   3.196   2.167
   16CHTO   O31 6612   6.315   3.363   2.290
   16CHTO   H68 6613   6.241   3.330   2.338
   16CHTO   C39 6614   6.450   3.160   2.339
   16CHTO   H81 6615   6.506   3.223   2.407
   16CHTO    N7 6616   6.346   3.087   2.421
   16CHTO   H73 6617   6.354   2.980   2.408
   16CHTO   H74 6618   6.357   3.112   2.525
   16CHTO   C40 6619   6.553   3.060   2.274
   16CHTO   H82 6620   6.500   2.983   2.217
   16CHTO   O26 6621   6.646   3.132   2.192
   16CHTO   C41 6622   6.585   3.203   2.080
   16CHTO   H83 6623   6.525   3.132   2.020
   16CHTO   C52 6624   6.702   3.253   1.992
   16CHTO   O35 6625   6.661   3.291   1.859
   16CHTO   H71 6626   6.736   3.319   1.810
   16CHTO   O28 6627   6.638   2.998   2.373
   16CHTO   C42 6628   6.685   2.860   2.357
   16CHTO   H84 6629   6.769   2.854   2.426
   16CHTO   C44 6630   6.742   2.821   2.217
   16CHTO   H86 6631   6.666   2.841   2.141
   16CHTO   O32 6632   6.854   2.908   2.193
   16CHTO   H69 6633   6.879   2.905   2.103
   16CHTO   C48 6634   6.780   2.667   2.208
   16CHTO   H90 6635   6.859   2.647   2.280
   16CHTO    N9 6636   6.837   2.630   2.073
   16CHTO   H77 6637   6.928   2.686   2.055
   16CHTO   H78 6638   6.765   2.650   1.996
   16CHTO   C51 6639   6.653   2.584   2.246
   16CHTO   H93 6640   6.572   2.616   2.180
   16CHTO   O30 6641   6.623   2.610   2.384
   16CHTO   C46 6642   6.578   2.758   2.408
   16CHTO   H88 6643   6.484   2.774   2.356
   16CHTO   C53 6644   6.559   2.777   2.561
   16CHTO   O72 6645   6.457   2.691   2.612
   16CHTO  H199 6646   6.444   2.709   2.704
   16CHTO   O22 6647   6.673   2.441   2.236
   16CHTO   C31 6648   6.566   2.340   2.253
   16CHTO   H59 6649   6.517   2.363   2.351
   16CHTO   C29 6650   6.454   2.340   2.146
   16CHTO   H57 6651   6.504   2.331   2.049
   16CHTO   O21 6652   6.387   2.467   2.148
   16CHTO   H37 6653   6.329   2.475   2.074
   16CHTO   C27 6654   6.353   2.219   2.164
   16CHTO   H55 6655   6.300   2.231   2.260
   16CHTO    N5 6656   6.252   2.212   2.055
   16CHTO   H43 6657   6.197   2.305   2.050
   16CHTO   H44 6658   6.184   2.130   2.073
   16CHTO   C25 6659   6.436   2.086   2.173
   16CHTO   H53 6660   6.492   2.071   2.079
   16CHTO   O17 6661   6.531   2.095   2.283
   16CHTO   C32 6662   6.629   2.198   2.268
   16CHTO   H60 6663   6.689   2.177   2.179
   16CHTO   C36 6664   6.724   2.192   2.390
   16CHTO   O25 6665   6.654   2.208   2.515
   16CHTO   H40 6666   6.598   2.134   2.530
   16CHTO   O15 6667   6.347   1.960   2.200
   16CHTO   C19 6668   6.260   1.893   2.295
   16CHTO   H47 6669   6.309   1.796   2.311
   16CHTO   C20 6670   6.245   1.966   2.433
   16CHTO   H48 6671   6.208   2.069   2.421
   16CHTO   O19 6672   6.377   1.972   2.490
   16CHTO   H35 6673   6.376   2.023   2.569
   16CHTO   C21 6674   6.146   1.889   2.530
   16CHTO   H49 6675   6.193   1.794   2.559
   16CHTO    N4 6676   6.121   1.964   2.657
   16CHTO   H41 6677   6.017   1.988   2.667
   16CHTO   H42 6678   6.152   1.905   2.742
   16CHTO   C22 6679   6.016   1.852   2.454
   16CHTO   H50 6680   5.961   1.944   2.431
   16CHTO   O14 6681   6.048   1.782   2.333
   16CHTO   C23 6682   6.119   1.861   2.237
   16CHTO   H51 6683   6.060   1.953   2.218
   16CHTO   C34 6684   6.124   1.780   2.107
   16CHTO   O23 6685   6.166   1.861   1.997
   16CHTO   H38 6686   6.166   1.810   1.918
   16CHTO   O16 6687   5.933   1.763   2.531
   16CHTO   C24 6688   5.796   1.720   2.456
   16CHTO   H52 6689   5.802   1.736   2.349
   16CHTO   C26 6690   5.677   1.799   2.514
   16CHTO   H54 6691   5.673   1.782   2.624
   16CHTO   O20 6692   5.700   1.939   2.492
   16CHTO   H36 6693   5.703   1.959   2.400
   16CHTO   C30 6694   5.543   1.750   2.450
   16CHTO   H58 6695   5.539   1.779   2.344
   16CHTO    N6 6696   5.425   1.815   2.514
   16CHTO   H45 6697   5.430   1.922   2.501
   16CHTO   H46 6698   5.423   1.793   2.620
   16CHTO   C33 6699   5.532   1.594   2.454
   16CHTO   H61 6700   5.517   1.561   2.558
   16CHTO   O18 6701   5.654   1.534   2.405
   16CHTO   C28 6702   5.772   1.569   2.478
   16CHTO   H56 6703   5.759   1.550   2.584
   16CHTO   C35 6704   5.891   1.485   2.427
   16CHTO   O24 6705   5.873   1.345   2.451
   16CHTO   H39 6706   5.948   1.298   2.421
   16CHTO    O9 6707   5.417   1.548   2.381
   16CHTO   C13 6708   5.376   1.395   2.414
   16CHTO   H26 6709   5.398   1.376   2.521
   16CHTO   C11 6710   5.454   1.295   2.318
   16CHTO   H24 6711   5.562   1.304   2.340
   16CHTO    O8 6712   5.433   1.338   2.182
   16CHTO    H3 6713   5.486   1.287   2.124
   16CHTO    C9 6714   5.410   1.149   2.350
   16CHTO   H22 6715   5.454   1.127   2.449
   16CHTO    N2 6716   5.474   1.048   2.261
   16CHTO   H10 6717   5.434   1.057   2.161
   16CHTO   H11 6718   5.456   0.949   2.300
   16CHTO    C7 6719   5.252   1.140   2.366
   16CHTO   H20 6720   5.239   1.132   2.476
   16CHTO    O4 6721   5.186   1.259   2.319
   16CHTO   C14 6722   5.218   1.374   2.399
   16CHTO   H27 6723   5.175   1.358   2.501
   16CHTO   C18 6724   5.144   1.496   2.338
   16CHTO   O13 6725   5.002   1.477   2.340
   16CHTO    H7 6726   4.960   1.549   2.297
   16CHTO    O2 6727   5.178   1.009   2.297
   16CHTO    C1 6728   5.061   0.959   2.366
   16CHTO   H14 6729   5.014   0.882   2.302
   16CHTO    C2 6730   4.951   1.069   2.402
   16CHTO   H15 6731   5.002   1.148   2.458
   16CHTO    O6 6732   4.899   1.123   2.279
   16CHTO    H1 6733   4.856   1.057   2.229
   16CHTO    C3 6734   4.834   1.006   2.492
   16CHTO   H16 6735   4.776   0.935   2.431
   16CHTO    N1 6736   4.738   1.112   2.541
   16CHTO    H8 6737   4.638   1.089   2.509
   16CHTO    H9 6738   4.741   1.121   2.649
   16CHTO    C4 6739   4.894   0.921   2.610
   16CHTO   H17 6740   4.942   0.989   2.682
   16CHTO    O1 6741   4.990   0.826   2.561
   16CHTO    C5 6742   5.104   0.885   2.496
   16CHTO   H18 6743   5.150   0.957   2.564
   16CHTO   C16 6744   5.206   0.772   2.467
   16CHTO   O11 6745   5.252   0.713   2.589
   16CHTO    H5 6746   5.182   0.664   2.629
   16CHTO    O3 6747   4.793   0.841   2.675
   16CHTO    C6 6748   4.812   0.815   2.818
   16CHTO   H19 6749   4.912   0.842   2.854
   16CHTO    C8 6750   4.706   0.894   0.019
   16CHTO   H21 6751   4.608   0.875   2.858
   16CHTO    O7 6752   4.737   1.034   0.007
   16CHTO    H2 6753   4.819   1.054   0.047
   16CHTO   C12 6754   4.704   0.847   0.171
   16CHTO   H25 6755   4.801   0.880   0.215
   16CHTO    N3 6756   4.595   0.914   0.250
   16CHTO   H12 6757   4.536   0.980   0.187
   16CHTO   H13 6758   4.637   0.969   0.333
   16CHTO   C15 6759   4.696   0.690   0.177
   16CHTO   H28 6760   4.600   0.653   0.142
   16CHTO   O10 6761   4.724   0.634   0.318
   16CHTO    H4 6762   4.656   0.661   0.377
   16CHTO    O5 6763   4.803   0.632   0.101
   16CHTO   C10 6764   4.796   0.662   2.843
   16CHTO   H23 6765   4.700   0.630   2.804
   16CHTO   C17 6766   4.905   0.580   2.772
   16CHTO   O12 6767   4.879   0.439   2.781
   16CHTO    H6 6768   4.891   0.410   2.870
   17CHTO  H203 6769   3.737   4.922   0.993
   17CHTO   O82 6770   3.773   5.008   0.983
   17CHTO  C123 6771   3.812   5.062   1.110
   17CHTO  H227 6772   3.732   5.043   1.183
   17CHTO   O77 6773   3.930   4.983   1.144
   17CHTO  C118 6774   3.989   5.018   1.271
   17CHTO  H222 6775   3.911   5.015   1.348
   17CHTO  C125 6776   4.099   4.911   1.306
   17CHTO   O84 6777   4.200   4.898   1.206
   17CHTO  H205 6778   4.162   4.861   1.128
   17CHTO  C114 6779   4.044   5.162   1.262
   17CHTO  H218 6780   4.114   5.167   1.178
   17CHTO  C116 6781   3.926   5.260   1.232
   17CHTO  H220 6782   3.857   5.262   1.320
   17CHTO   O79 6783   3.976   5.395   1.219
   17CHTO  H201 6784   3.905   5.455   1.210
   17CHTO  C120 6785   3.847   5.216   1.102
   17CHTO  H224 6786   3.916   5.234   1.016
   17CHTO   N21 6787   3.725   5.298   1.079
   17CHTO  H211 6788   3.749   5.384   1.019
   17CHTO  H212 6789   3.680   5.327   1.173
   17CHTO   O75 6790   4.116   5.182   1.386
   17CHTO  C112 6791   4.200   5.324   1.401
   17CHTO  H216 6792   4.129   5.402   1.434
   17CHTO   O73 6793   4.257   5.357   1.273
   17CHTO  C113 6794   4.312   5.489   1.272
   17CHTO  H217 6795   4.236   5.561   1.309
   17CHTO  C124 6796   4.347   5.528   1.128
   17CHTO   O83 6797   4.229   5.538   1.047
   17CHTO  H204 6798   4.254   5.556   0.958
   17CHTO  C109 6799   4.436   5.495   1.365
   17CHTO  H213 6800   4.512   5.429   1.320
   17CHTO  C110 6801   4.398   5.446   1.509
   17CHTO  H214 6802   4.339   5.524   1.557
   17CHTO   O78 6803   4.519   5.433   1.586
   17CHTO  H200 6804   4.499   5.412   1.675
   17CHTO  C111 6805   4.317   5.312   1.506
   17CHTO  H215 6806   4.384   5.232   1.471
   17CHTO   N19 6807   4.266   5.271   1.639
   17CHTO  H207 6808   4.295   5.342   1.716
   17CHTO  H208 6809   4.158   5.261   1.639
   17CHTO   O74 6810   4.487   5.632   1.369
   17CHTO  C115 6811   4.652   5.653   1.370
   17CHTO  H219 6812   4.683   5.720   1.450
   17CHTO   O76 6813   4.729   5.516   1.396
   17CHTO  C122 6814   4.872   5.526   1.398
   17CHTO  H226 6815   4.911   5.424   1.400
   17CHTO  C126 6816   4.923   5.593   1.531
   17CHTO   O85 6817   4.883   5.520   1.647
   17CHTO  H206 6818   4.914   5.564   1.724
   17CHTO  C121 6819   4.929   5.600   1.271
   17CHTO  H225 6820   5.036   5.621   1.291
   17CHTO   O81 6821   4.924   5.512   1.158
   17CHTO  H202 6822   4.835   5.492   1.136
   17CHTO  C119 6823   4.856   5.735   1.241
   17CHTO  H223 6824   4.879   5.800   1.325
   17CHTO  C117 6825   4.700   5.718   1.235
   17CHTO  H221 6826   4.662   5.651   1.157
   17CHTO   N20 6827   4.630   5.849   1.211
   17CHTO  H209 6828   4.701   5.931   1.208
   17CHTO  H210 6829   4.553   5.868   1.284
   17CHTO   O80 6830   4.922   5.814   1.121
   17CHTO  C103 6831   5.065   5.877   1.138
   17CHTO  H190 6832   5.094   5.881   1.243
   17CHTO  C101 6833   5.180   5.805   1.056
   17CHTO  H188 6834   5.140   5.782   0.957
   17CHTO   O68 6835   5.217   5.672   1.125
   17CHTO  H168 6836   5.278   5.624   1.073
   17CHTO   C99 6837   5.308   5.900   1.036
   17CHTO  H186 6838   5.355   5.918   1.135
   17CHTO   N17 6839   5.413   5.840   0.947
   17CHTO  H174 6840   5.437   5.905   0.864
   17CHTO  H175 6841   5.502   5.817   1.004
   17CHTO   C97 6842   5.260   6.039   0.986
   17CHTO  H184 6843   5.211   6.024   0.888
   17CHTO   O64 6844   5.171   6.095   1.083
   17CHTO  C104 6845   5.045   6.026   1.089
   17CHTO  H191 6846   4.997   6.025   0.991
   17CHTO  C108 6847   4.951   6.102   1.182
   17CHTO   O71 6848   4.918   6.232   1.129
   17CHTO  H171 6849   4.993   6.287   1.133
   17CHTO   O62 6850   5.366   6.137   0.976
   17CHTO   C91 6851   5.365   6.213   0.853
   17CHTO  H178 6852   5.364   6.141   0.771
   17CHTO   C92 6853   5.501   6.290   0.841
   17CHTO  H179 6854   5.583   6.220   0.861
   17CHTO   O66 6855   5.516   6.331   0.704
   17CHTO  H166 6856   5.601   6.366   0.689
   17CHTO   C93 6857   5.509   6.420   0.931
   17CHTO  H180 6858   5.576   6.491   0.881
   17CHTO   N16 6859   5.571   6.395   1.063
   17CHTO  H172 6860   5.671   6.356   1.050
   17CHTO  H173 6861   5.574   6.486   1.121
   17CHTO   C94 6862   5.367   6.488   0.947
   17CHTO  H181 6863   5.315   6.454   1.037
   17CHTO   O61 6864   5.282   6.453   0.836
   17CHTO   C95 6865   5.242   6.315   0.838
   17CHTO  H182 6866   5.173   6.299   0.921
   17CHTO  C106 6867   5.158   6.285   0.708
   17CHTO   O69 6868   5.232   6.311   0.588
   17CHTO  H169 6869   5.302   6.250   0.580
   17CHTO   O63 6870   5.382   6.645   0.948
   17CHTO   C96 6871   5.289   6.712   1.059
   17CHTO  H183 6872   5.289   6.648   1.147
   17CHTO   C98 6873   5.141   6.736   1.017
   17CHTO  H185 6874   5.138   6.796   0.924
   17CHTO   O67 6875   5.082   6.609   0.984
   17CHTO  H167 6876   4.995   6.621   0.952
   17CHTO  C102 6877   5.056   6.807   1.134
   17CHTO  H189 6878   5.038   6.729   1.209
   17CHTO   N18 6879   4.921   6.854   1.092
   17CHTO  H176 6880   4.862   6.770   1.060
   17CHTO  H177 6881   4.930   6.926   1.012
   17CHTO  C105 6882   5.137   6.921   1.203
   17CHTO  H192 6883   5.128   7.013   1.145
   17CHTO   O65 6884   5.278   6.895   1.220
   17CHTO  C100 6885   5.347   6.851   1.102
   17CHTO  H187 6886   5.331   6.924   1.022
   17CHTO  C107 6887   5.499   6.844   1.131
   17CHTO   O70 6888   5.553   6.973   1.162
   17CHTO  H170 6889   5.550   7.028   1.086
   17CHTO   O57 6890   5.070   6.937   1.350
   17CHTO   C85 6891   5.027   7.065   1.398
   17CHTO  H157 6892   4.988   7.120   1.310
   17CHTO   C83 6893   5.151   7.148   1.448
   17CHTO  H155 6894   5.215   7.168   1.361
   17CHTO   O56 6895   5.229   7.067   1.538
   17CHTO  H135 6896   5.309   7.112   1.560
   17CHTO   C81 6897   5.102   7.283   1.507
   17CHTO  H153 6898   5.044   7.334   1.431
   17CHTO   N14 6899   5.212   7.377   1.538
   17CHTO  H141 6900   5.271   7.395   1.451
   17CHTO  H142 6901   5.274   7.337   1.615
   17CHTO   C79 6902   5.007   7.256   1.629
   17CHTO  H151 6903   4.971   7.353   1.665
   17CHTO   O52 6904   4.890   7.182   1.583
   17CHTO   C86 6905   4.919   7.056   1.514
   17CHTO  H158 6906   4.952   6.986   1.595
   17CHTO   C90 6907   4.785   6.999   1.460
   17CHTO   O60 6908   4.797   6.864   1.415
   17CHTO  H138 6909   4.849   6.861   1.338
   17CHTO   O50 6910   5.070   7.187   1.739
   17CHTO   C73 6911   5.092   7.200   1.880
   17CHTO  H145 6912   5.094   7.306   1.909
   17CHTO   C74 6913   5.229   7.135   1.919
   17CHTO  H146 6914   5.305   7.185   1.857
   17CHTO   O54 6915   5.258   7.169   2.055
   17CHTO  H133 6916   5.195   7.131   2.114
   17CHTO   C75 6917   5.224   6.979   1.892
   17CHTO  H147 6918   5.211   6.963   1.784
   17CHTO   N13 6919   5.348   6.906   1.929
   17CHTO  H139 6920   5.391   6.858   1.842
   17CHTO  H140 6921   5.421   6.973   1.971
   17CHTO   C76 6922   5.095   6.916   1.963
   17CHTO  H148 6923   5.109   6.919   2.071
   17CHTO   O49 6924   4.973   6.990   1.927
   17CHTO   C77 6925   4.979   7.129   1.961
   17CHTO  H149 6926   4.999   7.140   2.067
   17CHTO   C88 6927   4.840   7.190   1.937
   17CHTO   O58 6928   4.835   7.324   1.988
   17CHTO  H136 6929   4.750   7.360   1.974
   17CHTO   O51 6930   5.070   6.770   1.908
   17CHTO   C78 6931   4.949   6.699   1.975
   17CHTO  H150 6932   4.886   6.770   2.032
   17CHTO   C80 6933   4.999   6.589   2.071
   17CHTO  H152 6934   5.071   6.524   2.016
   17CHTO   O55 6935   5.069   6.655   2.178
   17CHTO  H134 6936   5.110   6.592   2.234
   17CHTO   C84 6937   4.879   6.500   2.125
   17CHTO  H156 6938   4.817   6.564   2.188
   17CHTO   N15 6939   4.927   6.386   2.210
   17CHTO  H143 6940   4.982   6.424   2.294
   17CHTO  H144 6941   4.844   6.329   2.245
   17CHTO   C87 6942   4.794   6.450   2.005
   17CHTO  H159 6943   4.854   6.381   1.946
   17CHTO   O53 6944   4.752   6.566   1.920
   17CHTO   C82 6945   4.862   6.639   1.864
   17CHTO  H154 6946   4.922   6.574   1.801
   17CHTO   C89 6947   4.804   6.750   1.773
   17CHTO   O59 6948   4.728   6.694   1.665
   17CHTO  H137 6949   4.647   6.658   1.698
   17CHTO   O45 6950   4.653   6.369   2.050
   17CHTO   C67 6951   4.570   6.423   2.155
   17CHTO  H124 6952   4.626   6.429   2.248
   17CHTO   C65 6953   4.511   6.563   2.120
   17CHTO  H122 6954   4.595   6.624   2.088
   17CHTO   O44 6955   4.454   6.624   2.237
   17CHTO  H102 6956   4.428   6.712   2.218
   17CHTO   C63 6957   4.416   6.548   1.996
   17CHTO  H120 6958   4.471   6.498   1.916
   17CHTO   N11 6959   4.377   6.677   1.930
   17CHTO  H108 6960   4.315   6.734   1.997
   17CHTO  H109 6961   4.323   6.657   1.840
   17CHTO   C61 6962   4.296   6.453   2.034
   17CHTO  H118 6963   4.242   6.433   1.940
   17CHTO   O40 6964   4.344   6.324   2.083
   17CHTO   C68 6965   4.454   6.318   2.181
   17CHTO  H125 6966   4.499   6.217   2.170
   17CHTO   C72 6967   4.399   6.326   2.326
   17CHTO   O48 6968   4.318   6.214   2.361
   17CHTO  H105 6969   4.238   6.216   2.313
   17CHTO   O38 6970   4.206   6.510   2.132
   17CHTO   C55 6971   4.063   6.493   2.119
   17CHTO  H112 6972   4.021   6.538   2.210
   17CHTO   C56 6973   4.018   6.341   2.101
   17CHTO  H113 6974   4.072   6.299   2.016
   17CHTO   O42 6975   4.059   6.268   2.218
   17CHTO  H100 6976   4.152   6.265   2.224
   17CHTO   C57 6977   3.861   6.332   2.078
   17CHTO  H114 6978   3.812   6.371   2.167
   17CHTO   N10 6979   3.812   6.193   2.059
   17CHTO  H106 6980   3.723   6.192   1.997
   17CHTO  H107 6981   3.887   6.132   2.012
   17CHTO   C58 6982   3.825   6.422   1.957
   17CHTO  H115 6983   3.879   6.385   1.867
   17CHTO   O37 6984   3.866   6.557   1.984
   17CHTO   C59 6985   4.006   6.581   2.002
   17CHTO  H116 6986   4.059   6.562   1.909
   17CHTO   C70 6987   4.022   6.730   2.038
   17CHTO   O46 6988   3.974   6.817   1.935
   17CHTO  H103 6989   3.985   6.906   1.961
   17CHTO   O39 6990   3.657   6.424   1.925
   17CHTO   C60 6991   3.583   6.522   2.000
   17CHTO  H117 6992   3.633   6.539   2.095
   17CHTO   C62 6993   3.575   6.658   1.923
   17CHTO  H119 6994   3.679   6.686   1.897
   17CHTO   O43 6995   3.502   6.641   1.799
   17CHTO  H101 6996   3.549   6.584   1.741
   17CHTO   C66 6997   3.513   6.769   2.019
   17CHTO  H123 6998   3.571   6.772   2.111
   17CHTO   N12 6999   3.522   6.905   1.961
   17CHTO  H110 7000   3.481   6.978   2.031
   17CHTO  H111 7001   3.469   6.909   1.867
   17CHTO   C69 7002   3.368   6.729   2.058
   17CHTO  H126 7003   3.301   6.733   1.969
   17CHTO   O41 7004   3.365   6.578   2.118
   17CHTO   C64 7005   3.439   6.473   2.032
   17CHTO  H121 7006   3.384   6.458   1.937
   17CHTO   C71 7007   3.441   6.338   2.107
   17CHTO   O47 7008   3.309   6.285   2.118
   17CHTO  H104 7009   3.312   6.200   2.157
   17CHTO   O34 7010   3.313   6.823   2.164
   17CHTO   C49 7011   3.212   6.932   2.176
   17CHTO   H91 7012   3.246   7.014   2.112
   17CHTO   C47 7013   3.209   6.977   2.324
   17CHTO   H89 7014   3.146   7.069   2.324
   17CHTO   O33 7015   3.340   7.014   2.370
   17CHTO   H70 7016   3.372   7.087   2.322
   17CHTO   C45 7017   3.147   6.861   2.419
   17CHTO   H87 7018   3.230   6.809   2.468
   17CHTO    N8 7019   3.063   6.924   2.524
   17CHTO   H75 7020   3.050   7.030   2.508
   17CHTO   H76 7021   3.107   6.907   2.622
   17CHTO   C43 7022   3.073   6.748   2.331
   17CHTO   H85 7023   3.153   6.689   2.288
   17CHTO   O29 7024   2.991   6.810   2.230
   17CHTO   C50 7025   3.068   6.887   2.134
   17CHTO   H92 7026   3.078   6.825   2.044
   17CHTO   C54 7027   2.983   7.007   2.084
   17CHTO   O36 7028   2.936   7.092   2.189
   17CHTO   H72 7029   3.008   7.136   2.229
   17CHTO   O27 7030   3.001   6.653   2.412
   17CHTO   C37 7031   2.972   6.513   2.403
   17CHTO   H79 7032   2.914   6.481   2.491
   17CHTO   C38 7033   2.887   6.480   2.277
   17CHTO   H80 7034   2.941   6.516   2.188
   17CHTO   O31 7035   2.764   6.553   2.289
   17CHTO   H68 7036   2.713   6.543   2.211
   17CHTO   C39 7037   2.862   6.325   2.264
   17CHTO   H81 7038   2.798   6.296   2.348
   17CHTO    N7 7039   2.790   6.285   2.138
   17CHTO   H73 7040   2.696   6.238   2.161
   17CHTO   H74 7041   2.773   6.371   2.074
   17CHTO   C40 7042   2.997   6.244   2.279
   17CHTO   H82 7043   3.057   6.254   2.188
   17CHTO   O26 7044   3.070   6.287   2.395
   17CHTO   C41 7045   3.103   6.429   2.397
   17CHTO   H83 7046   3.158   6.454   2.305
   17CHTO   C52 7047   3.199   6.455   2.517
   17CHTO   O35 7048   3.145   6.410   2.646
   17CHTO   H71 7049   3.206   6.429   2.714
   17CHTO   O28 7050   2.973   6.104   2.305
   17CHTO   C42 7051   3.073   6.002   2.273
   17CHTO   H84 7052   3.033   5.912   2.320
   17CHTO   C44 7053   3.215   6.023   2.335
   17CHTO   H86 7054   3.253   6.120   2.304
   17CHTO   O32 7055   3.200   6.025   2.478
   17CHTO   H69 7056   3.154   6.103   2.505
   17CHTO   C48 7057   3.320   5.913   2.290
   17CHTO   H90 7058   3.294   5.819   2.338
   17CHTO    N9 7059   3.459   5.946   2.336
   17CHTO   H77 7060   3.462   5.951   2.444
   17CHTO   H78 7061   3.491   6.040   2.293
   17CHTO   C51 7062   3.313   5.893   2.134
   17CHTO   H93 7063   3.347   5.986   2.086
   17CHTO   O30 7064   3.178   5.860   2.098
   17CHTO   C46 7065   3.083   5.973   2.121
   17CHTO   H88 7066   3.120   6.062   2.069
   17CHTO   C53 7067   2.946   5.930   2.062
   17CHTO   O72 7068   2.954   5.911   1.920
   17CHTO  H199 7069   2.967   5.994   1.877
   17CHTO   O22 7070   3.389   5.780   2.087
   17CHTO   C31 7071   3.453   5.782   1.953
   17CHTO   H59 7072   3.477   5.676   1.930
   17CHTO   C29 7073   3.364   5.835   1.838
   17CHTO   H57 7074   3.324   5.933   1.869
   17CHTO   O21 7075   3.251   5.746   1.827
   17CHTO   H37 7076   3.187   5.782   1.769
   17CHTO   C27 7077   3.442   5.853   1.702
   17CHTO   H55 7078   3.474   5.753   1.666
   17CHTO    N5 7079   3.358   5.916   1.597
   17CHTO   H43 7080   3.414   5.923   1.505
   17CHTO   H44 7081   3.269   5.858   1.581
   17CHTO   C25 7082   3.572   5.936   1.730
   17CHTO   H53 7083   3.544   6.034   1.770
   17CHTO   O17 7084   3.653   5.866   1.829
   17CHTO   C32 7085   3.591   5.856   1.958
   17CHTO   H60 7086   3.576   5.956   1.997
   17CHTO   C36 7087   3.689   5.783   2.053
   17CHTO   O25 7088   3.723   5.651   2.007
   17CHTO   H40 7089   3.784   5.612   2.066
   17CHTO   O15 7090   3.661   5.956   1.602
   17CHTO   C19 7091   3.719   6.076   1.544
   17CHTO   H47 7092   3.787   6.036   1.467
   17CHTO   C20 7093   3.617   6.170   1.473
   17CHTO   H48 7094   3.538   6.204   1.542
   17CHTO   O19 7095   3.555   6.090   1.370
   17CHTO   H35 7096   3.486   6.139   1.328
   17CHTO   C21 7097   3.687   6.298   1.412
   17CHTO   H49 7098   3.757   6.265   1.334
   17CHTO    N4 7099   3.591   6.391   1.347
   17CHTO   H41 7100   3.518   6.425   1.418
   17CHTO   H42 7101   3.541   6.342   1.265
   17CHTO   C22 7102   3.772   6.366   1.523
   17CHTO   H50 7103   3.705   6.402   1.601
   17CHTO   O14 7104   3.866   6.272   1.578
   17CHTO   C23 7105   3.809   6.158   1.643
   17CHTO   H51 7106   3.751   6.194   1.729
   17CHTO   C34 7107   3.924   6.070   1.695
   17CHTO   O23 7108   4.007   6.142   1.786
   17CHTO   H38 7109   4.074   6.085   1.819
   17CHTO   O16 7110   3.854   6.473   1.471
   17CHTO   C24 7111   3.872   6.598   1.571
   17CHTO   H52 7112   3.857   6.569   1.676
   17CHTO   C26 7113   3.772   6.709   1.533
   17CHTO   H54 7114   3.786   6.733   1.424
   17CHTO   O20 7115   3.638   6.658   1.550
   17CHTO   H36 7116   3.621   6.590   1.488
   17CHTO   C30 7117   3.797   6.839   1.616
   17CHTO   H58 7118   3.778   6.819   1.722
   17CHTO    N6 7119   3.704   6.948   1.576
   17CHTO   H45 7120   3.602   6.917   1.592
   17CHTO   H46 7121   3.724   7.036   1.635
   17CHTO   C33 7122   3.947   6.880   1.604
   17CHTO   H61 7123   3.970   6.906   1.499
   17CHTO   O18 7124   4.029   6.768   1.643
   17CHTO   C28 7125   4.017   6.652   1.560
   17CHTO   H56 7126   4.037   6.677   1.455
   17CHTO   C35 7127   4.118   6.545   1.605
   17CHTO   O24 7128   4.254   6.587   1.588
   17CHTO   H39 7129   4.274   6.594   1.496
   17CHTO    O9 7130   3.979   6.999   1.680
   17CHTO   C13 7131   4.122   7.071   1.636
   17CHTO   H26 7132   4.127   7.070   1.525
   17CHTO   C11 7133   4.243   6.994   1.702
   17CHTO   H24 7134   4.246   6.892   1.660
   17CHTO    O8 7135   4.222   6.983   1.844
   17CHTO    H3 7136   4.147   6.930   1.862
   17CHTO    C9 7137   4.375   7.067   1.663
   17CHTO   H22 7138   4.378   7.065   1.553
   17CHTO    N2 7139   4.496   6.991   1.703
   17CHTO   H10 7140   4.490   6.890   1.665
   17CHTO   H11 7141   4.505   6.990   1.810
   17CHTO    C7 7142   4.370   7.219   1.709
   17CHTO   H20 7143   4.390   7.275   1.615
   17CHTO    O4 7144   4.241   7.257   1.760
   17CHTO   C14 7145   4.127   7.226   1.677
   17CHTO   H27 7146   4.135   7.287   1.585
   17CHTO   C18 7147   4.002   7.274   1.754
   17CHTO   O13 7148   4.002   7.416   1.770
   17CHTO    H7 7149   3.926   7.443   1.818
   17CHTO    O2 7150   4.483   7.262   1.820
   17CHTO    C1 7151   4.490   7.404   1.844
   17CHTO   H14 7152   4.398   7.453   1.807
   17CHTO    C2 7153   4.615   7.472   1.774
   17CHTO   H15 7154   4.702   7.409   1.799
   17CHTO    O6 7155   4.596   7.469   1.631
   17CHTO    H1 7156   4.599   7.381   1.600
   17CHTO    C3 7157   4.638   7.621   1.827
   17CHTO   H16 7158   4.558   7.685   1.787
   17CHTO    N1 7159   4.768   7.678   1.778
   17CHTO    H8 7160   4.781   7.778   1.816
   17CHTO    H9 7161   4.769   7.679   1.670
   17CHTO    C4 7162   4.624   7.629   1.984
   17CHTO   H17 7163   4.711   7.582   2.030
   17CHTO    O1 7164   4.502   7.567   2.028
   17CHTO    C5 7165   4.493   7.427   1.998
   17CHTO   H18 7166   4.579   7.374   2.039
   17CHTO   C16 7167   4.364   7.371   2.064
   17CHTO   O11 7168   4.370   7.378   2.207
   17CHTO    H5 7169   4.365   7.467   2.235
   17CHTO    O3 7170   4.611   7.766   2.028
   17CHTO    C6 7171   4.658   7.810   2.161
   17CHTO   H19 7172   4.608   7.903   2.188
   17CHTO    C8 7173   4.627   7.711   2.278
   17CHTO   H21 7174   4.670   7.614   2.253
   17CHTO    O7 7175   4.484   7.699   2.288
   17CHTO    H2 7176   4.446   7.780   2.315
   17CHTO   C12 7177   4.692   7.762   2.413
   17CHTO   H25 7178   4.636   7.855   2.441
   17CHTO    N3 7179   4.671   7.664   2.525
   17CHTO   H12 7180   4.565   7.649   2.542
   17CHTO   H13 7181   4.720   7.571   2.502
   17CHTO   C15 7182   4.842   7.799   2.390
   17CHTO   H28 7183   4.903   7.711   2.371
   17CHTO   O10 7184   4.904   7.878   2.507
   17CHTO    H4 7185   4.906   7.824   2.584
   17CHTO    O5 7186   4.856   7.892   2.282
   17CHTO   C10 7187   4.810   7.842   2.155
   17CHTO   H23 7188   4.867   7.752   2.130
   17CHTO   C17 7189   4.841   7.947   2.047
   17CHTO   O12 7190   4.981   7.974   2.036
   17CHTO    H6 7191   5.010   8.021   2.112
   18CHTO  H203 7192   6.229   7.539   2.540
   18CHTO   O82 7193   6.209   7.450   2.516
   18CHTO  C123 7194   6.140   7.447   2.390
   18CHTO  H227 7195   6.060   7.523   2.391
   18CHTO   O77 7196   6.243   7.483   2.293
   18CHTO  C118 7197   6.193   7.496   2.159
   18CHTO  H222 7198   6.106   7.563   2.158
   18CHTO  C125 7199   6.306   7.560   2.071
   18CHTO   O84 7200   6.339   7.690   2.119
   18CHTO  H205 7201   6.268   7.750   2.101
   18CHTO  C114 7202   6.150   7.357   2.108
   18CHTO  H218 7203   6.236   7.290   2.112
   18CHTO  C116 7204   6.039   7.299   2.202
   18CHTO  H220 7205   5.945   7.357   2.188
   18CHTO   O79 7206   6.010   7.165   2.159
   18CHTO  H201 7207   5.937   7.131   2.207
   18CHTO  C120 7208   6.082   7.304   2.355
   18CHTO  H224 7209   6.162   7.227   2.368
   18CHTO   N21 7210   5.970   7.267   2.446
   18CHTO  H211 7211   5.875   7.296   2.404
   18CHTO  H212 7212   5.983   7.310   2.544
   18CHTO   O75 7213   6.104   7.375   1.973
   18CHTO  C112 7214   6.193   7.295   1.855
   18CHTO  H216 7215   6.255   7.217   1.902
   18CHTO   O73 7216   6.273   7.394   1.789
   18CHTO  C113 7217   6.351   7.344   1.679
   18CHTO  H217 7218   6.412   7.257   1.714
   18CHTO  C124 7219   6.449   7.452   1.634
   18CHTO   O83 7220   6.544   7.487   1.736
   18CHTO  H204 7221   6.501   7.531   1.806
   18CHTO  C109 7222   6.256   7.299   1.565
   18CHTO  H213 7223   6.195   7.386   1.538
   18CHTO  C110 7224   6.166   7.184   1.621
   18CHTO  H214 7225   6.229   7.097   1.641
   18CHTO   O78 7226   6.072   7.144   1.519
   18CHTO  H200 7227   6.015   7.215   1.497
   18CHTO  C111 7228   6.093   7.228   1.751
   18CHTO  H215 7229   6.019   7.305   1.726
   18CHTO   N19 7230   6.018   7.118   1.818
   18CHTO  H207 7231   6.085   7.037   1.842
   18CHTO  H208 7232   5.940   7.082   1.752
   18CHTO   O74 7233   6.334   7.257   1.447
   18CHTO  C115 7234   6.256   7.274   1.303
   18CHTO  H219 7235   6.169   7.208   1.297
   18CHTO   O76 7236   6.197   7.422   1.284
   18CHTO  C122 7237   6.296   7.526   1.276
   18CHTO  H226 7238   6.330   7.547   1.378
   18CHTO  C126 7239   6.224   7.657   1.228
   18CHTO   O85 7240   6.309   7.772   1.228
   18CHTO  H206 7241   6.376   7.762   1.163
   18CHTO  C121 7242   6.418   7.489   1.182
   18CHTO  H225 7243   6.437   7.574   1.113
   18CHTO   O81 7244   6.538   7.473   1.259
   18CHTO  H202 7245   6.559   7.553   1.302
   18CHTO  C119 7246   6.388   7.362   1.097
   18CHTO  H223 7247   6.296   7.383   1.042
   18CHTO  C117 7248   6.361   7.237   1.189
   18CHTO  H221 7249   6.448   7.200   1.243
   18CHTO   N20 7250   6.314   7.120   1.108
   18CHTO  H209 7251   6.220   7.143   1.060
   18CHTO  H210 7252   6.388   7.093   1.035
   18CHTO   O80 7253   6.497   7.343   0.973
   18CHTO  C103 7254   6.448   7.359   0.814
   18CHTO  H190 7255   6.536   7.361   0.750
   18CHTO  C101 7256   6.353   7.245   0.760
   18CHTO  H188 7257   6.269   7.234   0.829
   18CHTO   O68 7258   6.432   7.111   0.757
   18CHTO  H168 7259   6.503   7.117   0.695
   18CHTO   C99 7260   6.293   7.285   0.617
   18CHTO  H186 7261   6.377   7.304   0.546
   18CHTO   N17 7262   6.204   7.181   0.555
   18CHTO  H174 7263   6.248   7.143   0.464
   18CHTO  H175 7264   6.184   7.101   0.625
   18CHTO   C97 7265   6.221   7.422   0.634
   18CHTO  H184 7266   6.145   7.408   0.712
   18CHTO   O64 7267   6.319   7.521   0.671
   18CHTO  C104 7268   6.377   7.501   0.801
   18CHTO  H191 7269   6.299   7.510   0.877
   18CHTO  C108 7270   6.475   7.616   0.827
   18CHTO   O71 7271   6.580   7.622   0.730
   18CHTO  H171 7272   6.640   7.690   0.752
   18CHTO   O62 7273   6.161   7.476   0.514
   18CHTO   C91 7274   6.040   7.552   0.537
   18CHTO  H178 7275   6.033   7.577   0.643
   18CHTO   C92 7276   5.915   7.465   0.503
   18CHTO  H179 7277   5.923   7.431   0.399
   18CHTO   O66 7278   5.917   7.346   0.584
   18CHTO  H166 7279   5.914   7.368   0.675
   18CHTO   C93 7280   5.779   7.543   0.527
   18CHTO  H180 7281   5.764   7.545   0.636
   18CHTO   N16 7282   5.661   7.469   0.473
   18CHTO  H172 7283   5.611   7.526   0.395
   18CHTO  H173 7284   5.592   7.445   0.552
   18CHTO   C94 7285   5.784   7.691   0.474
   18CHTO  H181 7286   5.769   7.697   0.366
   18CHTO   O61 7287   5.909   7.757   0.503
   18CHTO   C95 7288   6.026   7.688   0.457
   18CHTO  H182 7289   6.018   7.668   0.350
   18CHTO  C106 7290   6.149   7.783   0.479
   18CHTO   O69 7291   6.269   7.730   0.421
   18CHTO  H169 7292   6.340   7.789   0.437
   18CHTO   O63 7293   5.669   7.774   0.552
   18CHTO   C96 7294   5.598   7.884   0.471
   18CHTO  H183 7295   5.611   7.864   0.365
   18CHTO   C98 7296   5.651   8.028   0.499
   18CHTO  H185 7297   5.658   8.044   0.608
   18CHTO   O67 7298   5.786   8.035   0.451
   18CHTO  H167 7299   5.842   7.980   0.501
   18CHTO  C102 7300   5.559   8.143   0.433
   18CHTO  H189 7301   5.574   8.134   0.324
   18CHTO   N18 7302   5.598   8.282   0.468
   18CHTO  H176 7303   5.591   8.296   0.575
   18CHTO  H177 7304   5.534   8.352   0.418
   18CHTO  C105 7305   5.409   8.115   0.462
   18CHTO  H192 7306   5.390   8.131   0.569
   18CHTO   O65 7307   5.373   7.979   0.430
   18CHTO  C100 7308   5.444   7.879   0.503
   18CHTO  H187 7309   5.430   7.897   0.610
   18CHTO  C107 7310   5.380   7.741   0.472
   18CHTO   O70 7311   5.387   7.708   0.332
   18CHTO  H170 7312   5.331   7.766   0.283
   18CHTO   O57 7313   5.316   8.224   0.366
   18CHTO   C85 7314   5.172   8.236   0.372
   18CHTO  H157 7315   5.148   8.299   0.284
   18CHTO   C83 7316   5.127   8.320   0.496
   18CHTO  H155 7317   5.168   8.421   0.483
   18CHTO   O56 7318   5.186   8.266   0.616
   18CHTO  H135 7319   5.168   8.322   0.689
   18CHTO   C81 7320   4.972   8.331   0.500
   18CHTO  H153 7321   4.938   8.377   0.407
   18CHTO   N14 7322   4.921   8.423   0.605
   18CHTO  H141 7323   4.848   8.375   0.667
   18CHTO  H142 7324   5.001   8.459   0.667
   18CHTO   C79 7325   4.909   8.187   0.508
   18CHTO  H151 7326   4.800   8.199   0.504
   18CHTO   O52 7327   4.948   8.109   0.391
   18CHTO   C86 7328   5.092   8.099   0.369
   18CHTO  H158 7329   5.127   8.030   0.449
   18CHTO   C90 7330   5.117   8.025   0.235
   18CHTO   O60 7331   5.070   7.890   0.239
   18CHTO  H138 7332   4.976   7.888   0.244
   18CHTO   O50 7333   4.942   8.116   0.629
   18CHTO   C73 7334   4.928   7.984   0.683
   18CHTO  H145 7335   4.987   7.912   0.624
   18CHTO   C74 7336   4.778   7.939   0.682
   18CHTO  H146 7337   4.743   7.946   0.578
   18CHTO   O54 7338   4.773   7.799   0.716
   18CHTO  H133 7339   4.802   7.785   0.804
   18CHTO   C75 7340   4.694   8.031   0.780
   18CHTO  H147 7341   4.699   8.134   0.743
   18CHTO   N13 7342   4.550   7.997   0.784
   18CHTO  H139 7343   4.537   7.896   0.820
   18CHTO  H140 7344   4.498   8.064   0.850
   18CHTO   C76 7345   4.762   8.028   0.925
   18CHTO  H148 7346   4.757   7.926   0.963
   18CHTO   O49 7347   4.902   8.070   0.913
   18CHTO   C77 7348   4.981   7.984   0.830
   18CHTO  H149 7349   4.977   7.882   0.869
   18CHTO   C88 7350   5.128   8.028   0.842
   18CHTO   O58 7351   5.217   7.941   0.764
   18CHTO  H136 7352   5.305   7.971   0.774
   18CHTO   O51 7353   4.693   8.135   1.026
   18CHTO   C78 7354   4.771   8.138   1.166
   18CHTO  H150 7355   4.869   8.085   1.159
   18CHTO   C80 7356   4.687   8.072   1.277
   18CHTO  H152 7357   4.593   8.130   1.291
   18CHTO   O55 7358   4.654   7.940   1.231
   18CHTO  H134 7359   4.595   7.898   1.291
   18CHTO   C84 7360   4.769   8.067   1.412
   18CHTO  H156 7361   4.854   8.000   1.394
   18CHTO   N15 7362   4.693   8.005   1.527
   18CHTO  H143 7363   4.597   7.970   1.494
   18CHTO  H144 7364   4.679   8.075   1.606
   18CHTO   C87 7365   4.825   8.207   1.448
   18CHTO  H159 7366   4.746   8.268   1.493
   18CHTO   O53 7367   4.884   8.282   1.323
   18CHTO   C82 7368   4.802   8.284   1.206
   18CHTO  H154 7369   4.711   8.341   1.224
   18CHTO   C89 7370   4.882   8.360   1.097
   18CHTO   O59 7371   4.806   8.386   0.979
   18CHTO  H137 7372   4.788   8.305   0.934
   18CHTO   O45 7373   4.949   8.194   1.562
   18CHTO   C67 7374   5.073   8.141   1.513
   18CHTO  H124 7375   5.052   8.063   1.439
   18CHTO   C65 7376   5.163   8.251   1.445
   18CHTO  H122 7377   5.111   8.346   1.461
   18CHTO   O44 7378   5.166   8.223   1.304
   18CHTO  H102 7379   5.204   8.295   1.258
   18CHTO   C63 7380   5.303   8.268   1.515
   18CHTO  H120 7381   5.287   8.303   1.617
   18CHTO   N11 7382   5.393   8.376   1.459
   18CHTO  H108 7383   5.401   8.457   1.528
   18CHTO  H109 7384   5.355   8.411   1.365
   18CHTO   C61 7385   5.371   8.127   1.527
   18CHTO  H118 7386   5.457   8.139   1.594
   18CHTO   O40 7387   5.285   8.026   1.587
   18CHTO   C68 7388   5.151   8.066   1.629
   18CHTO  H125 7389   5.159   8.133   1.718
   18CHTO   C72 7390   5.074   7.940   1.675
   18CHTO   O48 7391   5.137   7.875   1.786
   18CHTO  H105 7392   5.089   7.798   1.809
   18CHTO   O38 7393   5.413   8.075   1.399
   18CHTO   C55 7394   5.512   7.971   1.403
   18CHTO  H112 7395   5.508   7.918   1.499
   18CHTO   C56 7396   5.656   8.031   1.374
   18CHTO  H113 7397   5.650   8.088   1.280
   18CHTO   O42 7398   5.690   8.127   1.476
   18CHTO  H100 7399   5.632   8.200   1.473
   18CHTO   C57 7400   5.765   7.918   1.364
   18CHTO  H114 7401   5.780   7.880   1.465
   18CHTO   N10 7402   5.897   7.967   1.315
   18CHTO  H106 7403   5.884   8.050   1.248
   18CHTO  H107 7404   5.958   7.999   1.399
   18CHTO   C58 7405   5.716   7.801   1.274
   18CHTO  H115 7406   5.719   7.833   1.167
   18CHTO   O37 7407   5.582   7.760   1.306
   18CHTO   C59 7408   5.482   7.862   1.295
   18CHTO  H116 7409   5.484   7.906   1.194
   18CHTO   C70 7410   5.346   7.795   1.316
   18CHTO   O46 7411   5.234   7.881   1.288
   18CHTO  H103 7412   5.232   7.900   1.196
   18CHTO   O39 7413   5.817   7.665   1.295
   18CHTO   C60 7414   5.787   7.586   1.412
   18CHTO  H117 7415   5.727   7.646   1.481
   18CHTO   C62 7416   5.706   7.458   1.376
   18CHTO  H119 7417   5.616   7.492   1.321
   18CHTO   O43 7418   5.785   7.374   1.290
   18CHTO  H101 7419   5.734   7.299   1.264
   18CHTO   C66 7420   5.661   7.388   1.513
   18CHTO  H123 7421   5.598   7.458   1.568
   18CHTO   N12 7422   5.577   7.267   1.493
   18CHTO  H110 7423   5.631   7.193   1.436
   18CHTO  H111 7424   5.484   7.294   1.444
   18CHTO   C69 7425   5.783   7.357   1.603
   18CHTO  H126 7426   5.839   7.269   1.563
   18CHTO   O41 7427   5.879   7.477   1.612
   18CHTO   C64 7428   5.916   7.545   1.489
   18CHTO  H121 7429   5.978   7.479   1.426
   18CHTO   C71 7430   6.001   7.668   1.529
   18CHTO   O47 7431   6.121   7.628   1.596
   18CHTO  H104 7432   6.170   7.704   1.619
   18CHTO   O34 7433   5.735   7.322   1.753
   18CHTO   C49 7434   5.729   7.393   1.897
   18CHTO   H91 7435   5.789   7.333   1.964
   18CHTO   C47 7436   5.582   7.395   1.945
   18CHTO   H89 7437   5.584   7.432   2.049
   18CHTO   O33 7438   5.534   7.259   1.945
   18CHTO   H70 7439   5.526   7.227   1.858
   18CHTO   C45 7440   5.496   7.495   1.853
   18CHTO   H87 7441   5.503   7.461   1.749
   18CHTO    N8 7442   5.352   7.497   1.892
   18CHTO   H75 7443   5.312   7.397   1.887
   18CHTO   H76 7444   5.297   7.561   1.824
   18CHTO   C43 7445   5.562   7.642   1.856
   18CHTO   H85 7446   5.508   7.702   1.783
   18CHTO   O29 7447   5.703   7.635   1.824
   18CHTO   C50 7448   5.785   7.538   1.895
   18CHTO   H92 7449   5.882   7.534   1.844
   18CHTO   C54 7450   5.824   7.587   2.037
   18CHTO   O36 7451   5.909   7.702   2.031
   18CHTO   H72 7452   5.931   7.729   2.118
   18CHTO   O27 7453   5.544   7.709   1.982
   18CHTO   C37 7454   5.532   7.840   2.040
   18CHTO   H79 7455   5.587   7.844   2.135
   18CHTO   C38 7456   5.594   7.949   1.947
   18CHTO   H80 7457   5.549   7.939   1.847
   18CHTO   O31 7458   5.735   7.924   1.938
   18CHTO   H68 7459   5.775   7.983   1.877
   18CHTO   C39 7460   5.565   8.095   2.002
   18CHTO   H81 7461   5.624   8.107   2.092
   18CHTO    N7 7462   5.609   8.203   1.906
   18CHTO   H73 7463   5.588   8.300   1.949
   18CHTO   H74 7464   5.715   8.194   1.886
   18CHTO   C40 7465   5.414   8.112   2.043
   18CHTO   H82 7466   5.352   8.117   1.953
   18CHTO   O26 7467   5.373   8.004   2.129
   18CHTO   C41 7468   5.383   7.873   2.067
   18CHTO   H83 7469   5.328   7.872   1.972
   18CHTO   C52 7470   5.318   7.769   2.161
   18CHTO   O35 7471   5.173   7.793   2.181
   18CHTO   H71 7472   5.160   7.875   2.225
   18CHTO   O28 7473   5.394   8.232   2.120
   18CHTO   C42 7474   5.263   8.285   2.159
   18CHTO   H84 7475   5.286   8.383   2.200
   18CHTO   C44 7476   5.189   8.208   2.272
   18CHTO   H86 7477   5.165   8.107   2.236
   18CHTO   O32 7478   5.282   8.196   2.382
   18CHTO   H69 7479   5.245   8.144   2.451
   18CHTO   C48 7480   5.054   8.280   2.314
   18CHTO   H90 7481   5.080   8.374   2.362
   18CHTO    N9 7482   4.980   8.201   2.418
   18CHTO   H77 7483   5.040   8.191   2.507
   18CHTO   H78 7484   4.954   8.103   2.379
   18CHTO   C51 7485   4.965   8.310   2.188
   18CHTO   H93 7486   4.928   8.215   2.148
   18CHTO   O30 7487   5.041   8.383   2.091
   18CHTO   C46 7488   5.165   8.306   2.041
   18CHTO   H88 7489   5.133   8.209   2.002
   18CHTO   C53 7490   5.231   8.389   1.928
   18CHTO   O72 7491   5.151   8.387   1.810
   18CHTO  H199 7492   5.071   8.433   1.825
   18CHTO   O22 7493   4.854   8.397   2.222
   18CHTO   C31 7494   4.725   8.396   2.148
   18CHTO   H59 7495   4.665   8.478   2.192
   18CHTO   C29 7496   4.738   8.425   1.997
   18CHTO   H57 7497   4.809   8.353   1.955
   18CHTO   O21 7498   4.798   8.555   1.983
   18CHTO   H37 7499   4.739   8.622   2.012
   18CHTO   C27 7500   4.600   8.413   1.919
   18CHTO   H55 7501   4.534   8.494   1.953
   18CHTO    N5 7502   4.615   8.423   1.771
   18CHTO   H43 7503   4.564   8.511   1.735
   18CHTO   H44 7504   4.719   8.426   1.742
   18CHTO   C25 7505   4.531   8.278   1.958
   18CHTO   H53 7506   4.595   8.194   1.925
   18CHTO   O17 7507   4.517   8.272   2.103
   18CHTO   C32 7508   4.643   8.266   2.172
   18CHTO   H60 7509   4.700   8.180   2.136
   18CHTO   C36 7510   4.613   8.244   2.323
   18CHTO   O25 7511   4.555   8.115   2.346
   18CHTO   H40 7512   4.467   8.113   2.313
   18CHTO   O15 7513   4.385   8.260   1.896
   18CHTO   C19 7514   4.312   8.176   1.801
   18CHTO   H47 7515   4.212   8.167   1.847
   18CHTO   C20 7516   4.296   8.239   1.660
   18CHTO   H48 7517   4.393   8.257   1.612
   18CHTO   O19 7518   4.231   8.366   1.679
   18CHTO   H35 7519   4.224   8.412   1.598
   18CHTO   C21 7520   4.212   8.144   1.565
   18CHTO   H49 7521   4.113   8.129   1.609
   18CHTO    N4 7522   4.189   8.202   1.429
   18CHTO   H41 7523   4.135   8.295   1.438
   18CHTO   H42 7524   4.132   8.134   1.369
   18CHTO   C22 7525   4.284   8.007   1.561
   18CHTO   H50 7526   4.384   8.022   1.519
   18CHTO   O14 7527   4.294   7.953   1.693
   18CHTO   C23 7528   4.368   8.030   1.790
   18CHTO   H51 7529   4.474   8.028   1.760
   18CHTO   C34 7530   4.353   7.949   1.919
   18CHTO   O23 7531   4.426   8.003   2.030
   18CHTO   H38 7532   4.415   7.948   2.105
   18CHTO   O16 7533   4.211   7.906   1.487
   18CHTO   C24 7534   4.309   7.808   1.402
   18CHTO   H52 7535   4.414   7.820   1.429
   18CHTO   C26 7536   4.291   7.839   1.252
   18CHTO   H54 7537   4.182   7.831   1.227
   18CHTO   O20 7538   4.332   7.975   1.229
   18CHTO   H36 7539   4.312   8.001   1.141
   18CHTO   C30 7540   4.370   7.740   1.161
   18CHTO   H58 7541   4.477   7.764   1.169
   18CHTO    N6 7542   4.338   7.758   1.017
   18CHTO   H45 7543   4.269   7.840   1.001
   18CHTO   H46 7544   4.296   7.668   0.975
   18CHTO   C33 7545   4.355   7.592   1.208
   18CHTO   H61 7546   4.255   7.556   1.180
   18CHTO   O18 7547   4.367   7.580   1.351
   18CHTO   C28 7548   4.274   7.659   1.427
   18CHTO   H56 7549   4.171   7.640   1.394
   18CHTO   C35 7550   4.286   7.619   1.576
   18CHTO   O24 7551   4.180   7.669   1.657
   18CHTO   H39 7552   4.185   7.763   1.663
   18CHTO    O9 7553   4.447   7.504   1.139
   18CHTO   C13 7554   4.592   7.471   1.210
   18CHTO   H26 7555   4.572   7.430   1.311
   18CHTO   C11 7556   4.685   7.599   1.216
   18CHTO   H24 7557   4.637   7.672   1.283
   18CHTO    O8 7558   4.696   7.661   1.086
   18CHTO    H3 7559   4.739   7.603   1.026
   18CHTO    C9 7560   4.820   7.557   1.279
   18CHTO   H22 7561   4.795   7.515   1.377
   18CHTO    N2 7562   4.910   7.672   1.310
   18CHTO   H10 7563   4.996   7.637   1.365
   18CHTO   H11 7564   4.941   7.720   1.219
   18CHTO    C7 7565   4.888   7.446   1.192
   18CHTO   H20 7566   4.971   7.413   1.255
   18CHTO    O4 7567   4.801   7.333   1.169
   18CHTO   C14 7568   4.663   7.353   1.131
   18CHTO   H27 7569   4.610   7.259   1.157
   18CHTO   C18 7570   4.653   7.367   0.976
   18CHTO   O13 7571   4.695   7.248   0.909
   18CHTO    H7 7572   4.631   7.180   0.921
   18CHTO    O2 7573   4.944   7.503   1.044
   18CHTO    C1 7574   5.069   7.452   0.991
   18CHTO   H14 7575   5.044   7.378   0.911
   18CHTO    C2 7576   5.168   7.382   1.093
   18CHTO   H15 7577   5.172   7.447   1.182
   18CHTO    O6 7578   5.113   7.254   1.129
   18CHTO    H1 7579   5.108   7.198   1.053
   18CHTO    C3 7580   5.317   7.364   1.035
   18CHTO   H16 7581   5.315   7.289   0.954
   18CHTO    N1 7582   5.412   7.313   1.140
   18CHTO    H8 7583   5.415   7.382   1.223
   18CHTO    H9 7584   5.379   7.216   1.174
   18CHTO    C4 7585   5.365   7.498   0.969
   18CHTO   H17 7586   5.373   7.575   1.047
   18CHTO    O1 7587   5.270   7.538   0.869
   18CHTO    C5 7588   5.139   7.571   0.918
   18CHTO   H18 7589   5.149   7.653   0.990
   18CHTO   C16 7590   5.055   7.621   0.798
   18CHTO   O11 7591   5.041   7.522   0.695
   18CHTO    H5 7592   4.992   7.559   0.624
   18CHTO    O3 7593   5.488   7.486   0.894
   18CHTO    C6 7594   5.609   7.547   0.952
   18CHTO   H19 7595   5.600   7.565   1.060
   18CHTO    C8 7596   5.731   7.452   0.929
   18CHTO   H21 7597   5.739   7.432   0.822
   18CHTO    O7 7598   5.705   7.329   0.999
   18CHTO    H2 7599   5.772   7.266   0.979
   18CHTO   C12 7600   5.865   7.521   0.978
   18CHTO   H25 7601   5.855   7.533   1.088
   18CHTO    N3 7602   5.987   7.435   0.954
   18CHTO   H12 7603   6.035   7.413   1.048
   18CHTO   H13 7604   5.960   7.344   0.902
   18CHTO   C15 7605   5.878   7.664   0.914
   18CHTO   H28 7606   5.897   7.659   0.806
   18CHTO   O10 7607   5.985   7.751   0.981
   18CHTO    H4 7608   6.070   7.712   0.971
   18CHTO    O5 7609   5.760   7.741   0.938
   18CHTO   C10 7610   5.639   7.685   0.886
   18CHTO   H23 7611   5.650   7.671   0.778
   18CHTO   C17 7612   5.527   7.788   0.908
   18CHTO   O12 7613   5.552   7.909   0.837
   18CHTO    H6 7614   5.623   7.955   0.876
   19CHTO  H203 7615   5.423   9.386   0.039
   19CHTO   O82 7616   5.363   9.326   0.080
   19CHTO  C123 7617   5.359   9.202   0.007
   19CHTO  H227 7618   5.348   9.224   2.782
   19CHTO   O77 7619   5.490   9.143   0.033
   19CHTO  C118 7620   5.516   9.023   2.840
   19CHTO  H222 7621   5.505   9.043   2.733
   19CHTO  C125 7622   5.664   8.981   2.870
   19CHTO   O84 7623   5.756   9.079   2.823
   19CHTO  H205 7624   5.757   9.081   2.729
   19CHTO  C114 7625   5.417   8.912   0.000
   19CHTO  H218 7626   5.437   8.885   0.104
   19CHTO  C116 7627   5.268   8.961   2.873
   19CHTO  H220 7628   5.239   8.965   2.766
   19CHTO   O79 7629   5.185   8.861   0.052
   19CHTO  H201 7630   5.094   8.882   0.039
   19CHTO  C120 7631   5.248   9.103   0.058
   19CHTO  H224 7632   5.258   9.088   0.168
   19CHTO   N21 7633   5.111   9.155   0.034
   19CHTO  H211 7634   5.080   9.220   0.115
   19CHTO  H212 7635   5.106   9.208   2.821
   19CHTO   O75 7636   5.444   8.802   2.794
   19CHTO  C112 7637   5.489   8.659   2.862
   19CHTO  H216 7638   5.470   8.662   0.088
   19CHTO   O73 7639   5.628   8.640   2.832
   19CHTO  C113 7640   5.683   8.514   2.873
   19CHTO  H217 7641   5.663   8.499   0.100
   19CHTO  C124 7642   5.835   8.516   2.855
   19CHTO   O83 7643   5.899   8.615   0.054
   19CHTO  H204 7644   5.991   8.614   0.038
   19CHTO  C109 7645   5.616   8.401   2.791
   19CHTO  H213 7646   5.632   8.425   2.685
   19CHTO  C110 7647   5.463   8.403   2.823
   19CHTO  H214 7648   5.449   8.375   0.046
   19CHTO   O78 7649   5.397   8.302   2.744
   19CHTO  H200 7650   5.307   8.293   2.769
   19CHTO  C111 7651   5.402   8.543   2.796
   19CHTO  H215 7652   5.403   8.561   2.687
   19CHTO   N19 7653   5.260   8.553   2.839
   19CHTO  H207 7654   5.246   8.630   0.032
   19CHTO  H208 7655   5.196   8.573   2.754
   19CHTO   O74 7656   5.676   8.271   2.821
   19CHTO  C115 7657   5.673   8.170   2.689
   19CHTO  H219 7658   5.588   8.189   2.625
   19CHTO   O76 7659   5.800   8.190   2.598
   19CHTO  C122 7660   5.813   8.104   2.484
   19CHTO  H226 7661   5.919   8.107   2.456
   19CHTO  C126 7662   5.736   8.163   2.359
   19CHTO   O85 7663   5.594   8.174   2.376
   19CHTO  H206 7664   5.556   8.088   2.383
   19CHTO  C121 7665   5.776   7.952   2.509
   19CHTO  H225 7666   5.754   7.905   2.411
   19CHTO   O81 7667   5.891   7.883   2.562
   19CHTO  H202 7668   5.913   7.917   2.646
   19CHTO  C119 7669   5.652   7.933   2.602
   19CHTO  H223 7670   5.567   7.972   2.546
   19CHTO  C117 7671   5.665   8.019   2.733
   19CHTO  H221 7672   5.753   8.001   2.794
   19CHTO   N20 7673   5.549   7.997   2.826
   19CHTO  H209 7674   5.546   7.894   2.857
   19CHTO  H210 7675   5.456   8.023   2.776
   19CHTO   O80 7676   5.611   7.781   2.619
   19CHTO  C103 7677   5.550   7.704   2.499
   19CHTO  H190 7678   5.535   7.770   2.413
   19CHTO  C101 7679   5.633   7.578   2.452
   19CHTO  H188 7680   5.661   7.521   2.540
   19CHTO   O68 7681   5.763   7.627   2.383
   19CHTO  H168 7682   5.818   7.554   2.363
   19CHTO   C99 7683   5.547   7.483   2.357
   19CHTO  H186 7684   5.526   7.536   2.261
   19CHTO   N17 7685   5.616   7.354   2.322
   19CHTO  H174 7686   5.711   7.376   2.273
   19CHTO  H175 7687   5.631   7.295   2.410
   19CHTO   C97 7688   5.408   7.456   2.421
   19CHTO  H184 7689   5.424   7.397   2.513
   19CHTO   O64 7690   5.341   7.580   2.449
   19CHTO  C104 7691   5.407   7.659   2.549
   19CHTO  H191 7692   5.419   7.601   2.641
   19CHTO  C108 7693   5.317   7.778   2.586
   19CHTO   O71 7694   5.295   7.868   2.477
   19CHTO  H171 7695   5.242   7.940   2.505
   19CHTO   O62 7696   5.319   7.386   2.331
   19CHTO   C91 7697   5.216   7.306   2.393
   19CHTO  H178 7698   5.200   7.342   2.495
   19CHTO   C92 7699   5.262   7.157   2.405
   19CHTO  H179 7700   5.298   7.123   2.307
   19CHTO   O66 7701   5.377   7.151   2.492
   19CHTO  H166 7702   5.450   7.197   2.454
   19CHTO   C93 7703   5.149   7.061   2.459
   19CHTO  H180 7704   5.135   7.083   2.565
   19CHTO   N16 7705   5.185   6.917   2.453
   19CHTO  H172 7706   5.271   6.898   2.515
   19CHTO  H173 7707   5.205   6.887   2.351
   19CHTO   C94 7708   5.013   7.087   2.383
   19CHTO  H181 7709   5.018   7.055   2.279
   19CHTO   O61 7710   4.982   7.227   2.383
   19CHTO   C95 7711   5.078   7.311   2.318
   19CHTO  H182 7712   5.091   7.279   2.215
   19CHTO  C106 7713   5.024   7.459   2.314
   19CHTO   O69 7714   4.904   7.469   2.237
   19CHTO  H169 7715   4.834   7.425   2.280
   19CHTO   O63 7716   4.892   7.016   2.460
   19CHTO   C96 7717   4.812   6.915   2.373
   19CHTO  H183 7718   4.883   6.842   2.334
   19CHTO   C98 7719   4.738   6.979   2.251
   19CHTO  H185 7720   4.809   7.034   2.187
   19CHTO   O67 7721   4.687   6.873   2.168
   19CHTO  H167 7722   4.624   6.821   2.215
   19CHTO  C102 7723   4.615   7.072   2.296
   19CHTO  H189 7724   4.546   7.074   2.211
   19CHTO   N18 7725   4.651   7.214   2.320
   19CHTO  H176 7726   4.693   7.257   2.231
   19CHTO  H177 7727   4.562   7.270   2.348
   19CHTO  C105 7728   4.543   7.008   2.419
   19CHTO  H192 7729   4.573   7.059   2.511
   19CHTO   O65 7730   4.571   6.868   2.436
   19CHTO  C100 7731   4.709   6.841   2.469
   19CHTO  H187 7732   4.725   6.876   2.573
   19CHTO  C107 7733   4.728   6.687   2.470
   19CHTO   O70 7734   4.859   6.651   2.518
   19CHTO  H170 7735   4.924   6.677   2.456
   19CHTO   O57 7736   4.391   7.033   2.392
   19CHTO   C85 7737   4.296   7.010   2.498
   19CHTO  H157 7738   4.351   6.959   2.580
   19CHTO   C83 7739   4.189   6.908   2.448
   19CHTO  H155 7740   4.239   6.814   2.426
   19CHTO   O56 7741   4.133   6.954   2.323
   19CHTO  H135 7742   4.085   7.034   2.336
   19CHTO   C81 7743   4.085   6.884   2.561
   19CHTO  H153 7744   4.138   6.846   2.648
   19CHTO   N14 7745   3.986   6.777   2.528
   19CHTO  H141 7746   3.995   6.747   2.426
   19CHTO  H142 7747   4.002   6.691   2.591
   19CHTO   C79 7748   4.016   7.019   2.602
   19CHTO  H151 7749   3.952   6.998   2.689
   19CHTO   O52 7750   4.116   7.116   2.646
   19CHTO   C86 7751   4.223   7.141   2.549
   19CHTO  H158 7752   4.172   7.193   2.465
   19CHTO   C90 7753   4.324   7.244   2.606
   19CHTO   O60 7754   4.382   7.198   2.729
   19CHTO  H138 7755   4.441   7.263   2.762
   19CHTO   O50 7756   3.935   7.078   2.499
   19CHTO   C73 7757   3.803   7.120   2.462
   19CHTO  H145 7758   3.728   7.067   2.522
   19CHTO   C74 7759   3.780   7.087   2.311
   19CHTO  H146 7760   3.795   6.979   2.299
   19CHTO   O54 7761   3.642   7.112   2.281
   19CHTO  H133 7762   3.624   7.089   2.192
   19CHTO   C75 7763   3.882   7.171   2.224
   19CHTO  H147 7764   3.984   7.137   2.248
   19CHTO   N13 7765   3.868   7.149   2.078
   19CHTO  H139 7766   3.941   7.208   2.025
   19CHTO  H140 7767   3.884   7.045   2.055
   19CHTO   C76 7768   3.876   7.326   2.263
   19CHTO  H148 7769   3.782   7.368   2.225
   19CHTO   O49 7770   3.883   7.347   2.408
   19CHTO   C77 7771   3.787   7.273   2.485
   19CHTO  H149 7772   3.686   7.303   2.455
   19CHTO   C88 7773   3.801   7.314   2.632
   19CHTO   O58 7774   3.697   7.250   2.718
   19CHTO  H136 7775   3.713   7.158   2.722
   19CHTO   O51 7776   4.008   7.403   2.205
   19CHTO   C78 7777   3.997   7.559   2.216
   19CHTO  H150 7778   3.912   7.588   2.281
   19CHTO   C80 7779   3.978   7.622   2.077
   19CHTO  H152 7780   4.063   7.590   2.011
   19CHTO   O55 7781   3.856   7.569   2.023
   19CHTO  H134 7782   3.846   7.596   1.933
   19CHTO   C84 7783   3.975   7.781   2.085
   19CHTO  H156 7784   3.886   7.809   2.140
   19CHTO   N15 7785   3.965   7.845   1.949
   19CHTO  H143 7786   3.876   7.812   1.900
   19CHTO  H144 7787   3.962   7.951   1.959
   19CHTO   C87 7788   4.099   7.833   2.162
   19CHTO  H159 7789   4.189   7.815   2.104
   19CHTO   O53 7790   4.111   7.757   2.298
   19CHTO   C82 7791   4.125   7.615   2.282
   19CHTO  H154 7792   4.212   7.593   2.221
   19CHTO   C89 7793   4.151   7.553   2.422
   19CHTO   O59 7794   4.046   7.582   2.516
   19CHTO  H137 7795   4.045   7.674   2.535
   19CHTO   O45 7796   4.086   8.002   2.190
   19CHTO   C67 7797   4.071   8.042   2.328
   19CHTO  H124 7798   4.028   7.960   2.385
   19CHTO   C65 7799   4.210   8.080   2.391
   19CHTO  H122 7800   4.267   8.128   2.311
   19CHTO   O44 7801   4.273   7.957   2.428
   19CHTO  H102 7802   4.294   7.906   2.352
   19CHTO   C63 7803   4.197   8.192   2.503
   19CHTO  H120 7804   4.192   8.290   2.454
   19CHTO   N11 7805   4.316   8.212   2.592
   19CHTO  H108 7806   4.287   8.212   2.695
   19CHTO  H109 7807   4.389   8.135   2.576
   19CHTO   C61 7808   4.060   8.176   2.578
   19CHTO  H118 7809   4.053   8.259   2.650
   19CHTO   O40 7810   3.946   8.188   2.488
   19CHTO   C68 7811   3.969   8.161   2.345
   19CHTO  H125 7812   4.011   8.253   2.298
   19CHTO   C72 7813   3.833   8.133   2.277
   19CHTO   O48 7814   3.748   8.248   2.275
   19CHTO  H105 7815   3.784   8.313   2.219
   19CHTO   O38 7816   4.052   8.049   2.646
   19CHTO   C55 7817   3.955   8.039   2.752
   19CHTO  H112 7818   3.871   8.107   2.730
   19CHTO   C56 7819   4.023   8.071   0.010
   19CHTO  H113 7820   4.129   8.041   0.002
   19CHTO   O42 7821   4.025   8.213   0.028
   19CHTO  H100 7822   4.074   8.235   0.105
   19CHTO   C57 7823   3.951   8.003   0.134
   19CHTO  H114 7824   3.949   8.075   0.216
   19CHTO   N10 7825   4.025   7.886   0.189
   19CHTO  H106 7826   4.078   7.834   0.110
   19CHTO  H107 7827   3.958   7.816   0.237
   19CHTO   C58 7828   3.805   7.967   0.096
   19CHTO  H115 7829   3.758   7.912   0.182
   19CHTO   O37 7830   3.792   7.885   2.859
   19CHTO   C59 7831   3.891   7.897   2.755
   19CHTO  H116 7832   3.968   7.822   2.771
   19CHTO   C70 7833   3.825   7.861   2.620
   19CHTO   O46 7834   3.717   7.948   2.583
   19CHTO  H103 7835   3.682   7.920   2.501
   19CHTO   O39 7836   3.725   8.109   0.080
   19CHTO   C60 7837   3.600   8.101   0.009
   19CHTO  H117 7838   3.616   8.051   2.796
   19CHTO   C62 7839   3.492   8.022   0.088
   19CHTO  H119 7840   3.537   7.923   0.112
   19CHTO   O43 7841   3.460   8.088   0.212
   19CHTO  H101 7842   3.422   8.172   0.196
   19CHTO   C66 7843   3.367   7.998   2.873
   19CHTO  H123 7844   3.402   7.947   2.783
   19CHTO   N12 7845   3.264   7.909   0.050
   19CHTO  H110 7846   3.226   7.951   0.142
   19CHTO  H111 7847   3.306   7.810   0.066
   19CHTO   C69 7848   3.306   8.134   2.827
   19CHTO  H126 7849   3.248   8.181   0.028
   19CHTO   O41 7850   3.420   8.238   2.777
   19CHTO   C64 7851   3.548   8.244   2.858
   19CHTO  H121 7852   3.529   8.298   0.071
   19CHTO   C71 7853   3.653   8.326   2.778
   19CHTO   O47 7854   3.678   8.270   2.648
   19CHTO  H104 7855   3.602   8.280   2.594
   19CHTO   O34 7856   3.209   8.108   2.707
   19CHTO   C49 7857   3.234   8.109   2.551
   19CHTO   H91 7858   3.229   8.213   2.520
   19CHTO   C47 7859   3.121   8.028   2.485
   19CHTO   H89 7860   3.131   8.044   2.375
   19CHTO   O33 7861   2.994   8.084   2.527
   19CHTO   H70 7862   2.981   8.069   2.619
   19CHTO   C45 7863   3.138   7.873   2.520
   19CHTO   H87 7864   3.143   7.862   2.630
   19CHTO    N8 7865   3.026   7.789   2.470
   19CHTO   H75 7866   3.022   7.794   2.363
   19CHTO   H76 7867   2.933   7.823   2.513
   19CHTO   C43 7868   3.281   7.823   2.466
   19CHTO   H85 7869   3.292   7.719   2.498
   19CHTO   O29 7870   3.386   7.906   2.520
   19CHTO   C50 7871   3.373   8.050   2.511
   19CHTO   H92 7872   3.448   8.091   2.579
   19CHTO   C54 7873   3.423   8.100   2.372
   19CHTO   O36 7874   3.433   8.243   2.366
   19CHTO   H72 7875   3.503   8.272   2.421
   19CHTO   O27 7876   3.288   7.821   2.322
   19CHTO   C37 7877   3.320   7.771   2.192
   19CHTO   H79 7878   3.277   7.671   2.178
   19CHTO   C38 7879   3.259   7.864   2.083
   19CHTO   H80 7880   3.290   7.967   2.104
   19CHTO   O31 7881   3.116   7.856   2.095
   19CHTO   H68 7882   3.085   7.769   2.076
   19CHTO   C39 7883   3.305   7.823   1.937
   19CHTO   H81 7884   3.254   7.730   1.913
   19CHTO    N7 7885   3.265   7.924   1.833
   19CHTO   H73 7886   3.308   8.020   1.856
   19CHTO   H74 7887   3.157   7.931   1.828
   19CHTO   C40 7888   3.460   7.794   1.930
   19CHTO   H82 7889   3.517   7.887   1.927
   19CHTO   O26 7890   3.502   7.709   2.038
   19CHTO   C41 7891   3.474   7.762   2.171
   19CHTO   H83 7892   3.518   7.862   2.181
   19CHTO   C52 7893   3.540   7.670   2.276
   19CHTO   O35 7894   3.682   7.671   2.267
   19CHTO   H71 7895   3.709   7.628   2.189
   19CHTO   O28 7896   3.489   7.717   1.811
   19CHTO   C42 7897   3.622   7.700   1.753
   19CHTO   H84 7898   3.691   7.700   1.837
   19CHTO   C44 7899   3.670   7.814   1.656
   19CHTO   H86 7900   3.590   7.832   1.583
   19CHTO   O32 7901   3.685   7.934   1.734
   19CHTO   H69 7902   3.754   7.924   1.796
   19CHTO   C48 7903   3.802   7.776   1.575
   19CHTO   H90 7904   3.885   7.771   1.646
   19CHTO    N9 7905   3.839   7.882   1.475
   19CHTO   H77 7906   3.932   7.854   1.426
   19CHTO   H78 7907   3.760   7.894   1.402
   19CHTO   C51 7908   3.782   7.634   1.511
   19CHTO   H93 7909   3.694   7.639   1.446
   19CHTO   O30 7910   3.765   7.542   1.619
   19CHTO   C46 7911   3.633   7.559   1.686
   19CHTO   H88 7912   3.555   7.550   1.610
   19CHTO   C53 7913   3.615   7.447   1.791
   19CHTO   O72 7914   3.606   7.319   1.728
   19CHTO  H199 7915   3.591   7.253   1.793
   19CHTO   O22 7916   3.896   7.586   1.437
   19CHTO   C31 7917   3.881   7.499   1.319
   19CHTO   H59 7918   3.772   7.493   1.298
   19CHTO   C29 7919   3.948   7.557   1.192
   19CHTO   H57 7920   4.048   7.591   1.222
   19CHTO   O21 7921   3.875   7.676   1.155
   19CHTO   H37 7922   3.790   7.654   1.123
   19CHTO   C27 7923   3.962   7.453   1.073
   19CHTO   H55 7924   3.862   7.425   1.039
   19CHTO    N5 7925   4.037   7.507   0.957
   19CHTO   H43 7926   4.074   7.607   0.976
   19CHTO   H44 7927   4.120   7.442   0.929
   19CHTO   C25 7928   4.029   7.324   1.132
   19CHTO   H53 7929   4.125   7.351   1.179
   19CHTO   O17 7930   3.940   7.269   1.232
   19CHTO   C32 7931   3.926   7.351   1.349
   19CHTO   H60 7932   4.022   7.354   1.401
   19CHTO   C36 7933   3.824   7.278   1.440
   19CHTO   O25 7934   3.696   7.262   1.378
   19CHTO   H40 7935   3.639   7.214   1.435
   19CHTO   O15 7936   4.055   7.211   1.026
   19CHTO   C19 7937   4.121   7.082   1.041
   19CHTO   H47 7938   4.143   7.052   0.937
   19CHTO   C20 7939   4.253   7.084   1.123
   19CHTO   H48 7940   4.236   7.112   1.228
   19CHTO   O19 7941   4.338   7.183   1.063
   19CHTO   H35 7942   4.416   7.195   1.114
   19CHTO   C21 7943   4.324   6.941   1.120
   19CHTO   H49 7944   4.357   6.922   1.019
   19CHTO    N4 7945   4.445   6.933   1.207
   19CHTO   H41 7946   4.463   7.027   1.257
   19CHTO   H42 7947   4.531   6.908   1.148
   19CHTO   C22 7948   4.222   6.829   1.155
   19CHTO   H50 7949   4.203   6.826   1.262
   19CHTO   O14 7950   4.097   6.844   1.084
   19CHTO   C23 7951   4.030   6.970   1.100
   19CHTO   H51 7952   4.012   6.985   1.207
   19CHTO   C34 7953   3.894   6.963   1.029
   19CHTO   O23 7954   3.808   6.866   1.089
   19CHTO   H38 7955   3.782   6.894   1.174
   19CHTO   O16 7956   4.268   6.701   1.105
   19CHTO   C24 7957   4.267   6.575   1.207
   19CHTO   H52 7958   4.250   6.606   1.310
   19CHTO   C26 7959   4.403   6.504   1.194
   19CHTO   H54 7960   4.425   6.488   1.086
   19CHTO   O20 7961   4.505   6.592   1.247
   19CHTO   H36 7962   4.590   6.557   1.230
   19CHTO   C30 7963   4.406   6.364   1.265
   19CHTO   H58 7964   4.405   6.378   1.374
   19CHTO    N6 7965   4.531   6.290   1.234
   19CHTO   H45 7966   4.532   6.195   1.287
   19CHTO   H46 7967   4.539   6.271   1.128
   19CHTO   C33 7968   4.278   6.282   1.230
   19CHTO   H61 7969   4.281   6.253   1.123
   19CHTO   O18 7970   4.161   6.362   1.253
   19CHTO   C28 7971   4.153   6.477   1.168
   19CHTO   H56 7972   4.164   6.449   1.063
   19CHTO   C35 7973   4.014   6.543   1.186
   19CHTO   O24 7974   3.907   6.455   1.148
   19CHTO   H39 7975   3.825   6.499   1.160
   19CHTO    O9 7976   4.273   6.157   1.303
   19CHTO   C13 7977   4.190   6.037   1.230
   19CHTO   H26 7978   4.231   6.025   1.127
   19CHTO   C11 7979   4.036   6.071   1.227
   19CHTO   H24 7980   4.022   6.157   1.160
   19CHTO    O8 7981   3.992   6.110   1.358
   19CHTO    H3 7982   4.035   6.190   1.384
   19CHTO    C9 7983   3.959   5.950   1.168
   19CHTO   H22 7984   4.002   5.935   1.067
   19CHTO    N2 7985   3.816   5.978   1.142
   19CHTO   H10 7986   3.805   6.067   1.082
   19CHTO   H11 7987   3.763   5.991   1.236
   19CHTO    C7 7988   3.985   5.819   1.252
   19CHTO   H20 7989   3.944   5.738   1.188
   19CHTO    O4 7990   4.125   5.793   1.271
   19CHTO   C14 7991   4.218   5.899   1.304
   19CHTO   H27 7992   4.317   5.863   1.269
   19CHTO   C18 7993   4.228   5.916   1.458
   19CHTO   O13 7994   4.288   5.801   1.518
   19CHTO    H7 7995   4.291   5.812   1.611
   19CHTO    O2 7996   3.906   5.815   1.402
   19CHTO    C1 7997   3.847   5.686   1.429
   19CHTO   H14 7998   3.908   5.607   1.380
   19CHTO    C2 7999   3.697   5.672   1.378
   19CHTO   H15 8000   3.642   5.756   1.423
   19CHTO    O6 8001   3.692   5.684   1.235
   19CHTO    H1 8002   3.741   5.615   1.195
   19CHTO    C3 8003   3.631   5.532   1.424
   19CHTO   H16 8004   3.676   5.454   1.362
   19CHTO    N1 8005   3.482   5.527   1.400
   19CHTO    H8 8006   3.428   5.514   1.492
   19CHTO    H9 8007   3.448   5.616   1.349
   19CHTO    C4 8008   3.668   5.495   1.573
   19CHTO   H17 8009   3.605   5.552   1.641
   19CHTO    O1 8010   3.807   5.519   1.603
   19CHTO    C5 8011   3.848   5.655   1.581
   19CHTO   H18 8012   3.777   5.722   1.629
   19CHTO   C16 8013   3.986   5.675   1.648
   19CHTO   O11 8014   4.086   5.587   1.596
   19CHTO    H5 8015   4.067   5.498   1.620
   19CHTO    O3 8016   3.646   5.353   1.591
   19CHTO    C6 8017   3.650   5.298   1.727
   19CHTO   H19 8018   3.715   5.355   1.794
   19CHTO    C8 8019   3.506   5.292   1.788
   19CHTO   H21 8020   3.440   5.245   1.715
   19CHTO    O7 8021   3.463   5.428   1.810
   19CHTO    H2 8022   3.375   5.429   1.841
   19CHTO   C12 8023   3.503   5.209   1.923
   19CHTO   H25 8024   3.553   5.272   2.000
   19CHTO    N3 8025   3.362   5.187   1.969
   19CHTO   H12 8026   3.315   5.282   1.990
   19CHTO   H13 8027   3.306   5.132   1.895
   19CHTO   C15 8028   3.583   5.074   1.909
   19CHTO   H28 8029   3.528   5.000   1.851
   19CHTO   O10 8030   3.619   5.013   2.047
   19CHTO    H4 8031   3.652   4.925   2.036
   19CHTO    O5 8032   3.713   5.095   1.851
   19CHTO   C10 8033   3.708   5.154   1.720
   19CHTO   H23 8034   3.643   5.093   1.656
   19CHTO   C17 8035   3.848   5.151   1.657
   19CHTO   O12 8036   3.890   5.016   1.632
   19CHTO    H6 8037   3.904   4.971   1.713
   20CHTO  H203 8038   4.680   0.016   2.261
   20CHTO   O82 8039   4.749   0.077   2.282
   20CHTO  C123 8040   4.704   0.211   2.257
   20CHTO  H227 8041   4.614   0.230   2.318
   20CHTO   O77 8042   4.815   0.291   2.307
   20CHTO  C118 8043   4.795   0.433   2.300
   20CHTO  H222 8044   4.702   0.459   2.355
   20CHTO  C125 8045   4.916   0.504   2.371
   20CHTO   O84 8046   5.041   0.473   2.308
   20CHTO  H205 8047   5.111   0.518   2.352
   20CHTO  C114 8048   4.779   0.476   2.153
   20CHTO  H218 8049   4.870   0.448   2.099
   20CHTO  C116 8050   4.661   0.399   2.086
   20CHTO  H220 8051   4.566   0.432   2.132
   20CHTO   O79 8052   4.654   0.437   1.947
   20CHTO  H201 8053   4.730   0.409   1.901
   20CHTO  C120 8054   4.679   0.242   2.104
   20CHTO  H224 8055   4.768   0.213   2.045
   20CHTO   N21 8056   4.563   0.166   2.050
   20CHTO  H211 8057   4.550   0.073   2.103
   20CHTO  H212 8058   4.472   0.224   2.057
   20CHTO   O75 8059   4.762   0.618   2.155
   20CHTO  C112 8060   4.852   0.695   2.043
   20CHTO  H216 8061   4.836   0.647   1.945
   20CHTO   O73 8062   4.990   0.686   2.084
   20CHTO  C113 8063   5.082   0.740   1.989
   20CHTO  H217 8064   5.066   0.691   1.890
   20CHTO  C124 8065   5.225   0.707   2.035
   20CHTO   O83 8066   5.251   0.566   2.038
   20CHTO  H204 8067   5.250   0.532   1.950
   20CHTO  C109 8068   5.060   0.893   1.975
   20CHTO  H213 8069   5.086   0.938   2.072
   20CHTO  C110 8070   4.911   0.923   1.940
   20CHTO  H214 8071   4.894   0.894   1.837
   20CHTO   O78 8072   4.890   1.066   1.948
   20CHTO  H200 8073   4.938   1.110   1.880
   20CHTO  C111 8074   4.811   0.847   2.033
   20CHTO  H215 8075   4.817   0.890   2.134
   20CHTO   N19 8076   4.670   0.860   1.989
   20CHTO  H207 8077   4.605   0.808   2.057
   20CHTO  H208 8078   4.658   0.820   1.889
   20CHTO   O74 8079   5.148   0.947   1.872
   20CHTO  C115 8080   5.250   1.063   1.920
   20CHTO  H219 8081   5.248   1.077   2.028
   20CHTO   O76 8082   5.399   1.027   1.886
   20CHTO  C122 8083   5.413   0.992   1.748
   20CHTO  H226 8084   5.364   0.896   1.733
   20CHTO  C126 8085   5.565   0.966   1.720
   20CHTO   O85 8086   5.589   0.917   1.588
   20CHTO  H206 8087   5.681   0.900   1.577
   20CHTO  C121 8088   5.351   1.102   1.650
   20CHTO  H225 8089   5.429   1.132   1.576
   20CHTO   O81 8090   5.244   1.042   1.576
   20CHTO  H202 8091   5.215   1.101   1.509
   20CHTO  C119 8092   5.303   1.230   1.727
   20CHTO  H223 8093   5.396   1.271   1.770
   20CHTO  C117 8094   5.206   1.196   1.847
   20CHTO  H221 8095   5.103   1.178   1.818
   20CHTO   N20 8096   5.198   1.313   1.942
   20CHTO  H209 8097   5.222   1.284   2.043
   20CHTO  H210 8098   5.100   1.358   1.938
   20CHTO   O80 8099   5.257   1.352   1.629
   20CHTO  C103 8100   5.119   1.341   1.544
   20CHTO  H190 8101   5.091   1.237   1.527
   20CHTO  C101 8102   4.995   1.418   1.603
   20CHTO  H188 8103   5.026   1.519   1.630
   20CHTO   O68 8104   4.947   1.345   1.730
   20CHTO  H168 8105   4.880   1.396   1.772
   20CHTO   C99 8106   4.876   1.428   1.496
   20CHTO  H186 8107   4.840   1.325   1.474
   20CHTO   N17 8108   4.759   1.506   1.545
   20CHTO  H174 8109   4.673   1.442   1.559
   20CHTO  H175 8110   4.783   1.559   1.637
   20CHTO   C97 8111   4.929   1.483   1.361
   20CHTO  H184 8112   4.959   1.588   1.375
   20CHTO   O64 8113   5.040   1.402   1.315
   20CHTO  C104 8114   5.154   1.403   1.403
   20CHTO  H191 8115   5.192   1.504   1.416
   20CHTO  C108 8116   5.269   1.324   1.337
   20CHTO   O71 8117   5.313   1.384   1.215
   20CHTO  H171 8118   5.357   1.465   1.234
   20CHTO   O62 8119   4.832   1.471   1.254
   20CHTO   C91 8120   4.815   1.583   1.164
   20CHTO  H178 8121   4.898   1.651   1.179
   20CHTO   C92 8122   4.684   1.661   1.199
   20CHTO  H179 8123   4.603   1.587   1.214
   20CHTO   O66 8124   4.702   1.724   1.327
   20CHTO  H166 8125   4.622   1.760   1.358
   20CHTO   C93 8126   4.641   1.772   1.095
   20CHTO  H180 8127   4.703   1.861   1.115
   20CHTO   N16 8128   4.501   1.817   1.113
   20CHTO  H172 8129   4.433   1.733   1.102
   20CHTO  H173 8130   4.489   1.862   1.210
   20CHTO   C94 8131   4.667   1.727   0.946
   20CHTO  H181 8132   4.593   1.656   0.911
   20CHTO   O61 8133   4.796   1.665   0.933
   20CHTO   C95 8134   4.812   1.547   1.011
   20CHTO  H182 8135   4.730   1.478   0.990
   20CHTO  C106 8136   4.944   1.476   0.967
   20CHTO   O69 8137   4.936   1.435   0.830
   20CHTO  H169 8138   5.017   1.394   0.805
   20CHTO   O63 8139   4.668   1.857   0.853
   20CHTO   C96 8140   4.686   1.830   0.701
   20CHTO  H183 8141   4.676   1.722   0.683
   20CHTO   C98 8142   4.825   1.875   0.646
   20CHTO  H185 8143   4.846   1.977   0.682
   20CHTO   O67 8144   4.925   1.791   0.705
   20CHTO  H167 8145   5.011   1.820   0.680
   20CHTO  C102 8146   4.832   1.871   0.485
   20CHTO  H189 8147   4.831   1.764   0.458
   20CHTO   N18 8148   4.958   1.925   0.427
   20CHTO  H176 8149   5.042   1.867   0.462
   20CHTO  H177 8150   4.970   2.028   0.456
   20CHTO  C105 8151   4.705   1.938   0.425
   20CHTO  H192 8152   4.708   2.045   0.449
   20CHTO   O65 8153   4.585   1.883   0.482
   20CHTO  C100 8154   4.572   1.903   0.623
   20CHTO  H187 8155   4.578   2.011   0.644
   20CHTO  C107 8156   4.432   1.855   0.669
   20CHTO   O70 8157   4.328   1.933   0.610
   20CHTO  H170 8158   4.245   1.901   0.638
   20CHTO   O57 8159   4.705   1.918   0.258
   20CHTO   C85 8160   4.691   1.788   0.198
   20CHTO  H157 8161   4.701   1.714   0.280
   20CHTO   C83 8162   4.811   1.762   0.102
   20CHTO  H155 8163   4.903   1.770   0.160
   20CHTO   O56 8164   4.817   1.867   0.003
   20CHTO  H135 8165   4.832   1.950   0.043
   20CHTO   C81 8166   4.800   1.619   0.044
   20CHTO  H153 8167   4.797   1.548   0.127
   20CHTO   N14 8168   4.920   1.578   2.848
   20CHTO  H141 8169   4.911   1.476   2.817
   20CHTO  H142 8170   5.008   1.589   0.025
   20CHTO   C79 8171   4.665   1.603   2.845
   20CHTO  H151 8172   4.655   1.498   2.819
   20CHTO   O52 8173   4.550   1.635   0.049
   20CHTO   C86 8174   4.558   1.765   0.116
   20CHTO  H158 8175   4.549   1.838   0.033
   20CHTO   C90 8176   4.432   1.785   0.204
   20CHTO   O60 8177   4.425   1.688   0.308
   20CHTO  H138 8178   4.409   1.603   0.272
   20CHTO   O50 8179   4.660   1.679   2.723
   20CHTO   C73 8180   4.620   1.723   2.592
   20CHTO  H145 8181   4.708   1.763   2.540
   20CHTO   C74 8182   4.511   1.834   2.598
   20CHTO  H146 8183   4.552   1.916   2.660
   20CHTO   O54 8184   4.496   1.887   2.465
   20CHTO  H133 8185   4.433   1.957   2.465
   20CHTO   C75 8186   4.378   1.775   2.659
   20CHTO  H147 8187   4.397   1.747   2.764
   20CHTO   N13 8188   4.267   1.873   2.667
   20CHTO  H139 8189   4.182   1.841   2.608
   20CHTO  H140 8190   4.298   1.970   2.632
   20CHTO   C76 8191   4.336   1.640   2.581
   20CHTO  H148 8192   4.307   1.670   2.480
   20CHTO   O49 8193   4.448   1.547   2.572
   20CHTO   C77 8194   4.565   1.604   2.510
   20CHTO  H149 8195   4.539   1.639   2.410
   20CHTO   C88 8196   4.672   1.496   2.489
   20CHTO   O58 8197   4.632   1.401   2.384
   20CHTO  H136 8198   4.635   1.443   2.300
   20CHTO   O51 8199   4.211   1.555   2.658
   20CHTO   C78 8200   4.222   1.526   2.821
   20CHTO  H150 8201   4.283   1.603   2.871
   20CHTO   C80 8202   4.283   1.387   2.849
   20CHTO  H152 8203   4.224   1.310   2.794
   20CHTO   O55 8204   4.417   1.386   2.797
   20CHTO  H134 8205   4.454   1.300   2.804
   20CHTO   C84 8206   4.281   1.353   0.122
   20CHTO  H156 8207   4.348   1.423   0.172
   20CHTO   N15 8208   4.332   1.215   0.153
   20CHTO  H143 8209   4.273   1.142   0.102
   20CHTO  H144 8210   4.434   1.206   0.121
   20CHTO   C87 8211   4.138   1.373   0.178
   20CHTO  H159 8212   4.071   1.298   0.134
   20CHTO   O53 8213   4.090   1.512   0.141
   20CHTO   C82 8214   4.080   1.533   2.882
   20CHTO  H154 8215   4.014   1.458   2.837
   20CHTO   C89 8216   4.012   1.670   2.862
   20CHTO   O59 8217   3.969   1.691   2.727
   20CHTO  H137 8218   3.895   1.636   2.709
   20CHTO   O45 8219   4.129   1.355   0.347
   20CHTO   C67 8220   4.193   1.460   0.423
   20CHTO  H124 8221   4.278   1.500   0.368
   20CHTO   C65 8222   4.092   1.575   0.453
   20CHTO  H122 8223   4.039   1.594   0.360
   20CHTO   O44 8224   4.164   1.694   0.490
   20CHTO  H102 8225   4.105   1.766   0.498
   20CHTO   C63 8226   3.984   1.525   0.555
   20CHTO  H120 8227   3.941   1.432   0.516
   20CHTO   N11 8228   3.863   1.612   0.571
   20CHTO  H108 8229   3.877   1.706   0.521
   20CHTO  H109 8230   3.776   1.564   0.530
   20CHTO   C61 8231   4.056   1.488   0.689
   20CHTO  H118 8232   3.979   1.444   0.755
   20CHTO   O40 8233   4.155   1.384   0.666
   20CHTO   C68 8234   4.253   1.398   0.557
   20CHTO  H125 8235   4.287   1.296   0.533
   20CHTO   C72 8236   4.378   1.476   0.607
   20CHTO   O48 8237   4.446   1.409   0.714
   20CHTO  H105 8238   4.392   1.408   0.791
   20CHTO   O38 8239   4.121   1.598   0.757
   20CHTO   C55 8240   4.057   1.654   0.874
   20CHTO  H112 8241   3.954   1.615   0.884
   20CHTO   C56 8242   4.059   1.812   0.865
   20CHTO  H113 8243   4.165   1.842   0.853
   20CHTO   O42 8244   3.991   1.855   0.746
   20CHTO  H100 8245   3.998   1.948   0.736
   20CHTO   C57 8246   3.997   1.877   0.995
   20CHTO  H114 8247   3.891   1.850   0.997
   20CHTO   N10 8248   4.005   2.025   0.998
   20CHTO  H106 8249   4.009   2.062   1.099
   20CHTO  H107 8250   4.093   2.059   0.945
   20CHTO   C58 8251   4.065   1.815   1.120
   20CHTO  H115 8252   4.172   1.848   1.124
   20CHTO   O37 8253   4.062   1.671   1.118
   20CHTO   C59 8254   4.130   1.613   1.005
   20CHTO  H116 8255   4.234   1.648   1.003
   20CHTO   C70 8256   4.136   1.460   1.024
   20CHTO   O46 8257   4.008   1.399   1.037
   20CHTO  H103 8258   4.018   1.306   1.048
   20CHTO   O39 8259   3.985   1.861   1.256
   20CHTO   C60 8260   4.066   1.869   1.375
   20CHTO  H117 8261   4.123   1.777   1.386
   20CHTO   C62 8262   4.165   1.989   1.373
   20CHTO  H119 8263   4.234   1.972   1.287
   20CHTO   O43 8264   4.093   2.112   1.349
   20CHTO  H101 8265   4.056   2.112   1.263
   20CHTO   C66 8266   4.251   1.992   1.508
   20CHTO  H123 8267   4.303   1.897   1.519
   20CHTO   N12 8268   4.359   2.095   1.507
   20CHTO  H110 8269   4.360   2.149   1.413
   20CHTO  H111 8270   4.349   2.163   1.590
   20CHTO   C69 8271   4.156   2.006   1.630
   20CHTO  H126 8272   4.101   2.103   1.624
   20CHTO   O41 8273   4.053   1.888   1.627
   20CHTO   C64 8274   3.972   1.879   1.499
   20CHTO  H121 8275   3.909   1.970   1.489
   20CHTO   C71 8276   3.878   1.757   1.508
   20CHTO   O47 8277   3.784   1.773   1.614
   20CHTO  H104 8278   3.726   1.700   1.616
   20CHTO   O34 8279   4.235   2.002   1.769
   20CHTO   C49 8280   4.276   1.872   1.839
   20CHTO   H91 8281   4.292   1.800   1.758
   20CHTO   C47 8282   4.161   1.820   1.929
   20CHTO   H89 8283   4.086   1.778   1.858
   20CHTO   O33 8284   4.099   1.929   2.000
   20CHTO   H70 8285   4.020   1.900   2.041
   20CHTO   C45 8286   4.212   1.710   2.036
   20CHTO   H87 8287   4.230   1.763   2.132
   20CHTO    N8 8288   4.108   1.606   2.061
   20CHTO   H75 8289   4.067   1.617   2.160
   20CHTO   H76 8290   4.029   1.612   1.987
   20CHTO   C43 8291   4.356   1.652   1.997
   20CHTO   H85 8292   4.383   1.579   2.073
   20CHTO   O29 8293   4.449   1.762   1.992
   20CHTO   C50 8294   4.408   1.881   1.922
   20CHTO   H92 8295   4.397   1.963   1.995
   20CHTO   C54 8296   4.526   1.929   1.834
   20CHTO   O36 8297   4.561   1.832   1.734
   20CHTO   H72 8298   4.631   1.865   1.681
   20CHTO   O27 8299   4.354   1.583   1.871
   20CHTO   C37 8300   4.336   1.469   1.786
   20CHTO   H79 8301   4.264   1.400   1.830
   20CHTO   C38 8302   4.280   1.513   1.647
   20CHTO   H80 8303   4.342   1.595   1.609
   20CHTO   O31 8304   4.147   1.563   1.670
   20CHTO   H68 8305   4.111   1.598   1.591
   20CHTO   C39 8306   4.280   1.393   1.544
   20CHTO   H81 8307   4.208   1.320   1.579
   20CHTO    N7 8308   4.237   1.435   1.406
   20CHTO   H73 8309   4.236   1.350   1.340
   20CHTO   H74 8310   4.303   1.511   1.367
   20CHTO   C40 8311   4.422   1.323   1.541
   20CHTO   H82 8312   4.496   1.388   1.495
   20CHTO   O26 8313   4.459   1.285   1.675
   20CHTO   C41 8314   4.472   1.397   1.768
   20CHTO   H83 8315   4.546   1.469   1.730
   20CHTO   C52 8316   4.526   1.341   1.902
   20CHTO   O35 8317   4.662   1.283   1.888
   20CHTO   H71 8318   4.724   1.350   1.867
   20CHTO   O28 8319   4.419   1.198   1.467
   20CHTO   C42 8320   4.540   1.128   1.421
   20CHTO   H84 8321   4.501   1.032   1.387
   20CHTO   C44 8322   4.649   1.094   1.527
   20CHTO   H86 8323   4.689   1.188   1.566
   20CHTO   O32 8324   4.585   1.024   1.635
   20CHTO   H69 8325   4.528   1.082   1.683
   20CHTO   C48 8326   4.769   1.008   1.469
   20CHTO   H90 8327   4.730   0.907   1.454
   20CHTO    N9 8328   4.882   0.993   1.567
   20CHTO   H77 8329   4.860   1.042   1.661
   20CHTO   H78 8330   4.975   1.031   1.526
   20CHTO   C51 8331   4.820   1.059   1.328
   20CHTO   H93 8332   4.887   1.144   1.342
   20CHTO   O30 8333   4.711   1.092   1.241
   20CHTO   C46 8334   4.610   1.193   1.298
   20CHTO   H88 8335   4.664   1.282   1.330
   20CHTO   C53 8336   4.510   1.229   1.186
   20CHTO   O72 8337   4.576   1.290   1.075
   20CHTO  H199 8338   4.630   1.227   1.031
   20CHTO   O22 8339   4.888   0.951   1.260
   20CHTO   C31 8340   5.009   0.958   1.175
   20CHTO   H59 8341   4.998   0.874   1.103
   20CHTO   C29 8342   5.030   1.086   1.092
   20CHTO   H57 8343   5.047   1.170   1.162
   20CHTO   O21 8344   4.909   1.116   1.021
   20CHTO   H37 8345   4.892   1.050   0.956
   20CHTO   C27 8346   5.157   1.072   0.997
   20CHTO   H55 8347   5.135   0.994   0.922
   20CHTO    N5 8348   5.187   1.198   0.925
   20CHTO   H43 8349   5.174   1.185   0.818
   20CHTO   H44 8350   5.288   1.233   0.945
   20CHTO   C25 8351   5.282   1.020   1.078
   20CHTO   H53 8352   5.317   1.100   1.145
   20CHTO   O17 8353   5.248   0.905   1.160
   20CHTO   C32 8354   5.141   0.929   1.254
   20CHTO   H60 8355   5.165   1.015   1.316
   20CHTO   C36 8356   5.129   0.806   1.348
   20CHTO   O25 8357   5.090   0.687   1.279
   20CHTO   H40 8358   5.157   0.660   1.220
   20CHTO   O15 8359   5.404   0.977   0.977
   20CHTO   C19 8360   5.511   1.051   0.910
   20CHTO   H47 8361   5.462   1.144   0.876
   20CHTO   C20 8362   5.630   1.091   1.002
   20CHTO   H48 8363   5.683   1.002   1.041
   20CHTO   O19 8364   5.575   1.162   1.115
   20CHTO   H35 8365   5.525   1.104   1.169
   20CHTO   C21 8366   5.735   1.182   0.926
   20CHTO   H49 8367   5.688   1.278   0.905
   20CHTO    N4 8368   5.855   1.210   1.008
   20CHTO   H41 8369   5.924   1.272   0.952
   20CHTO   H42 8370   5.827   1.262   1.098
   20CHTO   C22 8371   5.772   1.120   0.787
   20CHTO   H50 8372   5.841   1.036   0.800
   20CHTO   O14 8373   5.655   1.075   0.716
   20CHTO   C23 8374   5.568   0.982   0.783
   20CHTO   H51 8375   5.627   0.892   0.807
   20CHTO   C34 8376   5.459   0.943   0.682
   20CHTO   O23 8377   5.379   0.834   0.729
   20CHTO   H38 8378   5.314   0.813   0.665
   20CHTO   O16 8379   5.824   1.218   0.695
   20CHTO   C24 8380   5.985   1.238   0.691
   20CHTO   H52 8381   6.034   1.186   0.773
   20CHTO   C26 8382   6.021   1.388   0.696
   20CHTO   H54 8383   5.976   1.438   0.607
   20CHTO   O20 8384   5.963   1.453   0.810
   20CHTO   H36 8385   5.994   1.413   0.890
   20CHTO   C30 8386   6.176   1.411   0.695
   20CHTO   H58 8387   6.212   1.421   0.799
   20CHTO    N6 8388   6.213   1.539   0.630
   20CHTO   H45 8389   6.275   1.523   0.543
   20CHTO   H46 8390   6.265   1.603   0.699
   20CHTO   C33 8391   6.252   1.288   0.637
   20CHTO   H61 8392   6.352   1.316   0.599
   20CHTO   O18 8393   6.176   1.230   0.528
   20CHTO   C28 8394   6.044   1.179   0.558
   20CHTO   H56 8395   5.977   1.205   0.476
   20CHTO   C35 8396   6.049   1.025   0.566
   20CHTO   O24 8397   6.093   0.965   0.444
   20CHTO   H39 8398   6.098   0.872   0.454
   20CHTO    O9 8399   6.274   1.193   0.742
   20CHTO   C13 8400   6.416   1.123   0.768
   20CHTO   H26 8401   6.475   1.192   0.833
   20CHTO   C11 8402   6.495   1.088   0.634
   20CHTO   H24 8403   6.528   1.182   0.588
   20CHTO    O8 8404   6.409   1.020   0.540
   20CHTO    H3 8405   6.341   1.078   0.511
   20CHTO    C9 8406   6.619   1.004   0.675
   20CHTO   H22 8407   6.669   1.063   0.754
   20CHTO    N2 8408   6.721   0.994   0.568
   20CHTO   H10 8409   6.684   0.933   0.487
   20CHTO   H11 8410   6.812   0.952   0.608
   20CHTO    C7 8411   6.572   0.866   0.740
   20CHTO   H20 8412   6.641   0.853   0.826
   20CHTO    O4 8413   6.436   0.871   0.788
   20CHTO   C14 8414   6.395   0.991   0.856
   20CHTO   H27 8415   6.455   1.000   0.949
   20CHTO   C18 8416   6.247   0.972   0.899
   20CHTO   O13 8417   6.232   0.868   0.996
   20CHTO    H7 8418   6.248   0.784   0.956
   20CHTO    O2 8419   6.586   0.735   0.639
   20CHTO    C1 8420   6.569   0.609   0.707
   20CHTO   H14 8421   6.519   0.626   0.804
   20CHTO    C2 8422   6.706   0.535   0.733
   20CHTO   H15 8423   6.758   0.529   0.636
   20CHTO    O6 8424   6.784   0.615   0.825
   20CHTO    H1 8425   6.869   0.577   0.835
   20CHTO    C3 8426   6.681   0.387   0.791
   20CHTO   H16 8427   6.634   0.395   0.891
   20CHTO    N1 8428   6.808   0.309   0.807
   20CHTO    H8 8429   6.874   0.361   0.875
   20CHTO    H9 8430   6.786   0.210   0.847
   20CHTO    C4 8431   6.576   0.313   0.701
   20CHTO   H17 8432   6.620   0.296   0.602
   20CHTO    O1 8433   6.456   0.392   0.688
   20CHTO    C5 8434   6.473   0.519   0.624
   20CHTO   H18 8435   6.515   0.505   0.524
   20CHTO   C16 8436   6.330   0.577   0.611
   20CHTO   O11 8437   6.326   0.698   0.535
   20CHTO    H5 8438   6.238   0.730   0.531
   20CHTO    O3 8439   6.532   0.188   0.758
   20CHTO    C6 8440   6.479   0.093   0.660
   20CHTO   H19 8441   6.461   0.138   0.562
   20CHTO    C8 8442   6.580   9.974   0.639
   20CHTO   H21 8443   6.598   9.927   0.735
   20CHTO    O7 8444   6.703   0.030   0.589
   20CHTO    H2 8445   6.691   0.069   0.505
   20CHTO   C12 8446   6.517   9.868   0.539
   20CHTO   H25 8447   6.511   9.918   0.440
   20CHTO    N3 8448   6.607   9.749   0.522
   20CHTO   H12 8449   6.621   9.699   0.617
   20CHTO   H13 8450   6.566   9.681   0.449
   20CHTO   C15 8451   6.372   9.829   0.585
   20CHTO   H28 8452   6.374   9.767   0.674
   20CHTO   O10 8453   6.292   9.756   0.473
   20CHTO    H4 8454   6.211   9.724   0.507
   20CHTO    O5 8455   6.291   9.946   0.608
   20CHTO   C10 8456   6.344   0.034   0.708
   20CHTO   H23 8457   6.359   9.976   0.799
   20CHTO   C17 8458   6.239   0.141   0.742
   20CHTO   O12 8459   6.204   0.222   0.630
   20CHTO    H6 8460   6.277   0.276   0.606
   21GLOH   H03 8461   3.364   8.606   0.949
   21GLOH    O1 8462   3.327   8.620   1.041
   21GLOH    C1 8463   3.412   8.713   1.110
   21GLOH   H02 8464   3.462   8.779   1.039
   21GLOH   H08 8465   3.491   8.659   1.163
   21GLOH    C2 8466   3.335   8.798   1.212
   21GLOH   H04 8467   3.282   8.732   1.281
   21GLOH    O2 8468   3.429   8.880   1.286
   21GLOH   H05 8469   3.394   8.894   1.379
   21GLOH    C3 8470   3.233   8.888   1.139
   21GLOH   H06 8471   3.179   8.829   1.066
   21GLOH   H07 8472   3.290   8.961   1.082
   21GLOH    O3 8473   3.142   8.955   1.227
   21GLOH   H01 8474   3.094   8.885   1.279
   22GLOH   H03 8475   4.287   8.842   2.648
   22GLOH    O1 8476   4.204   8.799   2.619
   22GLOH    C1 8477   4.126   8.765   2.736
   22GLOH   H02 8478   4.190   8.757   2.824
   22GLOH   H08 8479   4.082   8.666   2.723
   22GLOH    C2 8480   4.012   8.864   2.768
   22GLOH   H04 8481   3.972   8.837   2.867
   22GLOH    O2 8482   4.059   9.001   2.775
   22GLOH   H05 8483   4.108   9.020   2.693
   22GLOH    C3 8484   3.898   8.849   2.666
   22GLOH   H06 8485   3.939   8.868   2.567
   22GLOH   H07 8486   3.824   8.927   2.685
   22GLOH    O3 8487   3.837   8.720   2.673
   22GLOH   H01 8488   3.810   8.691   2.582
   23GLOH   H03 8489   3.268   8.506   1.118
   23GLOH    O1 8490   3.229   8.431   1.171
   23GLOH    C1 8491   3.085   8.436   1.160
   23GLOH   H02 8492   3.039   8.366   1.230
   23GLOH   H08 8493   3.054   8.405   1.060
   23GLOH    C2 8494   3.028   8.577   1.187
   23GLOH   H04 8495   3.080   8.648   1.122
   23GLOH    O2 8496   2.888   8.577   1.153
   23GLOH   H05 8497   2.839   8.642   1.211
   23GLOH    C3 8498   3.048   8.618   1.334
   23GLOH   H06 8499   3.147   8.587   1.365
   23GLOH   H07 8500   2.977   8.563   1.395
   23GLOH    O3 8501   3.031   8.760   1.354
   23GLOH   H01 8502   3.036   8.775   1.452
   24GLOH   H03 8503   2.949   0.172   1.572
   24GLOH    O1 8504   2.876   0.184   1.505
   24GLOH    C1 8505   2.760   0.114   1.553
   24GLOH   H02 8506   2.679   0.119   1.480
   24GLOH   H08 8507   2.722   0.160   1.644
   24GLOH    C2 8508   2.789   9.966   1.582
   24GLOH   H04 8509   2.865   9.960   1.661
   24GLOH    O2 8510   2.668   9.903   1.629
   24GLOH   H05 8511   2.695   9.828   1.689
   24GLOH    C3 8512   2.844   9.895   1.456
   24GLOH   H06 8513   2.919   9.959   1.410
   24GLOH   H07 8514   2.763   9.885   1.384
   24GLOH    O3 8515   2.901   9.767   1.486
   24GLOH   H01 8516   2.828   9.702   1.505
   25GLOH   H03 8517   3.408   9.556   0.902
   25GLOH    O1 8518   3.474   9.552   0.976
   25GLOH    C1 8519   3.574   9.654   0.958
   25GLOH   H02 8520   3.542   9.726   0.882
   25GLOH   H08 8521   3.667   9.610   0.922
   25GLOH    C2 8522   3.606   9.730   1.088
   25GLOH   H04 8523   3.511   9.760   1.135
   25GLOH    O2 8524   3.678   9.647   1.182
   25GLOH   H05 8525   3.647   9.552   1.175
   25GLOH    C3 8526   3.685   9.859   1.055
   25GLOH   H06 8527   3.769   9.831   0.992
   25GLOH   H07 8528   3.727   9.899   1.147
   25GLOH    O3 8529   3.604   9.959   0.990
   25GLOH   H01 8530   3.610   9.948   0.891
   26GLOH   H03 8531   4.542   0.812   1.149
   26GLOH    O1 8532   4.483   0.834   1.226
   26GLOH    C1 8533   4.490   0.724   1.318
   26GLOH   H02 8534   4.463   0.757   1.419
   26GLOH   H08 8535   4.593   0.686   1.323
   26GLOH    C2 8536   4.399   0.607   1.278
   26GLOH   H04 8537   4.302   0.653   1.253
   26GLOH    O2 8538   4.446   0.535   1.161
   26GLOH   H05 8539   4.411   0.581   1.079
   26GLOH    C3 8540   4.375   0.511   1.395
   26GLOH   H06 8541   4.472   0.485   1.439
   26GLOH   H07 8542   4.332   0.418   1.357
   26GLOH    O3 8543   4.289   0.569   1.494
   26GLOH   H01 8544   4.196   0.565   1.459
   27GLOH   H03 8545   3.130   9.115   1.219
   27GLOH    O1 8546   3.099   9.209   1.220
   27GLOH    C1 8547   3.167   9.289   1.121
   27GLOH   H02 8548   3.271   9.304   1.150
   27GLOH   H08 8549   3.122   9.389   1.118
   27GLOH    C2 8550   3.163   9.232   0.977
   27GLOH   H04 8551   3.157   9.317   0.907
   27GLOH    O2 8552   3.283   9.157   0.948
   27GLOH   H05 8553   3.357   9.219   0.921
   27GLOH    C3 8554   3.038   9.145   0.957
   27GLOH   H06 8555   2.951   9.204   0.985
   27GLOH   H07 8556   3.042   9.061   1.026
   27GLOH    O3 8557   3.022   9.095   0.823
   27GLOH   H01 8558   3.105   9.046   0.797
   28GLOH   H03 8559   4.560   0.263   1.643
   28GLOH    O1 8560   4.593   0.356   1.654
   28GLOH    C1 8561   4.724   0.366   1.593
   28GLOH   H02 8562   4.715   0.359   1.485
   28GLOH   H08 8563   4.786   0.282   1.626
   28GLOH    C2 8564   4.797   0.497   1.629
   28GLOH   H04 8565   4.819   0.496   1.737
   28GLOH    O2 8566   4.922   0.505   1.556
   28GLOH   H05 8567   4.992   0.535   1.616
   28GLOH    C3 8568   4.709   0.619   1.598
   28GLOH   H06 8569   4.701   0.629   1.490
   28GLOH   H07 8570   4.759   0.708   1.635
   28GLOH    O3 8571   4.579   0.605   1.658
   28GLOH   H01 8572   4.564   0.506   1.658
   29GLOH   H03 8573   4.212   0.917   1.436
   29GLOH    O1 8574   4.160   0.927   1.521
   29GLOH    C1 8575   4.222   0.859   1.631
   29GLOH   H02 8576   4.330   0.853   1.617
   29GLOH   H08 8577   4.185   0.756   1.638
   29GLOH    C2 8578   4.194   0.930   1.765
   29GLOH   H04 8579   4.085   0.944   1.774
   29GLOH    O2 8580   4.240   0.853   1.878
   29GLOH   H05 8581   4.302   0.781   1.846
   29GLOH    C3 8582   4.261   1.069   1.763
   29GLOH   H06 8583   4.245   1.114   1.665
   29GLOH   H07 8584   4.368   1.055   1.775
   29GLOH    O3 8585   4.212   1.158   1.865
   29GLOH   H01 8586   4.226   1.118   1.955
   30GLOH   H03 8587   2.881   9.191   0.501
   30GLOH    O1 8588   2.876   9.168   0.404
   30GLOH    C1 8589   2.807   9.043   0.391
   30GLOH   H02 8590   2.794   9.017   0.286
   30GLOH   H08 8591   2.708   9.050   0.435
   30GLOH    C2 8592   2.881   8.927   0.461
   30GLOH   H04 8593   2.886   8.950   0.569
   30GLOH    O2 8594   2.808   8.804   0.443
   30GLOH   H05 8595   2.755   8.788   0.526
   30GLOH    C3 8596   3.026   8.914   0.409
   30GLOH   H06 8597   3.063   9.013   0.384
   30GLOH   H07 8598   3.024   8.857   0.316
   30GLOH    O3 8599   3.113   8.851   0.504
   30GLOH   H01 8600   3.124   8.755   0.479
   31GLOH   H03 8601   3.775   0.850   1.793
   31GLOH    O1 8602   3.816   0.865   1.703
   31GLOH    C1 8603   3.770   0.989   1.647
   31GLOH   H02 8604   3.734   1.057   1.725
   31GLOH   H08 8605   3.686   0.972   1.581
   31GLOH    C2 8606   3.882   1.059   1.567
   31GLOH   H04 8607   3.969   1.069   1.634
   31GLOH    O2 8608   3.921   0.979   1.453
   31GLOH   H05 8609   4.014   0.949   1.473
   31GLOH    C3 8610   3.841   1.200   1.524
   31GLOH   H06 8611   3.751   1.191   1.463
   31GLOH   H07 8612   3.919   1.241   1.460
   31GLOH    O3 8613   3.816   1.288   1.635
   31GLOH   H01 8614   3.889   1.278   1.703
   32GLOH   H03 8615   3.369   0.416   0.092
   32GLOH    O1 8616   3.337   0.430   0.184
   32GLOH    C1 8617   3.374   0.561   0.231
   32GLOH   H02 8618   3.343   0.574   0.335
   32GLOH   H08 8619   3.324   0.638   0.173
   32GLOH    C2 8620   3.526   0.586   0.224
   32GLOH   H04 8621   3.562   0.557   0.124
   32GLOH    O2 8622   3.552   0.727   0.245
   32GLOH   H05 8623   3.651   0.741   0.235
   32GLOH    C3 8624   3.599   0.502   0.330
   32GLOH   H06 8625   3.557   0.402   0.330
   32GLOH   H07 8626   3.580   0.545   0.429
   32GLOH    O3 8627   3.741   0.496   0.306
   32GLOH   H01 8628   3.773   0.586   0.279
   33GLOH   H03 8629   3.164   9.433   2.811
   33GLOH    O1 8630   3.209   9.469   2.730
   33GLOH    C1 8631   3.110   9.489   2.627
   33GLOH   H02 8632   3.029   9.551   2.665
   33GLOH   H08 8633   3.064   9.393   2.600
   33GLOH    C2 8634   3.163   9.553   2.498
   33GLOH   H04 8635   3.082   9.552   2.423
   33GLOH    O2 8636   3.201   9.690   2.524
   33GLOH   H05 8637   3.230   9.734   2.440
   33GLOH    C3 8638   3.281   9.470   2.442
   33GLOH   H06 8639   3.253   9.365   2.447
   33GLOH   H07 8640   3.366   9.483   2.508
   33GLOH    O3 8641   3.318   9.504   2.307
   33GLOH   H01 8642   3.408   9.545   2.307
   34GLOH   H03 8643   3.180   9.613   0.893
   34GLOH    O1 8644   3.111   9.632   0.962
   34GLOH    C1 8645   3.176   9.663   1.087
   34GLOH   H02 8646   3.271   9.610   1.096
   34GLOH   H08 8647   3.114   9.626   1.169
   34GLOH    C2 8648   3.200   9.813   1.111
   34GLOH   H04 8649   3.102   9.862   1.119
   34GLOH    O2 8650   3.272   9.831   1.236
   34GLOH   H05 8651   3.222   9.790   1.313
   34GLOH    C3 8652   3.280   9.882   0.998
   34GLOH   H06 8653   3.369   9.821   0.980
   34GLOH   H07 8654   3.316   9.978   1.036
   34GLOH    O3 8655   3.210   9.902   0.874
   34GLOH   H01 8656   3.114   9.923   0.894
   35GLOH   H03 8657   4.349   0.899   1.254
   35GLOH    O1 8658   4.260   0.927   1.291
   35GLOH    C1 8659   4.197   1.023   1.204
   35GLOH   H02 8660   4.271   1.086   1.155
   35GLOH   H08 8661   4.133   1.089   1.263
   35GLOH    C2 8662   4.110   0.957   1.095
   35GLOH   H04 8663   4.047   0.881   1.143
   35GLOH    O2 8664   4.021   1.054   1.034
   35GLOH   H05 8665   3.943   1.066   1.095
   35GLOH    C3 8666   4.198   0.885   0.990
   35GLOH   H06 8667   4.132   0.828   0.925
   35GLOH   H07 8668   4.259   0.813   1.045
   35GLOH    O3 8669   4.283   0.970   0.911
   35GLOH   H01 8670   4.224   1.030   0.859
   36GLOH   H03 8671   3.682   1.079   2.625
   36GLOH    O1 8672   3.683   0.982   2.604
   36GLOH    C1 8673   3.714   0.909   2.724
   36GLOH   H02 8674   3.640   0.928   2.801
   36GLOH   H08 8675   3.811   0.941   2.763
   36GLOH    C2 8676   3.719   0.757   2.698
   36GLOH   H04 8677   3.791   0.737   2.617
   36GLOH    O2 8678   3.764   0.691   2.819
   36GLOH   H05 8679   3.810   0.605   2.795
   36GLOH    C3 8680   3.580   0.708   2.654
   36GLOH   H06 8681   3.538   0.780   2.583
   36GLOH   H07 8682   3.514   0.710   2.741
   36GLOH    O3 8683   3.580   0.576   2.596
   36GLOH   H01 8684   3.633   0.579   2.514
   37GLOH   H03 8685   3.706   0.705   1.899
   37GLOH    O1 8686   3.733   0.796   1.927
   37GLOH    C1 8687   3.739   0.803   2.070
   37GLOH   H02 8688   3.729   0.704   2.115
   37GLOH   H08 8689   3.655   0.863   2.108
   37GLOH    C2 8690   3.870   0.867   2.120
   37GLOH   H04 8691   3.876   0.967   2.077
   37GLOH    O2 8692   3.869   0.877   2.264
   37GLOH   H05 8693   3.801   0.943   2.290
   37GLOH    C3 8694   3.990   0.786   2.067
   37GLOH   H06 8695   3.984   0.786   1.958
   37GLOH   H07 8696   3.979   0.682   2.097
   37GLOH    O3 8697   4.119   0.836   2.108
   37GLOH   H01 8698   4.177   0.832   2.027
   38GLOH   H03 8699   2.923   9.281   2.008
   38GLOH    O1 8700   2.983   9.328   1.943
   38GLOH    C1 8701   3.053   9.228   1.868
   38GLOH   H02 8702   3.063   9.137   1.927
   38GLOH   H08 8703   3.154   9.262   1.844
   38GLOH    C2 8704   2.982   9.191   1.737
   38GLOH   H04 8705   2.983   9.278   1.671
   38GLOH    O2 8706   3.054   9.082   1.676
   38GLOH   H05 8707   3.018   9.065   1.585
   38GLOH    C3 8708   2.835   9.152   1.766
   38GLOH   H06 8709   2.791   9.230   1.828
   38GLOH   H07 8710   2.835   9.061   1.826
   38GLOH    O3 8711   2.755   9.136   1.648
   38GLOH   H01 8712   2.815   9.108   1.573
   39GLOH   H03 8713   4.216   8.735   2.471
   39GLOH    O1 8714   4.236   8.702   2.380
   39GLOH    C1 8715   4.238   8.558   2.381
   39GLOH   H02 8716   4.152   8.519   2.436
   39GLOH   H08 8717   4.327   8.522   2.433
   39GLOH    C2 8718   4.237   8.495   2.240
   39GLOH   H04 8719   4.257   8.387   2.251
   39GLOH    O2 8720   4.110   8.512   2.175
   39GLOH   H05 8721   4.096   8.609   2.152
   39GLOH    C3 8722   4.349   8.554   2.152
   39GLOH   H06 8723   4.342   8.508   2.053
   39GLOH   H07 8724   4.445   8.528   2.194
   39GLOH    O3 8725   4.336   8.697   2.141
   39GLOH   H01 8726   4.297   8.727   2.227
   40GLOH   H03 8727   3.109   8.597   0.348
   40GLOH    O1 8728   3.145   8.612   0.440
   40GLOH    C1 8729   3.109   8.499   0.521
   40GLOH   H02 8730   3.003   8.477   0.510
   40GLOH   H08 8731   3.125   8.522   0.626
   40GLOH    C2 8732   3.189   8.370   0.487
   40GLOH   H04 8733   3.142   8.288   0.544
   40GLOH    O2 8734   3.181   8.337   0.346
   40GLOH   H05 8735   3.230   8.407   0.293
   40GLOH    C3 8736   3.335   8.380   0.533
   40GLOH   H06 8737   3.381   8.465   0.483
   40GLOH   H07 8738   3.388   8.291   0.499
   40GLOH    O3 8739   3.348   8.394   0.675
   40GLOH   H01 8740   3.296   8.323   0.721
   41GLOH   H03 8741   3.108   0.161   0.096
   41GLOH    O1 8742   3.200   0.149   0.127
   41GLOH    C1 8743   3.201   0.083   0.256
   41GLOH   H02 8744   3.281   0.008   0.258
   41GLOH   H08 8745   3.108   0.030   0.272
   41GLOH    C2 8746   3.222   0.179   0.375
   41GLOH   H04 8747   3.218   0.119   0.467
   41GLOH    O2 8748   3.351   0.245   0.369
   41GLOH   H05 8749   3.348   0.310   0.293
   41GLOH    C3 8750   3.109   0.282   0.381
   41GLOH   H06 8751   3.109   0.341   0.289
   41GLOH   H07 8752   3.128   0.351   0.463
   41GLOH    O3 8753   2.981   0.218   0.399
   41GLOH   H01 8754   2.977   0.185   0.493
   42GLOH   H03 8755   3.249   0.800   2.761
   42GLOH    O1 8756   3.199   0.735   2.708
   42GLOH    C1 8757   3.175   0.788   2.576
   42GLOH   H02 8758   3.269   0.799   2.521
   42GLOH   H08 8759   3.130   0.887   2.582
   42GLOH    C2 8760   3.081   0.698   2.492
   42GLOH   H04 8761   2.986   0.689   2.547
   42GLOH    O2 8762   3.054   0.757   2.363
   42GLOH   H05 8763   3.135   0.763   2.309
   42GLOH    C3 8764   3.141   0.556   2.478
   42GLOH   H06 8765   3.158   0.516   2.578
   42GLOH   H07 8766   3.239   0.565   2.431
   42GLOH    O3 8767   3.057   0.467   2.402
   42GLOH   H01 8768   2.963   0.489   2.422
   43GLOH   H03 8769   2.496   0.564   1.341
   43GLOH    O1 8770   2.568   0.538   1.404
   43GLOH    C1 8771   2.573   0.394   1.404
   43GLOH   H02 8772   2.497   0.354   1.472
   43GLOH   H08 8773   2.670   0.360   1.442
   43GLOH    C2 8774   2.551   0.334   1.264
   43GLOH   H04 8775   2.630   0.371   1.198
   43GLOH    O2 8776   2.561   0.190   1.269
   43GLOH   H05 8777   2.659   0.169   1.264
   43GLOH    C3 8778   2.416   0.380   1.207
   43GLOH   H06 8779   2.336   0.342   1.272
   43GLOH   H07 8780   2.402   0.333   1.110
   43GLOH    O3 8781   2.409   0.523   1.197
   43GLOH   H01 8782   2.428   0.547   1.102
   44GLOH   H03 8783   3.442   0.290   1.674
   44GLOH    O1 8784   3.475   0.224   1.608
   44GLOH    C1 8785   3.362   0.186   1.527
   44GLOH   H02 8786   3.316   0.274   1.481
   44GLOH   H08 8787   3.285   0.140   1.588
   44GLOH    C2 8788   3.400   0.087   1.415
   44GLOH   H04 8789   3.433   9.993   1.462
   44GLOH    O2 8790   3.284   0.062   1.334
   44GLOH   H05 8791   3.290   9.970   1.293
   44GLOH    C3 8792   3.514   0.142   1.329
   44GLOH   H06 8793   3.478   0.227   1.271
   44GLOH   H07 8794   3.543   0.065   1.256
   44GLOH    O3 8795   3.627   0.179   1.410
   44GLOH   H01 8796   3.584   0.216   1.493
   45GLOH   H03 8797   3.699   9.742   1.930
   45GLOH    O1 8798   3.714   9.778   2.022
   45GLOH    C1 8799   3.692   9.666   2.111
   45GLOH   H02 8800   3.788   9.631   2.149
   45GLOH   H08 8801   3.647   9.582   2.058
   45GLOH    C2 8802   3.602   9.702   2.231
   45GLOH   H04 8803   3.511   9.750   2.192
   45GLOH    O2 8804   3.565   9.582   2.303
   45GLOH   H05 8805   3.646   9.530   2.321
   45GLOH    C3 8806   3.673   9.801   2.324
   45GLOH   H06 8807   3.754   9.750   2.376
   45GLOH   H07 8808   3.603   9.835   2.400
   45GLOH    O3 8809   3.724   9.914   2.251
   45GLOH   H01 8810   3.748   9.881   2.162
   46GLOH   H03 8811   3.540   8.432   1.986
   46GLOH    O1 8812   3.511   8.516   2.032
   46GLOH    C1 8813   3.426   8.587   1.940
   46GLOH   H02 8814   3.346   8.639   1.993
   46GLOH   H08 8815   3.378   8.517   1.871
   46GLOH    C2 8816   3.503   8.690   1.855
   46GLOH   H04 8817   3.580   8.635   1.798
   46GLOH    O2 8818   3.416   8.756   1.760
   46GLOH   H05 8819   3.359   8.825   1.808
   46GLOH    C3 8820   3.576   8.790   1.946
   46GLOH   H06 8821   3.632   8.859   1.882
   46GLOH   H07 8822   3.651   8.735   2.004
   46GLOH    O3 8823   3.488   8.862   2.033
   46GLOH   H01 8824   3.494   8.958   2.006
   47GLOH   H03 8825   3.138   9.642   0.403
   47GLOH    O1 8826   3.083   9.709   0.355
   47GLOH    C1 8827   3.112   9.694   0.214
   47GLOH   H02 8828   3.114   9.588   0.188
   47GLOH   H08 8829   3.211   9.734   0.192
   47GLOH    C2 8830   3.011   9.765   0.122
   47GLOH   H04 8831   3.010   9.872   0.148
   47GLOH    O2 8832   3.050   9.749   2.866
   47GLOH   H05 8833   3.143   9.776   2.853
   47GLOH    C3 8834   2.870   9.707   0.146
   47GLOH   H06 8835   2.850   9.708   0.254
   47GLOH   H07 8836   2.871   9.603   0.115
   47GLOH    O3 8837   2.765   9.777   0.077
   47GLOH   H01 8838   2.711   9.709   0.028
   48GLOH   H03 8839   2.780   9.195   2.557
   48GLOH    O1 8840   2.835   9.125   2.600
   48GLOH    C1 8841   2.902   9.183   2.715
   48GLOH   H02 8842   2.872   9.287   2.728
   48GLOH   H08 8843   3.010   9.184   2.698
   48GLOH    C2 8844   2.876   9.109   2.848
   48GLOH   H04 8845   2.922   9.170   0.045
   48GLOH    O2 8846   2.735   9.100   2.880
   48GLOH   H05 8847   2.703   9.192   0.016
   48GLOH    C3 8848   2.946   8.972   2.851
   48GLOH   H06 8849   2.934   8.925   2.754
   48GLOH   H07 8850   2.895   8.909   0.042
   48GLOH    O3 8851   3.086   8.984   0.003
   48GLOH   H01 8852   3.131   8.899   2.863
   49GLOH   H03 8853   3.977   0.268   1.009
   49GLOH    O1 8854   4.049   0.328   1.042
   49GLOH    C1 8855   3.994   0.409   1.147
   49GLOH   H02 8856   4.005   0.358   1.243
   49GLOH   H08 8857   3.888   0.428   1.132
   49GLOH    C2 8858   4.069   0.544   1.155
   49GLOH   H04 8859   4.175   0.518   1.168
   49GLOH    O2 8860   4.055   0.618   1.032
   49GLOH   H05 8861   3.958   0.621   1.007
   49GLOH    C3 8862   4.024   0.627   1.277
   49GLOH   H06 8863   3.918   0.648   1.267
   49GLOH   H07 8864   4.076   0.722   1.274
   49GLOH    O3 8865   4.053   0.560   1.401
   49GLOH   H01 8866   4.000   0.604   1.473
   50GLOH   H03 8867   4.604   0.189   1.243
   50GLOH    O1 8868   4.577   0.093   1.242
   50GLOH    C1 8869   4.645   0.026   1.134
   50GLOH   H02 8870   4.750   0.010   1.159
   50GLOH   H08 8871   4.643   0.088   1.044
   50GLOH    C2 8872   4.582   9.890   1.102
   50GLOH   H04 8873   4.478   9.907   1.070
   50GLOH    O2 8874   4.654   9.827   0.993
   50GLOH   H05 8875   4.615   9.736   0.978
   50GLOH    C3 8876   4.578   9.800   1.227
   50GLOH   H06 8877   4.527   9.854   1.307
   50GLOH   H07 8878   4.681   9.784   1.260
   50GLOH    O3 8879   4.514   9.673   1.205
   50GLOH   H01 8880   4.488   9.634   1.292
   51GLOH   H03 8881   3.021   9.470   1.908
   51GLOH    O1 8882   3.035   9.566   1.887
   51GLOH    C1 8883   2.930   9.616   1.802
   51GLOH   H02 8884   2.904   9.543   1.726
   51GLOH   H08 8885   2.963   9.706   1.749
   51GLOH    C2 8886   2.804   9.651   1.883
   51GLOH   H04 8887   2.834   9.709   1.972
   51GLOH    O2 8888   2.712   9.729   1.804
   51GLOH   H05 8889   2.626   9.677   1.794
   51GLOH    C3 8890   2.738   9.520   1.932
   51GLOH   H06 8891   2.807   9.474   2.002
   51GLOH   H07 8892   2.728   9.452   1.848
   51GLOH    O3 8893   2.612   9.540   1.997
   51GLOH   H01 8894   2.545   9.564   1.928
   52GLOH   H03 8895   2.416   8.750   2.187
   52GLOH    O1 8896   2.403   8.848   2.186
   52GLOH    C1 8897   2.428   8.899   2.054
   52GLOH   H02 8898   2.335   8.923   2.004
   52GLOH   H08 8899   2.479   8.824   1.992
   52GLOH    C2 8900   2.515   9.026   2.060
   52GLOH   H04 8901   2.459   9.102   2.116
   52GLOH    O2 8902   2.639   8.999   2.129
   52GLOH   H05 8903   2.614   8.960   2.216
   52GLOH    C3 8904   2.541   9.080   1.919
   52GLOH   H06 8905   2.594   9.004   1.861
   52GLOH   H07 8906   2.608   9.166   1.927
   52GLOH    O3 8907   2.420   9.119   1.853
   52GLOH   H01 8908   2.440   9.131   1.756
   53GLOH   H03 8909   3.647   8.389   1.618
   53GLOH    O1 8910   3.718   8.451   1.647
   53GLOH    C1 8911   3.797   8.494   1.534
   53GLOH   H02 8912   3.861   8.413   1.499
   53GLOH   H08 8913   3.864   8.575   1.563
   53GLOH    C2 8914   3.713   8.545   1.415
   53GLOH   H04 8915   3.784   8.579   1.337
   53GLOH    O2 8916   3.634   8.438   1.358
   53GLOH   H05 8917   3.696   8.376   1.312
   53GLOH    C3 8918   3.628   8.666   1.457
   53GLOH   H06 8919   3.577   8.643   1.550
   53GLOH   H07 8920   3.550   8.681   1.382
   53GLOH    O3 8921   3.707   8.786   1.471
   53GLOH   H01 8922   3.713   8.828   1.382
   54GLOH   H03 8923   4.104   8.627   1.557
   54GLOH    O1 8924   4.095   8.629   1.458
   54GLOH    C1 8925   4.096   8.767   1.416
   54GLOH   H02 8926   4.197   8.799   1.393
   54GLOH   H08 8927   4.059   8.832   1.496
   54GLOH    C2 8928   4.008   8.790   1.291
   54GLOH   H04 8929   3.904   8.769   1.320
   54GLOH    O2 8930   4.017   8.928   1.250
   54GLOH   H05 8931   3.974   8.941   1.160
   54GLOH    C3 8932   4.046   8.693   1.178
   54GLOH   H06 8933   4.146   8.717   1.143
   54GLOH   H07 8934   3.977   8.708   1.095
   54GLOH    O3 8935   4.039   8.557   1.224
   54GLOH   H01 8936   4.065   8.561   1.319
   55GLOH   H03 8937   4.462   0.645   1.748
   55GLOH    O1 8938   4.391   0.658   1.817
   55GLOH    C1 8939   4.312   0.536   1.822
   55GLOH   H02 8940   4.377   0.449   1.829
   55GLOH   H08 8941   4.254   0.525   1.731
   55GLOH    C2 8942   4.215   0.534   1.942
   55GLOH   H04 8943   4.150   0.622   1.934
   55GLOH    O2 8944   4.133   0.416   1.941
   55GLOH   H05 8945   4.085   0.407   2.028
   55GLOH    C3 8946   4.295   0.544   2.074
   55GLOH   H06 8947   4.353   0.453   2.085
   55GLOH   H07 8948   4.224   0.548   2.157
   55GLOH    O3 8949   4.379   0.660   2.075
   55GLOH   H01 8950   4.413   0.671   1.983
   56GLOH   H03 8951   2.853   8.446   2.708
   56GLOH    O1 8952   2.900   8.471   2.625
   56GLOH    C1 8953   2.856   8.396   2.510
   56GLOH   H02 8954   2.768   8.336   2.534
   56GLOH   H08 8955   2.934   8.326   2.479
   56GLOH    C2 8956   2.825   8.488   2.391
   56GLOH   H04 8957   2.915   8.547   2.369
   56GLOH    O2 8958   2.788   8.413   2.273
   56GLOH   H05 8959   2.786   8.315   2.291
   56GLOH    C3 8960   2.712   8.586   2.430
   56GLOH   H06 8961   2.739   8.634   2.524
   56GLOH   H07 8962   2.622   8.528   2.449
   56GLOH    O3 8963   2.686   8.686   2.330
   56GLOH   H01 8964   2.736   8.768   2.354
   57GLOH   H03 8965   2.655   9.493   2.848
   57GLOH    O1 8966   2.630   9.587   2.866
   57GLOH    C1 8967   2.515   9.586   0.071
   57GLOH   H02 8968   2.427   9.552   0.017
   57GLOH   H08 8969   2.494   9.687   0.107
   57GLOH    C2 8970   2.537   9.494   0.193
   57GLOH   H04 8971   2.625   9.532   0.248
   57GLOH    O2 8972   2.424   9.495   0.281
   57GLOH   H05 8973   2.453   9.449   0.366
   57GLOH    C3 8974   2.568   9.351   0.146
   57GLOH   H06 8975   2.485   9.316   0.083
   57GLOH   H07 8976   2.571   9.285   0.233
   57GLOH    O3 8977   2.692   9.343   0.074
   57GLOH   H01 8978   2.765   9.361   0.139
   58GLOH   H03 8979   3.533   9.453   1.075
   58GLOH    O1 8980   3.587   9.411   1.147
   58GLOH    C1 8981   3.582   9.268   1.135
   58GLOH   H02 8982   3.480   9.233   1.122
   58GLOH   H08 8983   3.620   9.221   1.226
   58GLOH    C2 8984   3.667   9.216   1.017
   58GLOH   H04 8985   3.770   9.248   1.037
   58GLOH    O2 8986   3.666   9.072   1.009
   58GLOH   H05 8987   3.585   9.042   0.958
   58GLOH    C3 8988   3.624   9.283   0.884
   58GLOH   H06 8989   3.676   9.233   0.803
   58GLOH   H07 8990   3.661   9.386   0.885
   58GLOH    O3 8991   3.482   9.282   0.859
   58GLOH   H01 8992   3.468   9.323   0.769
   59GLOH   H03 8993   4.193   9.807   0.809
   59GLOH    O1 8994   4.147   9.883   0.853
   59GLOH    C1 8995   4.114   9.978   0.751
   59GLOH   H02 8996   4.044   9.935   0.679
   59GLOH   H08 8997   4.203   0.006   0.695
   59GLOH    C2 8998   4.051   0.106   0.808
   59GLOH   H04 8999   4.122   0.149   0.880
   59GLOH    O2 9000   4.028   0.201   0.701
   59GLOH   H05 9001   4.012   0.291   0.741
   59GLOH    C3 9002   3.920   0.074   0.883
   59GLOH   H06 9003   3.939   9.994   0.955
   59GLOH   H07 9004   3.849   0.034   0.811
   59GLOH    O3 9005   3.864   0.189   0.950
   59GLOH   H01 9006   3.824   0.162   1.037
   60GLOH   H03 9007   2.786   0.073   1.901
   60GLOH    O1 9008   2.849   0.144   1.871
   60GLOH    C1 9009   2.782   0.272   1.880
   60GLOH   H02 9010   2.676   0.261   1.854
   60GLOH   H08 9011   2.825   0.342   1.808
   60GLOH    C2 9012   2.791   0.333   2.021
   60GLOH   H04 9013   2.725   0.422   2.022
   60GLOH    O2 9014   2.744   0.240   2.121
   60GLOH   H05 9015   2.765   0.149   2.091
   60GLOH    C3 9016   2.934   0.382   2.051
   60GLOH   H06 9017   3.002   0.298   2.041
   60GLOH   H07 9018   2.938   0.415   2.155
   60GLOH    O3 9019   2.974   0.489   1.963
   60GLOH   H01 9020   2.948   0.576   2.005
   61GLOH   H03 9021   3.300   9.969   1.707
   61GLOH    O1 9022   3.288   9.877   1.673
   61GLOH    C1 9023   3.244   9.797   1.785
   61GLOH   H02 9024   3.329   9.767   1.846
   61GLOH   H08 9025   3.197   9.706   1.750
   61GLOH    C2 9026   3.144   9.873   1.875
   61GLOH   H04 9027   3.057   9.904   1.815
   61GLOH    O2 9028   3.100   9.789   1.984
   61GLOH   H05 9029   3.078   9.698   1.950
   61GLOH    C3 9030   3.210   9.998   1.935
   61GLOH   H06 9031   3.284   9.966   2.008
   61GLOH   H07 9032   3.134   0.054   1.990
   61GLOH    O3 9033   3.270   0.084   1.835
   61GLOH   H01 9034   3.337   0.138   1.884
   62GLOH   H03 9035   4.009   9.544   1.435
   62GLOH    O1 9036   3.950   9.506   1.364
   62GLOH    C1 9037   3.840   9.441   1.430
   62GLOH   H02 9038   3.761   9.419   1.359
   62GLOH   H08 9039   3.797   9.508   1.506
   62GLOH    C2 9040   3.883   9.310   1.498
   62GLOH   H04 9041   3.973   9.330   1.559
   62GLOH    O2 9042   3.777   9.264   1.585
   62GLOH   H05 9043   3.714   9.204   1.533
   62GLOH    C3 9044   3.919   9.205   1.391
   62GLOH   H06 9045   3.993   9.249   1.324
   62GLOH   H07 9046   3.830   9.185   1.331
   62GLOH    O3 9047   3.970   9.082   1.446
   62GLOH   H01 9048   3.990   9.021   1.369
   63GLOH   H03 9049   4.576   0.786   0.952
   63GLOH    O1 9050   4.626   0.766   1.036
   63GLOH    C1 9051   4.765   0.740   1.010
   63GLOH   H02 9052   4.815   0.711   1.103
   63GLOH   H08 9053   4.814   0.831   0.975
   63GLOH    C2 9054   4.787   0.628   0.906
   63GLOH   H04 9055   4.746   0.662   0.810
   63GLOH    O2 9056   4.929   0.605   0.892
   63GLOH   H05 9057   4.942   0.517   0.847
   63GLOH    C3 9058   4.713   0.500   0.948
   63GLOH   H06 9059   4.609   0.525   0.970
   63GLOH   H07 9060   4.757   0.464   1.041
   63GLOH    O3 9061   4.718   0.396   0.848
   63GLOH   H01 9062   4.636   0.341   0.855
   64GLOH   H03 9063   4.121   0.274   2.495
   64GLOH    O1 9064   4.127   0.194   2.439
   64GLOH    C1 9065   4.060   0.083   2.502
   64GLOH   H02 9066   4.051  10.000   2.433
   64GLOH   H08 9067   3.958   0.111   2.531
   64GLOH    C2 9068   4.132   0.033   2.629
   64GLOH   H04 9069   4.134   0.115   2.702
   64GLOH    O2 9070   4.061   9.921   2.687
   64GLOH   H05 9071   3.975   9.949   2.723
   64GLOH    C3 9072   4.277   9.993   2.597
   64GLOH   H06 9073   4.330   0.080   2.560
   64GLOH   H07 9074   4.276   9.919   2.517
   64GLOH    O3 9075   4.342   9.940   2.714
   64GLOH   H01 9076   4.280   9.872   2.748
   65GLOH   H03 9077   3.614   8.190   0.988
   65GLOH    O1 9078   3.675   8.259   0.950
   65GLOH    C1 9079   3.598   8.352   0.872
   65GLOH   H02 9080   3.493   8.346   0.899
   65GLOH   H08 9081   3.605   8.328   0.766
   65GLOH    C2 9082   3.646   8.497   0.893
   65GLOH   H04 9083   3.625   8.525   0.997
   65GLOH    O2 9084   3.788   8.507   0.868
   65GLOH   H05 9085   3.829   8.429   0.912
   65GLOH    C3 9086   3.568   8.591   0.800
   65GLOH   H06 9087   3.596   8.569   0.697
   65GLOH   H07 9088   3.599   8.693   0.821
   65GLOH    O3 9089   3.426   8.581   0.817
   65GLOH   H01 9090   3.393   8.509   0.755
   66GLOH   H03 9091   3.802   8.693   0.150
   66GLOH    O1 9092   3.738   8.676   0.223
   66GLOH    C1 9093   3.757   8.771   0.329
   66GLOH   H02 9094   3.717   8.868   0.301
   66GLOH   H08 9095   3.863   8.786   0.349
   66GLOH    C2 9096   3.688   8.727   0.460
   66GLOH   H04 9097   3.730   8.630   0.491
   66GLOH    O2 9098   3.713   8.824   0.564
   66GLOH   H05 9099   3.767   8.781   0.637
   66GLOH    C3 9100   3.537   8.710   0.435
   66GLOH   H06 9101   3.494   8.807   0.409
   66GLOH   H07 9102   3.489   8.676   0.527
   66GLOH    O3 9103   3.516   8.616   0.328
   66GLOH   H01 9104   3.599   8.621   0.273
   67GLOH   H03 9105   4.072   0.573   2.409
   67GLOH    O1 9106   4.004   0.504   2.432
   67GLOH    C1 9107   3.897   0.520   2.337
   67GLOH   H02 9108   3.905   0.615   2.285
   67GLOH   H08 9109   3.802   0.523   2.390
   67GLOH    C2 9110   3.892   0.407   2.233
   67GLOH   H04 9111   3.823   0.437   2.153
   67GLOH    O2 9112   4.022   0.383   2.174
   67GLOH   H05 9113   4.082   0.358   2.248
   67GLOH    C3 9114   3.835   0.281   2.301
   67GLOH   H06 9115   3.893   0.261   2.390
   67GLOH   H07 9116   3.849   0.195   2.235
   67GLOH    O3 9117   3.697   0.298   2.336
   67GLOH   H01 9118   3.676   0.240   2.413
   68GLOH   H03 9119   2.603   9.336   2.491
   68GLOH    O1 9120   2.698   9.312   2.492
   68GLOH    C1 9121   2.775   9.420   2.434
   68GLOH   H02 9122   2.870   9.382   2.397
   68GLOH   H08 9123   2.800   9.493   2.512
   68GLOH    C2 9124   2.707   9.496   2.318
   68GLOH   H04 9125   2.777   9.574   2.284
   68GLOH    O2 9126   2.679   9.409   2.206
   68GLOH   H05 9127   2.646   9.465   2.129
   68GLOH    C3 9128   2.578   9.566   2.366
   68GLOH   H06 9129   2.507   9.490   2.398
   68GLOH   H07 9130   2.533   9.618   2.281
   68GLOH    O3 9131   2.605   9.658   2.472
   68GLOH   H01 9132   2.652   9.737   2.435
   69GLOH   H03 9133   4.166   0.991   2.127
   69GLOH    O1 9134   4.223   1.069   2.104
   69GLOH    C1 9135   4.361   1.030   2.123
   69GLOH   H02 9136   4.426   1.088   2.057
   69GLOH   H08 9137   4.375   0.925   2.096
   69GLOH    C2 9138   4.407   1.051   2.268
   69GLOH   H04 9139   4.339   0.996   2.335
   69GLOH    O2 9140   4.541   1.001   2.284
   69GLOH   H05 9141   4.541   0.903   2.285
   69GLOH    C3 9142   4.401   1.200   2.304
   69GLOH   H06 9143   4.470   1.255   2.240
   69GLOH   H07 9144   4.435   1.213   2.407
   69GLOH    O3 9145   4.267   1.251   2.288
   69GLOH   H01 9146   4.227   1.202   2.213
   70GLOH   H03 9147   3.390   8.551   0.273
   70GLOH    O1 9148   3.318   8.510   0.219
   70GLOH    C1 9149   3.313   8.577   0.092
   70GLOH   H02 9150   3.289   8.506   0.013
   70GLOH   H08 9151   3.411   8.618   0.067
   70GLOH    C2 9152   3.210   8.691   0.088
   70GLOH   H04 9153   3.223   8.753   0.179
   70GLOH    O2 9154   3.227   8.775   2.854
   70GLOH   H05 9155   3.321   8.809   2.849
   70GLOH    C3 9156   3.067   8.634   0.089
   70GLOH   H06 9157   3.064   8.547   0.024
   70GLOH   H07 9158   2.999   8.707   0.045
   70GLOH    O3 9159   3.020   8.599   0.221
   70GLOH   H01 9160   2.924   8.621   0.222
   71GLOH   H03 9161   4.066   9.609   1.642
   71GLOH    O1 9162   4.094   9.588   1.549
   71GLOH    C1 9163   4.236   9.608   1.544
   71GLOH   H02 9164   4.283   9.568   1.634
   71GLOH   H08 9165   4.259   9.715   1.543
   71GLOH    C2 9166   4.304   9.544   1.422
   71GLOH   H04 9167   4.261   9.589   1.331
   71GLOH    O2 9168   4.446   9.570   1.425
   71GLOH   H05 9169   4.484   9.526   1.506
   71GLOH    C3 9170   4.277   9.392   1.416
   71GLOH   H06 9171   4.333   9.351   1.331
   71GLOH   H07 9172   4.172   9.377   1.394
   71GLOH    O3 9173   4.313   9.321   1.536
   71GLOH   H01 9174   4.395   9.361   1.575
   72GLOH   H03 9175   3.202   8.414   2.354
   72GLOH    O1 9176   3.159   8.364   2.282
   72GLOH    C1 9177   3.206   8.410   2.154
   72GLOH   H02 9178   3.305   8.369   2.133
   72GLOH   H08 9179   3.217   8.519   2.153
   72GLOH    C2 9180   3.111   8.369   2.040
   72GLOH   H04 9181   3.011   8.410   2.062
   72GLOH    O2 9182   3.156   8.420   1.913
   72GLOH   H05 9183   3.127   8.516   1.905
   72GLOH    C3 9184   3.100   8.216   2.034
   72GLOH   H06 9185   3.198   8.175   2.008
   72GLOH   H07 9186   3.031   8.188   1.955
   72GLOH    O3 9187   3.056   8.164   2.161
   72GLOH   H01 9188   3.089   8.229   2.228
   73GLOH   H03 9189   3.633   1.394   2.211
   73GLOH    O1 9190   3.579   1.344   2.278
   73GLOH    C1 9191   3.632   1.364   2.411
   73GLOH   H02 9192   3.556   1.336   2.485
   73GLOH   H08 9193   3.654   1.470   2.427
   73GLOH    C2 9194   3.760   1.282   2.440
   73GLOH   H04 9195   3.738   1.177   2.419
   73GLOH    O2 9196   3.870   1.325   2.357
   73GLOH   H05 9197   3.955   1.286   2.386
   73GLOH    C3 9198   3.797   1.294   2.589
   73GLOH   H06 9199   3.804   1.399   2.615
   73GLOH   H07 9200   3.897   1.251   2.604
   73GLOH    O3 9201   3.702   1.227   2.675
   73GLOH   H01 9202   3.716   1.255   2.768
   74GLOH   H03 9203   3.248   8.286   1.117
   74GLOH    O1 9204   3.257   8.193   1.082
   74GLOH    C1 9205   3.254   8.104   1.195
   74GLOH   H02 9206   3.225   8.004   1.163
   74GLOH   H08 9207   3.180   8.137   1.268
   74GLOH    C2 9208   3.391   8.095   1.266
   74GLOH   H04 9209   3.424   8.197   1.293
   74GLOH    O2 9210   3.382   8.015   1.385
   74GLOH   H05 9211   3.307   8.049   1.442
   74GLOH    C3 9212   3.495   8.034   1.170
   74GLOH   H06 9213   3.469   7.930   1.151
   74GLOH   H07 9214   3.593   8.036   1.218
   74GLOH    O3 9215   3.499   8.108   1.046
   74GLOH   H01 9216   3.406   8.138   1.031
   75GLOH   H03 9217   3.662   0.484   1.895
   75GLOH    O1 9218   3.685   0.567   1.845
   75GLOH    C1 9219   3.703   0.529   1.707
   75GLOH   H02 9220   3.692   0.616   1.642
   75GLOH   H08 9221   3.626   0.457   1.676
   75GLOH    C2 9222   3.842   0.466   1.682
   75GLOH   H04 9223   3.862   0.395   1.764
   75GLOH    O2 9224   3.846   0.393   1.558
   75GLOH   H05 9225   3.907   0.317   1.570
   75GLOH    C3 9226   3.952   0.573   1.688
   75GLOH   H06 9227   4.048   0.523   1.676
   75GLOH   H07 9228   3.952   0.616   1.788
   75GLOH    O3 9229   3.938   0.677   1.589
   75GLOH   H01 9230   3.890   0.754   1.630
   76GLOH   H03 9231   3.996   0.727   0.542
   76GLOH    O1 9232   3.990   0.825   0.556
   76GLOH    C1 9233   4.103   0.886   0.491
   76GLOH   H02 9234   4.192   0.824   0.504
   76GLOH   H08 9235   4.125   0.982   0.537
   76GLOH    C2 9236   4.083   0.908   0.340
   76GLOH   H04 9237   4.175   0.954   0.300
   76GLOH    O2 9238   4.059   0.784   0.270
   76GLOH   H05 9239   4.135   0.721   0.290
   76GLOH    C3 9240   3.967   1.008   0.317
   76GLOH   H06 9241   3.986   1.096   0.379
   76GLOH   H07 9242   3.875   0.963   0.353
   76GLOH    O3 9243   3.953   1.047   0.179
   76GLOH   H01 9244   3.894   1.127   0.176
   77GLOH   H03 9245   4.478   0.021   2.699
   77GLOH    O1 9246   4.563   0.068   2.681
   77GLOH    C1 9247   4.552   0.209   2.707
   77GLOH   H02 9248   4.471   0.252   2.647
   77GLOH   H08 9249   4.644   0.260   2.674
   77GLOH    C2 9250   4.527   0.246   2.855
   77GLOH   H04 9251   4.430   0.203   0.001
   77GLOH    O2 9252   4.628   0.192   0.061
   77GLOH   H05 9253   4.609   0.094   0.066
   77GLOH    C3 9254   4.516   0.398   2.870
   77GLOH   H06 9255   4.602   0.443   2.820
   77GLOH   H07 9256   4.523   0.425   0.094
   77GLOH    O3 9257   4.394   0.449   2.813
   77GLOH   H01 9258   4.381   0.543   2.844
   78GLOH   H03 9259   2.824   0.751   1.181
   78GLOH    O1 9260   2.798   0.724   1.088
   78GLOH    C1 9261   2.665   0.669   1.094
   78GLOH   H02 9262   2.597   0.739   1.142
   78GLOH   H08 9263   2.665   0.578   1.153
   78GLOH    C2 9264   2.611   0.637   0.953
   78GLOH   H04 9265   2.683   0.570   0.904
   78GLOH    O2 9266   2.483   0.570   0.959
   78GLOH   H05 9267   2.473   0.521   0.872
   78GLOH    C3 9268   2.602   0.765   0.870
   78GLOH   H06 9269   2.531   0.833   0.917
   78GLOH   H07 9270   2.562   0.741   0.771
   78GLOH    O3 9271   2.731   0.827   0.858
   78GLOH   H01 9272   2.776   0.815   0.945
   79GLOH   H03 9273   4.187   9.128   1.989
   79GLOH    O1 9274   4.169   9.197   2.060
   79GLOH    C1 9275   4.282   9.287   2.067
   79GLOH   H02 9276   4.375   9.232   2.051
   79GLOH   H08 9277   4.289   9.330   2.167
   79GLOH    C2 9278   4.276   9.403   1.965
   79GLOH   H04 9279   4.254   9.361   1.866
   79GLOH    O2 9280   4.172   9.498   2.000
   79GLOH   H05 9281   4.089   9.447   2.023
   79GLOH    C3 9282   4.415   9.470   1.958
   79GLOH   H06 9283   4.490   9.393   1.940
   79GLOH   H07 9284   4.437   9.513   2.056
   79GLOH    O3 9285   4.425   9.572   1.857
   79GLOH   H01 9286   4.380   9.653   1.892
   80GLOH   H03 9287   3.696   8.866   2.447
   80GLOH    O1 9288   3.601   8.868   2.472
   80GLOH    C1 9289   3.523   8.868   2.351
   80GLOH   H02 9290   3.588   8.867   2.264
   80GLOH   H08 9291   3.464   8.959   2.345
   80GLOH    C2 9292   3.428   8.747   2.340
   80GLOH   H04 9293   3.360   8.752   2.427
   80GLOH    O2 9294   3.348   8.756   2.220
   80GLOH   H05 9295   3.406   8.789   2.144
   80GLOH    C3 9296   3.501   8.612   2.349
   80GLOH   H06 9297   3.428   8.533   2.333
   80GLOH   H07 9298   3.538   8.600   2.451
   80GLOH    O3 9299   3.609   8.599   2.255
   80GLOH   H01 9300   3.570   8.571   2.167
   81GLOH   H03 9301   3.232   9.160   0.316
   81GLOH    O1 9302   3.249   9.170   0.413
   81GLOH    C1 9303   3.206   9.300   0.458
   81GLOH   H02 9304   3.194   9.300   0.567
   81GLOH   H08 9305   3.110   9.326   0.415
   81GLOH    C2 9306   3.308   9.410   0.420
   81GLOH   H04 9307   3.325   9.403   0.312
   81GLOH    O2 9308   3.256   9.542   0.450
   81GLOH   H05 9309   3.329   9.609   0.438
   81GLOH    C3 9310   3.443   9.384   0.490
   81GLOH   H06 9311   3.517   9.450   0.443
   81GLOH   H07 9312   3.475   9.282   0.467
   81GLOH    O3 9313   3.444   9.405   0.633
   81GLOH   H01 9314   3.520   9.467   0.649
   82GLOH   H03 9315   3.060   8.736   1.949
   82GLOH    O1 9316   3.076   8.657   1.891
   82GLOH    C1 9317   2.970   8.646   1.794
   82GLOH   H02 9318   2.875   8.628   1.845
   82GLOH   H08 9319   2.987   8.559   1.731
   82GLOH    C2 9320   2.955   8.770   1.704
   82GLOH   H04 9321   2.966   8.858   1.768
   82GLOH    O2 9322   3.058   8.774   1.602
   82GLOH   H05 9323   3.133   8.713   1.627
   82GLOH    C3 9324   2.815   8.778   1.641
   82GLOH   H06 9325   2.809   8.871   1.584
   82GLOH   H07 9326   2.742   8.786   1.721
   82GLOH    O3 9327   2.782   8.667   1.554
   82GLOH   H01 9328   2.766   8.587   1.610
   83GLOH   H03 9329   3.928   0.109   1.623
   83GLOH    O1 9330   4.000   0.163   1.665
   83GLOH    C1 9331   4.118   0.160   1.583
   83GLOH   H02 9332   4.191   0.232   1.621
   83GLOH   H08 9333   4.094   0.193   1.482
   83GLOH    C2 9334   4.188   0.023   1.572
   83GLOH   H04 9335   4.117   9.951   1.528
   83GLOH    O2 9336   4.305   0.034   1.487
   83GLOH   H05 9337   4.280   0.047   1.392
   83GLOH    C3 9338   4.234   9.968   1.709
   83GLOH   H06 9339   4.285   0.049   1.761
   83GLOH   H07 9340   4.309   9.890   1.691
   83GLOH    O3 9341   4.129   9.915   1.792
   83GLOH   H01 9342   4.087   9.991   1.840
   84GLOH   H03 9343   4.032   9.885   0.404
   84GLOH    O1 9344   4.061   9.968   0.358
   84GLOH    C1 9345   3.942   0.035   0.312
   84GLOH   H02 9346   3.865   9.963   0.284
   84GLOH   H08 9347   3.963   0.093   0.222
   84GLOH    C2 9348   3.882   0.129   0.418
   84GLOH   H04 9349   3.862   0.069   0.508
   84GLOH    O2 9350   3.976   0.234   0.453
   84GLOH   H05 9351   4.001   0.220   0.549
   84GLOH    C3 9352   3.748   0.185   0.369
   84GLOH   H06 9353   3.708   0.252   0.446
   84GLOH   H07 9354   3.677   0.103   0.360
   84GLOH    O3 9355   3.758   0.255   0.244
   84GLOH   H01 9356   3.760   0.352   0.267
   85GLOH   H03 9357   4.574   9.750   0.541
   85GLOH    O1 9358   4.505   9.678   0.543
   85GLOH    C1 9359   4.499   9.618   0.674
   85GLOH   H02 9360   4.598   9.613   0.718
   85GLOH   H08 9361   4.463   9.515   0.666
   85GLOH    C2 9362   4.406   9.694   0.771
   85GLOH   H04 9363   4.449   9.794   0.788
   85GLOH    O2 9364   4.272   9.708   0.719
   85GLOH   H05 9365   4.275   9.704   0.620
   85GLOH    C3 9366   4.401   9.621   0.907
   85GLOH   H06 9367   4.355   9.523   0.891
   85GLOH   H07 9368   4.335   9.676   0.974
   85GLOH    O3 9369   4.531   9.606   0.966
   85GLOH   H01 9370   4.521   9.616   1.064
   86GLOH   H03 9371   3.797   9.055   1.761
   86GLOH    O1 9372   3.773   9.114   1.838
   86GLOH    C1 9373   3.892   9.172   1.894
   86GLOH   H02 9374   3.967   9.189   1.816
   86GLOH   H08 9375   3.937   9.103   1.966
   86GLOH    C2 9376   3.864   9.306   1.964
   86GLOH   H04 9377   3.773   9.295   2.025
   86GLOH    O2 9378   3.972   9.347   2.051
   86GLOH   H05 9379   4.041   9.274   2.060
   86GLOH    C3 9380   3.841   9.418   1.861
   86GLOH   H06 9381   3.925   9.419   1.792
   86GLOH   H07 9382   3.842   9.514   1.913
   86GLOH    O3 9383   3.718   9.403   1.788
   86GLOH   H01 9384   3.736   9.341   1.712
   87GLOH   H03 9385   2.644   9.636   1.462
   87GLOH    O1 9386   2.719   9.599   1.516
   87GLOH    C1 9387   2.712   9.455   1.514
   87GLOH   H02 9388   2.620   9.421   1.561
   87GLOH   H08 9389   2.793   9.413   1.574
   87GLOH    C2 9390   2.720   9.393   1.373
   87GLOH   H04 9391   2.707   9.284   1.386
   87GLOH    O2 9392   2.615   9.440   1.286
   87GLOH   H05 9393   2.594   9.535   1.307
   87GLOH    C3 9394   2.858   9.416   1.309
   87GLOH   H06 9395   2.879   9.523   1.308
   87GLOH   H07 9396   2.854   9.383   1.205
   87GLOH    O3 9397   2.963   9.345   1.378
   87GLOH   H01 9398   3.021   9.300   1.311
   88GLOH   H03 9399   3.338   9.562   2.726
   88GLOH    O1 9400   3.431   9.596   2.738
   88GLOH    C1 9401   3.518   9.483   2.754
   88GLOH   H02 9402   3.515   9.419   2.666
   88GLOH   H08 9403   3.485   9.421   2.838
   88GLOH    C2 9404   3.665   9.523   2.780
   88GLOH   H04 9405   3.669   9.578   2.876
   88GLOH    O2 9406   3.748   9.405   2.790
   88GLOH   H05 9407   3.744   9.356   2.706
   88GLOH    C3 9408   3.716   9.617   2.669
   88GLOH   H06 9409   3.719   9.562   2.575
   88GLOH   H07 9410   3.818   9.647   2.693
   88GLOH    O3 9411   3.633   9.733   2.656
   88GLOH   H01 9412   3.541   9.705   2.679
   89GLOH   H03 9413   3.798   8.508   1.762
   89GLOH    O1 9414   3.859   8.555   1.825
   89GLOH    C1 9415   3.880   8.477   1.943
   89GLOH   H02 9416   3.786   8.434   1.979
   89GLOH   H08 9417   3.917   8.540   2.024
   89GLOH    C2 9418   3.981   8.362   1.921
   89GLOH   H04 9419   4.067   8.401   1.865
   89GLOH    O2 9420   4.027   8.310   2.047
   89GLOH   H05 9421   4.062   8.385   2.103
   89GLOH    C3 9422   3.917   8.248   1.840
   89GLOH   H06 9423   3.995   8.176   1.813
   89GLOH   H07 9424   3.878   8.288   1.747
   89GLOH    O3 9425   3.814   8.183   1.916
   89GLOH   H01 9426   3.854   8.163   2.003
   90GLOH   H03 9427   3.626   1.514   2.026
   90GLOH    O1 9428   3.690   1.456   2.074
   90GLOH    C1 9429   3.754   1.373   1.975
   90GLOH   H02 9430   3.800   1.435   1.898
   90GLOH   H08 9431   3.680   1.311   1.924
   90GLOH    C2 9432   3.863   1.280   2.032
   90GLOH   H04 9433   3.945   1.343   2.070
   90GLOH    O2 9434   3.812   1.199   2.140
   90GLOH   H05 9435   3.820   1.254   2.223
   90GLOH    C3 9436   3.919   1.188   1.924
   90GLOH   H06 9437   3.838   1.127   1.886
   90GLOH   H07 9438   3.989   1.119   1.972
   90GLOH    O3 9439   3.986   1.257   1.817
   90GLOH   H01 9440   4.082   1.236   1.827
   91GLOH   H03 9441   4.398   0.877   0.866
   91GLOH    O1 9442   4.473   0.815   0.846
   91GLOH    C1 9443   4.453   0.751   0.718
   91GLOH   H02 9444   4.542   0.695   0.691
   91GLOH   H08 9445   4.440   0.827   0.641
   91GLOH    C2 9446   4.332   0.655   0.711
   91GLOH   H04 9447   4.241   0.714   0.726
   91GLOH    O2 9448   4.327   0.595   0.579
   91GLOH   H05 9449   4.326   0.495   0.585
   91GLOH    C3 9450   4.338   0.547   0.821
   91GLOH   H06 9451   4.438   0.505   0.819
   91GLOH   H07 9452   4.269   0.467   0.795
   91GLOH    O3 9453   4.308   0.596   0.953
   91GLOH   H01 9454   4.211   0.609   0.964
   92GLOH   H03 9455   3.714   8.628   2.366
   92GLOH    O1 9456   3.783   8.656   2.432
   92GLOH    C1 9457   3.899   8.695   2.356
   92GLOH   H02 9458   3.927   8.614   2.289
   92GLOH   H08 9459   3.984   8.711   2.423
   92GLOH    C2 9460   3.877   8.822   2.271
   92GLOH   H04 9461   3.799   8.800   2.197
   92GLOH    O2 9462   3.835   8.934   2.352
   92GLOH   H05 9463   3.815   9.009   2.293
   92GLOH    C3 9464   4.007   8.855   2.195
   92GLOH   H06 9465   4.087   8.871   2.267
   92GLOH   H07 9466   3.993   8.950   2.142
   92GLOH    O3 9467   4.042   8.752   2.102
   92GLOH   H01 9468   3.996   8.774   2.016
   93GLOH   H03 9469   2.136   9.677   2.121
   93GLOH    O1 9470   2.143   9.579   2.130
   93GLOH    C1 9471   2.206   9.528   2.010
   93GLOH   H02 9472   2.283   9.597   1.976
   93GLOH   H08 9473   2.132   9.520   1.930
   93GLOH    C2 9474   2.270   9.390   2.029
   93GLOH   H04 9475   2.191   9.316   2.048
   93GLOH    O2 9476   2.342   9.354   1.909
   93GLOH   H05 9477   2.363   9.256   1.910
   93GLOH    C3 9478   2.362   9.394   2.153
   93GLOH   H06 9479   2.434   9.474   2.139
   93GLOH   H07 9480   2.418   9.301   2.160
   93GLOH    O3 9481   2.287   9.418   2.272
   93GLOH   H01 9482   2.215   9.480   2.246
   94GLOH   H03 9483   3.342   0.431   1.269
   94GLOH    O1 9484   3.271   0.468   1.211
   94GLOH    C1 9485   3.219   0.585   1.279
   94GLOH   H02 9486   3.138   0.556   1.346
   94GLOH   H08 9487   3.177   0.655   1.206
   94GLOH    C2 9488   3.328   0.657   1.360
   94GLOH   H04 9489   3.405   0.692   1.289
   94GLOH    O2 9490   3.275   0.771   1.431
   94GLOH   H05 9491   3.209   0.738   1.501
   94GLOH    C3 9492   3.394   0.558   1.458
   94GLOH   H06 9493   3.317   0.520   1.525
   94GLOH   H07 9494   3.467   0.612   1.519
   94GLOH    O3 9495   3.457   0.450   1.387
   94GLOH   H01 9496   3.554   0.470   1.379
   95GLOH   H03 9497   3.069   9.974   2.466
   95GLOH    O1 9498   3.132   0.001   2.395
   95GLOH    C1 9499   3.109   0.137   2.356
   95GLOH   H02 9500   3.067   0.194   2.438
   95GLOH   H08 9501   3.036   0.140   2.275
   95GLOH    C2 9502   3.234   0.212   2.305
   95GLOH   H04 9503   3.287   0.146   2.234
   95GLOH    O2 9504   3.195   0.333   2.238
   95GLOH   H05 9505   3.140   0.389   2.301
   95GLOH    C3 9506   3.332   0.247   2.419
   95GLOH   H06 9507   3.275   0.294   2.500
   95GLOH   H07 9508   3.402   0.322   2.383
   95GLOH    O3 9509   3.404   0.134   2.470
   95GLOH   H01 9510   3.488   0.165   2.512
   96GLOH   H03 9511   2.492   9.954   1.093
   96GLOH    O1 9512   2.514   9.957   0.996
   96GLOH    C1 9513   2.634   0.036   0.978
   96GLOH   H02 9514   2.720   9.980   1.015
   96GLOH   H08 9515   2.628   0.127   1.038
   96GLOH    C2 9516   2.660   0.078   0.832
   96GLOH   H04 9517   2.580   0.148   0.802
   96GLOH    O2 9518   2.788   0.145   0.821
   96GLOH   H05 9519   2.774   0.242   0.797
   96GLOH    C3 9520   2.656   9.957   0.738
   96GLOH   H06 9521   2.741   9.892   0.758
   96GLOH   H07 9522   2.665   9.992   0.635
   96GLOH    O3 9523   2.533   9.886   0.755
   96GLOH   H01 9524   2.506   9.907   0.849
   97GLOH   H03 9525   2.868   0.153   2.595
   97GLOH    O1 9526   2.792   0.183   2.540
   97GLOH    C1 9527   2.769   0.088   2.435
   97GLOH   H02 9528   2.855   0.082   2.369
   97GLOH   H08 9529   2.685   0.122   2.373
   97GLOH    C2 9530   2.735   9.947   2.486
   97GLOH   H04 9531   2.631   9.949   2.522
   97GLOH    O2 9532   2.744   9.850   2.378
   97GLOH   H05 9533   2.835   9.851   2.343
   97GLOH    C3 9534   2.825   9.905   2.604
   97GLOH   H06 9535   2.801   9.802   2.631
   97GLOH   H07 9536   2.797   9.966   2.691
   97GLOH    O3 9537   2.965   9.919   2.576
   97GLOH   H01 9538   3.014   9.855   2.633
   98GLOH   H03 9539   4.080   0.860   2.822
   98GLOH    O1 9540   4.152   0.842   2.758
   98GLOH    C1 9541   4.139   0.933   2.646
   98GLOH   H02 9542   4.236   0.978   2.624
   98GLOH   H08 9543   4.071   1.014   2.670
   98GLOH    C2 9544   4.088   0.864   2.518
   98GLOH   H04 9545   3.995   0.810   2.542
   98GLOH    O2 9546   4.060   0.963   2.416
   98GLOH   H05 9547   3.995   0.924   2.351
   98GLOH    C3 9548   4.191   0.762   2.467
   98GLOH   H06 9549   4.210   0.690   2.546
   98GLOH   H07 9550   4.285   0.814   2.449
   98GLOH    O3 9551   4.148   0.693   2.347
   98GLOH   H01 9552   4.146   0.757   2.272
   99GLOH   H03 9553   4.033   0.334   0.347
   99GLOH    O1 9554   4.071   0.406   0.291
   99GLOH    C1 9555   4.130   0.348   0.172
   99GLOH   H02 9556   4.103   0.243   0.162
   99GLOH   H08 9557   4.239   0.351   0.181
   99GLOH    C2 9558   4.091   0.421   0.042
   99GLOH   H04 9559   4.123   0.525   0.051
   99GLOH    O2 9560   4.156   0.360   2.810
   99GLOH   H05 9561   4.251   0.390   2.807
   99GLOH    C3 9562   3.938   0.421   0.021
   99GLOH   H06 9563   3.892   0.474   0.104
   99GLOH   H07 9564   3.902   0.318   0.025
   99GLOH    O3 9565   3.903   0.483   2.778
   99GLOH   H01 9566   3.978   0.464   2.717
  100GLOH   H03 9567   2.922   8.211   0.479
  100GLOH    O1 9568   2.851   8.263   0.524
  100GLOH    C1 9569   2.769   8.319   0.420
  100GLOH   H02 9570   2.804   8.419   0.393
  100GLOH   H08 9571   2.666   8.331   0.455
  100GLOH    C2 9572   2.767   8.232   0.292
  100GLOH   H04 9573   2.730   8.132   0.319
  100GLOH    O2 9574   2.682   8.289   0.191
  100GLOH   H05 9575   2.589   8.266   0.211
  100GLOH    C3 9576   2.910   8.217   0.238
  100GLOH   H06 9577   2.945   8.314   0.202
  100GLOH   H07 9578   2.908   8.150   0.152
  100GLOH    O3 9579   3.000   8.166   0.338
  100GLOH   H01 9580   3.082   8.223   0.336
  101GLOH   H03 9581   4.045   9.371   0.132
  101GLOH    O1 9582   4.071   9.465   0.116
  101GLOH    C1 9583   4.068   9.539   0.240
  101GLOH   H02 9584   4.124   9.632   0.227
  101GLOH   H08 9585   4.117   9.484   0.320
  101GLOH    C2 9586   3.926   9.577   0.285
  101GLOH   H04 9587   3.889   9.658   0.220
  101GLOH    O2 9588   3.836   9.464   0.273
  101GLOH   H05 9589   3.830   9.440   0.178
  101GLOH    C3 9590   3.925   9.626   0.431
  101GLOH   H06 9591   3.953   9.544   0.496
  101GLOH   H07 9592   3.822   9.651   0.456
  101GLOH    O3 9593   4.010   9.740   0.456
  101GLOH   H01 9594   4.104   9.708   0.460
  102GLOH   H03 9595   2.786   8.879   1.249
  102GLOH    O1 9596   2.806   8.974   1.227
  102GLOH    C1 9597   2.733   9.012   1.109
  102GLOH   H02 9598   2.680   8.927   1.066
  102GLOH   H08 9599   2.803   9.046   1.032
  102GLOH    C2 9600   2.633   9.126   1.135
  102GLOH   H04 9601   2.690   9.212   1.174
  102GLOH    O2 9602   2.565   9.165   1.014
  102GLOH   H05 9603   2.536   9.260   1.020
  102GLOH    C3 9604   2.531   9.082   1.242
  102GLOH   H06 9605   2.467   9.167   1.266
  102GLOH   H07 9606   2.585   9.056   1.333
  102GLOH    O3 9607   2.452   8.971   1.195
  102GLOH   H01 9608   2.428   8.993   1.102
  103GLOH   H03 9609   3.852   9.088   0.664
  103GLOH    O1 9610   3.888   9.101   0.756
  103GLOH    C1 9611   3.982   8.997   0.788
  103GLOH   H02 9612   4.076   9.041   0.817
  103GLOH   H08 9613   4.002   8.935   0.700
  103GLOH    C2 9614   3.936   8.905   0.902
  103GLOH   H04 9615   4.019   8.834   0.922
  103GLOH    O2 9616   3.909   8.979   1.023
  103GLOH   H05 9617   3.825   9.030   1.008
  103GLOH    C3 9618   3.813   8.822   0.862
  103GLOH   H06 9619   3.735   8.891   0.829
  103GLOH   H07 9620   3.775   8.771   0.950
  103GLOH    O3 9621   3.842   8.727   0.757
  103GLOH   H01 9622   3.832   8.637   0.797
  104GLOH   H03 9623   3.351   1.146   0.412
  104GLOH    O1 9624   3.388   1.079   0.348
  104GLOH    C1 9625   3.527   1.113   0.332
  104GLOH   H02 9626   3.539   1.193   0.259
  104GLOH   H08 9627   3.583   1.027   0.295
  104GLOH    C2 9628   3.592   1.158   0.465
  104GLOH   H04 9629   3.587   1.074   0.536
  104GLOH    O2 9630   3.730   1.195   0.445
  104GLOH   H05 9631   3.774   1.203   0.533
  104GLOH    C3 9632   3.514   1.277   0.524
  104GLOH   H06 9633   3.527   1.363   0.459
  104GLOH   H07 9634   3.558   1.303   0.620
  104GLOH    O3 9635   3.374   1.248   0.539
  104GLOH   H01 9636   3.345   1.289   0.626
  105GLOH   H03 9637   2.735   8.848   0.724
  105GLOH    O1 9638   2.700   8.774   0.669
  105GLOH    C1 9639   2.763   8.653   0.715
  105GLOH   H02 9640   2.849   8.629   0.653
  105GLOH   H08 9641   2.693   8.569   0.707
  105GLOH    C2 9642   2.809   8.664   0.861
  105GLOH   H04 9643   2.721   8.683   0.924
  105GLOH    O2 9644   2.871   8.541   0.904
  105GLOH   H05 9645   2.877   8.545   1.004
  105GLOH    C3 9646   2.906   8.783   0.876
  105GLOH   H06 9647   2.997   8.762   0.819
  105GLOH   H07 9648   2.935   8.792   0.981
  105GLOH    O3 9649   2.847   8.907   0.831
  105GLOH   H01 9650   2.915   8.979   0.833
  106GLOH   H03 9651   3.908   9.242   0.803
  106GLOH    O1 9652   3.917   9.336   0.834
  106GLOH    C1 9653   4.005   9.337   0.949
  106GLOH   H02 9654   4.109   9.336   0.916
  106GLOH   H08 9655   3.989   9.249   1.010
  106GLOH    C2 9656   3.983   9.462   1.036
  106GLOH   H04 9657   3.879   9.462   1.072
  106GLOH    O2 9658   4.073   9.459   1.149
  106GLOH   H05 9659   4.021   9.482   1.232
  106GLOH    C3 9660   4.006   9.590   0.953
  106GLOH   H06 9661   4.111   9.596   0.926
  106GLOH   H07 9662   3.983   9.677   1.015
  106GLOH    O3 9663   3.923   9.587   0.836
  106GLOH   H01 9664   3.911   9.491   0.816
  107GLOH   H03 9665   3.520   8.856   2.764
  107GLOH    O1 9666   3.459   8.874   2.839
  107GLOH    C1 9667   3.530   8.939   0.064
  107GLOH   H02 9668   3.597   9.016   0.024
  107GLOH   H08 9669   3.593   8.867   0.116
  107GLOH    C2 9670   3.438   9.005   0.168
  107GLOH   H04 9671   3.372   8.928   0.212
  107GLOH    O2 9672   3.521   9.063   0.271
  107GLOH   H05 9673   3.485   9.039   0.362
  107GLOH    C3 9674   3.351   9.114   0.101
  107GLOH   H06 9675   3.339   9.090   2.877
  107GLOH   H07 9676   3.405   9.209   0.104
  107GLOH    O3 9677   3.220   9.131   0.160
  107GLOH   H01 9678   3.159   9.072   0.109
  108GLOH   H03 9679   3.342   9.070   0.481
  108GLOH    O1 9680   3.422   9.020   0.511
  108GLOH    C1 9681   3.447   9.058   0.648
  108GLOH   H02 9682   3.374   9.133   0.680
  108GLOH   H08 9683   3.545   9.105   0.656
  108GLOH    C2 9684   3.442   8.941   0.749
  108GLOH   H04 9685   3.525   8.874   0.723
  108GLOH    O2 9686   3.461   8.987   0.884
  108GLOH   H05 9687   3.381   9.040   0.910
  108GLOH    C3 9688   3.312   8.861   0.736
  108GLOH   H06 9689   3.302   8.798   0.825
  108GLOH   H07 9690   3.322   8.792   0.652
  108GLOH    O3 9691   3.194   8.942   0.722
  108GLOH   H01 9692   3.156   8.916   0.634
  109GLOH   H03 9693   4.303   0.268   0.502
  109GLOH    O1 9694   4.337   0.338   0.564
  109GLOH    C1 9695   4.479   0.321   0.580
  109GLOH   H02 9696   4.521   0.402   0.640
  109GLOH   H08 9697   4.529   0.326   0.483
  109GLOH    C2 9698   4.517   0.187   0.646
  109GLOH   H04 9699   4.477   0.106   0.584
  109GLOH    O2 9700   4.660   0.175   0.651
  109GLOH   H05 9701   4.685   0.094   0.703
  109GLOH    C3 9702   4.454   0.174   0.786
  109GLOH   H06 9703   4.476   0.075   0.824
  109GLOH   H07 9704   4.345   0.180   0.775
  109GLOH    O3 9705   4.498   0.274   0.881
  109GLOH   H01 9706   4.430   0.279   0.953
  110GLOH   H03 9707   3.443   0.165   2.100
  110GLOH    O1 9708   3.451   0.167   2.002
  110GLOH    C1 9709   3.550   0.070   1.960
  110GLOH   H02 9710   3.543   0.053   1.853
  110GLOH   H08 9711   3.532   9.974   2.009
  110GLOH    C2 9712   3.693   0.115   1.993
  110GLOH   H04 9713   3.700   0.131   2.101
  110GLOH    O2 9714   3.790   0.016   1.952
  110GLOH   H05 9715   3.760   9.925   1.977
  110GLOH    C3 9716   3.724   0.248   1.922
  110GLOH   H06 9717   3.724   0.230   1.814
  110GLOH   H07 9718   3.824   0.280   1.950
  110GLOH    O3 9719   3.628   0.350   1.955
  110GLOH   H01 9720   3.541   0.304   1.965
  111GLOH   H03 9721   3.533   0.976   1.273
  111GLOH    O1 9722   3.555   1.015   1.184
  111GLOH    C1 9723   3.436   1.006   1.102
  111GLOH   H02 9724   3.348   0.994   1.165
  111GLOH   H08 9725   3.441   0.919   1.037
  111GLOH    C2 9726   3.416   1.131   1.014
  111GLOH   H04 9727   3.498   1.136   0.942
  111GLOH    O2 9728   3.291   1.127   0.941
  111GLOH   H05 9729   3.296   1.056   0.869
  111GLOH    C3 9730   3.420   1.258   1.101
  111GLOH   H06 9731   3.339   1.254   1.174
  111GLOH   H07 9732   3.402   1.345   1.038
  111GLOH    O3 9733   3.547   1.270   1.167
  111GLOH   H01 9734   3.577   1.177   1.181
  112GLOH   H03 9735   2.732   9.601   0.488
  112GLOH    O1 9736   2.772   9.509   0.484
  112GLOH    C1 9737   2.880   9.505   0.578
  112GLOH   H02 9738   2.923   9.605   0.592
  112GLOH   H08 9739   2.961   9.443   0.539
  112GLOH    C2 9740   2.843   9.451   0.718
  112GLOH   H04 9741   2.935   9.451   0.778
  112GLOH    O2 9742   2.747   9.535   0.785
  112GLOH   H05 9743   2.654   9.513   0.757
  112GLOH    C3 9744   2.794   9.305   0.709
  112GLOH   H06 9745   2.701   9.302   0.653
  112GLOH   H07 9746   2.771   9.271   0.810
  112GLOH    O3 9747   2.892   9.220   0.648
  112GLOH   H01 9748   2.944   9.175   0.720
  113GLOH   H03 9749   3.088   8.917   2.074
  113GLOH    O1 9750   3.018   8.846   2.064
  113GLOH    C1 9751   3.011   8.767   2.185
  113GLOH   H02 9752   3.082   8.685   2.180
  113GLOH   H08 9753   2.912   8.721   2.194
  113GLOH    C2 9754   3.038   8.845   2.316
  113GLOH   H04 9755   3.033   8.773   2.399
  113GLOH    O2 9756   3.169   8.905   2.314
  113GLOH   H05 9757   3.237   8.836   2.286
  113GLOH    C3 9758   2.931   8.953   2.342
  113GLOH   H06 9759   2.915   9.008   2.249
  113GLOH   H07 9760   2.973   9.025   2.413
  113GLOH    O3 9761   2.807   8.902   2.392
  113GLOH   H01 9762   2.784   8.958   2.469
  114GLOH   H03 9763   2.657   0.440   0.232
  114GLOH    O1 9764   2.579   0.380   0.242
  114GLOH    C1 9765   2.622   0.249   0.285
  114GLOH   H02 9766   2.536   0.182   0.288
  114GLOH   H08 9767   2.661   0.255   0.387
  114GLOH    C2 9768   2.730   0.183   0.196
  114GLOH   H04 9769   2.689   0.175   0.094
  114GLOH    O2 9770   2.853   0.258   0.192
  114GLOH   H05 9771   2.903   0.242   0.278
  114GLOH    C3 9772   2.758   0.042   0.249
  114GLOH   H06 9773   2.774   0.048   0.357
  114GLOH   H07 9774   2.852   0.006   0.206
  114GLOH    O3 9775   2.652   9.949   0.221
  114GLOH   H01 9776   2.691   9.881   0.160
  115GLOH   H03 9777   4.017   9.935   1.237
  115GLOH    O1 9778   3.945   9.958   1.301
  115GLOH    C1 9779   3.888   9.836   1.352
  115GLOH   H02 9780   3.954   9.791   1.426
  115GLOH   H08 9781   3.878   9.763   1.271
  115GLOH    C2 9782   3.750   9.857   1.417
  115GLOH   H04 9783   3.693   9.927   1.355
  115GLOH    O2 9784   3.676   9.733   1.425
  115GLOH   H05 9785   3.677   9.693   1.333
  115GLOH    C3 9786   3.764   9.921   1.557
  115GLOH   H06 9787   3.836   9.862   1.615
  115GLOH   H07 9788   3.668   9.913   1.609
  115GLOH    O3 9789   3.805   0.058   1.550
  115GLOH   H01 9790   3.742   0.105   1.491
  116GLOH   H03 9791   3.176   0.414   1.109
  116GLOH    O1 9792   3.116   0.373   1.041
  116GLOH    C1 9793   3.122   0.231   1.061
  116GLOH   H02 9794   3.225   0.199   1.077
  116GLOH   H08 9795   3.087   0.179   0.972
  116GLOH    C2 9796   3.038   0.181   1.180
  116GLOH   H04 9797   3.040   0.071   1.179
  116GLOH    O2 9798   3.093   0.226   1.305
  116GLOH   H05 9799   3.171   0.168   1.326
  116GLOH    C3 9800   2.892   0.225   1.165
  116GLOH   H06 9801   2.858   0.202   1.065
  116GLOH   H07 9802   2.887   0.334   1.177
  116GLOH    O3 9803   2.808   0.161   1.263
  116GLOH   H01 9804   2.852   0.172   1.351
  117GLOH   H03 9805   3.650   0.089   2.608
  117GLOH    O1 9806   3.646   0.177   2.564
  117GLOH    C1 9807   3.704   0.276   2.653
  117GLOH   H02 9808   3.726   0.367   2.598
  117GLOH   H08 9809   3.800   0.240   2.691
  117GLOH    C2 9810   3.615   0.314   2.774
  117GLOH   H04 9811   3.673   0.383   2.837
  117GLOH    O2 9812   3.494   0.380   2.735
  117GLOH   H05 9813   3.519   0.460   2.680
  117GLOH    C3 9814   3.584   0.189   2.859
  117GLOH   H06 9815   3.531   0.117   2.797
  117GLOH   H07 9816   3.516   0.218   0.057
  117GLOH    O3 9817   3.704   0.130   0.031
  117GLOH   H01 9818   3.727   0.178   0.115
  118GLOH   H03 9819   4.177   0.100   0.389
  118GLOH    O1 9820   4.262   0.150   0.401
  118GLOH    C1 9821   4.359   0.107   0.304
  118GLOH   H02 9822   4.454   0.158   0.321
  118GLOH   H08 9823   4.327   0.135   0.203
  118GLOH    C2 9824   4.384   9.955   0.306
  118GLOH   H04 9825   4.400   9.926   0.411
  118GLOH    O2 9826   4.272   9.880   0.254
  118GLOH   H05 9827   4.187   9.924   0.284
  118GLOH    C3 9828   4.512   9.917   0.229
  118GLOH   H06 9829   4.522   9.809   0.232
  118GLOH   H07 9830   4.597   9.957   0.284
  118GLOH    O3 9831   4.514   9.964   0.093
  118GLOH   H01 9832   4.443   9.920   0.042
  119GLOH   H03 9833   3.738   1.407   1.591
  119GLOH    O1 9834   3.674   1.475   1.556
  119GLOH    C1 9835   3.673   1.471   1.412
  119GLOH   H02 9836   3.683   1.369   1.376
  119GLOH   H08 9837   3.757   1.527   1.371
  119GLOH    C2 9838   3.543   1.530   1.354
  119GLOH   H04 9839   3.538   1.636   1.380
  119GLOH    O2 9840   3.545   1.516   1.210
  119GLOH   H05 9841   3.547   1.417   1.188
  119GLOH    C3 9842   3.420   1.458   1.413
  119GLOH   H06 9843   3.415   1.357   1.372
  119GLOH   H07 9844   3.330   1.510   1.381
  119GLOH    O3 9845   3.427   1.453   1.557
  119GLOH   H01 9846   3.523   1.468   1.577
  120GLOH   H03 9847   3.729   0.555   1.003
  120GLOH    O1 9848   3.808   0.604   0.968
  120GLOH    C1 9849   3.761   0.723   0.900
  120GLOH   H02 9850   3.837   0.800   0.906
  120GLOH   H08 9851   3.672   0.763   0.950
  120GLOH    C2 9852   3.726   0.697   0.752
  120GLOH   H04 9853   3.815   0.654   0.704
  120GLOH    O2 9854   3.616   0.605   0.738
  120GLOH   H05 9855   3.649   0.512   0.760
  120GLOH    C3 9856   3.695   0.830   0.681
  120GLOH   H06 9857   3.604   0.873   0.725
  120GLOH   H07 9858   3.672   0.809   0.576
  120GLOH    O3 9859   3.804   0.923   0.691
  120GLOH   H01 9860   3.880   0.888   0.637
  121ACOH    H4 9861   3.076   0.455   1.865
  121ACOH    O2 9862   3.140   0.423   1.795
  121ACOH    C2 9863   3.266   0.448   1.835
  121ACOH    O1 9864   3.363   0.399   1.782
  121ACOH    C1 9865   3.278   0.532   1.957
  121ACOH    H1 9866   3.234   0.630   1.939
  121ACOH    H2 9867   3.383   0.545   1.984
  121ACOH    H3 9868   3.226   0.484   2.040
  122ACOH    H4 9869   3.764   1.023   0.790
  122ACOH    O2 9870   3.732   1.092   0.855
  122ACOH    C2 9871   3.770   1.211   0.805
  122ACOH    O1 9872   3.830   1.231   0.701
  122ACOH    C1 9873   3.726   1.322   0.894
  122ACOH    H1 9874   3.765   1.417   0.859
  122ACOH    H2 9875   3.761   1.303   0.995
  122ACOH    H3 9876   3.618   1.327   0.894
  123ACOH    H4 9877   2.557   8.943   0.211
  123ACOH    O2 9878   2.520   8.990   0.289
  123ACOH    C2 9879   2.411   9.056   0.246
  123ACOH    O1 9880   2.370   9.061   0.132
  123ACOH    C1 9881   2.342   9.127   0.357
  123ACOH    H1 9882   2.243   9.086   0.370
  123ACOH    H2 9883   2.333   9.233   0.332
  123ACOH    H3 9884   2.398   9.118   0.450
  124ACOH    H4 9885   2.454   8.851   1.282
  124ACOH    O2 9886   2.464   8.765   1.332
  124ACOH    C2 9887   2.442   8.794   1.462
  124ACOH    O1 9888   2.438   8.904   1.512
  124ACOH    C1 9889   2.441   8.669   1.543
  124ACOH    H1 9890   2.354   8.610   1.516
  124ACOH    H2 9891   2.436   8.693   1.649
  124ACOH    H3 9892   2.531   8.612   1.524
  125ACOH    H4 9893   3.997   8.444   1.133
  125ACOH    O2 9894   3.984   8.365   1.072
  125ACOH    C2 9895   3.915   8.273   1.143
  125ACOH    O1 9896   3.844   8.294   1.239
  125ACOH    C1 9897   3.926   8.140   1.079
  125ACOH    H1 9898   4.027   8.103   1.089
  125ACOH    H2 9899   3.902   8.149   0.973
  125ACOH    H3 9900   3.856   8.070   1.124
  126ACOH    H4 9901   5.064   0.663   0.929
  126ACOH    O2 9902   5.159   0.690   0.941
  126ACOH    C2 9903   5.220   0.591   1.008
  126ACOH    O1 9904   5.167   0.495   1.062
  126ACOH    C1 9905   5.366   0.613   1.011
  126ACOH    H1 9906   5.405   0.618   0.910
  126ACOH    H2 9907   5.416   0.532   1.064
  126ACOH    H3 9908   5.388   0.707   1.062
  127ACOH    H4 9909   2.774   8.405   1.937
  127ACOH    O2 9910   2.816   8.329   1.889
  127ACOH    C2 9911   2.798   8.348   1.757
  127ACOH    O1 9912   2.744   8.443   1.703
  127ACOH    C1 9913   2.861   8.240   1.678
  127ACOH    H1 9914   2.788   8.196   1.611
  127ACOH    H2 9915   2.900   8.163   1.744
  127ACOH    H3 9916   2.943   8.281   1.620
  128ACOH    H4 9917   2.944   8.072   2.142
  128ACOH    O2 9918   2.871   8.005   2.131
  128ACOH    C2 9919   2.780   8.034   2.226
  128ACOH    O1 9920   2.774   8.134   2.296
  128ACOH    C1 9921   2.675   7.929   2.231
  128ACOH    H1 9922   2.697   7.849   2.161
  128ACOH    H2 9923   2.579   7.973   2.205
  128ACOH    H3 9924   2.669   7.888   2.331
  129ACOH    H4 9925   3.594   1.612   1.109
  129ACOH    O2 9926   3.633   1.675   1.043
  129ACOH    C2 9927   3.566   1.658   0.927
  129ACOH    O1 9928   3.485   1.571   0.901
  129ACOH    C1 9929   3.612   1.758   0.828
  129ACOH    H1 9930   3.589   1.858   0.864
  129ACOH    H2 9931   3.564   1.742   0.732
  129ACOH    H3 9932   3.720   1.749   0.816
  130ACOH    H4 9933   2.640   0.316   2.198
  130ACOH    O2 9934   2.577   0.374   2.249
  130ACOH    C2 9935   2.456   0.314   2.243
  130ACOH    O1 9936   2.427   0.213   2.181
  130ACOH    C1 9937   2.357   0.391   2.322
  130ACOH    H1 9938   2.272   0.416   2.259
  130ACOH    H2 9939   2.401   0.483   2.359
  130ACOH    H3 9940   2.323   0.331   2.406
  131ACOH    H4 9941   2.403   0.054   0.489
  131ACOH    O2 9942   2.358   0.138   0.517
  131ACOH    C2 9943   2.262   0.103   0.605
  131ACOH    O1 9944   2.237   9.991   0.646
  131ACOH    C1 9945   2.189   0.223   0.650
  131ACOH    H1 9946   2.140   0.270   0.565
  131ACOH    H2 9947   2.259   0.294   0.694
  131ACOH    H3 9948   2.113   0.197   0.724
  132ACOH    H4 9949   4.721   0.250   0.173
  132ACOH    O2 9950   4.771   0.301   0.242
  132ACOH    C2 9951   4.813   0.214   0.336
  132ACOH    O1 9952   4.795   0.094   0.340
  132ACOH    C1 9953   4.890   0.285   0.442
  132ACOH    H1 9954   4.973   0.339   0.397
  132ACOH    H2 9955   4.929   0.215   0.515
  132ACOH    H3 9956   4.825   0.355   0.492
  133ACOH    H4 9957   3.411   9.778   0.522
  133ACOH    O2 9958   3.415   9.750   0.426
  133ACOH    C2 9959   3.525   9.810   0.376
  133ACOH    O1 9960   3.625   9.840   0.438
  133ACOH    C1 9961   3.525   9.809   0.227
  133ACOH    H1 9962   3.548   9.909   0.191
  133ACOH    H2 9963   3.429   9.778   0.188
  133ACOH    H3 9964   3.602   9.741   0.191
  134ACOH    H4 9965   4.856   0.359   0.808
  134ACOH    O2 9966   4.957   0.362   0.800
  134ACOH    C2 9967   5.001   0.244   0.846
  134ACOH    O1 9968   4.935   0.144   0.866
  134ACOH    C1 9969   5.149   0.240   0.855
  134ACOH    H1 9970   5.188   0.167   0.785
  134ACOH    H2 9971   5.178   0.212   0.956
  134ACOH    H3 9972   5.191   0.338   0.833
  135SOL     OW 9973   3.156   0.732   0.905
  135SOL    HW1 9974   3.242   0.685   0.924
  135SOL    HW2 9975   3.082   0.666   0.904
  136SOL     OW 9976   3.114   0.566   0.628
  136SOL    HW1 9977   3.054   0.638   0.661
  136SOL    HW2 9978   3.209   0.595   0.633
  137SOL     OW 9979   3.547   1.128   2.128
  137SOL    HW1 9980   3.644   1.127   2.102
  137SOL    HW2 9981   3.530   1.203   2.192
  138SOL     OW 9982   3.580   8.306   1.895
  138SOL    HW1 9983   3.549   8.296   1.800
  138SOL    HW2 9984   3.664   8.254   1.908
  139SOL     OW 9985   3.325   0.144   0.804
  139SOL    HW1 9986   3.279   0.058   0.826
  139SOL    HW2 9987   3.258   0.215   0.785
  140SOL     OW 9988   2.366   9.404   1.649
  140SOL    HW1 9989   2.411   9.322   1.614
  140SOL    HW2 9990   2.338   9.389   1.744
  141SOL     OW 9991   3.307   9.301   2.115
  141SOL    HW1 9992   3.295   9.374   2.183
  141SOL    HW2 9993   3.363   9.335   2.040
  142SOL     OW 9994   4.112   9.695   2.195
  142SOL    HW1 9995   4.134   9.791   2.178
  142SOL    HW2 9996   4.149   9.638   2.122
  143SOL     OW 9997   4.248   0.611   0.316
  143SOL    HW1 9998   4.189   0.531   0.307
  143SOL    HW2 9999   4.287   0.614   0.408
  144SOL     OW10000   3.475   9.371   1.902
  144SOL    HW110001   3.570   9.383   1.873
  144SOL    HW210002   3.413   9.404   1.831
  145SOL     OW10003   3.208   9.042   2.094
  145SOL    HW110004   3.243   9.136   2.096
  145SOL    HW210005   3.205   9.006   2.187
  146SOL     OW10006   4.518   9.443   1.645
  146SOL    HW110007   4.483   9.494   1.724
  146SOL    HW210008   4.609   9.408   1.666
  147SOL     OW10009   4.333   0.680   0.027
  147SOL    HW110010   4.277   0.747   2.859
  147SOL    HW210011   4.310   0.684   0.124
  148SOL     OW10012   3.207   8.232   0.816
  148SOL    HW110013   3.215   8.199   0.910
  148SOL    HW210014   3.113   8.258   0.797
  149SOL     OW10015   3.115   0.889   1.968
  149SOL    HW110016   3.092   0.903   1.871
  149SOL    HW210017   3.181   0.959   1.996
  150SOL     OW10018   3.309   1.508   1.788
  150SOL    HW110019   3.211   1.490   1.788
  150SOL    HW210020   3.347   1.488   1.698
  151SOL     OW10021   2.810   9.209   2.097
  151SOL    HW110022   2.766   9.282   2.149
  151SOL    HW210023   2.758   9.124   2.108
  152SOL     OW10024   2.177   9.920   0.282
  152SOL    HW110025   2.248   9.989   0.272
  152SOL    HW210026   2.216   9.838   0.324
  153SOL     OW10027   4.521   0.111   1.620
  153SOL    HW110028   4.576   0.029   1.636
  153SOL    HW210029   4.441   0.088   1.564
  154SOL     OW10030   4.099   8.636   1.715
  154SOL    HW110031   4.014   8.608   1.761
  154SOL    HW210032   4.157   8.684   1.780
  155SOL     OW10033   2.383   9.969   1.991
  155SOL    HW110034   2.388   0.052   2.046
  155SOL    HW210035   2.307   9.912   2.024
  156SOL     OW10036   3.805   1.263   0.201
  156SOL    HW110037   3.834   1.359   0.203
  156SOL    HW210038   3.771   1.237   0.291
  157SOL     OW10039   3.694   0.362   0.810
  157SOL    HW110040   3.617   0.324   0.860
  157SOL    HW210041   3.776   0.306   0.825
  158SOL     OW10042   2.505   0.442   0.730
  158SOL    HW110043   2.471   0.439   0.636
  158SOL    HW210044   2.603   0.424   0.730
  159SOL     OW10045   3.297   0.873   0.495
  159SOL    HW110046   3.226   0.822   0.447
  159SOL    HW210047   3.333   0.944   0.435
  160SOL     OW10048   3.903   8.807   1.889
  160SOL    HW110049   3.874   8.715   1.864
  160SOL    HW210050   3.893   8.867   1.810
  161SOL     OW10051   2.326   9.713   0.402
  161SOL    HW110052   2.351   9.633   0.348
  161SOL    HW210053   2.319   9.687   0.499
  162SOL     OW10054   4.097   1.110   0.790
  162SOL    HW110055   4.028   1.155   0.733
  162SOL    HW210056   4.060   1.095   0.882
  163SOL     OW10057   3.523   0.222   0.983
  163SOL    HW110058   3.566   0.135   1.007
  163SOL    HW210059   3.447   0.205   0.922
  164SOL     OW10060   2.341   9.718   0.698
  164SOL    HW110061   2.425   9.772   0.704
  164SOL    HW210062   2.263   9.778   0.684
  165SOL     OW10063   3.374   8.474   1.398
  165SOL    HW110064   3.471   8.456   1.385
  165SOL    HW210065   3.324   8.448   1.316
  166SOL     OW10066   2.812   0.513   0.226
  166SOL    HW110067   2.886   0.570   0.189
  166SOL    HW210068   2.830   0.417   0.203
  167SOL     OW10069   4.878   0.456   1.289
  167SOL    HW110070   4.961   0.460   1.233
  167SOL    HW210071   4.901   0.474   1.385
  168SOL     OW10072   4.675   9.875   0.531
  168SOL    HW110073   4.704   9.901   0.623
  168SOL    HW210074   4.718   9.935   0.464
  169SOL     OW10075   4.738   9.961   0.784
  169SOL    HW110076   4.817   0.016   0.812
  169SOL    HW210077   4.706   9.906   0.861
  170SOL     OW10078   3.110   9.495   1.547
  170SOL    HW110079   3.126   9.584   1.506
  170SOL    HW210080   3.052   9.440   1.488
  171SOL     OW10081   3.986   0.442   0.797
  171SOL    HW110082   4.033   0.432   0.885
  171SOL    HW210083   3.898   0.487   0.811
  172SOL     OW10084   3.375   0.646   0.626
  172SOL    HW110085   3.365   0.732   0.576
  172SOL    HW210086   3.471   0.633   0.650
  173SOL     OW10087   2.903   0.777   1.758
  173SOL    HW110088   2.869   0.763   1.851
  173SOL    HW210089   2.838   0.738   1.692
  174SOL     OW10090   3.382   0.901   0.130
  174SOL    HW110091   3.368   0.975   0.195
  174SOL    HW210092   3.445   0.833   0.170
  175SOL     OW10093   3.833   9.776   0.682
  175SOL    HW110094   3.874   9.714   0.749
  175SOL    HW210095   3.890   9.780   0.601
  176SOL     OW10096   2.862   9.719   0.941
  176SOL    HW110097   2.953   9.679   0.954
  176SOL    HW210098   2.807   9.656   0.886
  177SOL     OW10099   3.788   9.073   0.522
  177SOL    HW110100   3.746   8.984   0.538
  177SOL    HW210101   3.801   9.087   0.423
  178SOL     OW10102   3.525   1.596   1.933
  178SOL    HW110103   3.539   1.689   1.899
  178SOL    HW210104   3.443   1.558   1.890
  179SOL     OW10105   2.859   0.783   1.329
  179SOL    HW110106   2.933   0.847   1.345
  179SOL    HW210107   2.830   0.743   1.416
  180SOL     OW10108   3.602   9.115   1.468
  180SOL    HW110109   3.589   9.023   1.432
  180SOL    HW210110   3.527   9.138   1.529
  181SOL     OW10111   2.498   9.426   1.042
  181SOL    HW110112   2.545   9.424   1.131
  181SOL    HW210113   2.460   9.516   1.026
  182SOL     OW10114   4.167   9.118   1.623
  182SOL    HW110115   4.092   9.104   1.559
  182SOL    HW210116   4.224   9.194   1.591
  183SOL     OW10117   3.044   0.155   1.699
  183SOL    HW110118   3.134   0.142   1.741
  183SOL    HW210119   2.974   0.152   1.769
  184SOL     OW10120   3.705   0.514   1.357
  184SOL    HW110121   3.764   0.467   1.423
  184SOL    HW210122   3.717   0.613   1.366
  185SOL     OW10123   3.188   8.109   1.533
  185SOL    HW110124   3.128   8.050   1.587
  185SOL    HW210125   3.205   8.194   1.583
  186SOL     OW10126   3.375   9.816   0.679
  186SOL    HW110127   3.463   9.858   0.700
  186SOL    HW210128   3.304   9.854   0.738
  187SOL     OW10129   2.725   8.523   2.035
  187SOL    HW110130   2.748   8.495   2.128
  187SOL    HW210131   2.731   8.623   2.028
  188SOL     OW10132   2.736   8.733   1.301
  188SOL    HW110133   2.636   8.724   1.297
  188SOL    HW210134   2.766   8.712   1.394
  189SOL     OW10135   3.101   9.362   0.066
  189SOL    HW110136   3.022   9.382   0.124
  189SOL    HW210137   3.148   9.281   0.100
  190SOL     OW10138   4.631   0.347   1.236
  190SOL    HW110139   4.569   0.420   1.207
  190SOL    HW210140   4.722   0.385   1.253
  191SOL     OW10141   2.528   9.395   0.495
  191SOL    HW110142   2.623   9.422   0.486
  191SOL    HW210143   2.498   9.408   0.589
  192SOL     OW10144   4.313   0.309   1.065
  192SOL    HW110145   4.215   0.321   1.052
  192SOL    HW210146   4.353   0.392   1.103
  193SOL     OW10147   2.406   9.678   0.979
  193SOL    HW110148   2.449   9.763   1.008
  193SOL    HW210149   2.359   9.693   0.892
  194SOL     OW10150   2.488   9.476   0.752
  194SOL    HW110151   2.428   9.555   0.737
  194SOL    HW210152   2.479   9.445   0.847
  195SOL     OW10153   2.874   9.383   0.258
  195SOL    HW110154   2.881   9.294   0.301
  195SOL    HW210155   2.845   9.451   0.326
  196SOL     OW10156   2.462   9.944   1.254
  196SOL    HW110157   2.491   0.039   1.268
  196SOL    HW210158   2.392   9.920   1.321
  197SOL     OW10159   4.207   9.027   1.874
  197SOL    HW110160   4.223   8.929   1.876
  197SOL    HW210161   4.192   9.057   1.780
  198SOL     OW10162   3.810   0.728   0.201
  198SOL    HW110163   3.901   0.760   0.227
  198SOL    HW210164   3.802   0.726   0.101
  199SOL     OW10165   4.003   0.568   0.536
  199SOL    HW110166   4.010   0.513   0.619
  199SOL    HW210167   3.998   0.508   0.456
  200SOL     OW10168   2.296   9.574   1.444
  200SOL    HW110169   2.316   9.513   1.520
  200SOL    HW210170   2.235   9.529   1.379
  201SOL     OW10171   2.133   9.842   2.112
  201SOL    HW110172   2.050   9.877   2.069
  201SOL    HW210173   2.137   9.875   2.206
  202SOL     OW10174   3.405   9.170   1.652
  202SOL    HW110175   3.381   9.267   1.652
  202SOL    HW210176   3.413   9.138   1.746
  203SOL     OW10177   3.475   9.686   1.599
  203SOL    HW110178   3.410   9.762   1.606
  203SOL    HW210179   3.541   9.705   1.526
  204SOL     OW10180   2.680   9.967   1.956
  204SOL    HW110181   2.705   9.878   1.917
  204SOL    HW210182   2.584   9.966   1.985
  205SOL     OW10183   3.535   9.104   1.949
  205SOL    HW110184   3.501   9.198   1.953
  205SOL    HW210185   3.626   9.104   1.908
  206SOL     OW10186   4.182   9.966   2.148
  206SOL    HW110187   4.132   0.017   2.077
  206SOL    HW210188   4.189   0.021   2.230
  207SOL     OW10189   2.304   9.854   1.461
  207SOL    HW110190   2.277   9.758   1.455
  207SOL    HW210191   2.329   9.877   1.555
  208SOL     OW10192   4.315   0.085   1.224
  208SOL    HW110193   4.413   0.073   1.241
  208SOL    HW210194   4.300   0.166   1.167
  209SOL     OW10195   3.795   9.110   0.257
  209SOL    HW110196   3.697   9.112   0.239
  209SOL    HW210197   3.844   9.153   0.181
  210SOL     OW10198   3.797   0.150   1.198
  210SOL    HW110199   3.731   0.180   1.266
  210SOL    HW210200   3.857   0.080   1.238
  211SOL     OW10201   3.088   0.940   1.336
  211SOL    HW110202   3.160   0.878   1.366
  211SOL    HW210203   3.091   0.949   1.236
  212SOL     OW10204   2.483   8.601   2.182
  212SOL    HW110205   2.520   8.539   2.113
  212SOL    HW210206   2.555   8.628   2.246
  213SOL     OW10207   3.409   1.164   1.545
  213SOL    HW110208   3.311   1.159   1.526
  213SOL    HW210209   3.433   1.256   1.575
  214SOL     OW10210   2.535   9.681   1.354
  214SOL    HW110211   2.444   9.651   1.384
  214SOL    HW210212   2.528   9.772   1.312
  215SOL     OW10213   3.115   0.954   1.068
  215SOL    HW110214   3.158   1.031   1.021
  215SOL    HW210215   3.119   0.873   1.008
  216SOL     OW10216   2.907   9.089   1.446
  216SOL    HW110217   2.881   9.038   1.363
  216SOL    HW210218   2.935   9.181   1.421
  217SOL     OW10219   4.060   9.651   1.796
  217SOL    HW110220   4.071   9.751   1.801
  217SOL    HW210221   4.108   9.608   1.872
  218SOL     OW10222   3.722   0.784   1.394
  218SOL    HW110223   3.799   0.837   1.428
  218SOL    HW210224   3.637   0.836   1.409
  219SOL     OW10225   3.827   1.061   1.209
  219SOL    HW110226   3.734   1.029   1.189
  219SOL    HW210227   3.856   1.028   1.298
  220SOL     OW10228   3.101   0.682   1.595
  220SOL    HW110229   3.061   0.592   1.576
  220SOL    HW210230   3.041   0.733   1.657
  221SOL     OW10231   2.977   0.438   1.566
  221SOL    HW110232   2.956   0.360   1.506
  221SOL    HW210233   3.034   0.407   1.642
  222SOL     OW10234   2.965   9.965   0.918
  222SOL    HW110235   2.918   9.878   0.931
  222SOL    HW210236   2.899   0.034   0.888
  223SOL     OW10237   3.298   9.576   0.783
  223SOL    HW110238   3.317   9.501   0.720
  223SOL    HW210239   3.320   9.663   0.739
  224SOL     OW10240   3.252   8.948   1.833
  224SOL    HW110241   3.242   8.986   1.925
  224SOL    HW210242   3.183   8.988   1.773
  225SOL     OW10243   2.689   9.751   0.490
  225SOL    HW110244   2.611   9.813   0.491
  225SOL    HW210245   2.774   9.804   0.492
  226SOL     OW10246   2.788   0.397   0.748
  226SOL    HW110247   2.843   0.453   0.810
  226SOL    HW210248   2.795   0.433   0.655
  227SOL     OW10249   3.261   8.602   1.609
  227SOL    HW110250   3.326   8.653   1.665
  227SOL    HW210251   3.308   8.569   1.527
  228SOL     OW10252   3.282   0.938   0.767
  228SOL    HW110253   3.287   0.926   0.668
  228SOL    HW210254   3.235   0.860   0.808
  229SOL     OW10255   3.288   1.090   2.038
  229SOL    HW110256   3.384   1.088   2.065
  229SOL    HW210257   3.257   1.185   2.036
  230SOL     OW10258   4.281   8.758   1.886
  230SOL    HW110259   4.370   8.746   1.844
  230SOL    HW210260   4.288   8.739   1.984
  231SOL     OW10261   2.943   0.548   0.936
  231SOL    HW110262   2.998   0.484   0.990
  231SOL    HW210263   2.892   0.609   0.997
  232SOL     OW10264   3.681   8.900   1.235
  232SOL    HW110265   3.582   8.891   1.248
  232SOL    HW210266   3.699   8.963   1.160
  233SOL     OW10267   3.608   0.477   1.087
  233SOL    HW110268   3.638   0.481   1.183
  233SOL    HW210269   3.578   0.384   1.066
  234SOL     OW10270   2.990   0.132   0.641
  234SOL    HW110271   3.049   0.201   0.682
  234SOL    HW210272   2.908   0.120   0.697
  235SOL     OW10273   2.619   8.877   0.072
  235SOL    HW110274   2.667   8.957   0.038
  235SOL    HW210275   2.539   8.859   0.014
  236SOL     OW10276   3.840   8.947   1.646
  236SOL    HW110277   3.783   8.881   1.597
  236SOL    HW210278   3.887   9.006   1.581
  237SOL     OW10279   3.239   8.336   1.677
  237SOL    HW110280   3.212   8.345   1.772
  237SOL    HW210281   3.241   8.426   1.633
  238SOL     OW10282   2.412   9.882   1.719
  238SOL    HW110283   2.399   9.925   1.808
  238SOL    HW210284   2.502   9.908   1.682
  239SOL     OW10285   2.785   8.455   2.878
  239SOL    HW110286   2.785   8.541   0.047
  239SOL    HW210287   2.749   8.382   0.055
  240SOL     OW10288   3.112   0.707   0.379
  240SOL    HW110289   3.092   0.639   0.450
  240SOL    HW210290   3.088   0.670   0.290
  241SOL     OW10291   2.774   0.632   1.552
  241SOL    HW110292   2.839   0.556   1.556
  241SOL    HW210293   2.691   0.602   1.504
  242SOL     OW10294   3.073   0.583   0.129
  242SOL    HW110295   3.142   0.511   0.139
  242SOL    HW210296   3.087   0.630   0.042
  243SOL     OW10297   2.478   9.620   1.781
  243SOL    HW110298   2.439   9.545   1.727
  243SOL    HW210299   2.435   9.706   1.754
  244SOL     OW10300   3.661   9.666   1.796
  244SOL    HW110301   3.693   9.572   1.790
  244SOL    HW210302   3.591   9.682   1.727
  245SOL     OW10303   2.429   0.399   0.470
  245SOL    HW110304   2.474   0.410   0.381
  245SOL    HW210305   2.394   0.306   0.478
  246SOL     OW10306   3.158   9.759   1.460
  246SOL    HW110307   3.202   9.806   1.536
  246SOL    HW210308   3.058   9.768   1.469
  247SOL     OW10309   3.764   9.359   0.513
  247SOL    HW110310   3.774   9.259   0.522
  247SOL    HW210311   3.792   9.386   0.421
  248SOL     OW10312   2.927   0.722   2.066
  248SOL    HW110313   2.997   0.785   2.032
  248SOL    HW210314   2.906   0.744   2.161
  249SOL     OW10315   3.512   8.277   1.625
  249SOL    HW110316   3.520   8.197   1.565
  249SOL    HW210317   3.415   8.301   1.635
  250SOL     OW10318   2.959   8.327   0.765
  250SOL    HW110319   2.918   8.404   0.813
  250SOL    HW210320   2.904   8.304   0.684
  251SOL     OW10321   4.125   9.915   1.122
  251SOL    HW110322   4.202   9.969   1.155
  251SOL    HW210323   4.135   9.899   1.024
  252SOL     OW10324   3.144   1.165   1.480
  252SOL    HW110325   3.120   1.083   1.428
  252SOL    HW210326   3.063   1.223   1.491
  253SOL     OW10327   2.776   8.690   0.205
  253SOL    HW110328   2.782   8.726   0.298
  253SOL    HW210329   2.716   8.748   0.151
  254SOL     OW10330   3.402   0.619   0.943
  254SOL    HW110331   3.446   0.620   0.853
  254SOL    HW210332   3.462   0.572   1.008
  255SOL     OW10333   2.763   8.801   1.999
  255SOL    HW110334   2.706   8.870   2.043
  255SOL    HW210335   2.860   8.820   2.017
  256SOL     OW10336   4.308   9.788   1.950
  256SOL    HW110337   4.245   9.832   1.885
  256SOL    HW210338   4.304   9.837   2.038
  257SOL     OW10339   2.799   0.525   0.509
  257SOL    HW110340   2.814   0.617   0.545
  257SOL    HW210341   2.796   0.528   0.409
  258SOL     OW10342   2.498   9.164   1.606
  258SOL    HW110343   2.466   9.080   1.562
  258SOL    HW210344   2.597   9.159   1.620
  259SOL     OW10345   3.347   9.446   1.672
  259SOL    HW110346   3.254   9.455   1.636
  259SOL    HW210347   3.401   9.525   1.643
  260SOL     OW10348   3.330   1.348   0.774
  260SOL    HW110349   3.366   1.429   0.821
  260SOL    HW210350   3.301   1.280   0.842
  261SOL     OW10351   4.266   9.692   0.443
  261SOL    HW110352   4.359   9.667   0.472
  261SOL    HW210353   4.271   9.752   0.363
  262SOL     OW10354   3.132   0.331   0.767
  262SOL    HW110355   3.124   0.412   0.709
  262SOL    HW210356   3.124   0.358   0.863
  263SOL     OW10357   3.948   9.218   0.051
  263SOL    HW110358   3.918   9.286   2.865
  263SOL    HW210359   3.994   9.142   0.005
  264SOL     OW10360   2.926   9.884   0.493
  264SOL    HW110361   2.993   9.828   0.445
  264SOL    HW210362   2.973   9.957   0.543
  265SOL     OW10363   3.487   0.935   1.421
  265SOL    HW110364   3.410   0.871   1.429
  265SOL    HW210365   3.468   1.018   1.473
  266SOL     OW10366   3.378   8.916   1.536
  266SOL    HW110367   3.397   8.854   1.612
  266SOL    HW210368   3.361   9.008   1.572
  267SOL     OW10369   3.615   9.935   0.733
  267SOL    HW110370   3.590   0.005   0.666
  267SOL    HW210371   3.694   9.884   0.700
  268SOL     OW10372   2.851   0.769   0.627
  268SOL    HW110373   2.869   0.854   0.577
  268SOL    HW210374   2.804   0.790   0.712
  269SOL     OW10375   4.042   0.103   1.950
  269SOL    HW110376   3.945   0.078   1.953
  269SOL    HW210377   4.053   0.191   1.904
  270SOL     OW10378   3.648   9.556   0.658
  270SOL    HW110379   3.701   9.640   0.666
  270SOL    HW210380   3.703   9.486   0.612
  271SOL     OW10381   3.485   0.122   0.575
  271SOL    HW110382   3.445   0.169   0.496
  271SOL    HW210383   3.431   0.141   0.657
  272SOL     OW10384   2.479   9.934   0.416
  272SOL    HW110385   2.542   9.940   0.338
  272SOL    HW210386   2.422   9.853   0.406
  10.00000  10.00000   2.88200
