Written by MDAnalysis
15641
    1CHTO  H203    1   5.791   6.971   2.250  3.6414  2.5803  1.0751
    1CHTO   O82    2   5.850   6.908   2.213  0.2747 -0.0504 -0.0494
    1CHTO  C123    3   5.965   6.898   2.300 -0.7171  0.2010 -0.1457
    1CHTO  H227    4   5.962   6.982   2.371 -1.2918 -1.5962  2.0119
    1CHTO   O77    5   5.946   6.777   2.378  0.8526 -0.1294  0.0804
    1CHTO  C118    6   6.054   6.726   2.456  0.2297  0.1048  0.2942
    1CHTO  H222    7   6.080   6.806   2.528 -3.3602  0.0827  1.6961
    1CHTO  C125    8   6.008   6.590   2.529 -0.0797  0.0710 -0.1710
    1CHTO   O84    9   5.952   6.493   2.443 -0.4309  0.0297  0.4490
    1CHTO  H205   10   5.945   6.521   2.354 -0.8500 -1.1624  0.0938
    1CHTO  C114   11   6.178   6.710   2.368 -0.2303 -0.4149  0.1361
    1CHTO  H218   12   6.152   6.634   2.294 -0.5673 -0.0598 -0.1086
    1CHTO  C116   13   6.221   6.839   2.289  0.1469 -0.2236  0.3391
    1CHTO  H220   14   6.253   6.908   2.369 -2.5580  0.8707  0.5242
    1CHTO   O79   15   6.330   6.813   2.205  0.0880 -0.1701 -0.5839
    1CHTO  H201   16   6.340   6.885   2.145 -0.6748  0.6558  0.2540
    1CHTO  C120   17   6.098   6.892   2.208  0.2670  0.2497 -0.8292
    1CHTO  H224   18   6.085   6.816   2.129  0.3585  1.8184 -2.3820
    1CHTO   N21   19   6.128   7.014   2.129 -0.2309  0.9045  0.0554
    1CHTO  H211   20   6.043   7.080   2.140 -1.3922 -0.2924 -1.4772
    1CHTO  H212   21   6.139   6.993   2.024  0.6735  0.3852  0.2422
    1CHTO   O75   22   6.278   6.662   2.452  0.3214 -0.2816  0.0438
    1CHTO  C112   23   6.339   6.514   2.402  0.2091  0.6228  0.2622
    1CHTO  H216   24   6.346   6.507   2.293 -1.6481 -0.1893  0.1730
    1CHTO   O73   25   6.264   6.406   2.455  0.0323 -0.0071  0.3309
    1CHTO  C113   26   6.309   6.273   2.444  0.4411 -0.1193  0.2555
    1CHTO  H217   27   6.291   6.247   2.337 -0.3544  2.6730 -0.3306
    1CHTO  C124   28   6.202   6.174   2.505 -0.6761  0.2239 -0.5676
    1CHTO   O83   29   6.235   6.039   2.452 -0.0036  0.1661 -0.0370
    1CHTO  H204   30   6.289   5.988   2.509  0.4917 -0.6730 -1.2453
    1CHTO  C109   31   6.456   6.245   2.484 -0.5111  0.1156  0.6720
    1CHTO  H213   32   6.457   6.237   2.594  3.1438 -0.4880  0.6496
    1CHTO  C110   33   6.548   6.363   2.432  0.1243 -0.5517 -0.4518
    1CHTO  H214   34   6.556   6.353   2.324  0.4401  0.6813 -0.5496
    1CHTO   O78   35   6.685   6.359   2.483  0.3020  0.1915 -0.2340
    1CHTO  H200   36   6.685   6.299   2.555  0.6008 -0.5206 -0.8161
    1CHTO  C111   37   6.491   6.506   2.450  0.2582 -0.5668  0.6471
    1CHTO  H215   38   6.480   6.526   2.558  0.6680 -0.7846  0.7298
    1CHTO   N19   39   6.575   6.613   2.397  0.4287  0.4005 -0.8457
    1CHTO  H207   40   6.523   6.707   2.410 -0.6553 -0.3153  0.0461
    1CHTO  H208   41   6.604   6.598   2.294 -0.0585 -0.2279 -0.8907
    1CHTO   O74   42   6.504   6.121   2.429  0.3299 -0.2480 -0.0625
    1CHTO  C115   43   6.610   6.031   2.534  0.6136  0.3913  0.6374
    1CHTO  H219   44   6.613   6.068   2.636 -1.7038 -1.1344  1.3022
    1CHTO   O76   45   6.567   5.885   2.548 -0.2581  0.3042  0.3914
    1CHTO  C122   46   6.557   5.817   2.421 -0.4508  0.1525 -0.3456
    1CHTO  H226   47   6.458   5.840   2.382 -1.6831 -2.3185  1.1627
    1CHTO  C126   48   6.553   5.659   2.449  0.4834 -0.2092 -0.2974
    1CHTO   O85   49   6.450   5.625   2.536 -0.4293  0.0811 -0.0453
    1CHTO  H206   50   6.391   5.698   2.542  2.0451  2.0117  2.6686
    1CHTO  C121   51   6.676   5.852   2.322  0.5976  0.4642 -0.2380
    1CHTO  H225   52   6.704   5.759   2.269 -0.6630  0.6637 -1.2756
    1CHTO   O81   53   6.637   5.948   2.223 -0.1795  0.2463  0.1435
    1CHTO  H202   54   6.582   5.902   2.163 -0.9982  2.8063 -1.1269
    1CHTO  C119   55   6.794   5.907   2.405 -0.1180 -0.3619 -0.5902
    1CHTO  H223   56   6.812   5.833   2.483  0.5046 -3.5749 -3.6782
    1CHTO  C117   57   6.755   6.043   2.476  0.0364 -0.6866  0.2853
    1CHTO  H221   58   6.750   6.123   2.402 -0.9092 -0.9074  0.1001
    1CHTO   N20   59   6.856   6.086   2.573  0.2335  0.0134 -0.9021
    1CHTO  H209   60   6.819   6.170   2.631 -2.3274 -0.5747 -1.6298
    1CHTO  H210   61   6.956   6.089   2.532  0.0297  0.0555 -1.3974
    1CHTO   O80   62   6.931   5.897   2.317 -0.8204  0.3397 -0.1758
    1CHTO  C103   63   7.033   5.776   2.349  0.0152  0.4947 -1.0413
    1CHTO  H190   64   7.025   5.747   2.453  0.0965 -0.0697 -1.1875
    1CHTO  C101   65   7.014   5.650   2.263 -0.1477 -0.0587 -0.1043
    1CHTO  H188   66   7.015   5.686   2.160  0.0125  1.6884  0.4961
    1CHTO   O68   67   6.866   5.570   2.315  0.9694  0.2201  0.5685
    1CHTO  H168   68   6.896   5.526   2.392  3.8682  0.6560 -0.2469
    1CHTO   C99   69   7.137   5.543   2.287  0.2732  0.3042  0.4731
    1CHTO  H186   70   7.120   5.508   2.391 -2.2749  0.8855  0.2956
    1CHTO   N17   71   7.127   5.428   2.192  0.2217 -0.2844 -0.5389
    1CHTO  H174   72   7.030   5.384   2.210 -0.8787  1.5717 -1.8450
    1CHTO  H175   73   7.126   5.476   2.096 -0.8006 -1.8679 -1.3382
    1CHTO   C97   74   7.276   5.611   2.285 -0.4275  0.1578  0.5178
    1CHTO  H184   75   7.296   5.639   2.180  2.1019 -0.8966  0.6843
    1CHTO   O64   76   7.273   5.727   2.367 -0.0448 -0.1240  0.0547
    1CHTO  C104   77   7.180   5.831   2.329 -0.4240 -0.3827 -0.0392
    1CHTO  H191   78   7.186   5.860   2.224 -1.2561  2.4293  0.6617
    1CHTO  C108   79   7.209   5.956   2.415 -0.5785 -0.4276  0.1685
    1CHTO   O71   80   7.184   6.073   2.342  0.5389  0.4822  0.1421
    1CHTO  H171   81   7.094   6.095   2.360  1.1985  1.3528  2.4710
    1CHTO   O62   82   7.378   5.529   2.345  0.3586  0.0281 -1.1540
    1CHTO   C91   83   7.495   5.509   2.265 -0.8130 -0.0307  0.5516
    1CHTO  H178   84   7.470   5.492   2.161  2.9973  1.1403 -0.6320
    1CHTO   C92   85   7.566   5.377   2.311 -0.0543  0.4935  0.3332
    1CHTO  H179   86   7.585   5.370   2.419  1.9784  0.5761  0.0089
    1CHTO   O66   87   7.461   5.280   2.280  0.8470  0.6924 -0.1227
    1CHTO  H166   88   7.492   5.199   2.243  0.4106  0.6783 -0.4520
    1CHTO   C93   89   7.703   5.351   2.243  0.1021 -0.8546  0.3288
    1CHTO  H180   90   7.682   5.343   2.135  0.5751 -0.8042  0.2318
    1CHTO   N16   91   7.766   5.224   2.291 -0.2170 -0.0724 -0.3973
    1CHTO  H172   92   7.867   5.222   2.253 -0.1189 -3.4802 -0.1074
    1CHTO  H173   93   7.715   5.150   2.231  0.7984 -1.1642  0.0708
    1CHTO   C94   94   7.789   5.479   2.268 -0.5053  0.5412 -0.0575
    1CHTO  H181   95   7.792   5.506   2.374  1.9643 -3.6180  1.0483
    1CHTO   O61   96   7.729   5.593   2.207 -0.8241  0.1036 -0.0504
    1CHTO   C95   97   7.602   5.630   2.262 -0.1886  0.1185  0.3790
    1CHTO  H182   98   7.618   5.655   2.367 -0.9515  1.9724  0.0617
    1CHTO  C106   99   7.554   5.752   2.190 -0.1344  0.4282 -0.1126
    1CHTO   O69  100   7.628   5.874   2.202  0.4489  0.2547 -0.2470
    1CHTO  H169  101   7.615   5.925   2.125 -1.8972 -1.7437 -1.2398
    1CHTO   O63  102   7.927   5.460   2.215  0.0507 -0.4614 -0.2437
    1CHTO   C96  103   8.048   5.566   2.272 -0.2125 -0.7356  0.0324
    1CHTO  H183  104   7.982   5.651   2.288  0.8730  0.0979  0.1544
    1CHTO   C98  105   8.164   5.604   2.172  0.7559 -0.3459 -0.2887
    1CHTO  H185  106   8.126   5.654   2.082  1.2979  0.7723  0.0855
    1CHTO   O67  107   8.246   5.702   2.234  0.6030 -0.1062 -0.0353
    1CHTO  H167  108   8.264   5.667   2.319  1.2768 -0.4930 -0.3300
    1CHTO  C102  109   8.252   5.476   2.142  0.4250  0.7855 -0.1762
    1CHTO  H189  110   8.354   5.510   2.116  1.8619 -3.0829  0.0328
    1CHTO   N18  111   8.201   5.414   2.017  0.3345 -0.1564  0.6691
    1CHTO  H176  112   8.227   5.463   1.925  0.5980  0.0255  0.8387
    1CHTO  H177  113   8.191   5.306   2.017  1.5988 -0.2769 -0.8711
    1CHTO  C105  114   8.266   5.378   2.264  0.3344 -0.2967  0.9301
    1CHTO  H192  115   8.185   5.305   2.257 -0.5091  0.7385 -0.2345
    1CHTO   O65  116   8.258   5.448   2.388 -0.4120  0.3988  0.6468
    1CHTO  C100  117   8.116   5.494   2.405 -0.6330  0.0067  0.2345
    1CHTO  H187  118   8.053   5.405   2.421 -0.8615 -0.2907 -2.1122
    1CHTO  C107  119   8.118   5.582   2.536  0.2811  0.6258  0.4123
    1CHTO   O70  120   8.179   5.712   2.511 -0.1960 -0.0689 -0.1693
    1CHTO  H170  121   8.154   5.766   2.583  1.4277  0.0621  0.3158
    1CHTO   O57  122   8.426   5.309   2.255  0.4640 -0.1584  0.6083
    1CHTO   C85  123   8.437   5.166   2.237  0.0090  0.6233 -0.0122
    1CHTO  H157  124   8.335   5.126   2.219 -0.7505  1.8129  1.5639
    1CHTO   C83  125   8.467   5.090   2.367 -0.1352 -0.1658 -0.1101
    1CHTO  H155  126   8.397   5.124   2.443  2.6756  0.8239  2.1099
    1CHTO   O56  127   8.604   5.129   2.406  0.0240 -0.3133 -0.5906
    1CHTO  H135  128   8.615   5.130   2.499  2.0877  0.6610 -0.8253
    1CHTO   C81  129   8.448   4.940   2.345 -0.6578  0.4659  0.4814
    1CHTO  H153  130   8.346   4.924   2.312 -0.6099  0.3144  0.4024
    1CHTO   N14  131   8.456   4.866   2.474 -0.3980  0.6832  0.1012
    1CHTO  H141  132   8.542   4.803   2.470 -0.4015  0.6716  0.2341
    1CHTO  H142  133   8.368   4.808   2.495  0.3160 -0.7845 -0.8329
    1CHTO   C79  134   8.547   4.884   2.231  0.3720  0.4323  0.3171
    1CHTO  H151  135   8.513   4.784   2.201 -1.6951  0.2419  3.1077
    1CHTO   O52  136   8.537   4.970   2.108 -0.6190  0.1090  0.5110
    1CHTO   C86  137   8.545   5.115   2.126  0.2842 -0.5856  0.4627
    1CHTO  H158  138   8.652   5.126   2.151  0.5421 -4.3330  1.3238
    1CHTO   C90  139   8.524   5.177   1.980 -0.4760 -0.3087 -1.0294
    1CHTO   O60  140   8.538   5.324   1.976 -0.1713  0.0750  0.0715
    1CHTO  H138  141   8.562   5.353   2.062 -0.8988  0.0877  0.2743
    1CHTO   O50  142   8.687   4.872   2.255  0.1558  0.1816 -0.4014
    1CHTO   C73  143   8.760   4.763   2.202 -0.7699  0.1215  0.2615
    1CHTO  H145  144   8.723   4.733   2.102 -0.8422  1.3461 -0.0872
    1CHTO   C74  145   8.753   4.640   2.293  0.4162  0.5382  0.5138
    1CHTO  H146  146   8.649   4.606   2.298  0.1736  1.0905 -0.6493
    1CHTO   O54  147   8.814   4.529   2.230 -0.1060 -0.2546  0.3126
    1CHTO  H133  148   8.903   4.553   2.211  0.0686 -0.3063  1.0536
    1CHTO   C75  149   8.813   4.675   2.436 -0.1149 -1.0967  0.3285
    1CHTO  H147  150   8.750   4.750   2.486  0.4145  0.3927 -1.2200
    1CHTO   N13  151   8.796   4.565   2.534  0.1022 -0.4767  0.2676
    1CHTO  H139  152   8.694   4.530   2.536 -0.1511  0.2764  0.6922
    1CHTO  H140  153   8.814   4.594   2.637 -0.0164 -1.8651  0.6912
    1CHTO   C76  154   8.961   4.733   2.417  0.1240  0.3531 -0.1280
    1CHTO  H148  155   9.028   4.655   2.382  0.4238  0.6836 -0.2845
    1CHTO   O49  156   8.961   4.849   2.325  0.2973 -0.0652 -0.1328
    1CHTO   C77  157   8.906   4.811   2.196 -0.5187  0.4456  0.2997
    1CHTO  H149  158   8.968   4.732   2.154  0.9196  1.8670 -0.3075
    1CHTO   C88  159   8.938   4.934   2.115  0.0728  0.4338  0.1425
    1CHTO   O58  160   8.896   4.937   1.980  0.3512  0.2613 -0.1943
    1CHTO  H136  161   8.959   4.995   1.941 -0.1151  0.4475 -0.6664
    1CHTO   O51  162   9.013   4.803   2.565 -0.3793  0.1627  0.1569
    1CHTO   C78  163   8.966   4.944   2.600  0.7269 -0.1499 -0.1198
    1CHTO  H150  164   8.868   4.960   2.549  0.3543  0.3360  0.7435
    1CHTO   C80  165   9.054   5.061   2.563  0.1492 -0.4135 -0.3580
    1CHTO  H152  166   9.158   5.030   2.587  0.8822  0.3134 -2.5107
    1CHTO   O55  167   9.047   5.074   2.420 -0.0985  0.3293 -0.5688
    1CHTO  H134  168   9.124   5.051   2.370 -2.6459  0.0628 -4.5361
    1CHTO   C84  169   9.011   5.189   2.644 -0.2315 -0.3941 -0.5455
    1CHTO  H156  170   8.913   5.215   2.603  0.2690  0.7434 -1.0448
    1CHTO   N15  171   9.096   5.310   2.625 -0.2754  0.0826  0.1907
    1CHTO  H143  172   9.193   5.275   2.596 -0.9690 -0.3756 -1.6439
    1CHTO  H144  173   9.056   5.365   2.542 -0.7529  1.6543  1.4437
    1CHTO   C87  174   9.005   5.159   2.795  0.4423  0.3298 -0.2531
    1CHTO  H159  175   9.103   5.128   2.832  0.1979 -0.8675 -0.5738
    1CHTO   O53  176   8.916   5.045   2.820  0.1097  0.0070  0.2340
    1CHTO   C82  177   8.943   4.921   2.749 -0.4622  0.0824 -0.3873
    1CHTO  H154  178   9.039   4.891   2.792 -0.4730  0.3465 -0.1756
    1CHTO   C89  179   8.835   4.820   2.792  0.7349  0.3770  0.0250
    1CHTO   O59  180   8.704   4.870   2.762 -0.3451 -0.6488 -0.2651
    1CHTO  H137  181   8.689   4.878   2.670  1.0437  2.9040 -0.2831
    1CHTO   O45  182   8.961   5.281   2.890 -0.0724 -0.1376 -0.8224
    1CHTO   C67  183   8.835   5.359   2.872 -0.1680  0.1173 -0.3716
    1CHTO  H124  184   8.848   5.415   2.779  0.8672  1.5812  0.6372
    1CHTO   C65  185   8.700   5.276   2.861 -0.6208  0.1521  0.4002
    1CHTO  H122  186   8.727   5.170   2.866  0.0141  0.4226  3.1687
    1CHTO   O44  187   8.638   5.301   2.728  0.6835 -0.4811  0.6896
    1CHTO  H102  188   8.627   5.393   2.715  2.7422 -0.3309 -0.1929
    1CHTO   C63  189   8.594   5.304   2.977 -0.3871  0.0650  0.3687
    1CHTO  H120  190   8.629   5.269   3.074 -1.1565 -0.6276  0.3988
    1CHTO   N11  191   8.465   5.227   2.963 -0.2689 -0.1939 -0.6983
    1CHTO  H108  192   8.470   5.120   2.973 -0.0780 -0.1467 -0.3015
    1CHTO  H109  193   8.422   5.251   2.868 -0.0558 -0.4454 -0.8587
    1CHTO   C61  194   8.580   5.459   2.990  0.0042 -0.0755 -0.2233
    1CHTO  H118  195   8.516   5.471   3.078 -0.9660  2.6221 -1.2500
    1CHTO   O40  196   8.705   5.538   3.012 -0.5209  0.3353  0.2118
    1CHTO   C68  197   8.836   5.469   2.998 -1.2921 -0.4845 -0.0735
    1CHTO  H125  198   8.864   5.423   3.095  1.0420  0.0893 -0.4446
    1CHTO   C72  199   8.938   5.587   2.984 -0.9766  0.1134  0.0015
    1CHTO   O48  200   8.956   5.662   3.108 -0.5357  0.1636  0.3647
    1CHTO  H105  201   8.976   5.606   3.180 -2.0740 -3.7012 -2.0806
    1CHTO   O38  202   8.514   5.529   2.880 -0.3929 -0.1582 -0.0574
    1CHTO   C55  203   8.453   5.649   2.926 -0.2872 -0.1888  0.2666
    1CHTO  H112  204   8.495   5.673   3.025 -1.2715 -1.9907  1.1381
    1CHTO   C56  205   8.299   5.624   2.930 -0.4617  0.2396  0.5270
    1CHTO  H113  206   8.279   5.571   2.836 -0.2654 -0.5284  0.9077
    1CHTO   O42  207   8.272   5.525   3.032  0.2261  0.2783  0.2358
    1CHTO  H100  208   8.350   5.481   3.060  0.7338  0.7779 -0.3813
    1CHTO   C57  209   8.216   5.762   2.945  0.4154  0.5252 -0.1764
    1CHTO  H114  210   8.225   5.783   3.052 -0.8930  1.1452 -0.1874
    1CHTO   N10  211   8.072   5.749   2.924 -0.2916 -0.5112 -0.4854
    1CHTO  H106  212   8.035   5.649   2.945  2.4794 -1.1564  1.5640
    1CHTO  H107  213   8.042   5.784   2.827 -0.6062 -0.9360 -0.5434
    1CHTO   C58  214   8.271   5.877   2.864  0.3826  0.4209 -0.2614
    1CHTO  H115  215   8.240   5.857   2.759 -3.1853  0.1209  0.7985
    1CHTO   O37  216   8.409   5.888   2.885 -0.0574  0.3356 -0.0896
    1CHTO   C59  217   8.481   5.778   2.838  0.0927 -0.7207 -0.1892
    1CHTO  H116  218   8.457   5.750   2.735  0.6012  0.4824 -0.6431
    1CHTO   C70  219   8.634   5.810   2.820 -0.0897  0.0082 -0.2090
    1CHTO   O46  220   8.711   5.853   2.936  0.1060  0.0558  0.3237
    1CHTO  H103  221   8.657   5.882   3.008  0.1599  0.2935  0.2691
    1CHTO   O39  222   8.215   6.005   2.914 -0.2064  0.3027 -0.0778
    1CHTO   C60  223   8.178   6.115   2.823  0.7160  0.6497  0.2316
    1CHTO  H117  224   8.228   6.101   2.727  0.5102 -1.0582  0.3596
    1CHTO   C62  225   8.021   6.120   2.796 -0.0999 -0.0199  0.8941
    1CHTO  H119  226   7.993   6.029   2.740 -1.0542  1.2683 -0.7683
    1CHTO   O43  227   7.949   6.121   2.915  0.1279 -0.3356  0.4263
    1CHTO  H101  228   7.972   6.203   2.953  1.4415 -0.8703  0.8234
    1CHTO   C66  229   7.996   6.245   2.704  0.1968  0.2614  0.0638
    1CHTO  H123  230   8.055   6.237   2.613  0.1566  1.0360 -0.0318
    1CHTO   N12  231   7.852   6.257   2.656 -0.3475 -0.0746 -0.5801
    1CHTO  H110  232   7.839   6.174   2.587 -0.0591  0.6031 -1.4603
    1CHTO  H111  233   7.782   6.262   2.737 -1.7759  0.8125 -1.8415
    1CHTO   C69  234   8.049   6.372   2.781  1.0363 -1.2743 -0.7607
    1CHTO  H126  235   8.005   6.371   2.882  0.7851 -0.4797 -0.8618
    1CHTO   O41  236   8.186   6.351   2.795  0.1642 -0.3986 -0.4556
    1CHTO   C64  237   8.232   6.249   2.881 -0.2658  0.0165 -0.0763
    1CHTO  H121  238   8.197   6.259   2.985  1.4203  0.5312  0.4535
    1CHTO   C71  239   8.383   6.259   2.876  0.3141 -0.2059  0.2293
    1CHTO   O47  240   8.448   6.221   2.756  0.0763  0.1856 -0.2861
    1CHTO  H104  241   8.530   6.185   2.783 -0.3751 -1.9140 -1.5865
    1CHTO   O34  242   8.019   6.510   2.692  0.4034  0.3444  0.0318
    1CHTO   C49  243   7.901   6.627   2.737  0.4561  0.1785  1.0519
    1CHTO   H91  244   7.821   6.572   2.786 -0.9560 -1.8051 -3.2604
    1CHTO   C47  245   7.857   6.687   2.599 -0.2596 -0.4400  0.1745
    1CHTO   H89  246   7.771   6.750   2.629  0.2928  1.5847 -2.3763
    1CHTO   O33  247   7.816   6.582   2.513  0.1995  0.0641 -0.6294
    1CHTO   H70  248   7.746   6.534   2.553  1.3971 -1.2734 -0.0847
    1CHTO   C45  249   7.968   6.782   2.539 -0.4396 -0.8250  0.5421
    1CHTO   H87  250   8.056   6.719   2.520 -0.5769 -0.6618 -0.7237
    1CHTO    N8  251   7.929   6.839   2.407 -0.6687 -0.4758 -0.3702
    1CHTO   H75  252   7.862   6.775   2.351 -0.8508 -0.7153  0.1195
    1CHTO   H76  253   7.890   6.939   2.420 -1.1617 -0.5115 -1.5248
    1CHTO   C43  254   8.000   6.897   2.644 -0.1652 -0.8351  0.9222
    1CHTO   H85  255   8.078   6.959   2.600 -0.1327 -0.1704  1.9019
    1CHTO   O29  256   8.039   6.839   2.768  0.5044 -0.0330 -0.1651
    1CHTO   C50  257   7.960   6.730   2.831  0.8441 -0.2243  0.0473
    1CHTO   H92  258   8.029   6.668   2.891 -0.2958 -3.3702 -1.7457
    1CHTO   C54  259   7.856   6.795   2.929  0.2854  0.1527 -0.1793
    1CHTO   O36  260   7.910   6.856   3.045  0.5685  0.1432  0.0578
    1CHTO   H72  261   7.855   6.851   3.121 -0.9573 -1.5664 -1.1144
    1CHTO   O27  262   7.900   6.993   2.671 -0.5675  0.0067 -0.1567
    1CHTO   C37  263   7.810   7.101   2.664 -0.1403 -0.1897 -0.1775
    1CHTO   H79  264   7.773   7.109   2.561 -0.5276 -3.1692 -0.2992
    1CHTO   C38  265   7.679   7.080   2.749  0.0203 -0.3974  0.1124
    1CHTO   H80  266   7.715   7.046   2.847  2.6191  1.4957 -0.1237
    1CHTO   O31  267   7.612   6.975   2.683 -0.1435  0.3590  1.0105
    1CHTO   H68  268   7.649   6.893   2.710 -0.4707 -0.0849  0.1137
    1CHTO   C39  269   7.585   7.206   2.751  0.6439  0.0492  0.2096
    1CHTO   H81  270   7.558   7.222   2.646 -0.6069  1.5452  0.7369
    1CHTO    N7  271   7.459   7.188   2.834 -0.6116  0.5442 -0.2941
    1CHTO   H73  272   7.395   7.118   2.783  0.4689  0.2108 -1.1855
    1CHTO   H74  273   7.399   7.278   2.833 -1.3427  0.1097  1.6816
    1CHTO   C40  274   7.675   7.332   2.793  0.1571 -0.1818  0.4674
    1CHTO   H82  275   7.707   7.342   2.896 -1.5665 -0.4432  1.0321
    1CHTO   O26  276   7.786   7.342   2.700 -0.5585  0.2038  0.4520
    1CHTO   C41  277   7.884   7.235   2.717 -0.1187 -0.0765  0.0326
    1CHTO   H83  278   7.910   7.222   2.823 -1.9574 -1.6378  0.3294
    1CHTO   C52  279   8.022   7.274   2.654  0.2301 -0.3732 -0.3670
    1CHTO   O35  280   8.089   7.405   2.713 -0.7923 -0.6105 -0.2533
    1CHTO   H71  281   8.078   7.482   2.661 -0.5570  0.6990  1.5885
    1CHTO   O28  282   7.601   7.457   2.779  0.3250  0.5272 -0.0198
    1CHTO   C42  283   7.607   7.556   2.675 -0.0701 -0.3575  0.2586
    1CHTO   H84  284   7.631   7.506   2.581  0.6953 -0.3903  0.4605
    1CHTO   C44  285   7.715   7.663   2.689 -0.2891 -0.4238  0.0701
    1CHTO   H86  286   7.688   7.733   2.768 -0.6753  0.1822 -0.5902
    1CHTO   O32  287   7.847   7.609   2.726 -0.0006  0.7040 -0.0433
    1CHTO   H69  288   7.855   7.520   2.696  1.1909 -0.2495  2.9168
    1CHTO   C48  289   7.724   7.746   2.546 -0.0571  0.2927 -0.7842
    1CHTO   H90  290   7.767   7.672   2.479  0.4290  0.3423 -0.5363
    1CHTO    N9  291   7.830   7.846   2.554 -0.0607 -0.7260  0.1368
    1CHTO   H77  292   7.865   7.875   2.456  0.6682 -0.3480  0.5071
    1CHTO   H78  293   7.915   7.805   2.606  0.3029 -0.1901 -0.0286
    1CHTO   C51  294   7.587   7.810   2.501 -0.6343 -0.4059  0.5221
    1CHTO   H93  295   7.567   7.884   2.579 -1.6925 -1.5305  1.3514
    1CHTO   O30  296   7.485   7.705   2.508  0.5657 -0.6580 -0.0278
    1CHTO   C46  297   7.475   7.628   2.653  0.7831  0.4554 -0.7170
    1CHTO   H88  298   7.464   7.695   2.738  1.5782 -0.4437  0.1096
    1CHTO   C53  299   7.349   7.537   2.653  0.8487 -0.3386 -0.3775
    1CHTO   O72  300   7.233   7.607   2.630  0.3042  0.4464 -0.3532
    1CHTO  H199  301   7.162   7.547   2.638  0.7977  0.1514  2.2081
    1CHTO   O22  302   7.582   7.871   2.366  0.0674 -0.2632  0.5845
    1CHTO   C31  303   7.461   7.923   2.286 -0.2925 -0.0424  0.1515
    1CHTO   H59  304   7.377   7.927   2.359 -1.3481  2.2387 -1.1556
    1CHTO   C29  305   7.491   8.065   2.229 -0.1947  0.9548 -0.3760
    1CHTO   H57  306   7.592   8.084   2.190  0.0465 -0.0411 -0.2478
    1CHTO   O21  307   7.506   8.155   2.341 -0.4986  0.5612  0.9486
    1CHTO   H37  308   7.425   8.168   2.386  0.6807  1.5490  2.8515
    1CHTO   C27  309   7.376   8.122   2.132 -1.4394 -0.8241  0.0820
    1CHTO   H55  310   7.287   8.145   2.192 -1.3939  1.4435 -0.6839
    1CHTO    N5  311   7.421   8.243   2.059 -0.1546 -0.3375  0.5215
    1CHTO   H43  312   7.341   8.291   2.005  0.1558  0.5954  0.8834
    1CHTO   H44  313   7.462   8.311   2.133 -2.1006  1.5164 -0.0750
    1CHTO   C25  314   7.336   8.015   2.027 -0.6205 -0.1496  0.1313
    1CHTO   H53  315   7.414   7.986   1.955 -1.5152 -2.1374 -0.0808
    1CHTO   O17  316   7.309   7.893   2.100 -0.4290 -0.4094 -0.0009
    1CHTO   C32  317   7.415   7.831   2.174  0.3416  0.4244  0.0680
    1CHTO   H60  318   7.495   7.818   2.101 -1.8406  1.1589 -2.5151
    1CHTO   C36  319   7.364   7.688   2.219 -0.4040  0.0431  0.1480
    1CHTO   O25  320   7.378   7.591   2.114  0.0990  0.0078  0.4953
    1CHTO   H40  321   7.450   7.533   2.129 -1.8758 -3.1268 -1.6389
    1CHTO   O15  322   7.213   8.041   1.963  0.2480 -0.1860  0.6795
    1CHTO   C19  323   7.142   7.987   1.845 -0.5401  0.7940 -0.1916
    1CHTO   H47  324   7.045   8.038   1.850 -0.1930  1.4363  0.3050
    1CHTO   C20  325   7.209   8.023   1.714  0.4522  0.2695 -0.2461
    1CHTO   H48  326   7.318   8.010   1.722  0.3007  0.3647  2.2900
    1CHTO   O19  327   7.194   8.163   1.698 -0.3966 -0.3620 -0.5367
    1CHTO   H35  328   7.263   8.204   1.649 -0.3774  0.6795  0.3558
    1CHTO   C21  329   7.163   7.955   1.577 -0.1015 -0.1956 -0.4454
    1CHTO   H49  330   7.065   7.998   1.554  0.2758  3.0413  3.5353
    1CHTO    N4  331   7.255   7.991   1.461 -0.4908  0.2582  0.1818
    1CHTO   H41  332   7.229   7.959   1.362  0.7537  0.9073 -0.3664
    1CHTO   H42  333   7.287   8.094   1.456 -0.4575  0.3840  2.3071
    1CHTO   C22  334   7.155   7.804   1.615  0.2192 -0.4958  0.1653
    1CHTO   H50  335   7.254   7.772   1.648  1.8771  2.4212 -1.6800
    1CHTO   O14  336   7.058   7.789   1.720 -0.2926  0.2348 -0.2359
    1CHTO   C23  337   7.113   7.832   1.847  0.5199  1.0795  0.5918
    1CHTO   H51  338   7.203   7.775   1.873  0.3931  0.9239  0.6928
    1CHTO   C34  339   7.009   7.801   1.948  0.3159  0.2107 -0.3653
    1CHTO   O23  340   7.000   7.660   1.960  0.0358  0.3994 -0.2948
    1CHTO   H38  341   7.084   7.618   1.968  0.4913  1.2795 -0.4369
    1CHTO   O16  342   7.098   7.728   1.510 -0.7725  0.1809  0.4017
    1CHTO   C24  343   7.209   7.621   1.439  0.0857  0.1006  0.4541
    1CHTO   H52  344   7.314   7.646   1.457  0.4114 -1.5371  0.9729
    1CHTO   C26  345   7.176   7.616   1.283  0.4651  0.5758 -0.3609
    1CHTO   H54  346   7.068   7.596   1.273 -0.0871  4.4487 -3.1462
    1CHTO   O20  347   7.192   7.748   1.233 -0.6100 -0.4381 -0.4449
    1CHTO   H36  348   7.124   7.772   1.174  0.5247  1.4352 -1.0451
    1CHTO   C30  349   7.261   7.504   1.217 -0.8335 -1.1203  0.0352
    1CHTO   H58  350   7.368   7.529   1.212 -0.7510 -1.7739 -1.5265
    1CHTO    N6  351   7.219   7.492   1.078 -0.1982  0.3894 -0.9874
    1CHTO   H45  352   7.283   7.525   0.997 -0.3446  0.2633 -1.1529
    1CHTO   H46  353   7.119   7.528   1.061  0.3125  1.8519 -0.9970
    1CHTO   C33  354   7.251   7.370   1.299  0.3153 -0.3722 -0.6922
    1CHTO   H61  355   7.152   7.325   1.287 -0.2682  0.6506  0.1223
    1CHTO   O18  356   7.269   7.388   1.443  0.3048  0.1784  0.3058
    1CHTO   C28  357   7.185   7.483   1.506  0.3524 -0.3105 -0.5272
    1CHTO   H56  358   7.082   7.450   1.488  0.5590 -0.3030 -1.7191
    1CHTO   C35  359   7.220   7.473   1.660 -0.6185  0.2541 -0.2692
    1CHTO   O24  360   7.178   7.355   1.730  0.1754 -0.0998  0.1480
    1CHTO   H39  361   7.235   7.337   1.803 -1.3374 -0.8030  1.1975
    1CHTO    O9  362   7.348   7.272   1.247 -0.3290  0.2026  0.4792
    1CHTO   C13  363   7.328   7.114   1.254 -0.1743 -0.0542 -0.1787
    1CHTO   H26  364   7.223   7.090   1.228 -0.4224 -0.1828  0.9094
    1CHTO   C11  365   7.362   7.063   1.400 -0.4606  0.7564  0.1634
    1CHTO   H24  366   7.274   7.091   1.459 -1.3168 -1.3037 -0.0987
    1CHTO    O8  367   7.470   7.129   1.462  0.3096 -0.0637  0.7831
    1CHTO    H3  368   7.524   7.064   1.502  1.5171  0.3415 -0.1821
    1CHTO    C9  369   7.370   6.903   1.394 -0.5586 -0.1497 -1.2041
    1CHTO   H22  370   7.276   6.877   1.343 -0.0877 -2.3142 -1.0326
    1CHTO    N2  371   7.367   6.832   1.525 -0.1325 -0.0697  0.0312
    1CHTO   H10  372   7.268   6.822   1.566 -1.1513  2.3416 -1.6916
    1CHTO   H11  373   7.432   6.881   1.597 -0.3173 -0.3027  0.3564
    1CHTO    C7  374   7.494   6.863   1.306 -0.8771 -0.6376  0.4943
    1CHTO   H20  375   7.456   6.769   1.261 -3.8150  1.1473 -0.8847
    1CHTO    O4  376   7.524   6.956   1.204 -0.1213 -0.3745 -0.7146
    1CHTO   C14  377   7.414   7.032   1.153  0.2611  0.4296  0.2486
    1CHTO   H27  378   7.349   6.959   1.101  1.8066  0.1099 -1.2683
    1CHTO   C18  379   7.479   7.114   1.043  0.2054 -0.0484  0.0508
    1CHTO   O13  380   7.566   7.036   0.962 -0.0935  0.0498 -0.3032
    1CHTO    H7  381   7.637   7.093   0.940 -0.5498  1.2059  1.1464
    1CHTO    O2  382   7.632   6.844   1.402 -0.8829  0.4750  0.4491
    1CHTO    C1  383   7.735   6.761   1.346  0.3941  0.7373  0.9276
    1CHTO   H14  384   7.700   6.728   1.246  0.0654  1.7090  0.7123
    1CHTO    C2  385   7.755   6.633   1.435 -0.2291 -0.4917 -0.2341
    1CHTO   H15  386   7.775   6.670   1.537  1.5579 -1.9359 -0.0301
    1CHTO    O6  387   7.636   6.556   1.432 -0.2629  0.2679 -0.2865
    1CHTO    H1  388   7.578   6.589   1.498 -0.4998  0.6414 -0.6688
    1CHTO    C3  389   7.881   6.553   1.381  0.2082 -0.3552 -0.2129
    1CHTO   H16  390   7.866   6.504   1.284  0.1131  1.5855 -1.1904
    1CHTO    N1  391   7.911   6.443   1.479 -0.1312  0.2818  0.4977
    1CHTO    H8  392   7.952   6.475   1.574  2.6720 -1.3413 -0.1083
    1CHTO    H9  393   7.816   6.393   1.496  0.6959 -1.4718  0.1024
    1CHTO    C4  394   8.009   6.642   1.367 -0.1333 -0.1286 -0.5754
    1CHTO   H17  395   8.057   6.667   1.462 -0.2554  2.6106 -1.1821
    1CHTO    O1  396   7.971   6.760   1.289 -0.0409  0.6556  0.0862
    1CHTO    C5  397   7.866   6.844   1.336 -0.3748 -0.4503  0.7223
    1CHTO   H18  398   7.892   6.879   1.435 -0.5420 -0.0277  0.6158
    1CHTO   C16  399   7.865   6.964   1.239 -0.3361  0.5416  0.2432
    1CHTO   O11  400   7.768   7.056   1.269  0.1337  0.2530 -0.4757
    1CHTO    H5  401   7.803   7.103   1.343 -3.3488 -0.1613  1.5456
    1CHTO    O3  402   8.111   6.573   1.290  0.2051 -0.1407  0.0972
    1CHTO    C6  403   8.248   6.565   1.320 -0.1584 -0.2219 -0.7776
    1CHTO   H19  404   8.281   6.660   1.363 -1.2638 -1.1228  2.1641
    1CHTO    C8  405   8.297   6.447   1.410  0.0498  0.0563  0.1432
    1CHTO   H21  406   8.252   6.353   1.377  0.7053 -0.6501  1.2511
    1CHTO    O7  407   8.254   6.479   1.543 -0.0534 -0.2182 -0.2732
    1CHTO    H2  408   8.300   6.414   1.592 -0.6826  2.0599  3.5507
    1CHTO   C12  409   8.452   6.431   1.399 -0.4269  0.1561 -0.0167
    1CHTO   H25  410   8.507   6.512   1.452 -0.6399  1.1298 -1.2767
    1CHTO    N3  411   8.498   6.305   1.483 -0.7106  0.1632 -0.2431
    1CHTO   H12  412   8.509   6.212   1.429  1.0822 -0.3011  0.8581
    1CHTO   H13  413   8.440   6.290   1.572 -1.9113 -1.0944 -1.2125
    1CHTO   C15  414   8.497   6.426   1.256  0.0766  0.1000 -0.4084
    1CHTO   H28  415   8.453   6.341   1.203  0.3528  0.5931 -1.4544
    1CHTO   O10  416   8.654   6.421   1.237 -1.4095  0.0065  0.1506
    1CHTO    H4  417   8.685   6.333   1.231  1.2199  0.9425 -1.1696
    1CHTO    O5  418   8.461   6.543   1.189  0.3145 -0.1486 -0.1561
    1CHTO   C10  419   8.319   6.553   1.180 -0.8861 -0.2474 -0.1781
    1CHTO   H23  420   8.285   6.461   1.133  0.2438 -0.8309  0.1156
    1CHTO   C17  421   8.279   6.672   1.088  0.4355 -0.6736  0.0604
    1CHTO   O12  422   8.143   6.663   1.036 -0.8115  0.2982 -0.0548
    1CHTO    H6  423   8.124   6.746   0.997 -0.3530  0.9829  1.1380
    2CHTO  H203  424   7.129   4.653   0.053 -0.8826  0.8789 -0.2290
    2CHTO   O82  425   7.118   4.667  -0.039  0.0367  0.2393 -0.4547
    2CHTO  C123  426   7.018   4.770  -0.067 -0.1520 -0.1606  0.1088
    2CHTO  H227  427   7.065   4.854  -0.120  0.3018 -1.8073 -2.1734
    2CHTO   O77  428   6.923   4.698  -0.149  0.2493 -0.6219  0.3197
    2CHTO  C118  429   6.797   4.772  -0.179 -0.5918  0.3258 -0.1619
    2CHTO  H222  430   6.815   4.868  -0.229  3.5383  0.3229  1.1141
    2CHTO  C125  431   6.719   4.680  -0.281 -0.5559 -0.0621 -0.3167
    2CHTO   O84  432   6.595   4.726  -0.333  0.2420 -0.0780 -0.1592
    2CHTO  H205  433   6.599   4.815  -0.362 -0.7339  0.3367  0.9211
    2CHTO  C114  434   6.731   4.794  -0.041  0.8886  0.3143  0.0625
    2CHTO  H218  435   6.709   4.693  -0.006 -0.1536 -0.0227 -1.5165
    2CHTO  C116  436   6.808   4.887   0.053 -0.6022  0.1991  0.1641
    2CHTO  H220  437   6.815   4.988   0.007  1.0461  0.8528  1.7573
    2CHTO   O79  438   6.734   4.906   0.177  0.1290 -0.3143 -0.6766
    2CHTO  H201  439   6.711   4.821   0.209 -0.3767  0.4960  1.2011
    2CHTO  C120  440   6.952   4.818   0.073  0.5512 -0.1078 -0.5536
    2CHTO  H224  441   6.938   4.722   0.127  1.4758  0.0535 -0.0255
    2CHTO   N21  442   7.049   4.884   0.163  0.0903  0.3725  0.3326
    2CHTO  H211  443   7.117   4.816   0.212 -0.4471  0.1035  0.7041
    2CHTO  H212  444   7.094   4.970   0.115 -2.9635  1.7025 -0.2662
    2CHTO   O75  445   6.607   4.858  -0.075 -0.2213 -0.1827  0.1589
    2CHTO  C112  446   6.481   4.786  -0.007  0.0596 -0.5359  0.5583
    2CHTO  H216  447   6.495   4.766   0.100 -1.1334 -2.4235  0.3840
    2CHTO   O73  448   6.453   4.665  -0.080  0.1171 -0.3697  0.6244
    2CHTO  C113  449   6.347   4.592  -0.015  0.0434  0.3092  0.0565
    2CHTO  H217  450   6.372   4.592   0.094  3.1110  1.3240 -0.6078
    2CHTO  C124  451   6.345   4.445  -0.066 -0.2872  0.1330 -0.5147
    2CHTO   O83  452   6.480   4.386  -0.066 -0.1791  0.0564 -0.0748
    2CHTO  H204  453   6.510   4.368  -0.152 -1.0134 -0.7651 -0.1970
    2CHTO  C109  454   6.215   4.664  -0.042  0.4384  1.0042 -0.1157
    2CHTO  H213  455   6.203   4.675  -0.151 -0.9662 -2.4708 -0.3817
    2CHTO  C110  456   6.221   4.805   0.026 -0.1130 -0.3683  0.2106
    2CHTO  H214  457   6.212   4.786   0.133  1.2151  1.1039  0.6142
    2CHTO   O78  458   6.104   4.877  -0.026 -0.7345 -0.2589 -0.9037
    2CHTO  H200  459   6.070   4.944   0.030  0.2562 -0.2825 -0.2650
    2CHTO  C111  460   6.354   4.880  -0.009 -0.5145  0.5120  0.0993
    2CHTO  H215  461   6.351   4.910  -0.115 -0.3965  0.6093  0.1229
    2CHTO   N19  462   6.372   5.005   0.067 -0.1407  0.2042 -0.8961
    2CHTO  H207  463   6.439   5.073   0.016  0.9081 -0.7948 -0.8808
    2CHTO  H208  464   6.279   5.059   0.075  0.7626  1.5143  1.0380
    2CHTO   O74  465   6.097   4.593   0.012  0.4666  0.3346 -0.1284
    2CHTO  C115  466   5.970   4.573  -0.092  0.0036  0.0285 -0.7106
    2CHTO  H219  467   5.956   4.660  -0.155 -0.6809 -0.8912 -1.8571
    2CHTO   O76  468   6.000   4.452  -0.196  0.0056 -0.1939 -0.3443
    2CHTO  C122  469   5.898   4.434  -0.301 -0.1521  0.1581  0.3857
    2CHTO  H226  470   5.925   4.339  -0.347  1.8193 -0.1471  2.0985
    2CHTO  C126  471   5.922   4.542  -0.410  0.6906  0.2783  0.2416
    2CHTO   O85  472   6.052   4.568  -0.465  0.1804 -0.2557 -0.4516
    2CHTO  H206  473   6.111   4.511  -0.419  0.8548  0.0741 -0.8920
    2CHTO  C121  474   5.753   4.436  -0.239  0.6395 -0.6062  0.3382
    2CHTO  H225  475   5.689   4.457  -0.328  0.1941 -0.2306  0.7456
    2CHTO   O81  476   5.725   4.300  -0.193 -0.2347 -0.1216  0.2316
    2CHTO  H202  477   5.652   4.306  -0.134 -0.3098  0.0424  0.1220
    2CHTO  C119  478   5.729   4.552  -0.128  0.5755  1.2476 -0.4595
    2CHTO  H223  479   5.736   4.645  -0.186 -0.3720  1.8940  0.4457
    2CHTO  C117  480   5.837   4.543  -0.013 -0.2234 -0.6022  0.1181
    2CHTO  H221  481   5.845   4.449   0.041 -0.5986 -1.1833 -0.8386
    2CHTO   N20  482   5.810   4.642   0.099 -0.2137  0.0140 -0.2526
    2CHTO  H209  483   5.895   4.707   0.117 -0.3791  0.3786 -0.7850
    2CHTO  H210  484   5.714   4.690   0.087 -0.2322  0.5077  1.7200
    2CHTO   O80  485   5.567   4.558  -0.079 -0.1531 -0.2433 -0.0558
    2CHTO  C103  486   5.457   4.652  -0.164 -0.2731  0.1890  0.3552
    2CHTO  H190  487   5.494   4.753  -0.149  0.1930  0.0647  0.0732
    2CHTO  C101  488   5.433   4.616  -0.314  1.0191 -0.4758 -0.3982
    2CHTO  H188  489   5.404   4.511  -0.321 -2.6497  0.5712 -2.1785
    2CHTO   O68  490   5.557   4.649  -0.398  0.0746 -0.0919  0.3664
    2CHTO  H168  491   5.637   4.631  -0.353  0.4691 -0.0892 -0.3193
    2CHTO   C99  492   5.310   4.700  -0.378 -0.1001 -0.5133 -0.5501
    2CHTO  H186  493   5.331   4.808  -0.392 -1.1266 -0.2657 -0.2225
    2CHTO   N17  494   5.256   4.660  -0.518  0.2267  0.0239  0.1501
    2CHTO  H174  495   5.194   4.732  -0.569  0.1135  0.7031  1.2356
    2CHTO  H175  496   5.209   4.562  -0.518  0.4093 -0.0657 -0.3704
    2CHTO   C97  497   5.185   4.698  -0.279  0.2523  0.4590  0.2712
    2CHTO  H184  498   5.148   4.594  -0.276  4.2488 -1.0670  0.2319
    2CHTO   O64  499   5.237   4.739  -0.150 -0.0282  0.9787 -0.1497
    2CHTO  C104  500   5.323   4.643  -0.087  0.2970  0.3964  0.3070
    2CHTO  H191  501   5.292   4.538  -0.089 -0.3313  0.5837 -2.2574
    2CHTO  C108  502   5.339   4.677   0.062 -0.3735  0.1925  0.5799
    2CHTO   O71  503   5.375   4.818   0.087  0.1381 -0.2443 -0.7897
    2CHTO  H171  504   5.311   4.868   0.040 -1.6872  0.5227  2.4008
    2CHTO   O62  505   5.077   4.791  -0.325  0.0235  0.3784  0.3202
    2CHTO   C91  506   5.063   4.921  -0.271  1.0927 -0.5136  0.3062
    2CHTO  H178  507   5.093   4.925  -0.166  0.2644  2.2120  0.4923
    2CHTO   C92  508   4.919   4.962  -0.284 -0.2071 -0.3797 -0.5345
    2CHTO  H179  509   4.855   4.883  -0.243 -0.0223 -0.8618 -1.1809
    2CHTO   O66  510   4.893   5.084  -0.195 -0.4102 -0.5731  0.6960
    2CHTO  H166  511   4.968   5.141  -0.194 -1.7284  1.2125 -0.3324
    2CHTO   C93  512   4.880   4.996  -0.433 -0.7390  0.1269 -0.5870
    2CHTO  H180  513   4.779   5.037  -0.426 -0.8565 -0.5938  2.6038
    2CHTO   N16  514   4.874   4.875  -0.516  0.4798  0.4917  0.1781
    2CHTO  H172  515   4.971   4.843  -0.550  1.8270  1.0863  3.2897
    2CHTO  H173  516   4.828   4.794  -0.462  0.6074  1.0201  1.0785
    2CHTO   C94  517   4.977   5.110  -0.492 -0.3687  0.0028  0.0187
    2CHTO  H181  518   5.036   5.079  -0.579  1.7842  0.6742  1.1906
    2CHTO   O61  519   5.078   5.144  -0.400  0.1163  0.0767 -0.2384
    2CHTO   C95  520   5.151   5.028  -0.346 -0.2503  0.0411  0.4224
    2CHTO  H182  521   5.205   4.982  -0.429 -0.5702  3.6535 -1.8787
    2CHTO  C106  522   5.251   5.092  -0.253  0.1698  0.5142  0.5827
    2CHTO   O69  523   5.355   5.003  -0.215  0.0146  0.2656 -0.0493
    2CHTO  H169  524   5.434   5.051  -0.198  0.0208  0.2874 -0.1384
    2CHTO   O63  525   4.902   5.239  -0.544 -0.7877  0.3318 -0.4082
    2CHTO   C96  526   4.843   5.345  -0.429 -0.3761 -0.1426  0.1967
    2CHTO  H183  527   4.899   5.328  -0.337  0.4444 -0.3476 -0.3369
    2CHTO   C98  528   4.688   5.339  -0.397 -0.3558 -0.2747 -0.1145
    2CHTO  H185  529   4.637   5.328  -0.494 -0.5748 -0.2286 -0.0032
    2CHTO   O67  530   4.652   5.216  -0.327 -0.4366 -0.3181  0.2807
    2CHTO  H167  531   4.671   5.216  -0.235  0.2166  1.5563  0.1627
    2CHTO  C102  532   4.632   5.469  -0.314  0.1409  0.2809  0.1023
    2CHTO  H189  533   4.688   5.459  -0.220  0.8658 -0.2793 -0.3902
    2CHTO   N18  534   4.486   5.472  -0.282  0.5399  0.7084 -0.3726
    2CHTO  H176  535   4.442   5.478  -0.380  2.9231  2.3929 -1.3989
    2CHTO  H177  536   4.463   5.388  -0.218  2.3096 -0.0817 -0.7601
    2CHTO  C105  537   4.674   5.598  -0.393 -0.3889 -0.2657 -0.4352
    2CHTO  H192  538   4.625   5.589  -0.490 -1.5944 -3.8638  0.4249
    2CHTO   O65  539   4.821   5.600  -0.409  0.1789 -0.3657  0.9128
    2CHTO  C100  540   4.875   5.491  -0.486  0.0550  0.0722  0.1031
    2CHTO  H187  541   4.827   5.495  -0.585  1.2181  0.8647 -0.4387
    2CHTO  C107  542   5.029   5.506  -0.508  1.1891  0.0822 -0.5563
    2CHTO   O70  543   5.108   5.530  -0.399  0.5143  0.5871 -0.3125
    2CHTO  H170  544   5.196   5.546  -0.429  1.3842 -0.4078  1.6525
    2CHTO   O57  545   4.624   5.739  -0.312 -0.1078  0.1207 -0.5609
    2CHTO   C85  546   4.562   5.834  -0.401 -0.1678 -0.2694 -0.0735
    2CHTO  H157  547   4.482   5.784  -0.460 -0.9293  1.9156 -0.9237
    2CHTO   C83  548   4.670   5.872  -0.508 -1.0308  0.4229 -0.8722
    2CHTO  H155  549   4.705   5.787  -0.566 -0.1454 -1.2794  2.0762
    2CHTO   O56  550   4.784   5.914  -0.433 -0.6373 -0.1617  0.5232
    2CHTO  H135  551   4.765   5.957  -0.352 -1.1649  0.2891  0.1597
    2CHTO   C81  552   4.622   5.980  -0.609 -0.2606 -0.4867 -0.0851
    2CHTO  H153  553   4.537   5.937  -0.662  0.2460 -1.8965  0.2260
    2CHTO   N14  554   4.721   6.031  -0.713 -0.8050 -0.1104  0.0275
    2CHTO  H141  555   4.720   5.956  -0.790  0.0228  1.5836 -1.6610
    2CHTO  H142  556   4.685   6.118  -0.763  1.9317  0.4808 -1.0384
    2CHTO   C79  557   4.567   6.104  -0.525 -0.1529 -0.4993 -0.1416
    2CHTO  H151  558   4.516   6.167  -0.598  0.8385 -1.7570 -1.9955
    2CHTO   O52  559   4.471   6.070  -0.424 -0.1223 -0.4998 -0.2883
    2CHTO   C86  560   4.511   5.966  -0.338 -0.1603 -0.1909  0.0686
    2CHTO  H158  561   4.587   6.014  -0.272 -0.3988  0.0376  0.1796
    2CHTO   C90  562   4.397   5.924  -0.237 -0.0179  0.1920  0.1174
    2CHTO   O60  563   4.364   6.023  -0.138 -0.4030  0.0055 -0.4235
    2CHTO  H138  564   4.290   5.995  -0.087  0.1351 -3.6596 -1.5781
    2CHTO   O50  565   4.668   6.191  -0.469 -0.2910 -0.6373 -0.5035
    2CHTO   C73  566   4.722   6.304  -0.397  0.1334  0.0229  0.3683
    2CHTO  H145  567   4.649   6.349  -0.327 -0.3566  0.4480 -0.4107
    2CHTO   C74  568   4.758   6.413  -0.499  0.1803 -0.4692  0.1715
    2CHTO  H146  569   4.669   6.441  -0.557  0.1440  1.2331  1.0262
    2CHTO   O54  570   4.785   6.538  -0.430  0.2258  0.6031 -0.0978
    2CHTO  H133  571   4.864   6.543  -0.380  0.1970  1.2996 -0.1147
    2CHTO   C75  572   4.876   6.372  -0.588 -0.0335  0.4323  0.3175
    2CHTO  H147  573   4.831   6.298  -0.656 -0.6061 -0.6069  1.8037
    2CHTO   N13  574   4.939   6.480  -0.675 -0.1997  0.4721 -0.1488
    2CHTO  H139  575   4.986   6.561  -0.621  0.9514  0.5244 -1.2073
    2CHTO  H140  576   5.006   6.442  -0.751 -1.3143 -0.8428 -0.5017
    2CHTO   C76  577   4.989   6.302  -0.498 -0.1139 -0.5511  0.1838
    2CHTO  H148  578   5.046   6.381  -0.448 -0.2810 -0.4818  0.2648
    2CHTO   O49  579   4.947   6.201  -0.402 -0.0707  0.3924 -0.0498
    2CHTO   C77  580   4.849   6.260  -0.321  0.1958  0.7535  0.2650
    2CHTO  H149  581   4.884   6.346  -0.263  1.2752  0.9600 -0.6880
    2CHTO   C88  582   4.820   6.155  -0.213  0.6601 -0.1277 -0.4145
    2CHTO   O58  583   4.737   6.205  -0.098  0.3851  0.3500 -0.1003
    2CHTO  H136  584   4.660   6.250  -0.129 -0.3041 -0.7297  0.0028
    2CHTO   O51  585   5.078   6.214  -0.601  0.2570 -0.2711 -0.7358
    2CHTO   C78  586   5.203   6.132  -0.524  0.6682 -1.1510 -0.6055
    2CHTO  H150  587   5.183   6.119  -0.415  1.1335 -1.0041 -0.4989
    2CHTO   C80  588   5.336   6.202  -0.547 -0.2784  0.2749 -0.6302
    2CHTO  H152  589   5.370   6.184  -0.651  1.1359  0.2158 -0.1753
    2CHTO   O55  590   5.319   6.349  -0.527 -0.0920  0.1317  0.0205
    2CHTO  H134  591   5.349   6.399  -0.601  1.2275 -1.7725 -0.7675
    2CHTO   C84  592   5.439   6.126  -0.452 -0.3342  0.4721 -0.3756
    2CHTO  H156  593   5.404   6.131  -0.349 -0.8527  3.2527 -0.6542
    2CHTO   N15  594   5.578   6.189  -0.460  0.3448 -0.2363 -0.4564
    2CHTO  H143  595   5.650   6.129  -0.512  2.4839  0.9805  1.0316
    2CHTO  H144  596   5.571   6.288  -0.499 -0.8558  0.6730  1.9414
    2CHTO   C87  597   5.445   5.974  -0.499  0.1631 -0.1694 -0.1319
    2CHTO  H159  598   5.486   5.964  -0.599  1.2041  0.4812  0.2176
    2CHTO   O53  599   5.295   5.910  -0.500  0.0268 -0.3030  0.2651
    2CHTO   C82  600   5.203   5.992  -0.580 -0.4205  0.2722  0.3457
    2CHTO  H154  601   5.237   5.999  -0.683 -0.8095 -1.3785  0.0860
    2CHTO   C89  602   5.064   5.933  -0.581  0.0656 -0.1399  0.1692
    2CHTO   O59  603   5.058   5.831  -0.677  0.2177 -0.3370 -0.1666
    2CHTO  H137  604   4.966   5.829  -0.695  0.4130 -0.0592 -1.2523
    2CHTO   O45  605   5.553   5.884  -0.397  0.1947 -0.3962 -0.7073
    2CHTO   C67  606   5.484   5.812  -0.299  0.0874  0.3150  0.3904
    2CHTO  H124  607   5.381   5.845  -0.293  0.4441  1.5721 -0.2231
    2CHTO   C65  608   5.493   5.656  -0.335 -0.5386 -0.0032 -0.1074
    2CHTO  H122  609   5.587   5.649  -0.390 -0.2211  0.9666  0.2851
    2CHTO   O44  610   5.391   5.631  -0.431 -0.2752 -0.3125 -0.4712
    2CHTO  H102  611   5.405   5.544  -0.462  0.0072 -0.5442  0.3064
    2CHTO   C63  612   5.505   5.562  -0.210 -0.8703  0.4706 -0.1851
    2CHTO  H120  613   5.601   5.579  -0.162 -1.2206  2.6353 -0.1858
    2CHTO   N11  614   5.510   5.415  -0.248 -0.1004 -0.0790  0.1524
    2CHTO  H108  615   5.438   5.394  -0.323  0.4287  0.5956 -0.5499
    2CHTO  H109  616   5.610   5.409  -0.286 -0.5145 -2.4146 -0.6078
    2CHTO   C61  617   5.396   5.608  -0.106  0.1324  0.1248  0.7741
    2CHTO  H118  618   5.406   5.546  -0.016 -1.9024  0.7365  1.4385
    2CHTO   O40  619   5.441   5.750  -0.069  0.0341  0.2080  0.8616
    2CHTO   C68  620   5.537   5.827  -0.157 -0.1814  1.2020 -0.0650
    2CHTO  H125  621   5.637   5.782  -0.145  0.0155  1.2658 -1.3647
    2CHTO   C72  622   5.549   5.970  -0.099  0.5104 -0.1832  0.4564
    2CHTO   O48  623   5.673   6.025  -0.146 -0.0248 -1.0488  0.3427
    2CHTO  H105  624   5.634   6.082  -0.209  0.2512  1.2334  2.1792
    2CHTO   O38  625   5.260   5.613  -0.156 -0.0166 -0.2937 -0.0536
    2CHTO   C55  626   5.156   5.616  -0.056  0.4023  0.5529  0.4356
    2CHTO  H112  627   5.187   5.672   0.034  2.2589 -1.3895  1.0265
    2CHTO   C56  628   5.085   5.474  -0.023  0.2246  0.0209  0.1503
    2CHTO  H113  629   5.064   5.429  -0.122  0.5196  0.4996 -0.1308
    2CHTO   O42  630   5.174   5.383   0.038 -0.6011 -0.0806 -0.1638
    2CHTO  H100  631   5.175   5.379   0.132 -2.2756 -0.9665 -0.1605
    2CHTO   C57  632   4.959   5.483   0.070  0.3374  0.2375  0.3542
    2CHTO  H114  633   5.002   5.501   0.168  1.4695 -0.7693  0.0571
    2CHTO   N10  634   4.883   5.356   0.081  0.6988  0.1984  0.3544
    2CHTO  H106  635   4.917   5.294  -0.000  0.8349  0.8077 -0.0565
    2CHTO  H107  636   4.916   5.312   0.174  0.2042 -0.1629  0.3595
    2CHTO   C58  637   4.866   5.599   0.023  0.1027 -1.0982  0.6155
    2CHTO  H115  638   4.820   5.571  -0.074 -0.7904 -0.2814  0.7944
    2CHTO   O37  639   4.942   5.716   0.002  0.7906  0.0156 -0.5580
    2CHTO   C59  640   5.037   5.707  -0.104  0.4826  0.7321  0.1667
    2CHTO  H116  641   4.997   5.683  -0.202  0.3700 -1.2083  0.6622
    2CHTO   C70  642   5.082   5.852  -0.127  0.4189 -0.7811  0.1425
    2CHTO   O46  643   5.120   5.869  -0.267  0.1488  0.4346 -0.2346
    2CHTO  H103  644   5.057   5.915  -0.318 -1.2482  0.1648  1.2171
    2CHTO   O39  645   4.743   5.647   0.145  0.0559 -0.0265  0.1816
    2CHTO   C60  646   4.613   5.685   0.092  0.0025 -0.8797  0.1821
    2CHTO  H117  647   4.614   5.682  -0.017  0.2934 -0.8882  0.1844
    2CHTO   C62  648   4.503   5.586   0.136 -0.3697 -0.3325 -0.0102
    2CHTO  H119  649   4.527   5.481   0.109 -1.2359 -0.8062  1.0493
    2CHTO   O43  650   4.513   5.580   0.283 -0.1220 -0.2673 -0.1867
    2CHTO  H101  651   4.431   5.564   0.325  0.8845 -0.6160  1.7148
    2CHTO   C66  652   4.350   5.627   0.090  0.0620 -0.1875  0.1996
    2CHTO  H123  653   4.347   5.631  -0.019  0.6317  0.6984  0.2148
    2CHTO   N12  654   4.245   5.528   0.138  0.3842 -0.1628  0.3081
    2CHTO  H110  655   4.182   5.489   0.059 -0.7386  0.3146  0.9416
    2CHTO  H111  656   4.186   5.565   0.222  0.6579 -1.2981  1.0139
    2CHTO   C69  657   4.316   5.775   0.141  0.6493 -0.2972 -0.6091
    2CHTO  H126  658   4.308   5.774   0.252  1.3021 -0.7757 -0.5656
    2CHTO   O41  659   4.434   5.876   0.098 -0.2120 -0.2258  0.0690
    2CHTO   C64  660   4.579   5.835   0.130  0.1976  0.5099  0.3373
    2CHTO  H121  661   4.598   5.842   0.239  0.6706  0.1543  0.2775
    2CHTO   C71  662   4.677   5.933   0.060  0.1659  0.5889 -0.1286
    2CHTO   O47  663   4.810   5.932   0.106  0.0025 -0.1330 -0.4091
    2CHTO  H104  664   4.834   5.842   0.117  0.4249  0.1553  1.1928
    2CHTO   O34  665   4.159   5.829   0.084  0.6667  0.1593  0.0164
    2CHTO   C49  666   4.084   5.927   0.177 -0.1783  0.7848 -0.0547
    2CHTO   H91  667   4.097   5.885   0.277  0.4359  1.7185  0.2553
    2CHTO   C47  668   3.942   5.920   0.132  0.0252  0.6182  0.7993
    2CHTO   H89  669   3.881   5.980   0.203 -1.1354  0.9647 -0.4629
    2CHTO   O33  670   3.894   5.785   0.135 -0.0188  0.3684 -0.1452
    2CHTO   H70  671   3.925   5.734   0.207  0.9620 -1.1644 -1.6029
    2CHTO   C45  672   3.920   5.992  -0.006  0.5864 -0.0357  0.1587
    2CHTO   H87  673   3.957   5.924  -0.084  0.6855 -0.4637  0.5810
    2CHTO    N8  674   3.775   6.012  -0.040  0.1143 -0.7225 -0.3664
    2CHTO   H75  675   3.760   6.062  -0.135 -0.7870  2.2533  1.2603
    2CHTO   H76  676   3.734   6.085   0.028 -0.4972  0.7061 -2.2147
    2CHTO   C43  677   4.004   6.136  -0.020 -0.5399  0.0733 -0.6408
    2CHTO   H85  678   4.017   6.152  -0.127  3.8574  3.9002  0.2950
    2CHTO   O29  679   4.132   6.125   0.041 -0.0675  0.6744  0.0299
    2CHTO   C50  680   4.146   6.069   0.174 -0.2872  0.1531  0.5202
    2CHTO   H92  681   4.252   6.058   0.201 -0.2767  1.5639  1.0865
    2CHTO   C54  682   4.095   6.157   0.292 -0.1714  0.3174  0.0033
    2CHTO   O36  683   4.096   6.110   0.429  0.4905  0.0771  0.6275
    2CHTO   H72  684   4.172   6.133   0.479  1.5973 -0.6210 -0.6891
    2CHTO   O27  685   3.946   6.251   0.046 -0.0497  0.4672  0.2218
    2CHTO   C37  686   3.921   6.390   0.008 -0.0211 -0.0716  0.0906
    2CHTO   H79  687   3.976   6.407  -0.086 -1.3875  0.0303 -0.7071
    2CHTO   C38  688   3.767   6.422  -0.011  0.1323 -1.0071  0.3037
    2CHTO   H80  689   3.717   6.387   0.080  2.6800  0.9408  2.5731
    2CHTO   O31  690   3.722   6.354  -0.131 -0.7270 -0.0928  0.3901
    2CHTO   H68  691   3.631   6.338  -0.118 -0.2011 -1.7713  2.0456
    2CHTO   C39  692   3.739   6.579  -0.023  0.0647 -1.1938  0.0602
    2CHTO   H81  693   3.769   6.603  -0.125 -0.0373  0.4760  0.4234
    2CHTO    N7  694   3.595   6.618  -0.010  0.3283  0.4801 -0.4187
    2CHTO   H73  695   3.559   6.586   0.087 -1.5076  0.0832 -1.2215
    2CHTO   H74  696   3.541   6.564  -0.086 -0.0057  0.5685 -0.2442
    2CHTO   C40  697   3.824   6.664   0.079 -0.4556  0.9052 -0.5307
    2CHTO   H82  698   3.788   6.662   0.181 -0.2196 -0.5786 -0.4652
    2CHTO   O26  699   3.962   6.621   0.069  0.4862  0.0811  0.0397
    2CHTO   C41  700   3.980   6.491   0.114 -0.4138  1.1874  0.2050
    2CHTO   H83  701   3.936   6.465   0.211 -0.2931 -2.3290 -0.6114
    2CHTO   C52  702   4.134   6.490   0.127 -0.3361  0.0215 -0.1431
    2CHTO   O35  703   4.174   6.572   0.240 -0.0087  0.2480 -0.4829
    2CHTO   H71  704   4.258   6.610   0.222  0.4622 -0.2704  0.5737
    2CHTO   O28  705   3.837   6.796   0.033  0.6132  0.0380  0.5520
    2CHTO   C42  706   3.877   6.902   0.124  0.0737 -0.5335 -0.1061
    2CHTO   H84  707   3.857   6.992   0.066  0.5627  0.1373  0.7555
    2CHTO   C44  708   4.024   6.918   0.179  0.4058  0.3984  0.0004
    2CHTO   H86  709   4.053   6.824   0.226  1.1772  0.8719  0.5021
    2CHTO   O32  710   4.111   6.931   0.066 -0.5107  0.2164  0.3357
    2CHTO   H69  711   4.100   6.862   0.003  1.4059  1.3069 -1.2586
    2CHTO   C48  712   4.037   7.034   0.286  0.2714 -0.7807  0.7776
    2CHTO   H90  713   4.034   7.124   0.225  1.7323 -1.8129 -0.9059
    2CHTO    N9  714   4.181   7.037   0.342  0.4317 -0.8287 -0.0075
    2CHTO   H77  715   4.189   6.967   0.424  1.6940  0.0781  0.6569
    2CHTO   H78  716   4.251   7.014   0.263 -3.3733 -1.6308 -3.3118
    2CHTO   C51  717   3.923   7.027   0.402 -0.1068 -0.2147 -0.1099
    2CHTO   H93  718   3.935   6.933   0.456  1.2061 -0.1665 -0.3146
    2CHTO   O30  719   3.798   7.042   0.339  0.0311  0.6033 -0.2909
    2CHTO   C46  720   3.766   6.907   0.237 -0.5312 -0.1640  0.0471
    2CHTO   H88  721   3.770   6.824   0.308 -2.4723  0.6423  1.1465
    2CHTO   C53  722   3.627   6.932   0.175 -0.1758 -0.0125  0.5549
    2CHTO   O72  723   3.617   7.042   0.092  0.0083 -0.2334 -0.1253
    2CHTO  H199  724   3.644   7.023   0.005 -2.9554  0.8115 -1.3574
    2CHTO   O22  725   3.938   7.140   0.498 -0.8356  0.1661  0.4982
    2CHTO   C31  726   3.887   7.135   0.633 -0.3368  0.0190  0.3770
    2CHTO   H59  727   3.944   7.215   0.686  0.3714 -0.2367  0.0110
    2CHTO   C29  728   3.738   7.174   0.643 -0.4922 -0.0109 -0.1121
    2CHTO   H57  729   3.691   7.097   0.580 -0.0442 -0.8468  0.5733
    2CHTO   O21  730   3.720   7.310   0.598 -0.1233  0.2615  0.7612
    2CHTO   H37  731   3.794   7.357   0.632  0.4383  0.4932 -0.7163
    2CHTO   C27  732   3.684   7.162   0.791 -0.2235  0.7717 -0.0963
    2CHTO   H55  733   3.732   7.241   0.851 -1.4992 -0.4813  2.6526
    2CHTO    N5  734   3.537   7.186   0.793 -0.3568  0.4958 -0.7379
    2CHTO   H43  735   3.493   7.163   0.889  0.4190 -3.3910 -1.2249
    2CHTO   H44  736   3.508   7.282   0.751  1.2035  0.4100 -2.0763
    2CHTO   C25  737   3.724   7.018   0.843  0.3810 -0.2100 -0.6133
    2CHTO   H53  738   3.678   6.941   0.779 -1.3834 -0.2604  0.6875
    2CHTO   O17  739   3.870   7.012   0.844  0.3356  0.1330  0.5841
    2CHTO   C32  740   3.915   6.997   0.709  0.4435 -0.7389 -0.6787
    2CHTO   H60  741   3.863   6.914   0.661  1.8818 -1.4423 -1.0524
    2CHTO   C36  742   4.067   6.958   0.723 -0.6472  0.0024 -0.0272
    2CHTO   O25  743   4.090   6.822   0.763  0.5091  0.1100  0.3163
    2CHTO   H40  744   4.106   6.838   0.854  0.4628  1.3710  0.1160
    2CHTO   O15  745   3.667   6.993   0.990 -0.3658  0.3335  0.5853
    2CHTO   C19  746   3.644   6.859   1.058  0.7458  0.7138 -0.8721
    2CHTO   H47  747   3.539   6.829   1.041  0.8315 -0.8303  1.0839
    2CHTO   C20  748   3.742   6.748   1.017  0.3043 -0.0743  0.6839
    2CHTO   H48  749   3.844   6.788   1.008 -0.1687  0.2721 -4.7210
    2CHTO   O19  750   3.705   6.713   0.878  0.0329 -0.3209 -0.3021
    2CHTO   H35  751   3.684   6.622   0.871  0.7182 -0.7235  2.5058
    2CHTO   C21  752   3.744   6.620   1.105  0.2964  0.3527 -0.4066
    2CHTO   H49  753   3.663   6.552   1.077  1.3876 -1.1871  0.1015
    2CHTO    N4  754   3.866   6.534   1.085 -0.0572 -0.0586  0.2572
    2CHTO   H41  755   3.950   6.595   1.116  0.7702 -1.5171  0.9253
    2CHTO   H42  756   3.877   6.501   0.983 -0.8766 -2.1574  0.8392
    2CHTO   C22  757   3.730   6.657   1.250  0.1915  0.4325 -0.7284
    2CHTO   H50  758   3.823   6.705   1.280  0.6258 -2.5856  3.2479
    2CHTO   O14  759   3.623   6.749   1.271  0.1648 -0.0915 -0.1344
    2CHTO   C23  760   3.652   6.868   1.211 -0.3136  0.6031 -0.6664
    2CHTO   H51  761   3.750   6.901   1.248  0.0489 -0.0273 -1.0502
    2CHTO   C34  762   3.557   6.977   1.255  0.0231 -0.2096  0.0979
    2CHTO   O23  763   3.577   7.012   1.391  0.3378 -0.0712  0.2719
    2CHTO   H38  764   3.500   7.042   1.436 -1.7726 -1.6050 -2.1567
    2CHTO   O16  765   3.692   6.548   1.336 -0.7265  0.6267  0.1522
    2CHTO   C24  766   3.724   6.555   1.494 -0.1604  0.7212  0.2031
    2CHTO   H52  767   3.763   6.653   1.524  0.2608 -0.0735  2.3174
    2CHTO   C26  768   3.829   6.447   1.538 -0.3286  0.6618  0.0276
    2CHTO   H54  769   3.783   6.349   1.513 -1.1488  1.4167 -1.4776
    2CHTO   O20  770   3.948   6.467   1.455 -0.4358 -0.0709  0.0019
    2CHTO   H36  771   3.958   6.559   1.437 -2.3604  0.4099  1.1638
    2CHTO   C30  772   3.866   6.456   1.694  0.0220  0.0856  0.4113
    2CHTO   H58  773   3.942   6.534   1.711 -0.6667  0.5546  1.4142
    2CHTO    N6  774   3.950   6.344   1.734  0.1495 -0.0276 -0.1951
    2CHTO   H45  775   3.886   6.260   1.758  3.0482 -1.2513  3.8148
    2CHTO   H46  776   4.006   6.365   1.824 -0.3670 -0.6356  0.2705
    2CHTO   C33  777   3.741   6.475   1.783 -0.9696  0.5838 -0.2629
    2CHTO   H61  778   3.703   6.374   1.805  0.0893  0.3948  0.7917
    2CHTO   O18  779   3.635   6.560   1.729  0.5305  0.1664 -0.2706
    2CHTO   C28  780   3.599   6.528   1.591 -0.5441  0.0397 -0.2649
    2CHTO   H56  781   3.567   6.424   1.579 -0.3550  0.1387 -1.6327
    2CHTO   C35  782   3.480   6.612   1.554  0.1387 -0.9499  0.2536
    2CHTO   O24  783   3.377   6.583   1.647  0.3142 -0.1292  0.0348
    2CHTO   H39  784   3.324   6.513   1.614 -0.1210  0.0848  0.2763
    2CHTO    O9  785   3.796   6.524   1.908 -0.5578 -0.3560 -0.6999
    2CHTO   C13  786   3.674   6.593   2.008  0.0794 -0.5025 -0.0459
    2CHTO   H26  787   3.576   6.541   2.005  1.8578 -3.9100 -0.2716
    2CHTO   C11  788   3.657   6.745   1.961  0.3843 -0.9002 -0.5898
    2CHTO   H24  789   3.617   6.742   1.859  1.1592 -1.6151 -0.8787
    2CHTO    O8  790   3.783   6.817   1.948 -0.0084 -0.2637  0.3923
    2CHTO    H3  791   3.814   6.843   2.033  0.5188  1.1281 -0.2077
    2CHTO    C9  792   3.549   6.810   2.059  0.0580 -0.0126  0.1237
    2CHTO   H22  793   3.469   6.734   2.059 -0.2759  0.3395 -0.2667
    2CHTO    N2  794   3.489   6.937   2.010  0.4926  0.3324  0.3862
    2CHTO   H10  795   3.458   7.015   2.078 -2.1881  0.1575 -0.5703
    2CHTO   H11  796   3.406   6.918   1.945 -1.3717 -0.3640  2.8835
    2CHTO    C7  797   3.611   6.809   2.201 -0.1554  0.7088 -0.0504
    2CHTO   H20  798   3.530   6.838   2.270  1.3156  2.0364  1.1566
    2CHTO    O4  799   3.649   6.675   2.250  0.6594 -0.5236  0.0544
    2CHTO   C14  800   3.722   6.586   2.158  0.2517 -0.2658  0.0116
    2CHTO   H27  801   3.698   6.487   2.201 -0.1138  0.4265  1.4208
    2CHTO   C18  802   3.873   6.598   2.167  0.2321  0.2087 -0.4493
    2CHTO   O13  803   3.918   6.544   2.292  0.3233  0.4187 -0.5976
    2CHTO    H7  804   4.006   6.576   2.298 -0.7836  3.6762 -0.3687
    2CHTO    O2  805   3.732   6.919   2.219 -0.3685 -0.1837  0.0542
    2CHTO    C1  806   3.730   7.014   2.332  0.5759 -0.5424  0.2382
    2CHTO   H14  807   3.714   6.961   2.428 -0.5011 -2.2590 -0.8530
    2CHTO    C2  808   3.616   7.132   2.312  0.1940 -0.6606 -0.1500
    2CHTO   H15  809   3.626   7.164   2.207  1.3060 -0.2980  0.0534
    2CHTO    O6  810   3.491   7.072   2.338 -0.0652 -0.1435  0.2963
    2CHTO    H1  811   3.463   7.013   2.271  1.2499 -0.0479 -0.3674
    2CHTO    C3  812   3.623   7.251   2.411 -0.5504  0.3242 -0.1717
    2CHTO   H16  813   3.603   7.220   2.515  1.9575  0.0289  0.2431
    2CHTO    N1  814   3.527   7.374   2.369 -0.6310 -0.3420 -0.0160
    2CHTO    H8  815   3.468   7.364   2.279 -0.1159 -0.2666 -0.3638
    2CHTO    H9  816   3.467   7.405   2.454  1.5699 -1.6728  2.1060
    2CHTO    C4  817   3.772   7.301   2.414  0.2847 -0.0807  0.0063
    2CHTO   H17  818   3.793   7.348   2.318 -0.1064 -0.4510 -0.2606
    2CHTO    O1  819   3.862   7.192   2.439  0.6425  0.5809  0.2174
    2CHTO    C5  820   3.865   7.087   2.342 -0.4955  0.7363 -0.1422
    2CHTO   H18  821   3.884   7.142   2.249 -0.7243  1.4440  0.2266
    2CHTO   C16  822   3.986   6.995   2.383 -0.6485  0.0746  0.4748
    2CHTO   O11  823   4.111   7.073   2.377 -0.2177  0.0367 -0.0783
    2CHTO    H5  824   4.133   7.089   2.287  0.6721 -0.1187  0.1014
    2CHTO    O3  825   3.794   7.401   2.520 -0.3743  0.7216  0.4591
    2CHTO    C6  826   3.909   7.499   2.497  0.2492  0.2664  0.2561
    2CHTO   H19  827   3.985   7.466   2.426  0.5291 -1.1183  1.2012
    2CHTO    C8  828   3.863   7.637   2.433  0.1623 -0.7584  0.2585
    2CHTO   H21  829   3.785   7.682   2.494  0.4979  1.7896 -1.0996
    2CHTO    O7  830   3.807   7.614   2.301  0.0375  0.1431 -0.2899
    2CHTO    H2  831   3.731   7.560   2.309  0.2224 -0.2896 -1.4325
    2CHTO   C12  832   3.980   7.747   2.433 -0.5239  0.1711 -0.3705
    2CHTO   H25  833   4.060   7.725   2.358 -0.6224  1.7638 -0.9476
    2CHTO    N3  834   3.922   7.876   2.390 -0.0622 -0.3209 -0.2588
    2CHTO   H12  835   3.994   7.957   2.395  0.5840 -0.7832 -1.7663
    2CHTO   H13  836   3.833   7.905   2.443  0.9310 -1.1634  1.8937
    2CHTO   C15  837   4.047   7.748   2.577  0.3320 -0.4231  0.3298
    2CHTO   H28  838   3.984   7.795   2.653 -0.9813  1.0843 -1.6271
    2CHTO   O10  839   4.189   7.833   2.584  0.1559  0.0072  0.4468
    2CHTO    H4  840   4.212   7.871   2.667  1.3357  1.5340 -0.5464
    2CHTO    O5  841   4.083   7.614   2.615 -0.4353 -0.7301 -0.0131
    2CHTO   C10  842   3.970   7.531   2.630 -0.5163 -0.5742 -0.0040
    2CHTO   H23  843   3.892   7.574   2.692 -1.7496 -0.3220 -1.6743
    2CHTO   C17  844   4.000   7.406   2.714 -0.4257 -0.0985  0.5137
    2CHTO   O12  845   4.106   7.333   2.653 -0.1108  0.2727 -0.3794
    2CHTO    H6  846   4.128   7.252   2.696  0.5663 -0.0992 -1.4147
    3CHTO  H203  847   8.244   1.394   1.447  1.5343 -1.3826 -0.4950
    3CHTO   O82  848   8.194   1.351   1.380 -0.7237 -0.4002  0.4993
    3CHTO  C123  849   8.091   1.271   1.444 -0.4587  0.0510 -0.3182
    3CHTO  H227  850   8.116   1.255   1.550 -2.1078  0.7709  0.1952
    3CHTO   O77  851   7.974   1.358   1.441 -0.6861  0.2824 -0.0285
    3CHTO  C118  852   7.864   1.297   1.518  0.2668  0.2979  0.1240
    3CHTO  H222  853   7.907   1.283   1.618  0.8911 -1.4842 -0.3693
    3CHTO  C125  854   7.752   1.407   1.536  0.1032 -0.0471 -0.1038
    3CHTO   O84  855   7.659   1.366   1.641 -0.0790 -0.1276  0.2258
    3CHTO  H205  856   7.611   1.287   1.625  0.5712 -0.3986 -0.3868
    3CHTO  C114  857   7.815   1.162   1.452  0.4422 -0.1128 -0.3660
    3CHTO  H218  858   7.765   1.190   1.360 -1.3886 -1.9855  0.0132
    3CHTO  C116  859   7.927   1.061   1.408  0.3777  0.3112 -0.2101
    3CHTO  H220  860   7.937   0.989   1.492 -0.7706  1.7561  1.1849
    3CHTO   O79  861   7.881   0.976   1.299 -0.0172  0.1143 -0.3464
    3CHTO  H201  862   7.833   0.908   1.341 -1.2204  2.3165  1.9326
    3CHTO  C120  863   8.065   1.131   1.367  0.3919  0.6454 -0.0196
    3CHTO  H224  864   8.051   1.161   1.261 -0.3755  1.0299  0.1794
    3CHTO   N21  865   8.189   1.051   1.381  0.0594 -0.0360 -0.4908
    3CHTO  H211  866   8.170   0.950   1.348  0.0041 -0.9411  2.1630
    3CHTO  H212  867   8.235   1.056   1.479 -0.1401  3.3559 -0.4987
    3CHTO   O75  868   7.732   1.102   1.551  0.2773 -0.1615 -0.4861
    3CHTO  C112  869   7.588   1.056   1.485  0.4391  0.0653 -0.1058
    3CHTO  H216  870   7.599   1.023   1.381  1.2303  0.7952 -0.2620
    3CHTO   O73  871   7.511   1.177   1.494  0.2000 -0.0434  0.4091
    3CHTO  C113  872   7.377   1.168   1.450 -0.2351  0.0583 -0.6022
    3CHTO  H217  873   7.401   1.141   1.345 -2.2856  0.3201 -1.1443
    3CHTO  C124  874   7.308   1.309   1.458  0.2340 -0.9107 -0.6269
    3CHTO   O83  875   7.321   1.370   1.592  0.3740 -0.4954 -0.2116
    3CHTO  H204  876   7.309   1.462   1.581  2.5260  0.1363  2.0613
    3CHTO  C109  877   7.304   1.054   1.534  0.1286  0.3218 -0.7754
    3CHTO  H213  878   7.315   1.087   1.639  0.4878 -0.9593 -0.4113
    3CHTO  C110  879   7.378   0.915   1.527 -0.5296  0.0603  0.2785
    3CHTO  H214  880   7.362   0.872   1.427 -1.8310 -1.1964  1.0074
    3CHTO   O78  881   7.308   0.817   1.610  0.2320  0.2937  0.0389
    3CHTO  H200  882   7.318   0.854   1.696  0.0911  0.2830  0.0604
    3CHTO  C111  883   7.522   0.939   1.568 -0.8622 -0.1745 -0.4562
    3CHTO  H215  884   7.527   0.974   1.672  1.7586 -0.8619 -0.3009
    3CHTO   N19  885   7.606   0.821   1.564  0.6143  0.9849  1.9264
    3CHTO  H207  886   7.579   0.762   1.650  0.5227 -0.7019  0.7712
    3CHTO  H208  887   7.593   0.765   1.472 -0.0974  0.0391  2.5974
    3CHTO   O74  888   7.162   1.052   1.488 -0.7455 -0.3258 -0.2837
    3CHTO  C115  889   7.056   1.100   1.588  0.0597 -0.2220 -0.5721
    3CHTO  H219  890   7.092   1.097   1.690  0.6150 -0.9493 -0.7838
    3CHTO   O76  891   7.015   1.252   1.557 -0.3064  0.2045 -0.3901
    3CHTO  C122  892   6.897   1.302   1.620 -0.3426 -0.2099 -0.2428
    3CHTO  H226  893   6.872   1.399   1.576 -2.6919 -1.4034 -1.6032
    3CHTO  C126  894   6.926   1.328   1.772 -0.1459  0.1566  0.2500
    3CHTO   O85  895   7.027   1.433   1.792  0.3687  0.3633 -0.1348
    3CHTO  H206  896   7.115   1.404   1.775  0.8954  2.2074 -0.7549
    3CHTO  C121  897   6.771   1.212   1.619  0.4161  0.4230  0.2616
    3CHTO  H225  898   6.697   1.252   1.691 -4.6087  0.9952 -4.9010
    3CHTO   O81  899   6.721   1.215   1.484 -0.5790  0.0582  0.2184
    3CHTO  H202  900   6.667   1.290   1.471  2.6778  2.2544 -1.2206
    3CHTO  C119  901   6.799   1.063   1.651  0.5873 -0.7479 -0.2884
    3CHTO  H223  902   6.810   1.054   1.759  0.3546  0.5026 -0.1609
    3CHTO  C117  903   6.934   1.001   1.583 -0.6942  0.0934  0.7152
    3CHTO  H221  904   6.932   0.973   1.477  1.3381  0.2997  0.6022
    3CHTO   N20  905   6.968   0.874   1.655 -0.0103 -0.0192 -0.1333
    3CHTO  H209  906   7.064   0.843   1.617 -0.5073 -0.0688 -1.3856
    3CHTO  H210  907   6.894   0.795   1.654 -2.4638  2.1615 -2.9160
    3CHTO   O80  908   6.661   0.964   1.630 -0.0695  0.6572  0.3677
    3CHTO  C103  909   6.540   0.997   1.694  0.0471 -0.5205 -0.0432
    3CHTO  H190  910   6.553   1.057   1.784  2.2493 -0.1548 -0.5855
    3CHTO  C101  911   6.430   1.066   1.594 -0.0740 -0.3977 -0.2835
    3CHTO  H188  912   6.439   1.026   1.493 -1.4283  0.9892 -0.9771
    3CHTO   O68  913   6.462   1.218   1.587 -0.6048 -0.2103  0.2117
    3CHTO  H168  914   6.386   1.269   1.571 -0.5078 -0.2111 -0.2339
    3CHTO   C99  915   6.287   1.044   1.642 -0.1105 -0.4334  0.2692
    3CHTO  H186  916   6.265   1.089   1.740  1.5691  1.1748 -0.0770
    3CHTO   N17  917   6.179   1.092   1.545 -0.5597 -0.1996 -0.1778
    3CHTO  H174  918   6.152   1.196   1.557  0.3108 -0.2165  2.2137
    3CHTO  H175  919   6.206   1.067   1.444 -0.7848  0.1251 -0.3187
    3CHTO   C97  920   6.262   0.892   1.660  0.7646 -0.5013  0.7408
    3CHTO  H184  921   6.281   0.838   1.567  0.9770  0.5937  0.1370
    3CHTO   O64  922   6.354   0.852   1.767 -0.2720 -0.1732 -0.0293
    3CHTO  C104  923   6.493   0.846   1.733 -0.3395  0.0218  0.6891
    3CHTO  H191  924   6.520   0.779   1.651 -1.6602 -0.2160  0.4430
    3CHTO  C108  925   6.571   0.792   1.856  0.3046 -0.3120 -0.0138
    3CHTO   O71  926   6.532   0.655   1.889  0.0836 -0.0032  0.3475
    3CHTO  H171  927   6.544   0.642   1.981 -1.9510  0.1092  0.6422
    3CHTO   O62  928   6.134   0.863   1.713 -0.2853 -0.0456  0.0654
    3CHTO   C91  929   6.072   0.738   1.681  0.5051  0.2621 -0.5214
    3CHTO  H178  930   6.080   0.720   1.573  0.0262 -0.9531 -0.3605
    3CHTO   C92  931   5.923   0.750   1.709 -0.4319  0.2656  0.7914
    3CHTO  H179  932   5.897   0.778   1.813  0.6560  0.6848  0.9617
    3CHTO   O66  933   5.872   0.855   1.619  0.6886 -0.6252 -0.3012
    3CHTO  H166  934   5.782   0.837   1.602  0.9980 -0.9445 -1.7119
    3CHTO   C93  935   5.861   0.610   1.680 -0.6803  0.1526 -0.1607
    3CHTO  H180  936   5.879   0.585   1.575 -0.3708 -2.5819  0.5061
    3CHTO   N16  937   5.713   0.601   1.693 -0.9890 -0.9052 -0.4551
    3CHTO  H172  938   5.685   0.579   1.795 -2.7250 -0.8233 -0.8930
    3CHTO  H173  939   5.670   0.533   1.620  0.0892 -2.0112 -0.0732
    3CHTO   C94  940   5.924   0.499   1.772  0.1361  0.0848 -0.3335
    3CHTO  H181  941   5.859   0.466   1.854 -0.4174 -1.3090 -1.3110
    3CHTO   O61  942   6.034   0.547   1.842 -0.4773  0.6797 -0.3591
    3CHTO   C95  943   6.135   0.625   1.771  0.2902  0.4597  0.7045
    3CHTO  H182  944   6.206   0.672   1.840  2.2213  1.0820 -1.6352
    3CHTO  C106  945   6.226   0.534   1.681  0.1146  0.2313  0.1685
    3CHTO   O69  946   6.156   0.481   1.570  0.4487 -0.5424  0.6366
    3CHTO  H169  947   6.088   0.429   1.609 -0.6115 -1.3539 -2.1962
    3CHTO   O63  948   5.944   0.365   1.683 -0.0706 -0.0653 -0.3456
    3CHTO   C96  949   5.874   0.221   1.729  0.0803 -0.1828 -0.4467
    3CHTO  H183  950   5.935   0.139   1.690  0.9562  0.0257  0.4587
    3CHTO   C98  951   5.716   0.217   1.689 -0.1020 -0.1369  0.0116
    3CHTO  H185  952   5.665   0.309   1.722  2.3511  1.4397 -0.4199
    3CHTO   O67  953   5.703   0.219   1.547 -0.3208  0.2917  0.1903
    3CHTO  H167  954   5.772   0.267   1.505  0.5543  0.6521  1.9853
    3CHTO  C102  955   5.641   0.084   1.755  0.4860 -0.1474  0.8322
    3CHTO  H189  956   5.675   0.006   1.686 -1.3103  0.7049 -1.0786
    3CHTO   N18  957   5.493   0.084   1.755 -0.1068 -0.0418  0.0699
    3CHTO  H176  958   5.454   0.157   1.825  1.5756  0.5040  0.4468
    3CHTO  H177  959   5.456  -0.012   1.790  0.7089 -0.8008 -1.1147
    3CHTO  C105  960   5.692   0.039   1.897  0.0802  0.0125 -0.6640
    3CHTO  H192  961   5.640   0.105   1.966  1.2337  2.1968 -1.8445
    3CHTO   O65  962   5.832   0.068   1.910 -0.3345  0.3996  0.5089
    3CHTO  C100  963   5.885   0.198   1.881  0.1543  0.2850 -0.9860
    3CHTO  H187  964   5.819   0.265   1.939 -0.0386 -1.4122  0.8015
    3CHTO  C107  965   6.033   0.210   1.935  0.3710  0.1631  0.5986
    3CHTO   O70  966   6.051   0.239   2.075  0.6197 -0.0488  0.5902
    3CHTO  H170  967   6.019   0.325   2.093 -1.2072 -0.4129 -0.7755
    3CHTO   O57  968   5.673  -0.107   1.920  0.0621  0.2247  0.1996
    3CHTO   C85  969   5.651  -0.175   2.038  0.3248  0.2099 -0.1845
    3CHTO  H157  970   5.651  -0.278   1.999 -0.9317  0.4582 -0.8649
    3CHTO   C83  971   5.505  -0.153   2.087  0.5698 -0.1608 -0.0084
    3CHTO  H155  972   5.443  -0.195   2.008  0.5217 -0.4870  0.2012
    3CHTO   O56  973   5.470  -0.012   2.098 -0.2567 -0.7230 -0.2730
    3CHTO  H135  974   5.532   0.029   2.154 -1.8994  1.2080  0.1958
    3CHTO   C81  975   5.483  -0.232   2.218  0.6083 -0.4046  0.2194
    3CHTO  H153  976   5.515  -0.335   2.209 -3.1001 -1.4635 -1.7198
    3CHTO   N14  977   5.343  -0.252   2.262  0.0787  0.1284 -0.0023
    3CHTO  H141  978   5.328  -0.353   2.291  1.2682  0.3216  1.3329
    3CHTO  H142  979   5.330  -0.195   2.351  1.7062 -0.3257  0.5473
    3CHTO   C79  980   5.579  -0.168   2.321 -0.1527 -0.0215 -0.3719
    3CHTO  H151  981   5.565  -0.232   2.408 -3.3708  0.2982 -0.5956
    3CHTO   O52  982   5.715  -0.196   2.279 -0.2400  0.1383  0.2609
    3CHTO   C86  983   5.759  -0.154   2.150  0.5594  0.0990 -0.1335
    3CHTO  H158  984   5.775  -0.045   2.160  3.0282 -0.2141 -0.3808
    3CHTO   C90  985   5.897  -0.219   2.116 -0.5748 -0.0677  0.2879
    3CHTO   O60  986   6.003  -0.179   2.205  0.6840  0.1002 -0.2944
    3CHTO  H138  987   6.006  -0.231   2.283  2.7216 -2.0698 -1.7697
    3CHTO   O50  988   5.572  -0.027   2.339 -0.0221 -0.0844 -0.3159
    3CHTO   C73  989   5.576   0.073   2.443  0.6440  0.1551 -0.0807
    3CHTO  H145  990   5.653   0.044   2.516  0.9268 -0.5924 -0.6679
    3CHTO   C74  991   5.436   0.082   2.506 -0.3957 -0.5563  0.4213
    3CHTO  H146  992   5.411  -0.021   2.533 -1.0560 -0.9781 -1.7049
    3CHTO   O54  993   5.441   0.152   2.635  0.8995 -0.1806 -0.1670
    3CHTO  H133  994   5.490   0.095   2.693 -0.8645  1.3831  2.9942
    3CHTO   C75  995   5.335   0.137   2.399 -0.6494  0.6447 -0.0260
    3CHTO  H147  996   5.327   0.060   2.321 -0.7732 -0.6849  1.2559
    3CHTO   N13  997   5.206   0.156   2.461  0.1066 -0.4004 -0.9245
    3CHTO  H139  998   5.157   0.062   2.480 -0.0937  0.1205  1.3310
    3CHTO  H140  999   5.151   0.208   2.383  0.1202  2.0961  0.6519
    3CHTO   C76 1000   5.385   0.276   2.346  0.4479  0.4144  0.3171
    3CHTO  H148 1001   5.392   0.355   2.421  0.0959  0.7952 -0.0460
    3CHTO   O49 1002   5.511   0.249   2.282  0.3985  0.0128  0.0913
    3CHTO   C77 1003   5.612   0.209   2.370  0.4222 -0.1476 -0.2102
    3CHTO  H149 1004   5.619   0.287   2.446 -0.4404 -0.1385 -0.1265
    3CHTO   C88 1005   5.742   0.208   2.297  0.7183 -0.0611  0.0027
    3CHTO   O58 1006   5.855   0.166   2.381 -0.0299 -0.1752  0.3127
    3CHTO  H136 1007   5.863   0.236   2.443  0.2406 -0.0304  0.1178
    3CHTO   O51 1008   5.297   0.312   2.191  0.4368 -0.1004  0.7619
    3CHTO   C78 1009   5.308   0.486   2.161  0.0644 -0.2367 -1.0852
    3CHTO  H150 1010   5.400   0.515   2.216 -0.2668 -0.4537 -0.4218
    3CHTO   C80 1011   5.195   0.568   2.219  0.0459 -0.0809 -0.5169
    3CHTO  H152 1012   5.099   0.538   2.171  0.1208 -0.9550 -0.1202
    3CHTO   O55 1013   5.202   0.543   2.367  0.5124 -0.2433 -0.0643
    3CHTO  H134 1014   5.126   0.586   2.400  2.6351  3.4299  0.3333
    3CHTO   C84 1015   5.222   0.721   2.196  0.2533  0.1541 -0.6594
    3CHTO  H156 1016   5.308   0.752   2.255 -0.1930 -1.3057  0.8093
    3CHTO   N15 1017   5.102   0.808   2.243  1.0190  0.1506 -0.7159
    3CHTO  H143 1018   5.008   0.758   2.233  1.3399 -0.9510  1.3220
    3CHTO  H144 1019   5.104   0.904   2.198  2.9902  0.7356  0.5459
    3CHTO   C87 1020   5.262   0.751   2.049  0.3961 -0.6299  0.5845
    3CHTO  H159 1021   5.174   0.763   1.986  1.5572  0.9475 -0.7504
    3CHTO   O53 1022   5.369   0.653   1.989  0.1255 -0.3349  0.2097
    3CHTO   C82 1023   5.331   0.520   2.013  0.1058  0.1583  0.0887
    3CHTO  H154 1024   5.235   0.500   1.966  1.2122  0.6195 -2.4460
    3CHTO   C89 1025   5.431   0.419   1.948 -0.0940  0.3786  1.0783
    3CHTO   O59 1026   5.406   0.423   1.811 -0.1405  0.2959 -0.2063
    3CHTO  H137 1027   5.389   0.511   1.782  0.1134  0.7653  1.0161
    3CHTO   O45 1028   5.322   0.905   2.050 -0.6362 -0.3179  0.6928
    3CHTO   C67 1029   5.467   0.925   2.043 -0.2044 -0.0622 -0.1894
    3CHTO  H124 1030   5.523   0.844   2.089 -0.5490  1.2419  2.6472
    3CHTO   C65 1031   5.516   0.964   1.898  0.4016 -0.1556 -0.3365
    3CHTO  H122 1032   5.425   1.001   1.850 -0.0852 -2.3838 -1.2030
    3CHTO   O44 1033   5.539   0.836   1.834  0.1453 -0.7533  0.4330
    3CHTO  H102 1034   5.478   0.817   1.766  0.9290  2.1557 -1.1901
    3CHTO   C63 1035   5.628   1.077   1.893  0.0106 -0.3262 -0.4044
    3CHTO  H120 1036   5.579   1.174   1.906 -0.7834 -0.7830  0.0238
    3CHTO   N11 1037   5.696   1.104   1.762  0.1206 -0.1791 -0.0063
    3CHTO  H108 1038   5.734   1.012   1.724 -0.1023 -0.9605  1.6171
    3CHTO  H109 1039   5.610   1.115   1.698 -0.5074 -0.3525  0.8045
    3CHTO   C61 1040   5.723   1.054   2.020 -0.0098 -0.2913  0.1284
    3CHTO  H118 1041   5.800   1.132   2.029 -1.1114  1.1276 -2.3844
    3CHTO   O40 1042   5.650   1.049   2.151 -0.0789  0.5233 -0.0079
    3CHTO   C68 1043   5.503   1.046   2.136  0.1424 -0.0510  0.4713
    3CHTO  H125 1044   5.475   1.147   2.100 -2.3677  0.0144  2.4545
    3CHTO   C72 1045   5.446   1.039   2.283 -0.0477 -0.2501 -0.4463
    3CHTO   O48 1046   5.460   0.924   2.366  0.1993  0.3329 -0.6324
    3CHTO  H105 1047   5.378   0.884   2.383  0.5446 -1.2542 -2.4679
    3CHTO   O38 1048   5.796   0.929   1.999 -0.2005 -0.3270 -0.4393
    3CHTO   C55 1049   5.900   0.888   2.094 -0.3430 -0.5333  0.1709
    3CHTO  H112 1050   5.884   0.940   2.190  0.8754 -0.0416  0.1158
    3CHTO   C56 1051   6.045   0.931   2.029  0.5067 -0.2550 -0.3843
    3CHTO  H113 1052   6.056   0.877   1.934 -0.4042 -2.4904  0.7455
    3CHTO   O42 1053   6.049   1.069   2.007 -0.1713 -0.3603 -0.3014
    3CHTO  H100 1054   6.124   1.093   1.957  0.4472 -0.9577  0.3318
    3CHTO   C57 1055   6.157   0.885   2.135  0.0904  0.3294  0.1654
    3CHTO  H114 1056   6.157   0.938   2.230 -0.8584  2.4928 -0.9851
    3CHTO   N10 1057   6.296   0.899   2.092  0.2476  0.1887 -0.4484
    3CHTO  H106 1058   6.310   0.981   2.023  0.5585 -0.3819 -1.0807
    3CHTO  H107 1059   6.354   0.918   2.181  0.1744  3.3614 -1.0046
    3CHTO   C58 1060   6.125   0.736   2.161  0.6136 -0.4870 -0.5381
    3CHTO  H115 1061   6.148   0.672   2.072 -1.5544 -0.1517 -1.3617
    3CHTO   O37 1062   5.993   0.707   2.202  0.1289 -0.1668  0.4867
    3CHTO   C59 1063   5.896   0.735   2.110 -0.0130 -0.0715  0.8592
    3CHTO  H116 1064   5.912   0.683   2.016 -1.1073 -1.5142  1.4567
    3CHTO   C70 1065   5.757   0.680   2.151 -0.3250  0.3792  0.9877
    3CHTO   O46 1066   5.672   0.646   2.044 -0.1376 -0.0239 -0.3287
    3CHTO  H103 1067   5.699   0.682   1.962  1.7370 -1.0477 -0.2040
    3CHTO   O39 1068   6.211   0.674   2.284  0.0605  0.1421  0.6995
    3CHTO   C60 1069   6.246   0.536   2.264 -0.0945  0.3336 -0.3727
    3CHTO  H117 1070   6.169   0.494   2.199  1.1631 -2.7990  0.1184
    3CHTO   C62 1071   6.386   0.533   2.192 -0.4407  0.6380  0.4236
    3CHTO  H119 1072   6.372   0.570   2.089 -1.0467 -3.1000 -0.9405
    3CHTO   O43 1073   6.476   0.619   2.267  0.2112 -0.2091 -0.0671
    3CHTO  H101 1074   6.564   0.588   2.271  0.7001  1.0128 -1.0578
    3CHTO   C66 1075   6.428   0.376   2.171 -0.1053 -1.1857 -0.0779
    3CHTO  H123 1076   6.353   0.329   2.108 -0.0801 -3.7429  1.7273
    3CHTO   N12 1077   6.560   0.365   2.114 -0.4480  0.1594 -0.4776
    3CHTO  H110 1078   6.626   0.322   2.187 -1.1813 -3.0289 -1.6060
    3CHTO  H111 1079   6.553   0.305   2.024  2.1643 -0.0216 -0.5735
    3CHTO   C69 1080   6.411   0.288   2.299  0.0341  0.5348 -0.5313
    3CHTO  H126 1081   6.488   0.327   2.369 -1.4040 -1.0068  2.0099
    3CHTO   O41 1082   6.277   0.302   2.370 -0.5265  0.1439  0.0223
    3CHTO   C64 1083   6.239   0.448   2.398  0.5987  0.3973 -0.3851
    3CHTO  H121 1084   6.300   0.499   2.475  0.3512  0.1599 -0.0346
    3CHTO   C71 1085   6.093   0.456   2.450  0.0776 -0.4690 -0.0425
    3CHTO   O47 1086   6.040   0.356   2.538 -0.9218 -0.2163 -0.0568
    3CHTO  H104 1087   6.034   0.392   2.625 -0.6646 -1.4509  0.4769
    3CHTO   O34 1088   6.442   0.145   2.273  0.0224  0.4287 -0.4550
    3CHTO   C49 1089   6.480   0.027   2.191  0.2635  0.5459  0.1736
    3CHTO   H91 1090   6.567   0.056   2.132 -0.5535  0.2825 -1.1779
    3CHTO   C47 1091   6.363   0.004   2.089  0.7124 -0.0645  0.1201
    3CHTO   H89 1092   6.385   0.073   2.005 -3.0643  0.8600 -0.2090
    3CHTO   O33 1093   6.236   0.042   2.148  0.0229  0.1518 -0.2572
    3CHTO   H70 1094   6.177   0.041   2.075 -0.3296 -1.0573  0.0316
    3CHTO   C45 1095   6.350  -0.156   2.046  0.4056  0.2994 -0.1800
    3CHTO   H87 1096   6.285  -0.204   2.120 -1.2738  1.4698 -0.8583
    3CHTO    N8 1097   6.292  -0.170   1.907  0.6541  0.2233  0.4370
    3CHTO   H75 1098   6.265  -0.270   1.880 -0.0187  0.8884 -1.3818
    3CHTO   H76 1099   6.210  -0.100   1.903  3.0380  3.0869 -0.2462
    3CHTO   C43 1100   6.498  -0.228   2.053  0.3143 -0.2924  0.1231
    3CHTO   H85 1101   6.487  -0.333   2.024 -4.0335  1.1029 -3.8418
    3CHTO   O29 1102   6.556  -0.214   2.184 -0.2354 -0.4032 -0.3186
    3CHTO   C50 1103   6.500  -0.106   2.265 -0.5143 -0.1283 -0.5151
    3CHTO   H92 1104   6.416  -0.147   2.323 -2.0529  1.0591 -1.8463
    3CHTO   C54 1105   6.596  -0.083   2.388 -0.2400  0.3708  0.7451
    3CHTO   O36 1106   6.612  -0.208   2.464 -0.5386 -0.2818  0.2942
    3CHTO   H72 1107   6.654  -0.190   2.546  0.5968  0.9739 -0.5232
    3CHTO   O27 1108   6.588  -0.155   1.963  0.4535  0.0188  0.4126
    3CHTO   C37 1109   6.723  -0.110   1.944 -0.6568  0.0474  0.6446
    3CHTO   H79 1110   6.749  -0.056   2.036 -2.3276 -1.1081  1.8164
    3CHTO   C38 1111   6.828  -0.227   1.925  0.6409 -0.3637  0.1457
    3CHTO   H80 1112   6.795  -0.290   1.842  0.2853 -0.9257  0.7070
    3CHTO   O31 1113   6.821  -0.298   2.047  0.0540  0.4018  0.3751
    3CHTO   H68 1114   6.828  -0.391   2.035  2.4579  0.5542  0.2122
    3CHTO   C39 1115   6.976  -0.169   1.900  0.6749  0.2063  0.6090
    3CHTO   H81 1116   7.002  -0.121   1.994 -1.3467  2.1262  0.2115
    3CHTO    N7 1117   7.074  -0.278   1.867 -0.2502 -0.0057 -0.6275
    3CHTO   H73 1118   7.153  -0.278   1.942 -1.8394 -1.4549  1.0928
    3CHTO   H74 1119   7.023  -0.373   1.876 -1.7513  0.9402  1.3280
    3CHTO   C40 1120   6.975  -0.049   1.790 -0.8527 -0.2724  0.0076
    3CHTO   H82 1121   6.958  -0.087   1.689  4.3317 -0.9013 -0.7864
    3CHTO   O26 1122   6.873   0.044   1.832  0.4500  0.1628  0.0794
    3CHTO   C41 1123   6.738  -0.012   1.822  0.2190  0.4228  0.3199
    3CHTO   H83 1124   6.714  -0.054   1.723 -1.0804  1.0968  0.3407
    3CHTO   C52 1125   6.642   0.102   1.829 -0.6483 -0.2524  0.4320
    3CHTO   O35 1126   6.677   0.218   1.737  0.0418  0.1188  0.4749
    3CHTO   H71 1127   6.769   0.237   1.737  0.0561  0.1398  2.0634
    3CHTO   O28 1128   7.097   0.031   1.790 -0.2215 -0.1466 -1.1178
    3CHTO   C42 1129   7.123   0.162   1.732 -0.2913 -0.1717 -0.0372
    3CHTO   H84 1130   7.232   0.164   1.728 -0.3734  1.4103 -1.8329
    3CHTO   C44 1131   7.087   0.291   1.821  0.4124  0.1974 -0.5748
    3CHTO   H86 1132   7.009   0.262   1.892 -0.6834  0.8904 -1.4812
    3CHTO   O32 1133   7.199   0.303   1.904 -0.4657 -0.1490  0.2474
    3CHTO   H69 1134   7.226   0.221   1.941  2.2878  0.3469 -0.5941
    3CHTO   C48 1135   7.060   0.425   1.743 -0.0893  0.4817 -0.8431
    3CHTO   H90 1136   7.158   0.468   1.719  0.6912  0.2360  1.7125
    3CHTO    N9 1137   7.003   0.521   1.833 -0.7958 -0.2693 -0.1841
    3CHTO   H77 1138   6.905   0.490   1.867 -1.1264  1.3427  0.3492
    3CHTO   H78 1139   6.995   0.614   1.779 -2.8850 -0.9151 -1.0356
    3CHTO   C51 1140   6.981   0.398   1.618 -0.1054 -0.1576 -0.0424
    3CHTO   H93 1141   6.888   0.349   1.645  1.0680 -2.1311  0.4693
    3CHTO   O30 1142   7.061   0.313   1.537 -0.3769  0.6667 -0.3487
    3CHTO   C46 1143   7.066   0.167   1.584  0.3037  0.3499  0.4931
    3CHTO   H88 1144   6.971   0.115   1.583  0.1239  0.6531 -1.7402
    3CHTO   C53 1145   7.147   0.095   1.473 -0.6393  0.1710 -0.2953
    3CHTO   O72 1146   7.086   0.092   1.341  0.3610 -0.1725  0.4591
    3CHTO  H199 1147   7.044   0.176   1.339 -0.3688 -0.5016  1.3037
    3CHTO   O22 1148   6.962   0.517   1.539 -0.1214  0.1306  0.0408
    3CHTO   C31 1149   6.862   0.546   1.432 -0.3803 -0.1960 -0.1796
    3CHTO   H59 1150   6.824   0.448   1.396 -1.0997 -0.3353  0.9381
    3CHTO   C29 1151   6.735   0.632   1.471  0.1562 -0.2059 -0.5124
    3CHTO   H57 1152   6.765   0.734   1.498 -1.6233  0.4837 -1.1352
    3CHTO   O21 1153   6.662   0.564   1.582 -0.3719 -0.1920  0.0729
    3CHTO   H37 1154   6.658   0.471   1.570 -1.1421 -0.5322  2.7848
    3CHTO   C27 1155   6.642   0.639   1.343  0.4294 -0.2518 -0.1928
    3CHTO   H55 1156   6.615   0.536   1.316  1.0340 -0.4282 -0.1436
    3CHTO    N5 1157   6.515   0.723   1.356  0.0416  0.2593  0.4918
    3CHTO   H43 1158   6.541   0.826   1.336  1.6315 -0.0437  0.9294
    3CHTO   H44 1159   6.446   0.689   1.280  1.3529  0.9923 -1.0707
    3CHTO   C25 1160   6.725   0.697   1.218  0.1938  0.0782 -0.0594
    3CHTO   H53 1161   6.755   0.799   1.245 -2.8522  0.6474  1.3250
    3CHTO   O17 1162   6.836   0.606   1.200 -0.4614 -0.0782  0.6753
    3CHTO   C32 1163   6.930   0.607   1.303 -0.2191 -0.0319 -0.8592
    3CHTO   H60 1164   6.963   0.709   1.324 -1.5749  0.6866 -2.1169
    3CHTO   C36 1165   7.052   0.520   1.252  0.0701  0.4328 -0.1641
    3CHTO   O25 1166   7.079   0.528   1.112 -0.2515  0.1622  0.9050
    3CHTO   H40 1167   7.141   0.457   1.107  0.1205  0.5778 -0.9052
    3CHTO   O15 1168   6.646   0.719   1.089 -0.1818 -0.6851 -0.3727
    3CHTO   C19 1169   6.634   0.832   0.990  0.1175 -0.0637 -0.2988
    3CHTO   H47 1170   6.575   0.783   0.912  0.3512 -0.1927 -0.3947
    3CHTO   C20 1171   6.577   0.971   1.041 -0.1356 -0.8841 -0.5521
    3CHTO   H48 1172   6.630   1.008   1.130  1.1286 -0.0339 -1.6276
    3CHTO   O19 1173   6.445   0.939   1.077 -0.2884 -0.6071 -0.5035
    3CHTO   H35 1174   6.441   0.916   1.168  0.0202 -1.0748 -0.6047
    3CHTO   C21 1175   6.567   1.088   0.937  0.1559 -0.1078  0.2372
    3CHTO   H49 1176   6.472   1.076   0.885  0.4383 -0.7600 -0.1351
    3CHTO    N4 1177   6.545   1.217   1.001 -0.9270  0.1396  0.5504
    3CHTO   H41 1178   6.507   1.285   0.926  0.5707  2.4386  1.8148
    3CHTO   H42 1179   6.641   1.255   1.032 -1.4417  0.2478  2.0530
    3CHTO   C22 1180   6.693   1.083   0.838  0.8895 -0.3016 -0.0288
    3CHTO   H50 1181   6.774   1.145   0.875 -0.5536  1.9936 -0.6440
    3CHTO   O14 1182   6.728   0.952   0.805 -0.1545 -0.1155  0.3303
    3CHTO   C23 1183   6.764   0.870   0.917 -0.1165 -0.0045 -0.3381
    3CHTO   H51 1184   6.829   0.935   0.977  0.3207  0.6564 -1.5094
    3CHTO   C34 1185   6.838   0.748   0.870  0.0921  0.3779  0.2715
    3CHTO   O23 1186   6.953   0.773   0.783 -0.4334 -0.4296 -0.3232
    3CHTO   H38 1187   7.020   0.809   0.837  1.3882 -1.6868 -1.7026
    3CHTO   O16 1188   6.650   1.132   0.712  0.2225 -0.2906 -0.2045
    3CHTO   C24 1189   6.733   1.258   0.651  0.0384  0.1955  0.1785
    3CHTO   H52 1190   6.809   1.296   0.719 -0.5056  0.4774  0.6297
    3CHTO   C26 1191   6.635   1.370   0.617  0.5689  0.0520 -0.9142
    3CHTO   H54 1192   6.562   1.327   0.544  1.6246  0.3924 -2.1842
    3CHTO   O20 1193   6.555   1.404   0.729  0.9260 -0.2615 -0.3465
    3CHTO   H36 1194   6.519   1.331   0.776  3.2680  0.2240  2.3708
    3CHTO   C30 1195   6.707   1.495   0.554  0.2016 -0.4533  0.4837
    3CHTO   H58 1196   6.761   1.543   0.637  1.3023 -1.9014  0.6244
    3CHTO    N6 1197   6.607   1.595   0.496  0.1854 -0.3110 -0.2579
    3CHTO   H45 1198   6.551   1.544   0.419  0.3803 -1.9542  0.6705
    3CHTO   H46 1199   6.665   1.674   0.451  1.3083  0.2367  2.0879
    3CHTO   C33 1200   6.817   1.455   0.445 -0.6415 -0.0711 -0.8638
    3CHTO   H61 1201   6.756   1.429   0.357 -1.2720 -2.3548  0.1916
    3CHTO   O18 1202   6.887   1.333   0.483  0.4568  0.8920  0.3710
    3CHTO   C28 1203   6.810   1.219   0.519  0.5485  0.4477  0.0826
    3CHTO   H56 1204   6.736   1.185   0.445  1.5220  0.7267 -1.0330
    3CHTO   C35 1205   6.918   1.101   0.531 -0.0930 -0.6670 -0.6601
    3CHTO   O24 1206   7.001   1.135   0.641 -0.3801  0.1049  0.3549
    3CHTO   H39 1207   7.060   1.065   0.660 -0.9956 -0.9543 -1.5171
    3CHTO    O9 1208   6.907   1.558   0.402  0.3120 -0.2847 -0.8160
    3CHTO   C13 1209   7.024   1.606   0.515 -0.0974  0.0183 -0.6396
    3CHTO   H26 1210   6.973   1.600   0.613 -2.7887 -0.5392 -2.0258
    3CHTO   C11 1211   7.072   1.752   0.480  0.1494  0.0134  0.3217
    3CHTO   H24 1212   6.986   1.814   0.508 -0.7007 -0.6518 -0.7582
    3CHTO    O8 1213   7.111   1.777   0.343  0.1311  0.4326 -0.2865
    3CHTO    H3 1214   7.035   1.778   0.288 -0.2089  1.2180  0.1884
    3CHTO    C9 1215   7.187   1.778   0.577 -0.6775 -0.8743 -0.3353
    3CHTO   H22 1216   7.145   1.758   0.676 -0.8207 -4.6159 -1.0780
    3CHTO    N2 1217   7.225   1.922   0.585  0.6422 -0.8469  0.2393
    3CHTO   H10 1218   7.305   1.941   0.514 -0.2469 -0.3179 -0.6323
    3CHTO   H11 1219   7.255   1.960   0.681  0.0543 -0.5440  0.3051
    3CHTO    C7 1220   7.310   1.689   0.549  0.1871 -0.4349  0.7216
    3CHTO   H20 1221   7.381   1.720   0.628 -0.2951 -1.2827  1.4871
    3CHTO    O4 1222   7.276   1.554   0.572  0.0195 -0.0585  0.9012
    3CHTO   C14 1223   7.149   1.501   0.523  0.4353 -0.2704  0.0284
    3CHTO   H27 1224   7.127   1.425   0.602 -1.3575 -0.9484 -1.0861
    3CHTO   C18 1225   7.175   1.419   0.392 -0.0914 -0.4349 -0.8704
    3CHTO   O13 1226   7.272   1.317   0.424  0.4017 -0.0489 -0.1886
    3CHTO    H7 1227   7.345   1.345   0.475  1.2729 -0.0464 -1.4063
    3CHTO    O2 1228   7.382   1.701   0.398 -0.0756 -0.3702 -0.7988
    3CHTO    C1 1229   7.496   1.620   0.373 -0.3858 -0.4505 -0.6501
    3CHTO   H14 1230   7.466   1.519   0.410 -1.7169 -0.0349 -0.5825
    3CHTO    C2 1231   7.633   1.671   0.447  0.7968 -0.6497  0.5099
    3CHTO   H15 1232   7.655   1.775   0.419 -2.5491 -0.3080 -1.0554
    3CHTO    O6 1233   7.608   1.668   0.588  0.1283  0.0958 -0.3737
    3CHTO    H1 1234   7.654   1.741   0.624 -0.9132 -0.6867  2.7608
    3CHTO    C3 1235   7.758   1.574   0.399  0.2381 -0.5263  0.2939
    3CHTO   H16 1236   7.751   1.474   0.443  1.0600 -0.4787  0.5483
    3CHTO    N1 1237   7.894   1.626   0.449  0.4721  0.0744  0.0989
    3CHTO    H8 1238   7.959   1.541   0.435 -0.8317 -0.9505  0.1695
    3CHTO    H9 1239   7.879   1.648   0.553  0.5743 -1.4965  0.4523
    3CHTO    C4 1240   7.762   1.555   0.240 -0.5288  0.5578 -0.8343
    3CHTO   H17 1241   7.786   1.646   0.186 -2.7278  1.2426 -0.7308
    3CHTO    O1 1242   7.628   1.522   0.189  0.6898  0.4202 -0.3033
    3CHTO    C5 1243   7.535   1.620   0.223  0.8720 -0.5568 -0.0178
    3CHTO   H18 1244   7.575   1.720   0.202 -0.0317 -0.4978 -1.5129
    3CHTO   C16 1245   7.426   1.599   0.119  0.6093  0.1630  0.0849
    3CHTO   O11 1246   7.321   1.694   0.131  0.3848 -0.1530  0.3836
    3CHTO    H5 1247   7.308   1.738   0.049  1.0634 -1.9245 -0.6978
    3CHTO    O3 1248   7.849   1.448   0.198 -0.5334  0.5834  0.0893
    3CHTO    C6 1249   7.879   1.437   0.052 -0.0803 -0.0175 -0.7025
    3CHTO   H19 1250   7.830   1.505  -0.017  1.4068  1.3673 -0.4157
    3CHTO    C8 1251   8.041   1.454   0.039 -0.9717 -0.7000  0.2719
    3CHTO   H21 1252   8.095   1.394   0.112  0.9502 -0.8803 -1.2415
    3CHTO    O7 1253   8.061   1.600   0.058 -0.4632 -0.1357  0.7111
    3CHTO    H2 1254   8.139   1.610   0.110  1.5275 -4.1987 -1.2668
    3CHTO   C12 1255   8.077   1.406  -0.112  0.2625 -0.1215 -0.8700
    3CHTO   H25 1256   8.018   1.469  -0.182  0.4991 -0.9047 -1.7704
    3CHTO    N3 1257   8.226   1.423  -0.130 -0.1511  0.6355  0.4109
    3CHTO   H12 1258   8.274   1.344  -0.074  1.2288  0.8799 -0.3920
    3CHTO   H13 1259   8.255   1.518  -0.086  1.0907  1.7150 -2.5885
    3CHTO   C15 1260   8.033   1.260  -0.135 -0.4251  0.3814 -0.6999
    3CHTO   H28 1261   8.087   1.185  -0.078 -0.8346 -0.1256 -0.9801
    3CHTO   O10 1262   8.036   1.217  -0.279 -0.2625  0.4600 -0.3121
    3CHTO    H4 1263   8.122   1.184  -0.300 -0.7462 -1.5958  0.7956
    3CHTO    O5 1264   7.888   1.262  -0.119 -0.0150 -1.0687 -0.2242
    3CHTO   C10 1265   7.842   1.295   0.007  0.2376 -0.7857 -1.1508
    3CHTO   H23 1266   7.890   1.236   0.085  0.5229  1.4977  0.4228
    3CHTO   C17 1267   7.687   1.281   0.013  0.4513  0.1724  0.1747
    3CHTO   O12 1268   7.654   1.142   0.005 -0.0348 -0.1313  0.1580
    3CHTO    H6 1269   7.566   1.132  -0.026 -0.4656 -0.0745  1.3664
    4CHTO  H203 1270   6.583   7.196   2.304 -0.6372  0.5754  2.2928
    4CHTO   O82 1271   6.662   7.245   2.319  0.4201 -0.3075 -0.0963
    4CHTO  C123 1272   6.631   7.381   2.353 -0.8226 -0.5671  0.2140
    4CHTO  H227 1273   6.570   7.381   2.444 -1.8469 -2.7614 -0.4425
    4CHTO   O77 1274   6.764   7.433   2.382 -0.3968 -0.1511 -0.8442
    4CHTO  C118 1275   6.768   7.560   2.445 -0.6585 -0.2964 -0.5025
    4CHTO  H222 1276   6.703   7.542   2.532  1.1463  0.8211  1.1242
    4CHTO  C125 1277   6.919   7.587   2.490 -0.0285 -0.3821  0.1395
    4CHTO   O84 1278   7.012   7.618   2.382 -0.0798  0.0265 -0.3664
    4CHTO  H205 1279   7.016   7.541   2.328  0.4453  0.6552 -1.2310
    4CHTO  C114 1280   6.717   7.666   2.338  0.7633  0.5168  0.4401
    4CHTO  H218 1281   6.768   7.647   2.244 -0.8714 -0.7820 -0.2073
    4CHTO  C116 1282   6.572   7.624   2.299 -0.1771  0.1417  0.2450
    4CHTO  H220 1283   6.513   7.631   2.393 -0.5500  1.0433 -0.0472
    4CHTO   O79 1284   6.508   7.715   2.206 -0.3485 -0.0858 -0.1520
    4CHTO  H201 1285   6.414   7.706   2.200 -0.4220 -0.8184  1.8231
    4CHTO  C120 1286   6.567   7.475   2.246 -0.4714 -0.8683  0.1613
    4CHTO  H224 1287   6.619   7.469   2.148 -0.9600 -2.1096 -0.0390
    4CHTO   N21 1288   6.429   7.430   2.212 -0.0794 -0.6472 -0.1184
    4CHTO  H211 1289   6.401   7.448   2.109  3.5124 -0.2688 -1.1007
    4CHTO  H212 1290   6.408   7.328   2.237  1.1005 -0.7180  0.6160
    4CHTO   O75 1291   6.735   7.800   2.394 -0.1619  0.1749  0.8386
    4CHTO  C112 1292   6.866   7.888   2.324 -0.3692 -0.4676 -0.4306
    4CHTO  H216 1293   6.922   7.815   2.263  0.9619  0.9082 -0.8757
    4CHTO   O73 1294   6.948   7.939   2.429 -0.1512  0.4194 -0.1845
    4CHTO  C113 1295   7.052   8.034   2.380  0.8229  0.3597 -0.7392
    4CHTO  H217 1296   7.111   7.994   2.295 -1.1221  1.0132 -2.4322
    4CHTO  C124 1297   7.135   8.065   2.504  0.0440  0.1754 -0.2428
    4CHTO   O83 1298   7.250   8.146   2.479  0.9181 -0.1196 -0.5128
    4CHTO  H204 1299   7.313   8.097   2.430  0.0012 -1.7071 -0.1575
    4CHTO  C109 1300   6.986   8.163   2.324  0.2721  0.8225  0.0910
    4CHTO  H213 1301   6.912   8.191   2.400  0.4256  0.2409  0.4584
    4CHTO  C110 1302   6.913   8.110   2.195  0.6170  0.6310  0.3492
    4CHTO  H214 1303   6.976   8.058   2.123  0.3523 -1.4657  1.5938
    4CHTO   O78 1304   6.853   8.219   2.118  0.8712 -0.0301  0.0500
    4CHTO  H200 1305   6.781   8.188   2.066 -1.2981  1.1195  2.2513
    4CHTO  C111 1306   6.806   8.002   2.236 -0.3925  0.2003  0.7732
    4CHTO  H215 1307   6.733   8.040   2.309 -1.8240 -1.5908  0.3152
    4CHTO   N19 1308   6.733   7.942   2.122  0.6569  0.5457 -0.1897
    4CHTO  H207 1309   6.656   7.878   2.160  1.6176  0.5484  1.7831
    4CHTO  H208 1310   6.799   7.899   2.048  1.6291 -1.3561  1.7582
    4CHTO   O74 1311   7.080   8.276   2.297 -0.2911  0.6346 -0.4321
    4CHTO  C115 1312   7.045   8.408   2.382  0.8666 -0.9860 -0.2376
    4CHTO  H219 1313   6.977   8.389   2.464 -1.4632  1.0868 -1.6119
    4CHTO   O76 1314   7.175   8.469   2.449 -0.3796 -0.1178 -0.2443
    4CHTO  C122 1315   7.273   8.531   2.360  0.1571  0.1521  0.7731
    4CHTO  H226 1316   7.335   8.452   2.318 -0.6461  1.0672 -2.2292
    4CHTO  C126 1317   7.370   8.636   2.432  0.3531 -0.1955 -0.5356
    4CHTO   O85 1318   7.440   8.568   2.538  0.5367 -0.2847  0.1233
    4CHTO  H206 1319   7.373   8.547   2.600  0.6763 -0.5188  0.1949
    4CHTO  C121 1320   7.211   8.593   2.234  0.6457  0.1434 -0.2152
    4CHTO  H225 1321   7.270   8.682   2.204  0.2290  0.0211 -1.4610
    4CHTO   O81 1322   7.227   8.505   2.126 -0.0191 -0.5805  0.3749
    4CHTO  H202 1323   7.220   8.554   2.046 -0.2459  2.2390  2.0761
    4CHTO  C119 1324   7.066   8.627   2.243 -0.0832 -0.3453 -0.1583
    4CHTO  H223 1325   7.055   8.698   2.325  0.3151  1.7397 -1.8377
    4CHTO  C117 1326   6.974   8.511   2.278  0.1797 -0.0638  0.3878
    4CHTO  H221 1327   6.952   8.455   2.186  0.6879  0.8975 -0.3281
    4CHTO   N20 1328   6.834   8.541   2.332 -0.6459 -0.0404  0.3229
    4CHTO  H209 1329   6.760   8.524   2.256  2.1338  0.9582 -2.6886
    4CHTO  H210 1330   6.829   8.634   2.388  1.5897 -0.4646  1.2851
    4CHTO   O80 1331   7.011   8.714   2.121 -0.3830  0.2586  0.1523
    4CHTO  C103 1332   7.043   8.860   2.106 -0.7833 -0.0149  0.3063
    4CHTO  H190 1333   7.048   8.898   2.208  0.7092 -1.5208  0.8113
    4CHTO  C101 1334   7.167   8.903   2.012  0.6574 -0.2656  0.0436
    4CHTO  H188 1335   7.172   8.837   1.925 -1.8625 -1.6641  0.9014
    4CHTO   O68 1336   7.313   8.875   2.082  0.5147  0.9476 -0.0224
    4CHTO  H168 1337   7.372   8.893   2.011 -2.4660 -2.1586 -3.4432
    4CHTO   C99 1338   7.169   9.056   1.964  0.2639 -0.1037 -0.0280
    4CHTO  H186 1339   7.181   9.117   2.056 -0.7485 -1.9018  1.3236
    4CHTO   N17 1340   7.275   9.103   1.869 -0.4313 -0.0654  0.1322
    4CHTO  H174 1341   7.249   9.197   1.824 -0.9120  0.1271  0.8081
    4CHTO  H175 1342   7.282   9.016   1.806  1.7057  0.2678 -0.1433
    4CHTO   C97 1343   7.029   9.091   1.911 -0.1639 -0.5608  0.0233
    4CHTO  H184 1344   7.009   9.031   1.821 -0.2197 -1.8630  0.9034
    4CHTO   O64 1345   6.937   9.063   2.016  0.2583 -0.5344 -0.0888
    4CHTO  C104 1346   6.921   8.921   2.040 -0.3112  0.7293 -0.1380
    4CHTO  H191 1347   6.892   8.865   1.951 -0.3725 -0.3139  0.5364
    4CHTO  C108 1348   6.794   8.906   2.130 -0.5012  0.3431 -0.4972
    4CHTO   O71 1349   6.679   8.950   2.056 -0.7249  0.0647 -0.1719
    4CHTO  H171 1350   6.683   8.908   1.972  0.6708  0.2663 -0.2254
    4CHTO   O62 1351   6.999   9.228   1.895  0.1942 -0.5083  0.3968
    4CHTO   C91 1352   6.908   9.270   1.796 -0.3300 -0.3219  0.1924
    4CHTO  H178 1353   6.875   9.184   1.738  0.8204 -0.2149 -0.6294
    4CHTO   C92 1354   6.990   9.354   1.696  0.5870 -0.6113  0.1012
    4CHTO  H179 1355   7.044   9.438   1.741 -2.2430  2.1963 -1.5975
    4CHTO   O66 1356   7.091   9.274   1.634 -0.3715  0.4014  0.0408
    4CHTO  H166 1357   7.059   9.231   1.557  1.5852 -0.5125 -0.2783
    4CHTO   C93 1358   6.903   9.418   1.576  0.3770 -1.2391  0.4602
    4CHTO  H180 1359   6.893   9.329   1.512  3.4686  0.1687 -2.0930
    4CHTO   N16 1360   6.972   9.529   1.504  0.1499  0.1045 -0.0167
    4CHTO  H172 1361   6.942   9.629   1.532  0.5716 -0.0113  0.8575
    4CHTO  H173 1362   7.079   9.523   1.504  0.2364  1.4673 -0.0173
    4CHTO   C94 1363   6.758   9.457   1.619  0.0080  0.6046 -0.3525
    4CHTO  H181 1364   6.757   9.547   1.680  1.3807 -0.3563  1.1228
    4CHTO   O61 1365   6.695   9.362   1.709 -0.2367  0.2359 -0.5382
    4CHTO   C95 1366   6.772   9.349   1.830 -0.3898 -0.0902  0.2995
    4CHTO  H182 1367   6.796   9.451   1.861 -1.5173  0.7630 -1.5024
    4CHTO  C106 1368   6.703   9.277   1.946 -0.2993  0.3078 -0.0130
    4CHTO   O69 1369   6.583   9.339   1.980  0.0937  0.3340  0.1662
    4CHTO  H169 1370   6.521   9.351   1.912  1.1762  0.4677 -0.8172
    4CHTO   O63 1371   6.663   9.482   1.469 -0.3880 -0.4338 -0.2259
    4CHTO   C96 1372   6.704   9.415   1.319 -0.2413 -0.2747 -0.3322
    4CHTO  H183 1373   6.795   9.354   1.325  0.3827  0.7792  1.2388
    4CHTO   C98 1374   6.705   9.519   1.203 -0.7406 -0.1546  0.1588
    4CHTO  H185 1375   6.603   9.557   1.187  0.5081  3.3332 -0.0747
    4CHTO   O67 1376   6.778   9.640   1.241  0.0601  0.3851  0.2056
    4CHTO  H167 1377   6.810   9.693   1.171  0.8633  0.1727  0.4062
    4CHTO  C102 1378   6.764   9.440   1.065 -0.0400  0.3141  0.4256
    4CHTO  H189 1379   6.873   9.434   1.076 -0.1739 -2.6163  0.7848
    4CHTO   N18 1380   6.737   9.514   0.945  0.3957  0.0917  0.2651
    4CHTO  H176 1381   6.633   9.520   0.918  0.1980 -2.2360  0.3805
    4CHTO  H177 1382   6.788   9.609   0.947 -0.1348  0.4564 -2.0016
    4CHTO  C105 1383   6.712   9.293   1.060  0.0163  0.4993 -0.3289
    4CHTO  H192 1384   6.691   9.264   0.957  0.9892  1.2010 -0.7230
    4CHTO   O65 1385   6.594   9.281   1.138  0.4058  0.0155  0.2029
    4CHTO  C100 1386   6.594   9.308   1.278  0.5141 -0.7375  0.6905
    4CHTO  H187 1387   6.494   9.343   1.306  0.0941 -2.7283  1.7801
    4CHTO  C107 1388   6.613   9.170   1.347 -0.3243 -0.0488  0.0669
    4CHTO   O70 1389   6.595   9.200   1.485  0.3748 -0.4130  0.0048
    4CHTO  H170 1390   6.506   9.183   1.509  0.2155  0.1974 -0.1539
    4CHTO   O57 1391   6.836   9.192   1.115 -0.3495  0.0985 -0.1510
    4CHTO   C85 1392   6.845   9.065   1.057  0.2683 -0.1153  0.4429
    4CHTO  H157 1393   6.744   9.053   1.013  0.3371  3.0097 -0.6658
    4CHTO   C83 1394   6.862   8.947   1.169  0.4918  0.3657  0.2241
    4CHTO  H155 1395   6.779   8.955   1.239 -0.4372 -2.6432 -0.4925
    4CHTO   O56 1396   6.988   8.960   1.236  0.2403  0.9046  0.0254
    4CHTO  H135 1397   7.042   8.884   1.230 -0.5316  0.5252 -2.6840
    4CHTO   C81 1398   6.853   8.809   1.100  0.0738  0.6466  0.2421
    4CHTO  H153 1399   6.759   8.804   1.045  0.1063 -1.8470  0.3597
    4CHTO   N14 1400   6.850   8.693   1.187  0.8047  0.2207 -0.4793
    4CHTO  H141 1401   6.848   8.722   1.290 -0.6452 -0.1454 -0.3912
    4CHTO  H142 1402   6.923   8.617   1.168  0.4989  0.2975 -2.0361
    4CHTO   C79 1403   6.965   8.801   0.991 -0.0755  0.4664  0.1597
    4CHTO  H151 1404   6.935   8.724   0.919 -0.5228  0.6912  0.1043
    4CHTO   O52 1405   6.955   8.905   0.901 -0.5689 -0.4988 -0.1590
    4CHTO   C86 1406   6.963   9.038   0.955  0.1973  0.0023 -0.0444
    4CHTO  H158 1407   7.060   9.044   1.008 -1.0707  0.0198  2.3431
    4CHTO   C90 1408   6.964   9.142   0.848 -0.0902 -0.7270 -0.2793
    4CHTO   O60 1409   7.088   9.136   0.779  0.1008 -0.2925 -1.3650
    4CHTO  H138 1410   7.132   9.218   0.767  0.0879 -0.0260  0.2840
    4CHTO   O50 1411   7.101   8.789   1.036 -0.2789 -0.3224  0.7426
    4CHTO   C73 1412   7.238   8.773   1.079  0.6036  0.0385  0.1427
    4CHTO  H145 1413   7.240   8.811   1.182 -1.4914 -0.8894  0.5538
    4CHTO   C74 1414   7.337   8.856   0.980 -0.2206 -0.0622 -0.5877
    4CHTO  H146 1415   7.301   8.960   0.971 -1.3666 -0.4691 -0.7740
    4CHTO   O54 1416   7.464   8.862   1.044  0.4048  0.7858 -0.0388
    4CHTO  H133 1417   7.464   8.900   1.130  1.0376 -2.9396  1.7609
    4CHTO   C75 1418   7.343   8.786   0.836  0.2627 -0.2621 -0.7226
    4CHTO  H147 1419   7.246   8.800   0.787 -1.2416 -1.5020  1.7549
    4CHTO   N13 1420   7.440   8.848   0.744 -0.8299  0.3609  0.1868
    4CHTO  H139 1421   7.406   8.945   0.711  0.3378  1.1186  1.1382
    4CHTO  H140 1422   7.536   8.868   0.789 -0.8987 -0.1082  0.5336
    4CHTO   C76 1423   7.362   8.629   0.849 -0.2426 -0.2887  1.1553
    4CHTO  H148 1424   7.461   8.618   0.894  0.0287  0.1069  0.6589
    4CHTO   O49 1425   7.264   8.579   0.941  0.3369 -0.2717  0.8073
    4CHTO   C77 1426   7.282   8.619   1.076  0.1036 -0.4857  0.5089
    4CHTO  H149 1427   7.386   8.611   1.109  0.2186  1.2938  0.6611
    4CHTO   C88 1428   7.205   8.526   1.175  0.0545 -0.2266 -0.3042
    4CHTO   O58 1429   7.267   8.383   1.146  0.3718  0.0497 -0.1747
    4CHTO  H136 1430   7.219   8.350   1.072  1.3479 -2.8140  0.4199
    4CHTO   O51 1431   7.345   8.552   0.708  0.3451  0.2819  0.2198
    4CHTO   C78 1432   7.489   8.505   0.634  0.3906  0.2112  0.4479
    4CHTO  H150 1433   7.571   8.576   0.659  0.9671 -0.1045 -0.5435
    4CHTO   C80 1434   7.454   8.510   0.483  1.0100 -0.3811 -0.2974
    4CHTO  H152 1435   7.354   8.464   0.477 -0.2299  2.1212  0.3180
    4CHTO   O55 1436   7.442   8.648   0.446  0.0112 -0.1168 -0.2281
    4CHTO  H134 1437   7.372   8.649   0.383 -0.5602  1.8002  0.3961
    4CHTO   C84 1438   7.555   8.427   0.388  0.6085  1.0170  0.4368
    4CHTO  H156 1439   7.649   8.481   0.403  0.5902  1.1243  0.1700
    4CHTO   N15 1440   7.521   8.419   0.247  0.3519 -0.5410 -0.0925
    4CHTO  H143 1441   7.596   8.465   0.186 -0.1817 -0.0929 -0.4225
    4CHTO  H144 1442   7.506   8.317   0.219 -1.2167 -0.1652 -0.6819
    4CHTO   C87 1443   7.578   8.283   0.450 -0.1219  0.6107  0.2157
    4CHTO  H159 1444   7.489   8.221   0.440  1.0614 -1.2848  1.1911
    4CHTO   O53 1445   7.623   8.308   0.593 -0.3724  0.1272 -0.4113
    4CHTO   C82 1446   7.528   8.361   0.681 -0.1484 -0.3326 -0.1362
    4CHTO  H154 1447   7.445   8.291   0.680  0.0516 -0.5759  0.4025
    4CHTO   C89 1448   7.577   8.370   0.828  0.5807 -0.3850 -0.3351
    4CHTO   O59 1449   7.630   8.254   0.886  0.2122  0.7852 -0.4255
    4CHTO  H137 1450   7.665   8.261   0.973 -0.0274  4.2269 -0.5226
    4CHTO   O45 1451   7.703   8.197   0.359  0.0655  0.4015  0.0924
    4CHTO   C67 1452   7.759   8.078   0.417  0.0344  0.1026 -0.1437
    4CHTO  H124 1453   7.791   8.012   0.336  0.9872 -0.5984  0.7947
    4CHTO   C65 1454   7.878   8.114   0.513 -0.7173  0.0091 -0.8161
    4CHTO  H122 1455   7.872   8.221   0.533 -1.0082 -0.4472  1.7954
    4CHTO   O44 1456   7.995   8.068   0.442  0.7091 -0.0341  0.4684
    4CHTO  H102 1457   8.076   8.082   0.487  1.0674  2.2709 -0.8608
    4CHTO   C63 1458   7.866   8.062   0.662  0.2692  0.4297 -0.3277
    4CHTO  H120 1459   7.779   8.110   0.707  0.5095 -0.2460  0.8451
    4CHTO   N11 1460   7.986   8.102   0.747  0.1129 -0.2324  0.6764
    4CHTO  H108 1461   8.064   8.139   0.683 -0.6091 -0.8340 -0.5727
    4CHTO  H109 1462   7.975   8.173   0.826 -3.0907  1.9603 -1.5871
    4CHTO   C61 1463   7.823   7.908   0.651 -0.8755  0.3583 -0.2031
    4CHTO  H118 1464   7.775   7.877   0.746 -2.4785  0.4255 -0.9773
    4CHTO   O40 1465   7.722   7.885   0.555  0.4527  0.6970  0.0057
    4CHTO   C68 1466   7.654   7.991   0.491  0.2281 -1.1555 -0.7409
    4CHTO  H125 1467   7.594   8.039   0.571 -0.2157 -0.0141 -1.7386
    4CHTO   C72 1468   7.555   7.924   0.398  0.2759 -0.0302  0.3642
    4CHTO   O48 1469   7.485   8.018   0.314 -0.5622  0.0093  0.2482
    4CHTO  H105 1470   7.551   8.058   0.260 -0.6814 -0.9648 -0.6326
    4CHTO   O38 1471   7.936   7.826   0.624  0.2628  0.4900 -0.0007
    4CHTO   C55 1472   7.933   7.689   0.677 -0.6142 -0.4444 -0.3126
    4CHTO  H112 1473   7.834   7.655   0.711 -1.4804  0.3292 -2.0170
    4CHTO   C56 1474   8.039   7.681   0.797 -0.2314  0.3914  0.1111
    4CHTO  H113 1475   8.130   7.733   0.764  1.0421 -1.2797  0.9113
    4CHTO   O42 1476   8.003   7.779   0.901 -0.0968 -0.3629 -0.1288
    4CHTO  H100 1477   8.067   7.784   0.969  1.3462  0.0258 -1.4902
    4CHTO   C57 1478   8.068   7.538   0.839 -0.0092  0.2281  0.6193
    4CHTO  H114 1479   7.978   7.505   0.890 -0.6938 -0.2832 -0.8794
    4CHTO   N10 1480   8.177   7.517   0.940  0.0228  0.0672  0.3940
    4CHTO  H106 1481   8.276   7.507   0.897  0.1934  4.0628 -0.3743
    4CHTO  H107 1482   8.180   7.598   1.011 -1.4022  0.1666  0.3540
    4CHTO   C58 1483   8.105   7.452   0.718  0.4418  0.7690 -0.2527
    4CHTO  H115 1484   8.198   7.495   0.675  1.1941 -0.6646 -0.0752
    4CHTO   O37 1485   8.005   7.465   0.613  0.1494 -0.6241 -0.4959
    4CHTO   C59 1486   7.973   7.595   0.557  0.1869  0.4433 -0.8805
    4CHTO  H116 1487   8.056   7.631   0.497  1.8540  0.6787  1.4988
    4CHTO   C70 1488   7.858   7.582   0.453 -0.0035 -0.3264 -0.3730
    4CHTO   O46 1489   7.736   7.536   0.508  0.1507 -0.3875  0.0332
    4CHTO  H103 1490   7.713   7.589   0.582  1.7576  0.8754 -0.3430
    4CHTO   O39 1491   8.130   7.279   0.760  0.3325 -0.6199 -0.9991
    4CHTO   C60 1492   8.012   7.199   0.781  0.2176  0.0571  0.5449
    4CHTO  H117 1493   7.952   7.245   0.859 -0.7004 -1.3099  0.6727
    4CHTO   C62 1494   7.914   7.182   0.660 -0.2675 -0.3305 -0.0642
    4CHTO  H119 1495   7.880   7.286   0.644 -0.3872 -0.0532  1.8628
    4CHTO   O43 1496   7.978   7.126   0.547  0.0416  0.0875  0.1553
    4CHTO  H101 1497   7.933   7.158   0.471 -1.2969  0.9249  1.2592
    4CHTO   C66 1498   7.779   7.099   0.695 -0.5401  0.3322 -0.0752
    4CHTO  H123 1499   7.724   7.139   0.781 -0.6305  2.3076 -1.0373
    4CHTO   N12 1500   7.682   7.094   0.582  0.3139 -0.0820 -0.2243
    4CHTO  H110 1501   7.664   6.992   0.553  2.1731 -1.3551  2.7994
    4CHTO  H111 1502   7.591   7.143   0.615 -0.5046 -1.3882 -0.5054
    4CHTO   C69 1503   7.815   6.952   0.746  0.2768 -0.4698  0.5968
    4CHTO  H126 1504   7.859   6.900   0.658 -0.0810 -1.3405  0.9298
    4CHTO   O41 1505   7.926   6.967   0.874  0.0449 -0.5066 -0.0042
    4CHTO   C64 1506   8.060   7.062   0.834 -0.2864  0.3009  0.1131
    4CHTO  H121 1507   8.133   7.019   0.762  1.0175  3.5953 -0.6223
    4CHTO   C71 1508   8.148   7.083   0.959 -0.0456 -0.6137  0.3026
    4CHTO   O47 1509   8.187   6.956   1.008 -0.0566 -0.2603 -0.0963
    4CHTO  H104 1510   8.110   6.923   1.052  0.2311 -1.1122 -0.2108
    4CHTO   O34 1511   7.682   6.874   0.802  0.1009 -0.2891  0.6251
    4CHTO   C49 1512   7.672   6.724   0.758  0.3276  0.1685 -0.0246
    4CHTO   H91 1513   7.777   6.694   0.761  0.1921 -0.5285 -1.7260
    4CHTO   C47 1514   7.601   6.694   0.629  0.1207  0.4016  0.4900
    4CHTO   H89 1515   7.665   6.743   0.553  1.3158  0.6199  1.6222
    4CHTO   O33 1516   7.467   6.754   0.631  0.4948 -0.0886  0.3483
    4CHTO   H70 1517   7.424   6.751   0.548 -0.8246  1.4813  0.9610
    4CHTO   C45 1518   7.577   6.532   0.606 -0.1338  0.1019  0.3997
    4CHTO   H87 1519   7.468   6.518   0.602 -0.0610 -0.1589 -1.3692
    4CHTO    N8 1520   7.636   6.497   0.473  0.1598  0.7096  0.3061
    4CHTO   H75 1521   7.560   6.502   0.397  1.1958 -0.7029 -0.8548
    4CHTO   H76 1522   7.719   6.560   0.444  0.4656 -0.3753 -1.2336
    4CHTO   C43 1523   7.622   6.446   0.726 -0.1924 -0.2348 -0.2618
    4CHTO   H85 1524   7.586   6.344   0.712 -0.3297 -0.7729  3.5646
    4CHTO   O29 1525   7.562   6.503   0.842  0.2780  0.6187  0.3617
    4CHTO   C50 1526   7.595   6.643   0.870 -0.3384 -0.5562  1.2906
    4CHTO   H92 1527   7.499   6.693   0.892 -0.7130  0.0979 -1.6961
    4CHTO   C54 1528   7.684   6.660   0.997  0.0800  0.2046  0.5223
    4CHTO   O36 1529   7.790   6.563   1.015  0.0258  0.1320  0.4481
    4CHTO   H72 1530   7.841   6.549   0.937  0.3754 -1.2636  0.9040
    4CHTO   O27 1531   7.760   6.432   0.748 -0.1067 -0.3560 -0.7849
    4CHTO   C37 1532   7.884   6.388   0.695 -0.7178  0.1149  1.0940
    4CHTO   H79 1533   7.883   6.336   0.598  1.3591 -0.2318  1.2460
    4CHTO   C38 1534   7.983   6.502   0.667  0.2841 -0.3499 -0.7182
    4CHTO   H80 1535   7.995   6.564   0.757  0.2506 -1.0615 -0.2236
    4CHTO   O31 1536   7.928   6.592   0.571 -0.0333  0.1921 -0.4046
    4CHTO   H68 1537   7.935   6.556   0.484 -0.7137  1.9807 -1.2263
    4CHTO   C39 1538   8.122   6.448   0.610 -0.1714 -0.0632 -0.0551
    4CHTO   H81 1539   8.103   6.400   0.514 -1.5004 -1.9687  1.1274
    4CHTO    N7 1540   8.228   6.549   0.599 -0.8509 -0.2321  0.2468
    4CHTO   H73 1541   8.264   6.561   0.498  1.0751 -2.1696  0.6630
    4CHTO   H74 1542   8.307   6.540   0.671 -0.6143 -0.4157 -0.0339
    4CHTO   C40 1543   8.179   6.328   0.706 -0.2875 -0.0385  0.9542
    4CHTO   H82 1544   8.222   6.361   0.800 -1.3960  2.4990  0.5959
    4CHTO   O26 1545   8.069   6.240   0.733 -0.6105  0.0911 -0.1145
    4CHTO   C41 1546   7.959   6.304   0.802 -0.0390  0.3614 -0.0512
    4CHTO   H83 1547   7.994   6.364   0.887 -0.5190  1.4566 -0.6058
    4CHTO   C52 1548   7.876   6.184   0.866  1.0137 -0.0462  0.0059
    4CHTO   O35 1549   7.785   6.232   0.964 -0.5743  0.3066  0.2384
    4CHTO   H71 1550   7.833   6.242   1.044  2.4686 -0.3546 -1.3917
    4CHTO   O28 1551   8.275   6.243   0.630  0.0391 -0.6091 -0.6364
    4CHTO   C42 1552   8.335   6.126   0.696 -0.0059 -0.2166 -0.4458
    4CHTO   H84 1553   8.409   6.098   0.621  0.2993  0.9592 -0.5872
    4CHTO   C44 1554   8.240   6.004   0.710  0.1442  0.3761  0.5386
    4CHTO   H86 1555   8.166   6.031   0.785  0.8514  1.9308  0.6926
    4CHTO   O32 1556   8.175   5.985   0.582  0.2596  0.2402  0.3548
    4CHTO   H69 1557   8.225   5.951   0.510  0.4138  0.8820  0.1557
    4CHTO   C48 1558   8.316   5.881   0.767 -0.0341  0.4044 -0.5568
    4CHTO   H90 1559   8.397   5.853   0.700  1.9587  3.3499  0.5507
    4CHTO    N9 1560   8.225   5.757   0.761 -0.4280  0.3471 -0.0510
    4CHTO   H77 1561   8.135   5.790   0.811 -0.6148 -1.1353  0.6464
    4CHTO   H78 1562   8.269   5.673   0.814 -0.4100 -0.5096 -1.4099
    4CHTO   C51 1563   8.363   5.922   0.912 -0.1551  0.3890 -0.2628
    4CHTO   H93 1564   8.270   5.940   0.966 -0.8468  0.3914 -1.4439
    4CHTO   O30 1565   8.436   6.040   0.894  0.5603 -0.0902  0.3707
    4CHTO   C46 1566   8.404   6.160   0.830  0.2828  0.3095  0.0775
    4CHTO   H88 1567   8.340   6.223   0.892  1.0902  2.7102 -1.4124
    4CHTO   C53 1568   8.531   6.240   0.811 -0.1885  0.2040  0.5522
    4CHTO   O72 1569   8.518   6.361   0.736  0.0133  0.1891  0.1553
    4CHTO  H199 1570   8.572   6.370   0.660 -1.6432  1.2725 -0.9241
    4CHTO   O22 1571   8.449   5.824   0.981  0.0429  0.7015  0.1984
    4CHTO   C31 1572   8.417   5.770   1.114 -0.0742 -0.3466  0.1194
    4CHTO   H59 1573   8.328   5.827   1.149  0.7749 -0.2950  2.2687
    4CHTO   C29 1574   8.384   5.620   1.117 -0.3761  0.2945  0.1806
    4CHTO   H57 1575   8.477   5.563   1.097 -1.2911 -1.3820  0.5922
    4CHTO   O21 1576   8.285   5.584   1.026  0.3717  0.4191  0.7629
    4CHTO   H37 1577   8.313   5.555   0.941  0.7469 -0.8203  1.3046
    4CHTO   C27 1578   8.338   5.582   1.265 -0.4527  0.7341 -0.4245
    4CHTO   H55 1579   8.240   5.629   1.283 -0.2615  0.4068  1.6060
    4CHTO    N5 1580   8.325   5.438   1.290  0.0789  0.2223 -0.0585
    4CHTO   H43 1581   8.224   5.400   1.284  0.1220  0.2733 -1.1769
    4CHTO   H44 1582   8.386   5.405   1.373 -0.3938  2.5536  1.2290
    4CHTO   C25 1583   8.439   5.645   1.363 -0.0020  0.3392  0.8908
    4CHTO   H53 1584   8.536   5.593   1.353  0.5962  1.8094 -1.1625
    4CHTO   O17 1585   8.473   5.785   1.345 -0.0739 -0.5240 -0.0795
    4CHTO   C32 1586   8.527   5.813   1.218 -0.0603 -0.5838 -0.6811
    4CHTO   H60 1587   8.614   5.750   1.197  0.3566  0.7048 -2.9539
    4CHTO   C36 1588   8.568   5.969   1.218 -0.4287 -0.2011  0.2390
    4CHTO   O25 1589   8.627   6.016   1.336 -0.4506  0.2184  0.3823
    4CHTO   H40 1590   8.697   6.075   1.316  0.9869 -0.9996  1.7645
    4CHTO   O15 1591   8.397   5.641   1.513  0.0146 -0.3492  0.3550
    4CHTO   C19 1592   8.356   5.720   1.621  0.5150  0.0842 -0.1476
    4CHTO   H47 1593   8.260   5.691   1.667  0.5045  2.2598  1.2579
    4CHTO   C20 1594   8.456   5.712   1.746  0.0402  1.1596  0.7138
    4CHTO   H48 1595   8.557   5.747   1.721 -0.0751 -0.3933 -2.2353
    4CHTO   O19 1596   8.464   5.569   1.784  0.1755  0.6303 -0.5400
    4CHTO   H35 1597   8.513   5.547   1.861  1.6499 -2.6866 -2.2888
    4CHTO   C21 1598   8.410   5.803   1.868 -0.3333  0.1710 -0.3543
    4CHTO   H49 1599   8.312   5.771   1.902  0.3661 -0.9895  0.6343
    4CHTO    N4 1600   8.498   5.783   1.983  0.7370  0.0931  0.0415
    4CHTO   H41 1601   8.475   5.688   2.028  2.4011 -0.0969  0.5296
    4CHTO   H42 1602   8.471   5.864   2.048 -0.3729 -0.2171 -0.0247
    4CHTO   C22 1603   8.388   5.953   1.820 -0.3981 -0.0695 -0.0442
    4CHTO   H50 1604   8.480   5.992   1.776 -0.3649 -0.1389 -0.0367
    4CHTO   O14 1605   8.294   5.948   1.714  0.0417  0.2328 -0.0516
    4CHTO   C23 1606   8.332   5.880   1.592  0.5853  0.7697  0.6405
    4CHTO   H51 1607   8.421   5.926   1.548  0.6763 -0.0872 -0.0738
    4CHTO   C34 1608   8.216   5.914   1.497  0.4997  0.2129 -0.1807
    4CHTO   O23 1609   8.261   6.007   1.407  0.3594  0.0235  0.1060
    4CHTO   H38 1610   8.258   6.093   1.444 -1.3961 -0.1682  0.4491
    4CHTO   O16 1611   8.338   6.036   1.928 -0.6242 -0.0109  0.2933
    4CHTO   C24 1612   8.332   6.194   1.855 -0.3287  0.2638 -0.1613
    4CHTO   H52 1613   8.337   6.196   1.746 -0.9823  1.0978 -0.1800
    4CHTO   C26 1614   8.451   6.272   1.911 -0.5062  0.9170  0.4378
    4CHTO   H54 1615   8.440   6.270   2.022 -0.3741  0.6349  0.4452
    4CHTO   O20 1616   8.573   6.199   1.888 -0.2530  0.0456  0.6222
    4CHTO   H36 1617   8.558   6.109   1.867  0.6150 -0.1123  0.6475
    4CHTO   C30 1618   8.455   6.414   1.852 -0.5599 -0.3099  0.1632
    4CHTO   H58 1619   8.470   6.413   1.743 -0.0863  1.7169  0.1814
    4CHTO    N6 1620   8.573   6.497   1.908  0.3010  0.5418  0.2229
    4CHTO   H45 1621   8.551   6.543   2.003 -0.4380  1.4830 -0.3980
    4CHTO   H46 1622   8.611   6.571   1.839  0.9564 -0.6616 -0.7303
    4CHTO   C33 1623   8.316   6.483   1.884 -0.0587 -0.4343 -0.0723
    4CHTO   H61 1624   8.307   6.494   1.993 -1.4366 -0.6969 -0.1364
    4CHTO   O18 1625   8.208   6.399   1.838  0.4303  0.2130  0.8526
    4CHTO   C28 1626   8.203   6.266   1.894  0.3355  0.0440 -0.1331
    4CHTO   H56 1627   8.196   6.273   2.002 -0.1476  1.0902 -0.2211
    4CHTO   C35 1628   8.088   6.182   1.836 -0.7219 -0.2003 -0.7380
    4CHTO   O24 1629   8.054   6.057   1.899  0.2605 -0.1809 -0.4944
    4CHTO   H39 1630   8.114   5.986   1.885 -0.8287 -1.4589  1.1615
    4CHTO    O9 1631   8.308   6.613   1.832  0.0933  0.0689 -0.3283
    4CHTO   C13 1632   8.180   6.695   1.852  0.7599  0.3720  0.1850
    4CHTO   H26 1633   8.089   6.631   1.853  1.6588 -0.9152  0.7465
    4CHTO   C11 1634   8.168   6.819   1.745 -0.1583 -0.1391  0.9605
    4CHTO   H24 1635   8.157   6.771   1.647 -0.2657 -0.0803  0.9435
    4CHTO    O8 1636   8.280   6.910   1.739  0.1047  0.2613 -0.5236
    4CHTO    H3 1637   8.325   6.928   1.820  1.2866 -1.0144 -0.8821
    4CHTO    C9 1638   8.032   6.894   1.777 -0.4969  0.6305  0.3824
    4CHTO   H22 1639   7.956   6.815   1.786 -1.1271  1.3201  1.1613
    4CHTO    N2 1640   7.994   6.985   1.669  0.3626 -0.1140 -0.1719
    4CHTO   H10 1641   8.085   7.037   1.642 -0.1167 -0.0348 -1.6780
    4CHTO   H11 1642   7.969   6.922   1.585  1.0719 -1.7970  0.8583
    4CHTO    C7 1643   8.046   6.956   1.922 -0.1590  0.2155 -0.1305
    4CHTO   H20 1644   7.939   6.980   1.940 -0.1519  0.4445 -0.3876
    4CHTO    O4 1645   8.075   6.858   2.022  0.0910 -0.2434 -0.0530
    4CHTO   C14 1646   8.175   6.757   1.997  0.1812 -0.2576  0.3486
    4CHTO   H27 1647   8.169   6.671   2.066  1.8113 -2.1734 -1.8299
    4CHTO   C18 1648   8.319   6.820   2.033  0.7630 -0.8635 -0.0732
    4CHTO   O13 1649   8.318   6.850   2.177 -0.2587  0.6918  0.0330
    4CHTO    H7 1650   8.399   6.883   2.211 -0.2255  1.6515 -0.9363
    4CHTO    O2 1651   8.155   7.071   1.927 -0.2290 -0.5592  0.5028
    4CHTO    C1 1652   8.112   7.206   1.956 -0.0971 -0.2186 -0.1110
    4CHTO   H14 1653   8.001   7.218   1.961 -0.2338 -0.4544 -2.3013
    4CHTO    C2 1654   8.168   7.318   1.856  0.0449  0.4788  0.0991
    4CHTO   H15 1655   8.275   7.297   1.853 -0.4001 -1.9879  0.5531
    4CHTO    O6 1656   8.104   7.291   1.733  0.0755  0.3817 -0.2271
    4CHTO    H1 1657   8.012   7.308   1.737 -0.1531 -1.0591  1.3091
    4CHTO    C3 1658   8.139   7.463   1.916  0.1341 -0.1164 -0.3641
    4CHTO   H16 1659   8.030   7.477   1.919 -0.0987 -1.4461 -1.9590
    4CHTO    N1 1660   8.197   7.559   1.822  0.7483  0.0715 -0.4979
    4CHTO    H8 1661   8.163   7.547   1.721  1.7732  0.1694 -0.8557
    4CHTO    H9 1662   8.181   7.658   1.862  0.6353 -1.0716  2.4444
    4CHTO    C4 1663   8.189   7.475   2.063  0.7076 -0.7560  0.0554
    4CHTO   H17 1664   8.297   7.460   2.064  0.6411 -1.2226  2.2275
    4CHTO    O1 1665   8.123   7.372   2.134  0.1692 -0.0075  0.6938
    4CHTO    C5 1666   8.153   7.238   2.100 -0.1247 -0.0081 -0.6937
    4CHTO   H18 1667   8.261   7.229   2.108 -0.2087 -0.4923 -0.0718
    4CHTO   C16 1668   8.092   7.138   2.205  0.3117 -0.2955  0.6931
    4CHTO   O11 1669   8.140   7.162   2.337  0.2602  0.0955  0.3415
    4CHTO    H5 1670   8.157   7.088   2.392  1.1974 -0.2619 -0.4116
    4CHTO    O3 1671   8.141   7.601   2.123 -0.0626  0.3601 -0.5985
    4CHTO    C6 1672   8.226   7.661   2.221 -0.7139  0.3301  0.1391
    4CHTO   H19 1673   8.296   7.589   2.264 -2.1435  0.1111  2.1674
    4CHTO    C8 1674   8.317   7.773   2.164 -0.5351 -0.9155  0.0614
    4CHTO   H21 1675   8.253   7.848   2.117  1.1680  1.2537  1.0914
    4CHTO    O7 1676   8.405   7.711   2.071  0.4467 -0.0335 -0.2841
    4CHTO    H2 1677   8.470   7.771   2.041 -0.9796  2.1645  0.8611
    4CHTO   C12 1678   8.393   7.858   2.280  0.2486  0.1099 -0.6584
    4CHTO   H25 1679   8.445   7.780   2.338 -2.2848 -1.8191 -0.9259
    4CHTO    N3 1680   8.486   7.961   2.222 -0.6958 -0.5675  0.1572
    4CHTO   H12 1681   8.505   7.944   2.117  0.6856  2.0910 -0.0627
    4CHTO   H13 1682   8.447   8.057   2.252 -0.8908 -0.6565  0.1852
    4CHTO   C15 1683   8.282   7.914   2.375 -0.2749  0.6960  0.3874
    4CHTO   H28 1684   8.226   7.992   2.323 -0.8840  0.2808  0.4090
    4CHTO   O10 1685   8.346   7.989   2.511  0.6794 -0.3199 -0.1747
    4CHTO    H4 1686   8.410   8.049   2.480  1.1960 -0.5340  0.4543
    4CHTO    O5 1687   8.210   7.802   2.430 -0.7089 -0.3634  0.4684
    4CHTO   C10 1688   8.140   7.711   2.341  0.1122 -0.3917 -0.1554
    4CHTO   H23 1689   8.054   7.768   2.305  0.7430  1.5754  1.3501
    4CHTO   C17 1690   8.087   7.606   2.441 -0.5118  0.3065  0.2494
    4CHTO   O12 1691   7.995   7.516   2.379 -0.2027  0.1157  0.0606
    4CHTO    H6 1692   7.978   7.443   2.436 -1.0374  1.6775  1.8752
    5CHTO  H203 1693   8.395   3.969   1.046 -0.8747  1.3885  0.8044
    5CHTO   O82 1694   8.395   3.966   1.139 -0.0689  0.2823  0.7711
    5CHTO  C123 1695   8.387   3.830   1.177 -0.0658  0.4890 -0.3993
    5CHTO  H227 1696   8.412   3.764   1.093  2.0632  1.8078 -0.8332
    5CHTO   O77 1697   8.486   3.812   1.283 -0.0675 -0.1269 -0.6684
    5CHTO  C118 1698   8.493   3.672   1.337  0.3840  0.3217 -0.2528
    5CHTO  H222 1699   8.515   3.608   1.251  1.4613  0.7655 -0.3142
    5CHTO  C125 1700   8.611   3.645   1.437 -0.0810  0.2247 -0.4755
    5CHTO   O84 1701   8.739   3.690   1.386 -0.0587 -0.4707 -0.4100
    5CHTO  H205 1702   8.793   3.613   1.378 -1.3255 -1.4922  0.5188
    5CHTO  C114 1703   8.361   3.631   1.399  0.6187  0.1795 -0.4656
    5CHTO  H218 1704   8.347   3.697   1.485 -3.4426 -0.5665 -0.4758
    5CHTO  C116 1705   8.242   3.649   1.297 -0.4198  0.7614 -0.3382
    5CHTO  H220 1706   8.247   3.568   1.221  0.9412  1.2049 -0.7368
    5CHTO   O79 1707   8.114   3.629   1.364 -0.0462 -0.3612 -0.1250
    5CHTO  H201 1708   8.130   3.565   1.431  1.4547  0.6277  0.4662
    5CHTO  C120 1709   8.242   3.792   1.236 -0.1587 -0.0196  0.1884
    5CHTO  H224 1710   8.226   3.859   1.322 -0.5385 -0.1609  0.2293
    5CHTO   N21 1711   8.133   3.815   1.136 -0.7709  0.7479 -0.3028
    5CHTO  H211 1712   8.049   3.862   1.184 -0.9485  1.9448 -1.7668
    5CHTO  H212 1713   8.108   3.714   1.108  0.9230 -0.1171  1.1627
    5CHTO   O75 1714   8.378   3.489   1.428  0.0515  0.3818  0.1889
    5CHTO  C112 1715   8.276   3.433   1.542  0.4514 -0.8505 -0.7695
    5CHTO  H216 1716   8.175   3.444   1.500 -0.6372 -3.9812  0.7881
    5CHTO   O73 1717   8.292   3.512   1.657 -0.1083 -0.3974  0.2144
    5CHTO  C113 1718   8.189   3.484   1.752 -0.4341 -0.1149 -0.9493
    5CHTO  H217 1719   8.098   3.500   1.691 -0.7032  2.0240 -0.0201
    5CHTO  C124 1720   8.200   3.598   1.856  0.6244  0.5322 -0.1339
    5CHTO   O83 1721   8.176   3.734   1.820 -0.0338 -0.5717  0.8557
    5CHTO  H204 1722   8.260   3.765   1.793  0.5395 -1.1654  1.9079
    5CHTO  C109 1723   8.214   3.346   1.808  0.1811 -0.2804  0.2115
    5CHTO  H213 1724   8.306   3.355   1.868 -0.3852  1.3660  0.8517
    5CHTO  C110 1725   8.228   3.235   1.700 -0.2927  0.0378 -0.2198
    5CHTO  H214 1726   8.126   3.221   1.662  0.1021  0.5585 -1.4984
    5CHTO   O78 1727   8.282   3.110   1.748 -0.1972 -0.0491 -0.6042
    5CHTO  H200 1728   8.274   3.104   1.841  0.5312  2.7564 -0.3171
    5CHTO  C111 1729   8.313   3.278   1.578 -0.0631 -0.3047 -0.6739
    5CHTO  H215 1730   8.420   3.270   1.601  0.2033  2.7139 -0.7080
    5CHTO   N19 1731   8.288   3.200   1.457  0.2086  0.3853  0.2859
    5CHTO  H207 1732   8.185   3.214   1.426 -0.0535 -1.6318  0.1497
    5CHTO  H208 1733   8.282   3.098   1.494  1.2667 -0.3337 -1.4781
    5CHTO   O74 1734   8.098   3.326   1.897 -0.0735 -0.7150 -0.6845
    5CHTO  C115 1735   8.143   3.247   2.035 -0.6771  0.0927  0.6968
    5CHTO  H219 1736   8.236   3.194   2.018 -0.3384  0.9640 -0.2763
    5CHTO   O76 1737   8.169   3.347   2.150 -0.6333  0.0013 -0.5685
    5CHTO  C122 1738   8.052   3.433   2.176 -0.0570 -0.3691  0.4999
    5CHTO  H226 1739   8.061   3.525   2.118 -1.4439 -0.3248  0.3418
    5CHTO  C126 1740   8.060   3.488   2.325 -0.8365  0.4611 -0.5375
    5CHTO   O85 1741   8.020   3.400   2.429 -0.0233 -0.1069 -0.3341
    5CHTO  H206 1742   8.101   3.372   2.467  0.9563  0.8249 -1.7111
    5CHTO  C121 1743   7.912   3.361   2.151 -0.1750 -0.9461 -0.4462
    5CHTO  H225 1744   7.843   3.402   2.227 -1.4085 -1.4558 -1.2799
    5CHTO   O81 1745   7.857   3.407   2.032 -0.0997  0.5609  0.3110
    5CHTO  H202 1746   7.855   3.501   2.021  1.0591  0.4360 -1.0508
    5CHTO  C119 1747   7.922   3.207   2.165  0.5797  0.6255  0.0700
    5CHTO  H223 1748   7.962   3.191   2.265  1.1588 -0.5092 -0.3366
    5CHTO  C117 1749   8.020   3.148   2.064 -0.0290 -0.0788  0.0584
    5CHTO  H221 1750   7.971   3.131   1.968  2.5574  0.3484 -1.3947
    5CHTO   N20 1751   8.066   3.012   2.104 -0.3294  0.0700  0.5283
    5CHTO  H209 1752   7.981   2.949   2.082 -0.7619  0.2681  1.5558
    5CHTO  H210 1753   8.086   3.010   2.210  0.4578 -2.5793  0.3541
    5CHTO   O80 1754   7.777   3.144   2.187 -0.0441  0.3534 -0.3744
    5CHTO  C103 1755   7.664   3.157   2.076 -0.5566  0.1090  0.0844
    5CHTO  H190 1756   7.660   3.251   2.021 -1.1529  0.0909  0.0922
    5CHTO  C101 1757   7.654   3.046   1.966  0.3754 -0.0401  0.1725
    5CHTO  H188 1758   7.670   2.951   2.018  1.6874 -1.4165 -2.6335
    5CHTO   O68 1759   7.776   3.070   1.841 -0.2804  0.2682  0.5582
    5CHTO  H168 1760   7.767   3.007   1.772 -1.1771 -0.2996  1.1799
    5CHTO   C99 1761   7.504   3.040   1.900 -0.5160 -0.0067  0.4225
    5CHTO  H186 1762   7.500   3.138   1.848  1.4871  0.7107  1.5226
    5CHTO   N17 1763   7.498   2.931   1.792  0.5981 -0.2140  0.1784
    5CHTO  H174 1764   7.561   2.847   1.819 -0.1918 -0.3690  1.6309
    5CHTO  H175 1765   7.518   2.971   1.694 -0.7333  0.3377  0.1128
    5CHTO   C97 1766   7.388   3.037   1.998  1.5422  0.1122  0.2661
    5CHTO  H184 1767   7.384   2.945   2.059 -0.8929  2.1826  3.3865
    5CHTO   O64 1768   7.409   3.157   2.086  0.3879 -0.2792  0.2448
    5CHTO  C104 1769   7.532   3.148   2.157  0.0854  0.1825  0.5606
    5CHTO  H191 1770   7.521   3.048   2.200 -2.0080  0.0527 -0.2704
    5CHTO  C108 1771   7.535   3.242   2.283  0.2427 -0.2424  0.4621
    5CHTO   O71 1772   7.517   3.382   2.240 -0.0330 -0.4132  0.0853
    5CHTO  H171 1773   7.426   3.397   2.223 -0.1509 -2.8420 -1.6096
    5CHTO   O62 1774   7.258   3.057   1.934 -0.4726 -0.0461 -0.2003
    5CHTO   C91 1775   7.138   3.044   2.016  0.1510  0.1826  0.4071
    5CHTO  H178 1776   7.175   3.023   2.116  2.5510 -0.6515 -0.6050
    5CHTO   C92 1777   7.094   2.898   1.965 -0.4007  0.8860  0.5216
    5CHTO  H179 1778   7.092   2.890   1.855 -2.4162 -0.4972  0.6297
    5CHTO   O66 1779   7.193   2.801   2.005 -0.0787 -0.3671 -0.6617
    5CHTO  H166 1780   7.205   2.798   2.098 -0.2083 -1.6876 -0.6794
    5CHTO   C93 1781   6.944   2.859   2.012  0.1382 -0.1611 -1.4701
    5CHTO  H180 1782   6.962   2.846   2.120  1.6464 -0.3975 -1.7334
    5CHTO   N16 1783   6.897   2.738   1.942  0.0788 -0.2573 -0.8532
    5CHTO  H172 1784   6.876   2.662   2.016 -1.6849  2.0699  1.1116
    5CHTO  H173 1785   6.814   2.772   1.882 -0.6545  0.2690  0.4467
    5CHTO   C94 1786   6.853   2.984   1.997  0.3826  0.0167  0.4078
    5CHTO  H181 1787   6.835   3.005   1.892 -2.3129 -0.7589  0.6620
    5CHTO   O61 1788   6.900   3.106   2.060  0.2953 -0.3195 -0.1983
    5CHTO   C95 1789   7.027   3.151   2.004  0.1138 -0.0708  0.7668
    5CHTO  H182 1790   7.008   3.175   1.900 -0.1397 -0.5602  0.6978
    5CHTO  C106 1791   7.074   3.283   2.062  0.5112 -0.5662 -0.3747
    5CHTO   O69 1792   7.165   3.348   1.974  0.1823 -0.0689  0.2565
    5CHTO  H169 1793   7.225   3.285   1.939 -0.3840 -1.3625  1.5780
    5CHTO   O63 1794   6.708   2.955   2.079  0.7047  0.8822  0.1148
    5CHTO   C96 1795   6.577   2.972   1.992 -0.0111  0.6113 -0.0455
    5CHTO  H183 1796   6.593   2.916   1.900  2.3085  1.7451 -0.3446
    5CHTO   C98 1797   6.528   3.119   1.962 -0.2746 -0.9708  0.5280
    5CHTO  H185 1798   6.509   3.174   2.055 -1.6851 -0.7479  0.1289
    5CHTO   O67 1799   6.630   3.194   1.894 -0.2898  0.3198 -0.0970
    5CHTO  H167 1800   6.637   3.284   1.918  0.2729  0.7922 -1.9578
    5CHTO  C102 1801   6.394   3.135   1.867 -0.0435 -0.4139  0.6772
    5CHTO  H189 1802   6.428   3.108   1.766 -1.7406  0.8606 -0.2542
    5CHTO   N18 1803   6.331   3.266   1.847 -0.0794  0.1896  0.4417
    5CHTO  H176 1804   6.357   3.312   1.753  0.7348 -0.5770  0.2937
    5CHTO  H177 1805   6.347   3.339   1.925 -1.3194  1.8049 -0.7669
    5CHTO  C105 1806   6.299   3.019   1.909  0.4296 -1.1877  0.7664
    5CHTO  H192 1807   6.198   3.058   1.918  0.2538 -1.2131 -0.8806
    5CHTO   O65 1808   6.323   2.944   2.031 -0.6724  0.2344 -0.3037
    5CHTO  C100 1809   6.457   2.897   2.066  0.0955  0.1728 -0.1278
    5CHTO  H187 1810   6.469   2.902   2.176 -0.1787  0.2150 -0.0977
    5CHTO  C107 1811   6.439   2.748   2.032  0.3852 -0.3446  0.7277
    5CHTO   O70 1812   6.533   2.660   2.094 -0.7347 -0.3167  0.3685
    5CHTO  H170 1813   6.558   2.599   2.027 -0.6178 -1.8390  1.7724
    5CHTO   O57 1814   6.290   2.928   1.764 -0.0530  0.0849  0.6828
    5CHTO   C85 1815   6.172   2.867   1.708 -0.2034 -0.0732  0.1401
    5CHTO  H157 1816   6.082   2.915   1.753 -1.3295 -1.0068 -1.0708
    5CHTO   C83 1817   6.170   2.716   1.744  0.5755 -0.6100  0.4352
    5CHTO  H155 1818   6.146   2.704   1.850 -1.8804  1.9631  0.2344
    5CHTO   O56 1819   6.296   2.645   1.719  0.3624 -0.0005 -0.1039
    5CHTO  H135 1820   6.293   2.554   1.740  2.1407 -0.0565 -0.0246
    5CHTO   C81 1821   6.043   2.668   1.666 -0.9175  0.5469  0.6540
    5CHTO  H153 1822   5.964   2.738   1.692 -2.2256 -0.9009  0.6593
    5CHTO   N14 1823   5.986   2.536   1.699  0.1972 -0.7917 -0.0986
    5CHTO  H141 1824   6.067   2.466   1.692  1.4984  0.7597 -0.9201
    5CHTO  H142 1825   5.941   2.533   1.796  0.4223  1.3066  0.0899
    5CHTO   C79 1826   6.066   2.674   1.513 -0.3659 -0.2799  0.2438
    5CHTO  H151 1827   5.982   2.627   1.463  1.0508 -0.9954 -1.5391
    5CHTO   O52 1828   6.068   2.817   1.479 -0.1164 -0.4796 -0.5301
    5CHTO   C86 1829   6.170   2.889   1.551 -0.2862 -0.3385  0.1818
    5CHTO  H158 1830   6.268   2.870   1.503  1.1130  2.0100  1.9928
    5CHTO   C90 1831   6.137   3.045   1.526  0.1081  0.7597 -0.4174
    5CHTO   O60 1832   6.224   3.083   1.415  0.0965 -0.3071  0.3253
    5CHTO  H138 1833   6.266   3.167   1.419  1.6093 -1.0378  0.3169
    5CHTO   O50 1834   6.187   2.615   1.457 -0.0562 -0.2026  0.7694
    5CHTO   C73 1835   6.228   2.556   1.333 -0.4528  0.4170  0.3300
    5CHTO  H145 1836   6.178   2.600   1.245  0.4764  1.2889  0.2365
    5CHTO   C74 1837   6.193   2.399   1.335  0.3906  0.3170  0.5094
    5CHTO  H146 1838   6.086   2.395   1.358  0.1755 -1.5786 -0.7768
    5CHTO   O54 1839   6.205   2.361   1.195 -0.5956  0.2747 -0.2616
    5CHTO  H133 1840   6.294   2.348   1.168 -0.9029 -0.7049 -0.8314
    5CHTO   C75 1841   6.277   2.337   1.448 -0.4709 -0.3688 -0.1113
    5CHTO  H147 1842   6.237   2.380   1.542 -0.9096 -0.0104 -0.4599
    5CHTO   N13 1843   6.251   2.192   1.457  0.2970 -0.0209 -0.6214
    5CHTO  H139 1844   6.280   2.138   1.368 -0.7197 -0.7069 -0.5421
    5CHTO  H140 1845   6.145   2.174   1.466  0.5729 -1.0458  0.9404
    5CHTO   C76 1846   6.430   2.372   1.434  0.3547 -0.4803  0.7025
    5CHTO  H148 1847   6.467   2.314   1.349  1.2468  0.3033  0.5439
    5CHTO   O49 1848   6.460   2.514   1.419  0.1733 -0.1326  0.1821
    5CHTO   C77 1849   6.389   2.578   1.306  0.6494  0.2274  0.4308
    5CHTO  H149 1850   6.417   2.539   1.208 -1.4785  0.8180 -0.4396
    5CHTO   C88 1851   6.425   2.723   1.301  0.4261 -0.1104  0.3084
    5CHTO   O58 1852   6.326   2.795   1.197 -0.2325  0.3833 -0.1269
    5CHTO  H136 1853   6.238   2.799   1.227 -0.3787  0.1944 -0.5273
    5CHTO   O51 1854   6.498   2.335   1.562 -0.0352  0.0101 -0.3253
    5CHTO   C78 1855   6.663   2.329   1.545 -0.3553 -0.4735  0.7762
    5CHTO  H150 1856   6.680   2.383   1.449 -1.9152 -0.6434  0.3974
    5CHTO   C80 1857   6.734   2.190   1.539  0.8126 -0.0291  0.0963
    5CHTO  H152 1858   6.707   2.132   1.630  1.3620 -2.0911 -1.0278
    5CHTO   O55 1859   6.671   2.128   1.428 -0.2237  0.4814 -0.4856
    5CHTO  H134 1860   6.697   2.161   1.344 -1.1175  0.3750 -0.8021
    5CHTO   C84 1861   6.887   2.208   1.529 -0.0078 -0.0137 -0.4748
    5CHTO  H156 1862   6.912   2.240   1.428  0.0600 -1.3170 -0.8792
    5CHTO   N15 1863   6.962   2.074   1.534  0.1801 -0.5092 -0.1761
    5CHTO  H143 1864   6.929   1.991   1.474  2.0614 -0.9207 -0.6750
    5CHTO  H144 1865   7.065   2.086   1.508 -0.2398  1.1542 -1.1161
    5CHTO   C87 1866   6.948   2.309   1.625 -0.9526  0.1548 -0.0168
    5CHTO  H159 1867   6.964   2.282   1.730 -1.4498 -0.9826 -0.2339
    5CHTO   O53 1868   6.868   2.433   1.605  0.4731  0.3135 -0.1743
    5CHTO   C82 1869   6.730   2.417   1.650  0.0878 -0.1510 -0.1306
    5CHTO  H154 1870   6.715   2.374   1.749  0.0998  1.2685  0.4979
    5CHTO   C89 1871   6.681   2.557   1.658 -0.5532 -0.4634 -0.1193
    5CHTO   O59 1872   6.560   2.554   1.728  0.2667 -0.3675 -0.1806
    5CHTO  H137 1873   6.565   2.572   1.820 -2.7715 -2.3125  0.4578
    5CHTO   O45 1874   7.103   2.345   1.570 -0.7575  0.0124 -0.5007
    5CHTO   C67 1875   7.205   2.361   1.677  0.3779  0.2415  0.3445
    5CHTO  H124 1876   7.149   2.372   1.769 -0.2809 -1.1112  0.1210
    5CHTO   C65 1877   7.309   2.245   1.690 -0.2471 -0.2197  0.1485
    5CHTO  H122 1878   7.309   2.208   1.588  1.1014  1.2015 -0.3792
    5CHTO   O44 1879   7.247   2.154   1.779  0.5909 -0.3407  0.1738
    5CHTO  H102 1880   7.171   2.119   1.738 -0.2317  0.9612  0.5494
    5CHTO   C63 1881   7.455   2.296   1.729  0.7884 -0.3226  0.0973
    5CHTO  H120 1882   7.505   2.324   1.637  0.6937 -0.7415 -0.0811
    5CHTO   N11 1883   7.554   2.187   1.766  0.9226  0.8802  0.0428
    5CHTO  H108 1884   7.558   2.177   1.873  2.5327 -1.8996 -0.2397
    5CHTO  H109 1885   7.648   2.234   1.746  1.0566  0.3262 -0.6324
    5CHTO   C61 1886   7.453   2.416   1.821 -0.1420  0.3775 -1.1114
    5CHTO  H118 1887   7.552   2.455   1.846  0.4170 -1.2455 -0.7332
    5CHTO   O40 1888   7.372   2.531   1.763 -0.0528 -0.4631 -0.0066
    5CHTO   C68 1889   7.274   2.500   1.660 -0.1095  0.0301 -0.2654
    5CHTO  H125 1890   7.330   2.523   1.567  0.9745 -1.0768  0.1015
    5CHTO   C72 1891   7.155   2.603   1.674  0.8522 -0.6099  0.3776
    5CHTO   O48 1892   7.181   2.742   1.688 -0.0115 -0.1318 -0.4182
    5CHTO  H105 1893   7.206   2.780   1.606 -0.9312  0.6594 -0.3409
    5CHTO   O38 1894   7.402   2.377   1.957 -0.8662  0.3749 -0.0243
    5CHTO   C55 1895   7.363   2.473   2.056 -0.0793 -0.0032 -0.5301
    5CHTO  H112 1896   7.297   2.548   2.010 -2.5098 -1.0443  1.1637
    5CHTO   C56 1897   7.488   2.535   2.141  0.5559 -0.8051  0.1583
    5CHTO  H113 1898   7.524   2.448   2.197 -1.1856 -1.8002 -0.2280
    5CHTO   O42 1899   7.593   2.587   2.059 -0.5347 -0.0562 -0.4553
    5CHTO  H100 1900   7.604   2.679   2.069  1.8964 -0.3429 -0.1648
    5CHTO   C57 1901   7.430   2.644   2.234 -0.0461 -0.4594  0.6844
    5CHTO  H114 1902   7.382   2.713   2.164  0.3344 -0.6000  0.2875
    5CHTO   N10 1903   7.525   2.710   2.328 -0.1207  0.8110  0.0005
    5CHTO  H106 1904   7.609   2.643   2.339 -0.6222 -0.6564 -4.0107
    5CHTO  H107 1905   7.566   2.804   2.295  0.6870  0.2108 -0.7619
    5CHTO   C58 1906   7.312   2.578   2.322 -0.5153  0.0250  0.2685
    5CHTO  H115 1907   7.358   2.500   2.386 -1.5188 -1.4037 -0.7357
    5CHTO   O37 1908   7.216   2.516   2.235  0.7326 -0.5464  0.4494
    5CHTO   C59 1909   7.264   2.405   2.154  0.0244 -0.4800  0.5604
    5CHTO  H116 1910   7.320   2.339   2.221  0.8586  0.5223  0.8557
    5CHTO   C70 1911   7.146   2.336   2.072 -0.5319 -0.0658  0.9053
    5CHTO   O46 1912   7.045   2.433   2.033 -0.6719 -0.2878  0.6665
    5CHTO  H103 1913   7.017   2.419   1.945  1.8087 -0.2965 -0.1549
    5CHTO   O39 1914   7.228   2.690   2.431 -0.0043  0.4319 -0.0229
    5CHTO   C60 1915   7.111   2.758   2.395  1.0264  0.0394 -0.7466
    5CHTO  H117 1916   7.110   2.761   2.286 -0.2637 -3.6284 -0.8894
    5CHTO   C62 1917   6.979   2.679   2.442 -0.5178 -0.4201 -0.3592
    5CHTO  H119 1918   6.990   2.582   2.388 -0.0023 -0.8552  0.5091
    5CHTO   O43 1919   6.979   2.646   2.582 -0.4744 -0.2031  0.9167
    5CHTO  H101 1920   7.005   2.723   2.629  0.2618  0.1721 -0.0872
    5CHTO   C66 1921   6.843   2.739   2.395 -0.4282  0.9084  0.1609
    5CHTO  H123 1922   6.850   2.752   2.287  1.3384 -2.4073 -0.1888
    5CHTO   N12 1923   6.726   2.648   2.411 -0.3094  0.9159  0.2528
    5CHTO  H110 1924   6.709   2.635   2.517  0.0861 -1.3251  0.0484
    5CHTO  H111 1925   6.639   2.692   2.365 -0.0472 -0.2215 -1.3444
    5CHTO   C69 1926   6.825   2.876   2.454  0.1153 -0.6003 -0.7393
    5CHTO  H126 1927   6.815   2.867   2.564  0.1171 -0.3338 -0.7164
    5CHTO   O41 1928   6.964   2.972   2.415 -0.2305 -0.5257 -0.2857
    5CHTO   C64 1929   7.105   2.906   2.449 -0.0859  0.1949  0.0202
    5CHTO  H121 1930   7.125   2.909   2.558 -1.0017 -1.4033  0.2504
    5CHTO   C71 1931   7.219   2.985   2.382 -0.3178 -0.1309  0.8946
    5CHTO   O47 1932   7.250   3.111   2.440  0.5680  0.3428 -0.2178
    5CHTO  H104 1933   7.219   3.183   2.389 -0.4857 -0.3979 -0.6471
    5CHTO   O34 1934   6.684   2.959   2.396  0.5278  0.1305  0.4644
    5CHTO   C49 1935   6.582   3.091   2.373  0.2925  0.5402  0.0250
    5CHTO   H91 1936   6.548   3.078   2.270  1.3271  0.0647 -0.2662
    5CHTO   C47 1937   6.663   3.220   2.400  0.2312  0.1163 -0.2698
    5CHTO   H89 1938   6.604   3.308   2.366  1.0878  1.8245  2.4441
    5CHTO   O33 1939   6.784   3.221   2.319  0.0524 -0.1301  0.1886
    5CHTO   H70 1940   6.793   3.294   2.260  0.9325 -1.1481 -0.9695
    5CHTO   C45 1941   6.690   3.239   2.562  0.6769 -0.5588  0.8325
    5CHTO   H87 1942   6.744   3.153   2.604 -0.8961 -1.8116  0.3258
    5CHTO    N8 1943   6.770   3.366   2.592 -0.0809 -0.3069  0.2895
    5CHTO   H75 1944   6.747   3.446   2.524 -0.1173  0.5216  1.2655
    5CHTO   H76 1945   6.876   3.346   2.589  0.0512  0.4197  0.0034
    5CHTO   C43 1946   6.553   3.237   2.643  0.2117  0.0625 -0.0617
    5CHTO   H85 1947   6.577   3.224   2.749  1.0096  0.3779 -0.2068
    5CHTO   O29 1948   6.459   3.131   2.597  0.1367  0.2838  0.3891
    5CHTO   C50 1949   6.456   3.087   2.461  0.4669 -1.1773  0.4329
    5CHTO   H92 1950   6.438   2.978   2.468 -2.4106 -0.6971  1.4502
    5CHTO   C54 1951   6.334   3.142   2.393 -0.0166  0.4016 -0.3262
    5CHTO   O36 1952   6.213   3.120   2.461  0.5508  0.1987  0.4677
    5CHTO   H72 1953   6.152   3.078   2.403  0.9496 -1.1332  0.9996
    5CHTO   O27 1954   6.476   3.355   2.629 -0.0567 -0.2931 -0.4786
    5CHTO   C37 1955   6.424   3.492   2.624  1.3632  0.2166  0.4122
    5CHTO   H79 1956   6.479   3.557   2.554  1.1560 -0.7375 -0.6552
    5CHTO   C38 1957   6.278   3.485   2.568 -0.2976  0.2076 -0.1628
    5CHTO   H80 1958   6.223   3.405   2.620 -0.2434  0.6384  0.5656
    5CHTO   O31 1959   6.283   3.462   2.427  0.1747  0.3344  0.0201
    5CHTO   H68 1960   6.353   3.512   2.390  1.5440 -2.8432 -1.9066
    5CHTO   C39 1961   6.194   3.619   2.593  0.6003 -0.0304 -0.3294
    5CHTO   H81 1962   6.236   3.695   2.527  1.9500 -0.1906  0.3086
    5CHTO    N7 1963   6.046   3.610   2.548 -0.7388 -0.4042  0.2540
    5CHTO   H73 1964   5.987   3.619   2.638 -0.7268  0.3744  0.1915
    5CHTO   H74 1965   6.019   3.690   2.480  0.6886  0.9396  1.2262
    5CHTO   C40 1966   6.211   3.660   2.746 -0.1756 -0.1868  0.5485
    5CHTO   H82 1967   6.163   3.582   2.805 -0.4150 -0.0584  0.5242
    5CHTO   O26 1968   6.345   3.672   2.782 -0.2448 -0.4475 -0.8956
    5CHTO   C41 1969   6.430   3.558   2.766 -0.8875  0.2471  0.5526
    5CHTO   H83 1970   6.406   3.476   2.835  1.4554  0.6243  1.8799
    5CHTO   C52 1971   6.565   3.624   2.801  0.7118  0.1368 -0.7088
    5CHTO   O35 1972   6.655   3.521   2.883 -0.1143  0.3474 -0.0844
    5CHTO   H71 1973   6.733   3.500   2.835 -0.5342 -0.3577 -0.4590
    5CHTO   O28 1974   6.146   3.780   2.782  0.0354  0.1753  1.2717
    5CHTO   C42 1975   6.112   3.818   2.921  0.5971  0.1815 -0.0852
    5CHTO   H84 1976   6.070   3.917   2.901  0.7385  0.3598  0.5091
    5CHTO   C44 1977   6.237   3.842   3.019 -0.0380  0.1477  0.0461
    5CHTO   H86 1978   6.325   3.836   2.956 -1.0816  0.6486 -1.4886
    5CHTO   O32 1979   6.232   3.979   3.065 -0.0433  0.3345  0.5474
    5CHTO   H69 1980   6.291   4.039   3.023 -0.4343  0.8630  0.7359
    5CHTO   C48 1981   6.257   3.743   3.144 -0.0849 -0.0933 -0.5157
    5CHTO   H90 1982   6.196   3.775   3.229  0.3945 -2.4712  0.7637
    5CHTO    N9 1983   6.401   3.752   3.187  0.0044 -0.4775 -0.1371
    5CHTO   H77 1984   6.402   3.693   3.277 -0.8850 -0.7030 -0.2745
    5CHTO   H78 1985   6.471   3.730   3.108 -1.4719 -0.0241 -1.5959
    5CHTO   C51 1986   6.209   3.601   3.094  1.0545 -1.0724  0.3567
    5CHTO   H93 1987   6.268   3.575   3.007  0.9605  1.4735 -0.5119
    5CHTO   O30 1988   6.065   3.603   3.064  0.5828  0.7131  0.5803
    5CHTO   C46 1989   6.002   3.734   2.988 -0.2051  0.1419  0.1639
    5CHTO   H88 1990   5.946   3.685   2.908  0.5956  0.5942 -0.6868
    5CHTO   C53 1991   5.902   3.818   3.078 -0.0166 -0.4275 -0.0492
    5CHTO   O72 1992   5.951   3.865   3.203 -0.1001  0.1253 -0.6085
    5CHTO  H199 1993   6.034   3.904   3.185  0.6931 -1.3277 -0.1866
    5CHTO   O22 1994   6.218   3.498   3.196 -0.1776 -0.0356 -0.1921
    5CHTO   C31 1995   6.266   3.362   3.160  0.6090 -0.0254  0.1361
    5CHTO   H59 1996   6.223   3.294   3.237  0.9354 -0.1655  0.1950
    5CHTO   C29 1997   6.205   3.304   3.029  0.0271 -0.3769 -0.1906
    5CHTO   H57 1998   6.218   3.376   2.947  0.1655  0.7927  0.8465
    5CHTO   O21 1999   6.058   3.296   3.035  0.1100 -0.2030  0.1534
    5CHTO   H37 2000   6.019   3.283   2.950  1.0593 -0.1852 -0.2866
    5CHTO   C27 2001   6.272   3.168   2.994  0.2448  0.3288 -0.1564
    5CHTO   H55 2002   6.238   3.092   3.065 -0.4061  0.9933  0.2478
    5CHTO    N5 2003   6.240   3.123   2.859 -0.1481 -0.2501  0.2611
    5CHTO   H43 2004   6.242   3.015   2.860 -1.1374 -0.2715  0.8067
    5CHTO   H44 2005   6.309   3.169   2.790 -0.9685  1.0833  0.3111
    5CHTO   C25 2006   6.426   3.190   3.003  0.1621 -0.6257 -0.8939
    5CHTO   H53 2007   6.449   3.272   2.934  0.9736 -1.9280 -2.2225
    5CHTO   O17 2008   6.455   3.217   3.146  0.3770  0.2035  0.0200
    5CHTO   C32 2009   6.420   3.347   3.182  0.0004 -0.5174 -0.1294
    5CHTO   H60 2010   6.476   3.413   3.115 -1.6499  0.1313 -0.8775
    5CHTO   C36 2011   6.481   3.376   3.319 -0.1371 -0.2814 -0.0068
    5CHTO   O25 2012   6.436   3.272   3.404  0.1911  0.2234  0.2494
    5CHTO   H40 2013   6.449   3.299   3.493  0.5568  1.2494 -0.1042
    5CHTO   O15 2014   6.519   3.089   2.981 -0.0964 -0.0117  0.1228
    5CHTO   C19 2015   6.578   2.961   3.011  0.4799 -0.0356  0.3072
    5CHTO   H47 2016   6.605   2.971   3.117 -0.3088 -1.2601  0.6431
    5CHTO   C20 2017   6.495   2.824   2.999 -0.3442 -0.0543 -0.0871
    5CHTO   H48 2018   6.480   2.791   2.895  0.0059 -1.0382  0.1636
    5CHTO   O19 2019   6.363   2.842   3.060 -0.2886 -0.0454  0.2488
    5CHTO   H35 2020   6.307   2.884   2.998 -0.2186 -0.8842 -0.3993
    5CHTO   C21 2021   6.589   2.711   3.064  0.2714 -0.0706 -0.1889
    5CHTO   H49 2022   6.625   2.744   3.161  1.9574 -2.7898  0.1644
    5CHTO    N4 2023   6.522   2.583   3.093 -0.2999 -0.4747  0.1348
    5CHTO   H41 2024   6.485   2.535   3.003  1.0399  0.4412 -0.9376
    5CHTO   H42 2025   6.593   2.516   3.138 -1.7172 -2.5730 -0.6846
    5CHTO   C22 2026   6.724   2.703   2.983  0.7100  0.8573 -0.3206
    5CHTO   H50 2027   6.707   2.674   2.879 -1.9316 -0.8994  0.5509
    5CHTO   O14 2028   6.789   2.828   2.985 -0.0719  0.1899 -0.3309
    5CHTO   C23 2029   6.706   2.929   2.925 -0.4048 -0.2840  0.4592
    5CHTO   H51 2030   6.680   2.894   2.824  0.9341  1.5363 -0.5359
    5CHTO   C34 2031   6.786   3.056   2.900  0.3129  0.2441  0.1908
    5CHTO   O23 2032   6.889   3.030   2.808  0.6124 -0.2094 -0.3989
    5CHTO   H38 2033   6.960   3.089   2.824 -0.0738  0.5191 -0.0404
    5CHTO   O16 2034   6.816   2.610   3.048  0.0986  0.0544 -0.3593
    5CHTO   C24 2035   6.894   2.511   2.944 -0.4367 -0.3729 -0.9434
    5CHTO   H52 2036   6.869   2.538   2.842  0.1322  0.0200 -0.9853
    5CHTO   C26 2037   6.847   2.367   2.978  0.1624  0.5322 -0.2070
    5CHTO   H54 2038   6.863   2.349   3.086  0.2012 -1.2191 -0.4959
    5CHTO   O20 2039   6.709   2.363   2.938  0.0513 -0.3190  0.6917
    5CHTO   H36 2040   6.651   2.433   2.962  0.5848  0.9002 -1.4663
    5CHTO   C30 2041   6.928   2.263   2.906 -0.9621 -0.1120 -0.6072
    5CHTO   H58 2042   6.918   2.264   2.797 -1.1251  0.4679 -0.5869
    5CHTO    N6 2043   6.898   2.124   2.946  0.3861  1.3562 -0.1536
    5CHTO   H45 2044   6.795   2.112   2.976  1.1072 -1.0767  1.5525
    5CHTO   H46 2045   6.952   2.115   3.039  1.1593  1.1884 -0.6126
    5CHTO   C33 2046   7.082   2.292   2.931  0.0621 -0.0759 -0.2948
    5CHTO   H61 2047   7.099   2.282   3.039  0.8025  1.6703 -0.2213
    5CHTO   O18 2048   7.115   2.430   2.894 -0.0406  0.5686 -0.1590
    5CHTO   C28 2049   7.047   2.539   2.955 -0.1206 -0.6869  0.1010
    5CHTO   H56 2050   7.074   2.535   3.061  1.5572  1.6579 -0.1935
    5CHTO   C35 2051   7.107   2.673   2.898  0.6058  0.5336 -0.2140
    5CHTO   O24 2052   7.050   2.785   2.969 -0.5003  0.4084 -0.5247
    5CHTO   H39 2053   7.109   2.856   2.950  0.1925 -0.2935 -1.0413
    5CHTO    O9 2054   7.173   2.197   2.866 -0.7675 -0.1827 -0.4346
    5CHTO   C13 2055   7.160   2.176   2.713  0.2085  0.1122  0.3887
    5CHTO   H26 2056   7.052   2.174   2.691  0.4769  3.7734 -1.6373
    5CHTO   C11 2057   7.227   2.043   2.666  0.0040  0.2242 -0.2688
    5CHTO   H24 2058   7.166   1.960   2.705  0.8508 -0.0031  0.5971
    5CHTO    O8 2059   7.357   2.030   2.729 -0.4673  0.3396 -0.1024
    5CHTO    H3 2060   7.433   2.059   2.682  0.2582  0.1686  0.9357
    5CHTO    C9 2061   7.217   2.038   2.516  0.1870 -0.1954  0.2035
    5CHTO   H22 2062   7.110   2.050   2.493  0.2296 -2.2634 -1.2844
    5CHTO    N2 2063   7.246   1.905   2.456 -0.4193 -0.0133 -0.5340
    5CHTO   H10 2064   7.162   1.880   2.393  1.8380  0.3175 -3.7811
    5CHTO   H11 2065   7.342   1.907   2.406 -0.1269  3.0341  0.0368
    5CHTO    C7 2066   7.295   2.152   2.453  0.1950 -0.3899 -0.2775
    5CHTO   H20 2067   7.269   2.139   2.346 -1.0590  0.3898 -0.0797
    5CHTO    O4 2068   7.243   2.277   2.498 -0.0387 -0.0544  0.6620
    5CHTO   C14 2069   7.230   2.300   2.639 -0.5282  0.7141  1.1171
    5CHTO   H27 2070   7.161   2.387   2.633 -0.2904  0.7403 -1.6500
    5CHTO   C18 2071   7.362   2.349   2.699 -0.0488  0.3187 -0.3815
    5CHTO   O13 2072   7.386   2.481   2.662 -0.7148  0.1163 -0.0277
    5CHTO    H7 2073   7.320   2.540   2.692 -1.0392  0.1157 -0.7501
    5CHTO    O2 2074   7.444   2.151   2.480 -0.1539  0.7306 -0.5185
    5CHTO    C1 2075   7.529   2.203   2.378  0.5719 -0.5272 -0.0293
    5CHTO   H14 2076   7.487   2.301   2.349  2.1636  0.2569  0.2247
    5CHTO    C2 2077   7.546   2.105   2.255 -0.1898  0.4117  0.2692
    5CHTO   H15 2078   7.555   2.006   2.304  0.0157  0.3660  0.1427
    5CHTO    O6 2079   7.435   2.117   2.174  0.3141 -0.4916  0.3847
    5CHTO    H1 2080   7.367   2.054   2.189 -0.0363 -0.8438 -2.3268
    5CHTO    C3 2081   7.677   2.132   2.164  0.7646 -0.3535  0.4756
    5CHTO   H16 2082   7.646   2.208   2.091  0.3675 -0.9386  0.0255
    5CHTO    N1 2083   7.726   2.012   2.082  0.1161 -0.4652  0.1447
    5CHTO    H8 2084   7.658   1.927   2.081  0.9940 -1.1735  0.4084
    5CHTO    H9 2085   7.757   2.046   1.984 -1.4278  0.8489  0.0828
    5CHTO    C4 2086   7.797   2.194   2.242  0.6409 -0.9199 -0.3251
    5CHTO   H17 2087   7.861   2.120   2.290  1.0998 -0.4778 -0.2491
    5CHTO    O1 2088   7.744   2.290   2.330 -0.0193  0.5069 -0.7304
    5CHTO    C5 2089   7.664   2.241   2.437 -0.9319  0.1513 -0.3856
    5CHTO   H18 2090   7.713   2.153   2.478 -1.3044 -0.2576 -0.8056
    5CHTO   C16 2091   7.663   2.350   2.542 -0.2584 -0.4611  0.7340
    5CHTO   O11 2092   7.783   2.370   2.620 -0.0170 -0.0468 -0.2409
    5CHTO    H5 2093   7.797   2.288   2.662  1.9298  0.5282  0.2557
    5CHTO    O3 2094   7.880   2.278   2.162  0.1024  0.0237 -0.2915
    5CHTO    C6 2095   8.010   2.306   2.224  0.1685  0.6799 -0.1442
    5CHTO   H19 2096   8.034   2.271   2.325  1.8387  1.3295 -0.3101
    5CHTO    C8 2097   8.122   2.239   2.134 -0.1274 -0.2030 -0.3495
    5CHTO   H21 2098   8.112   2.276   2.032 -1.5543  0.2448 -0.0679
    5CHTO    O7 2099   8.087   2.098   2.136  0.1256 -0.4307  0.1918
    5CHTO    H2 2100   8.117   2.053   2.213  0.1006  0.0104  0.4587
    5CHTO   C12 2101   8.270   2.261   2.193 -0.8318  0.2657  0.3422
    5CHTO   H25 2102   8.277   2.215   2.294  0.6620 -4.2179 -1.6932
    5CHTO    N3 2103   8.369   2.199   2.102  0.1026  0.0497 -0.3789
    5CHTO   H12 2104   8.468   2.226   2.133 -0.3391 -0.2727  1.3436
    5CHTO   H13 2105   8.355   2.231   1.999 -0.7825 -1.0265 -0.6043
    5CHTO   C15 2106   8.288   2.416   2.208 -0.0567  0.1517 -0.3728
    5CHTO   H28 2107   8.306   2.460   2.110 -0.9547  0.4597 -0.4035
    5CHTO   O10 2108   8.404   2.442   2.303  0.4883  0.1423  0.3509
    5CHTO    H4 2109   8.463   2.373   2.326 -1.0647 -0.1141  3.7571
    5CHTO    O5 2110   8.180   2.481   2.278 -0.1823  0.0845 -0.1562
    5CHTO   C10 2111   8.049   2.461   2.217 -0.2138 -0.8753  0.2298
    5CHTO   H23 2112   8.058   2.494   2.114  1.1144 -2.3803 -0.1428
    5CHTO   C17 2113   7.953   2.552   2.287 -0.2365 -0.0059 -0.0357
    5CHTO   O12 2114   7.865   2.633   2.205 -0.1649  0.1887  0.7517
    5CHTO    H6 2115   7.912   2.705   2.167  0.6547 -0.6183  0.1863
    6CHTO  H203 2116   7.833   4.667   0.498  1.0785  0.6134  3.7419
    6CHTO   O82 2117   7.862   4.753   0.475 -0.1221  0.1789  0.3189
    6CHTO  C123 2118   7.741   4.839   0.475 -0.5136 -0.1027 -0.3334
    6CHTO  H227 2119   7.764   4.934   0.424 -0.5690  0.2412  0.2820
    6CHTO   O77 2120   7.644   4.770   0.393  0.0006  0.7394  0.1401
    6CHTO  C118 2121   7.533   4.852   0.365 -0.2403  0.2435  0.3975
    6CHTO  H222 2122   7.563   4.946   0.316 -3.6462  1.3227  0.3128
    6CHTO  C125 2123   7.450   4.764   0.258  0.1006 -0.3083 -0.6073
    6CHTO   O84 2124   7.369   4.850   0.174  0.6514  0.3177 -0.2466
    6CHTO  H205 2125   7.289   4.802   0.164  0.8466 -0.0065 -0.2655
    6CHTO  C114 2126   7.448   4.881   0.491  0.2701 -0.4801 -0.1328
    6CHTO  H218 2127   7.400   4.789   0.525 -0.9908  0.7200  1.3814
    6CHTO  C116 2128   7.543   4.936   0.607  0.4040 -0.8124  0.1804
    6CHTO  H220 2129   7.560   5.044   0.585 -0.3215 -0.6734  0.3077
    6CHTO   O79 2130   7.475   4.942   0.730 -0.2416 -0.3460 -0.4197
    6CHTO  H201 2131   7.426   5.021   0.744 -0.1154 -0.7433  2.4213
    6CHTO  C120 2132   7.684   4.863   0.621  0.7125  0.1776 -0.3711
    6CHTO  H224 2133   7.661   4.766   0.669  0.6299 -0.1128 -0.9930
    6CHTO   N21 2134   7.785   4.932   0.709  0.3931  0.1765  0.2851
    6CHTO  H211 2135   7.773   5.039   0.713 -1.0970 -0.0167  1.5974
    6CHTO  H212 2136   7.769   4.890   0.808 -1.1136  0.8706  0.3511
    6CHTO   O75 2137   7.334   4.959   0.451 -0.0425  0.2615 -0.6395
    6CHTO  C112 2138   7.209   4.992   0.549 -0.0919  0.2570  0.2864
    6CHTO  H216 2139   7.248   5.003   0.652 -0.5094  0.5197  0.4177
    6CHTO   O73 2140   7.122   4.880   0.538  0.7728  0.1747  1.3644
    6CHTO  C113 2141   6.986   4.894   0.585  0.1484 -0.3125  0.4981
    6CHTO  H217 2142   6.980   4.895   0.696 -1.6959  0.7241  0.4191
    6CHTO  C124 2143   6.906   4.764   0.558 -0.9955  0.6605 -0.3367
    6CHTO   O83 2144   6.954   4.665   0.653  0.0084 -0.4463 -0.2378
    6CHTO  H204 2145   6.911   4.582   0.641  1.8584 -1.1484 -2.1842
    6CHTO  C109 2146   6.908   5.015   0.524 -0.0466 -0.5650  0.1608
    6CHTO  H213 2147   6.905   4.998   0.415 -1.6270  2.3383 -0.2932
    6CHTO  C110 2148   7.001   5.142   0.543 -0.8630  0.8750  0.3856
    6CHTO  H214 2149   7.014   5.167   0.648  0.7218 -3.3563  1.2783
    6CHTO   O78 2150   6.936   5.248   0.481 -0.4055  0.0704  0.2661
    6CHTO  H200 2151   6.993   5.321   0.492 -0.8046  0.4370 -0.0710
    6CHTO  C111 2152   7.145   5.123   0.486  0.0254 -0.5282 -0.0896
    6CHTO  H215 2153   7.146   5.113   0.377 -1.4915  0.8893 -0.2387
    6CHTO   N19 2154   7.233   5.238   0.522 -0.2388 -0.6759 -0.4306
    6CHTO  H207 2155   7.167   5.323   0.527  1.3686  0.5822 -0.0064
    6CHTO  H208 2156   7.287   5.263   0.432 -2.8928  3.4934 -1.0326
    6CHTO   O74 2157   6.781   5.042   0.572  0.2368  0.3427  0.5376
    6CHTO  C115 2158   6.751   5.046   0.724  0.2572 -0.0339  0.3954
    6CHTO  H219 2159   6.838   5.021   0.785  0.8835  0.5523 -0.2463
    6CHTO   O76 2160   6.706   5.197   0.773 -0.1556  0.1261  0.5140
    6CHTO  C122 2161   6.586   5.220   0.703  0.3646 -0.3895  0.3693
    6CHTO  H226 2162   6.610   5.213   0.596 -0.6541 -1.4804  0.2062
    6CHTO  C126 2163   6.572   5.367   0.721  0.0988 -0.2644  0.0031
    6CHTO   O85 2164   6.462   5.420   0.645  0.1293 -0.1583  0.5622
    6CHTO  H206 2165   6.384   5.434   0.694 -1.3873  3.1815 -2.5918
    6CHTO  C121 2166   6.458   5.141   0.737  0.2527  1.0865 -0.9529
    6CHTO  H225 2167   6.392   5.188   0.813 -0.1074 -1.1384  0.1632
    6CHTO   O81 2168   6.378   5.120   0.622  0.6845 -0.2530  0.3094
    6CHTO  H202 2169   6.345   5.199   0.584 -0.4442 -0.8800 -0.0325
    6CHTO  C119 2170   6.500   4.999   0.795 -0.0421 -0.5056  0.0302
    6CHTO  H223 2171   6.516   5.020   0.901 -1.5151  1.2473 -0.0782
    6CHTO  C117 2172   6.633   4.946   0.742 -0.1605  0.2444 -0.2987
    6CHTO  H221 2173   6.619   4.900   0.644  0.7416  1.0407 -0.8151
    6CHTO   N20 2174   6.686   4.834   0.827  0.0147  0.1239 -0.2353
    6CHTO  H209 2175   6.621   4.748   0.827 -1.5464  1.2820  0.8718
    6CHTO  H210 2176   6.695   4.866   0.930 -0.3113 -2.8175  0.7698
    6CHTO   O80 2177   6.373   4.880   0.807  0.5483  0.5846 -0.7434
    6CHTO  C103 2178   6.318   4.836   0.956  0.0361  0.3008  0.3189
    6CHTO  H190 2179   6.399   4.805   1.022 -1.2077 -0.0012  1.7306
    6CHTO  C101 2180   6.239   4.942   1.038 -0.2807 -0.3968 -0.0783
    6CHTO  H188 2181   6.163   4.992   0.978  0.7316  0.0483 -1.0176
    6CHTO   O68 2182   6.331   5.053   1.072  0.1856 -0.1042 -0.1072
    6CHTO  H168 2183   6.363   5.085   0.991 -1.1110 -3.6506 -2.1455
    6CHTO   C99 2184   6.186   4.887   1.172 -0.2468 -0.2608  0.2235
    6CHTO  H186 2185   6.270   4.850   1.233 -0.3774 -1.7322 -0.4745
    6CHTO   N17 2186   6.102   4.976   1.254 -0.6896  0.5238 -0.1459
    6CHTO  H174 2187   6.090   4.920   1.345 -0.0633 -1.2405 -1.1189
    6CHTO  H175 2188   6.142   5.076   1.266  0.8616  0.2047 -2.2912
    6CHTO   C97 2189   6.112   4.754   1.129  0.3200 -0.2846  0.0732
    6CHTO  H184 2190   6.030   4.785   1.063  0.2576 -3.0521 -1.1925
    6CHTO   O64 2191   6.195   4.654   1.062 -0.0400 -0.3946 -0.1126
    6CHTO  C104 2192   6.232   4.703   0.933  0.5896  0.5227  0.0808
    6CHTO  H191 2193   6.144   4.732   0.876 -0.7285 -1.4498  1.0369
    6CHTO  C108 2194   6.301   4.590   0.857  0.1125 -0.4559  0.2609
    6CHTO   O71 2195   6.207   4.485   0.828 -0.1812  0.0245 -0.0540
    6CHTO  H171 2196   6.187   4.460   0.740 -1.5226 -0.8143  0.4656
    6CHTO   O62 2197   6.057   4.696   1.250  0.4841 -0.1477  0.1633
    6CHTO   C91 2198   5.920   4.667   1.244 -0.3891  0.2880 -0.3202
    6CHTO  H178 2199   5.868   4.756   1.210  0.0106  0.6172 -0.0583
    6CHTO   C92 2200   5.867   4.648   1.395 -0.5727  0.3984 -0.3259
    6CHTO  H179 2201   5.892   4.736   1.457  0.0559 -0.9068  1.3198
    6CHTO   O66 2202   5.726   4.654   1.400 -0.2202  0.2281 -0.1067
    6CHTO  H166 2203   5.698   4.737   1.367  0.3910  0.6403  0.3952
    6CHTO   C93 2204   5.919   4.506   1.464  0.5528  0.0029  0.2510
    6CHTO  H180 2205   5.842   4.477   1.537 -0.1870  0.5918 -0.2747
    6CHTO   N16 2206   6.040   4.515   1.551  1.0546  0.0471 -0.3902
    6CHTO  H172 2207   6.032   4.602   1.616  0.8942 -0.7231  0.6327
    6CHTO  H173 2208   6.047   4.424   1.608  1.3038 -1.1765 -2.3278
    6CHTO   C94 2209   5.933   4.392   1.354  1.0781  0.0142 -0.3277
    6CHTO  H181 2210   6.031   4.393   1.307  0.6695  1.5446 -1.1971
    6CHTO   O61 2211   5.851   4.418   1.241  0.6168  0.5998 -0.1442
    6CHTO   C95 2212   5.889   4.533   1.162 -0.0165  0.1905  0.1865
    6CHTO  H182 2213   5.978   4.512   1.103  0.5233 -1.7704  1.6284
    6CHTO  C106 2214   5.781   4.567   1.052  0.8337  0.4197  0.1901
    6CHTO   O69 2215   5.741   4.457   0.973  0.1414 -0.4565  0.4974
    6CHTO  H169 2216   5.816   4.411   0.942  1.5198  0.6367  2.1019
    6CHTO   O63 2217   5.883   4.247   1.429 -0.6032  1.0539  0.4209
    6CHTO   C96 2218   5.882   4.136   1.308 -0.3885  0.2887 -0.4536
    6CHTO  H183 2219   5.957   4.167   1.235 -1.1242  1.5687 -0.6750
    6CHTO   C98 2220   5.749   4.093   1.228 -0.2860  0.7900  0.5354
    6CHTO  H185 2221   5.675   4.038   1.288 -1.0729  0.6874 -0.5156
    6CHTO   O67 2222   5.693   4.217   1.187  0.5955  0.2036 -0.4110
    6CHTO  H167 2223   5.676   4.267   1.264  0.0094  1.2066 -1.1836
    6CHTO  C102 2224   5.778   4.000   1.108  0.5337 -0.3726 -0.6751
    6CHTO  H189 2225   5.812   4.061   1.024  4.0339 -2.2657 -0.7248
    6CHTO   N18 2226   5.658   3.922   1.060  0.7275  0.0355  0.1555
    6CHTO  H176 2227   5.636   3.837   1.123 -2.9601 -1.1591 -2.5727
    6CHTO  H177 2228   5.673   3.890   0.958 -1.7435 -0.7197  0.0068
    6CHTO  C105 2229   5.900   3.904   1.140 -0.2002 -0.5152 -0.2781
    6CHTO  H192 2230   5.877   3.806   1.097 -0.1009 -1.2895  1.3784
    6CHTO   O65 2231   5.931   3.886   1.277  0.0151  0.4113 -0.0101
    6CHTO  C100 2232   5.932   3.995   1.367  0.8422  0.3700  0.2522
    6CHTO  H187 2233   5.871   3.972   1.456  2.2581  0.5427  1.2820
    6CHTO  C107 2234   6.078   4.000   1.410 -0.5246 -0.0070  0.6064
    6CHTO   O70 2235   6.118   3.893   1.491  0.4205  0.6517 -0.1738
    6CHTO  H170 2236   6.106   3.811   1.447  0.6685 -0.1314  1.1931
    6CHTO   O57 2237   6.031   3.993   1.080 -0.3728  0.6556 -0.0966
    6CHTO   C85 2238   6.106   3.929   0.977 -0.3254  0.2783  0.0468
    6CHTO  H157 2239   6.034   3.872   0.914 -0.3912  1.9138 -1.3992
    6CHTO   C83 2240   6.204   3.820   1.047 -0.1654 -0.1382  0.8965
    6CHTO  H155 2241   6.148   3.727   1.059 -1.1726  0.3926  0.4013
    6CHTO   O56 2242   6.249   3.861   1.174  0.4540 -0.0417  0.1534
    6CHTO  H135 2243   6.305   3.936   1.164  1.2271 -0.8575 -1.8705
    6CHTO   C81 2244   6.321   3.788   0.951  0.6895 -0.0840 -0.5784
    6CHTO  H153 2245   6.276   3.754   0.857 -1.4148  1.3398 -0.1275
    6CHTO   N14 2246   6.416   3.678   0.990 -0.3059 -0.6070 -0.0689
    6CHTO  H141 2247   6.475   3.645   0.908  0.3820  3.6257 -1.4331
    6CHTO  H142 2248   6.365   3.594   1.032  0.4098 -0.6425  0.7426
    6CHTO   C79 2249   6.402   3.918   0.921 -0.1471 -0.2032 -1.3978
    6CHTO  H151 2250   6.482   3.896   0.850 -1.5043 -2.5268 -2.2607
    6CHTO   O52 2251   6.317   3.999   0.832  0.0423  0.1859 -0.8672
    6CHTO   C86 2252   6.188   4.036   0.895  0.5263  0.3879  0.4007
    6CHTO  H158 2253   6.204   4.115   0.971 -2.4399  0.9792  0.4596
    6CHTO   C90 2254   6.092   4.102   0.785 -0.3175 -0.4601  0.1379
    6CHTO   O60 2255   5.968   4.148   0.840 -0.2767 -1.0103  0.4716
    6CHTO  H138 2256   5.965   4.114   0.928 -0.7117 -0.6201  0.6052
    6CHTO   O50 2257   6.446   3.999   1.033  0.5064 -0.8312  0.5049
    6CHTO   C73 2258   6.518   4.022   1.153  0.3457  0.0845  0.4494
    6CHTO  H145 2259   6.540   3.925   1.202 -0.1382 -0.9638 -1.3734
    6CHTO   C74 2260   6.429   4.125   1.237 -0.6560  0.1026  0.0435
    6CHTO  H146 2261   6.326   4.089   1.253  0.5362 -2.8632  1.3731
    6CHTO   O54 2262   6.487   4.133   1.367 -0.1092  0.4096 -0.8526
    6CHTO  H133 2263   6.550   4.203   1.366  1.3903 -0.8693  0.4836
    6CHTO   C75 2264   6.430   4.264   1.171 -0.0013  0.0298  0.3859
    6CHTO  H147 2265   6.385   4.254   1.071  0.3076  1.6946  0.0709
    6CHTO   N13 2266   6.353   4.371   1.241 -0.0688  0.2164 -0.1165
    6CHTO  H139 2267   6.300   4.349   1.332 -1.6097  0.8563 -0.8463
    6CHTO  H140 2268   6.326   4.467   1.200  0.1997  1.0306  1.5861
    6CHTO   C76 2269   6.580   4.309   1.157 -0.0155  0.0410 -0.3166
    6CHTO  H148 2270   6.619   4.300   1.259  0.1586 -2.0355 -0.5470
    6CHTO   O49 2271   6.640   4.213   1.065 -0.1356 -0.5010 -0.2468
    6CHTO   C77 2272   6.657   4.088   1.118  0.0052 -0.3424  0.0762
    6CHTO  H149 2273   6.712   4.102   1.212 -0.7185  2.7799  0.1140
    6CHTO   C88 2274   6.744   3.993   1.030 -0.0533  0.5941 -0.2366
    6CHTO   O58 2275   6.691   3.981   0.877  0.0010 -0.2756 -0.3818
    6CHTO  H136 2276   6.702   4.062   0.830  0.3660 -0.0521  0.0822
    6CHTO   O51 2277   6.596   4.450   1.092 -0.5687 -0.1327 -0.0419
    6CHTO   C78 2278   6.671   4.580   1.185 -0.3110  0.7072  0.3882
    6CHTO  H150 2279   6.687   4.542   1.288 -0.5587 -1.9850 -0.5277
    6CHTO   C80 2280   6.588   4.707   1.197  0.2134  1.1196 -0.6014
    6CHTO  H152 2281   6.576   4.750   1.095 -0.2011  2.2593 -0.0779
    6CHTO   O55 2282   6.473   4.657   1.268  0.1472 -0.7692  0.7764
    6CHTO  H134 2283   6.423   4.608   1.206  0.5080  0.4157 -0.4780
    6CHTO   C84 2284   6.662   4.819   1.281  0.2739 -0.0493  0.4486
    6CHTO  H156 2285   6.671   4.779   1.383  1.8053  2.3729  1.2890
    6CHTO   N15 2286   6.578   4.942   1.282 -0.5329 -0.2076 -0.6924
    6CHTO  H143 2287   6.634   5.025   1.243 -0.2622 -1.1070 -2.2913
    6CHTO  H144 2288   6.491   4.936   1.220  1.6299 -0.3946 -3.8273
    6CHTO   C87 2289   6.807   4.835   1.222 -0.1682  0.1912  0.4794
    6CHTO  H159 2290   6.786   4.867   1.120 -2.0969 -0.0372  0.7901
    6CHTO   O53 2291   6.882   4.700   1.228 -0.5350 -0.5250 -0.2575
    6CHTO   C82 2292   6.812   4.610   1.138  0.0267 -0.2865  0.2498
    6CHTO  H154 2293   6.811   4.641   1.033  0.6273  0.3442  0.4231
    6CHTO   C89 2294   6.902   4.489   1.141  0.1992  0.2294  0.1061
    6CHTO   O59 2295   7.024   4.509   1.076  0.1994  0.1170  0.0504
    6CHTO  H137 2296   7.084   4.449   1.117 -1.6349 -2.3410 -0.7177
    6CHTO   O45 2297   6.899   4.952   1.299 -0.1208 -1.4471  0.3919
    6CHTO   C67 2298   7.030   4.973   1.235  0.1917  0.1330  0.1450
    6CHTO  H124 2299   7.080   4.876   1.232 -1.0841 -0.6057  1.8978
    6CHTO   C65 2300   7.019   5.034   1.089 -0.3748 -0.1813  0.1633
    6CHTO  H122 2301   6.917   5.073   1.084 -0.3583 -0.3845 -3.6190
    6CHTO   O44 2302   7.044   4.934   0.991  0.4497 -0.3563  0.2019
    6CHTO  H102 2303   7.132   4.935   0.960  0.1843  0.2169 -0.5427
    6CHTO   C63 2304   7.110   5.164   1.073 -0.0267  0.1425 -0.0167
    6CHTO  H120 2305   7.065   5.243   1.134 -2.9339 -1.2185 -0.3438
    6CHTO   N11 2306   7.115   5.236   0.939 -0.5747  0.2628  0.6192
    6CHTO  H108 2307   7.117   5.160   0.864 -1.6204 -0.2111  1.0629
    6CHTO  H109 2308   7.205   5.294   0.930  1.6250 -2.9647  0.7543
    6CHTO   C61 2309   7.253   5.144   1.135  0.2799 -0.0198 -0.4393
    6CHTO  H118 2310   7.293   5.245   1.155 -0.6320  0.1591  0.5356
    6CHTO   O40 2311   7.241   5.084   1.270 -0.1231 -0.5715 -0.0229
    6CHTO   C68 2312   7.109   5.062   1.331 -0.5823 -0.0173  0.4053
    6CHTO  H125 2313   7.068   5.165   1.341  0.2161  0.6387 -2.7442
    6CHTO   C72 2314   7.126   5.009   1.469 -0.0976 -0.1718 -0.5532
    6CHTO   O48 2315   7.214   5.091   1.549 -0.2727 -0.5097  0.4479
    6CHTO  H105 2316   7.300   5.099   1.513 -0.8481 -1.4052 -1.1434
    6CHTO   O38 2317   7.348   5.078   1.053 -0.1911 -0.5276  0.9505
    6CHTO   C55 2318   7.479   5.106   1.087 -1.0005 -0.2473 -0.2010
    6CHTO  H112 2319   7.494   5.142   1.190  0.2620 -0.9667 -0.1296
    6CHTO   C56 2320   7.560   5.189   0.986  0.5136  0.4943 -0.2831
    6CHTO  H113 2321   7.546   5.144   0.887  0.8654 -2.0222  0.7683
    6CHTO   O42 2322   7.501   5.316   0.982  0.3418 -0.7435  0.0956
    6CHTO  H100 2323   7.419   5.319   0.936 -0.3605 -1.3590  1.2817
    6CHTO   C57 2324   7.703   5.204   1.029  0.2558 -0.2993  0.5257
    6CHTO  H114 2325   7.710   5.272   1.113  0.8009 -1.3387  1.3399
    6CHTO   N10 2326   7.792   5.262   0.922  0.1943 -0.0314  0.7654
    6CHTO  H106 2327   7.890   5.294   0.957 -0.3056 -0.6232  2.7841
    6CHTO  H107 2328   7.804   5.180   0.853 -0.3564  1.0172 -0.5972
    6CHTO   C58 2329   7.764   5.070   1.082  0.0524  0.3997 -0.8312
    6CHTO  H115 2330   7.794   5.010   0.994 -1.3743 -2.2137  0.3933
    6CHTO   O37 2331   7.678   4.994   1.163 -0.2815 -0.2611 -0.1182
    6CHTO   C59 2332   7.550   4.965   1.109 -0.4545  0.0262  0.4657
    6CHTO  H116 2333   7.558   4.907   1.017  0.6075  0.0448  0.5348
    6CHTO   C70 2334   7.469   4.873   1.199  1.0836 -0.0221 -0.3664
    6CHTO   O46 2335   7.382   4.785   1.124 -0.2002 -0.3060 -0.3740
    6CHTO  H103 2336   7.436   4.718   1.088 -0.8498 -0.3391 -1.2927
    6CHTO   O39 2337   7.892   5.113   1.184  0.2670 -0.2558 -0.2975
    6CHTO   C60 2338   8.013   5.039   1.175  0.5971  0.0180 -0.5021
    6CHTO  H117 2339   7.976   4.940   1.147 -1.5757  0.9964 -1.1861
    6CHTO   C62 2340   8.117   5.104   1.080  0.7334  0.0242  0.2287
    6CHTO  H119 2341   8.066   5.113   0.981  1.8013  1.3535 -0.2158
    6CHTO   O43 2342   8.135   5.233   1.132  0.4753  0.4175  0.1331
    6CHTO  H101 2343   8.072   5.298   1.107  0.3768  0.9592  1.7170
    6CHTO   C66 2344   8.260   5.028   1.066  0.4592 -0.3476  0.0877
    6CHTO  H123 2345   8.240   4.922   1.048 -1.4871 -0.1339  0.9049
    6CHTO   N12 2346   8.343   5.078   0.954 -0.7694 -1.0438  0.7821
    6CHTO  H110 2347   8.314   5.180   0.931  0.4872 -0.5516  1.3102
    6CHTO  H111 2348   8.333   5.017   0.866  1.4347 -1.1212  0.5680
    6CHTO   C69 2349   8.336   5.025   1.201  0.3002  0.5321 -0.2727
    6CHTO  H126 2350   8.366   5.119   1.253  1.8195 -0.0824 -0.0182
    6CHTO   O41 2351   8.236   4.959   1.308 -0.6972  0.0045  0.5379
    6CHTO   C64 2352   8.074   5.029   1.316  1.1234  0.8826 -0.6037
    6CHTO  H121 2353   8.080   5.131   1.360 -1.6779  1.6009 -1.7395
    6CHTO   C71 2354   7.984   4.944   1.419  0.5761  0.1658 -0.3207
    6CHTO   O47 2355   7.964   4.804   1.380 -0.1734  0.4756 -0.6823
    6CHTO  H104 2356   7.905   4.763   1.439  1.2943 -3.2212 -1.6616
    6CHTO   O34 2357   8.471   4.936   1.193  0.1291  0.1244  0.7459
    6CHTO   C49 2358   8.617   4.909   1.131 -0.0542 -0.0433  0.7192
    6CHTO   H91 2359   8.598   4.870   1.031 -2.1091 -0.4015  1.2256
    6CHTO   C47 2360   8.705   4.823   1.219 -0.2727  0.2241 -0.0265
    6CHTO   H89 2361   8.799   4.815   1.161 -1.0869  0.3746 -1.3934
    6CHTO   O33 2362   8.647   4.693   1.222 -0.1377  0.2035  0.0914
    6CHTO   H70 2363   8.572   4.695   1.278 -1.1505  1.0704 -1.2510
    6CHTO   C45 2364   8.723   4.887   1.358 -0.0410  0.0983  0.8491
    6CHTO   H87 2365   8.639   4.848   1.418  0.2121 -0.6395  0.7376
    6CHTO    N8 2366   8.846   4.824   1.411  0.3300  0.0081 -0.6731
    6CHTO   H75 2367   8.865   4.718   1.400 -1.2605 -0.3690  0.0822
    6CHTO   H76 2368   8.928   4.873   1.360  1.7885 -1.6703 -0.0069
    6CHTO   C43 2369   8.711   5.052   1.352  0.3123 -0.0574 -0.6266
    6CHTO   H85 2370   8.608   5.085   1.368  0.1016  0.3785 -2.7421
    6CHTO   O29 2371   8.761   5.101   1.225  0.0662  0.2201  0.2825
    6CHTO   C50 2372   8.692   5.047   1.110  0.8157 -0.2357  0.5659
    6CHTO   H92 2373   8.618   5.117   1.069  1.7714 -0.6420 -1.9206
    6CHTO   C54 2374   8.791   5.035   0.988 -0.2041  0.8652 -0.0365
    6CHTO   O36 2375   8.861   5.154   0.968 -0.0601  0.5372  0.2560
    6CHTO   H72 2376   8.863   5.209   1.044  2.9472 -0.5932  1.0343
    6CHTO   O27 2377   8.788   5.114   1.452 -0.6138 -0.3895 -0.0512
    6CHTO   C37 2378   8.857   5.227   1.519  0.6770 -0.7308  0.6611
    6CHTO   H79 2379   8.947   5.247   1.458 -0.9601  0.0343 -1.5521
    6CHTO   C38 2380   8.780   5.364   1.507 -0.0472 -0.6162  0.2030
    6CHTO   H80 2381   8.676   5.347   1.540 -0.5474  0.6943 -0.6370
    6CHTO   O31 2382   8.776   5.409   1.369  0.2518  0.0253 -0.2316
    6CHTO   H68 2383   8.742   5.347   1.308  1.8066  0.3033 -1.4110
    6CHTO   C39 2384   8.850   5.471   1.608 -0.6639  0.1196 -0.1542
    6CHTO   H81 2385   8.948   5.479   1.561  0.3731 -2.4980  1.4096
    6CHTO    N7 2386   8.775   5.600   1.603 -0.2944  0.1348 -0.2849
    6CHTO   H73 2387   8.698   5.604   1.527  0.1118  1.0848 -0.6540
    6CHTO   H74 2388   8.716   5.618   1.692 -1.0882 -0.1572 -0.7395
    6CHTO   C40 2389   8.886   5.419   1.756 -0.4554  0.1316  0.5109
    6CHTO   H82 2390   8.791   5.399   1.805 -0.4958  0.0756  0.4104
    6CHTO   O26 2391   8.963   5.295   1.745 -0.1396 -0.8408 -0.0302
    6CHTO   C41 2392   8.901   5.189   1.670  0.5677 -0.1042  0.3472
    6CHTO   H83 2393   8.814   5.143   1.718  0.1241 -0.7834 -1.0604
    6CHTO   C52 2394   9.001   5.077   1.656  0.4456 -0.1416 -0.2258
    6CHTO   O35 2395   9.084   5.052   1.777 -0.2495  0.1772 -0.6007
    6CHTO   H71 2396   9.143   4.985   1.752 -2.0058 -1.5394 -0.2450
    6CHTO   O28 2397   8.971   5.516   1.830  1.0532 -0.0081  0.3629
    6CHTO   C42 2398   8.936   5.543   1.967  0.1873  0.1633 -1.1619
    6CHTO   H84 2399   9.030   5.578   2.008  2.2382 -3.0245 -2.9049
    6CHTO   C44 2400   8.891   5.425   2.061 -0.0055 -0.2199  0.3467
    6CHTO   H86 2401   8.790   5.404   2.026  0.3778 -0.5332 -0.5759
    6CHTO   O32 2402   8.973   5.306   2.029  0.8511 -0.1738 -0.5883
    6CHTO   H69 2403   8.940   5.239   2.085  0.6168 -0.9136 -1.6074
    6CHTO   C48 2404   8.890   5.477   2.205 -0.7838  0.4893 -0.8999
    6CHTO   H90 2405   8.993   5.501   2.232 -0.7867  1.7104 -1.9184
    6CHTO    N9 2406   8.841   5.363   2.301 -0.5242  0.1748 -0.1763
    6CHTO   H77 2407   8.911   5.282   2.289 -0.6249  0.1890 -0.8742
    6CHTO   H78 2408   8.740   5.332   2.277 -0.3233  0.1175 -0.9973
    6CHTO   C51 2409   8.790   5.595   2.215  0.4599  0.4483 -0.0116
    6CHTO   H93 2410   8.699   5.546   2.179 -1.0657  1.5376  2.2125
    6CHTO   O30 2411   8.840   5.689   2.126 -0.2815  0.7020  0.7595
    6CHTO   C46 2412   8.841   5.655   1.979  0.2652 -0.4199 -0.0212
    6CHTO   H88 2413   8.745   5.619   1.942  0.5522 -1.4691  0.2454
    6CHTO   C53 2414   8.891   5.786   1.908  0.5354  0.8706  0.3309
    6CHTO   O72 2415   8.791   5.887   1.919  0.3531  0.2222  0.0628
    6CHTO  H199 2416   8.735   5.872   1.845 -1.9989  2.0662  1.3863
    6CHTO   O22 2417   8.780   5.654   2.345  0.1575  0.4148  0.3453
    6CHTO   C31 2418   8.689   5.759   2.383  0.4814 -0.0072 -0.0442
    6CHTO   H59 2419   8.704   5.777   2.492  0.4487  1.5894 -0.2906
    6CHTO   C29 2420   8.709   5.897   2.315 -0.6234  0.4675  0.2641
    6CHTO   H57 2421   8.705   5.887   2.206  1.8760 -0.8383  0.2509
    6CHTO   O21 2422   8.837   5.947   2.350 -0.6709  0.2004 -0.1299
    6CHTO   H37 2423   8.884   5.963   2.270  0.9781  0.4833  0.8693
    6CHTO   C27 2424   8.594   5.998   2.345  0.3363  0.1009 -0.1989
    6CHTO   H55 2425   8.592   6.021   2.452 -1.5778  1.5791 -0.5393
    6CHTO    N5 2426   8.617   6.134   2.280  0.0448 -0.2884 -0.0211
    6CHTO   H43 2427   8.581   6.211   2.346 -1.0119 -0.5505 -0.2761
    6CHTO   H44 2428   8.722   6.159   2.274 -0.4596  2.3553  1.5795
    6CHTO   C25 2429   8.451   5.935   2.316  0.0234 -0.6926  1.2792
    6CHTO   H53 2430   8.438   5.901   2.212  0.9607  0.3379  0.8071
    6CHTO   O17 2431   8.446   5.810   2.396  0.6613 -0.7893 -0.2490
    6CHTO   C32 2432   8.543   5.708   2.371  0.4778  0.6638 -0.4198
    6CHTO   H60 2433   8.517   5.680   2.269 -3.7619 -1.9249  1.2241
    6CHTO   C36 2434   8.515   5.591   2.485 -0.8423 -0.4989 -0.1968
    6CHTO   O25 2435   8.563   5.459   2.452  0.3047  0.0515 -0.2954
    6CHTO   H40 2436   8.596   5.419   2.530 -0.1619 -1.2497 -0.7565
    6CHTO   O15 2437   8.331   6.042   2.363  0.5061 -0.6131 -0.2256
    6CHTO   C19 2438   8.230   6.151   2.361 -0.4214 -0.7122 -0.3629
    6CHTO   H47 2439   8.179   6.133   2.457 -0.9095  0.5948 -0.3724
    6CHTO   C20 2440   8.281   6.296   2.339 -0.4378  0.2681  0.2754
    6CHTO   H48 2441   8.331   6.302   2.240  1.3579 -0.7669  1.0920
    6CHTO   O19 2442   8.374   6.322   2.444 -0.3754 -0.5258  0.3438
    6CHTO   H35 2443   8.456   6.278   2.432 -0.7573 -1.3241  0.5855
    6CHTO   C21 2444   8.164   6.407   2.353 -0.0186 -0.5277 -0.4032
    6CHTO   H49 2445   8.120   6.395   2.452 -1.4781 -5.2649 -1.5308
    6CHTO    N4 2446   8.208   6.549   2.339  0.2411  0.7593 -0.3242
    6CHTO   H41 2447   8.313   6.571   2.349  0.4446 -0.2588 -0.0976
    6CHTO   H42 2448   8.150   6.624   2.392 -0.7464  0.8321 -1.4941
    6CHTO   C22 2449   8.052   6.361   2.263 -0.6061 -0.2296  0.0766
    6CHTO   H50 2450   8.087   6.364   2.160 -0.6643 -0.0152  0.0645
    6CHTO   O14 2451   8.018   6.225   2.283  0.4968  0.3080  0.3687
    6CHTO   C23 2452   8.116   6.123   2.260  0.3862 -0.0009  0.7139
    6CHTO   H51 2453   8.149   6.127   2.155 -0.3502 -2.0532  0.3832
    6CHTO   C34 2454   8.051   5.986   2.281 -0.3354 -0.0935 -0.7620
    6CHTO   O23 2455   7.964   5.951   2.183 -0.3552  0.5227  0.1569
    6CHTO   H38 2456   7.944   5.860   2.183 -0.2911  0.5045  0.9550
    6CHTO   O16 2457   7.928   6.433   2.291 -0.1155  0.1757 -0.4190
    6CHTO   C24 2458   7.814   6.419   2.182  0.0726  0.4957  1.2383
    6CHTO   H52 2459   7.838   6.342   2.108  0.3181  0.1194  1.7016
    6CHTO   C26 2460   7.793   6.555   2.107 -0.0020 -0.2697  0.6525
    6CHTO   H54 2461   7.788   6.638   2.180  0.1886  0.6707 -0.3960
    6CHTO   O20 2462   7.915   6.575   2.026  0.5542 -0.2553  0.2735
    6CHTO   H36 2463   7.913   6.639   1.957 -1.5939  1.5490  1.9143
    6CHTO   C30 2464   7.659   6.560   2.030  0.7279 -0.6540 -0.0760
    6CHTO   H58 2465   7.675   6.499   1.940  0.6712  2.6336 -2.4361
    6CHTO    N6 2466   7.646   6.694   1.975  0.1843 -0.1468  0.2660
    6CHTO   H45 2467   7.544   6.728   1.982 -0.2733 -1.4733  0.3354
    6CHTO   H46 2468   7.690   6.715   1.879 -2.0254  1.5740 -0.3957
    6CHTO   C33 2469   7.542   6.509   2.121 -0.1084 -0.2517 -0.1409
    6CHTO   H61 2470   7.532   6.580   2.205  0.7023 -0.4863  0.1639
    6CHTO   O18 2471   7.570   6.376   2.167 -0.6194  0.0707 -0.5951
    6CHTO   C28 2472   7.680   6.370   2.257  0.2053  0.4878 -0.3673
    6CHTO   H56 2473   7.662   6.425   2.350 -0.2387 -2.0640  1.1028
    6CHTO   C35 2474   7.691   6.229   2.306  0.4868  0.0444 -0.3143
    6CHTO   O24 2475   7.573   6.194   2.374  0.3459 -0.2182 -0.0329
    6CHTO   H39 2476   7.528   6.118   2.342 -1.3301  0.4478  0.6875
    6CHTO    O9 2477   7.417   6.515   2.051 -0.0687  0.1307  0.3608
    6CHTO   C13 2478   7.282   6.559   2.131 -0.4929 -0.1266 -0.3362
    6CHTO   H26 2479   7.302   6.639   2.205  0.5513 -1.3409  0.7186
    6CHTO   C11 2480   7.218   6.436   2.200 -0.6115 -0.5277 -0.1100
    6CHTO   H24 2481   7.290   6.405   2.276  0.4803 -0.2491 -1.0187
    6CHTO    O8 2482   7.205   6.338   2.098 -0.3451  0.1696 -0.4842
    6CHTO    H3 2483   7.129   6.340   2.043  0.2273  1.4265 -1.2244
    6CHTO    C9 2484   7.082   6.482   2.267  0.5142  0.6798 -0.6122
    6CHTO   H22 2485   7.110   6.567   2.332  0.2346 -0.3310  0.8608
    6CHTO    N2 2486   7.015   6.378   2.348 -0.0713  1.0557 -0.1054
    6CHTO   H10 2487   6.986   6.302   2.278  2.3979 -0.6582  0.6407
    6CHTO   H11 2488   7.090   6.342   2.417  0.6476  2.6298 -0.0322
    6CHTO    C7 2489   6.988   6.535   2.152  0.1513 -0.1637  0.3645
    6CHTO   H20 2490   6.894   6.568   2.201 -0.1610  2.5954 -1.9557
    6CHTO    O4 2491   7.046   6.638   2.066 -0.0018  0.4116  0.1893
    6CHTO   C14 2492   7.182   6.622   2.023  0.2888 -0.9240 -0.1549
    6CHTO   H27 2493   7.207   6.728   2.002 -2.0332 -0.3970 -0.4221
    6CHTO   C18 2494   7.190   6.542   1.882 -0.2004  0.2322 -0.2144
    6CHTO   O13 2495   7.119   6.619   1.780 -0.8545  0.2772 -0.1823
    6CHTO    H7 2496   7.153   6.706   1.767  0.5540  0.0187  1.6211
    6CHTO    O2 2497   6.942   6.418   2.051  0.4194  0.6871 -0.4028
    6CHTO    C1 2498   6.809   6.422   2.001  0.0878 -0.0983 -0.3090
    6CHTO   H14 2499   6.818   6.372   1.903 -0.5036 -1.7335  0.4600
    6CHTO    C2 2500   6.741   6.561   1.979 -0.0711 -0.3392 -0.6198
    6CHTO   H15 2501   6.753   6.616   2.073  1.2974 -0.0084 -0.9637
    6CHTO    O6 2502   6.818   6.629   1.879  0.4915 -0.0855  0.4725
    6CHTO    H1 2503   6.812   6.723   1.884  1.3042 -0.0455  0.7151
    6CHTO    C3 2504   6.590   6.558   1.937 -0.6843  0.1979  0.0896
    6CHTO   H16 2505   6.588   6.521   1.833 -2.1401  1.8238 -0.4915
    6CHTO    N1 2506   6.523   6.690   1.936 -0.2747 -0.0611  0.0997
    6CHTO    H8 2507   6.492   6.723   2.034 -0.3548  0.1289  0.0111
    6CHTO    H9 2508   6.582   6.768   1.891  0.2900 -0.1113  0.7420
    6CHTO    C4 2509   6.510   6.449   2.020  0.8735  0.2448 -0.3594
    6CHTO   H17 2510   6.478   6.493   2.114 -0.3319 -0.0067 -0.6510
    6CHTO    O1 2511   6.584   6.330   2.044  0.0164 -0.1047 -0.2668
    6CHTO    C5 2512   6.719   6.331   2.086 -0.6203  0.5129  0.0728
    6CHTO   H18 2513   6.740   6.358   2.190  2.4664 -2.6344  0.3626
    6CHTO   C16 2514   6.775   6.187   2.072 -0.4436 -0.2421  0.6409
    6CHTO   O11 2515   6.908   6.152   2.125 -0.6014  0.4786  0.2948
    6CHTO    H5 2516   6.954   6.097   2.063  1.0781  2.4153 -0.2282
    6CHTO    O3 2517   6.391   6.400   1.956  0.5874 -0.4408  0.5111
    6CHTO    C6 2518   6.280   6.377   2.045  0.3339 -0.4128 -0.3230
    6CHTO   H19 2519   6.299   6.403   2.149 -3.7589 -0.9062  0.6543
    6CHTO    C8 2520   6.156   6.463   2.012 -0.4860 -0.2286  0.2847
    6CHTO   H21 2521   6.121   6.422   1.917  1.1834 -2.7906  0.7034
    6CHTO    O7 2522   6.202   6.601   2.014 -0.3928 -0.1507 -0.4476
    6CHTO    H2 2523   6.134   6.663   1.999 -0.9482 -0.8765 -0.9692
    6CHTO   C12 2524   6.039   6.432   2.115  0.1802 -0.3997  0.1255
    6CHTO   H25 2525   6.086   6.468   2.209  0.1413 -1.1439  0.4322
    6CHTO    N3 2526   5.921   6.515   2.102 -0.1774  0.5238  0.5745
    6CHTO   H12 2527   5.850   6.457   2.045 -0.9683  0.6012  1.4641
    6CHTO   H13 2528   5.877   6.517   2.201  3.5176 -2.2715  2.4161
    6CHTO   C15 2529   6.020   6.275   2.123 -0.3575 -0.3696 -0.3170
    6CHTO   H28 2530   5.964   6.236   2.038 -1.7735 -0.6041  0.7253
    6CHTO   O10 2531   5.942   6.234   2.276 -0.4144 -0.1582  0.5827
    6CHTO    H4 2532   6.002   6.262   2.342  0.2685  2.9794 -1.2623
    6CHTO    O5 2533   6.140   6.202   2.140  0.3956  0.8874  0.0873
    6CHTO   C10 2534   6.236   6.230   2.037 -0.3863 -0.4633 -0.9481
    6CHTO   H23 2535   6.198   6.197   1.940  0.5568 -0.3830 -1.3535
    6CHTO   C17 2536   6.351   6.135   2.071 -0.4091  0.2608 -0.2003
    6CHTO   O12 2537   6.317   5.994   2.079  0.1767 -0.1239  0.3433
    6CHTO    H6 2538   6.296   5.970   2.167 -0.5010  0.3998  0.3277
    7CHTO  H203 2539   5.382   2.281   2.456 -0.2864 -0.8211  0.3793
    7CHTO   O82 2540   5.460   2.229   2.452  0.2366  0.0235 -0.4045
    7CHTO  C123 2541   5.561   2.297   2.377  0.0665  0.5276  0.4724
    7CHTO  H227 2542   5.517   2.392   2.346 -1.4558 -0.4081 -0.2848
    7CHTO   O77 2543   5.661   2.299   2.486 -0.4548 -0.5421  0.2272
    7CHTO  C118 2544   5.781   2.377   2.457 -0.0369  0.0960 -0.4681
    7CHTO  H222 2545   5.764   2.482   2.431 -1.4697  0.1038  0.4217
    7CHTO  C125 2546   5.854   2.366   2.599  0.1622 -0.0153  0.1417
    7CHTO   O84 2547   5.887   2.237   2.648  0.3976 -0.5257  0.7700
    7CHTO  H205 2548   5.888   2.182   2.572  1.0888  1.2416 -0.5456
    7CHTO  C114 2549   5.856   2.305   2.347  0.1007  0.1074  0.3846
    7CHTO  H218 2550   5.873   2.206   2.391 -0.5348 -0.7559 -1.2835
    7CHTO  C116 2551   5.766   2.277   2.219 -0.2204 -0.2663  0.3374
    7CHTO  H220 2552   5.744   2.368   2.158 -3.0552 -0.6758  0.7089
    7CHTO   O79 2553   5.845   2.198   2.136  0.4716 -0.3988 -0.1543
    7CHTO  H201 2554   5.913   2.253   2.102  1.2032 -1.4300 -0.3899
    7CHTO  C120 2555   5.623   2.212   2.264 -0.2330  0.0546 -0.0664
    7CHTO  H224 2556   5.651   2.111   2.298 -1.2429  0.3576  1.7091
    7CHTO   N21 2557   5.522   2.195   2.159 -0.4313 -0.3339 -0.1487
    7CHTO  H211 2558   5.471   2.287   2.136 -0.6613 -0.4027  0.0752
    7CHTO  H212 2559   5.548   2.133   2.074  1.5573 -0.4446  0.5256
    7CHTO   O75 2560   5.975   2.389   2.329 -0.4866  0.9984  0.3236
    7CHTO  C112 2561   6.106   2.286   2.316 -1.5232  0.2561  0.1613
    7CHTO  H216 2562   6.089   2.222   2.229 -1.4177 -1.3712  1.3152
    7CHTO   O73 2563   6.116   2.211   2.434  0.5093 -0.2924  0.5289
    7CHTO  C113 2564   6.224   2.115   2.447 -0.6352  0.0231  0.0624
    7CHTO  H217 2565   6.207   2.039   2.368  0.4096 -0.6620  0.4863
    7CHTO  C124 2566   6.228   2.056   2.593 -0.0019 -0.3242  0.5496
    7CHTO   O83 2567   6.113   1.975   2.605 -0.0123  0.3145 -0.2383
    7CHTO  H204 2568   6.105   1.918   2.530 -1.5647  2.2006 -1.5566
    7CHTO  C109 2569   6.361   2.195   2.430  0.9653  0.5991 -0.3351
    7CHTO  H213 2570   6.369   2.264   2.516 -1.8963  1.1470 -0.4368
    7CHTO  C110 2571   6.362   2.280   2.303  0.3408  0.5458  0.5890
    7CHTO  H214 2572   6.357   2.211   2.218  1.3756 -1.2702  1.9845
    7CHTO   O78 2573   6.486   2.357   2.300  0.2800 -0.1692 -0.0445
    7CHTO  H200 2574   6.537   2.314   2.234 -1.5314 -2.2408 -0.1590
    7CHTO  C111 2575   6.238   2.373   2.298 -0.0075  0.1929 -0.5622
    7CHTO  H215 2576   6.242   2.442   2.383  1.3571 -1.2152  0.5542
    7CHTO   N19 2577   6.241   2.453   2.179 -0.2534  0.1138 -0.1836
    7CHTO  H207 2578   6.330   2.513   2.174 -0.5284  0.5907  0.5852
    7CHTO  H208 2579   6.154   2.516   2.173 -0.2126  0.0346 -2.2062
    7CHTO   O74 2580   6.477   2.106   2.427  0.1600 -0.0050 -0.9834
    7CHTO  C115 2581   6.602   2.177   2.516  0.0963 -0.0999  0.2219
    7CHTO  H219 2582   6.606   2.285   2.503  0.8993 -0.3939 -2.1128
    7CHTO   O76 2583   6.591   2.149   2.668  0.7594 -0.8149  0.6694
    7CHTO  C122 2584   6.603   2.009   2.693  0.0083 -0.4339  0.6406
    7CHTO  H226 2585   6.523   1.952   2.648  0.6535  0.3601 -1.5573
    7CHTO  C126 2586   6.584   1.990   2.847 -0.5372  0.4500  0.3435
    7CHTO   O85 2587   6.611   1.857   2.886 -0.2030  0.1807  0.5184
    7CHTO  H206 2588   6.683   1.840   2.944  0.9761 -1.8367 -1.4164
    7CHTO  C121 2589   6.743   1.954   2.642 -0.3793 -0.2275  0.3290
    7CHTO  H225 2590   6.830   2.008   2.685  0.0362 -1.5833  1.2277
    7CHTO   O81 2591   6.772   1.819   2.673  0.9712  0.2483  0.3740
    7CHTO  H202 2592   6.861   1.795   2.654  0.6440 -1.4667  1.0072
    7CHTO  C119 2593   6.742   1.974   2.489 -0.8340  0.3154 -0.2172
    7CHTO  H223 2594   6.835   1.924   2.461 -1.6977 -1.2321 -0.3864
    7CHTO  C117 2595   6.738   2.125   2.446 -0.0288  0.1097 -0.0060
    7CHTO  H221 2596   6.714   2.148   2.343  2.2702 -0.5837 -0.7268
    7CHTO   N20 2597   6.850   2.212   2.481 -0.3432 -0.4357  0.8601
    7CHTO  H209 2598   6.841   2.311   2.439  0.5383 -0.5137  0.4776
    7CHTO  H210 2599   6.945   2.170   2.450  0.1783  0.6152  1.0123
    7CHTO   O80 2600   6.643   1.872   2.422 -0.2218 -0.1063  0.0823
    7CHTO  C103 2601   6.690   1.779   2.285  0.1106 -0.1458  0.9059
    7CHTO  H190 2602   6.689   1.838   2.193  0.6086 -3.2080 -1.1499
    7CHTO  C101 2603   6.824   1.702   2.296  0.5505 -0.2498 -0.4410
    7CHTO  H188 2604   6.842   1.650   2.391  2.2220 -0.7636 -1.0108
    7CHTO   O68 2605   6.925   1.804   2.269  0.0994 -0.0069 -0.2266
    7CHTO  H168 2606   6.931   1.857   2.346  0.2805 -0.1817 -0.1199
    7CHTO   C99 2607   6.844   1.587   2.182  0.7646 -0.5363  0.3188
    7CHTO  H186 2608   6.840   1.634   2.082 -0.3617 -0.7223  0.2736
    7CHTO   N17 2609   6.966   1.508   2.189  0.4349  0.3983  0.4477
    7CHTO  H174 2610   6.961   1.436   2.269  0.3563 -0.0781  0.0167
    7CHTO  H175 2611   6.993   1.462   2.095  0.3114  2.5437 -0.6700
    7CHTO   C97 2612   6.717   1.499   2.186  0.2519  0.1415  0.6490
    7CHTO  H184 2613   6.724   1.454   2.286 -1.8930  1.0221  1.2329
    7CHTO   O64 2614   6.600   1.578   2.168 -0.1538 -0.0194 -0.2260
    7CHTO  C104 2615   6.569   1.681   2.267 -0.0801  0.1385 -0.0945
    7CHTO  H191 2616   6.543   1.639   2.364  1.1862  2.2442  1.1643
    7CHTO  C108 2617   6.446   1.764   2.229  0.3908 -0.0785 -0.5244
    7CHTO   O71 2618   6.385   1.830   2.336 -0.3203 -0.1999 -0.3559
    7CHTO  H171 2619   6.323   1.895   2.310 -0.5746 -0.1293  0.4263
    7CHTO   O62 2620   6.716   1.398   2.079 -0.4953  0.6490  0.2197
    7CHTO   C91 2621   6.602   1.303   2.085 -0.2651  0.4686 -0.2726
    7CHTO  H178 2622   6.637   1.203   2.056 -1.4431  0.2563 -1.0245
    7CHTO   C92 2623   6.489   1.349   1.992 -0.5396 -0.8952  0.4820
    7CHTO  H179 2624   6.479   1.457   2.006  1.2478 -0.2095 -2.9465
    7CHTO   O66 2625   6.525   1.311   1.856  0.4766  0.0524 -0.9115
    7CHTO  H166 2626   6.579   1.366   1.803 -0.1757  1.5386 -0.0403
    7CHTO   C93 2627   6.349   1.282   2.018  0.6829  0.8064  0.1682
    7CHTO  H180 2628   6.366   1.178   1.988 -1.5025  0.0606  1.4675
    7CHTO   N16 2629   6.236   1.337   1.934 -0.7460 -0.5313  0.3323
    7CHTO  H172 2630   6.144   1.349   1.989 -1.4710  1.4222 -1.2368
    7CHTO  H173 2631   6.255   1.425   1.875  0.6817 -0.6623  0.5941
    7CHTO   C94 2632   6.322   1.285   2.161  0.2325  0.4530 -0.2181
    7CHTO  H181 2633   6.330   1.386   2.200  2.3820  0.8227 -1.4827
    7CHTO   O61 2634   6.418   1.193   2.221  0.1473  0.3771  0.1440
    7CHTO   C95 2635   6.545   1.262   2.231 -0.9176  0.6445  0.0359
    7CHTO  H182 2636   6.538   1.350   2.294  0.2403  0.7848 -0.0301
    7CHTO  C106 2637   6.645   1.162   2.305  0.2681 -0.6679 -0.9756
    7CHTO   O69 2638   6.786   1.208   2.306  0.3592  0.1933  0.3896
    7CHTO  H169 2639   6.799   1.300   2.315  2.9736  0.2556 -2.8605
    7CHTO   O63 2640   6.182   1.222   2.196 -0.2309 -0.3160  0.3206
    7CHTO   C96 2641   6.093   1.288   2.302  0.2111  0.3482  0.3571
    7CHTO  H183 2642   6.076   1.394   2.283  2.3420  0.8913  1.3121
    7CHTO   C98 2643   6.154   1.275   2.452 -0.3431  0.6523  0.7951
    7CHTO  H185 2644   6.261   1.298   2.463 -0.3494  0.9668  0.2197
    7CHTO   O67 2645   6.085   1.356   2.551  0.4300  0.1806 -0.1069
    7CHTO  H167 2646   5.993   1.338   2.560  1.0973 -3.2451  0.3771
    7CHTO  C102 2647   6.144   1.124   2.505 -1.0892 -0.4096 -0.0618
    7CHTO  H189 2648   6.149   1.127   2.615  0.9738  0.8723 -0.1543
    7CHTO   N18 2649   6.258   1.035   2.467 -0.1371 -0.1250 -0.2465
    7CHTO  H176 2650   6.227   0.933   2.482  0.8939 -0.3718  0.2361
    7CHTO  H177 2651   6.290   1.057   2.366 -0.7402 -0.2859 -0.4755
    7CHTO  C105 2652   6.010   1.068   2.467  0.3778  0.6600  0.5206
    7CHTO  H192 2653   6.027   1.003   2.382  1.8641 -1.3260  2.3143
    7CHTO   O65 2654   5.911   1.163   2.423 -0.0758 -0.5194 -0.3364
    7CHTO  C100 2655   5.947   1.215   2.295  0.8356  0.3401 -0.5100
    7CHTO  H187 2656   5.949   1.131   2.224 -2.9288 -0.1735 -0.1026
    7CHTO  C107 2657   5.845   1.324   2.242 -0.8334  0.0791  0.5823
    7CHTO   O70 2658   5.713   1.321   2.290 -0.4329  0.2007  0.5281
    7CHTO  H170 2659   5.662   1.243   2.276  1.6145 -0.7666 -2.0848
    7CHTO   O57 2660   5.949   0.991   2.598  0.1806  0.0191  0.1330
    7CHTO   C85 2661   5.933   0.852   2.590  0.5454  0.2814 -0.8346
    7CHTO  H157 2662   5.985   0.812   2.500 -0.2525  0.3780 -1.3399
    7CHTO   C83 2663   5.781   0.830   2.562 -0.2577 -0.0620 -0.2462
    7CHTO  H155 2664   5.750   0.883   2.472 -2.4008  2.5124  1.9013
    7CHTO   O56 2665   5.707   0.887   2.663 -0.2697  0.3764 -0.3220
    7CHTO  H135 2666   5.614   0.887   2.647 -0.4599 -1.2398  0.6976
    7CHTO   C81 2667   5.755   0.677   2.539 -0.4681 -0.2242 -0.6057
    7CHTO  H153 2668   5.817   0.645   2.455 -0.2601  1.3321 -1.0471
    7CHTO   N14 2669   5.616   0.649   2.490  0.2477 -0.4579  0.0905
    7CHTO  H141 2670   5.578   0.551   2.511 -3.1335  0.2130 -2.3187
    7CHTO  H142 2671   5.614   0.664   2.384 -2.5233 -0.0553  0.1620
    7CHTO   C79 2672   5.804   0.591   2.662 -0.2472 -0.2394 -0.1291
    7CHTO  H151 2673   5.815   0.487   2.631  1.7954 -0.8012  2.2715
    7CHTO   O52 2674   5.944   0.625   2.703  0.4159 -0.2940 -0.0725
    7CHTO   C86 2675   5.975   0.768   2.721  0.0616  0.1640 -0.0239
    7CHTO  H158 2676   5.914   0.798   2.808 -0.2067 -1.0365  0.2018
    7CHTO   C90 2677   6.122   0.779   2.762 -0.3452 -0.1867  0.6594
    7CHTO   O60 2678   6.200   0.736   2.649  0.2326 -0.7645 -0.5843
    7CHTO  H138 2679   6.292   0.744   2.663  0.1109  2.6259 -1.3659
    7CHTO   O50 2680   5.711   0.592   2.768 -0.2862  0.7030  0.3631
    7CHTO   C73 2681   5.676   0.479   2.846 -0.0872 -0.1442 -0.1337
    7CHTO  H145 2682   5.760   0.409   2.852  1.0923  1.3131  0.9173
    7CHTO   C74 2683   5.548   0.403   2.793  0.2196  0.0362  0.2074
    7CHTO  H146 2684   5.571   0.379   2.688 -1.1651  2.5138 -0.7202
    7CHTO   O54 2685   5.531   0.282   2.869  0.4041 -0.0393  0.8033
    7CHTO  H133 2686   5.610   0.233   2.857  1.4489  1.7528  0.2151
    7CHTO   C75 2687   5.418   0.494   2.805  0.2791  0.6021 -0.4382
    7CHTO  H147 2688   5.431   0.578   2.735  2.0913 -0.3508 -1.2948
    7CHTO   N13 2689   5.291   0.431   2.767 -0.2640 -0.1746  0.3317
    7CHTO  H139 2690   5.292   0.409   2.661 -2.2389  0.6012  0.1281
    7CHTO  H140 2691   5.264   0.344   2.825 -1.2888 -0.9562 -1.2935
    7CHTO   C76 2692   5.405   0.550   2.952  0.3581  0.0217  0.2660
    7CHTO  H148 2693   5.381   0.461   3.011 -2.8598 -0.5157 -1.7643
    7CHTO   O49 2694   5.526   0.616   3.001 -0.3336  0.5228 -0.1999
    7CHTO   C77 2695   5.647   0.526   2.989  0.1164 -0.1061  0.0393
    7CHTO  H149 2696   5.623   0.441   3.052  1.7106 -0.3983  0.2760
    7CHTO   C88 2697   5.773   0.589   3.063 -0.3984  0.9115 -0.0169
    7CHTO   O58 2698   5.788   0.733   3.030 -0.0473 -0.1675 -0.4857
    7CHTO  H136 2699   5.698   0.758   3.029  0.2219  0.7857 -1.1038
    7CHTO   O51 2700   5.313   0.668   2.962 -0.0470 -0.3247 -0.1340
    7CHTO   C78 2701   5.277   0.699   3.118  0.0658 -1.0399  0.1728
    7CHTO  H150 2702   5.354   0.657   3.186  0.3486  0.3255  0.7042
    7CHTO   C80 2703   5.144   0.635   3.149  0.9256  0.0018  0.1885
    7CHTO  H152 2704   5.077   0.657   3.064  1.3445  0.8401  0.0653
    7CHTO   O55 2705   5.165   0.490   3.142 -0.3105  0.4875 -0.4187
    7CHTO  H134 2706   5.092   0.444   3.178 -2.3594  2.0539 -2.4794
    7CHTO   C84 2707   5.090   0.686   3.291 -0.4126 -0.2225  0.0342
    7CHTO  H156 2708   5.162   0.641   3.360  0.8928  0.0376 -1.1283
    7CHTO   N15 2709   4.956   0.630   3.322 -0.1275  0.2042  0.7215
    7CHTO  H143 2710   4.934   0.656   3.423 -0.0522 -1.1751  1.0937
    7CHTO  H144 2711   4.953   0.524   3.308  0.3480  0.4586 -1.4787
    7CHTO   C87 2712   5.088   0.845   3.300  0.5580 -0.7859 -0.5449
    7CHTO  H159 2713   5.014   0.889   3.233  0.3606  1.0728  0.8634
    7CHTO   O53 2714   5.221   0.899   3.253  0.2875 -0.5617 -0.5506
    7CHTO   C82 2715   5.267   0.852   3.124 -0.3068 -0.1580 -0.2163
    7CHTO  H154 2716   5.193   0.873   3.046  2.4954  1.9758 -2.4208
    7CHTO   C89 2717   5.405   0.929   3.083 -0.2401 -0.2601 -0.2040
    7CHTO   O59 2718   5.417   0.955   2.942  0.4863  0.3696  1.0850
    7CHTO  H137 2719   5.469   1.031   2.923  0.6792 -0.1150 -0.3888
    7CHTO   O45 2720   5.062   0.894   3.460 -0.3455 -0.0637 -0.1821
    7CHTO   C67 2721   5.159   0.981   3.526  0.2322 -0.2051  0.2037
    7CHTO  H124 2722   5.243   1.000   3.459 -0.9441 -0.9613 -1.5227
    7CHTO   C65 2723   5.091   1.120   3.566 -0.4163 -0.6740  0.1886
    7CHTO  H122 2724   4.985   1.103   3.585 -0.7376  1.4507  0.4984
    7CHTO   O44 2725   5.102   1.195   3.442  0.1304 -0.1695  0.5063
    7CHTO  H102 2726   5.185   1.191   3.399  0.2157 -0.4038  0.6915
    7CHTO   C63 2727   5.151   1.180   3.697  0.4977 -0.1328  0.4676
    7CHTO  H120 2728   5.105   1.135   3.785 -1.2453  0.8631  0.1069
    7CHTO   N11 2729   5.122   1.325   3.734 -0.3223 -0.4714  0.1634
    7CHTO  H108 2730   5.169   1.401   3.675  0.4322 -0.7186  0.4377
    7CHTO  H109 2731   5.016   1.337   3.737 -0.6611 -2.3599 -2.6116
    7CHTO   C61 2732   5.304   1.141   3.711 -0.0626  0.4567 -0.4609
    7CHTO  H118 2733   5.348   1.187   3.801 -2.2532  1.1737  0.2797
    7CHTO   O40 2734   5.324   0.998   3.717  0.0808  0.1036 -0.0313
    7CHTO   C68 2735   5.216   0.922   3.659 -0.2145  0.0959  0.9766
    7CHTO  H125 2736   5.131   0.903   3.727 -0.0468  0.9283  1.4228
    7CHTO   C72 2737   5.282   0.788   3.634 -0.3865  0.1522  0.0763
    7CHTO   O48 2738   5.267   0.695   3.739  0.3108 -0.6088 -0.2321
    7CHTO  H105 2739   5.339   0.704   3.798 -0.1709 -0.5529  0.3541
    7CHTO   O38 2740   5.385   1.184   3.600 -0.1776  0.5467  0.3756
    7CHTO   C55 2741   5.525   1.187   3.635  0.0858 -0.3576 -0.8580
    7CHTO  H112 2742   5.544   1.110   3.711  1.2527 -0.8469 -1.6228
    7CHTO   C56 2743   5.582   1.333   3.675  0.1565  0.2726 -0.1552
    7CHTO  H113 2744   5.548   1.392   3.588  0.0750  1.1639  0.4803
    7CHTO   O42 2745   5.518   1.382   3.797 -0.2991  0.4422  0.2716
    7CHTO  H100 2746   5.565   1.360   3.875 -0.6282 -0.4704  0.2115
    7CHTO   C57 2747   5.740   1.336   3.684 -0.2741 -0.7867 -0.1222
    7CHTO  H114 2748   5.756   1.286   3.779  1.4386  1.2569  0.6881
    7CHTO   N10 2749   5.800   1.470   3.703  0.0552 -0.2371  0.2112
    7CHTO  H106 2750   5.725   1.516   3.766  1.4131 -0.5750  2.1314
    7CHTO  H107 2751   5.891   1.463   3.761 -0.6572 -0.9596  1.2505
    7CHTO   C58 2752   5.801   1.255   3.567  0.2029 -0.4800 -0.1193
    7CHTO  H115 2753   5.785   1.310   3.472 -4.8540  0.7544  1.3279
    7CHTO   O37 2754   5.744   1.120   3.554 -0.2724  0.6375 -1.3929
    7CHTO   C59 2755   5.604   1.121   3.517 -0.4869  0.1539 -0.1050
    7CHTO  H116 2756   5.588   1.162   3.417 -1.0351  0.8626  0.2640
    7CHTO   C70 2757   5.573   0.973   3.488  0.5085  0.1558 -0.3071
    7CHTO   O46 2758   5.630   0.929   3.358 -0.0312  0.0874 -0.1237
    7CHTO  H103 2759   5.722   0.924   3.379  0.7943 -0.3761 -3.4306
    7CHTO   O39 2760   5.964   1.238   3.588 -0.1627  0.2638  0.6134
    7CHTO   C60 2761   6.022   1.122   3.523  0.3500  0.3399  0.9255
    7CHTO  H117 2762   5.969   1.027   3.534  3.7734 -1.9946 -1.6280
    7CHTO   C62 2763   6.027   1.142   3.365  0.1055 -0.0265 -0.3881
    7CHTO  H119 2764   5.919   1.159   3.342  0.3815  1.2674 -0.7693
    7CHTO   O43 2765   6.105   1.258   3.338 -0.1585 -0.2119 -0.5256
    7CHTO  H101 2766   6.058   1.337   3.359  2.1599  1.3126 -0.7751
    7CHTO   C66 2767   6.089   1.015   3.288 -0.4620 -0.4013  0.0096
    7CHTO  H123 2768   6.029   0.926   3.309 -1.4685 -0.6589 -3.6207
    7CHTO   N12 2769   6.087   1.025   3.142  0.6540  0.1368 -0.2348
    7CHTO  H110 2770   6.189   1.015   3.107  0.3615 -2.2643 -0.5344
    7CHTO  H111 2771   6.022   0.947   3.105  1.3984 -1.6306  2.0781
    7CHTO   C69 2772   6.238   0.991   3.336 -1.1886  0.8848 -0.2273
    7CHTO  H126 2773   6.303   1.075   3.305  1.4903 -0.5986  1.2377
    7CHTO   O41 2774   6.230   0.972   3.506 -0.5221 -0.7976 -0.4039
    7CHTO   C64 2775   6.164   1.096   3.573 -0.0838  0.2923 -0.3245
    7CHTO  H121 2776   6.235   1.177   3.549  1.4404 -1.0201 -0.3818
    7CHTO   C71 2777   6.175   1.062   3.724 -0.5813  0.1163 -0.1754
    7CHTO   O47 2778   6.150   1.178   3.805  0.1735 -0.0673  0.2134
    7CHTO  H104 2779   6.057   1.183   3.821  0.4685 -1.7611  2.8162
    7CHTO   O34 2780   6.292   0.859   3.277  0.3131  0.1149  0.5092
    7CHTO   C49 2781   6.415   0.748   3.257 -0.6815 -0.6340 -0.1584
    7CHTO   H91 2782   6.443   0.702   3.351  2.4148 -0.8059 -1.1005
    7CHTO   C47 2783   6.541   0.802   3.178  0.0986  0.0670 -0.3234
    7CHTO   H89 2784   6.605   0.819   3.267 -1.8238  0.9178  0.9312
    7CHTO   O33 2785   6.523   0.931   3.118 -0.0586  0.0386 -0.2587
    7CHTO   H70 2786   6.540   0.921   3.026  1.4018 -0.8111  0.0964
    7CHTO   C45 2787   6.601   0.695   3.073 -0.6984 -0.4467  0.1770
    7CHTO   H87 2788   6.560   0.715   2.973 -1.3097 -3.3668 -0.2207
    7CHTO    N8 2789   6.749   0.706   3.063 -0.2304 -0.2026 -0.4773
    7CHTO   H75 2790   6.792   0.642   2.987  2.1129 -2.0458  2.3043
    7CHTO   H76 2791   6.794   0.803   3.078  0.8754 -1.0788  2.1522
    7CHTO   C43 2792   6.558   0.545   3.104 -0.2277 -0.0935 -0.3774
    7CHTO   H85 2793   6.591   0.490   3.016  3.8686  2.0301 -0.2415
    7CHTO   O29 2794   6.417   0.533   3.120  0.3870  0.0542  0.0294
    7CHTO   C50 2795   6.341   0.635   3.181  0.3187 -0.5070 -0.1534
    7CHTO   H92 2796   6.296   0.679   3.091 -2.4826  0.4876  1.6865
    7CHTO   C54 2797   6.218   0.573   3.249  0.0851 -0.2123  0.1065
    7CHTO   O36 2798   6.126   0.539   3.141  0.4396 -0.8093  0.1119
    7CHTO   H72 2799   6.061   0.482   3.177 -0.0095 -1.1960 -1.3025
    7CHTO   O27 2800   6.619   0.486   3.221  0.1869  0.5779  0.2602
    7CHTO   C37 2801   6.657   0.354   3.255 -0.0449 -0.0805 -0.0238
    7CHTO   H79 2802   6.662   0.352   3.365 -0.3031  3.1228  0.0958
    7CHTO   C38 2803   6.561   0.239   3.206  0.5176  0.2332  0.3546
    7CHTO   H80 2804   6.550   0.246   3.097  1.7307 -1.2280  0.1163
    7CHTO   O31 2805   6.438   0.267   3.267 -0.1498 -0.1188  0.7430
    7CHTO   H68 2806   6.377   0.208   3.226  0.8080 -1.7229  1.5762
    7CHTO   C39 2807   6.618   0.097   3.238 -0.0384 -0.2340 -0.2961
    7CHTO   H81 2808   6.624   0.094   3.347 -0.4306  1.5366 -0.2069
    7CHTO    N7 2809   6.515  -0.009   3.195  0.1508  0.6515  0.0031
    7CHTO   H73 2810   6.477   0.009   3.096 -2.0757 -0.7261  0.5670
    7CHTO   H74 2811   6.442  -0.015   3.274  0.4655 -0.6270  0.2017
    7CHTO   C40 2812   6.764   0.087   3.180  0.2607 -0.0058 -0.2726
    7CHTO   H82 2813   6.768   0.089   3.071  2.3038  2.6050 -0.1968
    7CHTO   O26 2814   6.848   0.194   3.237  0.1409  0.6401 -0.3579
    7CHTO   C41 2815   6.800   0.326   3.203 -0.7028  0.4338 -0.7258
    7CHTO   H83 2816   6.816   0.339   3.095 -1.2143  1.3212 -0.7025
    7CHTO   C52 2817   6.900   0.422   3.265  0.3356  0.1615 -0.4839
    7CHTO   O35 2818   7.064   0.372   3.260 -0.0648  0.5705  0.3864
    7CHTO   H71 2819   7.086   0.343   3.174  0.9370 -1.1383  1.1991
    7CHTO   O28 2820   6.822  -0.039   3.214  0.6914  0.1497  0.3342
    7CHTO   C42 2821   6.956  -0.093   3.174  0.6975  0.5329 -0.3368
    7CHTO   H84 2822   6.976  -0.155   3.261  0.9729  2.3978  0.9577
    7CHTO   C44 2823   7.082   0.003   3.155  0.2370  0.4769  0.1986
    7CHTO   H86 2824   7.053   0.075   3.079  0.3172 -1.2396 -1.5097
    7CHTO   O32 2825   7.117   0.067   3.282  0.3006  0.1692 -0.0518
    7CHTO   H69 2826   7.075   0.151   3.278 -0.3197 -0.1476 -0.1488
    7CHTO   C48 2827   7.213  -0.069   3.090 -0.4377  0.2552 -0.3955
    7CHTO   H90 2828   7.258  -0.131   3.168  0.9765  1.0069 -0.6015
    7CHTO    N9 2829   7.320   0.037   3.061  0.8410  0.4983  0.0988
    7CHTO   H77 2830   7.360   0.074   3.154  2.4898  0.0353 -0.4081
    7CHTO   H78 2831   7.399   0.005   2.994 -1.6100 -0.8927 -2.2129
    7CHTO   C51 2832   7.170  -0.158   2.968  0.5992 -0.3876 -0.1812
    7CHTO   H93 2833   7.140  -0.085   2.892  0.0613 -1.7882 -1.3506
    7CHTO   O30 2834   7.058  -0.246   3.003 -0.0099  0.2576 -0.5184
    7CHTO   C46 2835   6.940  -0.180   3.053 -0.2192 -0.3798  0.0355
    7CHTO   H88 2836   6.915  -0.111   2.972 -4.2172 -1.6681  0.0808
    7CHTO   C53 2837   6.838  -0.301   3.069 -0.0468 -0.7553  0.0911
    7CHTO   O72 2838   6.883  -0.403   3.157  1.1025 -0.3030  0.1705
    7CHTO  H199 2839   6.968  -0.434   3.131  1.2642  1.0483 -1.0046
    7CHTO   O22 2840   7.274  -0.243   2.916  0.1811 -0.5758 -0.3407
    7CHTO   C31 2841   7.282  -0.256   2.765 -0.0592 -1.0713 -0.0424
    7CHTO   H59 2842   7.357  -0.335   2.748  0.4503 -0.5741 -0.1195
    7CHTO   C29 2843   7.151  -0.308   2.704 -0.3800  0.7726  0.0884
    7CHTO   H57 2844   7.081  -0.229   2.737 -2.0753 -0.9073  0.6083
    7CHTO   O21 2845   7.120  -0.433   2.776  0.0732  0.4666 -0.2860
    7CHTO   H37 2846   7.127  -0.423   2.869  0.0800  2.3955 -0.4725
    7CHTO   C27 2847   7.145  -0.328   2.546  0.4213 -0.2731  0.0528
    7CHTO   H55 2848   7.216  -0.407   2.517  1.2172  1.3112 -2.5394
    7CHTO    N5 2849   7.007  -0.368   2.498 -0.3523 -0.7178 -0.0719
    7CHTO   H43 2850   6.987  -0.462   2.547 -1.6648  0.0304  0.8554
    7CHTO   H44 2851   7.014  -0.385   2.392  0.2670  0.0324 -0.1535
    7CHTO   C25 2852   7.199  -0.187   2.488  0.7366  0.6801 -0.5595
    7CHTO   H53 2853   7.126  -0.110   2.520  0.0510  0.9776 -2.7178
    7CHTO   O17 2854   7.329  -0.154   2.535  0.4375 -0.0346  0.0580
    7CHTO   C32 2855   7.334  -0.134   2.679 -0.2028  0.0931 -0.1338
    7CHTO   H60 2856   7.272  -0.046   2.699 -0.0499  0.5035 -1.4286
    7CHTO   C36 2857   7.483  -0.093   2.722  0.1724  0.7154  0.7144
    7CHTO   O25 2858   7.560  -0.207   2.695 -0.2738  0.0186  0.0690
    7CHTO   H40 2859   7.539  -0.278   2.753 -1.1428  0.9460  0.8995
    7CHTO   O15 2860   7.192  -0.170   2.343 -0.4116  0.1952  0.3875
    7CHTO   C19 2861   7.164  -0.052   2.261 -0.2110  0.2448 -0.1934
    7CHTO   H47 2862   7.183  -0.082   2.157 -1.8194  0.6878 -0.6270
    7CHTO   C20 2863   7.018   0.001   2.275  0.0589 -0.0430  1.1993
    7CHTO   H48 2864   6.995   0.019   2.381  0.0938 -0.4950  1.2872
    7CHTO   O19 2865   6.936  -0.106   2.230  0.6999 -0.3488  0.6234
    7CHTO   H35 2866   6.853  -0.083   2.194 -0.3581 -1.7142  2.1182
    7CHTO   C21 2867   6.990   0.136   2.196 -0.0391  0.5907 -0.2880
    7CHTO   H49 2868   6.992   0.111   2.090 -2.5521 -0.6713 -0.0815
    7CHTO    N4 2869   6.854   0.186   2.222 -0.0686  0.1095  0.3537
    7CHTO   H41 2870   6.798   0.200   2.131 -0.5119 -0.5337  0.5288
    7CHTO   H42 2871   6.857   0.279   2.277  0.6516  0.3942 -0.1629
    7CHTO   C22 2872   7.108   0.227   2.232  0.2427 -0.5288  0.3573
    7CHTO   H50 2873   7.095   0.252   2.338 -0.1262  0.2479  0.1299
    7CHTO   O14 2874   7.238   0.169   2.227 -0.4417  0.4769  0.2838
    7CHTO   C23 2875   7.273   0.058   2.297 -0.0807 -0.1936 -0.4404
    7CHTO   H51 2876   7.262   0.092   2.401 -1.2604 -1.7546 -0.0296
    7CHTO   C34 2877   7.423   0.008   2.274  0.0628 -0.3295  0.8754
    7CHTO   O23 2878   7.529   0.099   2.307 -0.6014 -0.5632  0.7071
    7CHTO   H38 2879   7.594   0.096   2.239 -0.2150 -2.1026  1.1215
    7CHTO   O16 2880   7.093   0.346   2.149  0.0815 -0.5209 -0.7236
    7CHTO   C24 2881   7.064   0.503   2.237  0.1360  1.0152 -0.4077
    7CHTO   H52 2882   7.067   0.490   2.345 -0.3960  2.9341 -0.1464
    7CHTO   C26 2883   6.922   0.567   2.211  1.0883 -1.0601 -0.3253
    7CHTO   H54 2884   6.906   0.570   2.102  2.6250  0.8508 -0.5332
    7CHTO   O20 2885   6.824   0.495   2.286  0.2549  0.3898 -0.0445
    7CHTO   H36 2886   6.859   0.486   2.372  0.9868  2.4140 -0.1064
    7CHTO   C30 2887   6.906   0.714   2.253 -1.0963 -0.6080 -0.6966
    7CHTO   H58 2888   6.904   0.718   2.362  0.7801 -0.7443 -0.6454
    7CHTO    N6 2889   6.779   0.776   2.215  0.1105  0.4071  0.5871
    7CHTO   H45 2890   6.772   0.876   2.254  0.1395  0.8459 -0.5160
    7CHTO   H46 2891   6.696   0.720   2.257  0.0593 -1.0854 -1.4311
    7CHTO   C33 2892   7.028   0.794   2.192 -0.0257  0.3128 -0.6583
    7CHTO   H61 2893   7.017   0.794   2.083  1.4403 -0.0424 -0.8239
    7CHTO   O18 2894   7.160   0.735   2.228  0.5814  0.5894 -0.3899
    7CHTO   C28 2895   7.182   0.601   2.190 -0.7455  0.6450 -0.1681
    7CHTO   H56 2896   7.183   0.606   2.081  1.0800  0.0772 -0.1910
    7CHTO   C35 2897   7.312   0.544   2.231 -0.8661  0.0621  0.6893
    7CHTO   O24 2898   7.351   0.544   2.372  0.4703 -0.0827 -0.4421
    7CHTO   H39 2899   7.326   0.626   2.412  0.0571 -0.3740 -0.1094
    7CHTO    O9 2900   7.017   0.930   2.230 -0.2402 -0.0215  0.5716
    7CHTO   C13 2901   7.071   1.037   2.111 -0.0850 -0.4957  0.1228
    7CHTO   H26 2902   6.996   1.028   2.030  1.1796  2.3403 -1.4629
    7CHTO   C11 2903   7.221   0.999   2.056  0.0350  0.4597 -0.3629
    7CHTO   H24 2904   7.210   0.909   1.994 -0.0432 -0.1810  0.5652
    7CHTO    O8 2905   7.303   0.962   2.169  0.1732  0.1645 -0.0413
    7CHTO    H3 2906   7.361   0.891   2.154  0.3556  0.0013  1.3283
    7CHTO    C9 2907   7.277   1.112   1.969  0.1173  0.4836 -0.0093
    7CHTO   H22 2908   7.202   1.131   1.890 -0.3268  3.7079  1.0857
    7CHTO    N2 2909   7.404   1.068   1.908 -0.0655  0.3959 -0.5309
    7CHTO   H10 2910   7.480   1.078   1.984  1.1705  2.8525 -2.0442
    7CHTO   H11 2911   7.396   0.964   1.880 -0.2109  0.6694 -1.5297
    7CHTO    C7 2912   7.289   1.249   2.048  0.6364 -0.0084 -0.1503
    7CHTO   H20 2913   7.309   1.328   1.973  1.7612  0.4571  0.6190
    7CHTO    O4 2914   7.161   1.278   2.107  0.1968 -0.2844 -0.0427
    7CHTO   C14 2915   7.066   1.186   2.167 -0.0162  0.6813  0.7382
    7CHTO   H27 2916   6.964   1.222   2.145 -0.1228 -0.9014 -1.5121
    7CHTO   C18 2917   7.087   1.189   2.317 -0.1195 -0.4240  0.0904
    7CHTO   O13 2918   7.225   1.165   2.353  0.2980 -0.4009 -0.2463
    7CHTO    H7 2919   7.259   1.249   2.376 -3.6924  1.3271 -0.2443
    7CHTO    O2 2920   7.412   1.261   2.163  0.3086  0.3954 -0.1983
    7CHTO    C1 2921   7.476   1.389   2.156 -0.2194 -0.0971  0.8210
    7CHTO   H14 2922   7.403   1.464   2.119  0.3488 -0.5484 -1.2498
    7CHTO    C2 2923   7.601   1.392   2.057  0.5813  0.0980 -0.0587
    7CHTO   H15 2924   7.655   1.297   2.071 -1.2940 -1.1293 -0.8810
    7CHTO    O6 2925   7.547   1.397   1.927 -0.1136  0.4523  0.3524
    7CHTO    H1 2926   7.563   1.322   1.874 -1.4836 -0.3159  0.9865
    7CHTO    C3 2927   7.687   1.528   2.073 -0.7595  0.3755 -0.1445
    7CHTO   H16 2928   7.623   1.606   2.029  0.5073  0.4325 -1.9599
    7CHTO    N1 2929   7.810   1.532   1.986  0.0576  0.6415 -0.0199
    7CHTO    H8 2930   7.849   1.631   1.975  0.3223  0.6165  0.6634
    7CHTO    H9 2931   7.883   1.466   2.031  2.2910  2.8843 -0.2757
    7CHTO    C4 2932   7.713   1.570   2.223  0.7185 -1.1005  0.3192
    7CHTO   H17 2933   7.792   1.503   2.259  1.2902 -1.3946 -1.4108
    7CHTO    O1 2934   7.588   1.559   2.300  0.1592 -0.2306  0.2653
    7CHTO    C5 2935   7.516   1.430   2.299 -0.0498 -0.0738 -0.2234
    7CHTO   H18 2936   7.574   1.350   2.345  0.6773  0.9301  0.6572
    7CHTO   C16 2937   7.393   1.455   2.389  0.2180  0.3396  0.4968
    7CHTO   O11 2938   7.299   1.546   2.335 -0.3291 -0.0092  0.0587
    7CHTO    H5 2939   7.326   1.635   2.338 -1.2305  0.2395  0.9738
    7CHTO    O3 2940   7.748   1.710   2.245  0.0701  0.5946 -0.3339
    7CHTO    C6 2941   7.845   1.734   2.356 -0.6677  0.1608 -0.2081
    7CHTO   H19 2942   7.867   1.643   2.411  0.9012 -0.2571 -1.4929
    7CHTO    C8 2943   7.985   1.794   2.303  0.3597  0.4945  0.1720
    7CHTO   H21 2944   7.969   1.891   2.257  0.4892  0.4421  0.0139
    7CHTO    O7 2945   8.044   1.700   2.210  0.5031  0.5191  0.1734
    7CHTO    H2 2946   8.003   1.616   2.211 -0.9454  1.2049 -0.1995
    7CHTO   C12 2947   8.088   1.822   2.424 -0.5754 -0.7051 -0.3599
    7CHTO   H25 2948   8.116   1.727   2.474 -0.2275 -0.5449 -0.2544
    7CHTO    N3 2949   8.229   1.874   2.393 -0.0648  0.7487  0.2005
    7CHTO   H12 2950   8.251   1.906   2.292 -0.1834 -0.8412 -0.3369
    7CHTO   H13 2951   8.257   1.950   2.465 -0.8143  2.6227 -1.4418
    7CHTO   C15 2952   8.011   1.910   2.533  0.1476 -0.0770  0.0289
    7CHTO   H28 2953   8.007   2.011   2.493  1.1181 -0.4377 -1.0295
    7CHTO   O10 2954   8.068   1.923   2.651  0.2880  0.2740 -0.0233
    7CHTO    H4 2955   8.065   1.843   2.700  1.2082  0.5345  0.4664
    7CHTO    O5 2956   7.883   1.862   2.569 -0.6038 -0.3686  0.0185
    7CHTO   C10 2957   7.793   1.835   2.459  0.4694  0.0721  0.0919
    7CHTO   H23 2958   7.786   1.927   2.401  3.6332 -0.1689 -0.7944
    7CHTO   C17 2959   7.656   1.788   2.514 -0.3345 -0.2716  0.0670
    7CHTO   O12 2960   7.600   1.875   2.612  0.0352 -0.2535  0.0400
    7CHTO    H6 2961   7.527   1.923   2.577  0.5770 -0.1911 -1.0197
    8CHTO  H203 2962   7.629   8.714   1.372 -0.2257 -0.5401  0.6262
    8CHTO   O82 2963   7.542   8.748   1.368  0.1672  0.4507  0.2871
    8CHTO  C123 2964   7.474   8.733   1.496 -0.4011  0.3770 -0.1807
    8CHTO  H227 2965   7.532   8.784   1.575 -0.4753 -1.6242  1.1939
    8CHTO   O77 2966   7.357   8.801   1.469  0.1844  0.0215 -0.0373
    8CHTO  C118 2967   7.257   8.810   1.574 -0.0919  0.6841 -0.4709
    8CHTO  H222 2968   7.288   8.868   1.662  1.4402 -0.9240  0.0775
    8CHTO  C125 2969   7.136   8.877   1.507  0.0074  0.5913  0.1832
    8CHTO   O84 2970   7.045   8.920   1.607  0.1702 -0.1470 -0.4916
    8CHTO  H205 2971   7.090   8.990   1.649 -1.0559  0.0189  0.5692
    8CHTO  C114 2972   7.214   8.663   1.617 -0.0701 -0.2452 -0.6586
    8CHTO  H218 2973   7.170   8.606   1.535 -1.7970  0.2277 -0.0763
    8CHTO  C116 2974   7.341   8.573   1.652 -0.2582  1.0303 -0.8690
    8CHTO  H220 2975   7.380   8.607   1.750 -2.0918 -0.4151  0.4140
    8CHTO   O79 2976   7.291   8.439   1.669 -0.0810  1.1094  0.0135
    8CHTO  H201 2977   7.236   8.431   1.745 -0.2229 -0.5582 -0.2570
    8CHTO  C120 2978   7.448   8.585   1.536  0.0191 -0.1391 -0.4676
    8CHTO  H224 2979   7.399   8.529   1.454  1.2915 -2.3181  0.2214
    8CHTO   N21 2980   7.575   8.525   1.580  0.4849  0.5440  0.2656
    8CHTO  H211 2981   7.631   8.478   1.500  1.6767  1.2888  0.6365
    8CHTO  H212 2982   7.552   8.453   1.657 -1.4650  2.3912  1.4516
    8CHTO   O75 2983   7.111   8.680   1.718 -0.0956 -0.0653  0.1656
    8CHTO  C112 2984   6.958   8.610   1.695 -0.3952 -0.4165  0.5388
    8CHTO  H216 2985   6.978   8.526   1.627  0.6766  0.2692  0.0079
    8CHTO   O73 2986   6.875   8.703   1.637  0.3268  0.7188  0.1235
    8CHTO  C113 2987   6.740   8.652   1.611  0.2238  0.3947  0.4000
    8CHTO  H217 2988   6.742   8.567   1.540 -0.3035 -0.9011  1.9050
    8CHTO  C124 2989   6.670   8.762   1.532 -0.0133  0.5905  0.0678
    8CHTO   O83 2990   6.650   8.884   1.605 -0.5049 -0.0775  0.2052
    8CHTO  H204 2991   6.728   8.931   1.628  1.4788 -1.5782 -3.0573
    8CHTO  C109 2992   6.660   8.621   1.743  0.8394  0.2444  0.0638
    8CHTO  H213 2993   6.656   8.717   1.796 -2.0150  0.1985 -0.0158
    8CHTO  C110 2994   6.743   8.512   1.817  0.0213 -0.0856  0.7214
    8CHTO  H214 2995   6.734   8.415   1.767 -0.1715 -0.9582  2.4083
    8CHTO   O78 2996   6.684   8.495   1.947  0.7424 -0.2886 -0.5358
    8CHTO  H200 2997   6.591   8.509   1.943  0.8414 -0.0757 -2.3949
    8CHTO  C111 2998   6.894   8.551   1.833 -0.4838  0.4127 -0.6449
    8CHTO  H215 2999   6.901   8.635   1.903  2.2471  0.5059 -0.9636
    8CHTO   N19 3000   6.977   8.434   1.885  0.3018  0.0362  0.1614
    8CHTO  H207 3001   7.033   8.475   1.968 -0.1808  0.0102  0.5045
    8CHTO  H208 3002   7.032   8.383   1.807 -0.3541  0.2344 -0.4418
    8CHTO   O74 3003   6.529   8.567   1.715 -0.0691 -0.0766  0.6222
    8CHTO  C115 3004   6.423   8.596   1.815 -0.1165  0.4405  0.3649
    8CHTO  H219 3005   6.388   8.507   1.866 -1.8384  1.5185  1.0966
    8CHTO   O76 3006   6.478   8.705   1.942  0.1273 -0.8531 -0.0886
    8CHTO  C122 3007   6.379   8.737   2.048 -0.6142 -0.1291 -0.1665
    8CHTO  H226 3008   6.403   8.837   2.083 -1.3778 -0.2676  0.7584
    8CHTO  C126 3009   6.399   8.643   2.170 -0.2369 -0.2427 -0.8125
    8CHTO   O85 3010   6.535   8.648   2.211  0.2654 -0.0192 -0.3158
    8CHTO  H206 3011   6.570   8.573   2.255  2.0241  1.6702  1.2440
    8CHTO  C121 3012   6.230   8.739   2.001  0.2842  0.5018  0.2174
    8CHTO  H225 3013   6.196   8.634   2.007  1.1135  0.2601  0.9226
    8CHTO   O81 3014   6.146   8.826   2.079 -0.0968  0.2720 -0.0087
    8CHTO  H202 3015   6.173   8.915   2.067  0.4975  0.2498  1.1590
    8CHTO  C119 3016   6.231   8.781   1.849 -0.5981  0.2263 -0.7745
    8CHTO  H223 3017   6.128   8.803   1.822  0.0419  1.0052 -2.6957
    8CHTO  C117 3018   6.294   8.669   1.748 -0.1932 -0.4685  0.1558
    8CHTO  H221 3019   6.332   8.709   1.654  0.9481  1.2145  1.2804
    8CHTO   N20 3020   6.190   8.563   1.713  0.1073 -0.1262 -0.1811
    8CHTO  H209 3021   6.235   8.466   1.701 -1.9658 -1.0466 -0.7967
    8CHTO  H210 3022   6.146   8.585   1.617 -1.2670 -2.3331 -0.0863
    8CHTO   O80 3023   6.301   8.919   1.833 -0.5757  0.0957 -0.0105
    8CHTO  C103 3024   6.212   9.041   1.830  0.1572 -0.2765 -0.0967
    8CHTO  H190 3025   6.105   9.021   1.827  0.0824  0.3921 -2.0703
    8CHTO  C101 3026   6.229   9.152   1.940 -0.2164  0.0756 -0.1241
    8CHTO  H188 3027   6.335   9.145   1.963 -0.0958 -2.4192 -1.2444
    8CHTO   O68 3028   6.155   9.106   2.072 -0.2676  0.1128  0.3625
    8CHTO  H168 3029   6.164   9.172   2.138 -0.6348  0.2459  0.2782
    8CHTO   C99 3030   6.189   9.300   1.898  0.6012 -0.1298  0.1463
    8CHTO  H186 3031   6.079   9.313   1.891  0.9254  2.0306 -1.5799
    8CHTO   N17 3032   6.228   9.409   1.996 -0.2827  0.3232  0.5419
    8CHTO  H174 3033   6.331   9.439   1.991 -0.5335  1.3271  1.3594
    8CHTO  H175 3034   6.163   9.494   1.983 -1.1433 -0.1978  1.3011
    8CHTO   C97 3035   6.244   9.325   1.754 -0.5416  0.5149 -0.2689
    8CHTO  H184 3036   6.353   9.322   1.766 -0.5600 -0.7973 -0.3470
    8CHTO   O64 3037   6.198   9.225   1.665  0.8920 -0.3040 -0.0562
    8CHTO  C104 3038   6.254   9.098   1.685 -0.1009  0.5545 -0.0692
    8CHTO  H191 3039   6.363   9.096   1.691 -0.0495 -0.8944 -1.0879
    8CHTO  C108 3040   6.217   9.002   1.575  0.2281  0.2386 -0.1800
    8CHTO   O71 3041   6.078   9.006   1.543 -0.2507 -0.3051  0.5940
    8CHTO  H171 3042   6.036   8.926   1.569  1.9255 -1.6598  0.0679
    8CHTO   O62 3043   6.213   9.449   1.692  0.5015 -0.6640  0.2060
    8CHTO   C91 3044   6.283   9.483   1.571 -0.8592  0.2818  0.2135
    8CHTO  H178 3045   6.359   9.407   1.554  0.6966  1.4740  1.6159
    8CHTO   C92 3046   6.356   9.614   1.601  0.1893  0.2943 -0.1633
    8CHTO  H179 3047   6.283   9.678   1.653  0.3719 -0.6799  1.3081
    8CHTO   O66 3048   6.460   9.585   1.695 -0.0726 -0.6599  0.2330
    8CHTO  H166 3049   6.491   9.666   1.730  0.0569  0.4821 -2.3934
    8CHTO   C93 3050   6.409   9.694   1.478  1.0533 -0.8424 -0.1306
    8CHTO  H180 3051   6.490   9.630   1.441 -0.1511 -3.6901  1.9203
    8CHTO   N16 3052   6.452   9.831   1.516 -0.4972 -0.2970 -0.0704
    8CHTO  H172 3053   6.559   9.819   1.525 -0.5042 -2.3995 -2.0745
    8CHTO  H173 3054   6.413   9.910   1.454  1.6727 -0.7868 -2.1467
    8CHTO   C94 3055   6.304   9.698   1.367 -0.2266 -0.3631  0.5113
    8CHTO  H181 3056   6.214   9.752   1.398 -0.0219 -0.0510  0.5606
    8CHTO   O61 3057   6.257   9.568   1.335  0.2401  0.1915  0.0730
    8CHTO   C95 3058   6.192   9.500   1.444  0.1830  0.2191 -0.0634
    8CHTO  H182 3059   6.105   9.558   1.476  0.3083 -0.6148  1.8144
    8CHTO  C106 3060   6.144   9.363   1.391  0.1179 -0.1463  0.5070
    8CHTO   O69 3061   6.044   9.374   1.293 -0.1275 -0.7943 -0.3228
    8CHTO  H169 3062   6.031   9.291   1.251 -1.8554  0.0389 -1.4469
    8CHTO   O63 3063   6.374   9.748   1.231 -0.3562 -0.0082  0.2131
    8CHTO   C96 3064   6.291   9.752   1.102 -0.6907  0.2906 -0.1403
    8CHTO  H183 3065   6.203   9.689   1.117 -2.0317  2.3413  0.7101
    8CHTO   C98 3066   6.365   9.684   0.982 -0.1717  0.7531  0.0899
    8CHTO  H185 3067   6.469   9.721   0.983  0.9686 -2.2841  0.5988
    8CHTO   O67 3068   6.380   9.539   1.006 -0.3488 -0.4835 -0.0910
    8CHTO  H167 3069   6.423   9.501   0.932  0.0035  1.1743 -0.7520
    8CHTO  C102 3070   6.293   9.708   0.834 -0.3847 -0.2638 -0.2494
    8CHTO  H189 3071   6.206   9.641   0.827 -1.1288  0.9368 -3.0940
    8CHTO   N18 3072   6.373   9.670   0.715  0.6066 -0.2400 -0.4044
    8CHTO  H176 3073   6.474   9.708   0.723 -0.2707  2.3959 -1.2643
    8CHTO  H177 3074   6.362   9.571   0.676 -1.0708 -0.9216  1.6847
    8CHTO  C105 3075   6.228   9.851   0.824  0.2663  0.4345  0.2271
    8CHTO  H192 3076   6.306   9.919   0.791  1.2939  0.1255  1.9398
    8CHTO   O65 3077   6.172   9.898   0.952 -0.5255 -0.1664 -0.2641
    8CHTO  C100 3078   6.258   9.901   1.065  0.1493 -0.2031 -0.1392
    8CHTO  H187 3079   6.343   9.959   1.026 -0.3849  1.9858  1.8381
    8CHTO  C107 3080   6.196   9.978   1.181 -0.1941 -0.0822  0.1200
    8CHTO   O70 3081   6.071   9.925   1.224  0.7388  0.2574  0.2440
    8CHTO  H170 3082   6.005   9.990   1.209 -0.7410  0.1721  5.5387
    8CHTO   O57 3083   6.111   9.834   0.720  0.8270  0.9031  0.4564
    8CHTO   C85 3084   6.076   9.953   0.637 -0.1104  0.1412 -0.2349
    8CHTO  H157 3085   6.167   9.991   0.586 -1.1253  1.5422 -1.0220
    8CHTO   C83 3086   6.010  10.065   0.722 -0.4257 -0.1111 -0.2270
    8CHTO  H155 3087   6.084  10.101   0.794  1.5747 -2.6547 -0.9232
    8CHTO   O56 3088   5.904  10.009   0.810  0.1314  0.2918  0.7621
    8CHTO  H135 3089   5.897  10.046   0.896 -0.6327  0.7891  0.4881
    8CHTO   C81 3090   5.972  10.188   0.626  0.1286  0.6758  0.7587
    8CHTO  H153 3091   6.051  10.214   0.555 -0.0518  0.2516  0.4071
    8CHTO   N14 3092   5.938  10.311   0.702 -0.5922  0.7595 -0.4613
    8CHTO  H141 3093   5.913  10.279   0.801  0.1793 -0.7410 -0.7492
    8CHTO  H142 3094   5.864  10.373   0.656 -0.3044  2.7802  1.6859
    8CHTO   C79 3095   5.854  10.142   0.536  0.6751 -0.0468 -0.0302
    8CHTO  H151 3096   5.836  10.218   0.460  1.2221 -0.2258 -0.3367
    8CHTO   O52 3097   5.912  10.035   0.453 -1.1557  0.0185  0.1576
    8CHTO   C86 3098   5.961   9.920   0.525 -0.5992  0.1920 -0.0378
    8CHTO  H158 3099   5.865   9.880   0.564  0.8927 -2.6917  0.8344
    8CHTO   C90 3100   6.014   9.823   0.428 -0.0501 -0.4915 -0.2431
    8CHTO   O60 3101   6.116   9.883   0.353  0.5026 -0.2691  0.1196
    8CHTO  H138 3102   6.120   9.845   0.268  0.7566  2.4746 -1.1494
    8CHTO   O50 3103   5.733  10.082   0.590  0.4504 -0.4735  0.6744
    8CHTO   C73 3104   5.592  10.054   0.559 -0.7979  1.0040  0.5493
    8CHTO  H145 3105   5.578  10.015   0.458 -1.3348  0.2011  0.9311
    8CHTO   C74 3106   5.510  10.192   0.572  0.7322  0.0153  0.1423
    8CHTO  H146 3107   5.551  10.267   0.503  0.1733  0.7684  0.6201
    8CHTO   O54 3108   5.384  10.166   0.507  0.0205 -0.5276 -0.1294
    8CHTO  H133 3109   5.315  10.220   0.542 -1.7958 -3.0204  0.2966
    8CHTO   C75 3110   5.497  10.251   0.711  0.5563  0.1217  0.3499
    8CHTO  H147 3111   5.596  10.293   0.734  0.8658 -0.5164  0.1645
    8CHTO   N13 3112   5.415  10.370   0.752  0.3237  0.4763 -0.5822
    8CHTO  H139 3113   5.369  10.409   0.663  1.0631  1.0182 -0.7330
    8CHTO  H140 3114   5.480  10.452   0.780  2.1867 -1.0949 -0.1451
    8CHTO   C76 3115   5.469  10.132   0.819  0.6175 -0.1846  0.4861
    8CHTO  H148 3116   5.361  10.115   0.814  0.4368  1.0797 -0.2033
    8CHTO   O49 3117   5.535  10.013   0.788 -0.4768 -0.9272 -0.7178
    8CHTO   C77 3118   5.532   9.957   0.661  0.0875 -0.5234 -0.0157
    8CHTO  H149 3119   5.429   9.944   0.631 -0.0230  2.1054 -0.9189
    8CHTO   C88 3120   5.598   9.810   0.662 -0.2712  0.0625 -0.3386
    8CHTO   O58 3121   5.565   9.748   0.561 -0.1044 -0.2530  0.0369
    8CHTO  H136 3122   5.610   9.668   0.542 -2.5106 -1.4069 -1.0215
    8CHTO   O51 3123   5.509  10.184   0.971  0.0947 -0.2202  0.2273
    8CHTO   C78 3124   5.502  10.065   1.072  1.0450 -0.1331  0.7056
    8CHTO  H150 3125   5.519   9.965   1.026  2.5982  0.5299 -0.1831
    8CHTO   C80 3126   5.361  10.062   1.145  0.0257  0.1711 -0.0767
    8CHTO  H152 3127   5.335  10.163   1.183 -2.0006 -1.3056  2.7030
    8CHTO   O55 3128   5.261  10.027   1.048 -0.4135  0.1674  0.1843
    8CHTO  H134 3129   5.226  10.099   0.999 -0.4194  0.6875  0.9407
    8CHTO   C84 3130   5.367   9.965   1.274  0.2478 -0.4670  0.1366
    8CHTO  H156 3131   5.374   9.860   1.244  0.6608 -0.2712 -0.4661
    8CHTO   N15 3132   5.240   9.968   1.354  0.2146 -0.1351  0.3825
    8CHTO  H143 3133   5.159   9.935   1.291  0.7241 -1.2709  0.2959
    8CHTO  H144 3134   5.219  10.066   1.391 -0.3004 -0.7704  1.8553
    8CHTO   C87 3135   5.494  10.002   1.361  0.2799  0.2919 -0.3374
    8CHTO  H159 3136   5.487  10.109   1.383  0.1907  0.1128  0.5238
    8CHTO   O53 3137   5.621   9.984   1.278 -0.3248  0.0465  1.0817
    8CHTO   C82 3138   5.616  10.089   1.173 -0.1600  0.2530 -0.1210
    8CHTO  H154 3139   5.605  10.188   1.218  1.5245  0.6207 -0.4805
    8CHTO   C89 3140   5.752  10.084   1.101  0.2994 -0.2804 -0.0001
    8CHTO   O59 3141   5.779   9.959   1.053  0.2290 -0.3205  0.0256
    8CHTO  H137 3142   5.837   9.955   0.979 -0.0115 -0.3305 -0.1632
    8CHTO   O45 3143   5.495   9.908   1.490 -0.1257 -0.1454 -0.0342
    8CHTO   C67 3144   5.542   9.773   1.474  0.4544  1.1292  0.0383
    8CHTO  H124 3145   5.498   9.741   1.379 -4.0265 -0.3543  2.4989
    8CHTO   C65 3146   5.695   9.756   1.475 -0.3160  0.4356 -0.8938
    8CHTO  H122 3147   5.731   9.856   1.451 -1.1389  0.7499 -0.8533
    8CHTO   O44 3148   5.739   9.679   1.361  0.2863  0.0666 -0.0744
    8CHTO  H102 3149   5.832   9.676   1.344  0.7324  1.5438  1.9685
    8CHTO   C63 3150   5.751   9.712   1.622 -0.7225  0.7255 -0.0757
    8CHTO  H120 3151   5.729   9.788   1.697  2.2863 -0.4104  2.0481
    8CHTO   N11 3152   5.903   9.717   1.648  0.3500 -0.0726 -0.3726
    8CHTO  H108 3153   5.947   9.623   1.672  1.3988  0.8386  1.3743
    8CHTO  H109 3154   5.955   9.778   1.577 -1.7953  0.8413 -1.2349
    8CHTO   C61 3155   5.683   9.572   1.653 -0.0702 -0.4986 -0.3384
    8CHTO  H118 3156   5.698   9.541   1.757 -0.0453 -1.6200 -0.6739
    8CHTO   O40 3157   5.537   9.567   1.625  0.7460 -0.0729  0.3721
    8CHTO   C68 3158   5.470   9.687   1.591  0.4381 -0.2168  0.4574
    8CHTO  H125 3159   5.467   9.758   1.676 -1.5689 -0.4593  0.6150
    8CHTO   C72 3160   5.314   9.647   1.567 -0.7512 -0.6581 -0.0659
    8CHTO   O48 3161   5.291   9.532   1.492 -0.2811  0.0452  0.4112
    8CHTO  H105 3162   5.207   9.490   1.495  0.1683 -1.0672 -1.5389
    8CHTO   O38 3163   5.750   9.468   1.574  0.3584 -0.1546  0.0727
    8CHTO   C55 3164   5.703   9.338   1.593 -0.0935 -0.1070  0.1509
    8CHTO  H112 3165   5.601   9.337   1.634  0.0825 -1.8819  0.5668
    8CHTO   C56 3166   5.803   9.249   1.689  0.5269 -0.2013  0.1309
    8CHTO  H113 3167   5.902   9.240   1.641  1.3872 -1.2068  2.0179
    8CHTO   O42 3168   5.815   9.321   1.814 -0.7462  0.0489  0.0270
    8CHTO  H100 3169   5.900   9.362   1.815 -1.3655  1.3776  2.2119
    8CHTO   C57 3170   5.732   9.103   1.710 -0.3471  0.0570 -0.2009
    8CHTO  H114 3171   5.633   9.115   1.753  0.1524 -0.0499  1.0026
    8CHTO   N10 3172   5.817   9.016   1.800 -0.9499  0.1542  0.0159
    8CHTO  H106 3173   5.923   9.037   1.793 -0.4275 -1.7431  1.7714
    8CHTO  H107 3174   5.782   9.018   1.903 -2.8386 -1.7209 -0.5564
    8CHTO   C58 3175   5.715   9.035   1.573  0.3783  0.0330 -0.3978
    8CHTO  H115 3176   5.815   9.009   1.534  0.6082  2.2377 -1.3704
    8CHTO   O37 3177   5.646   9.121   1.490 -0.1396  0.0954 -0.3891
    8CHTO   C59 3178   5.705   9.252   1.465 -0.1075 -0.5279  0.3014
    8CHTO  H116 3179   5.802   9.242   1.415 -0.1627 -0.3966  0.1702
    8CHTO   C70 3180   5.609   9.325   1.364 -0.7023 -0.2324  0.6771
    8CHTO   O46 3181   5.566   9.255   1.252 -0.0009 -0.0239 -0.5496
    8CHTO  H103 3182   5.497   9.192   1.261 -1.3101  1.3626 -0.7367
    8CHTO   O39 3183   5.609   8.899   1.586  0.7858  0.0066  0.2205
    8CHTO   C60 3184   5.471   8.909   1.616 -0.2537 -0.1496  0.4219
    8CHTO  H117 3185   5.451   8.998   1.675  0.9114  0.1223  0.4168
    8CHTO   C62 3186   5.383   8.922   1.490 -0.1507  0.0503  0.1451
    8CHTO  H119 3187   5.408   9.019   1.442 -1.7191  0.7220  0.6416
    8CHTO   O43 3188   5.410   8.818   1.390  0.1053 -0.0206  0.2998
    8CHTO  H101 3189   5.350   8.747   1.396 -0.6782  0.3386 -2.4584
    8CHTO   C66 3190   5.232   8.921   1.539  0.5189  0.1642  0.1575
    8CHTO  H123 3191   5.215   9.002   1.609  0.4501 -0.0083  0.3394
    8CHTO   N12 3192   5.144   8.943   1.424  0.3426 -0.2438 -0.1673
    8CHTO  H110 3193   5.058   9.003   1.450  0.5635  1.6557 -3.6148
    8CHTO  H111 3194   5.133   8.858   1.358  0.6158 -1.0565  0.8075
    8CHTO   C69 3195   5.206   8.791   1.623  0.1177  0.5216  0.4027
    8CHTO  H126 3196   5.219   8.713   1.544  1.1466  2.2709 -1.1936
    8CHTO   O41 3197   5.306   8.792   1.746  0.0080  0.5607  0.1395
    8CHTO   C64 3198   5.433   8.786   1.705  0.8393 -0.9284 -0.0675
    8CHTO  H121 3199   5.446   8.699   1.638  0.3589 -0.6507 -0.5269
    8CHTO   C71 3200   5.524   8.767   1.822 -0.1641 -0.2362 -0.4225
    8CHTO   O47 3201   5.500   8.640   1.892  0.1806 -0.5115 -0.3194
    8CHTO  H104 3202   5.566   8.578   1.868  0.4693 -0.6004  0.6722
    8CHTO   O34 3203   5.054   8.788   1.673 -0.1415  0.2464 -0.1740
    8CHTO   C49 3204   4.977   8.853   1.777  0.0556  0.4035  0.6762
    8CHTO   H91 3205   4.991   8.787   1.863  2.5725 -2.8829 -2.1098
    8CHTO   C47 3206   4.821   8.852   1.734 -0.8037  0.9814  0.0682
    8CHTO   H89 3207   4.773   8.890   1.826  1.5017  1.9640  0.9009
    8CHTO   O33 3208   4.789   8.711   1.718  0.1302  0.1803 -0.1767
    8CHTO   H70 3209   4.708   8.708   1.670 -0.9764 -0.1496  1.6480
    8CHTO   C45 3210   4.804   8.944   1.604 -0.3230  0.0478 -0.2786
    8CHTO   H87 3211   4.867   8.900   1.526 -0.7257  0.1604 -0.6702
    8CHTO    N8 3212   4.669   8.949   1.549  0.2705  0.1386 -0.2869
    8CHTO   H75 3213   4.603   9.004   1.616 -2.5203 -2.8999 -0.4164
    8CHTO   H76 3214   4.629   8.850   1.538 -1.4528  0.8906 -1.0268
    8CHTO   C43 3215   4.870   9.095   1.635  1.3152 -0.0823 -0.0671
    8CHTO   H85 3216   4.879   9.144   1.538  0.7942 -1.2635 -0.7273
    8CHTO   O29 3217   4.992   9.088   1.704 -0.3185  0.4574 -0.2040
    8CHTO   C50 3218   5.013   8.996   1.813 -0.1329  0.1053 -0.1531
    8CHTO   H92 3219   5.119   8.996   1.843  0.2280 -1.3164 -1.3442
    8CHTO   C54 3220   4.945   9.048   1.948 -0.1478  0.4315  0.2241
    8CHTO   O36 3221   4.961   8.946   2.053 -0.5720 -0.1139  0.5365
    8CHTO   H72 3222   5.018   8.993   2.111 -1.0561  1.8016 -0.5111
    8CHTO   O27 3223   4.780   9.176   1.705 -0.1566  0.0899 -0.1355
    8CHTO   C37 3224   4.741   9.312   1.706 -0.8298  0.1246 -0.5049
    8CHTO   H79 3225   4.683   9.330   1.798  0.1665  2.7696 -0.3464
    8CHTO   C38 3226   4.871   9.401   1.724 -0.6061  0.1976 -0.7530
    8CHTO   H80 3227   4.940   9.379   1.641  0.2970 -0.1972  0.0838
    8CHTO   O31 3228   4.928   9.354   1.852 -0.4991 -0.5355  0.4039
    8CHTO   H68 3229   4.982   9.277   1.846 -1.8682 -1.6546  1.8352
    8CHTO   C39 3230   4.838   9.558   1.723  0.0307 -0.1947 -0.3997
    8CHTO   H81 3231   4.789   9.574   1.819  3.1124  0.5283  1.0850
    8CHTO    N7 3232   4.960   9.647   1.727  0.2604  0.3108 -0.3528
    8CHTO   H73 3233   4.974   9.724   1.654 -0.8857  1.9317  1.0897
    8CHTO   H74 3234   4.968   9.678   1.830 -1.7994  2.9094 -0.9314
    8CHTO   C40 3235   4.734   9.591   1.609 -0.1216  0.0976 -0.2820
    8CHTO   H82 3236   4.785   9.597   1.512  4.1047 -1.9179  1.6962
    8CHTO   O26 3237   4.626   9.495   1.602  0.3175 -0.2092 -0.9585
    8CHTO   C41 3238   4.668   9.357   1.581  0.2145  0.2612  0.8560
    8CHTO   H83 3239   4.728   9.356   1.489  0.6160 -1.0253  1.1339
    8CHTO   C52 3240   4.548   9.265   1.554 -0.5098  0.4653  0.6574
    8CHTO   O35 3241   4.489   9.303   1.436 -0.1834  1.2458  0.5547
    8CHTO   H71 3242   4.481   9.233   1.375 -0.8895  1.5840  0.2520
    8CHTO   O28 3243   4.672   9.722   1.625 -0.2280  0.0707  0.2037
    8CHTO   C42 3244   4.607   9.799   1.517 -0.8950 -0.3438  0.2899
    8CHTO   H84 3245   4.562   9.878   1.577 -0.1547  0.4604 -0.2025
    8CHTO   C44 3246   4.490   9.725   1.437 -0.0302  0.9433 -0.9381
    8CHTO   H86 3247   4.526   9.631   1.395 -1.9879 -0.1592 -0.2235
    8CHTO   O32 3248   4.397   9.696   1.538 -0.1891 -0.3844 -0.2705
    8CHTO   H69 3249   4.320   9.648   1.515 -2.2245  2.5734  0.1497
    8CHTO   C48 3250   4.434   9.808   1.324 -0.1168 -0.6371  0.2491
    8CHTO   H90 3251   4.374   9.890   1.363 -0.1299  0.3936 -1.8820
    8CHTO    N9 3252   4.336   9.735   1.231 -0.5065 -0.6331  0.1175
    8CHTO   H77 3253   4.286   9.654   1.282  0.4278 -2.6880 -2.1859
    8CHTO   H78 3254   4.380   9.701   1.139 -1.9266 -0.3856 -0.6580
    8CHTO   C51 3255   4.548   9.878   1.236  0.3324 -0.0994  0.3831
    8CHTO   H93 3256   4.599   9.792   1.192 -0.1223  0.3512 -1.0428
    8CHTO   O30 3257   4.637   9.953   1.316 -0.2270  0.0022 -0.3640
    8CHTO   C46 3258   4.707   9.862   1.421  1.3434 -0.3148  0.2827
    8CHTO   H88 3259   4.759   9.789   1.360  2.0951  0.6628 -0.2632
    8CHTO   C53 3260   4.806   9.949   1.502 -0.0200 -0.2557  0.3647
    8CHTO   O72 3261   4.921   9.965   1.420  0.4032  0.7934  0.0904
    8CHTO  H199 3262   4.974  10.033   1.456  2.1200 -0.4746  0.0781
    8CHTO   O22 3263   4.501   9.974   1.140  0.3731  0.1048 -0.0920
    8CHTO   C31 3264   4.589  10.019   1.028  0.4206  0.2592 -0.1640
    8CHTO   H59 3265   4.529  10.095   0.975 -1.2156 -0.2466  0.9169
    8CHTO   C29 3266   4.722  10.080   1.066 -0.2769 -0.8224 -0.5612
    8CHTO   H57 3267   4.781  10.014   1.131 -0.8007 -0.2242  0.5409
    8CHTO   O21 3268   4.683  10.192   1.151 -0.2884  0.1207  0.3202
    8CHTO   H37 3269   4.609  10.236   1.113  0.8396  0.1402 -1.9589
    8CHTO   C27 3270   4.802  10.131   0.934  0.6788  0.3140 -0.8912
    8CHTO   H55 3271   4.737  10.190   0.868 -0.2196 -0.7617 -0.9898
    8CHTO    N5 3272   4.924  10.222   0.969 -0.4778  0.0586  0.3211
    8CHTO   H43 3273   4.888  10.322   0.990  0.2648  0.3855  0.0480
    8CHTO   H44 3274   4.989  10.219   0.883 -0.1747 -3.9156  0.5706
    8CHTO   C25 3275   4.834   9.996   0.858  0.2651 -0.6260  0.1841
    8CHTO   H53 3276   4.888   9.928   0.925  1.2216 -2.3951 -2.2824
    8CHTO   O17 3277   4.706   9.939   0.816 -0.0688 -0.3055 -0.7107
    8CHTO   C32 3278   4.617   9.900   0.927 -0.0705  0.0837  0.1041
    8CHTO   H60 3279   4.669   9.825   0.986 -0.1831 -1.2416 -1.4501
    8CHTO   C36 3280   4.482   9.840   0.884 -0.1520 -0.0567  0.0532
    8CHTO   O25 3281   4.416   9.920   0.781 -0.0404 -0.5788  0.0154
    8CHTO   H40 3282   4.332   9.884   0.765 -0.7491  0.7046  0.7499
    8CHTO   O15 3283   4.924  10.015   0.752 -0.4486  0.0962  0.1116
    8CHTO   C19 3284   4.966   9.941   0.630 -0.2886 -0.0334  0.1659
    8CHTO   H47 3285   4.891   9.862   0.617  0.3650 -0.4376 -1.3465
    8CHTO   C20 3286   4.967  10.039   0.506 -0.2011  0.2995  0.3445
    8CHTO   H48 3287   5.028  10.129   0.524 -3.6152  2.7140  0.3863
    8CHTO   O19 3288   4.835  10.089   0.490 -0.2521 -0.4017 -0.2919
    8CHTO   H35 3289   4.845  10.182   0.483 -3.7223  0.1329  0.7626
    8CHTO   C21 3290   5.013   9.965   0.372 -1.0392  0.0990  0.1834
    8CHTO   H49 3291   4.932   9.900   0.339  0.1063 -0.7304 -1.0669
    8CHTO    N4 3292   5.033  10.054   0.252  0.2406 -0.6009 -0.1417
    8CHTO   H41 3293   4.952  10.126   0.248  1.0393  0.3528  0.8019
    8CHTO   H42 3294   5.037   9.992   0.163  0.6119 -0.3997 -0.2655
    8CHTO   C22 3295   5.141   9.877   0.394  0.8830 -0.5003 -0.3234
    8CHTO   H50 3296   5.226   9.945   0.387  0.3783 -0.0696 -2.6730
    8CHTO   O14 3297   5.140   9.807   0.519  0.1830  0.0953  0.1043
    8CHTO   C23 3298   5.104   9.869   0.644 -0.2949 -0.3975  0.8378
    8CHTO   H51 3299   5.185   9.940   0.667 -1.8676  1.3655  1.0654
    8CHTO   C34 3300   5.103   9.756   0.749 -0.5835  0.6780 -0.3256
    8CHTO   O23 3301   4.987   9.668   0.735  0.0019 -0.2410  0.1372
    8CHTO   H38 3302   4.907   9.717   0.726  1.1356  1.3794 -1.5524
    8CHTO   O16 3303   5.146   9.767   0.298 -0.0467  0.2157 -0.1301
    8CHTO   C24 3304   5.275   9.690   0.275  0.3156  0.0877  0.2940
    8CHTO   H52 3305   5.321   9.656   0.368  0.1549 -1.4554 -0.1724
    8CHTO   C26 3306   5.385   9.772   0.208  0.7329 -0.1435  0.1960
    8CHTO   H54 3307   5.338   9.829   0.125  0.7472 -1.8980 -1.0642
    8CHTO   O20 3308   5.441   9.866   0.306  0.2556  0.4909  0.1033
    8CHTO   H36 3309   5.486   9.940   0.269  0.9422 -0.0217 -0.1098
    8CHTO   C30 3310   5.508   9.688   0.152  0.4543 -0.9153  0.1387
    8CHTO   H58 3311   5.565   9.639   0.232 -1.6319 -1.7190  1.1661
    8CHTO    N6 3312   5.588   9.779   0.065  0.0368 -0.1977 -0.1196
    8CHTO   H45 3313   5.679   9.802   0.118 -0.0354 -1.0305  0.3757
    8CHTO   H46 3314   5.533   9.870   0.047 -2.3577 -1.0330  2.5403
    8CHTO   C33 3315   5.462   9.561   0.077  0.1273  0.3010  0.0279
    8CHTO   H61 3316   5.411   9.595  -0.014 -1.4338  0.9093  1.1053
    8CHTO   O18 3317   5.367   9.490   0.158 -0.3767  0.3641 -0.2219
    8CHTO   C28 3318   5.250   9.563   0.185  0.1931  0.3848 -0.3057
    8CHTO   H56 3319   5.208   9.591   0.089  1.1432 -0.2732 -0.9177
    8CHTO   C35 3320   5.179   9.451   0.256  0.3020  0.0831  0.1401
    8CHTO   O24 3321   5.062   9.498   0.316  0.1408 -0.0558 -0.3630
    8CHTO   H39 3322   5.047   9.586   0.289 -0.7548 -0.2419 -0.4905
    8CHTO    O9 3323   5.566   9.475   0.035 -0.4355  0.1301 -0.4791
    8CHTO   C13 3324   5.516   9.356  -0.053 -0.7299  0.3552 -0.3232
    8CHTO   H26 3325   5.428   9.400  -0.105  0.2693  0.4802 -1.9339
    8CHTO   C11 3326   5.479   9.220   0.024  0.7145  0.1389 -0.1841
    8CHTO   H24 3327   5.373   9.214   0.054  0.5242  0.5503 -0.7546
    8CHTO    O8 3328   5.546   9.219   0.146 -0.0256  0.1962  0.8553
    8CHTO    H3 3329   5.513   9.295   0.190 -0.2881  1.7865 -1.9637
    8CHTO    C9 3330   5.514   9.093  -0.059 -0.0855 -0.5044 -0.5342
    8CHTO   H22 3331   5.451   9.107  -0.148 -0.7006 -1.9304 -0.3270
    8CHTO    N2 3332   5.477   8.963   0.005 -0.2056 -0.0559 -0.1400
    8CHTO   H10 3333   5.562   8.900   0.024  0.5218  1.1899  0.8608
    8CHTO   H11 3334   5.390   8.915  -0.037 -0.8438  1.8392 -1.0165
    8CHTO    C7 3335   5.668   9.100  -0.093  0.1447 -0.4331 -0.3814
    8CHTO   H20 3336   5.683   9.033  -0.181 -3.4116  1.6105 -2.6703
    8CHTO    O4 3337   5.712   9.232  -0.126  0.1024  0.3229 -0.1013
    8CHTO   C14 3338   5.614   9.327  -0.172  0.0278 -0.4987  0.1049
    8CHTO   H27 3339   5.556   9.277  -0.252 -2.0891  0.1445  1.1955
    8CHTO   C18 3340   5.675   9.456  -0.230  0.6305 -0.0016 -0.1539
    8CHTO   O13 3341   5.754   9.430  -0.351  0.0471 -0.0414 -0.4789
    8CHTO    H7 3342   5.826   9.374  -0.329  1.8527  2.0222 -0.9288
    8CHTO    O2 3343   5.774   9.034   0.035 -0.2696  0.6912  0.1557
    8CHTO    C1 3344   5.918   9.048   0.012 -0.5933  0.4975  0.4231
    8CHTO   H14 3345   5.945   9.156   0.009  2.5393 -0.2652 -1.0724
    8CHTO    C2 3346   5.987   8.972  -0.114 -0.4507 -0.2297 -0.2736
    8CHTO   H15 3347   5.950   8.868  -0.117  1.2399 -0.8074 -3.0506
    8CHTO    O6 3348   5.944   9.042  -0.228 -0.4558 -0.0452  0.2346
    8CHTO    H1 3349   5.852   9.024  -0.227 -0.3212 -0.9603 -2.1361
    8CHTO    C3 3350   6.143   8.971  -0.109  0.4440  0.7449  0.5760
    8CHTO   H16 3351   6.175   9.075  -0.130 -0.6128  0.9650  0.0528
    8CHTO    N1 3352   6.206   8.887  -0.217  0.6265 -0.1551  0.8109
    8CHTO    H8 3353   6.142   8.799  -0.218  0.2509  0.1149  0.2105
    8CHTO    H9 3354   6.312   8.868  -0.208  1.4827  2.9824 -1.7320
    8CHTO    C4 3355   6.194   8.931   0.028 -0.4823 -0.1459  0.0966
    8CHTO   H17 3356   6.168   8.827   0.049 -0.7875 -0.3933 -1.4025
    8CHTO    O1 3357   6.135   9.019   0.125 -0.1808 -0.0382 -0.0352
    8CHTO    C5 3358   5.997   8.997   0.136  0.5055 -0.0232 -0.2615
    8CHTO   H18 3359   5.982   8.889   0.136  1.4876 -0.1582  0.2355
    8CHTO   C16 3360   5.940   9.051   0.267 -0.2791 -0.1721 -0.4037
    8CHTO   O11 3361   5.981   8.970   0.377  0.0750  0.1551 -0.0779
    8CHTO    H5 3362   6.051   9.003   0.429  1.1946 -0.3385 -1.2529
    8CHTO    O3 3363   6.339   8.941   0.053  0.8366  0.3640  0.7314
    8CHTO    C6 3364   6.395   8.863   0.168 -0.3966  0.2143  0.3869
    8CHTO   H19 3365   6.314   8.856   0.240 -1.2479 -0.4179 -0.6203
    8CHTO    C8 3366   6.440   8.718   0.123  0.5746 -0.0687  0.0265
    8CHTO   H21 3367   6.526   8.724   0.057 -0.0056 -0.6058 -0.7889
    8CHTO    O7 3368   6.325   8.654   0.064 -0.2007  0.5241 -0.0181
    8CHTO    H2 3369   6.333   8.620  -0.023  0.0356  0.8126 -0.1118
    8CHTO   C12 3370   6.504   8.646   0.247 -0.4945  0.5924 -0.2794
    8CHTO   H25 3371   6.419   8.649   0.319 -0.7872 -0.4162 -0.5815
    8CHTO    N3 3372   6.555   8.505   0.220  0.4398 -0.1001  0.1208
    8CHTO   H12 3373   6.629   8.467   0.289  0.5023 -0.3047 -0.0579
    8CHTO   H13 3374   6.474   8.435   0.207 -2.0001  2.1991  2.2063
    8CHTO   C15 3375   6.623   8.745   0.303 -0.1849  0.1690 -0.4911
    8CHTO   H28 3376   6.707   8.752   0.233  0.4892 -2.8269 -0.0456
    8CHTO   O10 3377   6.683   8.696   0.435 -0.2138  0.0513 -0.1812
    8CHTO    H4 3378   6.629   8.637   0.485 -0.9130  0.5986 -0.2740
    8CHTO    O5 3379   6.569   8.870   0.339 -0.7211 -0.4964  0.3665
    8CHTO   C10 3380   6.514   8.942   0.238  0.2326  0.5949  0.4329
    8CHTO   H23 3381   6.592   8.950   0.163  0.2914 -2.1398  0.1496
    8CHTO   C17 3382   6.460   9.075   0.296  0.3082  0.1418  0.1993
    8CHTO   O12 3383   6.361   9.075   0.402  0.5703  0.0142  0.5886
    8CHTO    H6 3384   6.293   9.015   0.378  2.8392 -3.0044  1.4077
    9CHTO  H203 3385   8.739   4.345   3.876  0.9886  0.1984 -0.8929
    9CHTO   O82 3386   8.788   4.266   3.882 -0.0290 -0.3777 -0.0888
    9CHTO  C123 3387   8.900   4.270   3.791  0.5268  0.8109 -0.3607
    9CHTO  H227 3388   8.983   4.324   3.840 -0.9006  2.3096  0.4623
    9CHTO   O77 3389   8.939   4.125   3.789  0.3069 -0.5249 -0.2990
    9CHTO  C118 3390   9.051   4.091   3.705  0.4923 -0.2688 -0.2030
    9CHTO  H222 3391   9.140   4.149   3.730  0.1687  0.7300 -1.2711
    9CHTO  C125 3392   9.082   3.944   3.726  0.1317 -0.3223 -0.0432
    9CHTO   O84 3393   9.088   3.913   3.870 -0.4761  0.2255  0.2433
    9CHTO  H205 3394   9.174   3.882   3.892 -0.5241  0.5034  0.8426
    9CHTO  C114 3395   9.008   4.131   3.562 -0.0956  0.4995 -0.6002
    9CHTO  H218 3396   8.911   4.086   3.540 -0.0024 -0.6636  1.2544
    9CHTO  C116 3397   8.988   4.284   3.554 -0.1038  0.4916  0.6736
    9CHTO  H220 3398   9.082   4.336   3.585 -1.0564  0.9368  2.9286
    9CHTO   O79 3399   8.963   4.312   3.418 -0.1337 -0.6879 -0.3344
    9CHTO  H201 3400   9.042   4.319   3.367 -1.5787  0.4679 -2.4631
    9CHTO  C120 3401   8.861   4.320   3.646  0.2727 -0.5898  0.4443
    9CHTO  H224 3402   8.778   4.256   3.608 -0.1881 -0.0551  0.5454
    9CHTO   N21 3403   8.821   4.466   3.647  0.2715 -0.0189  0.2785
    9CHTO  H211 3404   8.785   4.498   3.550  1.8796  1.8827  0.2741
    9CHTO  H212 3405   8.747   4.484   3.723 -1.4120  0.1295 -1.3501
    9CHTO   O75 3406   9.113   4.089   3.474  0.3369  0.3471 -0.5870
    9CHTO  C112 3407   9.077   4.009   3.343  0.2683  0.6544 -0.7983
    9CHTO  H216 3408   8.979   4.041   3.305 -1.0047 -0.5033  1.4144
    9CHTO   O73 3409   9.079   3.868   3.382  0.1926 -0.1745  0.7746
    9CHTO  C113 3410   9.043   3.776   3.271 -0.0710 -0.4503  0.5887
    9CHTO  H217 3411   8.943   3.801   3.231 -0.7809 -2.8088  0.7897
    9CHTO  C124 3412   9.041   3.640   3.324 -0.4350  0.2189  0.1465
    9CHTO   O83 3413   8.929   3.631   3.416  0.5045  0.6138  0.3111
    9CHTO  H204 3414   8.848   3.631   3.369  0.2146  2.3342  0.7763
    9CHTO  C109 3415   9.139   3.794   3.153 -1.0835  0.7815  0.3915
    9CHTO  H213 3416   9.237   3.765   3.194 -0.8608 -0.0506 -0.6990
    9CHTO  C110 3417   9.147   3.942   3.110 -0.2100  0.0176 -0.6992
    9CHTO  H214 3418   9.047   3.972   3.078 -0.6027  0.4077  0.8382
    9CHTO   O78 3419   9.247   3.947   3.007  0.1176  0.1178  0.0192
    9CHTO  H200 3420   9.276   4.036   3.008 -1.3719  0.6515 -0.8949
    9CHTO  C111 3421   9.180   4.037   3.231 -0.0290  0.0954  0.0162
    9CHTO  H215 3422   9.277   4.012   3.278 -0.3081  0.1406  0.6175
    9CHTO   N19 3423   9.186   4.186   3.192 -0.2964  0.0457  0.0016
    9CHTO  H207 3424   9.288   4.220   3.204  0.3319 -2.2924  1.7319
    9CHTO  H208 3425   9.118   4.246   3.252 -1.3283 -0.0216 -1.0909
    9CHTO   O74 3426   9.106   3.705   3.044 -0.3218 -0.2563 -0.0604
    9CHTO  C115 3427   9.227   3.604   2.982  0.7195 -0.2292 -0.2983
    9CHTO  H219 3428   9.326   3.647   2.994  0.0024  1.0032  1.3912
    9CHTO   O76 3429   9.235   3.458   3.061 -0.2297  0.0274 -0.3799
    9CHTO  C122 3430   9.110   3.381   3.044  0.4987  0.2893  0.1923
    9CHTO  H226 3431   9.028   3.433   3.094  0.6764  0.0235  0.7699
    9CHTO  C126 3432   9.135   3.251   3.126  0.9361 -0.8401 -0.7405
    9CHTO   O85 3433   9.011   3.181   3.154  0.4842 -0.0851  0.4913
    9CHTO  H206 3434   9.040   3.105   3.200  1.7585  1.2470  1.9920
    9CHTO  C121 3435   9.085   3.354   2.889  1.2350  0.3533  0.0989
    9CHTO  H225 3436   9.170   3.302   2.841  0.1139 -2.2923  0.8856
    9CHTO   O81 3437   8.966   3.268   2.876 -0.1938 -0.4970  0.3666
    9CHTO  H202 3438   8.936   3.278   2.788 -0.8519 -1.5028  0.4792
    9CHTO  C119 3439   9.068   3.501   2.818 -0.2182  0.2712  0.5711
    9CHTO  H223 3440   9.062   3.484   2.711  0.3138 -0.2774  0.6233
    9CHTO  C117 3441   9.192   3.593   2.830  0.1376  0.3747  0.2209
    9CHTO  H221 3442   9.181   3.697   2.801  0.7097  0.7077  1.1731
    9CHTO   N20 3443   9.313   3.542   2.752 -0.2169 -0.4246 -0.2779
    9CHTO  H209 3444   9.395   3.611   2.761  0.8833 -1.7403  0.0710
    9CHTO  H210 3445   9.343   3.439   2.769  1.7286 -0.0654 -1.3986
    9CHTO   O80 3446   8.926   3.573   2.851 -0.2898 -0.5045 -0.0525
    9CHTO  C103 3447   8.859   3.683   2.749  0.3173  0.2903 -0.2062
    9CHTO  H190 3448   8.773   3.730   2.797 -0.1186 -0.3573 -0.3484
    9CHTO  C101 3449   8.950   3.797   2.687  0.7964 -0.0092 -0.4254
    9CHTO  H188 3450   9.046   3.755   2.656  0.3215 -1.4006 -0.0448
    9CHTO   O68 3451   8.983   3.912   2.805 -0.0032 -0.1018  0.2768
    9CHTO  H168 3452   9.041   3.972   2.762  1.8829  0.5703  3.6238
    9CHTO   C99 3453   8.871   3.865   2.563  0.2634  0.5147  0.4159
    9CHTO  H186 3454   8.789   3.930   2.598 -0.1050 -0.2923  1.0792
    9CHTO   N17 3455   8.964   3.951   2.483 -0.4825 -0.4098  0.1457
    9CHTO  H174 3456   9.057   3.972   2.533  0.7480  1.2797 -2.6703
    9CHTO  H175 3457   8.986   3.904   2.388 -1.6207 -0.2369 -0.2208
    9CHTO   C97 3458   8.801   3.763   2.470  0.0555  0.1370 -0.5746
    9CHTO  H184 3459   8.882   3.710   2.417  1.7140  0.4473  1.5831
    9CHTO   O64 3460   8.724   3.675   2.545 -0.6119  0.1563  1.6096
    9CHTO  C104 3461   8.805   3.594   2.634 -0.7000  0.0624  0.4650
    9CHTO  H191 3462   8.892   3.552   2.583 -0.6035  1.9976 -1.0174
    9CHTO  C108 3463   8.722   3.477   2.680  0.3283 -0.8586  0.4130
    9CHTO   O71 3464   8.606   3.512   2.765 -0.3892  0.5281  0.1001
    9CHTO  H171 3465   8.599   3.605   2.776 -1.2181  0.2977  1.6987
    9CHTO   O62 3466   8.713   3.822   2.368 -0.1438 -0.3823  0.1529
    9CHTO   C91 3467   8.687   3.757   2.242 -0.6388  0.6468  0.1610
    9CHTO  H178 3468   8.736   3.660   2.239 -1.3615  0.3163 -3.8989
    9CHTO   C92 3469   8.741   3.849   2.127 -0.6203  0.0477  0.0525
    9CHTO  H179 3470   8.849   3.865   2.144 -0.7573  0.7209  0.2798
    9CHTO   O66 3471   8.726   3.777   2.005  0.0383 -0.2294 -0.1538
    9CHTO  H166 3472   8.795   3.715   1.989  0.0596 -0.6930  1.6053
    9CHTO   C93 3473   8.654   3.985   2.119 -0.5828  0.4679  0.2373
    9CHTO  H180 3474   8.664   4.032   2.020  0.6113  0.5031  0.3637
    9CHTO   N16 3475   8.718   4.085   2.214  0.0616 -0.0999  0.1021
    9CHTO  H172 3476   8.683   4.063   2.314 -1.1437  3.1672  0.4454
    9CHTO  H173 3477   8.826   4.088   2.210  0.1009 -0.3046  1.0126
    9CHTO   C94 3478   8.504   3.960   2.152  0.0291 -0.2850  0.1850
    9CHTO  H181 3479   8.481   3.984   2.256 -0.7220 -0.4778  0.0657
    9CHTO   O61 3480   8.472   3.819   2.128 -0.0501  0.3536  0.3137
    9CHTO   C95 3481   8.537   3.724   2.216  0.7709  0.1226  0.4392
    9CHTO  H182 3482   8.493   3.722   2.315  0.5503  0.6508  0.3539
    9CHTO  C106 3483   8.517   3.579   2.150 -0.3772 -0.5038  0.6395
    9CHTO   O69 3484   8.380   3.547   2.133 -0.2826  0.7129  0.0389
    9CHTO  H169 3485   8.358   3.517   2.219  0.3915 -0.3897 -0.1598
    9CHTO   O63 3486   8.404   4.058   2.054 -0.1763  0.5357 -0.5441
    9CHTO   C96 3487   8.282   4.113   2.123  0.1436 -0.4149 -0.2395
    9CHTO  H183 3488   8.272   4.075   2.224  0.5537 -0.9901 -0.4092
    9CHTO   C98 3489   8.155   4.080   2.040 -0.5029  0.8921  0.2150
    9CHTO  H185 3490   8.170   4.115   1.937 -0.3082  1.2935  0.3774
    9CHTO   O67 3491   8.131   3.934   2.028  0.7665 -0.4688 -0.0099
    9CHTO  H167 3492   8.069   3.906   1.963  0.5359  1.3352 -0.5714
    9CHTO  C102 3493   8.018   4.148   2.099  0.0565  0.0395 -0.2120
    9CHTO  H189 3494   7.988   4.084   2.184 -3.5199 -0.7080 -1.9099
    9CHTO   N18 3495   7.898   4.143   2.017  0.3602 -0.2748 -0.3486
    9CHTO  H176 3496   7.820   4.199   2.068 -0.0371 -1.0171 -0.1300
    9CHTO  H177 3497   7.907   4.189   1.920  0.6807  0.9072  0.2340
    9CHTO  C105 3498   8.053   4.296   2.146  0.3121 -0.3460  0.2852
    9CHTO  H192 3499   8.049   4.363   2.060  2.6657  1.0678  1.2261
    9CHTO   O65 3500   8.175   4.311   2.215  0.0944  0.2063 -0.2628
    9CHTO  C100 3501   8.286   4.269   2.137  0.5094  0.1457  0.3675
    9CHTO  H187 3502   8.270   4.319   2.040 -1.5812  1.0964  1.1620
    9CHTO  C107 3503   8.419   4.321   2.191 -0.2525 -0.1829 -0.3060
    9CHTO   O70 3504   8.473   4.432   2.120 -0.5768 -0.1675  0.4071
    9CHTO  H170 3505   8.528   4.485   2.175 -0.6149 -0.7335  0.9892
    9CHTO   O57 3506   7.953   4.336   2.246 -0.1844  0.3911  0.3988
    9CHTO   C85 3507   7.903   4.468   2.237  0.0043 -0.2362  0.2926
    9CHTO  H157 3508   7.896   4.497   2.130 -1.1693  0.2169  0.4949
    9CHTO   C83 3509   8.002   4.562   2.305 -0.1650  0.5585  0.3163
    9CHTO  H155 3510   8.101   4.549   2.262  0.3667 -1.0561  1.9669
    9CHTO   O56 3511   8.016   4.540   2.448  0.1011  0.4180 -0.0945
    9CHTO  H135 3512   8.045   4.455   2.476  2.3170  0.1530 -2.9116
    9CHTO   C81 3513   7.946   4.707   2.265 -0.0830 -0.3813 -0.4021
    9CHTO  H153 3514   7.929   4.714   2.158 -1.2972  0.2825 -0.1688
    9CHTO   N14 3515   8.054   4.809   2.282  0.0465 -0.1935 -0.2627
    9CHTO  H141 3516   8.051   4.851   2.381  2.3669  2.1313 -1.1198
    9CHTO  H142 3517   8.026   4.892   2.219  0.3860 -0.9626 -1.4352
    9CHTO   C79 3518   7.815   4.735   2.343 -0.2833  0.7887  0.5539
    9CHTO  H151 3519   7.784   4.834   2.311 -0.9405  0.3865 -0.0839
    9CHTO   O52 3520   7.718   4.630   2.297 -0.2315  0.3156 -0.3512
    9CHTO   C86 3521   7.762   4.491   2.310 -1.0649 -0.3523 -0.0560
    9CHTO  H158 3522   7.758   4.467   2.418  0.5380  1.7066  0.4932
    9CHTO   C90 3523   7.661   4.404   2.240 -0.5271 -0.9077 -0.4188
    9CHTO   O60 3524   7.526   4.432   2.289 -0.0446  0.2658 -0.2594
    9CHTO  H138 3525   7.479   4.458   2.212 -0.7956 -3.7309 -1.2219
    9CHTO   O50 3526   7.835   4.748   2.487 -0.3222  0.6431 -0.0718
    9CHTO   C73 3527   7.800   4.814   2.610 -0.4618  0.1119  0.0011
    9CHTO  H145 3528   7.692   4.812   2.629 -1.0510 -0.2410 -3.0637
    9CHTO   C74 3529   7.853   4.960   2.614  0.4394 -0.0588 -0.3474
    9CHTO  H146 3530   7.816   4.995   2.517  2.8653  0.0528 -1.2464
    9CHTO   O54 3531   7.778   5.033   2.713 -0.4423 -0.0032  0.0606
    9CHTO  H133 3532   7.800   5.124   2.711 -1.1300  0.1468 -1.2467
    9CHTO   C75 3533   8.010   4.969   2.629 -0.1812  0.1694  0.0946
    9CHTO  H147 3534   8.053   4.942   2.531  1.1907 -0.2092  0.7932
    9CHTO   N13 3535   8.060   5.108   2.640  0.3570 -0.5091  0.0419
    9CHTO  H139 3536   8.039   5.165   2.551 -1.4872  0.7661  1.2683
    9CHTO  H140 3537   8.165   5.111   2.665  0.6410 -2.2846 -0.8412
    9CHTO   C76 3538   8.072   4.871   2.745  0.2326 -0.4639 -0.4488
    9CHTO  H148 3539   8.032   4.905   2.840  3.4919  0.4867  0.6130
    9CHTO   O49 3540   8.015   4.736   2.712  0.0377 -0.3802 -0.7972
    9CHTO   C77 3541   7.871   4.729   2.722  0.2454  0.5692  0.0207
    9CHTO  H149 3542   7.844   4.769   2.820 -0.3410  2.2121 -0.7936
    9CHTO   C88 3543   7.826   4.577   2.727 -0.6397 -0.3525  0.5107
    9CHTO   O58 3544   7.862   4.496   2.857  1.0102 -0.6707 -0.0005
    9CHTO  H136 3545   7.813   4.541   2.923  1.6812 -0.3260  0.2648
    9CHTO   O51 3546   8.223   4.845   2.748  0.3371 -0.7271  0.4004
    9CHTO   C78 3547   8.280   4.763   2.877 -0.2865 -0.2458 -0.0309
    9CHTO  H150 3548   8.197   4.718   2.935 -0.8628  1.5046  0.5499
    9CHTO   C80 3549   8.351   4.863   2.972 -0.5047  0.3081 -0.8329
    9CHTO  H152 3550   8.422   4.923   2.912  1.1553  0.7032  1.4690
    9CHTO   O55 3551   8.245   4.945   3.021 -0.1833  0.4436  0.2294
    9CHTO  H134 3552   8.262   5.016   3.080 -1.9045  2.0721 -1.2011
    9CHTO   C84 3553   8.417   4.796   3.092  0.3060  0.2546  0.1399
    9CHTO  H156 3554   8.337   4.758   3.156  2.6622 -0.4546  2.7491
    9CHTO   N15 3555   8.495   4.899   3.178  0.7080 -0.0279 -0.0951
    9CHTO  H143 3556   8.432   4.978   3.214 -1.3208 -0.4417 -2.6131
    9CHTO  H144 3557   8.573   4.945   3.122 -0.5994  1.2642 -0.8994
    9CHTO   C87 3558   8.502   4.682   3.030  0.0828 -0.5403 -0.1382
    9CHTO  H159 3559   8.586   4.722   2.973 -0.3419 -0.7495 -0.9175
    9CHTO   O53 3560   8.420   4.586   2.939 -0.7770  0.1519 -0.0541
    9CHTO   C82 3561   8.372   4.654   2.824  0.2634  0.4638  0.7165
    9CHTO  H154 3562   8.454   4.701   2.769  1.8593 -0.6603  2.0898
    9CHTO   C89 3563   8.299   4.549   2.726 -0.0388 -0.1510 -1.0875
    9CHTO   O59 3564   8.385   4.472   2.651 -0.4987  0.6122  0.0996
    9CHTO  H137 3565   8.444   4.530   2.606 -0.3087  0.3326 -0.0101
    9CHTO   O45 3566   8.558   4.596   3.161 -0.1417 -0.0511 -0.4948
    9CHTO   C67 3567   8.609   4.469   3.121 -0.6598 -0.1452  0.7245
    9CHTO  H124 3568   8.533   4.409   3.071  0.2798 -2.5554  2.0725
    9CHTO   C65 3569   8.733   4.482   3.026 -0.5479 -0.4942 -0.3372
    9CHTO  H122 3570   8.779   4.580   3.045  0.6949 -1.3133  1.0021
    9CHTO   O44 3571   8.681   4.475   2.891  0.1123 -0.9247 -0.1771
    9CHTO  H102 3572   8.623   4.545   2.871  1.4175 -0.5933 -3.0534
    9CHTO   C63 3573   8.858   4.384   3.050 -0.4063 -1.0286  0.2301
    9CHTO  H120 3574   8.909   4.421   3.140 -0.2683 -1.2880  0.2605
    9CHTO   N11 3575   8.964   4.388   2.942  0.0252  0.5067  0.4832
    9CHTO  H108 3576   8.942   4.476   2.886 -1.0755  0.6881  1.1826
    9CHTO  H109 3577   9.061   4.403   2.985  1.2152 -1.7698 -1.2613
    9CHTO   C61 3578   8.818   4.243   3.099 -0.4028  0.4104 -0.3585
    9CHTO  H118 3579   8.900   4.195   3.154 -0.1332  1.1242 -0.1455
    9CHTO   O40 3580   8.702   4.252   3.190 -0.4299 -0.9444 -0.2731
    9CHTO   C68 3581   8.657   4.383   3.241 -0.0635 -0.0616 -0.6890
    9CHTO  H125 3582   8.738   4.443   3.289 -0.0185 -1.8333  1.5452
    9CHTO   C72 3583   8.549   4.357   3.348  0.0637 -0.5309  0.2494
    9CHTO   O48 3584   8.479   4.469   3.412  0.9052  0.0673 -0.2277
    9CHTO  H105 3585   8.394   4.483   3.375  1.1058  0.1970 -0.6438
    9CHTO   O38 3586   8.791   4.151   2.988 -0.1326 -0.9085 -0.6393
    9CHTO   C55 3587   8.664   4.077   2.976 -0.5090  0.3380  0.2823
    9CHTO  H112 3588   8.579   4.128   3.023 -0.7629  0.5474 -0.4073
    9CHTO   C56 3589   8.683   3.936   3.037 -0.3635  0.9404  0.2313
    9CHTO  H113 3590   8.768   3.895   2.981  1.2143  1.8220  1.9099
    9CHTO   O42 3591   8.702   3.942   3.178 -0.3177 -0.0222 -0.1634
    9CHTO  H100 3592   8.778   3.993   3.201 -1.0411  0.1880  1.8699
    9CHTO   C57 3593   8.552   3.856   3.018  0.0330  0.3181  0.1807
    9CHTO  H114 3594   8.470   3.895   3.079 -0.3508  2.4024 -1.6260
    9CHTO   N10 3595   8.573   3.709   3.049 -0.3301 -0.6325  0.3395
    9CHTO  H106 3596   8.486   3.662   3.093  1.4236 -1.5696  2.9000
    9CHTO  H107 3597   8.660   3.687   3.109 -1.3613 -2.3132  1.2587
    9CHTO   C58 3598   8.508   3.863   2.870  0.7237 -0.1820 -0.9490
    9CHTO  H115 3599   8.575   3.800   2.809  0.2007 -2.4409  0.7512
    9CHTO   O37 3600   8.499   3.997   2.818  0.3375  0.2113 -0.7292
    9CHTO   C59 3601   8.623   4.067   2.822 -0.3534  0.0641  1.2799
    9CHTO  H116 3602   8.699   4.020   2.759 -0.1709 -1.9480  2.9545
    9CHTO   C70 3603   8.616   4.208   2.760  0.9401 -0.6157  0.0790
    9CHTO   O46 3604   8.634   4.207   2.622  0.2419  0.5997 -0.3534
    9CHTO  H103 3605   8.601   4.283   2.579 -0.8920 -2.4158 -5.1850
    9CHTO   O39 3606   8.346   3.840   2.848  0.2467 -0.0916  0.4082
    9CHTO   C60 3607   8.319   3.702   2.823  0.0369  0.1544 -0.0733
    9CHTO  H117 3608   8.410   3.646   2.802  1.0789  1.6021  0.4426
    9CHTO   C62 3609   8.221   3.630   2.930 -0.1730  0.0141 -0.2813
    9CHTO  H119 3610   8.292   3.634   3.016  0.5227 -0.3222 -0.8354
    9CHTO   O43 3611   8.107   3.706   2.963  0.5814 -0.3068  0.1337
    9CHTO  H101 3612   8.045   3.710   2.893 -1.2126 -1.1747  1.6333
    9CHTO   C66 3613   8.199   3.480   2.885  0.2379  0.1868  0.1763
    9CHTO  H123 3614   8.294   3.428   2.871  0.7759  1.5713 -1.3365
    9CHTO   N12 3615   8.118   3.400   2.988 -0.2424  0.0106  0.1141
    9CHTO  H110 3616   8.104   3.298   2.956 -0.0789 -0.3647  1.2241
    9CHTO  H111 3617   8.024   3.449   3.009  0.2407  0.9855 -0.0043
    9CHTO   C69 3618   8.133   3.467   2.746 -0.4204 -0.2096  0.0670
    9CHTO  H126 3619   8.033   3.512   2.734 -0.4683 -0.8523 -2.0886
    9CHTO   O41 3620   8.236   3.552   2.643 -0.2205  0.3793  0.1561
    9CHTO   C64 3621   8.239   3.700   2.691 -0.4583  0.1267 -0.0948
    9CHTO  H121 3622   8.140   3.745   2.713  0.4510  2.1196  0.0166
    9CHTO   C71 3623   8.305   3.796   2.575  1.5539 -0.4806  0.2253
    9CHTO   O47 3624   8.222   3.791   2.457 -0.0301  0.3334 -0.2033
    9CHTO  H104 3625   8.223   3.867   2.402 -1.6438 -0.2943 -1.1291
    9CHTO   O34 3626   8.129   3.314   2.692  0.2897 -0.1315  0.0915
    9CHTO   C49 3627   8.216   3.220   2.582  0.3256 -0.1121 -0.1629
    9CHTO   H91 3628   8.203   3.268   2.486 -1.3849  0.1852  0.2143
    9CHTO   C47 3629   8.174   3.069   2.590  0.4443 -0.2189  0.4403
    9CHTO   H89 3630   8.241   3.011   2.522 -3.2464 -1.3683 -2.3655
    9CHTO   O33 3631   8.040   3.064   2.542 -0.0733  0.0067 -0.2486
    9CHTO   H70 3632   8.038   3.075   2.449  1.0975  0.9635 -0.1781
    9CHTO   C45 3633   8.177   3.019   2.743 -0.2847 -0.0867  0.5314
    9CHTO   H87 3634   8.091   3.059   2.799 -0.4179  0.6473 -0.1973
    9CHTO    N8 3635   8.169   2.874   2.747  0.5489  0.1728  0.1184
    9CHTO   H75 3636   8.083   2.839   2.693  0.5188  0.1807  0.1616
    9CHTO   H76 3637   8.179   2.834   2.847  3.3942 -1.0020 -0.5719
    9CHTO   C43 3638   8.303   3.092   2.817  0.4315  0.1074  0.6983
    9CHTO   H85 3639   8.265   3.180   2.869  1.2451  0.4306  0.7473
    9CHTO   O29 3640   8.404   3.130   2.723 -0.6265 -0.0733 -0.2628
    9CHTO   C50 3641   8.366   3.221   2.615  0.0479 -0.5657 -0.0571
    9CHTO   H92 3642   8.408   3.321   2.638 -0.0872 -0.1708 -1.4889
    9CHTO   C54 3643   8.443   3.186   2.484 -0.3727 -0.4125  0.1057
    9CHTO   O36 3644   8.447   3.294   2.393  0.2376 -0.0404 -0.1264
    9CHTO   H72 3645   8.524   3.296   2.339 -0.7834 -0.9234 -1.6580
    9CHTO   O27 3646   8.360   3.019   2.924 -0.3985 -0.2048  0.1767
    9CHTO   C37 3647   8.425   3.049   3.045 -0.0409 -0.0762  1.0209
    9CHTO   H79 3648   8.487   2.969   3.086 -1.1945 -0.5350  1.8950
    9CHTO   C38 3649   8.522   3.174   3.022 -0.1335  0.6277 -0.1850
    9CHTO   H80 3650   8.463   3.247   2.964  1.2386 -0.2468 -2.7217
    9CHTO   O31 3651   8.623   3.124   2.932  0.0576  0.0010  0.4507
    9CHTO   H68 3652   8.697   3.181   2.931 -0.9670  1.3590 -2.1737
    9CHTO   C39 3653   8.573   3.229   3.155 -0.3356  0.4190  0.2631
    9CHTO   H81 3654   8.626   3.146   3.202 -0.6802  0.0157 -0.0553
    9CHTO    N7 3655   8.659   3.351   3.119 -0.1207 -0.2967 -0.1786
    9CHTO   H73 3656   8.749   3.331   3.175  1.2322  0.9975 -1.8295
    9CHTO   H74 3657   8.623   3.447   3.155 -0.2926 -0.6111  0.4930
    9CHTO   C40 3658   8.446   3.254   3.247  0.2477 -0.7109 -0.5766
    9CHTO   H82 3659   8.384   3.327   3.196  0.0954 -0.6448 -0.2947
    9CHTO   O26 3660   8.374   3.128   3.269  0.3064  0.9859 -0.1084
    9CHTO   C41 3661   8.311   3.085   3.142  0.0510  0.4746  0.1001
    9CHTO   H83 3662   8.246   3.166   3.104 -1.6727 -0.4263  1.0584
    9CHTO   C52 3663   8.219   2.962   3.175 -0.3006  0.0854 -0.2446
    9CHTO   O35 3664   8.098   2.938   3.077 -0.2618 -0.5506  0.2258
    9CHTO   H71 3665   8.107   2.993   3.002  0.3389  0.3383  0.9536
    9CHTO   O28 3666   8.466   3.310   3.377  0.3119 -0.2133  0.1842
    9CHTO   C42 3667   8.375   3.415   3.437 -0.1905 -0.4057 -0.2307
    9CHTO   H84 3668   8.400   3.405   3.542 -0.3209 -3.2874 -0.4216
    9CHTO   C44 3669   8.219   3.382   3.421  0.0843  1.0774  0.0666
    9CHTO   H86 3670   8.198   3.360   3.316 -1.1553 -0.4731  0.6281
    9CHTO   O32 3671   8.187   3.261   3.496 -0.3043 -0.3011 -0.0433
    9CHTO   H69 3672   8.229   3.255   3.579 -2.5042 -0.9489  1.0439
    9CHTO   C48 3673   8.116   3.493   3.471  0.4373  0.2110  0.0684
    9CHTO   H90 3674   8.124   3.509   3.579 -0.1520 -1.1173  0.3273
    9CHTO    N9 3675   7.971   3.462   3.442 -0.3303  0.2956  0.0923
    9CHTO   H77 3676   7.937   3.415   3.533  2.7070 -0.7471  0.7432
    9CHTO   H78 3677   7.908   3.546   3.420  0.5588  0.8672 -0.2798
    9CHTO   C51 3678   8.157   3.626   3.409 -0.9283  0.4531  0.2486
    9CHTO   H93 3679   8.153   3.617   3.300  0.8041 -0.2726  0.2228
    9CHTO   O30 3680   8.285   3.663   3.455 -0.0381  0.1377 -0.2862
    9CHTO   C46 3681   8.405   3.561   3.395  0.2652 -1.0957 -0.3764
    9CHTO   H88 3682   8.395   3.564   3.286 -1.0120 -0.2060 -0.2438
    9CHTO   C53 3683   8.550   3.623   3.426  0.4914  0.4544 -0.3839
    9CHTO   O72 3684   8.584   3.605   3.562 -0.0017 -0.0916 -0.4350
    9CHTO  H199 3685   8.509   3.624   3.615 -1.3289 -2.1197 -1.4935
    9CHTO   O22 3686   8.075   3.737   3.454  0.0913 -0.3432 -0.0930
    9CHTO   C31 3687   8.042   3.863   3.382  0.0130  0.4699 -0.3887
    9CHTO   H59 3688   7.978   3.913   3.458 -2.1455  1.7372 -2.9904
    9CHTO   C29 3689   8.167   3.959   3.355  0.1168  0.3509  0.6479
    9CHTO   H57 3690   8.244   3.898   3.306  0.9658  1.0900  1.0621
    9CHTO   O21 3691   8.219   4.016   3.476  0.6418  0.3189 -0.4993
    9CHTO   H37 3692   8.250   3.948   3.533 -1.8247 -0.2560  0.2063
    9CHTO   C27 3693   8.122   4.080   3.267 -0.4158  0.1442 -0.6763
    9CHTO   H55 3694   8.064   4.144   3.334 -0.4202 -0.7215  0.1516
    9CHTO    N5 3695   8.240   4.157   3.222  0.1088 -0.9974 -0.5445
    9CHTO   H43 3696   8.306   4.160   3.307 -0.6448 -0.7129  0.0363
    9CHTO   H44 3697   8.289   4.129   3.130  3.6106  0.5942  0.7275
    9CHTO   C25 3698   8.040   4.036   3.139 -0.4747  0.3847 -0.3599
    9CHTO   H53 3699   8.101   3.971   3.075  0.3276  3.2222 -2.5431
    9CHTO   O17 3700   7.921   3.965   3.192  0.5355  0.5972 -0.2952
    9CHTO   C32 3701   7.946   3.841   3.256 -0.2373 -0.0657  0.3589
    9CHTO   H60 3702   7.991   3.773   3.183  1.1409  0.5915  0.5669
    9CHTO   C36 3703   7.810   3.767   3.282  0.8297 -0.5465  0.5599
    9CHTO   O25 3704   7.728   3.746   3.163  0.4039  0.1564 -0.1243
    9CHTO   H40 3705   7.749   3.816   3.104 -0.6857  0.6569  0.0668
    9CHTO   O15 3706   7.993   4.148   3.060 -0.3811 -0.6222 -0.0404
    9CHTO   C19 3707   7.975   4.159   2.918  0.1214 -0.1164  0.1753
    9CHTO   H47 3708   7.918   4.251   2.897 -0.6691 -0.6666 -0.1401
    9CHTO   C20 3709   8.101   4.164   2.830  0.3868 -0.5334  0.7917
    9CHTO   H48 3710   8.153   4.066   2.834  1.0304 -0.1834  1.1596
    9CHTO   O19 3711   8.188   4.267   2.884 -0.6196  0.1295 -0.0918
    9CHTO   H35 3712   8.153   4.348   2.852  0.3524 -0.1121 -1.8655
    9CHTO   C21 3713   8.060   4.185   2.675 -0.0870  0.8759 -0.2427
    9CHTO   H49 3714   8.004   4.277   2.663 -3.0319 -1.0051 -1.4566
    9CHTO    N4 3715   8.175   4.206   2.583 -0.5611 -0.3658  0.2617
    9CHTO   H41 3716   8.267   4.236   2.631 -1.5255  1.6788  0.8698
    9CHTO   H42 3717   8.148   4.284   2.513  0.2409  0.1982  0.5764
    9CHTO   C22 3718   7.968   4.073   2.625  0.3801  0.2899  0.8870
    9CHTO   H50 3719   8.017   3.976   2.619 -0.6174 -0.0995 -1.4237
    9CHTO   O14 3720   7.858   4.070   2.721 -0.1836 -0.1828  0.0732
    9CHTO   C23 3721   7.890   4.041   2.864  0.7360 -0.1441  0.0980
    9CHTO   H51 3722   7.942   3.944   2.867 -3.0846 -2.3560 -1.9179
    9CHTO   C34 3723   7.753   4.008   2.924  0.0693  0.0972  0.1053
    9CHTO   O23 3724   7.661   4.119   2.908  0.5736 -0.2628  0.1607
    9CHTO   H38 3725   7.699   4.196   2.945 -0.1898  0.0595  0.2760
    9CHTO   O16 3726   7.889   4.096   2.505 -0.4963 -0.2264  0.0997
    9CHTO   C24 3727   7.769   3.991   2.481  0.0655  0.0019 -0.0449
    9CHTO   H52 3728   7.737   3.948   2.576  1.3083  1.5990  1.1189
    9CHTO   C26 3729   7.807   3.872   2.383 -0.3994  0.4755 -0.2782
    9CHTO   H54 3730   7.845   3.922   2.291 -1.2268  0.3939 -0.6770
    9CHTO   O20 3731   7.911   3.800   2.448  0.2960  0.9913 -0.1799
    9CHTO   H36 3732   7.996   3.831   2.425  1.5461 -2.5508 -0.5945
    9CHTO   C30 3733   7.682   3.785   2.347 -0.5852  0.0259 -0.1743
    9CHTO   H58 3734   7.651   3.727   2.435  2.0009  1.2587  1.6188
    9CHTO    N6 3735   7.708   3.697   2.232  0.6028 -0.0650  0.2992
    9CHTO   H45 3736   7.640   3.613   2.233  1.2921 -0.6711  3.6543
    9CHTO   H46 3737   7.809   3.660   2.220  1.2180  1.8632 -0.6464
    9CHTO   C33 3738   7.565   3.882   2.316 -0.3732 -0.4552  0.4069
    9CHTO   H61 3739   7.575   3.927   2.216  0.6739  0.8116  1.0775
    9CHTO   O18 3740   7.548   3.983   2.405  0.4226 -0.7058  0.4415
    9CHTO   C28 3741   7.656   4.076   2.431  0.4941  0.6469  0.0425
    9CHTO   H56 3742   7.694   4.128   2.344 -0.6743  1.8368  0.2304
    9CHTO   C35 3743   7.604   4.178   2.535 -0.5368  0.1880 -0.0618
    9CHTO   O24 3744   7.695   4.278   2.585 -0.1390 -0.6755  0.4980
    9CHTO   H39 3745   7.647   4.358   2.591  0.8880  0.1119 -1.5005
    9CHTO    O9 3746   7.443   3.798   2.308 -0.4050 -0.1548  0.7117
    9CHTO   C13 3747   7.300   3.876   2.239 -0.0612  0.6832  0.3411
    9CHTO   H26 3748   7.325   3.908   2.136  0.5266 -0.8519 -0.0050
    9CHTO   C11 3749   7.237   3.991   2.320 -0.0394 -0.3296 -0.9796
    9CHTO   H24 3750   7.309   4.074   2.313 -0.0308  0.0170  2.4496
    9CHTO    O8 3751   7.234   3.942   2.457 -0.1358 -0.1162  0.1240
    9CHTO    H3 3752   7.236   4.016   2.515 -2.1458 -2.2985  3.1312
    9CHTO    C9 3753   7.104   4.038   2.259 -0.2024  0.4652  0.4802
    9CHTO   H22 3754   7.131   4.060   2.154  1.5156 -2.6012  0.1998
    9CHTO    N2 3755   7.048   4.163   2.317 -0.1021  0.4442 -0.3975
    9CHTO   H10 3756   7.066   4.157   2.424 -1.6297  0.1469 -0.1503
    9CHTO   H11 3757   7.108   4.242   2.275 -2.1970  1.5598 -1.3627
    9CHTO    C7 3758   6.999   3.921   2.264  0.8021  0.2995 -0.7032
    9CHTO   H20 3759   6.917   3.971   2.209  1.1041  1.3900 -0.1831
    9CHTO    O4 3760   7.056   3.804   2.192  0.4995  0.1775  0.1395
    9CHTO   C14 3761   7.194   3.755   2.220 -0.6828 -0.2246  0.1568
    9CHTO   H27 3762   7.232   3.705   2.128 -0.6964  0.0834 -0.0176
    9CHTO   C18 3763   7.202   3.653   2.330  0.2603  0.2606  0.2085
    9CHTO   O13 3764   7.144   3.529   2.296 -0.2342  0.7225  0.8487
    9CHTO    H7 3765   7.215   3.468   2.306 -0.5016  0.4450  1.0897
    9CHTO    O2 3766   6.967   3.865   2.406  0.6552 -0.3718  0.4195
    9CHTO    C1 3767   6.832   3.843   2.435 -0.9082  0.2787 -0.0044
    9CHTO   H14 3768   6.834   3.759   2.508 -2.1456 -1.2446 -1.6823
    9CHTO    C2 3769   6.728   3.795   2.320  0.6563 -0.2737  0.0058
    9CHTO   H15 3770   6.715   3.875   2.246 -3.6645 -1.4443 -0.6621
    9CHTO    O6 3771   6.778   3.676   2.263  0.4306 -0.0352  0.3597
    9CHTO    H1 3772   6.746   3.594   2.296  2.3147 -1.2944 -0.8525
    9CHTO    C3 3773   6.583   3.778   2.401  0.0695 -0.0701 -0.2564
    9CHTO   H16 3774   6.586   3.695   2.473  1.4400 -1.7845 -2.2079
    9CHTO    N1 3775   6.482   3.743   2.295 -0.5436 -0.0910  0.1335
    9CHTO    H8 3776   6.495   3.645   2.251 -0.4044 -0.0347  0.0513
    9CHTO    H9 3777   6.380   3.747   2.332 -0.6017 -3.9469  0.6330
    9CHTO    C4 3778   6.546   3.908   2.477  0.1081  0.3046 -0.9106
    9CHTO   H17 3779   6.533   3.982   2.397  1.2587  0.5598 -0.8677
    9CHTO    O1 3780   6.649   3.937   2.573  0.5731  0.2172  0.3026
    9CHTO    C5 3781   6.772   3.968   2.507  0.3181  0.3358  0.2994
    9CHTO   H18 3782   6.748   4.041   2.429  0.5394 -1.0863 -1.1370
    9CHTO   C16 3783   6.857   4.041   2.614 -0.8898 -0.0001  0.1367
    9CHTO   O11 3784   6.892   3.956   2.718  0.1292 -0.3110  0.4298
    9CHTO    H5 3785   6.953   4.001   2.773  0.3610 -1.2452  0.9601
    9CHTO    O3 3786   6.430   3.907   2.567 -0.0916  0.3992 -0.7361
    9CHTO    C6 3787   6.351   4.027   2.592  0.5102  0.9966  0.5388
    9CHTO   H19 3788   6.384   4.114   2.536 -0.4475  0.4818 -0.8508
    9CHTO    C8 3789   6.210   3.998   2.532 -0.4799  0.5342 -0.7787
    9CHTO   H21 3790   6.176   3.906   2.580  1.6232  0.2462  0.2411
    9CHTO    O7 3791   6.215   3.973   2.392 -0.8178 -0.3107  0.4284
    9CHTO    H2 3792   6.204   4.053   2.345 -2.4984 -1.1981 -0.7546
    9CHTO   C12 3793   6.110   4.115   2.565  0.5545 -0.2935  0.1772
    9CHTO   H25 3794   6.125   4.203   2.499 -2.9137  0.4266  0.2780
    9CHTO    N3 3795   5.967   4.077   2.533  0.0885  0.8134 -0.4754
    9CHTO   H12 3796   5.977   4.017   2.444  0.2699  0.7403 -0.4028
    9CHTO   H13 3797   5.891   4.154   2.525 -0.0925  0.8452  1.3822
    9CHTO   C15 3798   6.128   4.162   2.715  1.0145 -0.1586  0.3227
    9CHTO   H28 3799   6.085   4.093   2.787  1.6055 -1.1181 -0.2296
    9CHTO   O10 3800   6.061   4.293   2.731 -0.6206 -0.0498 -0.2731
    9CHTO    H4 3801   5.983   4.296   2.679 -0.7509  0.7173 -0.0314
    9CHTO    O5 3802   6.263   4.185   2.755 -0.3098 -0.8316 -0.0695
    9CHTO   C10 3803   6.342   4.067   2.741  0.1066 -0.8438 -0.7183
    9CHTO   H23 3804   6.297   3.980   2.789 -1.7824  1.3666  1.6359
    9CHTO   C17 3805   6.483   4.091   2.808  0.3589 -0.4584  0.0119
    9CHTO   O12 3806   6.493   4.005   2.919 -0.5546 -0.5305 -0.2294
    9CHTO    H6 3807   6.420   4.011   2.976 -0.2778 -0.5079  0.1215
   10CHTO  H203 3808   5.660   6.555  -0.272  2.1923 -2.1097  0.0940
   10CHTO   O82 3809   5.596   6.503  -0.228  0.4272 -0.2792 -0.2328
   10CHTO  C123 3810   5.465   6.531  -0.269 -0.6437 -0.4380  0.0394
   10CHTO  H227 3811   5.458   6.518  -0.378 -0.1455  0.3619 -0.0903
   10CHTO   O77 3812   5.385   6.420  -0.214 -0.5375  0.3658 -0.4304
   10CHTO  C118 3813   5.242   6.427  -0.202  0.2350  0.0483  0.7108
   10CHTO  H222 3814   5.202   6.405  -0.302  2.8670  1.6201 -0.7410
   10CHTO  C125 3815   5.204   6.310  -0.110  0.3219 -0.5078  0.2316
   10CHTO   O84 3816   5.257   6.183  -0.148  0.1308  0.2112 -0.0248
   10CHTO  H205 3817   5.346   6.176  -0.118  0.6411  1.4704 -1.2442
   10CHTO  C114 3818   5.183   6.561  -0.163  0.6657 -0.1082  0.1891
   10CHTO  H218 3819   5.213   6.581  -0.060  0.5470 -0.5489  0.3105
   10CHTO  C116 3820   5.246   6.662  -0.258  0.5463 -0.3629 -0.1304
   10CHTO  H220 3821   5.224   6.628  -0.361 -0.5873  0.7110 -0.2577
   10CHTO   O79 3822   5.179   6.788  -0.247 -0.4777  0.1972  0.0941
   10CHTO  H201 3823   5.118   6.792  -0.318 -2.0105 -1.2769  1.2703
   10CHTO  C120 3824   5.402   6.674  -0.233 -0.0059  0.1678 -0.0144
   10CHTO  H224 3825   5.412   6.703  -0.126 -0.0661  0.2445 -0.0299
   10CHTO   N21 3826   5.472   6.787  -0.305  0.2328 -0.4319 -0.5295
   10CHTO  H211 3827   5.418   6.796  -0.398  0.6374 -0.0701 -0.7297
   10CHTO  H212 3828   5.471   6.873  -0.241 -2.1788  0.2516 -1.4349
   10CHTO   O75 3829   5.041   6.546  -0.170  0.5039 -0.1128  0.6135
   10CHTO  C112 3830   4.969   6.560  -0.027 -0.1018  0.3897 -0.7470
   10CHTO  H216 3831   5.028   6.613   0.048 -1.0550  0.6955 -0.2026
   10CHTO   O73 3832   4.920   6.432   0.019  0.2806  0.7207 -0.0630
   10CHTO  C113 3833   4.869   6.445   0.157  0.7356 -0.9195 -0.0398
   10CHTO  H217 3834   4.945   6.493   0.222 -2.1710 -0.1127  2.9020
   10CHTO  C124 3835   4.850   6.299   0.195 -0.4380 -0.0950 -0.1578
   10CHTO   O83 3836   4.958   6.210   0.171 -0.3829  0.8431 -0.3507
   10CHTO  H204 3837   4.984   6.208   0.081  2.1848 -0.8543  0.3935
   10CHTO  C109 3838   4.744   6.533   0.151 -0.1570 -0.6655  0.0996
   10CHTO  H213 3839   4.671   6.478   0.090 -0.4485 -0.3937  0.2054
   10CHTO  C110 3840   4.765   6.669   0.082 -0.5563  0.0352  0.3137
   10CHTO  H214 3841   4.821   6.736   0.148 -1.2397 -1.4855  2.5003
   10CHTO   O78 3842   4.635   6.725   0.060 -0.4785  0.2701 -0.2207
   10CHTO  H200 3843   4.640   6.819   0.056 -1.1613  0.4226  1.9114
   10CHTO  C111 3844   4.841   6.651  -0.051 -0.0993  0.3343 -0.4252
   10CHTO  H215 3845   4.767   6.611  -0.123  1.4314 -0.5983 -1.4948
   10CHTO   N19 3846   4.877   6.785  -0.104 -0.3375  0.0549 -0.7249
   10CHTO  H207 3847   4.793   6.852  -0.098 -0.0042  0.4647 -0.6490
   10CHTO  H208 3848   4.901   6.771  -0.208  2.6709  0.1142 -0.0813
   10CHTO   O74 3849   4.688   6.554   0.292 -0.8891 -0.5368  0.4776
   10CHTO  C115 3850   4.531   6.525   0.306 -0.0360 -0.5665  0.1122
   10CHTO  H219 3851   4.473   6.575   0.228  1.3166 -1.4241 -1.4788
   10CHTO   O76 3852   4.492   6.368   0.267 -0.0338 -0.2077  0.4548
   10CHTO  C122 3853   4.502   6.283   0.381 -0.1500  0.2345  0.5429
   10CHTO  H226 3854   4.606   6.284   0.413  0.2337  0.3869 -0.7061
   10CHTO  C126 3855   4.476   6.144   0.337  0.9360 -0.2224 -0.1791
   10CHTO   O85 3856   4.461   6.049   0.443 -0.0380 -0.0078 -0.2409
   10CHTO  H206 3857   4.387   6.067   0.498  0.1414 -0.0212  0.0045
   10CHTO  C121 3858   4.409   6.329   0.512 -0.2698  0.0077 -0.0128
   10CHTO  H225 3859   4.316   6.268   0.514 -0.4937  0.2873 -1.3986
   10CHTO   O81 3860   4.475   6.296   0.636 -0.0574  0.3432  0.4325
   10CHTO  H202 3861   4.415   6.308   0.707  0.9595  2.0530  1.0141
   10CHTO  C119 3862   4.361   6.478   0.508 -0.4149  0.0062  0.1871
   10CHTO  H223 3863   4.272   6.480   0.446  0.2535  0.0444 -0.7806
   10CHTO  C117 3864   4.482   6.567   0.450 -0.1734  0.2679 -0.4239
   10CHTO  H221 3865   4.563   6.567   0.523 -0.1343  0.6793 -0.4618
   10CHTO   N20 3866   4.446   6.711   0.440  0.0505  0.0889 -0.1901
   10CHTO  H209 3867   4.508   6.759   0.366  0.6305  2.3698  1.7072
   10CHTO  H210 3868   4.346   6.734   0.408  0.1189  0.8896  0.1503
   10CHTO   O80 3869   4.295   6.519   0.649  0.3710  0.3550  0.1306
   10CHTO  C103 3870   4.115   6.503   0.666  0.8969  0.6626 -0.3219
   10CHTO  H190 3871   4.086   6.568   0.749 -0.3879 -0.9190  0.4884
   10CHTO  C101 3872   4.016   6.539   0.546  1.1338  0.7597 -0.1288
   10CHTO  H188 3873   4.044   6.476   0.461  1.0184  0.7137 -0.1329
   10CHTO   O68 3874   4.036   6.701   0.522  0.1365 -0.1115 -0.1146
   10CHTO  H168 3875   4.064   6.746   0.599  0.2863 -1.0281  0.3724
   10CHTO   C99 3876   3.864   6.503   0.588  0.2726  0.0890 -0.1857
   10CHTO  H186 3877   3.841   6.558   0.681  0.7847 -1.3319  0.7837
   10CHTO   N17 3878   3.759   6.547   0.490  0.1008 -0.3820 -0.3305
   10CHTO  H174 3879   3.795   6.544   0.388  2.2877 -0.3809  0.4192
   10CHTO  H175 3880   3.722   6.646   0.512  3.2217  0.7779  0.0038
   10CHTO   C97 3881   3.865   6.350   0.629 -0.6912 -0.2448 -0.0277
   10CHTO  H184 3882   3.886   6.295   0.537 -0.5211  1.1372 -0.8272
   10CHTO   O64 3883   3.962   6.317   0.736 -0.0667  0.2580  0.1642
   10CHTO  C104 3884   4.094   6.350   0.709  0.1987 -0.5877  0.3103
   10CHTO  H191 3885   4.127   6.288   0.626 -1.8745  1.2572 -1.9452
   10CHTO  C108 3886   4.188   6.312   0.827  0.3499  0.1358 -0.0430
   10CHTO   O71 3887   4.129   6.366   0.951  0.1090 -0.2280 -0.9789
   10CHTO  H171 3888   4.132   6.459   0.960 -2.3503 -0.1400 -0.6684
   10CHTO   O62 3889   3.757   6.304   0.708  0.1506  0.1786 -0.3097
   10CHTO   C91 3890   3.683   6.196   0.647  0.8852  0.0121 -1.3081
   10CHTO  H178 3891   3.687   6.214   0.540  1.0123 -0.5568 -1.4005
   10CHTO   C92 3892   3.531   6.213   0.690 -0.0651  0.5581  0.1899
   10CHTO  H179 3893   3.490   6.311   0.662  0.7623  0.5167 -1.1942
   10CHTO   O66 3894   3.442   6.126   0.620  0.6641 -0.8837  0.1182
   10CHTO  H166 3895   3.463   6.037   0.639 -0.6332 -1.3686 -0.6401
   10CHTO   C93 3896   3.514   6.192   0.845  1.0615 -0.1845  0.5304
   10CHTO  H180 3897   3.416   6.149   0.869 -0.1242  1.0085 -1.9292
   10CHTO   N16 3898   3.516   6.317   0.927 -0.2733  0.4216 -0.2688
   10CHTO  H172 3899   3.524   6.285   1.030  0.1635  1.9216  0.1830
   10CHTO  H173 3900   3.429   6.379   0.910  0.5740  1.2833 -1.5850
   10CHTO   C94 3901   3.625   6.093   0.901 -0.4262 -0.3273 -0.2987
   10CHTO  H181 3902   3.710   6.148   0.941  0.5981 -1.5501 -0.7541
   10CHTO   O61 3903   3.675   6.001   0.804 -0.0110 -0.6509 -0.4401
   10CHTO   C95 3904   3.741   6.051   0.689 -0.4158 -0.0709 -0.2587
   10CHTO  H182 3905   3.847   6.066   0.710  0.2817  0.9063 -4.1565
   10CHTO  C106 3906   3.728   5.942   0.583  0.6901  0.4724 -0.6773
   10CHTO   O69 3907   3.761   5.982   0.452  0.4470 -0.0057 -0.2885
   10CHTO  H169 3908   3.789   5.902   0.411  0.5537 -0.1677  0.0945
   10CHTO   O63 3909   3.559   6.001   1.017 -0.2245 -0.8655 -0.0171
   10CHTO   C96 3910   3.672   5.928   1.098 -0.5762  0.1993  0.8403
   10CHTO  H183 3911   3.766   5.968   1.058 -1.6183  2.0372  0.1461
   10CHTO   C98 3912   3.687   5.772   1.095 -0.0832 -0.5596 -0.2436
   10CHTO  H185 3913   3.591   5.727   1.124  0.7328 -1.0569  1.8181
   10CHTO   O67 3914   3.715   5.715   0.963 -0.1960 -0.8066  0.3563
   10CHTO  H167 3915   3.689   5.625   0.968  1.6780 -1.2720  2.8388
   10CHTO  C102 3916   3.791   5.718   1.202  0.6350  0.1550  0.3709
   10CHTO  H189 3917   3.886   5.759   1.163  0.0476  0.7160 -0.4734
   10CHTO   N18 3918   3.810   5.565   1.215 -0.3349 -0.3447 -0.4439
   10CHTO  H176 3919   3.836   5.525   1.118  0.0921 -2.1550  0.4009
   10CHTO  H177 3920   3.890   5.547   1.286 -0.6805 -0.3139 -0.0412
   10CHTO  C105 3921   3.776   5.790   1.337 -0.0223  0.5358 -0.1053
   10CHTO  H192 3922   3.681   5.766   1.383 -0.4809 -1.4180 -1.9848
   10CHTO   O65 3923   3.777   5.932   1.320  0.1681 -0.2055  0.6974
   10CHTO  C100 3924   3.662   5.982   1.248  0.1101  0.5085  0.3975
   10CHTO  H187 3925   3.572   5.942   1.295 -0.1465  1.0443  0.3644
   10CHTO  C107 3926   3.657   6.135   1.249  1.0628  0.1806  0.0855
   10CHTO   O70 3927   3.597   6.183   1.373 -0.2741  0.3503  0.5258
   10CHTO  H170 3928   3.534   6.245   1.342 -1.0864 -1.6574 -2.0328
   10CHTO   O57 3929   3.876   5.755   1.425 -0.1919 -0.5789 -0.4465
   10CHTO   C85 3930   3.848   5.762   1.569 -0.1335 -0.7354 -0.0821
   10CHTO  H157 3931   3.754   5.704   1.581 -3.0890  3.1444 -3.1870
   10CHTO   C83 3932   3.802   5.906   1.617 -0.3572 -0.1526 -0.2741
   10CHTO  H155 3933   3.714   5.930   1.557 -0.8959  0.2404  0.6418
   10CHTO   O56 3934   3.908   6.002   1.587 -0.2807  0.6379 -0.1297
   10CHTO  H135 3935   3.896   6.042   1.503 -1.6199  0.0006 -0.2625
   10CHTO   C81 3936   3.750   5.891   1.768  0.0961  0.9122 -0.1548
   10CHTO  H153 3937   3.674   5.814   1.771 -1.1558  2.1657  1.8897
   10CHTO   N14 3938   3.677   6.016   1.813  0.0985 -0.6355 -0.2211
   10CHTO  H141 3939   3.742   6.099   1.834 -1.6198  0.6303  0.2200
   10CHTO  H142 3940   3.604   6.047   1.740  1.2312  0.8232 -0.7704
   10CHTO   C79 3941   3.872   5.846   1.856  0.1568  1.0088  0.3418
   10CHTO  H151 3942   3.833   5.805   1.949 -0.1400 -0.9122 -0.5984
   10CHTO   O52 3943   3.940   5.727   1.802 -0.7075  0.2920  0.4737
   10CHTO   C86 3944   3.969   5.717   1.662 -0.2994  0.7058 -0.1442
   10CHTO  H158 3945   4.068   5.767   1.652 -0.4623  1.0070 -0.2419
   10CHTO   C90 3946   3.997   5.565   1.641 -0.1916  0.4581  0.4749
   10CHTO   O60 3947   4.061   5.535   1.514 -0.1112  0.4697 -0.2143
   10CHTO  H138 3948   4.008   5.579   1.450 -1.6654 -1.0828  0.0002
   10CHTO   O50 3949   3.969   5.943   1.892  0.2654  0.0372  0.1662
   10CHTO   C73 3950   4.016   5.921   2.029 -0.4868 -0.0855  1.1990
   10CHTO  H145 3951   4.035   5.815   2.052 -0.2312 -0.0376  1.2144
   10CHTO   C74 3952   3.911   5.980   2.138 -0.3937 -0.0885  0.0042
   10CHTO  H146 3953   3.815   5.927   2.125  0.6524 -1.7397 -1.0905
   10CHTO   O54 3954   3.952   5.953   2.272 -0.7031  0.6834  0.6185
   10CHTO  H133 3955   3.885   5.940   2.337  0.0649 -1.7334  0.9817
   10CHTO   C75 3956   3.899   6.137   2.109  0.3439  0.0370  0.0834
   10CHTO  H147 3957   3.862   6.153   2.006  0.2252  0.7306  0.2319
   10CHTO   N13 3958   3.795   6.211   2.182 -0.6453  0.7781  0.4839
   10CHTO  H139 3959   3.785   6.316   2.159 -0.8607  0.7290  0.3586
   10CHTO  H140 3960   3.812   6.202   2.288 -2.9791 -0.9451  0.7481
   10CHTO   C76 3961   4.046   6.200   2.119 -0.3635  0.4033  0.6628
   10CHTO  H148 3962   4.092   6.166   2.211  0.4168 -0.7349 -0.1368
   10CHTO   O49 3963   4.121   6.136   2.018 -0.1643  0.2200 -0.1564
   10CHTO   C77 3964   4.149   6.000   2.038  0.7651 -0.0658  0.0975
   10CHTO  H149 3965   4.192   5.974   2.134  3.1928 -0.2508 -1.0113
   10CHTO   C88 3966   4.247   5.939   1.936 -0.0846  0.2241  0.6599
   10CHTO   O58 3967   4.299   5.820   1.973  0.0631  0.2187  0.0988
   10CHTO  H136 3968   4.393   5.815   1.970  0.2512  3.2880 -0.9608
   10CHTO   O51 3969   4.052   6.353   2.092 -0.6405  0.3828 -0.4395
   10CHTO   C78 3970   4.214   6.433   2.116 -0.4756  0.1999  0.3522
   10CHTO  H150 3971   4.295   6.388   2.056 -0.6836  1.2268 -0.7128
   10CHTO   C80 3972   4.252   6.438   2.268 -0.4515 -0.1692  0.2474
   10CHTO  H152 3973   4.163   6.481   2.318 -1.2195 -1.6671  0.2147
   10CHTO   O55 3974   4.272   6.299   2.303 -0.3945 -0.0198 -0.1381
   10CHTO  H134 3975   4.262   6.295   2.396 -3.5620  1.0420 -0.3661
   10CHTO   C84 3976   4.383   6.523   2.293  0.0023  0.5357  0.2035
   10CHTO  H156 3977   4.460   6.472   2.235 -0.5964 -0.1109 -0.0379
   10CHTO   N15 3978   4.416   6.525   2.440 -0.0791 -0.0419 -0.1107
   10CHTO  H143 3979   4.383   6.436   2.489  0.8945  0.3905  1.3586
   10CHTO  H144 3980   4.522   6.538   2.447 -0.2968  2.2394 -0.5522
   10CHTO   C87 3981   4.366   6.663   2.233  0.1264 -0.0426  0.1369
   10CHTO  H159 3982   4.288   6.725   2.278  0.5015  0.6886 -0.2038
   10CHTO   O53 3983   4.335   6.649   2.086  0.0287 -0.4777 -0.5200
   10CHTO   C82 3984   4.212   6.584   2.069  0.2231  1.0113 -0.0582
   10CHTO  H154 3985   4.131   6.633   2.123  0.2291  0.1835  0.7139
   10CHTO   C89 3986   4.176   6.591   1.914  0.0521 -0.0316  0.5912
   10CHTO   O59 3987   4.173   6.724   1.868 -0.4151  0.4506  0.0046
   10CHTO  H137 3988   4.248   6.752   1.819 -1.6796  0.8317 -1.7364
   10CHTO   O45 3989   4.527   6.743   2.247  0.5052  0.5985  0.7864
   10CHTO   C67 3990   4.513   6.886   2.257  0.5363 -0.4969  0.0072
   10CHTO  H124 3991   4.422   6.921   2.209 -0.6377 -1.6290  1.3354
   10CHTO   C65 3992   4.504   6.919   2.406  0.6403  0.5022 -0.3499
   10CHTO  H122 3993   4.565   6.842   2.452 -1.1168 -0.3180  0.6416
   10CHTO   O44 3994   4.365   6.900   2.438 -0.0077 -0.6406 -0.3626
   10CHTO  H102 3995   4.312   6.973   2.464  2.3529  0.3951  1.6838
   10CHTO   C63 3996   4.578   7.051   2.450  0.0564 -0.1468  0.3970
   10CHTO  H120 3997   4.685   7.037   2.467  0.0335  0.2062  0.8439
   10CHTO   N11 3998   4.531   7.105   2.586  0.1712 -0.6542  0.0248
   10CHTO  H108 3999   4.582   7.193   2.620 -1.1293  0.7641 -1.5868
   10CHTO  H109 4000   4.430   7.141   2.580  0.1921 -0.5459  0.3332
   10CHTO   C61 4001   4.572   7.157   2.335 -0.0479  0.2683  0.4157
   10CHTO  H118 4002   4.644   7.231   2.373  0.8739 -1.8004  2.8318
   10CHTO   O40 4003   4.624   7.098   2.203 -0.2080 -0.1576  0.1481
   10CHTO   C68 4004   4.637   6.957   2.193  0.5957 -0.0332  0.5909
   10CHTO  H125 4005   4.724   6.923   2.253 -0.7159 -2.1031  1.3997
   10CHTO   C72 4006   4.652   6.897   2.043  0.2678 -0.1758 -0.3334
   10CHTO   O48 4007   4.740   6.982   1.967  0.4401 -0.5409  0.1625
   10CHTO  H105 4008   4.766   6.957   1.880  0.5415  2.2397 -0.6752
   10CHTO   O38 4009   4.447   7.216   2.292 -0.2443 -0.1061  0.2875
   10CHTO   C55 4010   4.438   7.338   2.217  0.3630  0.2297 -0.0409
   10CHTO  H112 4011   4.333   7.356   2.190  0.2344 -1.4888 -0.7657
   10CHTO   C56 4012   4.539   7.353   2.096 -0.0513 -0.4507  0.2854
   10CHTO  H113 4013   4.638   7.331   2.138  0.0339  1.3779  1.1228
   10CHTO   O42 4014   4.502   7.254   1.996  0.1697 -0.1097  0.1503
   10CHTO  H100 4015   4.577   7.200   1.985  0.3368 -0.1042  1.2153
   10CHTO   C57 4016   4.532   7.498   2.033  0.2267 -1.0312  0.0112
   10CHTO  H114 4017   4.431   7.502   1.990  0.4690 -0.5755 -0.5187
   10CHTO   N10 4018   4.631   7.531   1.929  0.1837  0.3724  0.2082
   10CHTO  H106 4019   4.597   7.499   1.831  0.2065  1.4358 -0.1554
   10CHTO  H107 4020   4.726   7.483   1.946  0.7232  0.6305 -1.9137
   10CHTO   C58 4021   4.543   7.607   2.142  0.1089  0.2076 -0.1089
   10CHTO  H115 4022   4.648   7.605   2.177  0.1782 -2.7652 -0.3977
   10CHTO   O37 4023   4.452   7.584   2.250 -0.2721  0.5808  0.4394
   10CHTO   C59 4024   4.461   7.456   2.314  0.3696 -0.8824 -0.5045
   10CHTO  H116 4025   4.554   7.450   2.371  1.1423 -1.7862 -1.8504
   10CHTO   C70 4026   4.345   7.447   2.421  0.2081 -0.1037  0.6292
   10CHTO   O46 4027   4.218   7.491   2.368 -0.3799  0.2637  0.0424
   10CHTO  H103 4028   4.156   7.462   2.432 -0.4420 -4.3512 -1.9263
   10CHTO   O39 4029   4.484   7.736   2.099 -0.0681 -0.6178  0.0188
   10CHTO   C60 4030   4.526   7.846   2.187 -0.1475 -0.3130 -1.1996
   10CHTO  H117 4031   4.498   7.811   2.286  1.8487  2.6235  0.4996
   10CHTO   C62 4032   4.680   7.885   2.186  0.2770 -0.1086 -0.5353
   10CHTO  H119 4033   4.722   7.800   2.245  2.0247 -0.4764 -2.2543
   10CHTO   O43 4034   4.736   7.892   2.051  0.2129  0.1932 -0.2857
   10CHTO  H101 4035   4.816   7.845   2.049  0.4020  0.4606  0.5494
   10CHTO   C66 4036   4.715   8.012   2.275  0.1142  0.1178  0.0338
   10CHTO  H123 4037   4.669   7.999   2.373 -1.4356  1.4638 -0.4959
   10CHTO   N12 4038   4.859   8.037   2.295  0.2716 -0.0233 -0.0157
   10CHTO  H110 4039   4.904   8.073   2.204  0.9037 -0.2451  0.2063
   10CHTO  H111 4040   4.905   7.950   2.341 -1.6819 -1.4521 -0.6630
   10CHTO   C69 4041   4.640   8.129   2.213 -0.0915 -0.1614  0.0105
   10CHTO  H126 4042   4.666   8.144   2.106 -0.3935  0.0179 -0.0379
   10CHTO   O41 4043   4.483   8.090   2.237 -0.5420 -0.3951  0.1428
   10CHTO   C64 4044   4.437   7.972   2.159  0.0827 -0.0454  0.5923
   10CHTO  H121 4045   4.439   7.988   2.050  3.7887 -1.7356  0.3326
   10CHTO   C71 4046   4.294   7.933   2.206  0.8434  0.3258  0.4093
   10CHTO   O47 4047   4.288   7.910   2.346 -0.0723 -0.5993 -0.0591
   10CHTO  H104 4048   4.304   7.823   2.380  0.0618 -1.2037 -1.6324
   10CHTO   O34 4049   4.660   8.255   2.284  0.4289 -0.2090 -0.0504
   10CHTO   C49 4050   4.751   8.404   2.242 -0.2068 -0.3029  0.1055
   10CHTO   H91 4051   4.854   8.378   2.221 -0.3606 -0.7746 -0.0700
   10CHTO   C47 4052   4.753   8.498   2.363  0.0438 -0.1715 -0.9227
   10CHTO   H89 4053   4.814   8.584   2.327 -0.9987  0.3915 -1.3570
   10CHTO   O33 4054   4.809   8.427   2.473 -0.3233  0.1776  0.0473
   10CHTO   H70 4055   4.774   8.340   2.474 -3.0461  1.1918 -2.3497
   10CHTO   C45 4056   4.602   8.552   2.387  0.0955  0.9861  0.2607
   10CHTO   H87 4057   4.535   8.468   2.410 -0.2463  1.6773  1.9179
   10CHTO    N8 4058   4.599   8.640   2.505  0.2112 -0.3416  0.2324
   10CHTO   H75 4059   4.686   8.635   2.569 -0.7568 -0.0867  1.5891
   10CHTO   H76 4060   4.575   8.744   2.489  1.1692  0.0153  0.9971
   10CHTO   C43 4061   4.533   8.620   2.261 -0.0334 -0.3343 -0.7936
   10CHTO   H85 4062   4.428   8.636   2.288  0.4129 -2.3836  2.5134
   10CHTO   O29 4063   4.553   8.531   2.145  0.2110  0.5973  0.0727
   10CHTO   C50 4064   4.685   8.469   2.127  0.2229 -0.5859  0.2413
   10CHTO   H92 4065   4.678   8.392   2.048  1.7968 -0.5094  0.0035
   10CHTO   C54 4066   4.776   8.581   2.057 -0.1619 -0.1503  0.0939
   10CHTO   O36 4067   4.895   8.529   2.003 -0.3594  0.1432  0.3123
   10CHTO   H72 4068   4.962   8.588   2.032 -0.1770  0.2374 -0.2920
   10CHTO   O27 4069   4.582   8.750   2.224  0.2489  0.1750 -0.0690
   10CHTO   C37 4070   4.589   8.874   2.151 -0.3102  0.9480  0.0239
   10CHTO   H79 4071   4.695   8.891   2.126 -0.2121 -1.9112 -1.6623
   10CHTO   C38 4072   4.506   8.874   2.020 -0.2216 -0.0027 -0.2045
   10CHTO   H80 4073   4.400   8.863   2.047 -0.6859  1.7646 -1.2479
   10CHTO   O31 4074   4.551   8.760   1.941  0.6338 -0.6709 -0.0208
   10CHTO   H68 4075   4.490   8.689   1.941 -0.1472 -0.0122  1.1030
   10CHTO   C39 4076   4.519   9.009   1.945  0.3328  0.3260  0.2695
   10CHTO   H81 4077   4.621   9.013   1.909  0.7401 -1.3614  1.1943
   10CHTO    N7 4078   4.429   9.018   1.824 -0.3478  0.5467 -0.4182
   10CHTO   H73 4079   4.467   8.948   1.750 -1.3281 -0.0037 -0.4106
   10CHTO   H74 4080   4.419   9.117   1.782 -3.3119  0.6823  0.4905
   10CHTO   C40 4081   4.488   9.122   2.042 -0.1218  0.0259  0.4649
   10CHTO   H82 4082   4.380   9.139   2.037 -0.4278 -2.1903 -1.6625
   10CHTO   O26 4083   4.538   9.120   2.175 -0.1885  0.0511 -0.2858
   10CHTO   C41 4084   4.542   8.997   2.246 -0.1792 -0.3986 -0.1757
   10CHTO   H83 4085   4.440   8.969   2.276 -0.7663  0.3954 -1.4122
   10CHTO   C52 4086   4.644   9.010   2.361  0.0917  0.0430 -0.4995
   10CHTO   O35 4087   4.589   9.096   2.496 -0.1475 -0.0986 -0.0068
   10CHTO   H71 4088   4.643   9.171   2.507 -0.0784 -0.2789  0.9379
   10CHTO   O28 4089   4.565   9.235   2.005  0.0878 -0.2570  0.0955
   10CHTO   C42 4090   4.520   9.372   2.032 -0.3507  0.0319 -0.6436
   10CHTO   H84 4091   4.461   9.377   2.123  0.3882  0.5903 -0.1846
   10CHTO   C44 4092   4.433   9.435   1.918  0.8102 -0.3939  0.7022
   10CHTO   H86 4093   4.490   9.452   1.827  2.4600  1.1154  1.9890
   10CHTO   O32 4094   4.327   9.349   1.886 -0.0770  0.4329 -0.2503
   10CHTO   H69 4095   4.359   9.261   1.887  0.9492  0.7632 -1.7020
   10CHTO   C48 4096   4.390   9.582   1.956 -0.4560  0.2908  0.4472
   10CHTO   H90 4097   4.348   9.564   2.055 -0.3559 -1.5024  0.1774
   10CHTO    N9 4098   4.293   9.652   1.871  0.2728  0.4683  0.1636
   10CHTO   H77 4099   4.325   9.637   1.769 -3.1181 -2.2646 -0.5905
   10CHTO   H78 4100   4.282   9.754   1.906 -3.8704 -0.9214  3.2147
   10CHTO   C51 4101   4.521   9.668   1.979  0.4860  0.7596  0.6260
   10CHTO   H93 4102   4.570   9.680   1.882 -2.0152 -0.5096 -0.8376
   10CHTO   O30 4103   4.607   9.610   2.079 -0.2142 -0.0467 -0.3218
   10CHTO   C46 4104   4.649   9.465   2.055 -0.2595  0.1650  0.1681
   10CHTO   H88 4105   4.715   9.463   1.969 -0.0427 -0.9128  0.3426
   10CHTO   C53 4106   4.729   9.436   2.181 -0.3807 -0.2721 -0.4117
   10CHTO   O72 4107   4.793   9.309   2.202 -0.1560  0.3631  0.4867
   10CHTO  H199 4108   4.751   9.233   2.167  1.2847  0.4707 -1.5852
   10CHTO   O22 4109   4.498   9.796   2.039  0.2979  0.2885  0.0225
   10CHTO   C31 4110   4.580   9.925   2.026  0.5470 -0.7627 -0.1211
   10CHTO   H59 4111   4.527   9.994   2.095 -0.3303 -0.4153 -1.1282
   10CHTO   C29 4112   4.729   9.921   2.076 -0.1621  0.1856 -0.6064
   10CHTO   H57 4113   4.798   9.873   2.004  0.4465  2.1098 -1.3537
   10CHTO   O21 4114   4.730   9.839   2.193  0.4273 -0.1830  0.0661
   10CHTO   H37 4115   4.803   9.781   2.202  1.7652  1.7956  3.0095
   10CHTO   C27 4116   4.781  10.068   2.095 -0.2459  0.4395  0.3220
   10CHTO   H55 4117   4.712  10.127   2.157  0.0977  1.4994 -0.2928
   10CHTO    N5 4118   4.914  10.077   2.150 -0.6862 -0.8556  0.5744
   10CHTO   H43 4119   4.949  10.179   2.149  1.2213 -1.4864 -0.9785
   10CHTO   H44 4120   4.914  10.056   2.256 -1.1257  0.3121  0.8101
   10CHTO   C25 4121   4.773  10.124   1.948 -0.4187 -0.6078  0.0288
   10CHTO   H53 4122   4.846  10.078   1.880  1.0230  1.1282  0.3617
   10CHTO   O17 4123   4.643  10.126   1.894 -0.3308 -0.0320 -0.4921
   10CHTO   C32 4124   4.581  10.000   1.886  0.7928  0.9087 -0.2179
   10CHTO   H60 4125   4.617   9.937   1.805 -1.6243  0.1976 -0.7747
   10CHTO   C36 4126   4.427  10.016   1.844  0.2725 -0.7100  0.2249
   10CHTO   O25 4127   4.367  10.100   1.938  0.3644  0.7347  0.3347
   10CHTO   H40 4128   4.363  10.189   1.910 -0.2057  0.2414 -1.2213
   10CHTO   O15 4129   4.835  10.270   1.947  0.4376 -0.1499 -0.3400
   10CHTO   C19 4130   4.872  10.373   1.854  0.5794  0.0500 -0.3812
   10CHTO   H47 4131   4.798  10.381   1.772 -0.0956  0.2478  0.2351
   10CHTO   C20 4132   4.876  10.521   1.910 -0.3906 -0.3321 -0.3134
   10CHTO   H48 4133   4.942  10.530   1.998  0.0043  0.2271 -0.6677
   10CHTO   O19 4134   4.741  10.538   1.941 -0.4015 -0.0503 -0.1824
   10CHTO   H35 4135   4.739  10.559   2.032  5.0648  0.8276 -0.0916
   10CHTO   C21 4136   4.912  10.627   1.807 -0.7280 -0.2990 -0.6009
   10CHTO   H49 4137   4.834  10.632   1.731  0.2609  0.4541 -1.5778
   10CHTO    N4 4138   4.925  10.762   1.868  0.2882 -0.3964 -0.1795
   10CHTO   H41 4139   4.950  10.834   1.791  1.7463 -1.4276 -0.6913
   10CHTO   H42 4140   4.833  10.792   1.916  0.5670  0.4389 -0.1567
   10CHTO   C22 4141   5.046  10.585   1.736 -0.3124 -0.5773  0.1073
   10CHTO   H50 4142   5.130  10.606   1.803 -0.4380 -1.8442  0.6816
   10CHTO   O14 4143   5.038  10.451   1.693 -0.3874 -0.0357 -0.2781
   10CHTO   C23 4144   5.005  10.342   1.785  0.0638  0.2001 -0.5470
   10CHTO   H51 4145   5.086  10.339   1.859  0.3257 -1.3878 -0.8786
   10CHTO   C34 4146   5.022  10.208   1.713  0.0785 -0.2359  0.3342
   10CHTO   O23 4147   5.156  10.198   1.677 -0.1084 -0.4957 -0.5170
   10CHTO   H38 4148   5.200  10.190   1.759  0.4575 -2.3754 -0.9761
   10CHTO   O16 4149   5.057  10.661   1.612  0.6678  0.2954  0.5519
   10CHTO   C24 4150   5.227  10.703   1.597 -0.4477 -0.4109 -0.1409
   10CHTO   H52 4151   5.283  10.672   1.685 -1.4758 -3.0022 -0.3626
   10CHTO   C26 4152   5.246  10.858   1.583 -0.0887 -0.5563 -0.0079
   10CHTO   H54 4153   5.178  10.890   1.502  0.2367 -1.2243 -0.5449
   10CHTO   O20 4154   5.211  10.926   1.706  0.7048 -0.4865 -0.4623
   10CHTO   H36 4155   5.126  10.894   1.731  2.1765 -1.6441  3.4789
   10CHTO   C30 4156   5.389  10.910   1.538  0.5934 -0.0126  0.6226
   10CHTO   H58 4157   5.461  10.903   1.621  1.1691 -2.4789 -0.0478
   10CHTO    N6 4158   5.386  11.048   1.500 -0.2254 -0.4872  0.3284
   10CHTO   H45 4159   5.325  11.066   1.413 -0.3785  2.2986  0.9361
   10CHTO   H46 4160   5.488  11.080   1.489 -0.0658 -0.3481  2.0722
   10CHTO   C33 4161   5.453  10.814   1.429 -0.2022 -0.1961 -0.0725
   10CHTO   H61 4162   5.404  10.826   1.332  0.1413 -1.0120 -0.3467
   10CHTO   O18 4163   5.431  10.682   1.466  0.2699  0.1257 -0.2267
   10CHTO   C28 4164   5.292  10.632   1.472 -0.3745 -0.7843  0.5227
   10CHTO   H56 4165   5.238  10.663   1.383  0.5542 -0.9572 -0.1063
   10CHTO   C35 4166   5.293  10.477   1.482 -0.2522 -0.1319 -0.2020
   10CHTO   O24 4167   5.297  10.398   1.365 -0.3344  0.0415  0.2653
   10CHTO   H39 4168   5.383  10.371   1.339 -0.2001 -0.6155  1.3812
   10CHTO    O9 4169   5.593  10.845   1.406 -0.4703  0.8104 -0.6129
   10CHTO   C13 4170   5.633  10.807   1.253  0.8097  0.8516  0.0052
   10CHTO   H26 4171   5.566  10.869   1.190  2.3761  2.5352 -0.0814
   10CHTO   C11 4172   5.628  10.644   1.222 -0.1481  0.3463  0.0814
   10CHTO   H24 4173   5.525  10.612   1.243  0.7049 -1.7313  1.2238
   10CHTO    O8 4174   5.694  10.561   1.325  0.6513 -0.1687 -0.2920
   10CHTO    H3 4175   5.780  10.597   1.338  0.1032  0.9051  0.3727
   10CHTO    C9 4176   5.680  10.620   1.074  0.6702  0.3858 -0.7222
   10CHTO   H22 4177   5.626  10.696   1.016 -0.5063  1.0341  1.1788
   10CHTO    N2 4178   5.630  10.490   1.024  0.0774  0.5127  0.5260
   10CHTO   H10 4179   5.654  10.482   0.919  0.2628  2.1432  0.4260
   10CHTO   H11 4180   5.671  10.405   1.076 -0.5873  1.1117  2.0682
   10CHTO    C7 4181   5.833  10.651   1.081 -0.1491  0.2553  0.6287
   10CHTO   H20 4182   5.846  10.691   0.978  0.7565 -1.0318  0.2284
   10CHTO    O4 4183   5.880  10.743   1.184  0.7928  0.2534  0.0472
   10CHTO   C14 4184   5.782  10.847   1.223 -0.9000  0.2747 -0.2332
   10CHTO   H27 4185   5.776  10.920   1.139 -2.5938  1.5659  0.9851
   10CHTO   C18 4186   5.865  10.916   1.337 -0.1216  0.1615  0.4224
   10CHTO   O13 4187   5.823  11.048   1.381  0.1482 -0.0212  0.3062
   10CHTO    H7 4188   5.731  11.062   1.390 -0.3739 -2.5565 -0.5450
   10CHTO    O2 4189   5.927  10.509   1.089 -0.3305  0.2056  0.0062
   10CHTO    C1 4190   6.060  10.515   1.137  0.0758  0.1359 -0.1342
   10CHTO   H14 4191   6.076  10.592   1.215 -0.8388 -0.4468  0.6387
   10CHTO    C2 4192   6.172  10.529   1.020  0.1500  0.0690 -0.4697
   10CHTO   H15 4193   6.157  10.461   0.935 -0.4603 -1.2411  0.6699
   10CHTO    O6 4194   6.154  10.660   0.971 -0.4896  0.1645 -0.6123
   10CHTO    H1 4195   6.214  10.719   1.012  0.0627 -1.7856  1.5064
   10CHTO    C3 4196   6.323  10.502   1.078 -0.3120 -0.3895 -0.3102
   10CHTO   H16 4197   6.347  10.590   1.139 -2.3957 -1.4038  2.0683
   10CHTO    N1 4198   6.421  10.487   0.959 -0.2089 -0.4175  0.1377
   10CHTO    H8 4199   6.466  10.582   0.934 -0.0487 -0.5989 -0.2668
   10CHTO    H9 4200   6.487  10.403   0.975 -1.6557 -1.8736 -1.2997
   10CHTO    C4 4201   6.325  10.378   1.176 -0.9114  0.3832 -0.3019
   10CHTO   H17 4202   6.310  10.285   1.120  2.3670 -0.6237  0.4122
   10CHTO    O1 4203   6.220  10.389   1.277  0.0266 -0.1194 -0.2532
   10CHTO    C5 4204   6.093  10.382   1.215  0.1558  0.3061 -0.0905
   10CHTO   H18 4205   6.100  10.297   1.147  0.8638 -0.6781  1.2098
   10CHTO   C16 4206   5.978  10.356   1.320 -0.3599  0.1978  0.1528
   10CHTO   O11 4207   5.994  10.234   1.399  0.0187  0.3664  0.2852
   10CHTO    H5 4208   6.034  10.158   1.362 -0.7186  0.4491 -0.7105
   10CHTO    O3 4209   6.451  10.365   1.242 -0.3855  0.1155  0.0026
   10CHTO    C6 4210   6.498  10.232   1.281  0.2887  0.0035 -0.5386
   10CHTO   H19 4211   6.419  10.158   1.296 -0.3800  1.0280  1.0723
   10CHTO    C8 4212   6.593  10.168   1.170  0.4320 -0.6001  0.7524
   10CHTO   H21 4213   6.657  10.246   1.130 -0.6954 -0.4695 -0.8411
   10CHTO    O7 4214   6.507  10.130   1.065  0.2859 -0.0694 -0.5195
   10CHTO    H2 4215   6.440  10.068   1.090  0.2691  0.3888  0.6093
   10CHTO   C12 4216   6.674  10.045   1.228 -0.0549  0.7136  0.6204
   10CHTO   H25 4217   6.593   9.969   1.232 -1.5005  2.1817  0.1669
   10CHTO    N3 4218   6.784   9.997   1.136  0.1151  0.3782 -0.3221
   10CHTO   H12 4219   6.877  10.048   1.157  0.1085  0.1121  0.3519
   10CHTO   H13 4220   6.802   9.891   1.136 -1.1312  0.1582 -1.2677
   10CHTO   C15 4221   6.737  10.085   1.370  0.9463 -0.5892 -1.2139
   10CHTO   H28 4222   6.817  10.159   1.363 -0.8576  1.5026 -0.1740
   10CHTO   O10 4223   6.797   9.952   1.458 -0.1684 -0.4200  0.4761
   10CHTO    H4 4224   6.886   9.937   1.430 -0.9996 -1.3794 -1.7999
   10CHTO    O5 4225   6.640  10.139   1.462 -0.6663  0.1399  0.4182
   10CHTO   C10 4226   6.572  10.258   1.420 -0.2168  0.5964  0.5154
   10CHTO   H23 4227   6.643  10.340   1.433  1.6080 -1.1509  1.7835
   10CHTO   C17 4228   6.469  10.291   1.529  0.2106  0.5391  0.5339
   10CHTO   O12 4229   6.363  10.194   1.539 -0.2483 -0.0421 -0.7208
   10CHTO    H6 4230   6.336  10.170   1.452 -0.5667 -1.1227 -0.3331
   11CHTO  H203 4231   8.059   5.043   0.499 -0.2130  2.2323  3.3719
   11CHTO   O82 4232   7.975   5.070   0.467  0.1393 -0.3539 -0.0024
   11CHTO  C123 4233   7.966   5.219   0.460 -0.6103 -0.1371  0.2558
   11CHTO  H227 4234   8.016   5.251   0.368 -2.5127 -1.6232 -1.3437
   11CHTO   O77 4235   7.829   5.239   0.432  0.9157 -0.3743 -0.2361
   11CHTO  C118 4236   7.798   5.382   0.427 -0.4172 -0.2333 -1.0392
   11CHTO  H222 4237   7.867   5.424   0.353 -0.8977 -0.6764 -1.7461
   11CHTO  C125 4238   7.642   5.407   0.384  0.0473  0.0646 -0.1072
   11CHTO   O84 4239   7.640   5.518   0.300  0.1982  0.2149 -0.1831
   11CHTO  H205 4240   7.550   5.532   0.278  0.3379 -2.8555 -3.1523
   11CHTO  C114 4241   7.828   5.451   0.559  0.0289  0.1225 -0.2337
   11CHTO  H218 4242   7.758   5.407   0.630  0.2086  1.8928  1.0752
   11CHTO  C116 4243   7.977   5.430   0.604  0.1569 -0.0545 -0.4905
   11CHTO  H220 4244   8.036   5.482   0.526 -3.0291  2.3669 -1.3995
   11CHTO   O79 4245   8.005   5.488   0.730  0.1776 -0.2237 -0.2313
   11CHTO  H201 4246   8.079   5.452   0.775 -2.5227 -1.3277  3.5410
   11CHTO  C120 4247   8.013   5.279   0.599 -0.2708 -0.7607 -0.0026
   11CHTO  H224 4248   7.957   5.238   0.686 -0.5813 -1.2722 -0.4408
   11CHTO   N21 4249   8.158   5.243   0.618  1.0387 -0.2197  0.0227
   11CHTO  H211 4250   8.239   5.308   0.588  1.1782  0.0032  0.8615
   11CHTO  H212 4251   8.180   5.182   0.704  1.4672  0.0630  0.1173
   11CHTO   O75 4252   7.814   5.594   0.548 -0.8024  0.0865 -0.5094
   11CHTO  C112 4253   7.715   5.655   0.661 -0.3613  0.2210 -0.4499
   11CHTO  H216 4254   7.741   5.640   0.766  0.2117  0.6879 -0.5238
   11CHTO   O73 4255   7.581   5.602   0.631 -0.2060 -0.5956  0.2254
   11CHTO  C113 4256   7.470   5.669   0.695  0.0950 -0.0494 -0.1352
   11CHTO  H217 4257   7.464   5.654   0.805 -0.7932  0.6064 -0.0940
   11CHTO  C124 4258   7.344   5.593   0.645 -0.7366  0.0399 -0.1733
   11CHTO   O83 4259   7.334   5.583   0.501 -0.4330 -0.2544  0.4963
   11CHTO  H204 4260   7.286   5.658   0.470  2.9275  0.9065 -2.2627
   11CHTO  C109 4261   7.466   5.818   0.664  0.3088 -0.9419  0.0772
   11CHTO  H213 4262   7.457   5.826   0.555  2.3000 -0.6569 -0.0754
   11CHTO  C110 4263   7.594   5.874   0.723 -0.5097  0.1670 -0.2619
   11CHTO  H214 4264   7.602   5.849   0.829  0.1934 -0.0892 -0.3738
   11CHTO   O78 4265   7.603   6.017   0.707 -0.1876  0.3967  0.2728
   11CHTO  H200 4266   7.533   6.066   0.747 -1.0352  0.0959 -0.8088
   11CHTO  C111 4267   7.716   5.808   0.644 -0.3259  0.0867 -0.3197
   11CHTO  H215 4268   7.706   5.834   0.537 -1.5384  2.1829  0.2784
   11CHTO   N19 4269   7.847   5.858   0.681  0.3033 -0.6982  0.3591
   11CHTO  H207 4270   7.910   5.827   0.599  1.1583  0.6024  0.5026
   11CHTO  H208 4271   7.854   5.964   0.699 -1.0993 -0.5076 -0.2040
   11CHTO   O74 4272   7.350   5.880   0.724  0.3574  0.1558 -0.2061
   11CHTO  C115 4273   7.274   5.989   0.617 -0.8793 -0.1402 -0.2951
   11CHTO  H219 4274   7.339   6.012   0.532 -1.2894 -2.1605 -1.1666
   11CHTO   O76 4275   7.156   5.924   0.550  0.7548  0.1673  0.3902
   11CHTO  C122 4276   7.040   5.891   0.630 -0.7895 -0.3414  0.8724
   11CHTO  H226 4277   7.071   5.804   0.688  3.1102  0.2965 -0.1069
   11CHTO  C126 4278   6.919   5.852   0.536  0.3662  0.2578  0.7062
   11CHTO   O85 4279   6.900   5.948   0.437  0.0753  0.2187 -0.2981
   11CHTO  H206 4280   6.834   5.910   0.383 -1.4075 -1.8975  2.8134
   11CHTO  C121 4281   7.007   6.010   0.725 -0.0182 -0.0753 -0.4301
   11CHTO  H225 4282   6.898   6.024   0.710  0.0246  0.7121 -0.0945
   11CHTO   O81 4283   7.029   5.979   0.864  0.0786 -0.5643  0.9719
   11CHTO  H202 4284   6.952   5.988   0.916 -2.0338 -3.1428 -1.5341
   11CHTO  C119 4285   7.079   6.148   0.686 -0.2943 -0.1889 -0.2885
   11CHTO  H223 4286   7.049   6.167   0.583 -0.5044 -1.6261 -0.5019
   11CHTO  C117 4287   7.234   6.123   0.691 -0.1282 -0.3606 -0.2781
   11CHTO  H221 4288   7.283   6.119   0.788 -1.2185 -2.4753  0.2072
   11CHTO   N20 4289   7.298   6.236   0.612  0.0135  0.4679 -0.0278
   11CHTO  H209 4290   7.400   6.250   0.643 -0.4844  0.7895  1.5185
   11CHTO  H210 4291   7.285   6.234   0.505  0.0670  1.6071 -0.0596
   11CHTO   O80 4292   7.019   6.283   0.764 -0.4114  0.5429 -0.0580
   11CHTO  C103 4293   7.037   6.299   0.937 -0.2060 -0.4742  0.5297
   11CHTO  H190 4294   7.041   6.201   0.983  1.2046 -0.9842 -0.6378
   11CHTO  C101 4295   7.162   6.380   0.968  0.4692 -0.4309  0.3970
   11CHTO  H188 4296   7.156   6.470   0.906  0.8918 -0.8450 -0.2580
   11CHTO   O68 4297   7.302   6.288   0.943 -0.1498 -0.0251  0.4041
   11CHTO  H168 4298   7.312   6.211   0.995  1.9787  0.1702  0.3108
   11CHTO   C99 4299   7.150   6.431   1.119  0.4535 -0.2548 -0.1273
   11CHTO  H186 4300   7.150   6.341   1.184  0.5010 -0.3473 -0.2544
   11CHTO   N17 4301   7.272   6.518   1.150  0.2346 -0.0145 -0.6810
   11CHTO  H174 4302   7.241   6.618   1.175 -0.5373  0.0522 -1.8855
   11CHTO  H175 4303   7.319   6.470   1.235  0.2319  1.1593 -0.0103
   11CHTO   C97 4304   7.016   6.509   1.145  0.2933 -0.5172 -0.0541
   11CHTO  H184 4305   7.018   6.584   1.065  1.9129  0.1371  0.5886
   11CHTO   O64 4306   6.911   6.412   1.121  0.4104  0.0909 -0.1431
   11CHTO  C104 4307   6.903   6.372   0.986 -0.6947  0.5291 -0.2802
   11CHTO  H191 4308   6.873   6.450   0.916 -1.0270  0.9418  0.3125
   11CHTO  C108 4309   6.782   6.278   0.981 -0.4701  0.7999  0.6987
   11CHTO   O71 4310   6.659   6.333   1.024 -0.1329  0.7484 -0.2095
   11CHTO  H171 4311   6.588   6.288   0.982 -0.7172  0.6781  0.8174
   11CHTO   O62 4312   6.998   6.565   1.280 -0.3852 -0.1159  0.0145
   11CHTO   C91 4313   6.898   6.668   1.289  0.4142 -0.0294 -0.1655
   11CHTO  H178 4314   6.838   6.669   1.198 -1.3622 -1.1297  0.9593
   11CHTO   C92 4315   6.984   6.798   1.313 -0.2396 -0.3460 -0.2591
   11CHTO  H179 4316   7.061   6.785   1.390  0.3295  0.0670 -0.7555
   11CHTO   O66 4317   7.053   6.828   1.187 -0.5820 -1.2203  0.2161
   11CHTO  H166 4318   7.059   6.922   1.180 -0.6941 -1.2221  0.0932
   11CHTO   C93 4319   6.894   6.916   1.359  0.1279 -0.3868  0.4185
   11CHTO  H180 4320   6.818   6.923   1.280  0.6127 -1.7499 -0.1925
   11CHTO   N16 4321   6.974   7.041   1.374 -0.0388 -1.0881  0.4082
   11CHTO  H172 4322   6.946   7.116   1.301  1.3748  0.0125  0.9695
   11CHTO  H173 4323   6.957   7.077   1.475 -0.0162 -0.3340  0.1528
   11CHTO   C94 4324   6.822   6.869   1.485 -0.5688 -0.0041 -0.1707
   11CHTO  H181 4325   6.894   6.830   1.558  1.1660 -0.0535 -1.8716
   11CHTO   O61 4326   6.729   6.761   1.460 -0.0739 -0.2283 -0.2730
   11CHTO   C95 4327   6.796   6.646   1.412 -0.0903 -0.1041 -0.6202
   11CHTO  H182 4328   6.856   6.603   1.492  2.5253  0.4639 -2.1984
   11CHTO  C106 4329   6.702   6.532   1.378 -0.7660 -0.4612 -0.3022
   11CHTO   O69 4330   6.777   6.413   1.382  0.1526 -0.5255  0.2144
   11CHTO  H169 4331   6.757   6.354   1.312  2.6113 -1.3928  0.1911
   11CHTO   O63 4332   6.734   6.995   1.553 -0.0927  0.3380 -0.3714
   11CHTO   C96 4333   6.754   7.012   1.718 -0.2720 -0.1269 -0.1828
   11CHTO  H183 4334   6.776   6.913   1.757  0.4193  1.2034  2.9760
   11CHTO   C98 4335   6.627   7.068   1.800  0.3964 -0.7876 -0.2091
   11CHTO  H185 4336   6.596   7.164   1.757  3.3407  0.0731 -0.5251
   11CHTO   O67 4337   6.524   6.980   1.762  0.3162  0.3039  0.1281
   11CHTO  H167 4338   6.536   6.890   1.786  0.0009  0.0372 -0.6873
   11CHTO  C102 4339   6.656   7.071   1.960 -0.3469  0.0514 -0.9221
   11CHTO  H189 4340   6.675   6.965   1.985  1.9525  0.6330 -0.1103
   11CHTO   N18 4341   6.541   7.106   2.044  0.0261 -0.0462 -0.4336
   11CHTO  H176 4342   6.539   7.213   2.053  1.8541 -0.0247 -0.0542
   11CHTO  H177 4343   6.555   7.062   2.142  0.3901  2.3993  0.6416
   11CHTO  C105 4344   6.780   7.158   1.989 -0.3073 -0.5817 -0.0834
   11CHTO  H192 4345   6.751   7.250   2.040  0.0548 -1.2552  1.3589
   11CHTO   O65 4346   6.855   7.192   1.867  0.1535 -0.0879  0.4560
   11CHTO  C100 4347   6.870   7.113   1.746  0.4364 -0.0808  0.8990
   11CHTO  H187 4348   6.865   7.179   1.658 -1.0961 -0.2023  0.8746
   11CHTO  C107 4349   7.013   7.049   1.744 -0.0201 -0.3408 -0.0451
   11CHTO   O70 4350   7.038   6.951   1.841 -0.5263 -0.0915 -0.3090
   11CHTO  H170 4351   7.128   6.926   1.837 -0.4373  0.2547 -0.5741
   11CHTO   O57 4352   6.870   7.052   2.091 -0.1463 -0.1277  0.3873
   11CHTO   C85 4353   6.950   7.078   2.206  1.0498 -0.3270  0.6674
   11CHTO  H157 4354   6.867   7.107   2.273  2.5620  0.3122  2.2716
   11CHTO   C83 4355   7.037   7.209   2.199  0.4375  0.2449 -0.4113
   11CHTO  H155 4356   6.978   7.299   2.184  0.2030  0.0380 -0.7269
   11CHTO   O56 4357   7.118   7.201   2.083  0.8755 -0.2283  0.2084
   11CHTO  H135 4358   7.084   7.268   2.026 -0.4574 -0.3457  0.8486
   11CHTO   C81 4359   7.127   7.223   2.327 -0.5253  0.1940  0.1098
   11CHTO  H153 4360   7.058   7.225   2.412  0.0459 -0.9440  0.6222
   11CHTO   N14 4361   7.194   7.350   2.325  0.1787  0.2516 -0.0621
   11CHTO  H141 4362   7.259   7.370   2.407 -2.2738  1.2837  1.6889
   11CHTO  H142 4363   7.115   7.422   2.323  1.3123  1.5347  0.6120
   11CHTO   C79 4364   7.219   7.097   2.350 -0.1754 -0.0029  0.2373
   11CHTO  H151 4365   7.280   7.115   2.438 -0.0205  1.9104 -0.2376
   11CHTO   O52 4366   7.142   6.981   2.364  0.1429 -0.0642  0.4211
   11CHTO   C86 4367   7.037   6.953   2.264 -0.4175  0.2718  0.0105
   11CHTO  H158 4368   7.092   6.902   2.181  0.1377 -0.2999  0.7215
   11CHTO   C90 4369   6.945   6.838   2.325  0.2394  0.1440  0.4221
   11CHTO   O60 4370   6.835   6.809   2.238  0.1154 -0.2673 -0.7465
   11CHTO  H138 4371   6.755   6.821   2.286 -0.7893 -2.4418 -1.6823
   11CHTO   O50 4372   7.310   7.073   2.236 -0.2067 -0.5180  0.0047
   11CHTO   C73 4373   7.433   7.003   2.206  0.8039  0.2828 -0.3150
   11CHTO  H145 4374   7.423   6.897   2.234 -2.0917  0.3121 -1.1365
   11CHTO   C74 4375   7.551   7.063   2.283 -0.6175 -0.3069  0.1725
   11CHTO  H146 4376   7.528   7.052   2.390  0.1676  0.2024  0.3999
   11CHTO   O54 4377   7.657   6.966   2.254  0.3885 -0.0115 -0.5375
   11CHTO  H133 4378   7.715   7.010   2.194  1.0405 -0.6993 -0.4232
   11CHTO   C75 4379   7.571   7.214   2.248 -0.0491  0.7853 -0.4722
   11CHTO  H147 4380   7.478   7.265   2.280 -0.6687 -0.3127 -0.4823
   11CHTO   N13 4381   7.674   7.290   2.322  1.0257  0.7358  0.0930
   11CHTO  H139 4382   7.703   7.375   2.261  0.8293  0.6525 -0.1166
   11CHTO  H140 4383   7.762   7.227   2.327  0.2090 -0.3365  1.0829
   11CHTO   C76 4384   7.590   7.222   2.091  0.6782  0.0361 -0.6370
   11CHTO  H148 4385   7.689   7.180   2.075  0.7235 -0.1552  0.1113
   11CHTO   O49 4386   7.481   7.156   2.023  0.7733  0.9795 -0.1024
   11CHTO   C77 4387   7.454   7.022   2.051 -0.3933  0.2220 -0.2559
   11CHTO  H149 4388   7.538   6.961   2.020  0.3435  0.3210  1.5160
   11CHTO   C88 4389   7.336   6.976   1.966  0.2571 -0.0966 -0.3761
   11CHTO   O58 4390   7.373   6.989   1.797 -0.1255 -0.2807 -0.4997
   11CHTO  H136 4391   7.462   6.967   1.781 -0.5033 -1.6616 -0.7792
   11CHTO   O51 4392   7.583   7.382   2.035 -0.2805 -0.0841 -0.8488
   11CHTO   C78 4393   7.698   7.446   1.980  0.3978  0.8254 -0.6146
   11CHTO  H150 4394   7.793   7.396   2.008  0.1030  1.0546  0.8560
   11CHTO   C80 4395   7.701   7.596   2.010 -0.0316 -0.0175 -0.0315
   11CHTO  H152 4396   7.595   7.630   2.013 -0.0916 -0.2137  0.0728
   11CHTO   O55 4397   7.755   7.605   2.145 -0.3827  0.0258  0.4132
   11CHTO  H134 4398   7.706   7.676   2.183  0.6853  1.6964 -1.2441
   11CHTO   C84 4399   7.776   7.690   1.915 -0.1517  0.0359 -0.2169
   11CHTO  H156 4400   7.882   7.670   1.930 -0.4337 -1.5502 -0.2170
   11CHTO   N15 4401   7.751   7.830   1.952 -0.2177 -0.3821 -0.2031
   11CHTO  H143 4402   7.838   7.880   1.989 -0.9108 -0.5761  1.7290
   11CHTO  H144 4403   7.671   7.843   2.023 -1.3238  1.0012 -1.6569
   11CHTO   C87 4404   7.748   7.664   1.769 -0.5517  0.1346 -0.1009
   11CHTO  H159 4405   7.645   7.689   1.743  0.2014  1.3146 -2.0855
   11CHTO   O53 4406   7.775   7.508   1.755  0.0747  0.0582 -0.0244
   11CHTO   C82 4407   7.677   7.437   1.825 -0.5015 -0.1167  0.0223
   11CHTO  H154 4408   7.578   7.468   1.792 -0.7416 -0.7125  0.1752
   11CHTO   C89 4409   7.699   7.297   1.765  0.3498 -0.7789 -0.7172
   11CHTO   O59 4410   7.580   7.211   1.756  0.4059  0.1051  0.4299
   11CHTO  H137 4411   7.553   7.183   1.671  2.8226  0.2673 -0.4415
   11CHTO   O45 4412   7.865   7.740   1.664 -0.5610 -0.5252 -0.0023
   11CHTO   C67 4413   7.816   7.735   1.529  0.2543  0.0083 -0.1211
   11CHTO  H124 4414   7.776   7.639   1.497  0.3176  0.7078 -2.3948
   11CHTO   C65 4415   7.705   7.848   1.510 -0.6248  0.7204 -0.2856
   11CHTO  H122 4416   7.699   7.908   1.601  0.0672 -0.9614  0.8887
   11CHTO   O44 4417   7.582   7.772   1.507  0.2474  0.8036  0.7191
   11CHTO  H102 4418   7.564   7.729   1.589 -0.1618 -2.7203 -1.1199
   11CHTO   C63 4419   7.735   7.956   1.392 -0.5487  0.7110 -0.4017
   11CHTO  H120 4420   7.820   8.016   1.424 -1.3089  1.4358  0.3063
   11CHTO   N11 4421   7.635   8.057   1.375 -0.7801  0.0021  0.0419
   11CHTO  H108 4422   7.665   8.127   1.300  1.7970 -1.4288 -0.3165
   11CHTO  H109 4423   7.538   8.020   1.348 -2.1094  1.9467  2.0177
   11CHTO   C61 4424   7.780   7.883   1.261 -0.2998 -0.3363 -0.3237
   11CHTO  H118 4425   7.815   7.958   1.188  2.3338 -1.0908  0.1053
   11CHTO   O40 4426   7.885   7.792   1.281  0.7194  0.2653  0.5093
   11CHTO   C68 4427   7.929   7.765   1.421  0.1640  0.8040 -0.0343
   11CHTO  H125 4428   7.985   7.854   1.455 -0.4657  1.7615 -1.4642
   11CHTO   C72 4429   8.024   7.642   1.418 -0.5368  0.3150 -0.6353
   11CHTO   O48 4430   7.958   7.537   1.348  0.4455  0.2462  0.3753
   11CHTO  H105 4431   8.017   7.467   1.326 -0.7282  0.1317 -2.5780
   11CHTO   O38 4432   7.676   7.804   1.210  0.1645  0.2391 -0.0754
   11CHTO   C55 4433   7.653   7.805   1.070 -0.3288 -0.5334 -0.0658
   11CHTO  H112 4434   7.742   7.849   1.022  1.0114 -1.5770  1.3678
   11CHTO   C56 4435   7.516   7.888   1.033  0.2608  0.3798 -0.4817
   11CHTO  H113 4436   7.441   7.835   1.093 -0.3523 -0.2984 -1.8039
   11CHTO   O42 4437   7.530   8.026   1.077 -0.1315  0.1127  0.1356
   11CHTO  H100 4438   7.562   8.032   1.165  0.8962  1.6726 -0.3214
   11CHTO   C57 4439   7.486   7.865   0.881  0.0497  0.2904 -0.2302
   11CHTO  H114 4440   7.570   7.910   0.828 -0.5128 -1.7576 -2.9189
   11CHTO   N10 4441   7.364   7.926   0.837 -0.4955  0.1270 -0.2401
   11CHTO  H106 4442   7.348   8.010   0.903 -0.3289 -1.1380  1.4407
   11CHTO  H107 4443   7.278   7.861   0.841 -1.0588  0.8976  0.4281
   11CHTO   C58 4444   7.486   7.710   0.855  0.0758 -0.7749  0.3118
   11CHTO  H115 4445   7.410   7.662   0.921  0.2216 -0.9974  0.3200
   11CHTO   O37 4446   7.613   7.647   0.883 -0.5790 -0.2510  0.3026
   11CHTO   C59 4447   7.641   7.654   1.026 -0.0057  0.2570  0.0656
   11CHTO  H116 4448   7.560   7.598   1.073  1.8709 -0.4282  2.5733
   11CHTO   C70 4449   7.781   7.582   1.044 -0.4088  0.0022 -0.2132
   11CHTO   O46 4450   7.773   7.439   1.015  0.6197 -0.1603  0.3545
   11CHTO  H103 4451   7.760   7.397   1.098  0.3515 -1.2753 -0.2404
   11CHTO   O39 4452   7.450   7.681   0.694  0.1775  0.1637  0.2146
   11CHTO   C60 4453   7.350   7.580   0.670  0.6699 -0.9557 -0.5298
   11CHTO  H117 4454   7.293   7.576   0.762 -0.5818  0.9853 -1.1814
   11CHTO   C62 4455   7.255   7.610   0.556 -0.5130 -0.5666  0.5076
   11CHTO  H119 4456   7.205   7.706   0.579  1.1349  0.2706  0.7267
   11CHTO   O43 4457   7.335   7.628   0.440 -0.1161  0.1289 -0.2573
   11CHTO  H101 4458   7.289   7.619   0.359  2.9906 -0.6229 -2.0057
   11CHTO   C66 4459   7.143   7.503   0.521 -0.2408  0.2646  0.0686
   11CHTO  H123 4460   7.076   7.494   0.607  0.5261 -0.6712  0.5815
   11CHTO   N12 4461   7.064   7.544   0.398  0.1803  0.2048  0.0488
   11CHTO  H110 4462   7.040   7.456   0.340 -0.4722  1.4680 -1.6402
   11CHTO  H111 4463   7.112   7.612   0.329  0.2404 -0.5363 -0.6392
   11CHTO   C69 4464   7.214   7.366   0.510  0.0391 -0.5822 -0.3222
   11CHTO  H126 4465   7.277   7.361   0.419  0.4501 -1.1099 -0.0129
   11CHTO   O41 4466   7.312   7.339   0.635  0.0302 -0.4860 -0.4250
   11CHTO   C64 4467   7.417   7.444   0.650 -0.0157  1.0343 -0.0289
   11CHTO  H121 4468   7.490   7.446   0.566  0.4692 -0.0214  0.3583
   11CHTO   C71 4469   7.508   7.393   0.764 -0.1150  0.2972 -0.0295
   11CHTO   O47 4470   7.442   7.359   0.888 -0.5034 -0.2803  0.2166
   11CHTO  H104 4471   7.406   7.273   0.880 -1.3288  0.2859 -2.4756
   11CHTO   O34 4472   7.117   7.253   0.511 -0.4597  0.0213 -0.0512
   11CHTO   C49 4473   6.986   7.194   0.584  0.5177  0.0052 -0.7747
   11CHTO   H91 4474   6.923   7.282   0.600  1.6328  0.7965 -0.7283
   11CHTO   C47 4475   7.025   7.128   0.720  0.5313  0.3241 -0.2107
   11CHTO   H89 4476   6.934   7.081   0.764 -0.3118  0.0071 -2.2547
   11CHTO   O33 4477   7.077   7.223   0.809  0.0050  0.0964 -0.5332
   11CHTO   H70 4478   7.013   7.285   0.836 -0.9816 -1.0793 -0.1527
   11CHTO   C45 4479   7.131   7.016   0.687  0.2276  0.0548  0.1396
   11CHTO   H87 4480   7.221   7.050   0.634 -1.7769  0.0838 -3.3639
   11CHTO    N8 4481   7.182   6.947   0.811  0.3119 -0.3760  0.4146
   11CHTO   H75 4482   7.216   7.016   0.886  1.2931 -0.5341  0.1280
   11CHTO   H76 4483   7.107   6.881   0.852  0.0522  0.1335  0.7642
   11CHTO   C43 4484   7.067   6.915   0.578  0.5732  0.6581  0.1469
   11CHTO   H85 4485   7.149   6.848   0.551  0.1804  0.3701 -0.3341
   11CHTO   O29 4486   7.011   6.980   0.467  0.3237  0.2712  0.2892
   11CHTO   C50 4487   6.926   7.089   0.494 -0.2258 -0.3675  0.0836
   11CHTO   H92 4488   6.913   7.149   0.403 -0.6618 -0.9024 -0.2076
   11CHTO   C54 4489   6.776   7.053   0.523 -0.4863 -0.5679 -0.0929
   11CHTO   O36 4490   6.697   6.998   0.421 -0.4679 -0.7558 -0.6108
   11CHTO   H72 4491   6.642   7.059   0.376 -0.1790  0.1584  0.2623
   11CHTO   O27 4492   6.974   6.826   0.636  0.7204 -0.1872  0.2036
   11CHTO   C37 4493   6.904   6.716   0.695  0.4009  0.0125 -0.2410
   11CHTO   H79 4494   6.975   6.649   0.745 -0.6147  0.4275  1.8116
   11CHTO   C38 4495   6.794   6.782   0.792 -0.4828 -0.7677 -0.2453
   11CHTO   H80 4496   6.740   6.856   0.732 -1.2819  0.6107  2.1081
   11CHTO   O31 4497   6.858   6.841   0.913  0.5342 -1.1180  0.3317
   11CHTO   H68 4498   6.817   6.915   0.953  1.3215 -0.5909  0.1613
   11CHTO   C39 4499   6.691   6.671   0.836  0.4514 -0.9306 -0.1767
   11CHTO   H81 4500   6.743   6.624   0.920  2.2044  1.0523 -0.1326
   11CHTO    N7 4501   6.571   6.732   0.905 -0.8929 -0.0021  0.1556
   11CHTO   H73 4502   6.566   6.838   0.883 -2.9982  0.2369  1.6592
   11CHTO   H74 4503   6.478   6.682   0.885 -0.7921  0.5741 -1.9427
   11CHTO   C40 4504   6.654   6.573   0.718 -0.4789 -0.1693 -0.1126
   11CHTO   H82 4505   6.577   6.619   0.655 -0.0261  0.1622 -0.4236
   11CHTO   O26 4506   6.764   6.524   0.639  0.4526  0.3631  0.6054
   11CHTO   C41 4507   6.833   6.639   0.586 -0.1162  0.0083  0.0884
   11CHTO   H83 4508   6.760   6.704   0.534  2.3495  2.0942 -0.8319
   11CHTO   C52 4509   6.937   6.586   0.481 -0.3957  0.3372  0.4293
   11CHTO   O35 4510   7.033   6.483   0.534  0.1384 -0.2777 -0.4496
   11CHTO   H71 4511   7.073   6.510   0.614  1.7011 -0.7969 -1.0439
   11CHTO   O28 4512   6.604   6.445   0.762 -0.5031  0.0795  0.1819
   11CHTO   C42 4513   6.486   6.383   0.707  0.7351 -0.6902  0.4529
   11CHTO   H84 4514   6.478   6.432   0.610  1.0067  1.4423  1.4891
   11CHTO   C44 4515   6.355   6.428   0.788 -0.1751  0.6072  0.3061
   11CHTO   H86 4516   6.367   6.412   0.895  0.1601  1.8655  0.4659
   11CHTO   O32 4517   6.338   6.570   0.770  0.2573 -0.5266  0.3969
   11CHTO   H69 4518   6.250   6.603   0.766  0.5994  0.4120  0.6860
   11CHTO   C48 4519   6.229   6.342   0.739 -0.4247  0.5210 -0.5149
   11CHTO   H90 4520   6.217   6.374   0.636 -0.4201 -1.2734 -1.0972
   11CHTO    N9 4521   6.113   6.370   0.826  0.4151  0.7873  0.0323
   11CHTO   H77 4522   6.086   6.474   0.820 -2.4380  0.1957  1.6851
   11CHTO   H78 4523   6.133   6.349   0.930 -2.2922  0.9913  0.6256
   11CHTO   C51 4524   6.280   6.193   0.739 -0.0488  0.4501 -0.4134
   11CHTO   H93 4525   6.301   6.166   0.842 -2.9941 -1.4973 -0.2778
   11CHTO   O30 4526   6.396   6.182   0.649  0.5154 -0.3007 -0.0558
   11CHTO   C46 4527   6.499   6.230   0.694 -0.5465  0.7591 -0.7590
   11CHTO   H88 4528   6.518   6.186   0.791  2.2422  1.1506 -1.1003
   11CHTO   C53 4529   6.613   6.192   0.599  0.7045 -0.0968  0.9258
   11CHTO   O72 4530   6.743   6.229   0.645 -0.2105  0.2161  0.1206
   11CHTO  H199 4531   6.776   6.150   0.682 -0.9158  0.7698  2.0089
   11CHTO   O22 4532   6.174   6.105   0.696 -0.1054 -0.0305  0.1173
   11CHTO   C31 4533   6.140   5.986   0.783  0.2250 -0.0941 -0.2795
   11CHTO   H59 4534   6.184   5.998   0.884  0.4098 -0.4591 -0.3165
   11CHTO   C29 4535   5.980   5.982   0.803 -1.0612 -0.1040 -0.4166
   11CHTO   H57 4536   5.935   5.973   0.703  0.3103  0.2302 -1.0740
   11CHTO   O21 4537   5.923   6.100   0.858  0.3051 -0.1271 -0.0074
   11CHTO   H37 4538   5.970   6.122   0.936  1.6316  2.9352 -1.5888
   11CHTO   C27 4539   5.932   5.861   0.903  0.5938 -1.0804  0.3761
   11CHTO   H55 4540   5.979   5.874   1.001  1.2564  1.2669 -0.2190
   11CHTO    N5 4541   5.785   5.842   0.924  0.2050  0.2706  0.3833
   11CHTO   H43 4542   5.747   5.865   1.022 -0.3346  1.0262  0.0065
   11CHTO   H44 4543   5.729   5.885   0.842 -1.4057 -0.0602  1.2760
   11CHTO   C25 4544   6.002   5.731   0.844  0.3520 -0.3637 -0.3613
   11CHTO   H53 4545   5.952   5.707   0.749  2.8495 -1.4961 -1.4181
   11CHTO   O17 4546   6.151   5.753   0.821 -0.9971 -0.1395  0.4876
   11CHTO   C32 4547   6.192   5.856   0.723  0.3168 -0.0518 -0.3664
   11CHTO   H60 4548   6.151   5.842   0.623 -0.1099 -2.4267  0.1198
   11CHTO   C36 4549   6.350   5.836   0.716  0.3305  0.1274 -0.3252
   11CHTO   O25 4550   6.382   5.710   0.659 -0.2475  0.4153  0.2510
   11CHTO   H40 4551   6.458   5.715   0.604 -0.6048  0.3751 -0.2470
   11CHTO   O15 4552   5.981   5.614   0.944 -0.2001  0.5350  0.0661
   11CHTO   C19 4553   5.934   5.493   1.010  0.2701  0.1576 -0.4793
   11CHTO   H47 4554   6.014   5.462   1.079  0.2205 -2.0018 -1.3453
   11CHTO   C20 4555   5.798   5.509   1.088  0.1465  0.4469  0.0672
   11CHTO   H48 4556   5.715   5.534   1.020 -0.3749 -0.3803  0.3888
   11CHTO   O19 4557   5.814   5.621   1.178  0.0380 -0.3207 -0.5128
   11CHTO   H35 4558   5.741   5.680   1.178  0.4997  0.2551 -1.1831
   11CHTO   C21 4559   5.752   5.380   1.162  0.3347  0.2116 -0.4221
   11CHTO   H49 4560   5.834   5.349   1.227  0.2030 -0.7582 -0.7116
   11CHTO    N4 4561   5.634   5.395   1.246  0.3889  0.1211  0.0652
   11CHTO   H41 4562   5.634   5.494   1.290  0.3078 -0.7363  2.0760
   11CHTO   H42 4563   5.544   5.379   1.188  0.2775 -1.1347  0.5613
   11CHTO   C22 4564   5.729   5.270   1.054 -0.3165  0.5371  0.9095
   11CHTO   H50 4565   5.644   5.291   0.989  0.9447  1.8110 -0.3863
   11CHTO   O14 4566   5.845   5.257   0.972 -0.0566 -0.3980 -0.3403
   11CHTO   C23 4567   5.911   5.369   0.910 -0.3466 -0.0517  0.0403
   11CHTO   H51 4568   5.853   5.397   0.822  0.3325 -1.4863 -0.8744
   11CHTO   C34 4569   6.047   5.321   0.857  0.1637 -0.2008 -0.2079
   11CHTO   O23 4570   6.136   5.277   0.961  0.0280 -0.2306  0.5654
   11CHTO   H38 4571   6.196   5.210   0.935 -1.7474 -2.1276  1.3041
   11CHTO   O16 4572   5.710   5.137   1.102 -0.0758 -0.2548  0.6994
   11CHTO   C24 4573   5.630   5.054   0.986  0.1774  0.0131  0.3158
   11CHTO   H52 4574   5.627   5.110   0.893  2.8882 -1.9859 -1.0007
   11CHTO   C26 4575   5.479   5.037   1.032  0.2144 -0.3650 -0.0821
   11CHTO   H54 4576   5.477   4.969   1.119 -1.5587  0.5024  0.5747
   11CHTO   O20 4577   5.432   5.164   1.069 -0.1808  0.4288  0.2071
   11CHTO   H36 4578   5.369   5.154   1.138  0.3280 -0.4448  0.5610
   11CHTO   C30 4579   5.392   4.965   0.924 -0.0880  0.3854  0.0086
   11CHTO   H58 4580   5.369   5.042   0.850 -0.6840 -0.2909 -0.5236
   11CHTO    N6 4581   5.257   4.927   0.973  0.2855  0.1163  0.7585
   11CHTO   H45 4582   5.274   4.859   1.054 -0.5302  1.0803  1.7519
   11CHTO   H46 4583   5.210   5.017   1.011 -2.2405 -0.3075 -1.2292
   11CHTO   C33 4584   5.457   4.838   0.856 -0.2866  0.2665  0.3325
   11CHTO   H61 4585   5.443   4.757   0.929  3.2112  0.7814  1.6770
   11CHTO   O18 4586   5.598   4.862   0.840  0.6723 -0.2566  0.1297
   11CHTO   C28 4587   5.688   4.911   0.948  0.1909  0.0881  0.1891
   11CHTO   H56 4588   5.676   4.847   1.035  0.4672  3.1739  2.5494
   11CHTO   C35 4589   5.829   4.934   0.894 -0.7283 -0.1982  0.1802
   11CHTO   O24 4590   5.890   4.812   0.841  0.3688 -0.1309  0.2282
   11CHTO   H39 4591   5.979   4.809   0.870 -0.0117  0.1853  1.4688
   11CHTO    O9 4592   5.387   4.807   0.728 -0.1286  0.2326 -0.0525
   11CHTO   C13 4593   5.430   4.928   0.616  0.5576 -0.2004 -0.1468
   11CHTO   H26 4594   5.477   5.012   0.672 -0.6510  0.1857  0.2965
   11CHTO   C11 4595   5.298   4.977   0.535  0.1367  0.5671  0.3166
   11CHTO   H24 4596   5.226   5.031   0.599 -0.6979  1.7069 -1.5388
   11CHTO    O8 4597   5.231   4.861   0.481 -1.1893 -0.0233 -0.0566
   11CHTO    H3 4598   5.227   4.788   0.539 -2.1896  1.8478  2.3323
   11CHTO    C9 4599   5.342   5.089   0.439 -0.0347  0.1719 -0.3155
   11CHTO   H22 4600   5.357   5.179   0.501 -1.4930  0.2908 -0.1109
   11CHTO    N2 4601   5.239   5.130   0.344 -0.9592 -0.4490  0.7476
   11CHTO   H10 4602   5.212   5.053   0.273 -0.5856  0.4355 -0.3542
   11CHTO   H11 4603   5.149   5.173   0.384 -0.7519  2.2845 -1.5720
   11CHTO    C7 4604   5.486   5.058   0.374  0.3049 -0.1625 -1.0553
   11CHTO   H20 4605   5.556   5.110   0.442  1.0478 -1.0932 -1.1060
   11CHTO    O4 4606   5.511   4.918   0.375  0.2021  0.4516  0.1225
   11CHTO   C14 4607   5.536   4.870   0.511 -0.2164 -0.1642  0.0739
   11CHTO   H27 4608   5.640   4.906   0.528  1.9721 -5.3247 -1.4001
   11CHTO   C18 4609   5.543   4.717   0.500  0.4165 -0.0606  0.0078
   11CHTO   O13 4610   5.608   4.665   0.615 -0.1139  0.3967  0.0760
   11CHTO    H7 4611   5.680   4.611   0.590 -0.0062 -0.2906  1.8225
   11CHTO    O2 4612   5.519   5.115   0.214  0.3595  0.2054 -0.5338
   11CHTO    C1 4613   5.639   5.196   0.208 -0.3035  0.1057 -0.0298
   11CHTO   H14 4614   5.714   5.158   0.281  1.1586  1.5304 -0.7515
   11CHTO    C2 4615   5.601   5.352   0.232 -0.1613 -0.6001  0.2101
   11CHTO   H15 4616   5.519   5.378   0.164  0.0443 -1.3586 -0.3482
   11CHTO    O6 4617   5.560   5.368   0.373 -0.5512  0.3597 -0.6179
   11CHTO    H1 4618   5.470   5.344   0.385  0.2307 -1.4614  1.7896
   11CHTO    C3 4619   5.729   5.449   0.197  0.6412 -0.4480  0.0207
   11CHTO   H16 4620   5.811   5.447   0.271  0.0187 -0.4485  0.7089
   11CHTO    N1 4621   5.675   5.592   0.207 -0.0837  0.1009 -0.2332
   11CHTO    H8 4622   5.635   5.629   0.114  2.2041  0.8306 -0.9759
   11CHTO    H9 4623   5.739   5.669   0.249 -1.0783  1.0663 -0.4597
   11CHTO    C4 4624   5.798   5.413   0.062 -0.6126 -0.3673  0.4194
   11CHTO   H17 4625   5.748   5.463  -0.022 -3.8926 -3.4851  0.3550
   11CHTO    O1 4626   5.817   5.269   0.042 -0.5979  0.1597  0.1927
   11CHTO    C5 4627   5.699   5.186   0.063  0.1299  0.6461 -0.2874
   11CHTO   H18 4628   5.621   5.218  -0.006  0.6449 -0.3365 -1.3423
   11CHTO   C16 4629   5.740   5.039   0.024 -0.2958 -0.1039  0.2770
   11CHTO   O11 4630   5.863   4.995   0.091 -0.1664 -0.0139 -0.4174
   11CHTO    H5 4631   5.906   4.930   0.040 -0.6201 -0.1057 -0.6790
   11CHTO    O3 4632   5.934   5.470   0.065 -0.2248  0.6958  0.3534
   11CHTO    C6 4633   5.981   5.507  -0.064  0.0790  0.5436  0.3170
   11CHTO   H19 4634   5.922   5.477  -0.151  1.2245  0.2051 -0.3455
   11CHTO    C8 4635   5.975   5.658  -0.081  0.2747 -0.2990  0.0020
   11CHTO   H21 4636   6.045   5.709  -0.014 -2.4992  2.1697  1.1479
   11CHTO    O7 4637   5.841   5.695  -0.050 -0.6736  0.9777 -0.0290
   11CHTO    H2 4638   5.837   5.788  -0.050  0.4863  1.0397  0.2555
   11CHTO   C12 4639   6.014   5.696  -0.233 -0.3029  0.3352 -0.5331
   11CHTO   H25 4640   5.964   5.628  -0.304 -1.3080 -1.8686  2.1874
   11CHTO    N3 4641   5.982   5.842  -0.265  0.0125 -0.0525 -0.8862
   11CHTO   H12 4642   5.918   5.885  -0.190  0.0927  0.1215 -0.9165
   11CHTO   H13 4643   5.958   5.851  -0.370 -3.9732  1.6824  0.0878
   11CHTO   C15 4644   6.163   5.654  -0.242  0.7374 -0.6588  0.5510
   11CHTO   H28 4645   6.221   5.704  -0.164  2.1118 -0.8680 -0.3255
   11CHTO   O10 4646   6.214   5.686  -0.365  0.4321 -0.3179  0.7763
   11CHTO    H4 4647   6.223   5.778  -0.378  0.3375 -0.1114  2.1204
   11CHTO    O5 4648   6.176   5.514  -0.223  0.1659 -0.0266 -0.3082
   11CHTO   C10 4649   6.130   5.464  -0.098 -0.5315 -0.0156  0.6579
   11CHTO   H23 4650   6.186   5.510  -0.016 -1.6568 -0.3691  1.6427
   11CHTO   C17 4651   6.142   5.312  -0.094  0.5608  0.1567 -0.1561
   11CHTO   O12 4652   6.061   5.256  -0.200 -0.8477  0.4962 -0.3336
   11CHTO    H6 4653   6.103   5.277  -0.282  2.0091 -1.7409  0.4751
   12CHTO  H203 4654   5.910  11.964  -0.316  0.0913  0.9207 -2.3083
   12CHTO   O82 4655   5.829  11.921  -0.338  0.1857 -0.4189 -0.2579
   12CHTO  C123 4656   5.774  11.857  -0.217  0.2085  0.2009  0.2554
   12CHTO  H227 4657   5.801  11.920  -0.131  1.5057 -1.7981  1.3347
   12CHTO   O77 4658   5.635  11.844  -0.236  0.4283  0.3416  0.4422
   12CHTO  C118 4659   5.559  11.781  -0.128 -0.8058 -0.0271 -0.5441
   12CHTO  H222 4660   5.586  11.839  -0.039  0.4631  0.9154 -1.5291
   12CHTO  C125 4661   5.404  11.810  -0.154 -0.0175  0.9045 -0.1225
   12CHTO   O84 4662   5.392  11.954  -0.176 -0.5314 -0.4235  0.1400
   12CHTO  H205 4663   5.429  11.998  -0.102  0.5992 -0.2552 -0.5044
   12CHTO  C114 4664   5.603  11.641  -0.105  0.6250 -0.2097  0.6985
   12CHTO  H218 4665   5.581  11.587  -0.197 -0.4911  1.6484 -0.1480
   12CHTO  C116 4666   5.753  11.638  -0.081  0.1446 -0.3953 -0.3365
   12CHTO  H220 4667   5.787  11.688   0.012 -0.5406  2.0178 -1.3522
   12CHTO   O79 4668   5.795  11.502  -0.075 -0.7238  0.2902 -0.2326
   12CHTO  H201 4669   5.743  11.436  -0.115 -0.3518 -0.3782  0.3617
   12CHTO  C120 4670   5.835  11.714  -0.201  0.6215  1.1951 -0.7154
   12CHTO  H224 4671   5.821  11.661  -0.297  1.0522 -0.3750  0.0786
   12CHTO   N21 4672   5.978  11.719  -0.164 -0.4607 -0.1972 -0.4157
   12CHTO  H211 4673   6.005  11.797  -0.093  1.1511 -0.9462 -0.1789
   12CHTO  H212 4674   5.994  11.628  -0.108 -0.4287  0.0738  0.0246
   12CHTO   O75 4675   5.523  11.600   0.009  0.2308 -0.3218  0.1107
   12CHTO  C112 4676   5.481  11.456   0.003 -0.2092  0.5001 -1.0411
   12CHTO  H216 4677   5.561  11.398  -0.045 -0.8898 -2.9506  1.7619
   12CHTO   O73 4678   5.363  11.452  -0.073  0.2980  0.3776  0.0963
   12CHTO  C113 4679   5.314  11.322  -0.087 -0.0648  0.3089 -0.0580
   12CHTO  H217 4680   5.387  11.258  -0.143 -2.4092 -1.5485 -1.0776
   12CHTO  C124 4681   5.196  11.340  -0.183 -0.3878 -0.0783 -0.1761
   12CHTO   O83 4682   5.093  11.415  -0.127  0.2406 -0.4764 -0.0336
   12CHTO  H204 4683   5.065  11.371  -0.049 -0.0860  0.0174  0.1257
   12CHTO  C109 4684   5.274  11.256   0.045  0.4505  0.7796  0.3874
   12CHTO  H213 4685   5.184  11.311   0.077  0.8975  1.3445  0.6792
   12CHTO  C110 4686   5.389  11.260   0.145  0.1388  0.9214  0.1887
   12CHTO  H214 4687   5.455  11.181   0.107 -1.3408 -0.9134  1.3346
   12CHTO   O78 4688   5.349  11.225   0.281 -0.5264  0.2302  0.0970
   12CHTO  H200 4689   5.415  11.198   0.342 -1.9615  2.0501  2.5482
   12CHTO  C111 4690   5.451  11.398   0.152  0.4078  0.1750  0.0247
   12CHTO  H215 4691   5.384  11.470   0.200 -0.2724 -0.8139  0.5789
   12CHTO   N19 4692   5.581  11.396   0.232  0.2894 -0.2058  0.3982
   12CHTO  H207 4693   5.591  11.497   0.269  0.3815 -0.1345  0.1783
   12CHTO  H208 4694   5.657  11.351   0.170 -0.1412 -0.2559 -0.0927
   12CHTO   O74 4695   5.233  11.114   0.014 -0.2748 -0.5526  0.2854
   12CHTO  C115 4696   5.124  11.028   0.121 -0.9610  0.1284 -0.0229
   12CHTO  H219 4697   5.167  11.017   0.221 -1.6646 -2.1037  0.0572
   12CHTO   O76 4698   4.987  11.115   0.147  0.0999 -0.2710  0.5374
   12CHTO  C122 4699   4.887  11.044   0.218  0.2401  0.5924  0.2033
   12CHTO  H226 4700   4.793  11.092   0.190 -1.4272 -2.0910  1.0049
   12CHTO  C126 4701   4.909  11.059   0.368  0.7968  0.7522  0.4635
   12CHTO   O85 4702   4.907  11.199   0.395  0.4555 -0.0645 -0.1925
   12CHTO  H206 4703   4.996  11.224   0.410  0.0712  1.2246 -0.0590
   12CHTO  C121 4704   4.870  10.894   0.173 -0.3857  0.3410 -0.5080
   12CHTO  H225 4705   4.803  10.850   0.250 -1.9459  0.0950 -1.9840
   12CHTO   O81 4706   4.798  10.888   0.053  0.1811  0.5021 -0.8670
   12CHTO  H202 4707   4.731  10.822   0.060 -1.5901  2.3375  0.2727
   12CHTO  C119 4708   5.001  10.811   0.173 -0.0680  0.2555  0.3183
   12CHTO  H223 4709   5.042  10.821   0.274 -0.7587  1.1094  0.5190
   12CHTO  C117 4710   5.100  10.879   0.072  0.1632 -0.7900 -0.1615
   12CHTO  H221 4711   5.066  10.888  -0.031  0.9268 -0.2398 -0.3735
   12CHTO   N20 4712   5.232  10.809   0.069  0.5433  0.3023 -0.2541
   12CHTO  H209 4713   5.296  10.859  -0.002 -1.0848  1.3418 -1.0366
   12CHTO  H210 4714   5.233  10.716   0.013  2.3540 -1.0347  1.9303
   12CHTO   O80 4715   4.990  10.666   0.164 -0.7455  0.1196 -0.1862
   12CHTO  C103 4716   4.875  10.594   0.099 -0.4638  0.0431 -0.6776
   12CHTO  H190 4717   4.786  10.651   0.121 -0.3433 -0.1955  0.4185
   12CHTO  C101 4718   4.902  10.564  -0.055  0.0321 -0.0270  0.6338
   12CHTO  H188 4719   5.003  10.527  -0.076 -0.2786  0.4748 -1.8280
   12CHTO   O68 4720   4.893  10.714  -0.135 -0.2586 -0.1123 -0.2472
   12CHTO  H168 4721   4.884  10.699  -0.227  0.0025 -1.8184 -0.0054
   12CHTO   C99 4722   4.802  10.455  -0.113  0.5825  0.8364  0.1015
   12CHTO  H186 4723   4.698  10.496  -0.112 -0.0434 -0.6676 -0.8044
   12CHTO   N17 4724   4.837  10.411  -0.254  0.2791 -0.4005  0.3819
   12CHTO  H174 4725   4.920  10.342  -0.245  0.1352 -0.8178 -1.3143
   12CHTO  H175 4726   4.856  10.486  -0.329 -0.2825 -2.4367 -1.8594
   12CHTO   C97 4727   4.797  10.330  -0.019  0.7109  0.4621  0.0061
   12CHTO  H184 4728   4.885  10.264  -0.025 -1.0538 -1.8977 -0.9344
   12CHTO   O64 4729   4.776  10.365   0.114 -0.4188 -0.1866  0.2698
   12CHTO  C104 4730   4.870  10.457   0.179  0.0144  0.1557 -0.2568
   12CHTO  H191 4731   4.967  10.408   0.188 -0.7232 -1.0092  1.6557
   12CHTO  C108 4732   4.820  10.473   0.325 -0.5432  0.0065 -0.1236
   12CHTO   O71 4733   4.797  10.368   0.424  0.5954  0.2535  0.0745
   12CHTO  H171 4734   4.742  10.300   0.392  1.1559  0.3740 -1.1444
   12CHTO   O62 4735   4.687  10.249  -0.059  0.6220 -0.1775  1.1202
   12CHTO   C91 4736   4.677  10.120   0.008 -0.6227 -0.7343 -0.6045
   12CHTO  H178 4737   4.737  10.120   0.098 -2.2330 -1.9056  0.4990
   12CHTO   C92 4738   4.720   9.997  -0.084 -0.0207  0.1208 -0.7590
   12CHTO  H179 4739   4.666  10.000  -0.179 -0.4820 -2.4368 -0.6083
   12CHTO   O66 4740   4.859  10.015  -0.120  0.6311  0.3575 -0.4928
   12CHTO  H166 4741   4.875  10.107  -0.131 -0.0015  0.6358  0.7961
   12CHTO   C93 4742   4.697   9.866  -0.001  0.2914 -0.6165  0.1328
   12CHTO  H180 4743   4.766   9.856   0.084  0.3890  1.4815  0.3199
   12CHTO   N16 4744   4.729   9.741  -0.071 -0.1439  0.2178  0.6575
   12CHTO  H172 4745   4.721   9.657  -0.002  0.2567 -0.0192  0.4205
   12CHTO  H173 4746   4.655   9.727  -0.148  0.7286  0.0910 -0.1744
   12CHTO   C94 4747   4.544   9.851   0.050  0.2164 -0.4569 -0.8809
   12CHTO  H181 4748   4.474   9.834  -0.032 -0.3019 -2.4166 -0.0612
   12CHTO   O61 4749   4.512   9.970   0.129  0.4706 -0.3391 -0.3744
   12CHTO   C95 4750   4.528  10.096   0.051 -0.7556 -0.4099 -0.6070
   12CHTO  H182 4751   4.473  10.090  -0.043 -0.1833 -2.7415 -0.8270
   12CHTO  C106 4752   4.476  10.215   0.128  0.4405  0.1283  0.0368
   12CHTO   O69 4753   4.509  10.241   0.267 -0.3067  0.1547 -0.4509
   12CHTO  H169 4754   4.491  10.331   0.287  0.6305  0.4509 -0.8855
   12CHTO   O63 4755   4.507   9.702   0.143  0.1790 -0.1506 -0.2511
   12CHTO   C96 4756   4.610   9.658   0.265 -0.2074  0.2167 -0.7924
   12CHTO  H183 4757   4.691   9.731   0.271 -0.6258  0.6192  0.1024
   12CHTO   C98 4758   4.656   9.514   0.259 -0.2600  0.7173  1.2058
   12CHTO  H185 4759   4.572   9.450   0.229 -1.1711  1.6254  1.7742
   12CHTO   O67 4760   4.746   9.504   0.144  0.2907  0.5388  0.0983
   12CHTO  H167 4761   4.762   9.422   0.102  0.0662  0.4143  0.2561
   12CHTO  C102 4762   4.722   9.464   0.397 -0.1123 -0.3380 -0.8718
   12CHTO  H189 4763   4.823   9.507   0.403 -1.3116  2.5362 -0.3069
   12CHTO   N18 4764   4.750   9.316   0.400  0.3580 -0.3378  0.5655
   12CHTO  H176 4765   4.802   9.285   0.310  1.1767 -1.9829  1.5916
   12CHTO  H177 4766   4.660   9.256   0.397 -0.8934  1.5306 -0.5913
   12CHTO  C105 4767   4.639   9.509   0.516  0.1902  0.4833  0.0566
   12CHTO  H192 4768   4.551   9.444   0.517  1.3382 -1.0914 -0.5264
   12CHTO   O65 4769   4.602   9.648   0.513 -0.1169  0.2668 -0.5898
   12CHTO  C100 4770   4.527   9.673   0.396  0.4097  0.0321  0.6220
   12CHTO  H187 4771   4.443   9.603   0.381  0.7991 -0.1921 -0.5490
   12CHTO  C107 4772   4.455   9.808   0.423  0.0851 -0.0483 -0.7238
   12CHTO   O70 4773   4.552   9.916   0.414 -0.0413  0.1170 -0.6181
   12CHTO  H170 4774   4.505   9.992   0.445 -1.0951 -0.2881 -1.1842
   12CHTO   O57 4775   4.726   9.481   0.657  0.3520  0.0734 -0.0820
   12CHTO   C85 4776   4.675   9.377   0.751 -0.0866  0.0569  0.4616
   12CHTO  H157 4777   4.596   9.318   0.700 -0.6595 -0.0027  1.3981
   12CHTO   C83 4778   4.594   9.450   0.866 -0.4849 -0.1833  0.2198
   12CHTO  H155 4779   4.516   9.508   0.815  1.0943  0.6528 -1.2919
   12CHTO   O56 4780   4.680   9.551   0.924  0.0765 -0.3234  0.3089
   12CHTO  H135 4781   4.649   9.577   1.009 -1.6197 -1.0789 -0.0675
   12CHTO   C81 4782   4.532   9.354   0.968  0.5262 -0.1862 -0.2651
   12CHTO  H153 4783   4.449   9.302   0.920 -0.8901  2.7927 -1.1373
   12CHTO   N14 4784   4.456   9.423   1.076  0.5208 -0.0844 -0.1821
   12CHTO  H141 4785   4.491   9.520   1.103  4.3759 -1.4369 -0.0163
   12CHTO  H142 4786   4.465   9.361   1.163  1.0799  0.5338  0.2041
   12CHTO   C79 4787   4.639   9.256   1.023 -0.6533 -0.3408  0.3058
   12CHTO  H151 4788   4.588   9.168   1.062  2.2421 -0.4442  4.1361
   12CHTO   O52 4789   4.725   9.191   0.920 -0.2817 -0.3988  0.1329
   12CHTO   C86 4790   4.784   9.284   0.822  0.0020 -0.3088  0.0149
   12CHTO  H158 4791   4.859   9.339   0.882 -0.1176 -0.2619  0.1206
   12CHTO   C90 4792   4.859   9.200   0.715 -0.7962 -0.2207  0.1112
   12CHTO   O60 4793   4.979   9.143   0.775  0.5733 -0.1164  0.7763
   12CHTO  H138 4794   5.011   9.069   0.725 -1.0223  1.0174 -2.0608
   12CHTO   O50 4795   4.734   9.312   1.123  0.1223  0.0108 -0.2351
   12CHTO   C73 4796   4.827   9.296   1.229  0.2585  0.4823 -0.4952
   12CHTO  H145 4797   4.774   9.249   1.313  0.7578 -0.7582 -0.8572
   12CHTO   C74 4798   4.874   9.442   1.271 -0.2453  0.0142  0.2919
   12CHTO  H146 4799   4.786   9.503   1.298 -0.4751  0.2438 -0.9567
   12CHTO   O54 4800   4.960   9.429   1.389 -0.2519  0.0026  0.4995
   12CHTO  H133 4801   4.970   9.506   1.441  1.5411 -1.7320  2.8254
   12CHTO   C75 4802   4.953   9.511   1.154 -0.2619  0.0480 -0.8911
   12CHTO  H147 4803   4.880   9.514   1.072 -1.6705  0.5257  0.3549
   12CHTO   N13 4804   4.991   9.650   1.180 -0.0613  0.9295 -0.2910
   12CHTO  H139 4805   5.096   9.664   1.157  0.3686 -0.5357  0.7012
   12CHTO  H140 4806   4.935   9.712   1.112  0.1840  0.1861 -1.1937
   12CHTO   C76 4807   5.072   9.414   1.102 -0.4120  0.2177  0.4015
   12CHTO  H148 4808   5.147   9.415   1.181 -0.9472  3.4776  0.9655
   12CHTO   O49 4809   5.025   9.274   1.077  0.4309 -0.1627 -0.0741
   12CHTO   C77 4810   4.953   9.214   1.187  0.0320 -0.2452  0.5423
   12CHTO  H149 4811   5.016   9.211   1.276  0.5035  0.8690  0.2498
   12CHTO   C88 4812   4.929   9.071   1.157  0.3082  0.6597 -0.0111
   12CHTO   O58 4813   4.883   8.999   1.286 -0.3911 -0.6372 -0.2629
   12CHTO  H136 4814   4.888   8.905   1.286  1.0577 -0.5676 -1.4528
   12CHTO   O51 4815   5.132   9.463   0.960  0.2010 -0.8439  0.2880
   12CHTO   C78 4816   5.284   9.429   0.946  0.2535 -0.5488 -0.1900
   12CHTO  H150 4817   5.302   9.335   1.002  0.9980  1.4047  2.9741
   12CHTO   C80 4818   5.363   9.539   1.023 -0.5892 -0.2740  0.0736
   12CHTO  H152 4819   5.330   9.638   0.985 -1.2245 -0.9457 -1.1932
   12CHTO   O55 4820   5.327   9.542   1.162  0.3988  0.3400  0.3532
   12CHTO  H134 4821   5.355   9.625   1.195  1.5539 -0.3215  1.0715
   12CHTO   C84 4822   5.519   9.519   1.000  0.9027 -0.0284  0.0279
   12CHTO  H156 4823   5.541   9.447   1.079 -0.8719  1.0541  1.5426
   12CHTO   N15 4824   5.599   9.644   1.031  0.3023 -0.0836 -0.1748
   12CHTO  H143 4825   5.573   9.675   1.130  1.7569 -2.1144  0.8698
   12CHTO  H144 4826   5.576   9.719   0.958 -1.8887 -0.3784  0.1719
   12CHTO   C87 4827   5.563   9.469   0.856 -0.1327 -0.5536  0.4783
   12CHTO  H159 4828   5.573   9.548   0.782  0.3464  1.1754  2.3590
   12CHTO   O53 4829   5.471   9.382   0.793  0.4401  0.1702 -0.0716
   12CHTO   C82 4830   5.335   9.422   0.800 -0.2213  0.1134 -0.0566
   12CHTO  H154 4831   5.332   9.522   0.755  0.0151 -0.0054 -0.3355
   12CHTO   C89 4832   5.241   9.334   0.709 -0.6763 -0.3461  0.8030
   12CHTO   O59 4833   5.300   9.306   0.579  0.3638 -0.5801  0.0127
   12CHTO  H137 4834   5.262   9.230   0.538 -1.8435  1.0121 -0.9646
   12CHTO   O45 4835   5.712   9.378   0.871 -0.0190  0.6490 -0.3204
   12CHTO   C67 4836   5.801   9.370   0.764  0.6124 -0.1042 -1.1531
   12CHTO  H124 4837   5.891   9.315   0.789 -0.1782 -1.1542 -0.5914
   12CHTO   C65 4838   5.742   9.309   0.633  0.1444 -0.4809  0.4675
   12CHTO  H122 4839   5.645   9.263   0.653 -1.0526  2.0463  0.6447
   12CHTO   O44 4840   5.835   9.203   0.594 -0.4025  0.4606 -0.4476
   12CHTO  H102 4841   5.918   9.233   0.563 -0.4462 -0.2943 -1.3317
   12CHTO   C63 4842   5.706   9.421   0.524  0.2120 -0.0853 -0.0910
   12CHTO  H120 4843   5.659   9.507   0.572  0.1441  0.2599 -0.7570
   12CHTO   N11 4844   5.603   9.380   0.423 -0.1977  0.1898  0.0691
   12CHTO  H108 4845   5.648   9.354   0.330  2.9070 -0.6433  1.7401
   12CHTO  H109 4846   5.537   9.461   0.400 -0.9212 -0.4162 -0.0198
   12CHTO   C61 4847   5.840   9.483   0.486  0.1356  0.4626 -0.0356
   12CHTO  H118 4848   5.810   9.568   0.424 -0.3334  2.0731  2.3310
   12CHTO   O40 4849   5.914   9.536   0.606 -0.1950  0.5396  0.5194
   12CHTO   C68 4850   5.855   9.519   0.738 -0.0591 -0.0794 -0.0147
   12CHTO  H125 4851   5.775   9.596   0.738 -1.4235 -1.4492  1.3741
   12CHTO   C72 4852   5.968   9.572   0.837 -0.1247 -0.0527  0.3904
   12CHTO   O48 4853   5.917   9.567   0.969 -0.7171  0.2056 -0.2009
   12CHTO  H105 4854   5.996   9.587   1.017  0.2240 -1.3649 -1.0514
   12CHTO   O38 4855   5.930   9.396   0.415  0.2079 -0.1774  0.0259
   12CHTO   C55 4856   6.029   9.442   0.324 -0.7231  0.0273  0.0247
   12CHTO  H112 4857   6.057   9.543   0.359  4.1435 -0.8732 -0.9405
   12CHTO   C56 4858   5.974   9.450   0.166 -0.4595  0.0464 -0.2189
   12CHTO  H113 4859   5.949   9.345   0.145 -1.8710  0.4964 -0.8939
   12CHTO   O42 4860   5.854   9.524   0.146  0.3168 -0.4916 -0.4785
   12CHTO  H100 4861   5.789   9.491   0.206 -0.5644 -0.0690 -1.1807
   12CHTO   C57 4862   6.095   9.501   0.079  0.0300 -0.7631 -0.3585
   12CHTO  H114 4863   6.114   9.604   0.107  2.1318 -0.9866 -0.9320
   12CHTO   N10 4864   6.067   9.514  -0.068 -0.2955  0.0789 -0.5696
   12CHTO  H106 4865   5.989   9.448  -0.105 -1.8954  1.2131  0.7088
   12CHTO  H107 4866   6.153   9.530  -0.131  0.2779 -1.6668 -0.2504
   12CHTO   C58 4867   6.220   9.415   0.098 -0.5431 -0.1690  0.1127
   12CHTO  H115 4868   6.200   9.309   0.072  1.4594 -0.5950  0.2804
   12CHTO   O37 4869   6.251   9.414   0.234 -0.3999  0.1640  0.8415
   12CHTO   C59 4870   6.158   9.364   0.328 -0.0732  0.9510 -0.6153
   12CHTO  H116 4871   6.130   9.260   0.309  1.1215  0.0893  2.0875
   12CHTO   C70 4872   6.216   9.368   0.467  0.3826 -0.2980  0.0960
   12CHTO   O46 4873   6.137   9.304   0.566 -0.6391 -0.0365 -0.2691
   12CHTO  H103 4874   6.155   9.212   0.570 -1.2766 -0.0991  2.1452
   12CHTO   O39 4875   6.351   9.462   0.016 -0.2299 -0.1798  0.0351
   12CHTO   C60 4876   6.448   9.360  -0.008  0.2710 -0.1476 -0.5308
   12CHTO  H117 4877   6.430   9.274   0.056 -2.3397 -0.2791 -1.3516
   12CHTO   C62 4878   6.435   9.296  -0.141  0.5875 -0.3590  0.1017
   12CHTO  H119 4879   6.329   9.264  -0.148  0.6023 -1.2318  3.3344
   12CHTO   O43 4880   6.455   9.392  -0.244 -0.0896 -0.2502 -0.1179
   12CHTO  H101 4881   6.394   9.392  -0.316  0.3842  1.1998 -0.5174
   12CHTO   C66 4882   6.533   9.167  -0.149 -0.1370 -0.2235  0.1514
   12CHTO  H123 4883   6.501   9.097  -0.073 -0.6002 -1.5132 -1.2128
   12CHTO   N12 4884   6.511   9.088  -0.272  0.0654 -0.5669 -0.3821
   12CHTO  H110 4885   6.422   9.027  -0.260 -2.7420  3.7216  1.9400
   12CHTO  H111 4886   6.600   9.028  -0.284  2.7691  2.9130  1.2873
   12CHTO   C69 4887   6.684   9.210  -0.131  0.7660  0.2700  0.3006
   12CHTO  H126 4888   6.728   9.260  -0.220 -0.1089  0.1070 -0.2286
   12CHTO   O41 4889   6.693   9.297  -0.001  0.4851 -0.1328  0.4282
   12CHTO   C64 4890   6.594   9.407   0.023 -0.1651 -0.5051 -0.4383
   12CHTO  H121 4891   6.615   9.502  -0.030  0.4955 -1.1018 -1.2485
   12CHTO   C71 4892   6.600   9.458   0.167  0.1427 -0.5510  0.6216
   12CHTO   O47 4893   6.515   9.565   0.203  0.1872 -0.2858  0.1308
   12CHTO  H104 4894   6.432   9.559   0.159 -0.6859 -0.3863  1.7365
   12CHTO   O34 4895   6.780   9.089  -0.118 -0.0293 -0.4319 -0.0439
   12CHTO   C49 4896   6.923   9.048  -0.153  0.1781  0.0180 -0.4322
   12CHTO   H91 4897   6.930   9.029  -0.260  0.3487 -0.3955 -0.3479
   12CHTO   C47 4898   6.968   8.925  -0.079  0.6290  0.2400  0.5544
   12CHTO   H89 4899   7.064   8.900  -0.128 -0.1581 -0.4762 -0.6743
   12CHTO   O33 4900   6.872   8.817  -0.097  0.0741  0.1462  0.3878
   12CHTO   H70 4901   6.916   8.738  -0.073  1.3671  0.6784 -0.1666
   12CHTO   C45 4902   6.992   8.948   0.081  0.3812 -0.0325  0.5975
   12CHTO   H87 4903   6.917   8.884   0.130  2.0649 -2.9637 -0.5482
   12CHTO    N8 4904   7.126   8.895   0.112  0.8475  0.3026  0.3748
   12CHTO   H75 4905   7.205   8.966   0.092 -0.4246  1.3108 -1.0837
   12CHTO   H76 4906   7.148   8.804   0.058  0.4704 -1.0732  2.4473
   12CHTO   C43 4907   6.972   9.097   0.126  0.5820  0.7315  0.6362
   12CHTO   H85 4908   6.865   9.114   0.110  0.3082 -0.9614  0.5685
   12CHTO   O29 4909   7.057   9.175   0.036  0.3868 -0.4891 -0.0696
   12CHTO   C50 4910   7.021   9.163  -0.109  0.3411 -0.2050  0.9796
   12CHTO   H92 4911   6.966   9.254  -0.138 -2.0677 -1.5258  1.2237
   12CHTO   C54 4912   7.150   9.167  -0.197  0.2711  0.3130  0.2409
   12CHTO   O36 4913   7.197   9.297  -0.185  0.4647 -0.5301  0.2715
   12CHTO   H72 4914   7.289   9.304  -0.169  0.6463 -0.5540 -0.7587
   12CHTO   O27 4915   6.988   9.120   0.263  0.1586 -0.1191  0.1924
   12CHTO   C37 4916   6.924   9.138   0.389 -0.4409 -0.4576 -0.2476
   12CHTO   H79 4917   7.001   9.182   0.455 -0.7198 -1.3350  0.6747
   12CHTO   C38 4918   6.808   9.241   0.389  0.6443 -0.7178  0.5243
   12CHTO   H80 4919   6.734   9.201   0.318  1.8679 -0.9157 -0.6455
   12CHTO   O31 4920   6.866   9.364   0.345  0.1219 -0.0173  0.0754
   12CHTO   H68 4921   6.804   9.428   0.316 -0.7202 -0.4568  0.8821
   12CHTO   C39 4922   6.740   9.252   0.532 -0.0093 -0.0722  0.0128
   12CHTO   H81 4923   6.817   9.287   0.600 -0.7320  0.9668  0.3206
   12CHTO    N7 4924   6.631   9.356   0.534  0.3304  0.1410  0.4395
   12CHTO   H73 4925   6.584   9.355   0.631  1.1594 -0.3709  0.8422
   12CHTO   H74 4926   6.562   9.339   0.452  2.1864  0.2222 -1.1913
   12CHTO   C40 4927   6.690   9.112   0.575  0.3865  0.0760 -0.4940
   12CHTO   H82 4928   6.607   9.087   0.509 -1.5662 -0.2585  2.0406
   12CHTO   O26 4929   6.799   9.019   0.567  0.1059  0.1592 -0.1545
   12CHTO   C41 4930   6.882   9.002   0.450 -0.4618 -0.2928  0.1517
   12CHTO   H83 4931   6.816   8.941   0.385  0.9822 -2.8018  0.9692
   12CHTO   C52 4932   6.995   8.905   0.502  1.1564  0.0677 -0.8630
   12CHTO   O35 4933   7.034   8.790   0.415 -0.0648  0.1118 -0.8065
   12CHTO   H71 4934   7.083   8.822   0.342 -0.6684  1.0619 -0.7936
   12CHTO   O28 4935   6.653   9.114   0.714 -0.0088  0.0819 -0.1817
   12CHTO   C42 4936   6.554   9.025   0.764  0.0121  0.3598 -0.0610
   12CHTO   H84 4937   6.576   9.013   0.870  2.6288  2.3017 -0.3127
   12CHTO   C44 4938   6.557   8.884   0.704 -0.2416 -0.7012 -0.4869
   12CHTO   H86 4939   6.539   8.891   0.597  1.1079  0.7125 -0.6325
   12CHTO   O32 4940   6.683   8.832   0.742 -0.2024 -0.1920 -0.0039
   12CHTO   H69 4941   6.707   8.763   0.683  0.5951 -0.7796  0.9989
   12CHTO   C48 4942   6.436   8.795   0.761  0.5969 -0.0058 -0.1547
   12CHTO   H90 4943   6.448   8.782   0.869  0.1028 -2.0705 -0.3409
   12CHTO    N9 4944   6.436   8.658   0.695 -0.0787 -0.1339  0.3194
   12CHTO   H77 4945   6.429   8.582   0.772  0.8215  1.0960  1.6583
   12CHTO   H78 4946   6.357   8.660   0.621  0.4285  0.9005 -0.1973
   12CHTO   C51 4947   6.296   8.863   0.754 -0.4216 -0.6340  0.1322
   12CHTO   H93 4948   6.254   8.868   0.653 -0.0346  1.1999  0.0414
   12CHTO   O30 4949   6.309   8.997   0.807  0.3760 -0.3420  0.0888
   12CHTO   C46 4950   6.409   9.089   0.747  0.7711  0.6702  0.4275
   12CHTO   H88 4951   6.389   9.100   0.640 -1.1006  0.4732  0.7472
   12CHTO   C53 4952   6.410   9.216   0.833 -0.0200 -0.0996  0.5475
   12CHTO   O72 4953   6.288   9.287   0.816 -0.6684  0.6917  0.1320
   12CHTO  H199 4954   6.254   9.313   0.900 -0.5316 -0.4438  0.5389
   12CHTO   O22 4955   6.207   8.794   0.841 -0.7450 -0.2425  0.5287
   12CHTO   C31 4956   6.063   8.825   0.862 -0.3915  0.1015  0.0037
   12CHTO   H59 4957   6.025   8.744   0.928  0.5681 -0.0792  0.3343
   12CHTO   C29 4958   6.043   8.954   0.937 -0.1613 -0.5492 -0.4670
   12CHTO   H57 4959   6.087   9.038   0.882  2.5936 -1.0924  0.8343
   12CHTO   O21 4960   6.121   8.947   1.059 -0.1836 -0.0668 -0.0071
   12CHTO   H37 4961   6.094   9.011   1.122 -0.7909  2.3710 -2.6063
   12CHTO   C27 4962   5.883   8.973   0.963 -0.3908  0.1273  0.0360
   12CHTO   H55 4963   5.858   8.897   1.038  5.0845 -2.7236 -0.7444
   12CHTO    N5 4964   5.851   9.107   1.017 -0.0418 -0.5143 -0.4272
   12CHTO   H43 4965   5.881   9.193   0.959  0.3817  1.4471  2.6047
   12CHTO   H44 4966   5.744   9.121   1.024  0.2219  2.9164 -2.0839
   12CHTO   C25 4967   5.795   8.943   0.834 -0.1631  0.2523 -0.2561
   12CHTO   H53 4968   5.790   9.032   0.769 -0.8743 -0.0453 -0.6229
   12CHTO   O17 4969   5.840   8.817   0.774  0.7895 -0.0015  0.6017
   12CHTO   C32 4970   5.982   8.817   0.740 -0.4053  0.4978  0.5990
   12CHTO   H60 4971   6.000   8.907   0.681 -0.5772  1.2379  1.6548
   12CHTO   C36 4972   6.008   8.683   0.657  0.4816  0.3810 -0.3941
   12CHTO   O25 4973   5.942   8.685   0.528 -0.3132 -0.0787  0.2776
   12CHTO   H40 4974   5.989   8.647   0.456 -2.8656 -0.9482 -1.0051
   12CHTO   O15 4975   5.650   8.929   0.864  0.1389  0.1004 -0.0910
   12CHTO   C19 4976   5.533   8.964   0.781  0.2317  0.2955 -0.3627
   12CHTO   H47 4977   5.527   9.074   0.778  0.8475  0.3188 -1.1448
   12CHTO   C20 4978   5.535   8.913   0.635  0.1182  0.3005 -0.6738
   12CHTO   H48 4979   5.551   8.804   0.634 -1.7258  0.0064 -0.0655
   12CHTO   O19 4980   5.643   8.975   0.571 -0.8149 -0.3208  0.4769
   12CHTO   H35 4981   5.611   9.004   0.488 -0.4150  0.1731  0.4929
   12CHTO   C21 4982   5.397   8.942   0.559 -0.0694 -0.7298  0.0839
   12CHTO   H49 4983   5.399   9.047   0.526  0.1821 -0.9737 -0.7032
   12CHTO    N4 4984   5.391   8.870   0.436 -0.0139  0.0665  0.4695
   12CHTO   H41 4985   5.380   8.764   0.453 -1.9238  0.2066  0.1563
   12CHTO   H42 4986   5.315   8.902   0.367  1.1367 -0.7521 -1.2120
   12CHTO   C22 4987   5.273   8.907   0.644  0.2281  0.3618 -0.3132
   12CHTO   H50 4988   5.280   8.799   0.657 -1.9734  0.3901  1.2150
   12CHTO   O14 4989   5.287   8.968   0.777 -0.0166 -0.0680  0.1659
   12CHTO   C23 4990   5.400   8.917   0.850  0.0313  0.0152  0.4035
   12CHTO   H51 4991   5.389   8.808   0.857 -1.5912  0.1665  0.5087
   12CHTO   C34 4992   5.402   8.980   0.989 -0.7150 -0.4194  0.1113
   12CHTO   O23 4993   5.354   9.110   0.999  0.1543 -0.2901  0.5083
   12CHTO   H38 4994   5.426   9.160   1.033 -2.1322  1.9082  2.2633
   12CHTO   O16 4995   5.149   8.952   0.591 -0.2404 -0.0164  0.3854
   12CHTO   C24 4996   5.060   8.841   0.514  0.0735  0.0703  0.4352
   12CHTO   H52 4997   5.113   8.748   0.492  0.5285  0.1309  1.2726
   12CHTO   C26 4998   5.009   8.899   0.379 -1.1019  0.1702  0.4359
   12CHTO   H54 4999   4.957   8.994   0.405 -0.4425  0.6505  0.0291
   12CHTO   O20 5000   5.124   8.945   0.306 -0.6077 -0.3688  0.3480
   12CHTO   H36 5001   5.167   9.014   0.353 -1.3168 -0.4030  1.0506
   12CHTO   C30 5002   4.920   8.784   0.311 -0.5193  0.3177  0.1259
   12CHTO   H58 5003   4.977   8.695   0.282  0.0655  1.0220 -0.9050
   12CHTO    N6 5004   4.859   8.827   0.183 -0.6221  0.1872 -0.0147
   12CHTO   H45 5005   4.776   8.893   0.203  0.8884  1.6195  1.7181
   12CHTO   H46 5006   4.822   8.745   0.122  0.7885 -0.3680 -0.1407
   12CHTO   C33 5007   4.812   8.729   0.410  0.2598 -0.3809  0.8031
   12CHTO   H61 5008   4.736   8.807   0.417  0.0688 -0.2886 -2.0562
   12CHTO   O18 5009   4.866   8.700   0.540 -0.6435 -0.3413 -0.8487
   12CHTO   C28 5010   4.938   8.803   0.603 -0.0702 -0.4481  0.3292
   12CHTO   H56 5011   4.872   8.890   0.604 -0.8441 -0.9894 -1.6675
   12CHTO   C35 5012   4.981   8.735   0.739 -0.6680  0.2646 -0.1464
   12CHTO   O24 5013   5.040   8.832   0.820  0.7358  0.9041 -0.5232
   12CHTO   H39 5014   5.077   8.778   0.887 -0.9455  1.5070  0.9432
   12CHTO    O9 5015   4.743   8.616   0.353 -0.1753  0.1562  0.0875
   12CHTO   C13 5016   4.828   8.467   0.369  0.8275 -0.0135  0.1631
   12CHTO   H26 5017   4.935   8.488   0.391  1.0019 -2.5282  2.0457
   12CHTO   C11 5018   4.809   8.397   0.227 -0.2040  0.0582 -0.5211
   12CHTO   H24 5019   4.872   8.456   0.158  1.1609  0.2168  0.8433
   12CHTO    O8 5020   4.670   8.399   0.189 -0.2240  0.3554  0.3188
   12CHTO    H3 5021   4.662   8.366   0.102 -2.8134 -1.5098  1.2052
   12CHTO    C9 5022   4.882   8.260   0.226  0.3408 -0.2005 -0.1331
   12CHTO   H22 5023   4.981   8.284   0.266  0.8709 -0.4188 -1.2752
   12CHTO    N2 5024   4.909   8.183   0.099  0.0103 -0.0326  0.0076
   12CHTO   H10 5025   4.969   8.246   0.036  0.0960 -0.6509 -0.5352
   12CHTO   H11 5026   4.960   8.091   0.125  0.6093 -0.0656 -1.2365
   12CHTO    C7 5027   4.810   8.165   0.328 -0.5373  0.1720  0.0869
   12CHTO   H20 5028   4.861   8.067   0.329 -1.5204 -0.3531 -0.5742
   12CHTO    O4 5029   4.806   8.226   0.464 -0.2727  0.1517 -0.4027
   12CHTO   C14 5030   4.769   8.366   0.494  0.0734 -0.5767  0.0323
   12CHTO   H27 5031   4.824   8.396   0.585 -2.0694  0.2756  1.0699
   12CHTO   C18 5032   4.619   8.359   0.536  0.4836  0.5027 -0.1620
   12CHTO   O13 5033   4.563   8.492   0.547 -0.3864  0.1380  0.7749
   12CHTO    H7 5034   4.470   8.483   0.551 -0.1699 -2.0600  1.8757
   12CHTO    O2 5035   4.652   8.137   0.266 -0.4116  0.1888 -0.0496
   12CHTO    C1 5036   4.605   8.005   0.298  0.3181 -0.2151 -0.5991
   12CHTO   H14 5037   4.669   7.967   0.381  0.8338 -2.3184 -1.9110
   12CHTO    C2 5038   4.617   7.904   0.178  0.6294 -1.0704  0.5078
   12CHTO   H15 5039   4.565   7.953   0.095  1.7487 -1.2111 -0.3016
   12CHTO    O6 5040   4.752   7.889   0.135  0.2066 -0.3177  0.2534
   12CHTO    H1 5041   4.803   7.877   0.213  0.4624 -0.6065  0.0424
   12CHTO    C3 5042   4.552   7.757   0.199  0.1048  0.8685 -0.3982
   12CHTO   H16 5043   4.616   7.698   0.266 -1.0138 -1.3747 -1.2765
   12CHTO    N1 5044   4.555   7.676   0.073 -0.4054 -0.8104  0.5675
   12CHTO    H8 5045   4.455   7.660   0.035  0.2099 -0.1746 -1.3592
   12CHTO    H9 5046   4.622   7.716  -0.001  0.3053 -0.2525  1.5062
   12CHTO    C4 5047   4.414   7.777   0.272  0.9096 -0.5908 -0.0351
   12CHTO   H17 5048   4.345   7.817   0.197  1.8821 -1.1178 -1.2272
   12CHTO    O1 5049   4.429   7.868   0.387 -0.2313 -0.5523 -0.4217
   12CHTO    C5 5050   4.456   8.002   0.342  0.6609 -0.3500 -0.2591
   12CHTO   H18 5051   4.389   8.031   0.260 -1.3050 -1.0744  1.0529
   12CHTO   C16 5052   4.421   8.087   0.454 -0.2140 -0.5885  0.1703
   12CHTO   O11 5053   4.285   8.087   0.490 -0.0727 -0.2981  0.1789
   12CHTO    H5 5054   4.239   8.009   0.468  0.0355  0.1954 -1.8488
   12CHTO    O3 5055   4.358   7.653   0.312  0.8446  0.3804 -0.0985
   12CHTO    C6 5056   4.264   7.654   0.425  0.1114  0.2320 -1.0066
   12CHTO   H19 5057   4.305   7.702   0.514 -1.5134  0.9717 -0.6273
   12CHTO    C8 5058   4.122   7.723   0.387  0.3857 -0.2972  0.0261
   12CHTO   H21 5059   4.075   7.676   0.301 -2.6507  0.6295  1.1145
   12CHTO    O7 5060   4.150   7.857   0.364  0.1786 -0.1384  0.4983
   12CHTO    H2 5061   4.078   7.917   0.366  0.8441  0.6398  3.1958
   12CHTO   C12 5062   4.022   7.703   0.508 -0.9465  0.0277 -0.1163
   12CHTO   H25 5063   4.067   7.756   0.594 -2.4685 -1.2721  1.5065
   12CHTO    N3 5064   3.887   7.762   0.485 -0.6999  0.4571 -0.1430
   12CHTO   H12 5065   3.811   7.699   0.528  0.9023 -1.0074  0.5806
   12CHTO   H13 5066   3.878   7.788   0.381 -0.2301  3.0424  0.4260
   12CHTO   C15 5067   4.018   7.550   0.542  0.2252  0.0867  0.0743
   12CHTO   H28 5068   3.960   7.493   0.470  0.1450 -1.1731  1.1171
   12CHTO   O10 5069   3.951   7.521   0.673 -0.0428 -0.8364  0.7682
   12CHTO    H4 5070   3.966   7.591   0.734  0.5417 -0.4117  0.1402
   12CHTO    O5 5071   4.143   7.488   0.569 -0.5360 -0.2940  0.3216
   12CHTO   C10 5072   4.236   7.499   0.461 -0.2459 -0.1817 -0.5342
   12CHTO   H23 5073   4.189   7.448   0.376 -0.1470 -0.0606 -0.6628
   12CHTO   C17 5074   4.364   7.422   0.496 -0.1758  0.7533  0.4776
   12CHTO   O12 5075   4.472   7.417   0.403  0.4333 -0.1570  0.2161
   12CHTO    H6 5076   4.462   7.337   0.354 -1.7402 -0.0859  0.4901
   13CHTO  H203 5077   8.551   4.301   1.709  0.5416  0.1930 -1.3893
   13CHTO   O82 5078   8.616   4.364   1.735 -0.0055 -0.0238  0.5084
   13CHTO  C123 5079   8.590   4.489   1.673 -0.6245 -0.1294 -0.0156
   13CHTO  H227 5080   8.625   4.484   1.569 -4.3829 -2.4004 -1.2556
   13CHTO   O77 5081   8.441   4.498   1.670  0.4011 -0.1522 -0.1419
   13CHTO  C118 5082   8.389   4.607   1.606  0.2929 -0.8175 -0.6231
   13CHTO  H222 5083   8.426   4.618   1.503  1.1409 -0.0350 -0.2409
   13CHTO  C125 5084   8.233   4.601   1.605 -0.4432  0.1341 -0.2189
   13CHTO   O84 5085   8.168   4.484   1.549  0.0911  0.1599  0.1635
   13CHTO  H205 5086   8.211   4.402   1.564 -0.6916 -0.0308  1.3853
   13CHTO  C114 5087   8.430   4.737   1.685  0.0134  0.6774  0.4000
   13CHTO  H218 5088   8.376   4.741   1.779 -0.1808 -0.7539  0.3582
   13CHTO  C116 5089   8.586   4.746   1.716  0.0552  0.2331 -0.2284
   13CHTO  H220 5090   8.637   4.776   1.622 -0.0900  0.7984 -0.1236
   13CHTO   O79 5091   8.609   4.848   1.812 -0.0125 -0.9761  1.1721
   13CHTO  H201 5092   8.698   4.843   1.841  0.1023 -0.1338  0.9770
   13CHTO  C120 5093   8.640   4.602   1.772 -0.8394  0.0168 -0.1996
   13CHTO  H224 5094   8.595   4.583   1.872  1.4510  1.3782  1.1343
   13CHTO   N21 5095   8.791   4.614   1.788 -0.2740  0.0972  0.2267
   13CHTO  H211 5096   8.824   4.582   1.885 -0.8472 -0.2918  0.2987
   13CHTO  H212 5097   8.845   4.561   1.711  2.0745  1.1096  1.1556
   13CHTO   O75 5098   8.390   4.851   1.612  0.4439 -0.2893  0.5393
   13CHTO  C112 5099   8.316   4.971   1.709 -0.5395  0.3696 -0.4654
   13CHTO  H216 5100   8.384   4.982   1.795 -0.5678  0.6098 -0.4716
   13CHTO   O73 5101   8.191   4.916   1.748 -0.1720 -0.4397 -0.5040
   13CHTO  C113 5102   8.104   4.997   1.825  0.2066  0.1464  0.9258
   13CHTO  H217 5103   8.156   5.021   1.920 -1.2595  1.1327  1.4963
   13CHTO  C124 5104   7.982   4.909   1.855  0.1729 -0.4025  0.7689
   13CHTO   O83 5105   7.883   4.966   1.945  0.2406 -0.0139 -0.1409
   13CHTO  H204 5106   7.901   4.931   2.031 -0.4486  0.4349  0.1936
   13CHTO  C109 5107   8.060   5.133   1.752  0.0833  0.2075 -0.8091
   13CHTO  H213 5108   8.008   5.101   1.661  1.0173  0.4956 -1.4606
   13CHTO  C110 5109   8.196   5.201   1.709 -0.2659 -0.3807 -0.2377
   13CHTO  H214 5110   8.240   5.244   1.799  1.7485  2.2977 -2.4321
   13CHTO   O78 5111   8.150   5.308   1.621  0.4088  0.4633 -0.4582
   13CHTO  H200 5112   8.223   5.340   1.571 -0.2123  1.2506 -0.8615
   13CHTO  C111 5113   8.294   5.105   1.632  0.0896  0.0544 -0.1496
   13CHTO  H215 5114   8.253   5.081   1.533  0.1617 -1.5648  0.1978
   13CHTO   N19 5115   8.430   5.168   1.601  0.8216  0.4379 -0.6389
   13CHTO  H207 5116   8.481   5.206   1.688 -1.5182  1.4078  0.3415
   13CHTO  H208 5117   8.495   5.098   1.550  0.5740  1.0280 -1.7713
   13CHTO   O74 5118   7.978   5.211   1.841 -0.5999  0.2453 -0.1394
   13CHTO  C115 5119   7.904   5.332   1.770  0.2522 -0.0449  0.9075
   13CHTO  H219 5120   7.973   5.412   1.743 -0.4444  0.1332 -0.4056
   13CHTO   O76 5121   7.839   5.285   1.623  0.1720 -0.6730 -0.4549
   13CHTO  C122 5122   7.741   5.175   1.621  0.4762  0.7705 -0.3881
   13CHTO  H226 5123   7.793   5.080   1.630 -0.5217  0.1864 -0.7107
   13CHTO  C126 5124   7.688   5.182   1.478  0.0588  0.8361  0.7862
   13CHTO   O85 5125   7.581   5.093   1.437 -0.0114  0.0729 -0.3855
   13CHTO  H206 5126   7.606   5.006   1.462 -0.0884  0.3198  0.5586
   13CHTO  C121 5127   7.632   5.210   1.744  0.0276 -0.0767 -0.8393
   13CHTO  H225 5128   7.536   5.191   1.692 -0.7790  1.0525  0.2194
   13CHTO   O81 5129   7.662   5.117   1.851 -0.0765  0.2353 -0.2559
   13CHTO  H202 5130   7.751   5.116   1.880  0.0930  0.1371 -0.7725
   13CHTO  C119 5131   7.638   5.351   1.804  0.0532  0.7238 -0.0839
   13CHTO  H223 5132   7.618   5.418   1.721 -0.9298  1.3034  0.6120
   13CHTO  C117 5133   7.783   5.375   1.864  0.9417 -0.2158  0.4125
   13CHTO  H221 5134   7.797   5.331   1.962  3.4307  1.5543  0.9019
   13CHTO   N20 5135   7.787   5.525   1.890  0.6165  0.0113  0.6562
   13CHTO  H209 5136   7.714   5.546   1.967 -0.6741 -0.1264 -0.5154
   13CHTO  H210 5137   7.884   5.546   1.933  1.2651 -3.9431  1.3472
   13CHTO   O80 5138   7.520   5.394   1.907  0.4592  0.1239 -0.2431
   13CHTO  C103 5139   7.386   5.456   1.859 -0.5296 -0.0957 -0.0312
   13CHTO  H190 5140   7.336   5.496   1.947  0.2662  1.9986 -0.5051
   13CHTO  C101 5141   7.388   5.580   1.740 -0.4517 -0.4692  0.7179
   13CHTO  H188 5142   7.449   5.545   1.657  0.7405 -1.5227  2.0242
   13CHTO   O68 5143   7.462   5.686   1.789  0.0800  0.0442 -0.1057
   13CHTO  H168 5144   7.522   5.667   1.858 -0.0877  4.2086  1.3185
   13CHTO   C99 5145   7.244   5.623   1.692  0.1719 -0.0228  0.3381
   13CHTO  H186 5146   7.200   5.677   1.779 -0.2054  2.0047 -1.0621
   13CHTO   N17 5147   7.240   5.715   1.568  0.0119 -0.0805  0.7065
   13CHTO  H174 5148   7.189   5.679   1.480  0.2258 -1.2560  1.0612
   13CHTO  H175 5149   7.203   5.811   1.602  1.4723  0.3978  0.9945
   13CHTO   C97 5150   7.159   5.496   1.671 -0.7110  0.1675  0.3136
   13CHTO  H184 5151   7.198   5.456   1.576  0.3945 -0.5106  1.0398
   13CHTO   O64 5152   7.168   5.403   1.779 -0.4109 -0.2902 -0.0251
   13CHTO  C104 5153   7.298   5.341   1.802 -0.0833 -0.2536 -0.3335
   13CHTO  H191 5154   7.342   5.301   1.711 -0.4547 -0.5787 -0.3693
   13CHTO  C108 5155   7.277   5.226   1.901  0.0231  0.1798  0.6311
   13CHTO   O71 5156   7.392   5.148   1.949 -0.5123 -0.2668 -0.8736
   13CHTO  H171 5157   7.466   5.137   1.893  0.7306 -3.2607  1.2169
   13CHTO   O62 5158   7.018   5.508   1.662  0.0359  0.2095  0.6817
   13CHTO   C91 5159   6.921   5.408   1.621  0.9412  0.2241 -0.3798
   13CHTO  H178 5160   6.967   5.309   1.620  0.3602 -0.0432 -0.8034
   13CHTO   C92 5161   6.878   5.413   1.468  0.0593  0.4777  0.3825
   13CHTO  H179 5162   6.834   5.514   1.455 -1.4821 -0.3242 -0.8193
   13CHTO   O66 5163   6.995   5.403   1.389  0.3412 -0.8114  0.4549
   13CHTO  H166 5164   6.968   5.411   1.299 -1.6033  1.6037  1.2193
   13CHTO   C93 5165   6.782   5.298   1.443  0.4050  0.5738  0.4274
   13CHTO  H180 5166   6.842   5.206   1.457 -1.1442 -0.1814  2.3048
   13CHTO   N16 5167   6.722   5.299   1.305 -0.6868 -0.5550  0.2637
   13CHTO  H172 5168   6.669   5.391   1.283 -0.8864 -1.0114 -1.2765
   13CHTO  H173 5169   6.795   5.274   1.230  0.3382  1.9701  0.3598
   13CHTO   C94 5170   6.668   5.288   1.555 -0.0315 -0.6233  0.0568
   13CHTO  H181 5171   6.602   5.375   1.555  0.4139 -0.2727 -1.1768
   13CHTO   O61 5172   6.713   5.289   1.689  0.1497  0.1288  0.1721
   13CHTO   C95 5173   6.796   5.402   1.718  0.1372 -0.1281 -0.1025
   13CHTO  H182 5174   6.738   5.494   1.707 -2.0259 -1.6149 -1.3810
   13CHTO  C106 5175   6.842   5.399   1.863 -0.1786 -0.4401 -0.3971
   13CHTO   O69 5176   6.917   5.275   1.890 -0.0005 -0.0580 -0.5031
   13CHTO  H169 5177   7.006   5.295   1.868 -0.3857  1.6100 -0.5917
   13CHTO   O63 5178   6.583   5.159   1.524  0.2414  0.4944  0.3339
   13CHTO   C96 5179   6.456   5.159   1.547  0.1245  0.6365  0.2782
   13CHTO  H183 5180   6.419   5.080   1.482 -1.7956  1.3528  0.4749
   13CHTO   C98 5181   6.364   5.283   1.510 -0.3934  0.3455 -0.3762
   13CHTO  H185 5182   6.404   5.381   1.542 -1.0623  0.7071 -0.6484
   13CHTO   O67 5183   6.353   5.291   1.367  0.0450 -0.1177  0.0117
   13CHTO  H167 5184   6.305   5.364   1.334  2.7798  1.8990  0.3223
   13CHTO  C102 5185   6.216   5.268   1.559  0.8546 -0.2983  0.0932
   13CHTO  H189 5186   6.172   5.202   1.483  1.1114 -0.0876 -0.2396
   13CHTO   N18 5187   6.133   5.391   1.547 -0.2487  0.3020 -0.1281
   13CHTO  H176 5188   6.051   5.416   1.612 -1.2574 -2.8889 -0.1091
   13CHTO  H177 5189   6.109   5.408   1.443  0.0725  0.7596 -0.1311
   13CHTO  C105 5190   6.215   5.218   1.705 -0.2515 -0.0009 -0.6831
   13CHTO  H192 5191   6.253   5.299   1.767 -1.3530  1.7855 -2.2849
   13CHTO   O65 5192   6.294   5.094   1.721  0.9503 -0.1706  0.1087
   13CHTO  C100 5193   6.434   5.112   1.698 -0.8131  0.1670 -0.2877
   13CHTO  H187 5194   6.455   5.196   1.765 -1.8761  1.4113 -1.4912
   13CHTO  C107 5195   6.508   4.981   1.729 -0.5195  0.2523 -0.9915
   13CHTO   O70 5196   6.517   4.880   1.628  0.6394  0.3925 -0.4489
   13CHTO  H170 5197   6.441   4.826   1.637  1.5992 -0.3967  3.9638
   13CHTO   O57 5198   6.073   5.172   1.751 -0.1654  0.2159 -0.2320
   13CHTO   C85 5199   6.004   5.068   1.677  0.3714 -0.0686  0.4981
   13CHTO  H157 5200   6.082   5.041   1.603  1.7448 -0.2278  1.9663
   13CHTO   C83 5201   5.876   5.131   1.606 -0.5016 -0.6237 -0.5538
   13CHTO  H155 5202   5.920   5.198   1.531  1.5234 -1.3728 -0.0790
   13CHTO   O56 5203   5.799   5.209   1.706  0.3470 -0.4358  0.1841
   13CHTO  H135 5204   5.707   5.197   1.692  0.1728 -0.3746  1.2873
   13CHTO   C81 5205   5.790   5.017   1.540 -0.2239 -0.2864 -0.6028
   13CHTO  H153 5206   5.849   4.981   1.457  1.6641 -0.0437  0.5966
   13CHTO   N14 5207   5.669   5.069   1.474  0.3485  0.6091 -0.3290
   13CHTO  H141 5208   5.596   5.107   1.542  0.7906 -2.1418  1.7335
   13CHTO  H142 5209   5.641   4.974   1.434  0.7714  0.4817 -0.3277
   13CHTO   C79 5210   5.768   4.900   1.644  0.2132  0.4001 -0.0677
   13CHTO  H151 5211   5.724   4.816   1.591  0.9646 -0.9969  1.4735
   13CHTO   O52 5212   5.891   4.836   1.695  0.9225  0.5556  0.5198
   13CHTO   C86 5213   5.969   4.939   1.766 -0.1070  0.3196  0.0215
   13CHTO  H158 5214   5.906   4.967   1.854 -0.1453 -0.5102  0.2551
   13CHTO   C90 5215   6.099   4.874   1.820 -0.2278  0.1188  0.6041
   13CHTO   O60 5216   6.106   4.890   1.958 -0.3611  0.5871  0.3450
   13CHTO  H138 5217   6.116   4.802   1.987  0.0112  0.1395 -1.0722
   13CHTO   O50 5218   5.685   4.947   1.751  0.0126 -0.3697  0.0742
   13CHTO   C73 5219   5.565   4.877   1.786 -0.5479 -0.0504  0.1973
   13CHTO  H145 5220   5.539   4.805   1.707  0.4123  2.1814 -2.2442
   13CHTO   C74 5221   5.448   4.986   1.808 -0.4932 -0.4423  0.2482
   13CHTO  H146 5222   5.431   5.041   1.714 -2.0840 -1.0307  0.1769
   13CHTO   O54 5223   5.317   4.925   1.835 -0.2251 -0.2099  0.0407
   13CHTO  H133 5224   5.245   4.977   1.807  0.6979  0.7547 -0.5603
   13CHTO   C75 5225   5.501   5.080   1.926  0.3391  0.1720 -0.7655
   13CHTO  H147 5226   5.583   5.139   1.884 -1.0640  2.1023 -0.8962
   13CHTO   N13 5227   5.407   5.189   1.970  0.0781  0.3583  0.3206
   13CHTO  H139 5228   5.387   5.177   2.076 -0.8827 -1.9938 -0.0994
   13CHTO  H140 5229   5.453   5.282   1.940 -0.7782  0.6018 -0.2646
   13CHTO   C76 5230   5.548   4.992   2.054 -0.1332  0.2744 -0.3671
   13CHTO  H148 5231   5.452   4.952   2.086 -0.5032  3.2595  2.5246
   13CHTO   O49 5232   5.639   4.881   2.009 -0.2056  0.4390 -0.2820
   13CHTO   C77 5233   5.584   4.796   1.909 -0.1776 -0.2663  0.1134
   13CHTO  H149 5234   5.487   4.760   1.944 -1.3932 -0.1090 -2.9501
   13CHTO   C88 5235   5.680   4.681   1.879 -0.2215 -0.2306 -0.8061
   13CHTO   O58 5236   5.616   4.556   1.793  0.3430  0.4572  0.2848
   13CHTO  H136 5237   5.635   4.561   1.701 -1.1459  1.2984 -0.0076
   13CHTO   O51 5238   5.618   5.090   2.181 -0.8532  0.2644  0.2553
   13CHTO   C78 5239   5.767   5.153   2.180  0.3281 -0.6266  0.3405
   13CHTO  H150 5240   5.786   5.207   2.275  3.3987 -1.7851  0.4597
   13CHTO   C80 5241   5.788   5.252   2.068 -0.1459  0.8981 -0.2735
   13CHTO  H152 5242   5.793   5.192   1.975  1.2794 -0.9654  0.9486
   13CHTO   O55 5243   5.669   5.337   2.069 -0.6328 -0.0398 -0.0553
   13CHTO  H134 5244   5.685   5.401   2.002 -1.6238 -1.9736 -2.2034
   13CHTO   C84 5245   5.929   5.315   2.079  0.6346 -0.0685  0.5028
   13CHTO  H156 5246   5.927   5.367   2.174 -0.7220 -2.3831  1.7969
   13CHTO   N15 5247   5.959   5.410   1.970  0.3016  0.5175  0.2461
   13CHTO  H143 5248   5.946   5.376   1.869  0.8642  1.6200 -0.2025
   13CHTO  H144 5249   5.894   5.492   1.992 -1.3335 -0.8434  0.5553
   13CHTO   C87 5250   6.037   5.197   2.090 -0.4109  0.2561 -0.5401
   13CHTO  H159 5251   6.052   5.156   1.990  1.8400  1.5043 -0.7503
   13CHTO   O53 5252   6.008   5.092   2.189 -0.0925 -0.1067  0.6034
   13CHTO   C82 5253   5.873   5.038   2.180  0.4206 -0.5942  0.0921
   13CHTO  H154 5254   5.860   4.978   2.089 -0.5797  2.4661 -1.8495
   13CHTO   C89 5255   5.857   4.950   2.298  0.3646 -0.5681  0.0363
   13CHTO   O59 5256   5.740   4.867   2.307  0.1135  0.1124  0.2496
   13CHTO  H137 5257   5.776   4.781   2.313  1.2951  0.6677  1.2252
   13CHTO   O45 5258   6.186   5.258   2.128 -0.1014 -0.6294  0.2366
   13CHTO   C67 5259   6.304   5.178   2.105 -0.3424  0.0656  0.1772
   13CHTO  H124 5260   6.290   5.098   2.033 -1.4568 -1.4087  1.9788
   13CHTO   C65 5261   6.426   5.260   2.060  1.1552  0.3667 -0.2301
   13CHTO  H122 5262   6.391   5.313   1.971 -0.2473 -0.4476 -0.1816
   13CHTO   O44 5263   6.533   5.173   2.022 -0.0705 -0.0862 -0.4889
   13CHTO  H102 5264   6.608   5.223   1.994  0.3897  0.5121  1.7126
   13CHTO   C63 5265   6.464   5.363   2.170 -0.2719  0.1649 -0.0320
   13CHTO  H120 5266   6.378   5.424   2.197  0.3979 -0.0961  2.9198
   13CHTO   N11 5267   6.558   5.479   2.132  0.3645  0.3912 -0.0290
   13CHTO  H108 5268   6.563   5.560   2.201 -0.3119  0.5466 -0.1567
   13CHTO  H109 5269   6.532   5.513   2.033  0.7693 -0.7155 -0.5271
   13CHTO   C61 5270   6.507   5.294   2.303 -0.1802  0.2290  0.0794
   13CHTO  H118 5271   6.500   5.365   2.387  0.9024 -0.2092  0.5391
   13CHTO   O40 5272   6.424   5.180   2.341  0.0770 -0.0864  0.1477
   13CHTO   C68 5273   6.339   5.109   2.244 -0.0058  0.2125 -0.8152
   13CHTO  H125 5274   6.243   5.094   2.298  0.3394 -0.5554 -0.4072
   13CHTO   C72 5275   6.410   4.973   2.239 -0.9999  0.0420  0.8543
   13CHTO   O48 5276   6.352   4.886   2.143 -0.2843 -0.0122 -0.0891
   13CHTO  H105 5277   6.272   4.851   2.177  0.5460 -0.9053  0.9760
   13CHTO   O38 5278   6.643   5.240   2.296 -0.1245  0.1435 -0.2867
   13CHTO   C55 5279   6.713   5.194   2.414 -0.4799 -0.0040 -0.8202
   13CHTO  H112 5280   6.684   5.089   2.430  1.7264 -0.2069  2.2257
   13CHTO   C56 5281   6.682   5.284   2.550 -0.2066 -0.0384 -0.0081
   13CHTO  H113 5282   6.685   5.386   2.508 -0.0666 -0.8064 -1.9070
   13CHTO   O42 5283   6.552   5.255   2.603  0.1696  0.5470 -0.1732
   13CHTO  H100 5284   6.503   5.198   2.548  0.8815 -0.3982  0.1444
   13CHTO   C57 5285   6.783   5.273   2.668  0.3577 -0.3631 -1.0235
   13CHTO  H114 5286   6.781   5.169   2.702  0.8556  0.9870  3.3917
   13CHTO   N10 5287   6.760   5.359   2.787 -0.1158  0.2451 -0.4164
   13CHTO  H106 5288   6.839   5.329   2.853 -1.0841 -0.2766  0.5214
   13CHTO  H107 5289   6.663   5.340   2.830  0.8874 -3.1886  0.4718
   13CHTO   C58 5290   6.920   5.293   2.598  0.2611  0.0706  0.0438
   13CHTO  H115 5291   6.924   5.391   2.545 -0.3465  0.0457 -0.0560
   13CHTO   O37 5292   6.947   5.186   2.504  0.4860  0.5719  0.5755
   13CHTO   C59 5293   6.867   5.203   2.387  0.6765 -0.0873 -0.0818
   13CHTO  H116 5294   6.888   5.301   2.345 -0.3978 -1.0579 -2.9862
   13CHTO   C70 5295   6.905   5.100   2.275  0.8965 -0.0619 -0.0998
   13CHTO   O46 5296   6.868   5.137   2.143 -0.5143  0.0709 -0.2141
   13CHTO  H103 5297   6.914   5.087   2.079  0.6884  0.3745  0.4042
   13CHTO   O39 5298   7.057   5.280   2.695  0.4438 -0.5431 -0.0211
   13CHTO   C60 5299   7.147   5.394   2.673 -0.7249  0.3780 -0.2295
   13CHTO  H117 5300   7.138   5.440   2.575  1.3443 -2.9289 -2.0395
   13CHTO   C62 5301   7.111   5.510   2.767 -0.2081 -0.7881  0.1898
   13CHTO  H119 5302   7.011   5.535   2.728 -0.1646 -1.2241 -0.2129
   13CHTO   O43 5303   7.117   5.475   2.909 -0.1386  0.3722 -0.1839
   13CHTO  H101 5304   7.055   5.412   2.941  0.3743  1.2186  2.5931
   13CHTO   C66 5305   7.197   5.641   2.734 -0.4503  0.2791 -0.9283
   13CHTO  H123 5306   7.192   5.657   2.626  0.8195 -0.2412 -1.0814
   13CHTO   N12 5307   7.157   5.761   2.813 -0.3842  0.4402  0.4449
   13CHTO  H110 5308   7.226   5.844   2.807  0.8220 -0.4389  1.8638
   13CHTO  H111 5309   7.053   5.790   2.803 -0.1332  1.2086 -0.0058
   13CHTO   C69 5310   7.349   5.606   2.747 -0.5663 -0.7123  0.2521
   13CHTO  H126 5311   7.382   5.595   2.853 -1.3300 -0.2257  0.5411
   13CHTO   O41 5312   7.392   5.482   2.663  0.3612 -0.3295  0.0521
   13CHTO   C64 5313   7.305   5.359   2.695 -0.1411  0.9537  0.2034
   13CHTO  H121 5314   7.319   5.346   2.805 -0.7003  0.4763  0.2215
   13CHTO   C71 5315   7.350   5.233   2.616 -0.0664  0.1804  0.2099
   13CHTO   O47 5316   7.475   5.180   2.666  0.4640 -0.1008  0.2588
   13CHTO  H104 5317   7.464   5.112   2.729 -0.8688 -0.1389 -0.0050
   13CHTO   O34 5318   7.430   5.734   2.695 -0.5484  0.2134 -0.0730
   13CHTO   C49 5319   7.586   5.785   2.688  0.0173 -0.1843  0.2933
   13CHTO   H91 5320   7.650   5.696   2.689 -1.3651 -1.1954  2.5545
   13CHTO   C47 5321   7.611   5.872   2.812  0.1147  0.9338  0.0000
   13CHTO   H89 5322   7.719   5.897   2.803  0.5064 -1.3174 -2.0080
   13CHTO   O33 5323   7.590   5.789   2.928  0.0438  0.1286 -0.5745
   13CHTO   H70 5324   7.527   5.814   2.992 -1.0962  0.0919 -1.6665
   13CHTO   C45 5325   7.509   5.999   2.814 -0.6730 -0.8036 -0.4566
   13CHTO   H87 5326   7.428   5.965   2.879 -0.3236 -1.0483 -0.1491
   13CHTO    N8 5327   7.585   6.093   2.886  0.3154  0.6596 -0.2979
   13CHTO   H75 5328   7.617   6.158   2.806 -3.0374 -0.2932 -2.5379
   13CHTO   H76 5329   7.517   6.148   2.949 -1.3901 -0.0550 -1.4510
   13CHTO   C43 5330   7.464   6.040   2.665  0.5857  0.3387 -0.5575
   13CHTO   H85 5331   7.377   5.975   2.658 -0.3274  1.2539  1.8137
   13CHTO   O29 5332   7.568   6.011   2.568 -0.0985 -0.0212 -0.4367
   13CHTO   C50 5333   7.617   5.878   2.562 -0.0697 -0.2565  0.2732
   13CHTO   H92 5334   7.565   5.825   2.480  0.4679  0.0156 -0.2443
   13CHTO   C54 5335   7.764   5.876   2.523 -0.7435 -0.4598  0.5226
   13CHTO   O36 5336   7.816   5.742   2.504  0.4074  0.0231 -0.4875
   13CHTO   H72 5337   7.904   5.744   2.473  1.0402 -1.3375  1.1456
   13CHTO   O27 5338   7.409   6.171   2.650  0.0433 -0.3928 -0.7678
   13CHTO   C37 5339   7.362   6.304   2.695  0.3202  0.6946 -0.1284
   13CHTO   H79 5340   7.420   6.346   2.779  0.6986 -1.3207  0.6501
   13CHTO   C38 5341   7.386   6.407   2.576  0.0491  0.8113  0.5850
   13CHTO   H80 5342   7.337   6.366   2.486  4.9560 -0.1498 -1.8201
   13CHTO   O31 5343   7.524   6.399   2.540 -0.3058  0.1738  0.3184
   13CHTO   H68 5344   7.549   6.458   2.472 -0.2280  0.7726  0.8640
   13CHTO   C39 5345   7.336   6.550   2.619 -0.0442 -0.2092  0.3192
   13CHTO   H81 5346   7.387   6.580   2.711  1.0478  0.8529 -0.6115
   13CHTO    N7 5347   7.367   6.662   2.524  0.8170  0.8715 -0.5614
   13CHTO   H73 5348   7.295   6.740   2.504  0.5187  0.5310 -0.8297
   13CHTO   H74 5349   7.402   6.609   2.437  1.1434 -3.0065  1.8089
   13CHTO   C40 5350   7.179   6.540   2.650  0.4244 -0.4220 -0.6404
   13CHTO   H82 5351   7.115   6.533   2.563  1.4998 -0.4657 -1.4319
   13CHTO   O26 5352   7.152   6.434   2.745  0.4432  0.1206  0.2008
   13CHTO   C41 5353   7.210   6.302   2.731  0.4612 -0.5126  1.0493
   13CHTO   H83 5354   7.145   6.246   2.663  2.0202 -1.6132  0.4413
   13CHTO   C52 5355   7.181   6.251   2.872 -0.1095  0.0215 -0.1334
   13CHTO   O35 5356   7.204   6.127   2.882  0.3204 -0.1296  0.0588
   13CHTO   H71 5357   7.143   6.095   2.946  0.3801  1.0578  0.7254
   13CHTO   O28 5358   7.128   6.648   2.731 -0.3622  0.2819 -0.3474
   13CHTO   C42 5359   7.054   6.769   2.687  0.1963  0.3851 -0.2025
   13CHTO   H84 5360   7.063   6.771   2.578 -0.7670  2.9582 -0.2721
   13CHTO   C44 5361   7.111   6.901   2.746 -0.2307 -0.4645  0.4970
   13CHTO   H86 5362   7.087   6.906   2.852  1.4941 -0.7337  0.9252
   13CHTO   O32 5363   7.254   6.899   2.720  0.4011  0.2452 -0.3952
   13CHTO   H69 5364   7.282   6.932   2.637  1.5300  2.8290  0.9539
   13CHTO   C48 5365   7.040   7.031   2.685  0.1377 -0.6186 -0.8353
   13CHTO   H90 5366   7.073   7.038   2.582 -1.3784  1.6590 -1.1974
   13CHTO    N9 5367   7.083   7.167   2.731  0.0625 -0.0791 -0.0152
   13CHTO   H77 5368   7.187   7.180   2.705  0.0290 -3.0486 -1.8794
   13CHTO   H78 5369   7.017   7.244   2.692  1.5841  0.4084 -1.6725
   13CHTO   C51 5370   6.884   7.010   2.709  0.2973 -0.4431  0.3598
   13CHTO   H93 5371   6.848   7.020   2.811 -1.8897 -1.6598 -0.2574
   13CHTO   O30 5372   6.843   6.884   2.648 -0.3756  0.4211 -0.2483
   13CHTO   C46 5373   6.900   6.758   2.713 -0.3853 -0.3853 -0.6736
   13CHTO   H88 5374   6.882   6.766   2.820  0.9203  1.1055 -0.5561
   13CHTO   C53 5375   6.834   6.624   2.670  0.5038 -0.0050 -0.3192
   13CHTO   O72 5376   6.710   6.611   2.745 -0.0225 -0.1905 -0.4503
   13CHTO  H199 5377   6.644   6.664   2.703  0.0283 -0.0107 -0.3070
   13CHTO   O22 5378   6.819   7.108   2.625 -0.1208  0.0009  0.6291
   13CHTO   C31 5379   6.683   7.147   2.643  0.4447 -0.1699  0.9684
   13CHTO   H59 5380   6.661   7.210   2.554 -2.3692  0.1711  1.8572
   13CHTO   C29 5381   6.583   7.026   2.636  0.0929  0.2573  0.3348
   13CHTO   H57 5382   6.606   6.949   2.712 -0.6656  0.5036  0.8182
   13CHTO   O21 5383   6.598   6.962   2.512 -0.3089 -0.1371 -0.1062
   13CHTO   H37 5384   6.680   6.916   2.506 -0.4596 -0.4270  0.0326
   13CHTO   C27 5385   6.431   7.076   2.665  0.3369 -0.0121  1.0023
   13CHTO   H55 5386   6.403   7.138   2.578  2.1467 -0.6552 -0.0836
   13CHTO    N5 5387   6.337   6.959   2.672  0.1658 -0.3859 -0.6532
   13CHTO   H43 5388   6.385   6.863   2.683  0.7036 -0.2456 -1.6582
   13CHTO   H44 5389   6.265   6.975   2.593 -1.4650 -1.3534  0.6133
   13CHTO   C25 5390   6.426   7.172   2.793 -0.3879 -0.0762  0.0102
   13CHTO   H53 5391   6.437   7.116   2.887 -3.5254  0.4404  0.7354
   13CHTO   O17 5392   6.529   7.271   2.781 -0.2170  0.1883  0.7905
   13CHTO   C32 5393   6.661   7.229   2.767  0.0649  0.5782  0.1883
   13CHTO   H60 5394   6.694   7.173   2.855 -2.2782 -2.0343 -0.5398
   13CHTO   C36 5395   6.743   7.369   2.759  0.1522 -0.0365 -0.3149
   13CHTO   O25 5396   6.715   7.453   2.871 -0.0747 -0.5024 -0.3115
   13CHTO   H40 5397   6.739   7.411   2.951 -0.7479  0.2743  0.3130
   13CHTO   O15 5398   6.283   7.228   2.804 -0.2504 -0.1329 -0.0331
   13CHTO   C19 5399   6.180   7.327   2.765 -0.4832 -0.1411 -0.0378
   13CHTO   H47 5400   6.186   7.399   2.847 -0.3463  0.1163 -0.2714
   13CHTO   C20 5401   6.206   7.384   2.626 -0.2177  0.1078  0.2226
   13CHTO   H48 5402   6.214   7.305   2.550 -0.3643  0.7218 -0.4380
   13CHTO   O19 5403   6.329   7.463   2.638  0.2089 -0.0138 -0.0767
   13CHTO   H35 5404   6.365   7.479   2.553 -1.2470  0.6029 -0.5974
   13CHTO   C21 5405   6.091   7.488   2.580 -0.3963 -0.1187  0.3218
   13CHTO   H49 5406   6.082   7.561   2.660  0.2828 -0.7887  1.0209
   13CHTO    N4 5407   6.127   7.545   2.452 -0.2493  0.0433  0.3088
   13CHTO   H41 5408   6.098   7.480   2.370 -0.2884  0.5571 -0.0865
   13CHTO   H42 5409   6.081   7.642   2.446 -0.0303  0.3789  3.3889
   13CHTO   C22 5410   5.960   7.411   2.581  0.7029 -0.0433 -0.0332
   13CHTO   H50 5411   5.973   7.329   2.509 -0.1441  0.0484 -0.2983
   13CHTO   O14 5412   5.933   7.366   2.719 -0.4911 -0.2903 -0.3420
   13CHTO   C23 5413   6.024   7.277   2.776  0.5402 -0.2879  0.3173
   13CHTO   H51 5414   6.011   7.179   2.729  1.7427 -0.6519  0.7282
   13CHTO   C34 5415   5.976   7.265   2.920 -0.6510 -0.3563 -0.2540
   13CHTO   O23 5416   5.992   7.385   2.988 -0.2921 -0.1851 -0.2601
   13CHTO   H38 5417   5.927   7.402   3.053  0.1216 -3.4070  1.0640
   13CHTO   O16 5418   5.843   7.492   2.546 -0.4683  0.2865  0.1307
   13CHTO   C24 5419   5.691   7.424   2.557  0.3212 -0.1352 -0.8745
   13CHTO   H52 5420   5.683   7.358   2.644  1.2705  1.1514  0.2295
   13CHTO   C26 5421   5.655   7.342   2.437 -0.1294 -0.1211  0.6717
   13CHTO   H54 5422   5.646   7.412   2.351  0.4128  1.0642  1.5671
   13CHTO   O20 5423   5.765   7.250   2.420  0.4519  0.1366  0.0862
   13CHTO   H36 5424   5.751   7.195   2.345 -1.3944 -2.2227  2.0942
   13CHTO   C30 5425   5.514   7.277   2.454 -0.0650 -0.5493 -0.6266
   13CHTO   H58 5426   5.518   7.209   2.540 -0.4997 -1.8441 -1.6066
   13CHTO    N6 5427   5.479   7.184   2.342 -0.0388  0.1990  0.5638
   13CHTO   H45 5428   5.490   7.231   2.245  1.1385 -0.8964  0.1554
   13CHTO   H46 5429   5.537   7.093   2.341 -1.9771 -1.0354 -0.1274
   13CHTO   C33 5430   5.403   7.381   2.492 -0.4385  0.2348 -0.8284
   13CHTO   H61 5431   5.387   7.454   2.411 -3.1908  1.6815  0.9388
   13CHTO   O18 5432   5.454   7.456   2.607 -0.1800  0.6051  0.0515
   13CHTO   C28 5433   5.573   7.531   2.572  0.2717 -0.2222  0.2089
   13CHTO   H56 5434   5.562   7.581   2.476  1.7343  0.8371  0.5830
   13CHTO   C35 5435   5.626   7.636   2.681  0.3564 -0.0823  0.0383
   13CHTO   O24 5436   5.553   7.758   2.699  0.6588 -0.2747 -0.3460
   13CHTO   H39 5437   5.514   7.795   2.622  2.1852  0.3087 -0.8732
   13CHTO    O9 5438   5.274   7.320   2.524 -0.5123  0.6202  0.3759
   13CHTO   C13 5439   5.259   7.229   2.661  0.6006  0.3917 -1.1004
   13CHTO   H26 5440   5.346   7.245   2.727 -0.2768  2.5344 -0.4205
   13CHTO   C11 5441   5.244   7.075   2.609  0.6382 -0.2831  0.3950
   13CHTO   H24 5442   5.344   7.042   2.576  0.4975 -1.4284  1.0727
   13CHTO    O8 5443   5.153   7.065   2.500 -0.0447  0.2139 -0.4759
   13CHTO    H3 5444   5.160   6.980   2.461  1.9971  0.4736 -0.7765
   13CHTO    C9 5445   5.201   7.001   2.743  0.3555  0.1677 -0.4075
   13CHTO   H22 5446   5.277   7.028   2.818 -1.8428  2.1990  1.1309
   13CHTO    N2 5447   5.211   6.851   2.737 -0.9100 -0.9483 -0.2569
   13CHTO   H10 5448   5.173   6.807   2.829  0.4687  0.5562  1.0615
   13CHTO   H11 5449   5.191   6.802   2.643 -1.1871 -1.8579  0.2667
   13CHTO    C7 5450   5.073   7.063   2.806 -0.1489 -0.3830 -0.0603
   13CHTO   H20 5451   5.110   7.085   2.908  0.3411 -0.8753 -0.1325
   13CHTO    O4 5452   5.034   7.185   2.739  0.4714  0.0690 -0.1502
   13CHTO   C14 5453   5.135   7.277   2.741  0.2983 -0.1917  0.2838
   13CHTO   H27 5454   5.160   7.284   2.848 -2.6493 -1.3983  1.0993
   13CHTO   C18 5455   5.074   7.415   2.691 -0.1747 -0.0568  0.4380
   13CHTO   O13 5456   5.165   7.527   2.724  0.1373 -0.2803  0.5626
   13CHTO    H7 5457   5.176   7.573   2.643  0.5704 -2.8425 -0.8982
   13CHTO    O2 5458   4.941   6.969   2.822 -0.2167 -0.7122  0.6551
   13CHTO    C1 5459   4.865   6.975   2.945  0.7405 -0.0521 -0.0056
   13CHTO   H14 5460   4.781   6.904   2.931  1.0728 -0.5785  0.6341
   13CHTO    C2 5461   4.811   7.120   2.981 -0.5146 -0.3894 -0.0623
   13CHTO   H15 5462   4.893   7.193   2.979  0.1575 -1.0547  1.6785
   13CHTO    O6 5463   4.719   7.160   2.878  0.4991 -0.3208 -0.0488
   13CHTO    H1 5464   4.676   7.087   2.836 -1.2084  0.9702 -0.6014
   13CHTO    C3 5465   4.739   7.113   3.126 -0.3991  0.2512 -0.0063
   13CHTO   H16 5466   4.652   7.049   3.105  1.0575 -1.9498  0.4928
   13CHTO    N1 5467   4.697   7.251   3.170 -0.5347  0.0519 -0.0128
   13CHTO    H8 5468   4.682   7.316   3.085  1.2111 -1.5059 -1.5669
   13CHTO    H9 5469   4.786   7.286   3.221 -0.0827 -2.8739  1.3281
   13CHTO    C4 5470   4.821   7.032   3.240  0.5219 -0.1501 -0.1019
   13CHTO   H17 5471   4.901   7.097   3.276  1.4846 -0.8002 -1.0494
   13CHTO    O1 5472   4.860   6.906   3.177 -0.2168  0.0774 -0.0495
   13CHTO    C5 5473   4.951   6.924   3.068  0.6798 -0.2375  0.8676
   13CHTO   H18 5474   5.018   7.002   3.103  2.2619  0.2690 -3.0592
   13CHTO   C16 5475   5.025   6.789   3.049 -0.1436 -0.1220  0.3591
   13CHTO   O11 5476   5.112   6.756   3.154 -0.3674  0.1813 -0.0813
   13CHTO    H5 5477   5.199   6.780   3.128  0.0220  0.3360  1.3549
   13CHTO    O3 5478   4.734   7.000   3.352  0.8165 -0.7951 -0.2765
   13CHTO    C6 5479   4.626   6.898   3.332 -0.5513 -0.3027  0.7283
   13CHTO   H19 5480   4.610   6.885   3.225  1.9016 -2.2781  0.5285
   13CHTO    C8 5481   4.666   6.763   3.406  0.0161  0.4661 -0.1609
   13CHTO   H21 5482   4.702   6.790   3.505 -1.9437 -2.5082  1.4068
   13CHTO    O7 5483   4.759   6.687   3.327 -0.8126 -0.9468  0.3771
   13CHTO    H2 5484   4.844   6.727   3.331 -0.5819 -1.3794 -0.2515
   13CHTO   C12 5485   4.540   6.674   3.435 -0.4800  0.0938  0.4812
   13CHTO   H25 5486   4.502   6.639   3.336  3.4336 -2.2777 -0.2787
   13CHTO    N3 5487   4.565   6.553   3.511 -0.5946  0.2983  0.6488
   13CHTO   H12 5488   4.669   6.534   3.533  0.2160  0.9241 -2.4153
   13CHTO   H13 5489   4.526   6.469   3.456 -2.3915  0.8155  1.0947
   13CHTO   C15 5490   4.437   6.763   3.504  0.4144  0.5080 -0.4565
   13CHTO   H28 5491   4.476   6.812   3.593 -1.3926  1.1293  0.0183
   13CHTO   O10 5492   4.290   6.691   3.539  0.2426  0.0033 -0.2175
   13CHTO    H4 5493   4.301   6.650   3.623 -0.1693 -2.6533 -1.4352
   13CHTO    O5 5494   4.400   6.857   3.408 -0.7340 -0.6943  0.0396
   13CHTO   C10 5495   4.492   6.960   3.389 -0.0898  0.2836 -0.3384
   13CHTO   H23 5496   4.510   7.016   3.480 -0.8051 -0.4222  0.2493
   13CHTO   C17 5497   4.433   7.063   3.292  0.4183  0.3189  0.0131
   13CHTO   O12 5498   4.320   7.147   3.318 -0.2706  0.0935 -0.2699
   13CHTO    H6 5499   4.338   7.199   3.394 -1.0633 -0.3352  0.2207
   14CHTO  H203 5500   7.048   4.963   2.123  1.6133  1.1407  1.4744
   14CHTO   O82 5501   7.083   4.915   2.050 -0.4748  0.8512  0.6217
   14CHTO  C123 5502   6.997   4.800   2.018 -0.3267  1.0268  0.3962
   14CHTO  H227 5503   6.902   4.813   2.072 -0.8944 -2.2990  0.2928
   14CHTO   O77 5504   6.967   4.814   1.876  0.3502  0.3004 -0.0628
   14CHTO  C118 5505   6.855   4.738   1.823  0.0110 -0.5590  0.2664
   14CHTO  H222 5506   6.776   4.776   1.890  2.1439 -0.6491  2.9254
   14CHTO  C125 5507   6.822   4.776   1.677 -0.3912  0.1701  0.4719
   14CHTO   O84 5508   6.933   4.752   1.585 -0.5262  0.4014  0.6306
   14CHTO  H205 5509   6.923   4.814   1.515  0.9689  0.4466  0.4333
   14CHTO  C114 5510   6.882   4.587   1.845  0.4750  0.7771  0.2881
   14CHTO  H218 5511   6.970   4.559   1.788 -0.8338 -2.5978 -0.1969
   14CHTO  C116 5512   6.918   4.561   1.996 -0.2370  0.5970  0.4686
   14CHTO  H220 5513   6.825   4.570   2.056 -0.9516 -0.2994 -0.4844
   14CHTO   O79 5514   6.940   4.425   2.010 -0.4244  0.2815  0.2545
   14CHTO  H201 5515   7.025   4.406   1.975  1.2222  1.5807  3.2989
   14CHTO  C120 5516   7.043   4.649   2.040  0.8343  0.3799  0.0306
   14CHTO  H224 5517   7.129   4.622   1.974 -0.9046 -1.9291 -1.3627
   14CHTO   N21 5518   7.071   4.621   2.184  0.4510 -0.1116 -0.2478
   14CHTO  H211 5519   7.141   4.538   2.189  1.8982  1.0066 -1.5088
   14CHTO  H212 5520   6.988   4.608   2.251 -0.5906  1.5097 -1.1999
   14CHTO   O75 5521   6.769   4.516   1.787 -0.1346 -0.7340 -0.1177
   14CHTO  C112 5522   6.625   4.490   1.876 -0.1230 -0.7566 -0.6400
   14CHTO  H216 5523   6.595   4.585   1.923 -1.8057 -1.8920  0.6803
   14CHTO   O73 5524   6.653   4.391   1.975 -0.1606 -0.1978 -0.3655
   14CHTO  C113 5525   6.546   4.344   2.053  0.4983 -0.0536 -0.7922
   14CHTO  H217 5526   6.503   4.430   2.110  1.7288  1.3857 -1.9945
   14CHTO  C124 5527   6.609   4.250   2.157  0.4299  0.2031 -0.2850
   14CHTO   O83 5528   6.529   4.233   2.281  0.2239 -0.1084  0.2973
   14CHTO  H204 5529   6.498   4.317   2.309  1.2173  1.0289 -1.8714
   14CHTO  C109 5530   6.447   4.270   1.967  0.1907  0.4034  0.9788
   14CHTO  H213 5531   6.502   4.191   1.913 -2.9023 -1.8034  0.9321
   14CHTO  C110 5532   6.386   4.372   1.860 -0.2871 -0.3071 -0.4406
   14CHTO  H214 5533   6.338   4.454   1.915  1.2490 -0.3608  1.0099
   14CHTO   O78 5534   6.300   4.314   1.762 -0.0888  0.2195 -0.0016
   14CHTO  H200 5535   6.242   4.263   1.816  1.2837 -0.2882  1.0451
   14CHTO  C111 5536   6.507   4.432   1.787 -0.0292 -0.0260  0.4623
   14CHTO  H215 5537   6.558   4.353   1.729 -0.4681  0.5549 -0.7275
   14CHTO   N19 5538   6.474   4.541   1.694  0.1975 -0.2461  0.0526
   14CHTO  H207 5539   6.510   4.520   1.594  1.8375  1.8610  0.1507
   14CHTO  H208 5540   6.522   4.636   1.715 -1.0222  0.2238  0.7713
   14CHTO   O74 5541   6.350   4.199   2.045  0.4349 -0.1307  0.1081
   14CHTO  C115 5542   6.250   4.080   1.985  0.1453  0.2614 -0.0593
   14CHTO  H219 5543   6.264   4.069   1.877  1.6400 -0.2420  0.1696
   14CHTO   O76 5544   6.299   3.942   2.042 -0.6825 -0.2201 -0.5727
   14CHTO  C122 5545   6.214   3.829   2.022 -0.0464 -0.2730 -0.3004
   14CHTO  H226 5546   6.252   3.750   2.086 -2.6710 -1.5038 -0.1699
   14CHTO  C126 5547   6.243   3.779   1.872 -0.9049  0.1026 -0.7055
   14CHTO   O85 5548   6.388   3.755   1.858 -0.1499 -0.2529 -0.1136
   14CHTO  H206 5549   6.398   3.676   1.810 -3.7646  0.5329 -2.3113
   14CHTO  C121 5550   6.064   3.849   2.056  0.0871 -0.2238 -0.4861
   14CHTO  H225 5551   5.999   3.767   2.016  0.2326 -0.2141 -0.7452
   14CHTO   O81 5552   6.050   3.859   2.198  0.6803  0.1223  0.0671
   14CHTO  H202 5553   5.968   3.822   2.224  0.9234 -0.0024  0.6660
   14CHTO  C119 5554   6.010   3.979   1.986 -0.0599  0.1949 -0.3899
   14CHTO  H223 5555   6.023   3.954   1.880  0.7960  0.8878 -0.4523
   14CHTO  C117 5556   6.099   4.104   2.026  0.1917  1.1385 -0.2438
   14CHTO  H221 5557   6.092   4.140   2.128  2.2072 -0.0266  0.3374
   14CHTO   N20 5558   6.063   4.223   1.944 -0.4601  0.8555 -0.1033
   14CHTO  H209 5559   6.069   4.199   1.839  0.8507 -0.2730  0.2180
   14CHTO  H210 5560   5.980   4.272   1.993  0.9014  1.5713  1.5375
   14CHTO   O80 5561   5.845   4.003   1.995 -0.3698 -0.4665 -0.6378
   14CHTO  C103 5562   5.768   4.046   1.873  0.2422 -0.0367 -0.0796
   14CHTO  H190 5563   5.827   4.121   1.819  1.3022  0.0386  1.1625
   14CHTO  C101 5564   5.731   3.929   1.770  0.3671  0.5171 -0.0551
   14CHTO  H188 5565   5.669   3.853   1.817  0.2478  0.9532  0.5097
   14CHTO   O68 5566   5.871   3.859   1.724  0.1501  0.3771  0.0193
   14CHTO  H168 5567   5.876   3.812   1.643 -1.9560 -1.1510  0.7179
   14CHTO   C99 5568   5.650   3.991   1.648 -0.2086 -0.1304  0.1364
   14CHTO  H186 5569   5.711   4.069   1.597  2.1831 -0.8620  1.7665
   14CHTO   N17 5570   5.606   3.892   1.542 -0.3543  0.0105  0.2883
   14CHTO  H174 5571   5.694   3.859   1.489 -0.2673 -0.2402  0.5864
   14CHTO  H175 5572   5.541   3.814   1.579  0.9456 -0.8601  0.7573
   14CHTO   C97 5573   5.528   4.065   1.701  0.0059  0.0251 -0.1573
   14CHTO  H184 5574   5.448   3.997   1.735  0.4902 -0.8281 -0.6936
   14CHTO   O64 5575   5.566   4.167   1.798  0.1438  0.8350  0.1403
   14CHTO  C104 5576   5.636   4.115   1.916 -0.4466 -0.4082  0.0726
   14CHTO  H191 5577   5.582   4.047   1.983 -0.8282  0.0217  0.2071
   14CHTO  C108 5578   5.675   4.237   1.999  0.2450 -0.2331  0.3179
   14CHTO   O71 5579   5.666   4.215   2.139  0.0192  0.3962 -0.2301
   14CHTO  H171 5580   5.713   4.141   2.170 -0.9536 -0.2043 -0.1695
   14CHTO   O62 5581   5.469   4.143   1.598  0.0787  0.4947  0.2292
   14CHTO   C91 5582   5.324   4.154   1.589  0.1713 -0.3365  0.1827
   14CHTO  H178 5583   5.275   4.057   1.598 -1.7541  0.6005  0.0527
   14CHTO   C92 5584   5.301   4.198   1.437  0.8482  0.0612 -0.1541
   14CHTO  H179 5585   5.358   4.129   1.373 -1.2026 -1.6041 -0.2248
   14CHTO   O66 5586   5.163   4.167   1.403 -0.1919 -0.7385 -0.1373
   14CHTO  H166 5587   5.141   4.084   1.368 -2.4962 -0.6481  1.0234
   14CHTO   C93 5588   5.332   4.354   1.414  0.6047  0.6585 -0.0803
   14CHTO  H180 5589   5.280   4.391   1.324  0.0267  1.5023  0.5897
   14CHTO   N16 5590   5.473   4.375   1.383 -0.5369 -0.2905 -0.8487
   14CHTO  H172 5591   5.541   4.343   1.461 -1.5757 -1.0730 -0.2647
   14CHTO  H173 5592   5.511   4.329   1.293  1.7261  0.0425 -0.1113
   14CHTO   C94 5593   5.288   4.446   1.527  0.3287  0.0319 -0.9286
   14CHTO  H181 5594   5.373   4.484   1.584 -0.8550 -0.4543  1.1962
   14CHTO   O61 5595   5.201   4.384   1.623 -0.1187  0.8463 -0.0966
   14CHTO   C95 5596   5.254   4.266   1.693  0.6669  0.3325  0.9527
   14CHTO  H182 5597   5.332   4.301   1.761  1.6404  0.4080 -0.1683
   14CHTO  C106 5598   5.135   4.198   1.774  0.4652 -0.1368  0.6523
   14CHTO   O69 5599   5.097   4.277   1.885 -0.3152 -0.1149 -0.6609
   14CHTO  H169 5600   5.171   4.312   1.929  0.1607 -0.7556 -0.9426
   14CHTO   O63 5601   5.199   4.576   1.451 -0.1513 -0.3818  0.0824
   14CHTO   C96 5602   5.205   4.699   1.527  0.5337 -0.0929  0.4678
   14CHTO  H183 5603   5.284   4.695   1.602 -0.2270 -0.8793  1.2349
   14CHTO   C98 5604   5.057   4.715   1.598  0.0042 -0.3340 -0.0924
   14CHTO  H185 5605   4.975   4.673   1.538 -1.3354  0.2154  1.3304
   14CHTO   O67 5606   5.061   4.635   1.722 -0.0983 -0.7762 -0.1369
   14CHTO  H167 5607   5.090   4.550   1.695  2.1489  0.6708 -2.5326
   14CHTO  C102 5608   5.016   4.867   1.646 -0.0092 -0.6204  0.2751
   14CHTO  H189 5609   5.065   4.879   1.744 -0.2103  1.6610  0.1192
   14CHTO   N18 5610   4.870   4.880   1.669  0.6410  0.3759  0.0247
   14CHTO  H176 5611   4.861   4.979   1.712 -0.9597  0.0360  0.5183
   14CHTO  H177 5612   4.837   4.804   1.738 -0.7796 -0.1063 -1.1836
   14CHTO  C105 5613   5.086   4.966   1.543 -0.0422  0.3440 -0.1772
   14CHTO  H192 5614   5.024   4.975   1.454 -1.0484 -0.2816  0.4509
   14CHTO   O65 5615   5.222   4.932   1.507 -0.0967 -0.8047 -0.0286
   14CHTO  C100 5616   5.227   4.816   1.425 -0.7289 -0.0857  0.1371
   14CHTO  H187 5617   5.146   4.822   1.351  1.2353  0.7578 -2.0013
   14CHTO  C107 5618   5.362   4.820   1.357 -0.9658  0.1751  0.3545
   14CHTO   O70 5619   5.398   4.702   1.286 -0.2677  0.3516 -0.1288
   14CHTO  H170 5620   5.346   4.676   1.212 -1.1244 -0.3940  0.7170
   14CHTO   O57 5621   5.084   5.094   1.626  0.0980 -0.1384  0.1443
   14CHTO   C85 5622   5.068   5.220   1.563  0.3647 -0.1041  0.5233
   14CHTO  H157 5623   4.989   5.192   1.490 -0.6993  0.7547  1.3198
   14CHTO   C83 5624   5.204   5.266   1.485 -0.2025 -0.4026  0.1196
   14CHTO  H155 5625   5.223   5.194   1.405 -0.7189  0.4072 -0.7473
   14CHTO   O56 5626   5.309   5.276   1.582 -0.4179 -0.1467  0.7640
   14CHTO  H135 5627   5.288   5.331   1.655  2.3142  0.8501  0.8260
   14CHTO   C81 5628   5.164   5.397   1.412 -0.0515 -0.1410 -0.2369
   14CHTO  H153 5629   5.083   5.372   1.343  0.0959 -0.8875 -0.1456
   14CHTO   N14 5630   5.263   5.441   1.315  0.0773  0.6298  0.1242
   14CHTO  H141 5631   5.234   5.535   1.273  0.7227  0.7195 -0.1348
   14CHTO  H142 5632   5.279   5.370   1.237  0.3618  0.5468  0.2579
   14CHTO   C79 5633   5.105   5.513   1.509  0.1116  0.7701  0.0369
   14CHTO  H151 5634   5.068   5.593   1.446 -0.7658 -1.6079 -2.5682
   14CHTO   O52 5635   4.990   5.468   1.591 -0.4872  0.1082 -0.1383
   14CHTO   C86 5636   5.021   5.342   1.657 -0.2472  0.3184 -0.4345
   14CHTO  H158 5637   5.093   5.375   1.735  0.0363  2.4886 -1.5833
   14CHTO   C90 5638   4.897   5.291   1.731  0.1769 -0.2909  0.7338
   14CHTO   O60 5639   4.843   5.393   1.817 -0.4744 -0.0048  0.1686
   14CHTO  H138 5640   4.808   5.457   1.757 -0.6836  2.1791  2.4974
   14CHTO   O50 5641   5.210   5.568   1.594  0.1846 -0.2744 -0.5327
   14CHTO   C73 5642   5.202   5.689   1.676 -0.0830 -0.6262 -0.5350
   14CHTO  H145 5643   5.115   5.693   1.743  0.2310 -0.5990 -0.1321
   14CHTO   C74 5644   5.196   5.816   1.584  0.2533  0.3971  0.0857
   14CHTO  H146 5645   5.099   5.816   1.532  0.8128  0.3812 -0.9529
   14CHTO   O54 5646   5.189   5.937   1.666 -0.5228 -0.0284  0.0279
   14CHTO  H133 5647   5.249   6.004   1.639 -0.8858 -0.1205 -1.0356
   14CHTO   C75 5648   5.318   5.813   1.484 -0.7803 -0.3356  0.5750
   14CHTO  H147 5649   5.312   5.717   1.432 -0.2842 -0.4018  0.6386
   14CHTO   N13 5650   5.315   5.914   1.376 -0.1451  0.3550 -0.3127
   14CHTO  H139 5651   5.224   5.912   1.319  1.1489  0.7745 -2.4790
   14CHTO  H140 5652   5.342   6.015   1.405  1.3271 -0.2897  0.6446
   14CHTO   C76 5653   5.456   5.807   1.565  0.0102  0.0083  0.0374
   14CHTO  H148 5654   5.472   5.909   1.599  1.6792 -0.3748  0.4359
   14CHTO   O49 5655   5.450   5.716   1.670 -0.2649  0.3796 -0.0708
   14CHTO   C77 5656   5.334   5.700   1.754  0.5527 -0.4601  0.0388
   14CHTO  H149 5657   5.324   5.786   1.820 -0.4468 -0.1727 -0.4795
   14CHTO   C88 5658   5.336   5.573   1.841 -0.1470  0.0372  0.1434
   14CHTO   O58 5659   5.477   5.549   1.913 -0.7894 -0.3974  0.2537
   14CHTO  H136 5660   5.500   5.459   1.907  1.3991  0.1423  0.1142
   14CHTO   O51 5661   5.574   5.753   1.463 -0.8444  0.0329  0.0334
   14CHTO   C78 5662   5.717   5.810   1.485  0.3115 -0.3710  0.3966
   14CHTO  H150 5663   5.718   5.869   1.579 -0.6770  0.2235  0.0345
   14CHTO   C80 5664   5.755   5.908   1.365  0.8214  0.3097  0.0675
   14CHTO  H152 5665   5.721   5.852   1.276  1.3366 -2.3058  1.4617
   14CHTO   O55 5666   5.668   6.022   1.370 -0.2281 -0.3984  0.0968
   14CHTO  H134 5667   5.619   6.039   1.292 -0.1164 -0.0033  0.1125
   14CHTO   C84 5668   5.908   5.949   1.370  0.7115 -1.1547  1.0291
   14CHTO  H156 5669   5.921   6.012   1.458 -0.0883 -0.7788  0.8897
   14CHTO   N15 5670   5.941   6.033   1.251 -0.7825  0.8275  0.0911
   14CHTO  H143 5671   6.039   6.067   1.274 -0.2246 -0.6450 -0.0521
   14CHTO  H144 5672   5.877   6.115   1.225 -0.1132  1.6373  0.9429
   14CHTO   C87 5673   5.998   5.820   1.375  0.1129  0.0850 -0.2484
   14CHTO  H159 5674   5.976   5.753   1.291 -0.0239 -1.2362  0.8350
   14CHTO   O53 5675   5.945   5.747   1.519 -0.0616 -0.4622  0.0459
   14CHTO   C82 5676   5.813   5.691   1.512  0.1949 -0.2282  0.4682
   14CHTO  H154 5677   5.812   5.615   1.433  2.1815  0.2545 -0.0519
   14CHTO   C89 5678   5.776   5.615   1.643 -0.2627 -0.5589 -0.4642
   14CHTO   O59 5679   5.844   5.497   1.686 -0.2218  0.5631 -0.7853
   14CHTO  H137 5680   5.935   5.518   1.684 -0.6527  2.6951  0.1484
   14CHTO   O45 5681   6.161   5.857   1.380  0.0631  0.3612  0.3164
   14CHTO   C67 5682   6.253   5.769   1.308 -0.1724 -1.2309  0.1715
   14CHTO  H124 5683   6.208   5.671   1.295 -0.2317 -1.0496 -1.0052
   14CHTO   C65 5684   6.283   5.833   1.163  0.1012  0.3564  0.2975
   14CHTO  H122 5685   6.190   5.879   1.129  0.8509  2.8865  1.5139
   14CHTO   O44 5686   6.328   5.715   1.091  0.9733 -0.1653  0.4766
   14CHTO  H102 5687   6.316   5.715   0.998  2.2381 -1.8439  0.2955
   14CHTO   C63 5688   6.390   5.949   1.172  0.0957  0.3160 -0.1025
   14CHTO  H120 5689   6.350   6.038   1.218  2.7408  0.5871  1.7990
   14CHTO   N11 5690   6.425   6.004   1.039 -0.0447 -0.0398 -0.1610
   14CHTO  H108 5691   6.338   6.017   0.978 -0.4448  0.6237  0.5335
   14CHTO  H109 5692   6.492   6.087   1.044  0.6661 -0.6179  0.0058
   14CHTO   C61 5693   6.514   5.906   1.247  0.5390 -0.0307 -0.4753
   14CHTO  H118 5694   6.569   6.001   1.257 -1.3329  1.0121  0.2011
   14CHTO   O40 5695   6.479   5.852   1.379  0.0247  0.1385  0.2223
   14CHTO   C68 5696   6.383   5.747   1.396  0.3719 -0.2752 -0.7070
   14CHTO  H125 5697   6.349   5.750   1.502 -0.6297 -1.9658 -0.9552
   14CHTO   C72 5698   6.454   5.607   1.381  0.6361 -0.2244  0.8677
   14CHTO   O48 5699   6.562   5.597   1.474 -0.3369 -0.1529 -0.8127
   14CHTO  H105 5700   6.646   5.587   1.436 -0.6388  0.7399 -1.7373
   14CHTO   O38 5701   6.589   5.800   1.185 -0.6385  0.2774 -0.2443
   14CHTO   C55 5702   6.723   5.813   1.140  0.1461  0.7210  0.3274
   14CHTO  H112 5703   6.752   5.915   1.110 -1.9434  1.3105  0.2158
   14CHTO   C56 5704   6.727   5.713   1.020 -0.4163 -0.0102  1.1411
   14CHTO  H113 5705   6.707   5.613   1.063 -0.9764  0.3737  1.7773
   14CHTO   O42 5706   6.632   5.730   0.918  0.0101 -0.4756 -0.2712
   14CHTO  H100 5707   6.553   5.769   0.949  1.5728  2.6201  0.0006
   14CHTO   C57 5708   6.878   5.710   0.961 -0.3446  0.7217  0.1569
   14CHTO  H114 5709   6.878   5.809   0.914 -1.8040 -0.1095 -1.6670
   14CHTO   N10 5710   6.908   5.606   0.858 -0.0919  0.4907 -0.3103
   14CHTO  H106 5711   6.953   5.522   0.908 -1.0745  0.0889 -0.0979
   14CHTO  H107 5712   6.813   5.578   0.814  0.0231 -0.4638  0.0332
   14CHTO   C58 5713   6.980   5.700   1.076  0.1945  0.3642 -0.8764
   14CHTO  H115 5714   6.985   5.600   1.124  1.9822  1.1619  0.6625
   14CHTO   O37 5715   6.952   5.795   1.182  0.2949  0.1803  0.2641
   14CHTO   C59 5716   6.826   5.769   1.248  0.4030 -0.1088 -0.2850
   14CHTO  H116 5717   6.810   5.664   1.272 -3.6477  0.6714  0.7067
   14CHTO   C70 5718   6.821   5.847   1.381 -0.3216 -0.5489 -0.1793
   14CHTO   O46 5719   6.912   5.802   1.476 -0.2528  0.3611  0.0968
   14CHTO  H103 5720   6.875   5.781   1.559  0.8462  0.5817  0.6437
   14CHTO   O39 5721   7.140   5.761   1.027 -0.7261  0.4132  0.2774
   14CHTO   C60 5722   7.240   5.732   1.121  0.4856  0.4157 -1.0163
   14CHTO  H117 5723   7.218   5.771   1.221 -0.0953 -1.8640 -0.2378
   14CHTO   C62 5724   7.261   5.584   1.152  0.2733 -0.3101  1.1913
   14CHTO  H119 5725   7.171   5.554   1.210  0.2225  1.8461  2.2694
   14CHTO   O43 5726   7.265   5.503   1.034 -0.0227  0.4619 -0.0378
   14CHTO  H101 5727   7.352   5.470   1.017 -0.3343  0.8294 -2.4987
   14CHTO   C66 5728   7.390   5.558   1.245 -0.6851  0.3191 -0.3977
   14CHTO  H123 5729   7.387   5.629   1.327 -0.5187 -0.5924  0.3925
   14CHTO   N12 5730   7.404   5.425   1.301 -0.1194  0.0390 -0.4186
   14CHTO  H110 5731   7.325   5.414   1.374 -0.2213 -3.6499 -0.9916
   14CHTO  H111 5732   7.390   5.352   1.223 -1.2295 -0.5233  0.2909
   14CHTO   C69 5733   7.508   5.613   1.169 -0.0026  0.2353  1.5482
   14CHTO  H126 5734   7.505   5.577   1.064 -0.2854 -2.6333  2.4686
   14CHTO   O41 5735   7.493   5.765   1.171  0.2134  0.3031  0.7947
   14CHTO   C64 5736   7.372   5.797   1.080  0.0212 -0.0100  0.7874
   14CHTO  H121 5737   7.385   5.765   0.974  0.5927 -0.2165  0.9169
   14CHTO   C71 5738   7.365   5.956   1.076  0.3336 -0.2336 -0.1359
   14CHTO   O47 5739   7.484   6.012   1.017  0.2302 -0.1641  0.4272
   14CHTO  H104 5740   7.484   6.093   1.065 -4.6453  0.2809  0.0135
   14CHTO   O34 5741   7.668   5.581   1.226  0.0066  0.1067  0.2943
   14CHTO   C49 5742   7.799   5.601   1.193  0.4048  0.0001  0.4098
   14CHTO   H91 5743   7.819   5.548   1.100 -2.4683  0.3156 -0.4103
   14CHTO   C47 5744   7.898   5.557   1.303 -0.4304  0.0330 -0.3608
   14CHTO   H89 5745   8.000   5.586   1.270 -0.5774  1.2418  0.2210
   14CHTO   O33 5746   7.899   5.418   1.330  0.3485  0.7074  0.4275
   14CHTO   H70 5747   7.824   5.393   1.380  0.0309  1.6419  0.4128
   14CHTO   C45 5748   7.869   5.638   1.441 -0.5156  0.2332 -0.1988
   14CHTO   H87 5749   7.788   5.593   1.501 -0.7030  0.7769 -0.0389
   14CHTO    N8 5750   7.993   5.635   1.526 -0.3843  0.6162 -0.6114
   14CHTO   H75 5751   7.963   5.682   1.619  0.1543  0.8357 -0.5481
   14CHTO   H76 5752   8.073   5.687   1.476 -1.2039  1.3915 -1.1359
   14CHTO   C43 5753   7.802   5.780   1.413  0.1162  0.6177  0.6326
   14CHTO   H85 5754   7.695   5.762   1.410 -0.2837  2.8578  0.2661
   14CHTO   O29 5755   7.847   5.842   1.285 -0.0219 -0.6191  0.4159
   14CHTO   C50 5756   7.827   5.755   1.176  0.2693 -0.7182  0.2344
   14CHTO   H92 5757   7.744   5.795   1.117  1.3257  0.6306 -0.3480
   14CHTO   C54 5758   7.943   5.779   1.080 -0.7160 -0.2428 -0.2541
   14CHTO   O36 5759   8.068   5.796   1.134 -0.7123 -0.0817 -0.9553
   14CHTO   H72 5760   8.090   5.727   1.194 -0.2718 -0.1182 -1.1545
   14CHTO   O27 5761   7.810   5.877   1.519  0.1640  0.2324  0.0288
   14CHTO   C37 5762   7.744   6.001   1.542  0.2905  0.4986 -0.4877
   14CHTO   H79 5763   7.809   6.063   1.606  1.1547 -0.7599 -0.1455
   14CHTO   C38 5764   7.688   6.076   1.415  0.1761  0.2654 -0.0307
   14CHTO   H80 5765   7.645   6.006   1.341  0.4571  1.8178 -1.7012
   14CHTO   O31 5766   7.795   6.144   1.338 -0.0591  0.9638  0.1971
   14CHTO   H68 5767   7.843   6.198   1.398  0.8062  1.0586 -0.5801
   14CHTO   C39 5768   7.578   6.183   1.448  0.1092  0.1331 -0.3502
   14CHTO   H81 5769   7.623   6.264   1.506  0.7645 -0.9637  0.6821
   14CHTO    N7 5770   7.505   6.239   1.329  0.0080  0.4846  0.0035
   14CHTO   H73 5771   7.427   6.169   1.303 -0.0488  0.2116  0.9083
   14CHTO   H74 5772   7.464   6.336   1.352  0.5346  1.0175 -1.2329
   14CHTO   C40 5773   7.465   6.130   1.550  0.4919  0.4328 -0.2178
   14CHTO   H82 5774   7.409   6.050   1.501  0.5573  0.7198 -0.7715
   14CHTO   O26 5775   7.544   6.080   1.666 -0.1486 -0.3851 -0.3943
   14CHTO   C41 5776   7.623   5.964   1.636 -0.0682  0.2517 -0.0162
   14CHTO   H83 5777   7.552   5.902   1.578 -0.5973  0.0252  0.8746
   14CHTO   C52 5778   7.669   5.895   1.773 -0.4196  0.2958  0.3185
   14CHTO   O35 5779   7.753   5.987   1.845 -0.6330  0.1268  0.3786
   14CHTO   H71 5780   7.806   5.935   1.902 -1.7176 -1.1682  0.2568
   14CHTO   O28 5781   7.380   6.232   1.610  0.5205  0.0002 -0.3282
   14CHTO   C42 5782   7.255   6.188   1.669  0.2081 -0.0037  0.6074
   14CHTO   H84 5783   7.209   6.277   1.713  0.1825 -0.7205  2.0480
   14CHTO   C44 5784   7.263   6.087   1.794  0.6577  0.3215  0.1328
   14CHTO   H86 5785   7.310   5.994   1.760 -1.3297 -0.5593 -0.2840
   14CHTO   O32 5786   7.344   6.147   1.893 -0.0900  0.0806 -0.3337
   14CHTO   H69 5787   7.288   6.202   1.944 -1.0498 -1.1613 -0.0262
   14CHTO   C48 5788   7.124   6.046   1.854 -0.0220 -0.1367 -0.6808
   14CHTO   H90 5789   7.089   6.133   1.909 -0.3047  0.2541 -1.4689
   14CHTO    N9 5790   7.127   5.943   1.964 -0.2215 -0.4868 -0.6207
   14CHTO   H77 5791   7.183   5.853   1.946 -0.9716 -1.2204  0.6352
   14CHTO   H78 5792   7.024   5.914   1.981 -0.7509  2.3561  1.3906
   14CHTO   C51 5793   7.014   6.014   1.743 -0.6805 -0.3401 -0.3210
   14CHTO   H93 5794   7.034   5.914   1.705  1.4934  0.2682 -0.8609
   14CHTO   O30 5795   7.029   6.114   1.640  0.4454 -0.4571  0.2157
   14CHTO   C46 5796   7.146   6.134   1.566 -0.0813 -0.0843 -0.5839
   14CHTO   H88 5797   7.180   6.040   1.522  1.5104  0.2295 -0.0677
   14CHTO   C53 5798   7.117   6.230   1.455 -0.5988  1.0675 -0.1136
   14CHTO   O72 5799   7.037   6.172   1.358 -0.0662  0.3049  0.1059
   14CHTO  H199 5800   6.975   6.111   1.393  1.8418 -0.2617  2.6964
   14CHTO   O22 5801   6.880   6.019   1.796  0.0464  0.4359 -0.3819
   14CHTO   C31 5802   6.759   5.971   1.731 -0.3550 -0.3843 -0.5728
   14CHTO   H59 5803   6.782   5.960   1.623 -2.2185  0.8181 -1.1177
   14CHTO   C29 5804   6.707   5.840   1.782  0.1384 -0.0823 -0.2927
   14CHTO   H57 5805   6.724   5.839   1.891 -0.9163 -0.0689 -0.1211
   14CHTO   O21 5806   6.794   5.742   1.717  0.5037 -0.4417 -0.4569
   14CHTO   H37 5807   6.801   5.664   1.770  2.7113  0.7762  1.1501
   14CHTO   C27 5808   6.558   5.810   1.746 -0.8903  0.0820 -0.3224
   14CHTO   H55 5809   6.549   5.795   1.638  1.9511 -1.0128 -0.4350
   14CHTO    N5 5810   6.509   5.700   1.828  0.3464  0.0279  0.3115
   14CHTO   H43 5811   6.485   5.737   1.927 -0.1102  5.3038 -1.6239
   14CHTO   H44 5812   6.586   5.623   1.831  0.7805  0.3775 -1.3519
   14CHTO   C25 5813   6.463   5.940   1.764  0.2629 -0.0855 -0.5983
   14CHTO   H53 5814   6.452   5.966   1.870 -0.4127  0.3817 -0.7860
   14CHTO   O17 5815   6.528   6.054   1.695 -0.2002  0.2714  0.0252
   14CHTO   C32 5816   6.656   6.093   1.740  0.5816  0.1403 -0.2123
   14CHTO   H60 5817   6.649   6.136   1.840 -0.7309  0.0121 -0.2445
   14CHTO   C36 5818   6.699   6.207   1.643 -0.6208 -0.0785  0.3684
   14CHTO   O25 5819   6.648   6.338   1.678  0.2086 -0.3662 -0.2437
   14CHTO   H40 5820   6.555   6.348   1.666  0.3146 -1.4391 -2.1884
   14CHTO   O15 5821   6.321   5.924   1.703  0.3255  0.0779  0.1630
   14CHTO   C19 5822   6.186   5.987   1.679 -0.5374 -0.1411 -0.1342
   14CHTO   H47 5823   6.150   5.939   1.587  0.7326  0.2702 -0.8761
   14CHTO   C20 5824   6.085   5.963   1.803  0.5362  0.2532 -0.5404
   14CHTO   H48 5825   6.116   6.011   1.897  0.8122  0.1394 -0.5709
   14CHTO   O19 5826   6.086   5.820   1.825 -0.2218 -0.2243 -0.0394
   14CHTO   H35 5827   6.074   5.789   1.913 -1.3187  0.2550 -0.0184
   14CHTO   C21 5828   5.947   6.016   1.764  0.5498 -1.0307 -0.2188
   14CHTO   H49 5829   5.905   5.964   1.678  1.5545 -2.8923  0.3954
   14CHTO    N4 5830   5.845   5.993   1.871 -0.4253 -0.0195 -0.9088
   14CHTO   H41 5831   5.802   5.897   1.849 -2.1791  0.7328 -0.8356
   14CHTO   H42 5832   5.875   5.999   1.974  2.0816  1.4270 -1.6835
   14CHTO   C22 5833   5.960   6.166   1.716  0.4810  0.3840  0.2470
   14CHTO   H50 5834   5.984   6.230   1.801  1.2699  2.8161 -1.7561
   14CHTO   O14 5835   6.054   6.177   1.612  0.1662 -0.1442 -0.2705
   14CHTO   C23 5836   6.192   6.145   1.653  0.0910  0.2873  0.0858
   14CHTO   H51 5837   6.211   6.205   1.744  1.3014  0.7408 -0.4500
   14CHTO   C34 5838   6.286   6.185   1.537  0.0074 -0.8962 -0.3298
   14CHTO   O23 5839   6.256   6.105   1.423  0.7254 -0.5752  0.6311
   14CHTO   H38 5840   6.336   6.122   1.377 -1.0096  1.0047 -1.9089
   14CHTO   O16 5841   5.843   6.219   1.656  0.1519  0.6658 -0.0114
   14CHTO   C24 5842   5.809   6.386   1.640 -0.7878  0.5031  0.1783
   14CHTO   H52 5843   5.806   6.416   1.535  5.5044  0.4746 -0.2376
   14CHTO   C26 5844   5.922   6.476   1.706  0.3879 -1.0207 -0.9637
   14CHTO   H54 5845   5.928   6.451   1.814  0.8583 -2.5791 -1.3461
   14CHTO   O20 5846   6.045   6.459   1.630 -0.2970 -0.1151  0.2370
   14CHTO   H36 5847   6.124   6.486   1.671  0.1292  0.3343 -0.8473
   14CHTO   C30 5848   5.877   6.626   1.699  0.5109 -0.1812  0.0909
   14CHTO   H58 5849   5.844   6.654   1.598  0.9898  0.5053  0.1212
   14CHTO    N6 5850   5.981   6.711   1.752  0.5112  0.1820 -0.2172
   14CHTO   H45 5851   5.959   6.816   1.762 -0.7173 -0.0830 -0.0897
   14CHTO   H46 5852   6.076   6.702   1.701  1.5194  0.4078  1.5910
   14CHTO   C33 5853   5.739   6.640   1.778  0.5487 -0.1877  0.0882
   14CHTO   H61 5854   5.741   6.607   1.883  0.3104 -1.8587 -0.4208
   14CHTO   O18 5855   5.649   6.555   1.699 -0.2499  0.3847 -0.0305
   14CHTO   C28 5856   5.677   6.415   1.714  0.1180  0.4096  0.4446
   14CHTO   H56 5857   5.695   6.401   1.821  0.5658  0.5089  0.3832
   14CHTO   C35 5858   5.563   6.335   1.655  0.5428  0.5001 -0.0461
   14CHTO   O24 5859   5.440   6.351   1.719 -0.1551 -0.3366 -0.3644
   14CHTO   H39 5860   5.407   6.263   1.720 -0.8451 -0.1002 -1.2865
   14CHTO    O9 5861   5.686   6.778   1.784  0.0498 -0.3470 -0.5276
   14CHTO   C13 5862   5.573   6.808   1.912  0.6722  0.1648  0.6166
   14CHTO   H26 5863   5.616   6.750   1.996  0.0893 -0.5100  0.4530
   14CHTO   C11 5864   5.424   6.759   1.877 -0.9339 -0.4315  0.1377
   14CHTO   H24 5865   5.422   6.650   1.892  1.1181 -0.7830 -1.9198
   14CHTO    O8 5866   5.400   6.778   1.735 -0.4041 -0.6154 -0.6979
   14CHTO    H3 5867   5.476   6.762   1.683 -0.1349 -0.4514 -0.3603
   14CHTO    C9 5868   5.322   6.823   1.975  0.5649 -0.1305 -0.1489
   14CHTO   H22 5869   5.343   6.779   2.073 -0.0526 -0.9665 -0.3864
   14CHTO    N2 5870   5.181   6.779   1.953  0.7049 -0.3993 -0.6280
   14CHTO   H10 5871   5.190   6.673   1.932  0.5806 -0.3456 -0.9541
   14CHTO   H11 5872   5.143   6.811   1.857  1.2471  0.2582 -0.6265
   14CHTO    C7 5873   5.336   6.986   1.997  0.1386 -0.3620 -0.2565
   14CHTO   H20 5874   5.349   7.005   2.105  1.5817 -1.2814 -0.2526
   14CHTO    O4 5875   5.452   7.032   1.923 -0.6229  0.7014  0.1366
   14CHTO   C14 5876   5.572   6.956   1.962 -0.0307 -0.0871  0.1221
   14CHTO   H27 5877   5.585   6.958   2.072  1.0026  1.4666 -0.0117
   14CHTO   C18 5878   5.688   7.040   1.903  0.4053  0.3877  0.4357
   14CHTO   O13 5879   5.747   7.118   2.003 -0.1314 -0.7439  0.0991
   14CHTO    H7 5880   5.826   7.156   1.970  0.2084  0.4515  2.1885
   14CHTO    O2 5881   5.193   7.075   1.939  0.2300  0.2250 -0.1581
   14CHTO    C1 5882   5.180   7.214   1.982  0.4328 -0.1682 -0.6035
   14CHTO   H14 5883   5.093   7.248   1.922  0.8031 -0.5194 -1.3430
   14CHTO    C2 5884   5.308   7.303   1.951 -0.4688 -0.2099  0.3397
   14CHTO   H15 5885   5.388   7.260   2.014 -1.7123 -0.1916  1.9621
   14CHTO    O6 5886   5.354   7.296   1.813  0.0431 -0.5004 -0.0513
   14CHTO    H1 5887   5.430   7.349   1.796  1.5554 -2.8346 -0.7656
   14CHTO    C3 5888   5.278   7.454   2.004  0.6061 -0.0227 -0.8421
   14CHTO   H16 5889   5.193   7.486   1.942 -0.1229  0.7067  0.4900
   14CHTO    N1 5890   5.401   7.545   1.978 -0.4352  0.7325 -0.2042
   14CHTO    H8 5891   5.370   7.610   1.898  1.1403 -0.0404 -1.4722
   14CHTO    H9 5892   5.450   7.605   2.054  0.3824  1.5853 -1.3865
   14CHTO    C4 5893   5.216   7.461   2.155 -0.1392  0.1778  0.1593
   14CHTO   H17 5894   5.299   7.443   2.224  0.0309 -0.4344 -0.2044
   14CHTO    O1 5895   5.115   7.369   2.177  0.0681  0.1746  0.1142
   14CHTO    C5 5896   5.147   7.235   2.131 -0.2665 -0.1305 -0.1623
   14CHTO   H18 5897   5.227   7.195   2.193 -0.3172  0.5370  0.3427
   14CHTO   C16 5898   5.020   7.157   2.167 -0.4612 -0.2073  0.3192
   14CHTO   O11 5899   4.989   7.172   2.309  0.4186  0.2029  0.0486
   14CHTO    H5 5900   5.063   7.152   2.364  2.7329 -0.5746 -3.1859
   14CHTO    O3 5901   5.148   7.588   2.196 -0.0993  0.1295  0.6288
   14CHTO    C6 5902   5.153   7.632   2.340  0.1661 -0.5531  0.0022
   14CHTO   H19 5903   5.189   7.562   2.416  1.1717 -1.7202 -1.5084
   14CHTO    C8 5904   5.239   7.755   2.351  0.3381  0.3796 -0.3764
   14CHTO   H21 5905   5.196   7.836   2.292 -0.9523  1.4394  1.9416
   14CHTO    O7 5906   5.372   7.721   2.305  0.8048 -0.4638 -0.1119
   14CHTO    H2 5907   5.438   7.771   2.348  0.9452 -0.1738 -0.6608
   14CHTO   C12 5908   5.237   7.795   2.507  0.2907 -0.1261 -0.2635
   14CHTO   H25 5909   5.277   7.713   2.570 -1.1447 -0.5592  0.1044
   14CHTO    N3 5910   5.314   7.913   2.547 -0.2812 -0.0081 -0.1137
   14CHTO   H12 5911   5.371   7.934   2.458  0.5093 -0.1306  0.3583
   14CHTO   H13 5912   5.251   7.999   2.567 -0.3686  0.0229 -0.5149
   14CHTO   C15 5913   5.081   7.816   2.546 -0.2250 -0.1346 -0.7843
   14CHTO   H28 5914   5.043   7.898   2.485 -0.2894 -0.1020 -0.7007
   14CHTO   O10 5915   5.058   7.852   2.700  0.1380 -0.4229 -0.5119
   14CHTO    H4 5916   5.036   7.943   2.711  1.2183  0.0730 -2.2252
   14CHTO    O5 5917   4.996   7.700   2.517 -0.0566 -0.2079 -0.1575
   14CHTO   C10 5918   5.006   7.657   2.379  0.5687 -0.6067  0.4292
   14CHTO   H23 5919   4.963   7.732   2.312  2.6491 -0.4237 -0.7238
   14CHTO   C17 5920   4.918   7.537   2.363 -0.3082  0.2873 -0.1649
   14CHTO   O12 5921   4.878   7.517   2.225 -0.4938 -0.4417 -0.2933
   14CHTO    H6 5922   4.952   7.522   2.167  0.0495 -0.6797  0.3645
   15CHTO  H203 5923   7.772   4.714   2.070 -1.3028 -1.9560 -1.0556
   15CHTO   O82 5924   7.713   4.764   2.018  0.3559  0.4325 -0.7189
   15CHTO  C123 5925   7.669   4.691   1.904  0.2543 -0.4463 -0.1492
   15CHTO  H227 5926   7.594   4.617   1.935  0.0619 -1.0400 -2.0031
   15CHTO   O77 5927   7.596   4.797   1.832 -0.6340 -0.2031  0.3839
   15CHTO  C118 5928   7.513   4.745   1.730 -0.2464  0.1495 -0.2043
   15CHTO  H222 5929   7.446   4.662   1.757  1.4798 -0.5176  2.2110
   15CHTO  C125 5930   7.429   4.864   1.671 -0.2327 -0.0878 -0.0458
   15CHTO   O84 5931   7.302   4.891   1.734 -0.5532  0.2363 -0.0138
   15CHTO  H205 5932   7.254   4.810   1.733  1.1149 -0.7936  1.4288
   15CHTO  C114 5933   7.607   4.687   1.621 -0.1353 -0.3090 -0.0985
   15CHTO  H218 5934   7.666   4.771   1.582  0.1789  0.7102  2.4676
   15CHTO  C116 5935   7.706   4.578   1.680  0.0834 -0.2069 -0.1385
   15CHTO  H220 5936   7.657   4.483   1.710 -0.3336 -1.1381 -3.6668
   15CHTO   O79 5937   7.794   4.531   1.579  0.2764 -0.2157 -0.0698
   15CHTO  H201 5938   7.822   4.446   1.606  1.0094  0.2786  0.7115
   15CHTO  C120 5939   7.776   4.631   1.815  0.3137 -0.0710 -0.4887
   15CHTO  H224 5940   7.857   4.699   1.783 -0.5234  0.7467 -0.8856
   15CHTO   N21 5941   7.844   4.521   1.880 -0.6360  0.6268  0.5208
   15CHTO  H211 5942   7.889   4.462   1.802  1.5247  1.5621  1.0278
   15CHTO  H212 5943   7.775   4.465   1.942 -0.5799  0.6923  0.6435
   15CHTO   O75 5944   7.526   4.644   1.510  0.8438 -0.3774  0.1086
   15CHTO  C112 5945   7.458   4.497   1.538 -0.8108  0.0877 -0.3583
   15CHTO  H216 5946   7.432   4.490   1.644  1.3064  0.2219  0.2078
   15CHTO   O73 5947   7.554   4.395   1.501 -0.3277  0.1462  0.4390
   15CHTO  C113 5948   7.516   4.256   1.511  0.0742 -0.2652  0.2611
   15CHTO  H217 5949   7.490   4.244   1.618  0.8696 -2.7429  0.2031
   15CHTO  C124 5950   7.640   4.171   1.479 -0.4026 -0.4335 -0.0820
   15CHTO   O83 5951   7.749   4.201   1.574  0.3039  0.4443  0.3886
   15CHTO  H204 5952   7.776   4.291   1.575  0.3895  0.4266 -0.6754
   15CHTO  C109 5953   7.392   4.243   1.414 -0.0751 -0.0473  0.4787
   15CHTO  H213 5954   7.435   4.258   1.314  0.0781  0.6574  0.6454
   15CHTO  C110 5955   7.272   4.343   1.436 -0.2441  0.0372  0.0756
   15CHTO  H214 5956   7.220   4.321   1.529 -1.5967  3.3715  0.1758
   15CHTO   O78 5957   7.188   4.332   1.324 -0.1867 -0.1615 -0.1627
   15CHTO  H200 5958   7.124   4.266   1.342  0.6971 -1.3948 -1.4392
   15CHTO  C111 5959   7.330   4.485   1.445  0.6665  0.5380 -0.5155
   15CHTO  H215 5960   7.361   4.515   1.344 -1.1318  0.2233 -1.1786
   15CHTO   N19 5961   7.224   4.593   1.485 -0.7902  0.1569  0.3379
   15CHTO  H207 5962   7.193   4.566   1.585  1.5399 -3.1063  0.2425
   15CHTO  H208 5963   7.144   4.611   1.415 -0.2987 -0.1631 -0.3071
   15CHTO   O74 5964   7.344   4.107   1.423 -0.2849 -0.2969  0.0363
   15CHTO  C115 5965   7.306   4.049   1.301  0.6907 -0.1376 -0.2177
   15CHTO  H219 5966   7.257   4.123   1.238  0.5131  0.7581  0.9437
   15CHTO   O76 5967   7.432   3.993   1.220  0.4343 -0.3411 -0.3636
   15CHTO  C122 5968   7.489   3.881   1.289  0.1967 -0.4105  0.7222
   15CHTO  H226 5969   7.547   3.924   1.370  2.8671 -1.4655 -0.5616
   15CHTO  C126 5970   7.590   3.820   1.188  0.4351 -0.5656 -0.2655
   15CHTO   O85 5971   7.706   3.914   1.185  0.4431  0.1136  0.4298
   15CHTO  H206 5972   7.683   3.989   1.133  1.2681  0.9999  1.3209
   15CHTO  C121 5973   7.393   3.765   1.356  0.1897 -0.0448 -0.1940
   15CHTO  H225 5974   7.428   3.663   1.330  2.6166  0.8690 -0.5864
   15CHTO   O81 5975   7.399   3.778   1.502 -0.6527 -0.4655 -0.0312
   15CHTO  H202 5976   7.447   3.708   1.541  1.3415  0.8464 -0.0642
   15CHTO  C119 5977   7.251   3.787   1.304  0.3538 -0.0097  1.0988
   15CHTO  H223 5978   7.252   3.763   1.198  2.0701 -2.6899  1.6781
   15CHTO  C117 5979   7.198   3.939   1.336  0.1040  1.0266 -0.0005
   15CHTO  H221 5980   7.169   3.962   1.438 -0.9220 -0.5252  0.0766
   15CHTO   N20 5981   7.072   3.960   1.256 -1.0083  0.4517  0.2872
   15CHTO  H209 5982   7.086   4.004   1.159 -1.5854  0.9690  0.4406
   15CHTO  H210 5983   7.005   4.025   1.310 -0.9234  1.1071 -0.3992
   15CHTO   O80 5984   7.137   3.671   1.364  0.0128  0.4007 -0.1821
   15CHTO  C103 5985   7.066   3.567   1.267 -0.1460 -0.0927  0.6645
   15CHTO  H190 5986   7.001   3.500   1.323 -0.9751 -1.5861 -1.9599
   15CHTO  C101 5987   6.965   3.630   1.160  0.9235 -0.1807  0.0639
   15CHTO  H188 5988   7.018   3.708   1.106  0.1724  2.2297  2.7104
   15CHTO   O68 5989   6.849   3.707   1.234  0.1712  0.6100 -0.0915
   15CHTO  H168 5990   6.768   3.713   1.186  0.6010 -0.1854 -0.9357
   15CHTO   C99 5991   6.914   3.511   1.069 -0.2047  0.1607  0.2937
   15CHTO  H186 5992   6.841   3.456   1.132  0.2208  0.8643  1.4272
   15CHTO   N17 5993   6.834   3.564   0.953  0.2707 -0.4201  0.6220
   15CHTO  H174 5994   6.769   3.496   0.899  0.3767 -1.8959  2.3130
   15CHTO  H175 5995   6.905   3.599   0.880 -0.9294  1.6551  0.4046
   15CHTO   C97 5996   7.018   3.406   1.035 -0.3996  0.1841  0.6645
   15CHTO  H184 5997   7.070   3.448   0.947 -2.2494  2.2551  0.5007
   15CHTO   O64 5998   7.110   3.368   1.143  0.1566  0.6725 -0.2908
   15CHTO  C104 5999   7.175   3.473   1.212 -0.6248 -0.1462 -0.5127
   15CHTO  H191 6000   7.243   3.538   1.157 -1.1175  2.4928  1.9180
   15CHTO  C108 6001   7.262   3.413   1.326 -0.6348  0.4023 -0.0552
   15CHTO   O71 6002   7.358   3.320   1.279  0.2745  0.3474 -0.3420
   15CHTO  H171 6003   7.400   3.291   1.358 -3.9889  0.6835  2.1807
   15CHTO   O62 6004   6.948   3.279   1.001  0.2610 -0.6962 -1.0737
   15CHTO   C91 6005   6.951   3.232   0.863 -0.6081 -0.0997  0.3823
   15CHTO  H178 6006   6.994   3.311   0.800 -0.2032  1.8151  2.9705
   15CHTO   C92 6007   6.801   3.224   0.817 -1.0693  0.2881  0.0506
   15CHTO  H179 6008   6.748   3.312   0.857 -1.0001  0.0525  0.6623
   15CHTO   O66 6009   6.793   3.217   0.676 -0.0589 -0.0029 -0.0691
   15CHTO  H166 6010   6.709   3.215   0.635 -0.5172  0.9392  0.7973
   15CHTO   C93 6011   6.739   3.095   0.877 -0.1734  0.4683 -0.2135
   15CHTO  H180 6012   6.649   3.076   0.818  1.4308 -0.0014 -2.6016
   15CHTO   N16 6013   6.686   3.122   1.017  0.0093 -0.3357  0.1195
   15CHTO  H172 6014   6.775   3.135   1.077 -0.7636 -0.0511  1.2200
   15CHTO  H173 6015   6.623   3.210   1.017 -0.2299 -0.5067  0.0940
   15CHTO   C94 6016   6.833   2.966   0.873  0.4647  0.3227 -0.3657
   15CHTO  H181 6017   6.863   2.936   0.973  1.3534  0.4186 -0.6015
   15CHTO   O61 6018   6.951   2.998   0.797 -0.2232 -0.0118  0.3565
   15CHTO   C95 6019   7.033   3.097   0.858  0.5179  0.0623  0.3867
   15CHTO  H182 6020   7.054   3.070   0.962  4.4568 -0.0239 -0.3869
   15CHTO  C106 6021   7.154   3.117   0.769  0.2444 -0.3073  0.5226
   15CHTO   O69 6022   7.236   3.002   0.755  0.4868  0.5387  0.2324
   15CHTO  H169 6023   7.329   3.012   0.745  0.3055  2.2464  0.1351
   15CHTO   O63 6024   6.761   2.857   0.805  0.3794  0.3532 -0.3288
   15CHTO   C96 6025   6.785   2.718   0.856 -0.3853 -0.2978  0.4642
   15CHTO  H183 6026   6.814   2.724   0.961 -1.7794  1.2688  0.7823
   15CHTO   C98 6027   6.901   2.649   0.780  0.0842  0.5655 -0.7948
   15CHTO  H185 6028   6.884   2.651   0.672 -0.7783 -0.6674 -0.6856
   15CHTO   O67 6029   7.024   2.722   0.811  0.2842  0.0477  0.4888
   15CHTO  H167 6030   7.093   2.707   0.750  0.5796 -0.3926  0.9239
   15CHTO  C102 6031   6.909   2.494   0.833 -0.6090  0.6774  0.0473
   15CHTO  H189 6032   6.926   2.500   0.942 -0.9811 -1.9194  0.2731
   15CHTO   N18 6033   7.009   2.398   0.784 -0.0663  0.4138 -0.1135
   15CHTO  H176 6034   6.992   2.376   0.679 -1.8126 -2.2315  0.6839
   15CHTO  H177 6035   7.107   2.443   0.797  0.7978 -1.6098  0.6566
   15CHTO  C105 6036   6.766   2.427   0.809 -0.6530 -0.7675 -0.0134
   15CHTO  H192 6037   6.740   2.438   0.704 -2.3948 -0.2844  0.4475
   15CHTO   O65 6038   6.666   2.501   0.885 -0.3631  0.2087 -0.2744
   15CHTO  C100 6039   6.644   2.639   0.857  0.5605 -0.4207  0.0694
   15CHTO  H187 6040   6.596   2.647   0.759  0.0959 -1.0312  0.2476
   15CHTO  C107 6041   6.550   2.697   0.964 -0.0931  0.0961 -0.3631
   15CHTO   O70 6042   6.408   2.672   0.928  0.2945  0.0199 -0.1649
   15CHTO  H170 6043   6.365   2.594   0.956  2.7969 -1.7964 -1.1776
   15CHTO   O57 6044   6.757   2.269   0.840  0.1821  0.4424  0.2663
   15CHTO   C85 6045   6.776   2.217   0.970  0.1538  0.0796 -0.6696
   15CHTO  H157 6046   6.796   2.304   1.036 -1.9815  2.8566 -3.5161
   15CHTO   C83 6047   6.898   2.120   0.973  0.5168  0.2558  0.0490
   15CHTO  H155 6048   6.985   2.184   0.960  0.8371 -0.3276 -0.7156
   15CHTO   O56 6049   6.888   2.025   0.864  0.6053  0.0675 -0.1513
   15CHTO  H135 6050   6.976   2.003   0.837  0.5232  0.4277 -0.7257
   15CHTO   C81 6051   6.917   2.053   1.115  0.8284 -0.1304  0.9081
   15CHTO  H153 6052   6.934   2.136   1.184 -2.2043 -0.1387  1.7414
   15CHTO   N14 6053   7.026   1.962   1.136  0.0272 -0.8076 -0.0435
   15CHTO  H141 6054   6.983   1.863   1.140 -0.8922 -0.4689 -1.1234
   15CHTO  H142 6055   7.102   1.973   1.062  1.5992  0.5369  1.7339
   15CHTO   C79 6056   6.783   1.984   1.164  0.1863 -0.1712 -0.1967
   15CHTO  H151 6057   6.796   1.951   1.267  2.6641 -1.9814 -1.0412
   15CHTO   O52 6058   6.668   2.077   1.158 -0.1353  0.3037  0.2245
   15CHTO   C86 6059   6.654   2.131   1.023 -0.1794  0.4117  0.2431
   15CHTO  H158 6060   6.632   2.046   0.956  2.6198 -2.7260  3.1000
   15CHTO   C90 6061   6.525   2.221   1.024  0.0707 -0.1955  0.2649
   15CHTO   O60 6062   6.538   2.335   1.114 -0.0244  0.3676  0.1190
   15CHTO  H138 6063   6.467   2.340   1.176  1.3923  0.3772  1.7659
   15CHTO   O50 6064   6.737   1.875   1.092  0.7620 -0.0233 -0.2997
   15CHTO   C73 6065   6.646   1.770   1.058 -0.3764 -0.1236  0.0055
   15CHTO  H145 6066   6.555   1.810   1.009  0.1626 -1.0390 -1.7889
   15CHTO   C74 6067   6.606   1.702   1.188 -0.2381 -0.4208 -0.1707
   15CHTO  H146 6068   6.567   1.779   1.256 -1.9906  0.5605 -2.2343
   15CHTO   O54 6069   6.508   1.607   1.155  0.2971  0.5033 -0.0141
   15CHTO  H133 6070   6.420   1.634   1.172  0.9430  2.2354  0.6890
   15CHTO   C75 6071   6.736   1.628   1.254 -0.2403  0.2690  0.9933
   15CHTO  H147 6072   6.810   1.705   1.278  1.0432 -0.9559  1.0240
   15CHTO   N13 6073   6.701   1.552   1.379  0.1718 -0.0040  0.0556
   15CHTO  H139 6074   6.781   1.547   1.452  0.5893 -0.1727 -0.4142
   15CHTO  H140 6075   6.677   1.448   1.362 -1.0361  0.0780  1.1761
   15CHTO   C76 6076   6.801   1.542   1.140  0.1733  0.5146  0.0848
   15CHTO  H148 6077   6.729   1.464   1.117 -0.8206  1.0205  1.4485
   15CHTO   O49 6078   6.827   1.611   1.013  0.1172 -0.0222 -0.0133
   15CHTO   C77 6079   6.715   1.672   0.953 -0.8588 -0.1158  0.0066
   15CHTO  H149 6080   6.645   1.594   0.924  0.7591 -2.4378  2.0983
   15CHTO   C88 6081   6.749   1.745   0.822  0.0634 -0.1380 -0.1158
   15CHTO   O58 6082   6.627   1.818   0.756  0.5024 -0.2315  0.0884
   15CHTO  H136 6083   6.547   1.769   0.760 -1.3359  2.6646  0.3964
   15CHTO   O51 6084   6.940   1.492   1.188 -0.0604  0.4989 -0.2643
   15CHTO   C78 6085   7.004   1.376   1.114 -0.0642 -0.0553  0.2642
   15CHTO  H150 6086   6.963   1.370   1.011 -2.4847 -0.8197  1.2444
   15CHTO   C80 6087   6.967   1.244   1.187  0.2480  0.1333 -0.4382
   15CHTO  H152 6088   6.997   1.246   1.294  1.2632 -1.5646 -0.6785
   15CHTO   O55 6089   6.828   1.234   1.193 -0.0355 -0.0596  0.6182
   15CHTO  H134 6090   6.789   1.239   1.108 -2.0553  0.6531  1.5639
   15CHTO   C84 6091   7.040   1.124   1.113  0.2131 -1.0306  0.2693
   15CHTO  H156 6092   6.988   1.093   1.022  1.0070 -2.6132  0.3403
   15CHTO   N15 6093   7.025   1.002   1.196 -0.2077  0.4083 -0.1898
   15CHTO  H143 6094   7.066   0.916   1.148  2.7353  1.4435  0.3739
   15CHTO  H144 6095   6.922   0.983   1.219  0.5037 -4.0913 -0.2218
   15CHTO   C87 6096   7.188   1.151   1.090 -0.5453  0.1243 -0.3789
   15CHTO  H159 6097   7.249   1.133   1.178 -1.7271  2.2617  0.9295
   15CHTO   O53 6098   7.210   1.290   1.033  0.1473  0.6170 -0.2259
   15CHTO   C82 6099   7.154   1.400   1.104 -0.0520  0.1899 -0.1376
   15CHTO  H154 6100   7.186   1.410   1.207 -2.5911 -1.4884  0.8714
   15CHTO   C89 6101   7.194   1.533   1.027 -0.2053  0.5602 -0.3989
   15CHTO   O59 6102   7.147   1.529   0.896  0.9748  0.0977 -0.4563
   15CHTO  H137 6103   7.214   1.497   0.838  0.2299 -2.3558 -0.0370
   15CHTO   O45 6104   7.247   1.040   0.982 -0.2669 -0.1085 -0.6955
   15CHTO   C67 6105   7.387   1.041   0.953 -0.5495  0.4979  0.4744
   15CHTO  H124 6106   7.419   1.132   1.002 -1.6425  0.5454  1.1261
   15CHTO   C65 6107   7.458   0.913   1.012  0.3644  0.1510 -0.2515
   15CHTO  H122 6108   7.390   0.830   0.992  0.3228 -0.1083  0.9404
   15CHTO   O44 6109   7.460   0.934   1.153 -0.0682  0.0063 -0.0685
   15CHTO  H102 6110   7.472   0.850   1.192  0.2317  1.9347  4.2528
   15CHTO   C63 6111   7.586   0.873   0.936 -0.0388  0.2599  0.0697
   15CHTO  H120 6112   7.557   0.802   0.858  0.5310 -0.8649  0.8649
   15CHTO   N11 6113   7.691   0.791   1.023 -0.7774 -0.0329 -0.3012
   15CHTO  H108 6114   7.742   0.849   1.097  1.3087  0.9935 -2.4577
   15CHTO  H109 6115   7.772   0.748   0.968 -0.7812  1.3770 -1.4366
   15CHTO   C61 6116   7.653   0.987   0.867  0.3722 -0.5339 -0.2775
   15CHTO  H118 6117   7.740   0.948   0.813  1.4447  0.5852  0.6120
   15CHTO   O40 6118   7.560   1.048   0.769  0.0181  0.1581  0.5821
   15CHTO   C68 6119   7.420   1.063   0.797  0.4587  0.4955 -1.0533
   15CHTO  H125 6120   7.365   0.996   0.727 -1.4473  0.2320  0.6585
   15CHTO   C72 6121   7.381   1.204   0.752 -0.1095 -0.2548  0.3312
   15CHTO   O48 6122   7.239   1.214   0.726 -0.7617  0.5158 -1.0585
   15CHTO  H105 6123   7.189   1.223   0.806  1.8899  2.2152  0.4877
   15CHTO   O38 6124   7.702   1.083   0.969  0.2021 -0.7946  0.2851
   15CHTO   C55 6125   7.716   1.223   0.938 -0.0664  0.1540  0.2210
   15CHTO  H112 6126   7.622   1.260   0.896 -0.0896 -1.0833 -0.8543
   15CHTO   C56 6127   7.842   1.247   0.842  0.0460 -0.7586 -0.7263
   15CHTO  H113 6128   7.923   1.184   0.881 -1.8384 -2.8230 -0.0054
   15CHTO   O42 6129   7.816   1.186   0.714  0.5352 -0.0464 -0.4433
   15CHTO  H100 6130   7.889   1.205   0.657  0.4689  0.7312 -0.2595
   15CHTO   C57 6131   7.872   1.404   0.835  0.2698 -0.9340  0.0869
   15CHTO  H114 6132   7.780   1.448   0.796  0.2771 -1.3335 -0.3805
   15CHTO   N10 6133   7.991   1.442   0.757  0.0634  0.0202  0.4777
   15CHTO  H106 6134   8.027   1.535   0.798  1.6122 -0.6440  0.6521
   15CHTO  H107 6135   7.963   1.457   0.654  0.9541  0.4495  0.2986
   15CHTO   C58 6136   7.889   1.452   0.981  0.6589 -0.3250  0.2520
   15CHTO  H115 6137   7.974   1.398   1.028  0.0213  0.1234  1.9951
   15CHTO   O37 6138   7.765   1.433   1.055 -0.0244  0.2583  0.0853
   15CHTO   C59 6139   7.724   1.296   1.071 -0.2215  0.1597  0.4803
   15CHTO  H116 6140   7.790   1.239   1.136  2.9051  2.4515 -0.5202
   15CHTO   C70 6141   7.583   1.304   1.138 -0.0717 -0.5082  0.2689
   15CHTO   O46 6142   7.587   1.366   1.268 -0.3858 -0.3124  0.5297
   15CHTO  H103 6143   7.636   1.307   1.322  0.2856  2.3475  2.9238
   15CHTO   O39 6144   7.914   1.616   0.986 -0.0138  0.5142 -0.6783
   15CHTO   C60 6145   7.834   1.711   0.913 -0.1918 -0.5618  0.2039
   15CHTO  H117 6146   7.831   1.704   0.804 -0.8887  0.6023  0.1266
   15CHTO   C62 6147   7.680   1.710   0.958 -0.0718  0.5873  0.2366
   15CHTO  H119 6148   7.653   1.610   0.917  1.2132  0.4703 -0.3684
   15CHTO   O43 6149   7.669   1.728   1.099 -0.0389 -0.0636 -0.3516
   15CHTO  H101 6150   7.591   1.760   1.141  0.0546  0.1592 -0.3486
   15CHTO   C66 6151   7.599   1.819   0.872 -0.2575 -0.8215 -0.3564
   15CHTO  H123 6152   7.615   1.801   0.766  4.9663  1.8844 -0.1956
   15CHTO   N12 6153   7.452   1.835   0.897  0.1952 -0.2634 -0.0874
   15CHTO  H110 6154   7.405   1.782   0.815  0.5305 -0.9799  0.1704
   15CHTO  H111 6155   7.417   1.936   0.902 -0.9042 -0.6240 -0.4252
   15CHTO   C69 6156   7.669   1.959   0.899  0.6452 -0.5501  0.1021
   15CHTO  H126 6157   7.666   1.985   1.007 -0.3495  0.1885 -0.0989
   15CHTO   O41 6158   7.816   1.951   0.868  0.4555  0.0154 -0.4151
   15CHTO   C64 6159   7.891   1.851   0.934 -0.7819  0.0975 -0.3582
   15CHTO  H121 6160   7.891   1.867   1.044  0.0032 -1.0549 -0.1814
   15CHTO   C71 6161   8.037   1.867   0.894  0.1625  0.0470  0.1114
   15CHTO   O47 6162   8.082   2.002   0.913 -0.7569  0.2650 -0.1596
   15CHTO  H104 6163   8.167   2.018   0.875 -0.2814 -0.6393  0.4933
   15CHTO   O34 6164   7.612   2.079   0.817 -0.3250 -0.1927  0.0080
   15CHTO   C49 6165   7.585   2.126   0.682 -0.6089 -0.5152  0.4779
   15CHTO   H91 6166   7.528   2.047   0.634 -0.2013 -0.3710 -0.2599
   15CHTO   C47 6167   7.720   2.159   0.616  0.6586  0.3319  0.8147
   15CHTO   H89 6168   7.688   2.197   0.517  0.7021 -1.0606  0.2549
   15CHTO   O33 6169   7.802   2.044   0.600 -0.5653 -0.3543  0.1794
   15CHTO   H70 6170   7.756   1.986   0.542 -3.8155  1.3014  0.9664
   15CHTO   C45 6171   7.780   2.286   0.698 -0.9397  1.1756 -0.1217
   15CHTO   H87 6172   7.776   2.268   0.806  3.1998  2.0685  0.2900
   15CHTO    N8 6173   7.924   2.313   0.665 -0.8205 -0.3855 -0.1996
   15CHTO   H75 6174   7.978   2.222   0.685 -0.9761 -0.7455 -1.4063
   15CHTO   H76 6175   7.931   2.336   0.560 -0.0995 -0.2209 -0.1197
   15CHTO   C43 6176   7.688   2.416   0.685  0.0018 -0.0239 -0.5998
   15CHTO   H85 6177   7.727   2.504   0.738  2.4661  0.2304 -2.7532
   15CHTO   O29 6178   7.550   2.383   0.730 -0.0722 -0.1223  0.0710
   15CHTO   C50 6179   7.494   2.254   0.687  0.4058 -0.6853  0.0179
   15CHTO   H92 6180   7.412   2.227   0.755 -1.8890 -1.4369 -2.9794
   15CHTO   C54 6181   7.410   2.270   0.560  0.2689 -0.3087  0.4822
   15CHTO   O36 6182   7.289   2.351   0.586  0.2058 -0.0600 -0.4797
   15CHTO   H72 6183   7.250   2.362   0.502 -0.5437 -0.5387 -0.2000
   15CHTO   O27 6184   7.681   2.455   0.546 -0.6418 -0.2333 -0.2891
   15CHTO   C37 6185   7.624   2.551   0.458  0.2963  0.4915  0.1287
   15CHTO   H79 6186   7.554   2.498   0.391  2.7748 -1.8725 -0.6893
   15CHTO   C38 6187   7.546   2.659   0.522 -0.5618  0.0607  0.5490
   15CHTO   H80 6188   7.615   2.719   0.584  0.0808 -1.3326  1.1886
   15CHTO   O31 6189   7.442   2.604   0.600  0.2273 -0.4573 -0.4256
   15CHTO   H68 6190   7.371   2.665   0.613  1.2821  0.4212  1.3372
   15CHTO   C39 6191   7.476   2.755   0.417  0.6265 -0.7902 -0.0633
   15CHTO   H81 6192   7.398   2.704   0.361 -1.1451  1.5613  0.1885
   15CHTO    N7 6193   7.395   2.870   0.486  0.0904  0.1831 -0.0256
   15CHTO   H73 6194   7.430   2.960   0.438 -2.1219  1.0285 -0.1253
   15CHTO   H74 6195   7.290   2.846   0.481 -0.7655  2.6969  3.3832
   15CHTO   C40 6196   7.586   2.810   0.313 -0.6393  0.8349 -0.3193
   15CHTO   H82 6197   7.642   2.893   0.354 -0.4058 -0.4589  2.0760
   15CHTO   O26 6198   7.674   2.701   0.264 -0.1093  0.2364  0.2084
   15CHTO   C41 6199   7.736   2.629   0.374  0.3278  0.6352 -0.4065
   15CHTO   H83 6200   7.794   2.687   0.447 -1.0795 -0.7508  1.8865
   15CHTO   C52 6201   7.826   2.533   0.312  0.4197 -0.1508  0.3348
   15CHTO   O35 6202   7.928   2.587   0.239 -0.8067  0.1389 -0.3276
   15CHTO   H71 6203   7.987   2.524   0.202 -0.1479 -0.1372  1.1720
   15CHTO   O28 6204   7.522   2.847   0.191  0.0763 -1.0901  0.3947
   15CHTO   C42 6205   7.520   2.981   0.132  0.0637  0.1996 -0.3992
   15CHTO   H84 6206   7.491   2.961   0.028 -0.0953 -0.6870 -0.1830
   15CHTO   C44 6207   7.657   3.057   0.131  0.0914 -0.3712 -0.4436
   15CHTO   H86 6208   7.690   3.069   0.234 -0.8222  3.2594 -0.5037
   15CHTO   O32 6209   7.753   2.971   0.073  0.0726  0.0191  0.5966
   15CHTO   H69 6210   7.838   3.013   0.070  0.4986 -0.7135  1.9049
   15CHTO   C48 6211   7.652   3.208   0.070 -1.2546 -0.4684 -0.7330
   15CHTO   H90 6212   7.642   3.200  -0.038  0.0380  2.4056 -1.0993
   15CHTO    N9 6213   7.776   3.282   0.089  0.2410 -0.1344  0.7309
   15CHTO   H77 6214   7.770   3.379   0.041  0.7160 -0.2193  0.4980
   15CHTO   H78 6215   7.850   3.226   0.034  0.2919  2.1654 -1.6743
   15CHTO   C51 6216   7.519   3.289   0.110  0.1622  0.7070  1.0310
   15CHTO   H93 6217   7.523   3.334   0.209  2.1358  0.9600  0.8643
   15CHTO   O30 6218   7.402   3.216   0.093 -0.1247  0.1321 -0.1224
   15CHTO   C46 6219   7.411   3.081   0.188  0.4168 -0.0480  0.1692
   15CHTO   H88 6220   7.440   3.117   0.286  2.3272  0.3307 -0.5017
   15CHTO   C53 6221   7.269   3.025   0.194 -0.1516  0.1156 -0.1252
   15CHTO   O72 6222   7.184   3.129   0.238  0.3891  0.1844 -0.2893
   15CHTO  H199 6223   7.225   3.160   0.317 -1.4029 -0.7182  1.0500
   15CHTO   O22 6224   7.505   3.398   0.017 -0.1192  0.0828  0.5907
   15CHTO   C31 6225   7.431   3.522   0.045  0.1929 -0.2497  0.2473
   15CHTO   H59 6226   7.421   3.575  -0.051  0.5600  0.0537  0.3779
   15CHTO   C29 6227   7.285   3.518   0.101 -0.0097  0.2872 -0.0510
   15CHTO   H57 6228   7.289   3.460   0.194 -1.9752 -0.9882 -0.7422
   15CHTO   O21 6229   7.213   3.436   0.003  0.2197 -0.5103 -0.3938
   15CHTO   H37 6230   7.212   3.488  -0.075  1.0046 -1.5108 -1.0853
   15CHTO   C27 6231   7.219   3.660   0.124  0.2036 -0.1258  0.6064
   15CHTO   H55 6232   7.210   3.707   0.025 -0.5336  0.3611  0.8982
   15CHTO    N5 6233   7.084   3.648   0.185  0.0253 -0.1555 -0.0271
   15CHTO   H43 6234   7.005   3.707   0.141 -0.0103  0.3877  0.7493
   15CHTO   H44 6235   7.041   3.549   0.186  0.5953 -0.3980  0.7300
   15CHTO   C25 6236   7.316   3.752   0.203 -0.6802  0.1855  0.2147
   15CHTO   H53 6237   7.331   3.718   0.306  1.6195  0.5767  0.0392
   15CHTO   O17 6238   7.447   3.753   0.134 -0.0674  0.2739 -0.3844
   15CHTO   C32 6239   7.515   3.632   0.133 -0.4888 -0.4244  0.4415
   15CHTO   H60 6240   7.532   3.597   0.235  1.4598  0.1202  0.3238
   15CHTO   C36 6241   7.650   3.661   0.069 -0.1491 -0.4662 -0.1129
   15CHTO   O25 6242   7.735   3.733   0.165 -0.0060  0.6780  0.2405
   15CHTO   H40 6243   7.741   3.675   0.239 -1.5399  0.2911  0.0748
   15CHTO   O15 6244   7.260   3.890   0.209 -0.1559 -0.6075 -0.8221
   15CHTO   C19 6245   7.318   4.022   0.242  0.4427 -0.0490 -0.7829
   15CHTO   H47 6246   7.421   4.018   0.204  1.3481 -0.1128  1.5602
   15CHTO   C20 6247   7.239   4.135   0.176  0.1868  0.4985 -0.2653
   15CHTO   H48 6248   7.134   4.137   0.210 -0.3392 -0.3066 -1.7833
   15CHTO   O19 6249   7.240   4.111   0.035 -0.6907  0.2858 -0.2771
   15CHTO   H35 6250   7.324   4.078   0.008 -1.3536 -1.6840 -0.0363
   15CHTO   C21 6251   7.303   4.275   0.209 -0.0729  0.2951  0.3927
   15CHTO   H49 6252   7.403   4.277   0.165 -0.4548 -2.3137 -0.6728
   15CHTO    N4 6253   7.224   4.397   0.164 -0.0986 -0.5065 -0.6945
   15CHTO   H41 6254   7.241   4.483   0.227 -1.1388 -1.2757  0.6840
   15CHTO   H42 6255   7.120   4.379   0.144 -0.5932  0.0883  1.1688
   15CHTO   C22 6256   7.323   4.282   0.362  0.0539  0.1012 -0.1633
   15CHTO   H50 6257   7.229   4.301   0.414 -1.2679  0.0362 -2.4441
   15CHTO   O14 6258   7.393   4.170   0.415  0.5752 -0.1548  0.2736
   15CHTO   C23 6259   7.332   4.048   0.396  0.5994 -0.9221  0.2500
   15CHTO   H51 6260   7.238   4.046   0.452  0.5366  0.4550  0.2127
   15CHTO   C34 6261   7.413   3.935   0.465  0.0127 -0.4618  0.1416
   15CHTO   O23 6262   7.461   3.967   0.595  0.0585 -0.0985 -0.3038
   15CHTO   H38 6263   7.388   3.980   0.652 -0.0082  3.3398 -1.1096
   15CHTO   O16 6264   7.410   4.393   0.392 -0.2728 -0.5509  0.4332
   15CHTO   C24 6265   7.444   4.396   0.565  0.2517  0.0251  0.4008
   15CHTO   H52 6266   7.440   4.296   0.609 -0.2010  0.4819  1.3938
   15CHTO   C26 6267   7.336   4.491   0.627  0.1375  0.1448  0.6686
   15CHTO   H54 6268   7.349   4.594   0.589 -1.4744 -0.3854 -1.4232
   15CHTO   O20 6269   7.199   4.459   0.591 -0.0618  0.0796  0.6039
   15CHTO   H36 6270   7.156   4.527   0.542  1.1587  0.3162 -0.1641
   15CHTO   C30 6271   7.364   4.520   0.778  0.1845 -0.6723 -0.5667
   15CHTO   H58 6272   7.337   4.427   0.830 -0.4009 -0.5863 -0.7137
   15CHTO    N6 6273   7.277   4.624   0.837 -0.2690  0.2655  0.4386
   15CHTO   H45 6274   7.201   4.659   0.769 -0.2531 -1.1046 -0.3064
   15CHTO   H46 6275   7.229   4.583   0.925  1.4790 -0.5998  1.0101
   15CHTO   C33 6276   7.514   4.542   0.804  0.3685  0.0306 -0.1603
   15CHTO   H61 6277   7.542   4.639   0.761  1.6617  0.7451  2.2254
   15CHTO   O18 6278   7.588   4.439   0.738  0.2568  0.1728 -0.0653
   15CHTO   C28 6279   7.580   4.449   0.596  0.1027 -0.0108  0.2299
   15CHTO   H56 6280   7.582   4.553   0.564 -1.1128 -0.4437 -1.3153
   15CHTO   C35 6281   7.700   4.377   0.522  0.1795 -0.8632 -0.8143
   15CHTO   O24 6282   7.825   4.444   0.553 -0.2799 -0.1554 -0.1336
   15CHTO   H39 6283   7.894   4.389   0.520  0.3556  0.7540 -0.3447
   15CHTO    O9 6284   7.546   4.551   0.941  0.1596 -0.0093 -0.0018
   15CHTO   C13 6285   7.692   4.630   0.977  0.1240 -0.2485  0.3679
   15CHTO   H26 6286   7.684   4.740   0.963  0.6648  0.3376  4.2007
   15CHTO   C11 6287   7.808   4.573   0.885 -0.1294  0.2549 -1.2372
   15CHTO   H24 6288   7.785   4.594   0.780 -2.0778 -0.4924 -0.9780
   15CHTO    O8 6289   7.825   4.431   0.896  0.7222 -0.1439 -0.4011
   15CHTO    H3 6290   7.866   4.394   0.820  1.3900 -1.5419  0.6279
   15CHTO    C9 6291   7.928   4.649   0.944 -0.0641  0.3257  0.5188
   15CHTO   H22 6292   7.895   4.753   0.959 -0.7037  0.2898 -0.6037
   15CHTO    N2 6293   8.034   4.660   0.839 -0.1283  0.0644  0.4061
   15CHTO   H10 6294   8.020   4.575   0.774 -2.6495 -0.2874  1.3501
   15CHTO   H11 6295   8.134   4.663   0.881  0.6897  0.2522 -1.4876
   15CHTO    C7 6296   7.971   4.586   1.079  0.3098  0.2001  0.0895
   15CHTO   H20 6297   8.046   4.663   1.107  0.7592  1.2250 -3.7065
   15CHTO    O4 6298   7.861   4.590   1.174 -0.5876  0.2220 -0.0660
   15CHTO   C14 6299   7.726   4.610   1.134 -0.3665  0.4403  0.3961
   15CHTO   H27 6300   7.692   4.708   1.174 -0.9623 -0.8329  3.1125
   15CHTO   C18 6301   7.636   4.500   1.198 -0.8588 -0.5831 -0.4316
   15CHTO   O13 6302   7.654   4.376   1.124  0.4610 -0.2580  0.1936
   15CHTO    H7 6303   7.733   4.331   1.145  0.4921 -0.4456 -0.3202
   15CHTO    O2 6304   8.027   4.442   1.068 -0.1346  0.1529 -0.3592
   15CHTO    C1 6305   8.095   4.401   1.189  0.1953 -0.6587  0.6339
   15CHTO   H14 6306   8.058   4.463   1.274 -0.3384  1.6173 -1.2186
   15CHTO    C2 6307   8.250   4.431   1.182  0.0244  0.6480 -0.2298
   15CHTO   H15 6308   8.285   4.384   1.088  0.4062  0.7779 -0.1530
   15CHTO    O6 6309   8.271   4.573   1.174 -0.1689  0.0347  0.3528
   15CHTO    H1 6310   8.349   4.583   1.123  1.2832 -1.6660  2.1569
   15CHTO    C3 6311   8.340   4.365   1.301  0.2255 -0.6096  0.2620
   15CHTO   H16 6312   8.339   4.420   1.396 -0.7353 -1.1493  0.5726
   15CHTO    N1 6313   8.490   4.358   1.268  0.5214 -0.4311  0.1090
   15CHTO    H8 6314   8.558   4.377   1.349 -0.8858  0.8144  1.0079
   15CHTO    H9 6315   8.506   4.425   1.185 -2.2058 -1.0350 -0.9454
   15CHTO    C4 6316   8.286   4.223   1.341  0.4748 -0.2412 -0.5743
   15CHTO   H17 6317   8.325   4.149   1.270  1.1985  1.6529 -2.2086
   15CHTO    O1 6318   8.141   4.223   1.336 -0.3192  0.1532 -0.5544
   15CHTO    C5 6319   8.078   4.251   1.215 -0.2623  0.3364  0.6016
   15CHTO   H18 6320   8.134   4.185   1.149 -0.0780  0.1509  0.9422
   15CHTO   C16 6321   7.933   4.199   1.230  0.7232 -0.0126  0.1730
   15CHTO   O11 6322   7.921   4.055   1.223  0.8924  0.6743  0.1821
   15CHTO    H5 6323   7.952   4.016   1.302  0.8791 -0.8891 -0.5559
   15CHTO    O3 6324   8.312   4.204   1.478  0.2139  0.5398  0.1226
   15CHTO    C6 6325   8.370   4.073   1.519  0.1630  0.1831  0.3981
   15CHTO   H19 6326   8.356   3.998   1.441  1.9525  1.3212 -1.0874
   15CHTO    C8 6327   8.521   4.073   1.543 -0.3930 -0.6299  0.2251
   15CHTO   H21 6328   8.552   4.167   1.590 -0.0514 -0.8203  0.3865
   15CHTO    O7 6329   8.588   4.066   1.414  0.3495  0.0911 -0.1212
   15CHTO    H2 6330   8.597   4.152   1.377 -1.0402 -0.1565 -1.0676
   15CHTO   C12 6331   8.584   3.958   1.638  0.0708 -0.4981  0.0838
   15CHTO   H25 6332   8.614   3.876   1.570  3.7283  1.7608 -1.1769
   15CHTO    N3 6333   8.717   3.988   1.694 -0.0373  0.9611 -0.4742
   15CHTO   H12 6334   8.733   3.924   1.780 -1.9091 -0.6528 -1.2904
   15CHTO   H13 6335   8.708   4.092   1.721 -0.2519  0.6598  0.6656
   15CHTO   C15 6336   8.479   3.904   1.742 -0.2255 -0.1034  0.2680
   15CHTO   H28 6337   8.486   3.965   1.832  0.7438  0.4293 -0.1629
   15CHTO   O10 6338   8.518   3.775   1.777 -0.2480  0.0334 -0.3614
   15CHTO    H4 6339   8.610   3.778   1.794 -0.7062 -0.0925  2.3957
   15CHTO    O5 6340   8.349   3.892   1.689  0.2637  0.0873 -0.1888
   15CHTO   C10 6341   8.299   4.021   1.646  0.0845 -0.8858  0.2382
   15CHTO   H23 6342   8.318   4.094   1.724  0.1752  2.3378 -2.6913
   15CHTO   C17 6343   8.146   4.001   1.629  0.0604 -1.2042  0.0523
   15CHTO   O12 6344   8.070   4.125   1.630  0.0883  0.8313 -0.6665
   15CHTO    H6 6345   7.987   4.124   1.673 -0.0158 -1.7956 -0.8447
   16CHTO  H203 6346   6.462   4.539   0.237  0.9094  0.6765 -1.5385
   16CHTO   O82 6347   6.510   4.459   0.248 -0.0913  0.2347 -0.2235
   16CHTO  C123 6348   6.626   4.467   0.325 -0.4472 -0.5140 -0.3781
   16CHTO  H227 6349   6.654   4.573   0.338 -1.6305 -0.0696 -1.3256
   16CHTO   O77 6350   6.570   4.416   0.454 -0.1226  0.0412 -0.1245
   16CHTO  C118 6351   6.668   4.400   0.560  0.0489  0.3835  0.6606
   16CHTO  H222 6352   6.728   4.492   0.571  1.0685  0.0073 -1.5025
   16CHTO  C125 6353   6.587   4.367   0.692  0.2477 -0.0788  0.5933
   16CHTO   O84 6354   6.510   4.240   0.676  0.7876 -0.5900 -0.0458
   16CHTO  H205 6355   6.439   4.230   0.737  1.2325 -0.1856  0.5412
   16CHTO  C114 6356   6.763   4.285   0.523 -0.2327 -0.4081 -0.2515
   16CHTO  H218 6357   6.711   4.197   0.484  0.0941  0.0453 -1.7624
   16CHTO  C116 6358   6.839   4.326   0.391 -0.9190 -0.1660 -0.0450
   16CHTO  H220 6359   6.913   4.404   0.418  0.5376 -1.0865 -1.2749
   16CHTO   O79 6360   6.913   4.216   0.347  0.3599 -0.4142 -0.6272
   16CHTO  H201 6361   6.965   4.234   0.271  0.0247  1.4039 -0.4444
   16CHTO  C120 6362   6.748   4.377   0.271  0.3844  0.3827 -0.2162
   16CHTO  H224 6363   6.702   4.285   0.229  1.2427 -0.4862  0.7467
   16CHTO   N21 6364   6.823   4.447   0.160 -0.3732 -0.2033  0.8395
   16CHTO  H211 6365   6.918   4.403   0.131 -0.7919  0.4166 -1.6353
   16CHTO  H212 6366   6.840   4.550   0.188 -0.9332 -0.1216  0.8812
   16CHTO   O75 6367   6.855   4.271   0.631  0.0349  0.2364  0.5938
   16CHTO  C112 6368   6.939   4.156   0.626  0.9559  0.1100 -0.8659
   16CHTO  H216 6369   7.021   4.188   0.560  0.7643  1.7781 -0.3098
   16CHTO   O73 6370   6.867   4.042   0.573  0.3919  0.2962  0.0937
   16CHTO  C113 6371   6.950   3.930   0.555  0.2652 -0.3161 -0.7010
   16CHTO  H217 6372   7.010   3.960   0.467 -1.2715  2.0358 -0.9896
   16CHTO  C124 6373   6.858   3.822   0.512  0.0499  0.4816 -0.3003
   16CHTO   O83 6374   6.779   3.857   0.402  0.5598 -0.1524  0.4398
   16CHTO  H204 6375   6.828   3.897   0.333  0.2345  1.6310  1.2152
   16CHTO  C109 6376   7.017   3.883   0.681  0.6804  0.1609 -0.4252
   16CHTO  H213 6377   6.939   3.833   0.741  0.3923  0.3673 -0.6276
   16CHTO  C110 6378   7.088   4.004   0.757 -0.3105  0.6878 -0.0157
   16CHTO  H214 6379   7.168   4.038   0.690 -1.3016  0.0599 -1.5526
   16CHTO   O78 6380   7.159   3.958   0.875  0.1413 -0.2828 -0.3153
   16CHTO  H200 6381   7.250   3.975   0.865 -0.1522  2.0170  0.6866
   16CHTO  C111 6382   6.999   4.125   0.772  0.1994 -0.6228 -0.4067
   16CHTO  H215 6383   6.915   4.096   0.835  0.5178  1.7979  1.1795
   16CHTO   N19 6384   7.058   4.247   0.841  0.0140  0.2449  0.5559
   16CHTO  H207 6385   7.115   4.305   0.769 -1.1480  0.2138 -0.3984
   16CHTO  H208 6386   6.993   4.300   0.909  0.8993  0.0833  1.5412
   16CHTO   O74 6387   7.130   3.790   0.643  0.3951  0.2522 -0.4503
   16CHTO  C115 6388   7.140   3.678   0.719 -0.0955 -0.7785  0.1540
   16CHTO  H219 6389   7.090   3.692   0.815 -0.5859 -1.0639 -0.0515
   16CHTO   O76 6390   7.070   3.557   0.643  0.0578 -0.0664 -0.1926
   16CHTO  C122 6391   7.143   3.516   0.529 -0.4532  0.5590  0.3679
   16CHTO  H226 6392   7.133   3.596   0.456 -1.0111  2.4193  2.4543
   16CHTO  C126 6393   7.073   3.385   0.475 -0.0578  0.2263 -0.0177
   16CHTO   O85 6394   6.936   3.406   0.439  0.7512  0.6343  0.2433
   16CHTO  H206 6395   6.903   3.334   0.389  1.7913  0.7960 -0.6850
   16CHTO  C121 6396   7.295   3.486   0.562 -0.4147  0.2123 -0.8972
   16CHTO  H225 6397   7.321   3.382   0.532  1.0325  0.1281  0.5680
   16CHTO   O81 6398   7.381   3.559   0.473 -0.3608  0.4411 -0.1264
   16CHTO  H202 6399   7.468   3.562   0.509  0.1759 -0.4007 -1.3208
   16CHTO  C119 6400   7.322   3.508   0.713  0.6332  0.3517  0.0938
   16CHTO  H223 6401   7.257   3.444   0.772 -0.9086  0.6066 -1.2977
   16CHTO  C117 6402   7.298   3.657   0.746 -0.6035  0.1316 -0.1030
   16CHTO  H221 6403   7.356   3.717   0.677 -1.2055  1.2455  0.3413
   16CHTO   N20 6404   7.345   3.687   0.885 -0.5712 -0.0094 -0.8197
   16CHTO  H209 6405   7.452   3.701   0.875 -0.6321 -1.0208 -3.3373
   16CHTO  H210 6406   7.338   3.595   0.942 -0.2661  1.1222  1.0570
   16CHTO   O80 6407   7.481   3.449   0.755 -0.1184  0.1174  0.2561
   16CHTO  C103 6408   7.523   3.293   0.718 -0.1901 -0.2199 -0.6886
   16CHTO  H190 6409   7.437   3.230   0.696 -0.4283  0.1532 -0.8390
   16CHTO  C101 6410   7.634   3.280   0.611 -0.0899 -0.8066 -0.5470
   16CHTO  H188 6411   7.717   3.347   0.635  0.2588 -1.4685  0.0971
   16CHTO   O68 6412   7.573   3.326   0.485 -0.7365  0.1284 -0.1930
   16CHTO  H168 6413   7.479   3.336   0.491 -0.7139 -0.1122  0.7225
   16CHTO   C99 6414   7.689   3.124   0.602  0.1088  0.4497  0.3812
   16CHTO  H186 6415   7.613   3.061   0.550  1.7557  0.9284 -2.6696
   16CHTO   N17 6416   7.814   3.118   0.518  0.5692  0.0386 -0.2634
   16CHTO  H174 6417   7.834   3.013   0.503  2.4309  0.1785  1.0819
   16CHTO  H175 6418   7.805   3.177   0.429 -1.4969  0.0474 -0.0916
   16CHTO   C97 6419   7.708   3.058   0.738  0.4505 -0.3042 -0.0953
   16CHTO  H184 6420   7.805   3.088   0.782 -1.1852  1.1124  2.7371
   16CHTO   O64 6421   7.603   3.093   0.823 -0.8113 -0.4749  0.3021
   16CHTO  C104 6422   7.590   3.232   0.849 -0.8561  0.2991 -0.2024
   16CHTO  H191 6423   7.688   3.278   0.861  0.1265 -0.8744 -3.2224
   16CHTO  C108 6424   7.510   3.256   0.975  0.4901  0.3767  0.5029
   16CHTO   O71 6425   7.584   3.213   1.088 -0.2393  0.1903  0.0847
   16CHTO  H171 6426   7.523   3.170   1.145 -1.7509  1.0096 -0.8887
   16CHTO   O62 6427   7.707   2.910   0.725  0.2880 -0.3607 -0.0428
   16CHTO   C91 6428   7.731   2.843   0.852 -0.4554  0.6441 -0.5077
   16CHTO  H178 6429   7.753   2.915   0.931  0.0408 -0.7522  0.6457
   16CHTO   C92 6430   7.861   2.751   0.846 -1.3239 -0.9279 -0.0106
   16CHTO  H179 6431   7.841   2.666   0.779  3.0022 -1.1137 -1.1941
   16CHTO   O66 6432   7.977   2.816   0.799  0.3227 -0.1342  0.7665
   16CHTO  H166 6433   7.982   2.903   0.834 -0.4771 -0.1518  0.9351
   16CHTO   C93 6434   7.894   2.686   0.982 -0.2531  0.8514 -0.2493
   16CHTO  H180 6435   7.904   2.768   1.056  0.7808  1.2565 -0.8293
   16CHTO   N16 6436   8.025   2.608   0.984  0.1768  0.2070  0.3623
   16CHTO  H172 6437   8.095   2.663   1.045  0.6042 -1.2377  1.1999
   16CHTO  H173 6438   8.051   2.561   0.890 -0.0800  0.0689  0.3599
   16CHTO   C94 6439   7.771   2.600   1.026  0.0457 -0.1195 -0.2286
   16CHTO  H181 6440   7.747   2.526   0.949 -0.4784  1.0115 -1.1687
   16CHTO   O61 6441   7.650   2.678   1.021  0.2723  1.0025  0.2732
   16CHTO   C95 6442   7.610   2.748   0.908 -0.6624  0.3080 -0.2143
   16CHTO  H182 6443   7.564   2.679   0.837 -1.5112 -1.0843  1.6668
   16CHTO  C106 6444   7.493   2.835   0.952  0.2755  0.0688  0.5633
   16CHTO   O69 6445   7.523   2.917   1.069 -0.1447 -0.4006 -0.4075
   16CHTO  H169 6446   7.466   2.989   1.085  1.5600  0.7944  0.3877
   16CHTO   O63 6447   7.781   2.532   1.179 -0.3947  0.2618 -0.7545
   16CHTO   C96 6448   7.641   2.468   1.232 -0.1766 -1.0452 -0.1543
   16CHTO  H183 6449   7.660   2.394   1.310 -0.5356 -0.8323  0.1411
   16CHTO   C98 6450   7.548   2.406   1.121 -0.6073 -0.2109  0.0785
   16CHTO  H185 6451   7.549   2.476   1.036 -0.9530  1.2000  1.2147
   16CHTO   O67 6452   7.605   2.285   1.072 -0.4442 -0.5628 -0.2662
   16CHTO  H167 6453   7.693   2.260   1.093 -0.4498  0.6937  1.3987
   16CHTO  C102 6454   7.391   2.391   1.165  0.6077 -0.0686  0.5608
   16CHTO  H189 6455   7.390   2.327   1.255  0.3959 -0.5705  0.2075
   16CHTO   N18 6456   7.298   2.327   1.066  0.1144  0.8520  0.1298
   16CHTO  H176 6457   7.341   2.321   0.967  0.3522 -1.0680  0.3479
   16CHTO  H177 6458   7.276   2.226   1.095  1.0246  0.1429 -1.5932
   16CHTO  C105 6459   7.351   2.531   1.206 -0.2571 -0.6717  0.7626
   16CHTO  H192 6460   7.378   2.600   1.126 -0.2787 -0.0724  1.2682
   16CHTO   O65 6461   7.427   2.562   1.327  0.5773 -0.0067 -0.2124
   16CHTO  C100 6462   7.563   2.579   1.311 -0.2450  0.6829  0.0022
   16CHTO  H187 6463   7.582   2.681   1.275  1.6938  1.6266  3.4739
   16CHTO  C107 6464   7.617   2.586   1.459  0.3706  0.4393  0.3923
   16CHTO   O70 6465   7.577   2.709   1.520 -0.7884  0.7053  0.4378
   16CHTO  H170 6466   7.582   2.682   1.610  1.5412 -2.6654 -0.5749
   16CHTO   O57 6467   7.179   2.534   1.252 -0.0775 -0.6227  0.4841
   16CHTO   C85 6468   7.104   2.651   1.213  1.1089  0.2555 -0.3673
   16CHTO  H157 6469   7.102   2.641   1.102 -0.8397  0.4655 -0.3756
   16CHTO   C83 6470   7.178   2.778   1.250  0.0770  0.1632  0.1697
   16CHTO  H155 6471   7.274   2.774   1.199 -0.0900  2.2899 -0.3369
   16CHTO   O56 6472   7.208   2.780   1.393 -0.0534  0.2356 -0.2263
   16CHTO  H135 6473   7.162   2.855   1.426 -1.5424  0.3941 -2.5181
   16CHTO   C81 6474   7.103   2.903   1.191  0.4736  0.5788 -0.0118
   16CHTO  H153 6475   7.096   2.891   1.082  1.0222 -2.8253  0.2624
   16CHTO   N14 6476   7.178   3.028   1.211 -0.0838  0.0630  0.4350
   16CHTO  H141 6477   7.113   3.098   1.258 -0.9161 -1.2743  1.2994
   16CHTO  H142 6478   7.217   3.071   1.120 -2.4385  0.5365 -0.3715
   16CHTO   C79 6479   6.960   2.907   1.258 -0.1288  0.0658 -0.4844
   16CHTO  H151 6480   6.903   2.985   1.208 -0.0033  0.6121  0.2323
   16CHTO   O52 6481   6.884   2.787   1.244  0.4965  0.0951  0.5208
   16CHTO   C86 6482   6.958   2.663   1.271  0.0311  0.7256 -0.6941
   16CHTO  H158 6483   6.960   2.666   1.382  2.3769  2.9526 -0.7412
   16CHTO   C90 6484   6.862   2.548   1.226 -0.2320  0.2582  0.0862
   16CHTO   O60 6485   6.744   2.544   1.304  0.3372 -0.0963  0.4870
   16CHTO  H138 6486   6.703   2.460   1.295  2.4932 -1.0824 -0.5261
   16CHTO   O50 6487   6.961   2.960   1.397 -0.4780 -0.3922 -0.2792
   16CHTO   C73 6488   6.897   2.950   1.523 -0.8627 -0.1309 -0.3630
   16CHTO  H145 6489   6.923   2.863   1.584 -2.4066 -0.8253 -0.6698
   16CHTO   C74 6490   6.741   2.943   1.509  0.2257  0.5745  0.3274
   16CHTO  H146 6491   6.725   2.856   1.443 -0.7760  2.6591 -2.2419
   16CHTO   O54 6492   6.684   2.922   1.636  0.1895  0.2614  0.0319
   16CHTO  H133 6493   6.594   2.952   1.637  0.4369  1.0156  0.7647
   16CHTO   C75 6494   6.692   3.075   1.434  0.3403 -0.2725 -0.2986
   16CHTO  H147 6495   6.753   3.080   1.343 -0.3723 -2.4202 -0.9081
   16CHTO   N13 6496   6.547   3.080   1.403  0.3725  0.0821 -0.9123
   16CHTO  H139 6497   6.527   2.988   1.351  1.6321 -0.3838 -0.5813
   16CHTO  H140 6498   6.529   3.167   1.341  0.1363  0.2283 -0.6438
   16CHTO   C76 6499   6.743   3.199   1.522 -0.5126  0.6810  0.6719
   16CHTO  H148 6500   6.701   3.190   1.621 -2.0031  0.6468  0.0460
   16CHTO   O49 6501   6.889   3.195   1.525  0.0573  0.1197  0.6470
   16CHTO   C77 6502   6.937   3.077   1.593 -0.1411  0.2210  0.1772
   16CHTO  H149 6503   6.900   3.073   1.696 -0.9912  0.3935 -0.1210
   16CHTO   C88 6504   7.092   3.072   1.605 -0.3723 -0.6267  0.1301
   16CHTO   O58 6505   7.153   3.187   1.645 -0.2113  0.6078 -0.3264
   16CHTO  H136 6506   7.229   3.191   1.590  0.7531 -0.5354  0.8904
   16CHTO   O51 6507   6.728   3.348   1.442 -0.7048 -0.3179 -0.5341
   16CHTO   C78 6508   6.671   3.482   1.541 -0.0028  1.1128 -0.6985
   16CHTO  H150 6509   6.609   3.442   1.624 -0.2732  0.7020 -1.0969
   16CHTO   C80 6510   6.585   3.573   1.453 -0.3574  0.4837 -0.7357
   16CHTO  H152 6511   6.651   3.607   1.370 -0.8778 -0.4670 -1.5492
   16CHTO   O55 6512   6.486   3.483   1.399 -0.0026 -0.3487 -0.3429
   16CHTO  H134 6513   6.436   3.439   1.465  0.1250 -0.3270 -0.2316
   16CHTO   C84 6514   6.530   3.698   1.531  0.1024  0.4871 -1.0023
   16CHTO  H156 6515   6.477   3.641   1.608 -0.3531  0.5815 -1.2416
   16CHTO   N15 6516   6.433   3.785   1.452  0.5576 -0.2387 -0.0084
   16CHTO  H143 6517   6.470   3.864   1.390 -0.5728  1.9486  2.0203
   16CHTO  H144 6518   6.371   3.719   1.395 -1.7335  1.3873  0.5327
   16CHTO   C87 6519   6.654   3.776   1.580  0.4887  0.2295 -0.9064
   16CHTO  H159 6520   6.717   3.804   1.495 -1.2410 -2.2362 -3.1097
   16CHTO   O53 6521   6.736   3.686   1.677  0.1638 -0.0715  0.0206
   16CHTO   C82 6522   6.785   3.568   1.613  0.2180 -0.2091 -0.4663
   16CHTO  H154 6523   6.858   3.598   1.537  1.7903  0.4689  1.2799
   16CHTO   C89 6524   6.861   3.481   1.709  0.3962  0.4675  0.0774
   16CHTO   O59 6525   6.798   3.445   1.834  0.0225 -0.4515  0.0837
   16CHTO  H137 6526   6.767   3.359   1.816  0.0423 -0.9916  2.5081
   16CHTO   O45 6527   6.628   3.911   1.672 -0.0029  0.0491 -0.2741
   16CHTO   C67 6528   6.750   3.983   1.696  0.1460  0.1330  0.2529
   16CHTO  H124 6529   6.832   3.912   1.694  1.0951  1.1627  1.2569
   16CHTO   C65 6530   6.780   4.099   1.600 -0.4173  0.5616 -0.0359
   16CHTO  H122 6531   6.683   4.137   1.568 -0.9328  2.2794  3.3573
   16CHTO   O44 6532   6.853   4.033   1.494 -0.2377  0.2232 -0.0354
   16CHTO  H102 6533   6.816   4.054   1.411 -0.2714 -2.1750 -0.6865
   16CHTO   C63 6534   6.849   4.227   1.665  0.4577  0.3347 -0.7011
   16CHTO  H120 6535   6.776   4.288   1.718  0.4704 -0.6756  0.5027
   16CHTO   N11 6536   6.893   4.326   1.561  0.2434  0.3645  0.0115
   16CHTO  H108 6537   6.822   4.405   1.562 -1.4597 -1.1370  0.0263
   16CHTO  H109 6538   6.991   4.361   1.587  0.0132 -0.4259  2.0791
   16CHTO   C61 6539   6.951   4.174   1.763  0.1559 -0.7241  0.2577
   16CHTO  H118 6540   6.983   4.261   1.821 -0.6787 -0.1657 -0.1102
   16CHTO   O40 6541   6.885   4.090   1.858 -0.6194  0.1462 -0.2531
   16CHTO   C68 6542   6.758   4.035   1.837  0.3501  0.3405 -0.3707
   16CHTO  H125 6543   6.676   4.108   1.849 -0.8544 -1.1748  0.8793
   16CHTO   C72 6544   6.742   3.928   1.937  0.0551  0.1733 -0.5040
   16CHTO   O48 6545   6.820   3.811   1.925  0.0962  0.1232 -0.0445
   16CHTO  H105 6546   6.908   3.808   1.956 -0.4593 -1.3826  1.4645
   16CHTO   O38 6547   7.053   4.084   1.703 -0.6857 -0.3898  0.4521
   16CHTO   C55 6548   7.153   4.028   1.787 -0.4062  0.4202 -0.6459
   16CHTO  H112 6549   7.100   3.997   1.878  0.7570 -2.6497 -0.9506
   16CHTO   C56 6550   7.277   4.123   1.823  0.0944 -0.4256 -0.0098
   16CHTO  H113 6551   7.304   4.164   1.725 -0.4806 -3.4776 -1.4962
   16CHTO   O42 6552   7.237   4.231   1.913  0.5726 -0.1695  0.2114
   16CHTO  H100 6553   7.227   4.196   1.999 -1.0412  0.5744  0.3513
   16CHTO   C57 6554   7.407   4.056   1.884  0.1943  0.2923  0.3613
   16CHTO  H114 6555   7.391   4.039   1.991  1.0704  0.0089  0.4517
   16CHTO   N10 6556   7.531   4.137   1.879  0.5261  0.1306 -0.1868
   16CHTO  H106 6557   7.544   4.192   1.787  0.5424 -0.5925 -0.6215
   16CHTO  H107 6558   7.528   4.206   1.961  2.9161 -2.1692  1.9187
   16CHTO   C58 6559   7.434   3.922   1.811  0.5513 -0.0000 -0.0598
   16CHTO  H115 6560   7.458   3.942   1.705 -1.2061 -3.1347 -1.1205
   16CHTO   O37 6561   7.313   3.846   1.811  0.5495  0.0974  0.1526
   16CHTO   C59 6562   7.208   3.895   1.726 -0.6368 -0.2398 -0.2556
   16CHTO  H116 6563   7.252   3.925   1.631  1.3366  1.2697  1.1005
   16CHTO   C70 6564   7.105   3.786   1.710  0.1235  0.4749  0.6734
   16CHTO   O46 6565   7.034   3.796   1.590 -0.0729 -0.1665 -0.1682
   16CHTO  H103 6566   6.956   3.743   1.591 -0.7305  0.7923  0.0744
   16CHTO   O39 6567   7.547   3.822   1.886 -0.2768  0.4386 -0.0951
   16CHTO   C60 6568   7.605   3.725   1.795  0.5296 -0.1958 -0.1093
   16CHTO  H117 6569   7.526   3.692   1.726  1.3018 -0.2804 -0.9601
   16CHTO   C62 6570   7.722   3.786   1.719  0.5611 -0.3021  0.2425
   16CHTO  H119 6571   7.680   3.879   1.676  0.9872 -0.3061 -0.1932
   16CHTO   O43 6572   7.832   3.824   1.802  0.5657  0.4455 -0.0061
   16CHTO  H101 6573   7.900   3.862   1.750  0.7967 -1.3301 -1.0570
   16CHTO   C66 6574   7.762   3.689   1.609  0.6535  0.1338  0.4667
   16CHTO  H123 6575   7.674   3.654   1.554  0.4649 -0.8738  1.3864
   16CHTO   N12 6576   7.843   3.757   1.507 -0.1011 -0.0368 -0.5374
   16CHTO  H110 6577   7.851   3.698   1.417 -0.5044  1.0641 -1.2997
   16CHTO  H111 6578   7.941   3.769   1.550  0.3803 -0.4869 -1.4871
   16CHTO   C69 6579   7.824   3.564   1.681  0.2835  0.0117  0.5960
   16CHTO  H126 6580   7.914   3.595   1.738  1.0220  1.9049 -1.5222
   16CHTO   O41 6581   7.723   3.497   1.777 -0.8053  0.2501 -0.2006
   16CHTO   C64 6582   7.647   3.596   1.870 -0.1615 -1.2171  0.5501
   16CHTO  H121 6583   7.708   3.620   1.959 -1.2965 -0.9540  1.2599
   16CHTO   C71 6584   7.513   3.538   1.918  0.1122 -0.0985 -0.3150
   16CHTO   O47 6585   7.430   3.465   1.830 -0.3452 -0.4072 -0.7554
   16CHTO  H104 6586   7.371   3.418   1.885 -0.0207  0.5097  0.3913
   16CHTO   O34 6587   7.858   3.454   1.566 -0.7862  0.3801  0.1668
   16CHTO   C49 6588   7.813   3.414   1.427  0.5005  0.4393  0.0992
   16CHTO   H91 6589   7.799   3.501   1.363  0.1948  0.3553  0.0512
   16CHTO   C47 6590   7.677   3.344   1.433  0.0208  0.0872  0.1271
   16CHTO   H89 6591   7.658   3.315   1.328 -2.3491  2.8216 -0.2495
   16CHTO   O33 6592   7.575   3.440   1.467  0.2037 -1.0284 -0.8680
   16CHTO   H70 6593   7.571   3.449   1.560  1.3237 -0.7195 -0.8388
   16CHTO   C45 6594   7.689   3.204   1.524 -0.6279  0.6493  0.9112
   16CHTO   H87 6595   7.663   3.225   1.628  0.2938  1.0078  1.0706
   16CHTO    N8 6596   7.586   3.110   1.468 -0.2065 -0.8044  0.2577
   16CHTO   H75 6597   7.587   3.121   1.360  0.7937 -1.1664  0.2280
   16CHTO   H76 6598   7.487   3.116   1.510 -0.2797  0.0651 -0.0327
   16CHTO   C43 6599   7.847   3.152   1.518  0.5635 -0.2235 -0.3994
   16CHTO   H85 6600   7.902   3.203   1.597 -0.3267 -2.4128  1.7314
   16CHTO   O29 6601   7.900   3.180   1.385  0.7173 -0.0728  0.6703
   16CHTO   C50 6602   7.921   3.320   1.363 -1.0711  0.1652 -0.1492
   16CHTO   H92 6603   8.018   3.354   1.402 -0.7545 -1.1244  0.2306
   16CHTO   C54 6604   7.936   3.342   1.211  0.5251  0.4044 -0.1932
   16CHTO   O36 6605   8.030   3.255   1.140 -0.0146 -0.0710 -0.0900
   16CHTO   H72 6606   8.032   3.164   1.165  2.9575 -0.4656 -1.4844
   16CHTO   O27 6607   7.864   3.010   1.549  0.4024  0.3607 -0.0168
   16CHTO   C37 6608   7.962   2.900   1.572 -0.2822  1.2277  0.3476
   16CHTO   H79 6609   8.067   2.933   1.562  0.2823 -0.9186 -1.3608
   16CHTO   C38 6610   7.960   2.825   1.709 -0.7399 -0.1693 -0.4446
   16CHTO   H80 6611   7.854   2.810   1.734 -0.3931 -2.4693 -0.2921
   16CHTO   O31 6612   8.005   2.919   1.810  0.2786 -0.0767  0.8148
   16CHTO   H68 6613   8.005   2.882   1.896 -1.2734  0.5807  1.1185
   16CHTO   C39 6614   8.048   2.691   1.715 -0.0284  0.2353 -0.1597
   16CHTO   H81 6615   8.151   2.726   1.706 -1.2196  3.9011 -0.2476
   16CHTO    N7 6616   8.035   2.618   1.847  0.9227  0.3137 -0.0197
   16CHTO   H73 6617   8.097   2.531   1.860  1.2202  0.3541 -1.1472
   16CHTO   H74 6618   8.037   2.690   1.927 -1.0871  0.7679 -0.3404
   16CHTO   C40 6619   8.018   2.606   1.585 -0.3870 -0.3275 -0.1047
   16CHTO   H82 6620   7.916   2.568   1.584 -0.2299 -0.8714  2.0448
   16CHTO   O26 6621   8.044   2.689   1.470  0.1456 -0.5217 -0.4380
   16CHTO   C41 6622   7.939   2.789   1.456 -0.4997  0.1029  0.4900
   16CHTO   H83 6623   7.838   2.747   1.464 -0.4087  0.0306  1.3077
   16CHTO   C52 6624   7.949   2.841   1.314  0.0179  0.1778 -0.0576
   16CHTO   O35 6625   7.817   2.898   1.267  0.0135  0.0979 -0.2522
   16CHTO   H71 6626   7.836   2.943   1.187  2.2232  0.3128  0.3689
   16CHTO   O28 6627   8.108   2.488   1.589 -0.1544 -0.2225 -0.5147
   16CHTO   C42 6628   8.074   2.354   1.524  0.4857  0.4195  0.4386
   16CHTO   H84 6629   8.172   2.306   1.524  1.4486  2.1586 -3.7666
   16CHTO   C44 6630   8.027   2.360   1.375 -0.2581 -0.1119 -0.1428
   16CHTO   H86 6631   7.948   2.435   1.369  1.7900  2.0626 -0.9066
   16CHTO   O32 6632   8.148   2.405   1.306  0.1770  0.8926  0.0868
   16CHTO   H69 6633   8.127   2.412   1.214 -0.3139  0.9132  0.1947
   16CHTO   C48 6634   7.975   2.221   1.320 -0.5556 -0.1666  0.0097
   16CHTO   H90 6635   8.066   2.162   1.309  0.3031  0.2711  3.7455
   16CHTO    N9 6636   7.921   2.221   1.178  0.0376 -0.0694 -0.2592
   16CHTO   H77 6637   7.990   2.169   1.114 -1.6740 -1.1312 -1.2833
   16CHTO   H78 6638   7.828   2.166   1.171 -0.7415  1.2584 -0.5323
   16CHTO   C51 6639   7.882   2.158   1.422  0.0759  0.2440  0.5403
   16CHTO   H93 6640   7.800   2.228   1.434  0.2615  0.5899 -0.1696
   16CHTO   O30 6641   7.958   2.136   1.549  0.4750 -0.1188 -0.1614
   16CHTO   C46 6642   7.980   2.265   1.613  0.2224 -0.1179 -0.0812
   16CHTO   H88 6643   7.883   2.307   1.639  0.5446 -0.0724  1.0916
   16CHTO   C53 6644   8.045   2.221   1.748 -0.3891  0.2616 -0.1508
   16CHTO   O72 6645   7.950   2.123   1.803 -0.6223 -0.2768  0.3257
   16CHTO  H199 6646   7.947   2.044   1.753  0.2849 -0.1607  0.0811
   16CHTO   O22 6647   7.836   2.026   1.390  0.0676  0.2109 -0.5115
   16CHTO   C31 6648   7.723   1.969   1.461 -0.5779  0.5364  0.7344
   16CHTO   H59 6649   7.726   2.005   1.567 -1.3800  3.0546 -0.0656
   16CHTO   C29 6650   7.589   2.014   1.402 -1.0662  0.2131  0.7971
   16CHTO   H57 6651   7.608   2.007   1.294  1.5980 -0.3423  1.2648
   16CHTO   O21 6652   7.579   2.150   1.432  0.1135  0.3574 -0.6079
   16CHTO   H37 6653   7.510   2.173   1.492 -0.2080  1.3139 -1.3354
   16CHTO   C27 6654   7.455   1.935   1.443  0.3963  0.2664  1.0536
   16CHTO   H55 6655   7.431   1.962   1.547  0.5907 -3.7744  2.2603
   16CHTO    N5 6656   7.336   1.961   1.355  0.0707  0.4708  0.5053
   16CHTO   H43 6657   7.277   1.873   1.373 -0.7422  1.0648  0.7881
   16CHTO   H44 6658   7.289   2.053   1.389 -2.2136 -0.9887  1.4413
   16CHTO   C25 6659   7.491   1.784   1.461 -0.3720 -0.5865 -0.3360
   16CHTO   H53 6660   7.501   1.735   1.363 -1.5956  0.0109 -0.7771
   16CHTO   O17 6661   7.607   1.775   1.545  0.0672 -0.4764 -0.4340
   16CHTO   C32 6662   7.723   1.812   1.468 -0.2418  0.7942  0.2459
   16CHTO   H60 6663   7.724   1.780   1.364  1.7998 -0.6583  0.6798
   16CHTO   C36 6664   7.855   1.766   1.542  0.1229  0.3925  0.6479
   16CHTO   O25 6665   7.977   1.777   1.463 -0.1944 -0.1228  0.0876
   16CHTO   H40 6666   8.033   1.846   1.492 -1.3463  0.8020  0.1421
   16CHTO   O15 6667   7.369   1.702   1.533 -0.2474  0.3123 -0.4326
   16CHTO   C19 6668   7.270   1.697   1.638 -0.5221 -0.6097 -0.3450
   16CHTO   H47 6669   7.262   1.587   1.644  0.2414 -0.6429  0.0630
   16CHTO   C20 6670   7.309   1.760   1.775 -0.5138  0.0836 -0.3121
   16CHTO   H48 6671   7.337   1.866   1.762  1.2413 -0.6567 -2.8754
   16CHTO   O19 6672   7.428   1.691   1.818  0.2312  0.2372 -0.1471
   16CHTO   H35 6673   7.413   1.603   1.848  2.5324  1.0395  3.6927
   16CHTO   C21 6674   7.196   1.758   1.883 -0.0219  0.1650  0.9042
   16CHTO   H49 6675   7.159   1.656   1.889 -0.3530  0.0688 -2.0838
   16CHTO    N4 6676   7.234   1.810   2.017  0.5515 -0.2643  0.1714
   16CHTO   H41 6677   7.145   1.826   2.074  0.4521  1.3400 -0.4214
   16CHTO   H42 6678   7.284   1.905   2.011 -0.5466  0.3087  0.0514
   16CHTO   C22 6679   7.076   1.819   1.822 -0.2391  0.9912 -0.7920
   16CHTO   H50 6680   7.104   1.922   1.802 -1.2791  1.4218 -0.0955
   16CHTO   O14 6681   7.035   1.754   1.702  0.2387  1.0018  0.1331
   16CHTO   C23 6682   7.131   1.760   1.598 -0.6268 -0.1472 -0.0512
   16CHTO   H51 6683   7.143   1.863   1.562 -3.0798 -0.4193 -1.7485
   16CHTO   C34 6684   7.068   1.680   1.476  0.2744 -0.1127 -0.8485
   16CHTO   O23 6685   7.141   1.690   1.355  0.3554 -0.1344  0.1505
   16CHTO   H38 6686   7.234   1.688   1.362  0.5387 -0.1663 -1.8998
   16CHTO   O16 6687   6.963   1.817   1.912  0.1335  0.4309  0.5057
   16CHTO   C24 6688   6.822   1.908   1.839 -0.4318 -0.4839  0.2757
   16CHTO   H52 6689   6.836   1.931   1.733  0.7353 -1.5935  0.1767
   16CHTO   C26 6690   6.818   2.040   1.923 -0.7190  0.5244 -0.5030
   16CHTO   H54 6691   6.827   2.005   2.028  1.5813  1.4735 -0.3443
   16CHTO   O20 6692   6.928   2.118   1.889  0.1519 -0.0724  0.1354
   16CHTO   H36 6693   7.002   2.094   1.941 -0.8485 -0.5336  1.3728
   16CHTO   C30 6694   6.685   2.114   1.920  0.1406 -0.5625  0.0291
   16CHTO   H58 6695   6.684   2.164   1.821 -1.3261 -3.4972 -1.5024
   16CHTO    N6 6696   6.679   2.203   2.042  0.1982 -0.0529 -0.2347
   16CHTO   H45 6697   6.680   2.142   2.131  3.1409 -0.4365 -0.4858
   16CHTO   H46 6698   6.584   2.252   2.032 -0.0399 -0.4486  0.0793
   16CHTO   C33 6699   6.561   2.020   1.909 -0.2110 -0.3126  0.0976
   16CHTO   H61 6700   6.541   1.968   2.004 -1.2125 -1.7433 -0.8848
   16CHTO   O18 6701   6.586   1.918   1.813  0.6399 -0.1880 -0.2379
   16CHTO   C28 6702   6.694   1.830   1.851  1.0231  0.0547  0.3059
   16CHTO   H56 6703   6.681   1.798   1.955  0.0597 -1.7040 -0.3265
   16CHTO   C35 6704   6.680   1.703   1.763 -0.4889  0.2506  0.5202
   16CHTO   O24 6705   6.559   1.629   1.788 -0.0227 -0.3882 -0.3929
   16CHTO   H39 6706   6.580   1.574   1.861  0.1505 -0.5830 -0.5933
   16CHTO    O9 6707   6.448   2.094   1.876  0.1131  0.3659 -0.9370
   16CHTO   C13 6708   6.309   2.051   1.954 -0.1075 -0.2367  0.2002
   16CHTO   H26 6709   6.331   2.046   2.062  0.2765 -1.8526  0.0584
   16CHTO   C11 6710   6.258   1.908   1.898  0.3135  0.3321  0.1898
   16CHTO   H24 6711   6.330   1.830   1.926  0.1678  0.0052 -0.3426
   16CHTO    O8 6712   6.230   1.908   1.752  0.0191 -0.2601 -0.5933
   16CHTO    H3 6713   6.151   1.953   1.729 -0.3066 -0.2645  0.4913
   16CHTO    C9 6714   6.126   1.880   1.974 -0.0212  0.1071  0.1359
   16CHTO   H22 6715   6.154   1.879   2.081  0.7724 -1.2758 -0.0795
   16CHTO    N2 6716   6.087   1.736   1.976  0.1543 -0.1536 -0.2782
   16CHTO   H10 6717   6.166   1.670   2.008  0.3761 -0.1085 -0.7275
   16CHTO   H11 6718   6.032   1.694   1.892  2.2696 -0.4995 -1.5225
   16CHTO    C7 6719   6.017   1.990   1.934 -0.3229 -0.2324  0.1118
   16CHTO   H20 6720   5.990   2.018   2.038  2.8300 -3.7698  1.9776
   16CHTO    O4 6721   6.079   2.114   1.884  0.3169  0.3615 -0.1413
   16CHTO   C14 6722   6.201   2.166   1.934  0.4490 -0.1842  0.2774
   16CHTO   H27 6723   6.176   2.221   2.027 -1.2937  1.9079 -1.3462
   16CHTO   C18 6724   6.234   2.263   1.830 -0.7337 -0.4301 -0.0793
   16CHTO   O13 6725   6.306   2.375   1.877  0.1186 -0.3930 -0.3207
   16CHTO    H7 6726   6.362   2.409   1.810 -2.6852  1.5392 -1.7770
   16CHTO    O2 6727   5.910   1.933   1.829 -0.9093  0.7659  0.1571
   16CHTO    C1 6728   5.776   1.981   1.842  0.3182  0.1861 -0.8851
   16CHTO   H14 6729   5.778   2.064   1.916  0.0761  0.2671 -0.9687
   16CHTO    C2 6730   5.674   1.875   1.880 -0.5137  0.3284  0.1548
   16CHTO   H15 6731   5.690   1.792   1.810 -0.8837  0.6553 -0.3242
   16CHTO    O6 6732   5.705   1.822   2.011 -0.3324  0.2737  0.1144
   16CHTO    H1 6733   5.765   1.751   2.018 -2.0219 -1.1336  0.5170
   16CHTO    C3 6734   5.523   1.938   1.852 -0.2341 -0.1738  0.2192
   16CHTO   H16 6735   5.494   2.031   1.904 -2.9155 -0.8768  0.0433
   16CHTO    N1 6736   5.418   1.834   1.895  0.1387  0.2413  0.0537
   16CHTO    H8 6737   5.323   1.886   1.897 -0.7710 -1.3041 -1.3777
   16CHTO    H9 6738   5.438   1.791   1.992  2.2516 -1.6291 -1.1716
   16CHTO    C4 6739   5.522   1.975   1.703 -0.4069  0.0289 -0.9885
   16CHTO   H17 6740   5.555   1.890   1.642 -1.4813 -0.1975 -1.2578
   16CHTO    O1 6741   5.608   2.089   1.681 -0.0244  0.0924 -0.4442
   16CHTO    C5 6742   5.743   2.049   1.702  0.4462 -0.5321 -0.0245
   16CHTO   H18 6743   5.767   1.973   1.628  1.0533 -2.8694  2.4929
   16CHTO   C16 6744   5.829   2.174   1.681  0.2050 -0.7514  0.4495
   16CHTO   O11 6745   5.829   2.218   1.549  0.0593  0.2668  0.4154
   16CHTO    H5 6746   5.864   2.153   1.491 -0.0824  2.1033 -1.8197
   16CHTO    O3 6747   5.394   2.030   1.660 -0.1594 -0.2105 -0.0186
   16CHTO    C6 6748   5.347   1.976   1.528  0.1554  0.2364 -0.0785
   16CHTO   H19 6749   5.410   1.891   1.501 -0.0782 -0.7185  2.2677
   16CHTO    C8 6750   5.197   1.932   1.551 -0.0466  0.1066 -0.4030
   16CHTO   H21 6751   5.145   2.018   1.593 -2.4647 -0.8688 -1.3378
   16CHTO    O7 6752   5.184   1.821   1.644 -0.4850 -0.5397  0.5788
   16CHTO    H2 6753   5.272   1.795   1.667 -0.9107 -2.4931  0.1273
   16CHTO   C12 6754   5.134   1.902   1.404  0.3945 -0.5268 -0.1665
   16CHTO   H25 6755   5.193   1.817   1.364  2.2868  0.8555 -0.3520
   16CHTO    N3 6756   4.989   1.872   1.396  0.2019  0.0169 -0.2764
   16CHTO   H12 6757   4.941   1.897   1.489 -1.0388 -0.7927 -0.6917
   16CHTO   H13 6758   4.960   1.770   1.374  0.0562  0.0750 -0.3452
   16CHTO   C15 6759   5.160   2.025   1.305  0.5951  0.3736 -0.1168
   16CHTO   H28 6760   5.109   2.115   1.339  1.3575  0.0360  2.0302
   16CHTO   O10 6761   5.121   1.995   1.140  0.3037 -0.0595  0.0234
   16CHTO    H4 6762   5.191   1.948   1.099 -0.1720 -0.4166 -0.3796
   16CHTO    O5 6763   5.302   2.048   1.302 -0.0759 -0.8400  0.3542
   16CHTO   C10 6764   5.367   2.086   1.421 -0.2679 -0.2298  0.3875
   16CHTO   H23 6765   5.321   2.182   1.445  0.0958  0.1970 -0.5815
   16CHTO   C17 6766   5.513   2.106   1.370  0.0839 -0.1024 -0.1089
   16CHTO   O12 6767   5.592   1.986   1.367 -0.7969 -0.0070  0.3975
   16CHTO    H6 6768   5.681   2.002   1.392  0.0821  0.9432 -3.2025
   17CHTO  H203 6769   6.369   4.367   0.394  0.4320  1.5077 -0.1303
   17CHTO   O82 6770   6.280   4.392   0.380 -0.1209 -0.1580  0.2585
   17CHTO  C123 6771   6.251   4.502   0.463  0.1987 -0.3004  0.1455
   17CHTO  H227 6772   6.281   4.482   0.566 -0.8010  1.0756  0.7171
   17CHTO   O77 6773   6.329   4.606   0.406 -0.3273  0.0952 -0.0968
   17CHTO  C118 6774   6.309   4.737   0.463  0.0053 -0.0359  0.3666
   17CHTO  H222 6775   6.320   4.734   0.573 -0.2758 -1.7699  0.3498
   17CHTO  C125 6776   6.423   4.828   0.411 -0.2135 -0.3031 -0.4733
   17CHTO   O84 6777   6.552   4.763   0.426 -0.1362 -0.0687  0.0892
   17CHTO  H205 6778   6.622   4.823   0.410  0.5391 -1.4660 -2.3630
   17CHTO  C114 6779   6.169   4.789   0.441 -0.1909 -0.5076  0.2182
   17CHTO  H218 6780   6.154   4.803   0.334  1.0747 -0.0636  0.1023
   17CHTO  C116 6781   6.056   4.688   0.492 -0.4216  0.6780 -0.2683
   17CHTO  H220 6782   6.060   4.692   0.603 -0.0548  0.9375 -0.2914
   17CHTO   O79 6783   5.932   4.727   0.445 -0.2527  0.0867 -0.5397
   17CHTO  H201 6784   5.916   4.694   0.359 -0.5089  0.3244 -0.5859
   17CHTO  C120 6785   6.095   4.541   0.447  0.8931 -0.1993  0.1292
   17CHTO  H224 6786   6.065   4.536   0.340 -0.6707 -1.6434  0.6141
   17CHTO   N21 6787   6.008   4.444   0.520  0.1309 -0.2293 -0.1783
   17CHTO  H211 6788   5.915   4.494   0.543  0.2563  1.3851 -2.8445
   17CHTO  H212 6789   6.053   4.406   0.610  0.6159  1.1853  0.2036
   17CHTO   O75 6790   6.165   4.916   0.503 -0.2911  0.4225  0.2126
   17CHTO  C112 6791   6.100   5.038   0.404  0.1248 -0.0702  0.4678
   17CHTO  H216 6792   6.043   4.986   0.326  0.5871 -0.1485  0.1802
   17CHTO   O73 6793   6.212   5.109   0.345  0.2115  0.0625  0.1165
   17CHTO  C113 6794   6.193   5.240   0.288  0.3422 -0.0592 -0.5703
   17CHTO  H217 6795   6.148   5.221   0.189  0.5554  0.2891 -0.7343
   17CHTO  C124 6796   6.338   5.294   0.257 -0.2212 -0.7742 -0.4288
   17CHTO   O83 6797   6.421   5.305   0.375 -0.1565  0.2523 -0.7296
   17CHTO  H204 6798   6.488   5.369   0.361  1.5291 -1.1808  0.6150
   17CHTO  C109 6799   6.108   5.332   0.384  0.0631  0.1282  0.2245
   17CHTO  H213 6800   6.168   5.351   0.474  0.1509  3.1770 -0.4110
   17CHTO  C110 6801   5.979   5.267   0.423  0.8804 -0.0137 -0.1013
   17CHTO  H214 6802   5.926   5.243   0.331 -0.9958  1.4193  0.5624
   17CHTO   O78 6803   5.901   5.350   0.510 -0.0193  0.0746  0.5899
   17CHTO  H200 6804   5.959   5.389   0.574 -1.3841  0.1841  1.7837
   17CHTO  C111 6805   6.008   5.127   0.500  0.1665  0.0626  0.3084
   17CHTO  H215 6806   6.069   5.144   0.590  2.1098  2.2303 -1.3738
   17CHTO   N19 6807   5.890   5.053   0.539 -0.0816  0.2076  0.4490
   17CHTO  H207 6808   5.865   4.968   0.478  0.6091 -0.4829  1.1136
   17CHTO  H208 6809   5.915   5.004   0.633 -0.8199 -0.2433  0.4131
   17CHTO   O74 6810   6.095   5.461   0.314  0.0277  0.0698  0.1248
   17CHTO  C115 6811   6.154   5.597   0.387 -0.5332  0.7753 -0.1844
   17CHTO  H219 6812   6.134   5.598   0.494 -1.6053 -0.9168 -0.3464
   17CHTO   O76 6813   6.299   5.612   0.369  0.1990 -0.3983 -0.2113
   17CHTO  C122 6814   6.357   5.668   0.251  0.1481  0.3333 -0.6476
   17CHTO  H226 6815   6.335   5.598   0.171  2.0972  0.2648 -1.1575
   17CHTO  C126 6816   6.517   5.684   0.255 -0.3273 -0.0290  0.5232
   17CHTO   O85 6817   6.567   5.745   0.373 -0.3993  0.5615  0.2238
   17CHTO  H206 6818   6.546   5.837   0.377 -2.2068  0.1310  1.1238
   17CHTO  C121 6819   6.288   5.811   0.227  0.3473 -0.1602  0.5262
   17CHTO  H225 6820   6.369   5.882   0.251  0.7221 -0.7365  0.9874
   17CHTO   O81 6821   6.253   5.812   0.089 -0.5280 -0.0619  0.2918
   17CHTO  H202 6822   6.276   5.896   0.052 -0.0483 -0.1517  0.3854
   17CHTO  C119 6823   6.174   5.844   0.315  0.2503 -0.3366 -0.0905
   17CHTO  H223 6824   6.226   5.858   0.410  2.2274 -1.5495 -0.9622
   17CHTO  C117 6825   6.076   5.720   0.326 -0.2415  0.1572 -0.2047
   17CHTO  H221 6826   6.034   5.682   0.233  0.4686  1.7410 -1.2012
   17CHTO   N20 6827   5.958   5.753   0.408  0.1269 -0.5946  0.4222
   17CHTO  H209 6828   5.899   5.827   0.356  2.3525  0.2704 -0.9798
   17CHTO  H210 6829   5.893   5.667   0.413 -1.9536  1.0856  2.9473
   17CHTO   O80 6830   6.114   5.988   0.291 -0.4425 -0.0764  0.2379
   17CHTO  C103 6831   6.178   6.115   0.352 -0.3197 -0.4968 -0.7889
   17CHTO  H190 6832   6.190   6.105   0.460 -2.2055 -0.3678 -0.5578
   17CHTO  C101 6833   6.316   6.168   0.289  0.3947  1.0096 -0.0703
   17CHTO  H188 6834   6.311   6.173   0.180  0.3945  2.6444 -0.0143
   17CHTO   O68 6835   6.450   6.083   0.349  0.0974 -0.6062 -0.1726
   17CHTO  H168 6836   6.449   6.001   0.303 -2.2701 -0.8214  0.2213
   17CHTO   C99 6837   6.330   6.322   0.337  0.3740  0.5531 -0.6810
   17CHTO  H186 6838   6.367   6.322   0.442  0.6859 -0.0243 -0.7856
   17CHTO   N17 6839   6.448   6.389   0.262  0.0553 -0.0231 -0.3379
   17CHTO  H174 6840   6.483   6.327   0.182  2.8538 -0.1057  0.8900
   17CHTO  H175 6841   6.528   6.409   0.332 -0.3416  0.6572 -0.0657
   17CHTO   C97 6842   6.209   6.412   0.327  0.4057  0.0752 -0.7611
   17CHTO  H184 6843   6.198   6.430   0.219 -1.4427  1.8273 -0.3120
   17CHTO   O64 6844   6.097   6.345   0.388 -0.3872 -0.1103  0.0110
   17CHTO  C104 6845   6.061   6.218   0.334  0.2304  0.0904 -0.0248
   17CHTO  H191 6846   6.049   6.230   0.226  0.7263  1.2009  0.0350
   17CHTO  C108 6847   5.924   6.166   0.384 -0.0490 -0.3981 -0.6194
   17CHTO   O71 6848   5.936   6.149   0.524  0.1186  0.2079 -0.1017
   17CHTO  H171 6849   5.848   6.147   0.556 -0.6650  0.3902 -2.1767
   17CHTO   O62 6850   6.225   6.529   0.406 -0.1817 -0.6467  0.2212
   17CHTO   C91 6851   6.116   6.624   0.409  0.1845  0.0205  0.4172
   17CHTO  H178 6852   6.042   6.591   0.336  1.0227 -0.3815 -0.2518
   17CHTO   C92 6853   6.185   6.762   0.357 -0.1455  0.0198 -0.0419
   17CHTO  H179 6854   6.248   6.735   0.271  1.6332 -0.8803  1.5064
   17CHTO   O66 6855   6.085   6.854   0.312 -0.4092 -0.1557 -0.5620
   17CHTO  H166 6856   6.109   6.912   0.243 -1.0707  0.4997 -0.2452
   17CHTO   C93 6857   6.278   6.838   0.459 -0.2043 -0.1403  0.2883
   17CHTO  H180 6858   6.295   6.935   0.411 -2.3539 -0.1171 -0.4868
   17CHTO   N16 6859   6.412   6.774   0.477 -0.2216  0.2564  0.3698
   17CHTO  H172 6860   6.415   6.738   0.579  0.0873  0.0711  0.2980
   17CHTO  H173 6861   6.492   6.841   0.449  0.1829  0.0234  0.9573
   17CHTO   C94 6862   6.187   6.857   0.584 -0.3569 -0.2399 -0.1817
   17CHTO  H181 6863   6.242   6.884   0.674 -0.6990 -1.6999  0.4824
   17CHTO   O61 6864   6.135   6.739   0.637  0.2881 -0.3747 -0.8454
   17CHTO   C95 6865   6.056   6.648   0.558  0.2469 -0.2275 -0.5043
   17CHTO  H182 6866   6.062   6.546   0.597  1.9278  0.0296 -0.0591
   17CHTO  C106 6867   5.895   6.669   0.569 -0.1299 -0.4402 -0.2891
   17CHTO   O69 6868   5.857   6.795   0.513 -0.6808  0.6196 -0.5942
   17CHTO  H169 6869   5.918   6.861   0.540  0.2422  0.4230 -2.1389
   17CHTO   O63 6870   6.080   6.964   0.550  0.4384  0.2678  0.2779
   17CHTO   C96 6871   6.071   7.085   0.647 -0.9817  0.0882  0.1231
   17CHTO  H183 6872   6.110   7.049   0.743 -0.4445  0.8666  0.1968
   17CHTO   C98 6873   5.933   7.151   0.655  0.0589  0.0570  0.0755
   17CHTO  H185 6874   5.896   7.170   0.553 -1.7235  1.9112  1.0528
   17CHTO   O67 6875   5.842   7.056   0.713 -0.2205  0.1581  0.0925
   17CHTO  H167 6876   5.754   7.073   0.682 -0.1229 -1.6105 -1.1994
   17CHTO  C102 6877   5.928   7.286   0.747  0.2500  0.8023 -0.0984
   17CHTO  H189 6878   5.917   7.252   0.851  0.7045 -0.1891 -0.3646
   17CHTO   N18 6879   5.808   7.372   0.729  0.1309  0.0022 -0.6213
   17CHTO  H176 6880   5.710   7.331   0.707 -0.2183 -0.1636  1.1925
   17CHTO  H177 6881   5.810   7.448   0.805 -0.9755 -2.3735  1.8946
   17CHTO  C105 6882   6.065   7.362   0.727  0.0638  0.3586  0.3064
   17CHTO  H192 6883   6.045   7.466   0.705  0.7008  0.5287  0.5404
   17CHTO   O65 6884   6.133   7.325   0.604  0.0705 -0.4718  0.0591
   17CHTO  C100 6885   6.178   7.187   0.601 -0.4046 -0.2300  0.3738
   17CHTO  H187 6886   6.188   7.174   0.493  0.2654  0.1152  0.3914
   17CHTO  C107 6887   6.318   7.176   0.672 -0.5074  0.3082 -0.0951
   17CHTO   O70 6888   6.423   7.211   0.585 -0.1842  0.1901  0.4088
   17CHTO  H170 6889   6.494   7.245   0.636  0.0590 -0.1619  0.3032
   17CHTO   O57 6890   6.148   7.331   0.867 -0.2042 -0.8414  0.7191
   17CHTO   C85 6891   6.167   7.444   0.954  0.0902 -0.8433  0.3082
   17CHTO  H157 6892   6.079   7.510   0.937  1.0090 -0.9350 -5.5624
   17CHTO   C83 6893   6.289   7.528   0.909 -0.1533 -0.0615 -0.3467
   17CHTO  H155 6894   6.269   7.580   0.816 -2.3962  1.2206  0.8079
   17CHTO   O56 6895   6.391   7.431   0.897 -0.1961 -0.0150  0.5307
   17CHTO  H135 6896   6.401   7.399   0.809 -0.5125 -1.2170  0.9262
   17CHTO   C81 6897   6.323   7.645   1.011 -0.3020 -0.0719 -0.4990
   17CHTO  H153 6898   6.244   7.720   1.004 -0.3656 -0.0781  0.1222
   17CHTO   N14 6899   6.440   7.725   0.966 -0.0222 -0.7704 -0.1487
   17CHTO  H141 6900   6.465   7.801   1.037 -0.1211  0.4603 -1.3988
   17CHTO  H142 6901   6.412   7.768   0.872 -0.7319 -1.2564 -0.1659
   17CHTO   C79 6902   6.336   7.590   1.150 -1.0676  0.0420 -0.0750
   17CHTO  H151 6903   6.334   7.676   1.217 -0.9455 -1.1921  1.5386
   17CHTO   O52 6904   6.215   7.518   1.196 -0.3099 -0.3329  0.3149
   17CHTO   C86 6905   6.187   7.406   1.106  0.3574 -0.4386  0.2420
   17CHTO  H158 6906   6.267   7.332   1.123  2.6007  1.7731 -0.4259
   17CHTO   C90 6907   6.048   7.340   1.146 -0.2491  0.6178 -0.0072
   17CHTO   O60 6908   6.065   7.269   1.277  0.2723  0.2523  0.0636
   17CHTO  H138 6909   5.977   7.267   1.309 -1.0498  1.0050 -3.2885
   17CHTO   O50 6910   6.449   7.504   1.174  0.4065  0.4918 -0.7082
   17CHTO   C73 6911   6.541   7.459   1.272  0.7762 -0.3193 -0.1690
   17CHTO  H145 6912   6.580   7.553   1.314 -1.6250  1.9498 -2.7854
   17CHTO   C74 6913   6.661   7.385   1.200 -0.4348 -0.0292  0.3976
   17CHTO  H146 6914   6.680   7.457   1.119 -0.1976 -0.4297  0.0962
   17CHTO   O54 6915   6.771   7.378   1.291 -0.1595 -0.5631  0.4478
   17CHTO  H133 6916   6.828   7.450   1.270 -1.1779 -0.1112 -0.8681
   17CHTO   C75 6917   6.613   7.245   1.142 -1.1163 -0.7789  0.8068
   17CHTO  H147 6918   6.526   7.271   1.081  0.3333  1.4664 -0.3633
   17CHTO   N13 6919   6.714   7.173   1.062 -0.1840 -0.1620 -0.2240
   17CHTO  H139 6920   6.675   7.126   0.972 -1.2352 -1.2017  0.7626
   17CHTO  H140 6921   6.792   7.241   1.030 -0.2330 -0.1441 -0.3036
   17CHTO   C76 6922   6.559   7.161   1.267  0.6582 -0.1766  0.0088
   17CHTO  H148 6923   6.640   7.151   1.338  2.6994  1.2451 -2.0483
   17CHTO   O49 6924   6.445   7.240   1.324 -0.2110 -0.5329  0.2511
   17CHTO   C77 6925   6.485   7.364   1.383  0.6220  1.1362  0.0756
   17CHTO  H149 6926   6.559   7.358   1.464 -0.8163 -0.1207  1.3271
   17CHTO   C88 6927   6.362   7.417   1.462 -0.0066 -0.6957  0.0085
   17CHTO   O58 6928   6.389   7.546   1.534 -0.0748  0.3511  0.1142
   17CHTO  H136 6929   6.354   7.613   1.478 -0.3121  0.6764  0.6432
   17CHTO   O51 6930   6.519   7.005   1.223 -0.2975  0.5250  0.2052
   17CHTO   C78 6931   6.380   6.965   1.270 -0.5976  0.0373  0.0946
   17CHTO  H150 6932   6.323   7.052   1.308  0.7582  1.0967 -0.2481
   17CHTO   C80 6933   6.401   6.865   1.386  0.0503 -0.0422  0.9380
   17CHTO  H152 6934   6.460   6.779   1.347 -1.9007 -1.4070  0.9089
   17CHTO   O55 6935   6.468   6.933   1.495  0.2750 -0.2487  0.0188
   17CHTO  H134 6936   6.531   6.876   1.537 -0.0312 -0.5697  0.0424
   17CHTO   C84 6937   6.260   6.814   1.430  0.9410  0.3281  0.6122
   17CHTO  H156 6938   6.210   6.899   1.476 -0.9579 -1.0353  1.1457
   17CHTO   N15 6939   6.268   6.714   1.541  0.5748 -0.0592 -0.1362
   17CHTO  H143 6940   6.321   6.763   1.620  1.3925  0.7239 -1.1385
   17CHTO  H144 6941   6.329   6.634   1.504  0.9633  0.9116 -1.6471
   17CHTO   C87 6942   6.179   6.758   1.304 -0.8661 -0.0338 -0.4848
   17CHTO  H159 6943   6.227   6.672   1.257  0.6233  1.0756 -1.0530
   17CHTO   O53 6944   6.169   6.862   1.216  0.1866 -0.0326 -0.3973
   17CHTO   C82 6945   6.295   6.905   1.161 -0.1026 -0.7326 -0.5608
   17CHTO  H154 6946   6.343   6.825   1.104 -0.3450  0.7353 -2.8753
   17CHTO   C89 6947   6.273   7.010   1.055 -0.3232 -0.1757  0.8160
   17CHTO   O59 6948   6.215   6.953   0.936  0.0569 -0.2381 -0.1326
   17CHTO  H137 6949   6.125   6.974   0.923  0.6563  1.0719 -2.2785
   17CHTO   O45 6950   6.011   6.703   1.351 -0.1061  0.5374 -0.3195
   17CHTO   C67 6951   5.933   6.636   1.252 -0.0194  0.2657 -0.0185
   17CHTO  H124 6952   5.843   6.602   1.304  0.6386 -1.1278  0.2440
   17CHTO   C65 6953   5.893   6.734   1.136 -0.5367  0.4288 -0.6470
   17CHTO  H122 6954   5.982   6.793   1.112 -0.1130  0.9325  1.9291
   17CHTO   O44 6955   5.794   6.827   1.194  0.1806  0.2591 -0.1478
   17CHTO  H102 6956   5.835   6.894   1.246 -0.5713  2.1780 -1.9713
   17CHTO   C63 6957   5.860   6.653   1.000  0.0016  0.2898 -1.0196
   17CHTO  H120 6958   5.955   6.638   0.948  0.9496 -1.6322  1.1988
   17CHTO   N11 6959   5.786   6.721   0.898 -0.2735  0.6272  0.1533
   17CHTO  H108 6960   5.797   6.662   0.809 -0.4364  0.4018  0.2812
   17CHTO  H109 6961   5.839   6.810   0.871  2.2774 -0.7780  0.3621
   17CHTO   C61 6962   5.795   6.512   1.036 -0.5823  1.2044  0.3951
   17CHTO  H118 6963   5.770   6.460   0.943 -1.4613  3.6860 -0.7759
   17CHTO   O40 6964   5.888   6.425   1.115 -0.0817 -0.3540 -0.3663
   17CHTO   C68 6965   5.999   6.500   1.193 -0.4077  0.5263  0.0118
   17CHTO  H125 6966   6.089   6.522   1.131 -0.6387 -2.1129 -1.3574
   17CHTO   C72 6967   6.045   6.407   1.300 -0.7344  0.4562  0.3625
   17CHTO   O48 6968   6.120   6.297   1.240  0.5211 -0.1393 -0.5188
   17CHTO  H105 6969   6.168   6.250   1.306  0.5262  1.1270  0.4083
   17CHTO   O38 6970   5.672   6.522   1.109 -0.5805  0.3403 -0.2094
   17CHTO   C55 6971   5.599   6.415   1.163 -0.3169 -0.2149  0.3267
   17CHTO  H112 6972   5.671   6.377   1.237 -0.5717  0.3158  0.8458
   17CHTO   C56 6973   5.555   6.301   1.060 -0.3992  0.8161  0.3411
   17CHTO  H113 6974   5.505   6.359   0.982 -1.4014  0.9208  1.0527
   17CHTO   O42 6975   5.668   6.231   1.001 -0.3893 -0.7716  0.0688
   17CHTO  H100 6976   5.698   6.289   0.934 -2.3357  0.3947  0.1716
   17CHTO   C57 6977   5.455   6.204   1.137 -0.1233 -0.5138 -0.1002
   17CHTO  H114 6978   5.505   6.159   1.223  1.1145  0.4390 -0.2977
   17CHTO   N10 6979   5.403   6.097   1.050  0.3464  0.4266 -0.2868
   17CHTO  H106 6980   5.403   6.126   0.946  1.6972 -2.2606 -1.0737
   17CHTO  H107 6981   5.452   6.002   1.066  1.2923  0.5204 -2.4394
   17CHTO   C58 6982   5.340   6.293   1.196 -0.4087 -0.1674  0.2776
   17CHTO  H115 6983   5.285   6.345   1.115 -2.1133  1.3680  2.3815
   17CHTO   O37 6984   5.395   6.396   1.288 -0.1093  0.0922 -0.2999
   17CHTO   C59 6985   5.482   6.492   1.232 -0.3036  0.2917  0.1051
   17CHTO  H116 6986   5.425   6.551   1.159 -0.2576 -0.3281 -0.4361
   17CHTO   C70 6987   5.515   6.573   1.354  0.6779 -0.0079 -0.1395
   17CHTO   O46 6988   5.409   6.663   1.387 -0.5406  0.1517  0.0645
   17CHTO  H103 6989   5.433   6.709   1.465  0.2000  0.0146 -0.0748
   17CHTO   O39 6990   5.249   6.199   1.295  0.1405 -0.2160  0.1490
   17CHTO   C60 6991   5.116   6.252   1.308 -0.3341  0.1575  0.6298
   17CHTO  H117 6992   5.122   6.360   1.293  0.8785  0.1761  1.1370
   17CHTO   C62 6993   5.023   6.185   1.200 -0.4244 -0.7196 -0.5028
   17CHTO  H119 6994   5.077   6.219   1.108  0.2025  1.1237  0.5199
   17CHTO   O43 6995   5.025   6.041   1.207  0.1195 -0.4441 -0.3774
   17CHTO  H101 6996   4.961   6.007   1.147 -0.4727 -0.1878  0.1061
   17CHTO   C66 6997   4.878   6.249   1.210  0.5755  0.4275 -0.0343
   17CHTO  H123 6998   4.881   6.357   1.206 -0.4368  0.4719  0.0893
   17CHTO   N12 6999   4.795   6.202   1.095  0.1029  0.0474  0.3345
   17CHTO  H110 7000   4.768   6.278   1.025 -1.4899 -1.1311 -0.3584
   17CHTO  H111 7001   4.701   6.170   1.138  1.2058 -1.7139  1.5220
   17CHTO   C69 7002   4.813   6.230   1.352  0.0551  0.0927 -0.2498
   17CHTO  H126 7003   4.791   6.125   1.380 -3.0589  0.7328 -0.1020
   17CHTO   O41 7004   4.910   6.283   1.457 -0.0370 -0.1012 -0.1238
   17CHTO   C64 7005   5.072   6.232   1.450  0.3502 -0.7711  0.6303
   17CHTO  H121 7006   5.084   6.127   1.484  0.5336 -2.0677 -3.1957
   17CHTO   C71 7007   5.142   6.321   1.555 -0.4806 -0.0716  0.0378
   17CHTO   O47 7008   5.097   6.275   1.683  0.4739  0.1787  0.2292
   17CHTO  H104 7009   5.008   6.305   1.689  0.6890  0.9524 -0.2836
   17CHTO   O34 7010   4.681   6.299   1.362  0.1312 -0.8788  0.3139
   17CHTO   C49 7011   4.598   6.403   1.413 -0.6781  0.2397 -0.2297
   17CHTO   H91 7012   4.656   6.493   1.393 -0.0083  0.2185  1.5228
   17CHTO   C47 7013   4.582   6.400   1.570  0.5364 -0.1607 -0.0424
   17CHTO   H89 7014   4.546   6.502   1.594 -0.7379 -0.8785  1.1480
   17CHTO   O33 7015   4.709   6.376   1.633 -0.1740 -0.4964 -0.0373
   17CHTO   H70 7016   4.753   6.454   1.659  1.0213 -1.3864  0.7086
   17CHTO   C45 7017   4.474   6.287   1.606  0.5866  0.3160  0.4669
   17CHTO   H87 7018   4.526   6.192   1.624 -0.6397 -0.6186 -0.7919
   17CHTO    N8 7019   4.407   6.330   1.733  0.0778 -0.0881 -0.1331
   17CHTO   H75 7020   4.483   6.344   1.809  1.1587 -1.2083 -0.9915
   17CHTO   H76 7021   4.337   6.412   1.728 -0.9305 -0.9213  0.1087
   17CHTO   C43 7022   4.380   6.244   1.488  0.6979  0.4722  0.8317
   17CHTO   H85 7023   4.433   6.168   1.431 -0.5164  0.3960 -0.1975
   17CHTO   O29 7024   4.346   6.352   1.407  0.2399 -0.3050  0.4500
   17CHTO   C50 7025   4.457   6.407   1.346 -0.7944  0.1771 -0.0726
   17CHTO   H92 7026   4.474   6.362   1.247 -1.9946 -0.6365  0.0828
   17CHTO   C54 7027   4.424   6.551   1.292  0.0567  0.0519 -0.4400
   17CHTO   O36 7028   4.332   6.532   1.182  0.0427  0.0387  0.0355
   17CHTO   H72 7029   4.316   6.615   1.142 -2.5056 -0.3032  0.2469
   17CHTO   O27 7030   4.276   6.155   1.531  0.1235 -0.1121  0.2246
   17CHTO   C37 7031   4.216   6.051   1.455  0.5363 -0.3369  0.2461
   17CHTO   H79 7032   4.132   6.010   1.511  0.9597 -1.1877  0.2599
   17CHTO   C38 7033   4.155   6.084   1.317  0.7941  0.1182 -0.0320
   17CHTO   H80 7034   4.230   6.144   1.263  2.5715 -0.7682  1.3965
   17CHTO   O31 7035   4.042   6.162   1.345 -0.7317  0.2061 -0.1441
   17CHTO   H68 7036   4.074   6.234   1.395 -1.7451 -1.1430  2.5646
   17CHTO   C39 7037   4.113   5.957   1.229  0.2331  0.1498  0.2569
   17CHTO   H81 7038   4.018   5.923   1.269  0.9807  1.3458  3.1493
   17CHTO    N7 7039   4.085   5.992   1.084 -0.1363 -0.2545 -0.3261
   17CHTO   H73 7040   4.043   6.091   1.076  2.6933  1.0619  0.5685
   17CHTO   H74 7041   4.183   6.000   1.039  1.3295  2.1135  3.0741
   17CHTO   C40 7042   4.218   5.850   1.241  0.5287 -0.6672 -0.2916
   17CHTO   H82 7043   4.301   5.892   1.183 -0.9574  1.5382 -0.8434
   17CHTO   O26 7044   4.250   5.823   1.376 -0.0554 -0.0658  0.0370
   17CHTO   C41 7045   4.313   5.930   1.457  0.6046  0.2250  0.1830
   17CHTO   H83 7046   4.408   5.962   1.413  1.0469  0.7461  1.4818
   17CHTO   C52 7047   4.336   5.876   1.591  0.1040  0.1432 -0.4839
   17CHTO   O35 7048   4.406   5.736   1.586  0.2359  1.0298  0.2726
   17CHTO   H71 7049   4.397   5.697   1.501  2.7630 -0.8398  0.8240
   17CHTO   O28 7050   4.185   5.714   1.200 -0.0854  0.4942 -0.9003
   17CHTO   C42 7051   4.283   5.618   1.152  0.3819  0.0427 -0.3155
   17CHTO   H84 7052   4.223   5.531   1.125 -2.0779  2.1199 -1.8690
   17CHTO   C44 7053   4.398   5.589   1.255  0.1179  0.7258 -0.1366
   17CHTO   H86 7054   4.443   5.684   1.284  2.1465  0.1425 -1.3072
   17CHTO   O32 7055   4.342   5.524   1.366 -0.3721  0.2365 -0.5118
   17CHTO   H69 7056   4.289   5.452   1.338  2.7296 -1.9733 -0.9301
   17CHTO   C48 7057   4.518   5.501   1.194  0.3376  0.4222 -0.3556
   17CHTO   H90 7058   4.482   5.403   1.161 -0.8688  0.4408  0.8757
   17CHTO    N9 7059   4.640   5.474   1.282  0.3096 -0.5911  0.3198
   17CHTO   H77 7060   4.725   5.436   1.228  1.5975  0.7050  1.4113
   17CHTO   H78 7061   4.622   5.403   1.362 -0.8068  0.3273  0.9013
   17CHTO   C51 7062   4.560   5.573   1.054 -0.3984  0.0435 -0.0554
   17CHTO   H93 7063   4.604   5.669   1.081  0.7116 -1.0002  1.9667
   17CHTO   O30 7064   4.451   5.584   0.963 -0.3534  0.1973  0.5171
   17CHTO   C46 7065   4.346   5.675   1.011  0.1739  0.0761 -0.2730
   17CHTO   H88 7066   4.396   5.770   1.026 -0.9403  0.2406  2.6510
   17CHTO   C53 7067   4.241   5.683   0.902  0.0737 -0.8395  0.3058
   17CHTO   O72 7068   4.304   5.733   0.784 -0.3454  0.3240 -0.6538
   17CHTO  H199 7069   4.255   5.707   0.709 -0.6457  0.9731 -0.6931
   17CHTO   O22 7070   4.648   5.486   0.982 -0.0765  0.6076 -0.3191
   17CHTO   C31 7071   4.729   5.534   0.870 -0.1633 -0.1066 -0.1955
   17CHTO   H59 7072   4.783   5.447   0.827  0.6638  0.8994 -1.2455
   17CHTO   C29 7073   4.652   5.596   0.749  0.4501 -0.3648  1.0650
   17CHTO   H57 7074   4.593   5.682   0.784 -1.4570  0.3871 -3.7150
   17CHTO   O21 7075   4.556   5.504   0.708 -0.3221 -0.5982 -0.2195
   17CHTO   H37 7076   4.596   5.432   0.664  0.9189  0.3061 -0.5794
   17CHTO   C27 7077   4.756   5.663   0.642 -0.4604 -0.1835  0.4312
   17CHTO   H55 7078   4.812   5.584   0.589  1.4002  1.3161  0.1145
   17CHTO    N5 7079   4.692   5.747   0.538  0.0583  0.1435  0.2183
   17CHTO   H43 7080   4.694   5.691   0.445 -0.8762  0.6027 -0.0865
   17CHTO   H44 7081   4.593   5.786   0.559  0.1929  0.5830  0.0438
   17CHTO   C25 7082   4.855   5.750   0.718 -0.0855  0.1265 -0.6964
   17CHTO   H53 7083   4.803   5.834   0.766  3.8771  1.6374  1.2352
   17CHTO   O17 7084   4.926   5.670   0.812 -0.2454 -0.2495  0.4630
   17CHTO   C32 7085   4.844   5.631   0.922  0.1961 -0.0800 -0.0616
   17CHTO   H60 7086   4.797   5.719   0.965 -0.1838 -0.3183  0.0153
   17CHTO   C36 7087   4.933   5.549   1.024 -0.2933 -0.3859 -0.2872
   17CHTO   O25 7088   5.035   5.635   1.078  0.0245  0.5472 -0.1809
   17CHTO   H40 7089   5.087   5.592   1.143  0.7020  0.0016 -1.0621
   17CHTO   O15 7090   4.963   5.816   0.627  0.0615 -0.1616  0.3498
   17CHTO   C19 7091   5.016   5.959   0.630  0.2182  1.1706 -0.1994
   17CHTO   H47 7092   5.101   5.963   0.560 -0.3286 -2.3152 -1.1151
   17CHTO   C20 7093   4.909   6.062   0.586 -0.3025 -0.4410  0.2938
   17CHTO   H48 7094   4.819   6.058   0.649 -1.0067 -1.3647 -0.7517
   17CHTO   O19 7095   4.864   6.039   0.455  0.7697 -1.1129 -0.5852
   17CHTO   H35 7096   4.929   6.034   0.387  0.1307  0.3158 -1.3307
   17CHTO   C21 7097   4.979   6.207   0.596  0.1196 -0.2710  0.5103
   17CHTO   H49 7098   5.048   6.217   0.512 -2.0956 -2.2443 -1.6096
   17CHTO    N4 7099   4.887   6.324   0.578  0.3364 -0.1671  0.5080
   17CHTO   H41 7100   4.943   6.416   0.577  2.2022 -1.2235 -2.4449
   17CHTO   H42 7101   4.817   6.324   0.660 -0.1484  0.6903  0.1005
   17CHTO   C22 7102   5.066   6.233   0.720 -0.1316  0.1384 -0.3772
   17CHTO   H50 7103   5.007   6.252   0.809  3.5325  1.0873  1.9884
   17CHTO   O14 7104   5.145   6.120   0.760 -0.0495  0.1816  0.5820
   17CHTO   C23 7105   5.068   5.999   0.764 -0.1084 -0.6212 -0.3177
   17CHTO   H51 7106   4.990   6.005   0.840  0.9807  1.5799  0.6762
   17CHTO   C34 7107   5.154   5.887   0.822  0.0256  0.6651 -0.4956
   17CHTO   O23 7108   5.176   5.895   0.967  0.1455  0.0791  0.1930
   17CHTO   H38 7109   5.245   5.950   0.998  0.6231 -0.8713  0.8644
   17CHTO   O16 7110   5.148   6.351   0.704  0.0779 -0.5907 -0.2237
   17CHTO   C24 7111   5.198   6.418   0.833 -0.1785  0.1379  0.1667
   17CHTO   H52 7112   5.226   6.346   0.910 -3.5856 -0.3103  1.0837
   17CHTO   C26 7113   5.093   6.515   0.891  0.6208 -0.2335  0.1802
   17CHTO   H54 7114   5.060   6.587   0.813  1.1570 -0.4126 -0.2194
   17CHTO   O20 7115   4.967   6.451   0.934 -0.4245  0.3481  0.2309
   17CHTO   H36 7116   4.911   6.510   0.981 -1.2616 -0.5456  0.3798
   17CHTO   C30 7117   5.156   6.594   1.010  0.2590  0.6433 -0.3474
   17CHTO   H58 7118   5.194   6.525   1.087 -0.5309  1.7950  1.0824
   17CHTO    N6 7119   5.061   6.683   1.077 -0.8456  0.0101  0.3897
   17CHTO   H45 7120   5.100   6.740   1.161  1.5225 -0.4372 -0.3752
   17CHTO   H46 7121   5.029   6.752   1.000  0.3411 -0.4298 -0.5048
   17CHTO   C33 7122   5.284   6.670   0.949  0.2915 -0.1960 -0.7318
   17CHTO   H61 7123   5.257   6.734   0.865  0.2528  0.5906 -0.1240
   17CHTO   O18 7124   5.374   6.569   0.904 -0.2539 -0.1776 -0.0536
   17CHTO   C28 7125   5.321   6.500   0.798  0.3662  0.3667  0.1416
   17CHTO   H56 7126   5.299   6.568   0.715 -0.9640  0.5994  0.6685
   17CHTO   C35 7127   5.427   6.404   0.727  0.5088 -0.5872  0.3471
   17CHTO   O24 7128   5.553   6.470   0.691 -0.0378 -0.3186  0.0754
   17CHTO   H39 7129   5.576   6.543   0.745  1.4553 -0.1002 -0.8478
   17CHTO    O9 7130   5.343   6.758   1.047  0.0636 -0.3827 -0.3903
   17CHTO   C13 7131   5.413   6.898   0.956  0.3675 -0.3738 -0.3136
   17CHTO   H26 7132   5.474   6.848   0.878 -0.1636 -0.4747 -0.6699
   17CHTO   C11 7133   5.502   6.983   1.058 -0.5816  0.6081 -0.4898
   17CHTO   H24 7134   5.560   6.903   1.106 -0.4781  1.5131  0.9054
   17CHTO    O8 7135   5.414   7.026   1.168 -0.3667 -0.0267  0.0159
   17CHTO    H3 7136   5.463   7.077   1.229 -0.1599 -1.3156  0.9443
   17CHTO    C9 7137   5.567   7.094   0.971  0.1960  0.2800 -0.3243
   17CHTO   H22 7138   5.628   7.044   0.895 -2.3118 -0.8424 -1.6646
   17CHTO    N2 7139   5.664   7.174   1.050 -0.6752 -0.1770  0.5482
   17CHTO   H10 7140   5.629   7.222   1.139 -1.9452  0.0946 -0.0894
   17CHTO   H11 7141   5.704   7.256   0.992 -0.4899  0.4980  1.6168
   17CHTO    C7 7142   5.451   7.182   0.906 -0.0213 -0.8091 -0.0104
   17CHTO   H20 7143   5.505   7.246   0.833 -1.3597  0.5140  0.1389
   17CHTO    O4 7144   5.349   7.109   0.835 -0.2520 -0.1054  0.3934
   17CHTO   C14 7145   5.301   6.981   0.879 -0.9021  0.8101  0.2563
   17CHTO   H27 7146   5.277   6.937   0.780  1.2879 -0.3515  0.2044
   17CHTO   C18 7147   5.171   6.991   0.964  0.0782  0.0553  0.8735
   17CHTO   O13 7148   5.063   7.060   0.893  0.6188 -0.0158 -0.3299
   17CHTO    H7 7149   5.034   7.014   0.816  0.4839  0.0713 -0.3320
   17CHTO    O2 7150   5.384   7.272   1.027  0.0173  0.5408 -0.3082
   17CHTO    C1 7151   5.352   7.406   1.009  0.1974  0.0238  0.1131
   17CHTO   H14 7152   5.289   7.424   0.920 -0.6893 -0.2000  0.6863
   17CHTO    C2 7153   5.480   7.493   1.002 -0.1079  0.2594 -0.5305
   17CHTO   H15 7154   5.558   7.446   1.063 -1.5002  0.1543  1.2058
   17CHTO    O6 7155   5.531   7.493   0.868 -0.4107 -0.0546  1.0232
   17CHTO    H1 7156   5.477   7.526   0.799  1.7789 -1.4489 -1.4660
   17CHTO    C3 7157   5.447   7.647   1.040 -0.6243 -0.5120 -0.8852
   17CHTO   H16 7158   5.401   7.699   0.955 -0.2386  0.5056 -0.4821
   17CHTO    N1 7159   5.575   7.722   1.061  0.3363  0.1707 -0.4746
   17CHTO    H8 7160   5.646   7.646   1.091 -1.1196 -1.6843 -1.6786
   17CHTO    H9 7161   5.566   7.794   1.142 -1.2055 -0.2385 -0.2690
   17CHTO    C4 7162   5.352   7.654   1.161 -0.0548 -0.4504  0.0050
   17CHTO   H17 7163   5.408   7.617   1.247  0.5357 -0.0049 -0.1837
   17CHTO    O1 7164   5.234   7.570   1.143 -0.1980 -0.1133  0.4260
   17CHTO    C5 7165   5.258   7.435   1.134  0.8240  1.1881  0.3382
   17CHTO   H18 7166   5.315   7.396   1.218 -1.3948 -1.4913  0.6972
   17CHTO   C16 7167   5.116   7.363   1.136  0.1785 -0.2103 -0.1164
   17CHTO   O11 7168   5.052   7.381   1.263 -0.0064 -0.0522  0.5927
   17CHTO    H5 7169   4.969   7.338   1.265  0.7264 -1.4415  2.5519
   17CHTO    O3 7170   5.300   7.785   1.189  0.1319  0.2720  0.3205
   17CHTO    C6 7171   5.276   7.842   1.320 -0.1468  0.2092  0.8808
   17CHTO   H19 7172   5.218   7.933   1.306  1.3409  0.8840 -1.1034
   17CHTO    C8 7173   5.192   7.736   1.408 -0.4626  0.0996 -0.2763
   17CHTO   H21 7174   5.247   7.643   1.401  2.4593  1.8356 -0.9777
   17CHTO    O7 7175   5.068   7.718   1.348 -0.0997  0.6052  0.0589
   17CHTO    H2 7176   5.031   7.795   1.309 -4.3307 -1.4090 -0.2443
   17CHTO   C12 7177   5.189   7.786   1.558 -0.5741  0.1583  0.4106
   17CHTO   H25 7178   5.131   7.880   1.558 -2.2484 -0.8549  0.6152
   17CHTO    N3 7179   5.119   7.685   1.641 -0.6752  0.1202  0.3997
   17CHTO   H12 7180   5.173   7.668   1.733 -2.0772 -1.8674  0.8900
   17CHTO   H13 7181   5.015   7.706   1.660 -1.0825  0.4134 -2.0168
   17CHTO   C15 7182   5.336   7.820   1.607 -0.0097  0.2665 -0.3561
   17CHTO   H28 7183   5.399   7.732   1.597  0.5861  0.6886 -0.3728
   17CHTO   O10 7184   5.336   7.858   1.750 -0.4575  0.0988  0.5150
   17CHTO    H4 7185   5.400   7.803   1.790 -1.5569 -0.3410  1.7225
   17CHTO    O5 7186   5.389   7.924   1.529 -0.3356 -0.6025  0.2316
   17CHTO   C10 7187   5.408   7.885   1.392  1.0686  0.4452 -0.1188
   17CHTO   H23 7188   5.487   7.810   1.396  1.7141  1.1822  2.5199
   17CHTO   C17 7189   5.473   8.003   1.326 -0.2455 -0.2351 -0.7427
   17CHTO   O12 7190   5.390   8.117   1.338 -0.1767  0.1260 -0.1532
   17CHTO    H6 7191   5.384   8.167   1.259  0.9387 -2.4176 -1.9549
   18CHTO  H203 7192   6.661   7.527   1.951  3.2423 -0.0156 -0.8012
   18CHTO   O82 7193   6.641   7.618   1.938 -0.6171 -0.5510  0.6254
   18CHTO  C123 7194   6.639   7.652   1.794 -0.0064  1.0864 -0.4632
   18CHTO  H227 7195   6.540   7.622   1.756 -0.5827  0.4122  1.5107
   18CHTO   O77 7196   6.653   7.799   1.804 -0.2054 -0.5444  0.3954
   18CHTO  C118 7197   6.635   7.874   1.680 -0.0432 -0.2132 -0.2968
   18CHTO  H222 7198   6.535   7.850   1.640  0.4118  0.9431 -2.1957
   18CHTO  C125 7199   6.644   8.032   1.690  0.3651 -0.4010 -0.0071
   18CHTO   O84 7200   6.550   8.063   1.792  0.3271  0.5181 -0.4392
   18CHTO  H205 7201   6.468   8.024   1.766 -0.1333  0.4254  1.0472
   18CHTO  C114 7202   6.742   7.826   1.577 -0.1794 -0.1559  0.4013
   18CHTO  H218 7203   6.837   7.872   1.603 -0.3408  1.5963 -1.9811
   18CHTO  C116 7204   6.747   7.669   1.574  0.5095 -0.1165  1.1838
   18CHTO  H220 7205   6.661   7.634   1.514  0.5877 -0.2575  1.1543
   18CHTO   O79 7206   6.865   7.630   1.495 -0.0284  0.2587  0.0117
   18CHTO  H201 7207   6.877   7.537   1.492  0.5699  0.3664 -2.1289
   18CHTO  C120 7208   6.757   7.594   1.718  0.4763  0.4976 -0.1636
   18CHTO  H224 7209   6.851   7.625   1.768  0.7806  0.3864 -0.6665
   18CHTO   N21 7210   6.738   7.444   1.698  0.0706  0.4506 -0.4494
   18CHTO  H211 7211   6.710   7.390   1.788  0.7606 -0.9637 -1.0575
   18CHTO  H212 7212   6.815   7.399   1.637  3.1040  3.1840  1.2041
   18CHTO   O75 7213   6.704   7.880   1.450 -0.2200 -0.2179 -0.2951
   18CHTO  C112 7214   6.821   7.941   1.356 -0.1499  0.1507  0.0286
   18CHTO  H216 7215   6.911   7.882   1.378 -0.7984 -1.1346 -0.7634
   18CHTO   O73 7216   6.842   8.080   1.394 -0.4526 -0.6626  0.3942
   18CHTO  C113 7217   6.940   8.147   1.307  0.1746 -0.2783  0.4202
   18CHTO  H217 7218   7.039   8.097   1.313 -0.0918 -0.5217  3.3279
   18CHTO  C124 7219   6.958   8.291   1.345  0.1828 -0.1147 -0.0217
   18CHTO   O83 7220   7.018   8.305   1.470 -0.1543 -0.3090  0.8048
   18CHTO  H204 7221   7.031   8.393   1.499  1.1176 -0.1305 -0.2219
   18CHTO  C109 7222   6.893   8.142   1.153 -0.1489 -0.0713  0.1837
   18CHTO  H213 7223   6.794   8.190   1.144  1.0228  2.5638  0.7441
   18CHTO  C110 7224   6.882   7.994   1.110 -0.1280 -0.5294 -0.2028
   18CHTO  H214 7225   6.976   7.942   1.127 -1.0746 -1.8052  1.3020
   18CHTO   O78 7226   6.842   7.975   0.975  0.4349  0.1793 -0.1481
   18CHTO  H200 7227   6.807   7.890   0.957  0.2332  0.1103  0.5415
   18CHTO  C111 7228   6.781   7.919   1.205  0.5180 -0.0084 -0.5272
   18CHTO  H215 7229   6.684   7.971   1.198  0.2650 -0.4452 -0.3270
   18CHTO   N19 7230   6.758   7.772   1.181  0.0868 -0.0520  0.8511
   18CHTO  H207 7231   6.679   7.726   1.237 -0.9070 -1.1710 -1.4244
   18CHTO  H208 7232   6.854   7.722   1.192  0.4014 -0.1302 -1.9048
   18CHTO   O74 7233   6.988   8.211   1.065 -0.1465  0.3760  0.4483
   18CHTO  C115 7234   6.922   8.263   0.932 -0.0159  0.1404  0.0328
   18CHTO  H219 7235   6.872   8.180   0.882  1.3868 -0.1149 -0.9771
   18CHTO   O76 7236   6.811   8.377   0.956 -0.6366  0.1817 -0.5633
   18CHTO  C122 7237   6.759   8.419   0.828 -0.1462 -0.6578  0.5275
   18CHTO  H226 7238   6.704   8.512   0.839  0.8122  0.2840 -2.2725
   18CHTO  C126 7239   6.652   8.306   0.783  0.3093  0.0559  0.4765
   18CHTO   O85 7240   6.567   8.347   0.675  0.0763  0.6139 -0.2717
   18CHTO  H206 7241   6.483   8.308   0.689  1.4338 -1.9409  1.3537
   18CHTO  C121 7242   6.870   8.464   0.715 -0.0146 -0.8254  0.2821
   18CHTO  H225 7243   6.821   8.483   0.617  0.6779  0.9932  0.2663
   18CHTO   O81 7244   6.926   8.590   0.733 -0.3667  0.1027 -0.4067
   18CHTO  H202 7245   7.000   8.604   0.678  0.3936 -0.5305  0.4318
   18CHTO  C119 7246   6.984   8.349   0.700  0.2969  0.2388  0.1463
   18CHTO  H223 7247   6.933   8.261   0.660 -2.4189  2.5180 -1.6503
   18CHTO  C117 7248   7.038   8.315   0.842 -0.0904  0.7705  0.3110
   18CHTO  H221 7249   7.083   8.399   0.896 -1.6677  0.0935  2.7716
   18CHTO   N20 7250   7.150   8.218   0.825 -0.2105  0.2020  0.1793
   18CHTO  H209 7251   7.210   8.211   0.915 -0.7109 -2.2084  0.3730
   18CHTO  H210 7252   7.219   8.252   0.749 -0.4013  0.5194  0.1516
   18CHTO   O80 7253   7.094   8.385   0.583  0.8512  0.3993 -0.4473
   18CHTO  C103 7254   7.110   8.285   0.447 -0.1336  0.4309 -0.7920
   18CHTO  H190 7255   7.191   8.315   0.380  0.2615  0.8279 -0.1346
   18CHTO  C101 7256   7.124   8.129   0.465  0.0246  0.5049 -0.2139
   18CHTO  H188 7257   7.056   8.088   0.539  1.1863 -0.1912  0.5013
   18CHTO   O68 7258   7.279   8.106   0.526 -0.8182  0.0165  0.5256
   18CHTO  H168 7259   7.343   8.117   0.458 -0.7824  2.7720  0.9316
   18CHTO   C99 7260   7.097   8.046   0.332  0.0263  0.1954 -0.4372
   18CHTO  H186 7261   7.163   8.075   0.247  1.1373 -3.1872 -0.7997
   18CHTO   N17 7262   7.120   7.901   0.353 -0.3589 -0.4243 -0.2907
   18CHTO  H174 7263   7.057   7.876   0.437  0.0944  2.1923  0.8821
   18CHTO  H175 7264   7.222   7.872   0.376 -0.5453  1.5617  3.4220
   18CHTO   C97 7265   6.956   8.082   0.285  0.1518  0.5999  0.1647
   18CHTO  H184 7266   6.887   8.060   0.367  2.6778 -0.2975  2.0904
   18CHTO   O64 7267   6.968   8.226   0.249 -0.1494  0.1169  0.2797
   18CHTO  C104 7268   6.979   8.305   0.375 -0.9461 -0.1060 -0.0497
   18CHTO  H191 7269   6.896   8.269   0.437 -0.3957  0.4921  1.0423
   18CHTO  C108 7270   6.946   8.450   0.337 -0.9992 -0.2621 -0.2671
   18CHTO   O71 7271   7.041   8.509   0.253  0.5939 -0.2187 -0.4957
   18CHTO  H171 7272   7.011   8.517   0.165 -0.7189 -0.6552 -0.1020
   18CHTO   O62 7273   6.902   8.023   0.161 -0.1639  0.0149 -0.1699
   18CHTO   C91 7274   6.759   8.017   0.149  0.4604 -0.2544 -0.6763
   18CHTO  H178 7275   6.721   8.057   0.243 -0.3130 -1.3198 -0.5180
   18CHTO   C92 7276   6.717   7.868   0.144  0.2421 -0.5112  0.8528
   18CHTO  H179 7277   6.764   7.820   0.057  0.9304 -1.5146  1.7632
   18CHTO   O66 7278   6.769   7.799   0.263 -0.2906 -0.1390  0.5120
   18CHTO  H166 7279   6.859   7.772   0.254 -0.6332 -0.7723 -1.2008
   18CHTO   C93 7280   6.563   7.847   0.131  0.4747  0.2615 -0.5220
   18CHTO  H180 7281   6.535   7.874   0.234 -2.3768 -0.0135 -1.2006
   18CHTO   N16 7282   6.526   7.704   0.105  0.5951 -0.3292 -0.9189
   18CHTO  H172 7283   6.537   7.636   0.189  0.2594 -0.6150 -1.1036
   18CHTO  H173 7284   6.437   7.682   0.048 -0.7589  0.9835  0.6144
   18CHTO   C94 7285   6.501   7.951   0.025 -1.4059 -0.3952  0.6418
   18CHTO  H181 7286   6.505   7.914  -0.078 -0.3875 -0.2802  0.6282
   18CHTO   O61 7287   6.563   8.082   0.040 -1.2813  0.5055  0.1447
   18CHTO   C95 7288   6.705   8.092   0.025 -0.2705 -0.1767 -0.1698
   18CHTO  H182 7289   6.734   8.040  -0.066  1.3368 -1.6892  1.1648
   18CHTO  C106 7290   6.749   8.236   0.025  0.1662  0.8298 -0.3392
   18CHTO   O69 7291   6.680   8.302  -0.081  0.1711 -0.1372  0.2283
   18CHTO  H169 7292   6.587   8.295  -0.070  0.1451  0.1912  0.1952
   18CHTO   O63 7293   6.345   7.969   0.066 -0.4269 -0.5703 -0.0402
   18CHTO   C96 7294   6.286   8.109   0.108  0.2558  0.1360 -0.2071
   18CHTO  H183 7295   6.366   8.182   0.093 -0.0427 -0.1173 -3.4712
   18CHTO   C98 7296   6.234   8.136   0.251  0.4055  0.4848  0.3037
   18CHTO  H185 7297   6.146   8.075   0.273  0.4055  0.6038  0.6286
   18CHTO   O67 7298   6.338   8.093   0.341  0.1254  0.0106  0.1478
   18CHTO  H167 7299   6.309   8.100   0.429  1.2780  0.0334  0.5292
   18CHTO  C102 7300   6.200   8.293   0.264 -0.3031  0.1781 -0.3874
   18CHTO  H189 7301   6.294   8.347   0.246  0.7850 -1.4928  0.1213
   18CHTO   N18 7302   6.167   8.335   0.403  0.4411  0.4162  0.2105
   18CHTO  H176 7303   6.060   8.348   0.404  0.0839 -2.2748  0.3747
   18CHTO  H177 7304   6.217   8.429   0.423  2.4805 -0.8502  1.2708
   18CHTO  C105 7305   6.099   8.331   0.152 -0.2965  0.4971  0.4162
   18CHTO  H192 7306   5.999   8.294   0.177 -0.1978  0.3264  0.5559
   18CHTO   O65 7307   6.138   8.281   0.025  0.3886 -0.3805  0.2285
   18CHTO  C100 7308   6.165   8.143   0.014 -0.5308 -0.3917 -0.6914
   18CHTO  H187 7309   6.078   8.085   0.051 -1.1353 -0.6594 -2.4550
   18CHTO  C107 7310   6.187   8.114  -0.146 -0.0608 -0.0681 -0.8179
   18CHTO   O70 7311   6.320   8.148  -0.182 -0.4827 -0.3596  0.3957
   18CHTO  H170 7312   6.360   8.076  -0.228 -0.2760  0.4700 -0.7359
   18CHTO   O57 7313   6.088   8.491   0.144 -0.2097 -0.5103 -0.2710
   18CHTO   C85 7314   5.977   8.572   0.102  0.4830  0.5192 -0.3093
   18CHTO  H157 7315   6.011   8.677   0.091  1.7470  0.2298  0.7318
   18CHTO   C83 7316   5.881   8.582   0.222 -0.3281 -0.2968 -0.8575
   18CHTO  H155 7317   5.935   8.643   0.295 -0.4969 -1.7001  0.4697
   18CHTO   O56 7318   5.857   8.457   0.286 -0.1322 -0.4907 -0.8260
   18CHTO  H135 7319   5.796   8.472   0.355 -1.2925  1.2812 -2.1739
   18CHTO   C81 7320   5.756   8.665   0.175  0.4335 -0.3391 -0.1109
   18CHTO  H153 7321   5.792   8.756   0.128 -0.6777  0.5371  0.7007
   18CHTO   N14 7322   5.678   8.696   0.292 -0.6027 -0.0154  0.2151
   18CHTO  H141 7323   5.588   8.638   0.299 -0.4884 -0.1202  0.8886
   18CHTO  H142 7324   5.659   8.801   0.292 -2.0789 -0.2546  2.2214
   18CHTO   C79 7325   5.680   8.590   0.063 -0.4124  0.3449  0.1425
   18CHTO  H151 7326   5.606   8.659   0.023 -1.5457  0.1655  1.8719
   18CHTO   O52 7327   5.770   8.567  -0.054 -0.4331  0.4753  0.5177
   18CHTO   C86 7328   5.905   8.519  -0.023  0.3199 -0.8590 -0.0994
   18CHTO  H158 7329   5.889   8.409  -0.010  2.5361 -1.1711  0.1339
   18CHTO   C90 7330   5.989   8.535  -0.151 -0.6962 -0.1686 -0.0072
   18CHTO   O60 7331   6.129   8.505  -0.149 -0.1203  0.0544  0.3184
   18CHTO  H138 7332   6.156   8.503  -0.059 -0.6316  0.0480  0.4756
   18CHTO   O50 7333   5.617   8.469   0.111 -0.3592  0.1869 -0.1120
   18CHTO   C73 7334   5.509   8.373   0.107 -0.4437 -0.2445  0.2472
   18CHTO  H145 7335   5.517   8.316   0.013  0.9337 -1.7257  1.2263
   18CHTO   C74 7336   5.365   8.436   0.121 -0.0464  0.0826 -0.4814
   18CHTO  H146 7337   5.348   8.502   0.035 -1.0580  0.1508 -0.2352
   18CHTO   O54 7338   5.278   8.323   0.106 -0.4625  0.9492  0.2333
   18CHTO  H133 7339   5.233   8.301   0.185 -0.7901 -0.7440 -0.4063
   18CHTO   C75 7340   5.355   8.512   0.260  0.7693 -0.1247 -0.6036
   18CHTO  H147 7341   5.418   8.602   0.252  1.1072 -0.3996 -1.1015
   18CHTO   N13 7342   5.214   8.551   0.294 -0.0286 -0.1866 -0.3635
   18CHTO  H139 7343   5.190   8.608   0.383 -4.3530 -1.4671 -0.6368
   18CHTO  H140 7344   5.166   8.598   0.210  0.5066  2.0478  0.5123
   18CHTO   C76 7345   5.417   8.423   0.379 -0.2253  0.0359  0.2428
   18CHTO  H148 7346   5.351   8.338   0.398 -0.4899  0.2565  0.3209
   18CHTO   O49 7347   5.550   8.371   0.344 -0.2432 -0.0733 -0.3454
   18CHTO   C77 7348   5.534   8.279   0.231 -0.0989 -0.7508 -0.3505
   18CHTO  H149 7349   5.452   8.207   0.232 -0.7353 -0.0418 -1.1855
   18CHTO   C88 7350   5.665   8.201   0.201  0.1215 -0.3045 -0.5924
   18CHTO   O58 7351   5.641   8.084   0.107 -0.3902 -0.1311  0.4876
   18CHTO  H136 7352   5.634   8.110   0.017 -0.3436  0.8926  0.7692
   18CHTO   O51 7353   5.446   8.507   0.496 -0.1803  0.2887 -0.8023
   18CHTO   C78 7354   5.455   8.438   0.636  0.1846  1.3199 -0.2495
   18CHTO  H150 7355   5.435   8.329   0.632  0.5126  1.2656 -0.3919
   18CHTO   C80 7356   5.344   8.504   0.727 -0.1240  0.1415  0.4335
   18CHTO  H152 7357   5.346   8.613   0.706 -0.6433  0.0448 -0.1383
   18CHTO   O55 7358   5.218   8.463   0.664  0.1258  0.3948 -0.1111
   18CHTO  H134 7359   5.147   8.477   0.724 -1.0374 -0.3954 -1.2839
   18CHTO   C84 7360   5.363   8.483   0.882  0.2314 -0.1942  0.2039
   18CHTO  H156 7361   5.322   8.388   0.916  1.4542 -1.2893 -1.3143
   18CHTO   N15 7362   5.282   8.583   0.951 -0.1456 -0.2965  0.3229
   18CHTO  H143 7363   5.321   8.682   0.941 -1.8234  0.3347 -0.0915
   18CHTO  H144 7364   5.279   8.556   1.055 -0.5698  0.8022  0.6009
   18CHTO   C87 7365   5.512   8.490   0.919  0.4158 -0.4673 -0.0478
   18CHTO  H159 7366   5.545   8.593   0.903  1.4572 -0.6624  0.7776
   18CHTO   O53 7367   5.590   8.404   0.831  0.1938  0.0471 -0.4086
   18CHTO   C82 7368   5.595   8.456   0.700 -0.3713  0.0863  0.1338
   18CHTO  H154 7369   5.623   8.562   0.704  0.6356 -0.2017  1.2344
   18CHTO   C89 7370   5.699   8.374   0.609 -0.0396 -0.2169 -0.6673
   18CHTO   O59 7371   5.829   8.386   0.668 -0.0520 -0.0348 -0.0743
   18CHTO  H137 7372   5.879   8.314   0.635  0.5758 -0.2787  1.3908
   18CHTO   O45 7373   5.537   8.444   1.070  0.0127  0.3638 -0.3951
   18CHTO   C67 7374   5.673   8.475   1.109  0.6459  0.7072  0.0275
   18CHTO  H124 7375   5.735   8.467   1.019  0.3970 -3.6561  0.1309
   18CHTO   C65 7376   5.680   8.620   1.171 -0.4136 -0.8269 -0.0210
   18CHTO  H122 7377   5.584   8.646   1.216 -0.6078 -0.1858 -0.7983
   18CHTO   O44 7378   5.703   8.710   1.066  0.1936 -0.2810 -0.3106
   18CHTO  H102 7379   5.782   8.683   1.022 -0.1518  0.4883 -1.4029
   18CHTO   C63 7380   5.786   8.619   1.299 -0.3521 -0.0883 -0.5583
   18CHTO  H120 7381   5.736   8.584   1.389  1.1167 -0.5464  0.0941
   18CHTO   N11 7382   5.823   8.756   1.353 -0.2280  0.2237  0.3517
   18CHTO  H108 7383   5.892   8.798   1.283  0.4367 -0.3202  0.6766
   18CHTO  H109 7384   5.738   8.818   1.336  0.8633  1.4039 -0.9101
   18CHTO   C61 7385   5.912   8.524   1.269 -0.0342 -0.2758 -0.3733
   18CHTO  H118 7386   5.958   8.517   1.369 -0.4893 -0.6429 -0.1837
   18CHTO   O40 7387   5.866   8.386   1.234  0.0850  0.5618  0.2325
   18CHTO   C68 7388   5.724   8.367   1.203  0.8905  0.4321 -0.1643
   18CHTO  H125 7389   5.667   8.370   1.298  1.3519  0.1435  0.1213
   18CHTO   C72 7390   5.713   8.229   1.141 -0.0275 -0.8573 -0.0863
   18CHTO   O48 7391   5.779   8.215   1.020 -0.3119 -0.2831 -0.3546
   18CHTO  H105 7392   5.719   8.216   0.948 -1.2721  0.8727  0.4235
   18CHTO   O38 7393   5.994   8.580   1.163 -0.5302  0.1959 -0.1162
   18CHTO   C55 7394   6.129   8.533   1.169  0.3595 -0.5561  0.4704
   18CHTO  H112 7395   6.149   8.452   1.240  1.7095 -0.1835  0.5294
   18CHTO   C56 7396   6.225   8.656   1.196  0.5666  0.5416  0.4726
   18CHTO  H113 7397   6.212   8.731   1.116 -4.2991 -2.3630 -1.7187
   18CHTO   O42 7398   6.192   8.713   1.328  0.3078 -0.4902  0.1112
   18CHTO  H100 7399   6.111   8.760   1.325 -1.0600 -2.8009 -0.4953
   18CHTO   C57 7400   6.376   8.610   1.187  0.7996 -0.0533 -0.0380
   18CHTO  H114 7401   6.381   8.559   1.283  0.3053 -0.6222 -0.3055
   18CHTO   N10 7402   6.477   8.718   1.183  0.9718  0.5936 -0.2133
   18CHTO  H106 7403   6.434   8.813   1.209 -2.1743 -0.6048 -0.8313
   18CHTO  H107 7404   6.556   8.690   1.251  0.0977 -0.0964  0.5322
   18CHTO   C58 7405   6.416   8.510   1.083 -0.7197  0.8147 -0.5525
   18CHTO  H115 7406   6.469   8.551   0.995  1.3695  0.9484  0.7499
   18CHTO   O37 7407   6.305   8.431   1.034  0.6142  0.1624  0.2711
   18CHTO   C59 7408   6.174   8.482   1.026  0.3251 -0.0602 -0.0498
   18CHTO  H116 7409   6.180   8.563   0.954  0.0761  0.1734  0.1914
   18CHTO   C70 7410   6.090   8.371   0.973 -0.5360  0.1260  0.4933
   18CHTO   O46 7411   6.108   8.340   0.833 -0.1357 -0.4878  0.5545
   18CHTO  H103 7412   6.199   8.326   0.814  0.0030  1.1555 -0.0564
   18CHTO   O39 7413   6.510   8.399   1.156 -0.1748 -0.1314 -0.4113
   18CHTO   C60 7414   6.455   8.286   1.228 -0.2270 -0.2566  0.3970
   18CHTO  H117 7415   6.362   8.326   1.268 -1.0317 -0.6598 -1.0314
   18CHTO   C62 7416   6.411   8.164   1.135  0.1003 -0.0079  0.2036
   18CHTO  H119 7417   6.362   8.213   1.049  0.1651  0.8677  0.6588
   18CHTO   O43 7418   6.514   8.087   1.069  0.2900  0.2413  0.8512
   18CHTO  H101 7419   6.566   8.144   1.015 -1.5245  2.5193  1.4201
   18CHTO   C66 7420   6.305   8.079   1.214 -0.0802 -0.7019 -0.6323
   18CHTO  H123 7421   6.239   8.144   1.270  0.4904 -0.6127 -0.0544
   18CHTO   N12 7422   6.226   7.992   1.130 -0.4026  0.0055  0.2054
   18CHTO  H110 7423   6.146   7.937   1.177 -0.0114 -0.9112 -0.1752
   18CHTO  H111 7424   6.281   7.913   1.081 -2.6575 -1.8639  0.6020
   18CHTO   C69 7425   6.375   7.994   1.319  0.5420 -0.2424 -0.0102
   18CHTO  H126 7426   6.445   7.918   1.279 -0.4477 -0.8255 -0.6605
   18CHTO   O41 7427   6.476   8.110   1.413 -0.0469  0.2439  0.0112
   18CHTO   C64 7428   6.535   8.237   1.341 -0.2625 -0.2761  0.2066
   18CHTO  H121 7429   6.632   8.207   1.298 -0.3874 -0.6394  0.1748
   18CHTO   C71 7430   6.564   8.353   1.436  0.5012  0.3103  0.1210
   18CHTO   O47 7431   6.668   8.330   1.529 -0.2045 -0.1910  0.1540
   18CHTO  H104 7432   6.753   8.344   1.492 -1.1490 -0.6564 -2.2795
   18CHTO   O34 7433   6.279   7.910   1.412  0.1726  0.6965 -0.3372
   18CHTO   C49 7434   6.193   7.931   1.534 -0.3326  0.0830  0.7115
   18CHTO   H91 7435   6.257   7.913   1.620 -0.9334  1.2545  1.4187
   18CHTO   C47 7436   6.072   7.840   1.530  0.4398 -0.3298 -0.0060
   18CHTO   H89 7437   6.026   7.852   1.631 -0.3116 -2.8303 -0.0043
   18CHTO   O33 7438   6.125   7.703   1.526  0.0262 -0.6209  0.7579
   18CHTO   H70 7439   6.179   7.693   1.450 -2.6939  0.0180 -1.3740
   18CHTO   C45 7440   5.966   7.875   1.421 -0.1973  0.1717  0.0802
   18CHTO   H87 7441   6.015   7.874   1.322  0.2740  0.3895  0.3098
   18CHTO    N8 7442   5.852   7.785   1.406  0.0976 -0.1384  0.1616
   18CHTO   H75 7443   5.782   7.813   1.484 -0.8705 -1.6737 -0.1468
   18CHTO   H76 7444   5.802   7.808   1.312  0.7889 -1.4994 -0.5464
   18CHTO   C43 7445   5.920   8.034   1.444 -0.1541  0.5066 -0.0850
   18CHTO   H85 7446   5.864   8.068   1.357 -1.6731  0.8912  1.0132
   18CHTO   O29 7447   6.035   8.121   1.468  0.0313  0.0190  0.0375
   18CHTO   C50 7448   6.143   8.076   1.556 -0.4974  0.0014 -0.4935
   18CHTO   H92 7449   6.224   8.149   1.542 -0.0130 -0.3391  0.5326
   18CHTO   C54 7450   6.100   8.111   1.696 -0.2930  0.1997  0.6827
   18CHTO   O36 7451   6.217   8.102   1.782 -0.0545 -0.0500 -0.5263
   18CHTO   H72 7452   6.199   8.084   1.872  3.1510  0.8154  0.3328
   18CHTO   O27 7453   5.828   8.044   1.558  0.4452 -0.4377  0.2832
   18CHTO   C37 7454   5.754   8.136   1.643  0.2341 -0.0887  0.7616
   18CHTO   H79 7455   5.814   8.191   1.716  0.2850 -1.3969  1.7088
   18CHTO   C38 7456   5.688   8.257   1.569  0.1643  0.7236  0.1803
   18CHTO   H80 7457   5.631   8.213   1.486 -0.8207  0.7788  0.8206
   18CHTO   O31 7458   5.789   8.347   1.510  0.0831 -0.4793 -0.0918
   18CHTO   H68 7459   5.871   8.304   1.493  0.1257  0.1675 -1.5437
   18CHTO   C39 7460   5.591   8.335   1.658  0.4197 -0.9446  0.4101
   18CHTO   H81 7461   5.649   8.398   1.725 -0.5659 -1.0377  1.3841
   18CHTO    N7 7462   5.504   8.434   1.579  0.6851  0.3415  0.0635
   18CHTO   H73 7463   5.512   8.419   1.473  2.2629  2.8082 -0.2199
   18CHTO   H74 7464   5.402   8.416   1.611  1.4500 -0.2821  2.2044
   18CHTO   C40 7465   5.506   8.237   1.751 -0.0090  0.1912 -0.2249
   18CHTO   H82 7466   5.434   8.195   1.681  1.0386 -0.7602 -0.7382
   18CHTO   O26 7467   5.581   8.136   1.814  0.3679  0.0728  0.0976
   18CHTO   C41 7468   5.656   8.049   1.713 -0.2305  0.6673 -0.3686
   18CHTO   H83 7469   5.585   7.998   1.647  0.7168  0.3690 -1.1730
   18CHTO   C52 7470   5.722   7.944   1.807  0.4332 -0.1085  0.2121
   18CHTO   O35 7471   5.621   7.859   1.883  0.1298 -0.0587  0.5994
   18CHTO   H71 7472   5.664   7.785   1.920 -1.5462 -0.4928  1.7115
   18CHTO   O28 7473   5.439   8.311   1.858  0.4629  0.0201 -0.2345
   18CHTO   C42 7474   5.307   8.268   1.907 -0.2855  0.3403 -0.0980
   18CHTO   H84 7475   5.307   8.330   1.997  0.0104 -0.7775  0.6802
   18CHTO   C44 7476   5.283   8.120   1.951 -0.7130 -0.1898  0.2071
   18CHTO   H86 7477   5.321   8.053   1.875 -0.8481 -0.6679  0.5571
   18CHTO   O32 7478   5.372   8.113   2.065  0.1570 -0.1490  1.0048
   18CHTO   H69 7479   5.351   8.034   2.111 -0.1926 -1.0251 -0.6013
   18CHTO   C48 7480   5.131   8.096   1.976 -0.5588 -0.0124 -0.7296
   18CHTO   H90 7481   5.102   8.145   2.069 -0.3263  2.4521 -1.8982
   18CHTO    N9 7482   5.095   7.950   2.008  0.0518  0.6002  0.0550
   18CHTO   H77 7483   4.999   7.943   2.057  0.9039  0.7874  1.7739
   18CHTO   H78 7484   5.103   7.894   1.916  0.6523 -0.4239  0.7083
   18CHTO   C51 7485   5.052   8.152   1.846 -0.9013 -0.2557  0.0601
   18CHTO   H93 7486   5.093   8.108   1.755 -0.4110 -0.5946  0.4422
   18CHTO   O30 7487   5.073   8.296   1.848  0.0231 -0.0537  0.1691
   18CHTO   C46 7488   5.202   8.324   1.807 -0.2019  0.4588 -0.5084
   18CHTO   H88 7489   5.214   8.278   1.709  1.5534  0.5892 -0.3682
   18CHTO   C53 7490   5.215   8.475   1.780  0.0706  0.2372  0.5935
   18CHTO   O72 7491   5.180   8.561   1.887  0.0989  0.0492 -0.0026
   18CHTO  H199 7492   5.230   8.640   1.895  1.2750 -0.5722 -1.0765
   18CHTO   O22 7493   4.908   8.136   1.848  0.4000 -0.0064  0.3014
   18CHTO   C31 7494   4.836   8.138   1.715 -0.7558 -0.5031 -0.9048
   18CHTO   H59 7495   4.726   8.140   1.733 -0.4733 -0.9906  0.9293
   18CHTO   C29 7496   4.862   8.268   1.636 -0.2045  0.2188  0.5968
   18CHTO   H57 7497   4.968   8.288   1.613 -0.5957  1.5581 -0.0885
   18CHTO   O21 7498   4.807   8.372   1.717 -0.9365  0.4630  0.4319
   18CHTO   H37 7499   4.831   8.460   1.697  0.9947  0.1299  1.1253
   18CHTO   C27 7500   4.789   8.264   1.501  0.1021 -0.4966 -0.8372
   18CHTO   H55 7501   4.683   8.243   1.519 -0.4938  2.9059 -0.0933
   18CHTO    N5 7502   4.799   8.396   1.421 -0.4569  0.0061 -0.0538
   18CHTO   H43 7503   4.825   8.378   1.317  1.4654  1.0218  0.2306
   18CHTO   H44 7504   4.709   8.455   1.436 -0.5640 -0.0060 -0.6369
   18CHTO   C25 7505   4.851   8.140   1.423 -0.4741 -0.1644 -0.1773
   18CHTO   H53 7506   4.960   8.155   1.424 -0.2313 -1.8600 -0.1684
   18CHTO   O17 7507   4.817   8.021   1.491  0.3136  0.2490  0.2512
   18CHTO   C32 7508   4.867   8.015   1.623 -0.4876 -0.2649 -0.0929
   18CHTO   H60 7509   4.974   7.998   1.623 -0.4551 -0.0719  0.1546
   18CHTO   C36 7510   4.794   7.900   1.698  0.0786  0.4843 -0.0425
   18CHTO   O25 7511   4.815   7.777   1.630 -0.0891  0.2445  0.0474
   18CHTO   H40 7512   4.779   7.713   1.688  1.7960 -0.2513  0.7161
   18CHTO   O15 7513   4.812   8.139   1.260 -0.9423 -0.4077 -0.4420
   18CHTO   C19 7514   4.871   8.113   1.133 -0.7752 -0.2178 -0.1654
   18CHTO   H47 7515   4.918   8.016   1.154 -0.2500  0.0063 -0.2739
   18CHTO   C20 7516   4.774   8.111   1.014 -0.3548  0.1592  0.2691
   18CHTO   H48 7517   4.726   8.209   1.000  0.5126  0.5927  0.3286
   18CHTO   O19 7518   4.660   8.023   1.043  0.1625  0.0575 -0.3304
   18CHTO   H35 7519   4.586   8.043   0.990  0.3755 -0.6203 -0.8840
   18CHTO   C21 7520   4.848   8.067   0.883 -0.2667  0.6273 -0.1176
   18CHTO   H49 7521   4.872   7.962   0.899 -3.0939  0.1870  1.7122
   18CHTO    N4 7522   4.768   8.074   0.756 -0.2123  0.1632  0.5778
   18CHTO   H41 7523   4.677   8.016   0.767 -0.6892  0.6694 -0.6286
   18CHTO   H42 7524   4.825   8.029   0.676 -0.4489 -0.9418  1.0201
   18CHTO   C22 7525   4.992   8.131   0.865  0.2003 -0.0771  0.1214
   18CHTO   H50 7526   4.992   8.222   0.805 -2.7744 -0.2845 -0.2604
   18CHTO   O14 7527   5.056   8.155   0.991  0.1548 -0.5243  0.4939
   18CHTO   C23 7528   4.995   8.215   1.105  0.2009 -0.4185 -0.1354
   18CHTO   H51 7529   4.957   8.315   1.079  1.1572  0.0070  0.1064
   18CHTO   C34 7530   5.104   8.223   1.216  0.7551  0.4794  0.2730
   18CHTO   O23 7531   5.203   8.307   1.163  0.2619 -0.2120  0.2003
   18CHTO   H38 7532   5.249   8.345   1.235 -0.4403 -0.3689  0.7387
   18CHTO   O16 7533   5.085   8.038   0.815 -0.4746  1.1139  0.3282
   18CHTO   C24 7534   5.212   8.103   0.740  0.3646  0.1547  0.0706
   18CHTO   H52 7535   5.223   8.210   0.761  3.7911  0.5532 -3.2528
   18CHTO   C26 7536   5.191   8.061   0.594 -0.3818  0.1580  0.1731
   18CHTO   H54 7537   5.149   7.958   0.592 -2.0053  0.7534  2.5454
   18CHTO   O20 7538   5.095   8.144   0.528  0.4869  0.2277 -0.0996
   18CHTO   H36 7539   5.105   8.233   0.555 -3.1233  0.3752  0.9262
   18CHTO   C30 7540   5.324   8.064   0.511 -0.3321  0.3511 -0.4996
   18CHTO   H58 7541   5.358   8.167   0.496 -0.2183  0.3925  0.0124
   18CHTO    N6 7542   5.301   7.986   0.384 -0.4651 -0.1462 -0.1524
   18CHTO   H45 7543   5.224   8.026   0.319  1.9596  0.4656 -2.7598
   18CHTO   H46 7544   5.286   7.881   0.406  0.9986 -0.3592 -0.1537
   18CHTO   C33 7545   5.438   7.998   0.593  0.3945 -0.4443  0.1627
   18CHTO   H61 7546   5.396   7.897   0.607 -1.3410  0.1832 -0.3629
   18CHTO   O18 7547   5.451   8.058   0.718 -0.0253  0.0539  0.7967
   18CHTO   C28 7548   5.338   8.032   0.800 -0.6242  0.0805  0.0927
   18CHTO   H56 7549   5.315   7.926   0.809 -2.0525  0.3647 -0.0512
   18CHTO   C35 7550   5.377   8.096   0.943 -0.3842 -0.4589  0.0080
   18CHTO   O24 7551   5.483   8.028   1.008  0.1951 -0.0207  0.0988
   18CHTO   H39 7552   5.525   8.086   1.068  0.8342 -0.9881  0.6068
   18CHTO    O9 7553   5.560   7.986   0.526  0.0719 -0.2261 -0.3068
   18CHTO   C13 7554   5.657   7.868   0.592 -0.7486  0.6951  0.1016
   18CHTO   H26 7555   5.591   7.787   0.630 -1.7066  1.4497  0.0470
   18CHTO   C11 7556   5.748   7.926   0.713  1.0552 -0.5837  0.8993
   18CHTO   H24 7557   5.677   7.964   0.788  0.2564 -0.1071 -0.0922
   18CHTO    O8 7558   5.805   8.048   0.660 -0.3358 -0.6653  0.1018
   18CHTO    H3 7559   5.741   8.095   0.610 -1.1645 -2.2527 -0.3492
   18CHTO    C9 7560   5.855   7.821   0.761  0.3902  0.3473  0.1669
   18CHTO   H22 7561   5.796   7.738   0.803  2.4888 -0.5778  1.3611
   18CHTO    N2 7562   5.943   7.876   0.869 -0.3490  0.0356  0.6597
   18CHTO   H10 7563   5.883   7.951   0.918 -1.5931 -0.0759 -0.6731
   18CHTO   H11 7564   6.035   7.916   0.830  0.2531 -0.6895  1.3317
   18CHTO    C7 7565   5.941   7.769   0.633  0.4154  0.0093  0.0392
   18CHTO   H20 7566   5.996   7.681   0.671  0.6954  0.0914 -0.1714
   18CHTO    O4 7567   5.852   7.723   0.533  0.1127  0.4653 -0.2888
   18CHTO   C14 7568   5.746   7.803   0.484  0.2322 -0.1317 -0.2041
   18CHTO   H27 7569   5.681   7.734   0.425  0.4626  0.3880 -1.0845
   18CHTO   C18 7570   5.799   7.906   0.386  0.3128 -0.1198 -0.2297
   18CHTO   O13 7571   5.855   7.843   0.273  0.5487  0.9775 -0.1510
   18CHTO    H7 7572   5.805   7.852   0.195  1.5311  0.9900 -0.7809
   18CHTO    O2 7573   6.041   7.898   0.568  0.3735  0.2868 -0.6842
   18CHTO    C1 7574   6.170   7.846   0.524 -0.7550  0.1828 -0.0486
   18CHTO   H14 7575   6.192   7.913   0.438 -0.8416  0.8145  0.4125
   18CHTO    C2 7576   6.176   7.695   0.468 -0.2181  0.0381 -0.1571
   18CHTO   H15 7577   6.145   7.625   0.547  3.9609 -1.8566 -0.0362
   18CHTO    O6 7578   6.097   7.684   0.351  0.4897  0.4911 -0.3246
   18CHTO    H1 7579   6.012   7.717   0.372  0.6253  0.7270 -0.1398
   18CHTO    C3 7580   6.333   7.651   0.449  0.1870  0.4334  0.4063
   18CHTO   H16 7581   6.370   7.699   0.357  0.9594  0.2012  0.5929
   18CHTO    N1 7582   6.351   7.502   0.426 -0.0731 -0.3215  0.1901
   18CHTO    H8 7583   6.307   7.477   0.330 -2.3966  0.5679  0.9765
   18CHTO    H9 7584   6.455   7.474   0.422  0.2747  0.9992 -0.1674
   18CHTO    C4 7585   6.428   7.706   0.566  0.4813  0.2736  0.1332
   18CHTO   H17 7586   6.407   7.643   0.652 -0.2210 -1.9387 -1.5919
   18CHTO    O1 7587   6.404   7.842   0.586  1.2644  0.0726  0.6022
   18CHTO    C5 7588   6.270   7.876   0.637 -0.7612 -0.8314  0.4330
   18CHTO   H18 7589   6.253   7.803   0.717 -0.9283 -0.5587  0.6466
   18CHTO   C16 7590   6.267   8.020   0.692  0.0230 -0.2676  0.2474
   18CHTO   O11 7591   6.324   8.044   0.821  0.2177  0.4034 -0.6582
   18CHTO    H5 7592   6.399   8.096   0.801 -0.1389  1.8774  1.7283
   18CHTO    O3 7593   6.571   7.693   0.539  0.5075  0.2702 -0.6366
   18CHTO    C6 7594   6.668   7.725   0.648  0.1417  0.0808  0.9292
   18CHTO   H19 7595   6.620   7.756   0.741  1.8770 -1.8686  2.5095
   18CHTO    C8 7596   6.748   7.600   0.696 -0.3149 -0.2370  0.7583
   18CHTO   H21 7597   6.800   7.556   0.610 -1.4559 -1.8616  0.8813
   18CHTO    O7 7598   6.655   7.507   0.749  0.3724  0.2650 -0.0004
   18CHTO    H2 7599   6.602   7.547   0.816 -0.6815 -0.5864 -0.3124
   18CHTO   C12 7600   6.850   7.635   0.811 -0.8156  0.0817 -0.0403
   18CHTO   H25 7601   6.799   7.681   0.899 -0.7782  0.5964 -0.2858
   18CHTO    N3 7602   6.930   7.512   0.859 -0.0045  0.3629  0.2856
   18CHTO   H12 7603   6.940   7.428   0.792  2.4422  1.7385 -1.1552
   18CHTO   H13 7604   6.914   7.481   0.961  0.0568 -2.0911 -0.4179
   18CHTO   C15 7605   6.941   7.749   0.757 -0.1993 -0.1593 -0.0233
   18CHTO   H28 7606   7.002   7.711   0.676  1.8782 -1.1652  1.9737
   18CHTO   O10 7607   7.041   7.812   0.862  0.6642  0.0660  0.2908
   18CHTO    H4 7608   7.015   7.787   0.948 -1.8001  1.4525 -0.0090
   18CHTO    O5 7609   6.870   7.866   0.717  0.1216 -0.2907  0.1730
   18CHTO   C10 7610   6.766   7.842   0.611 -0.9475 -0.1594  0.4320
   18CHTO   H23 7611   6.818   7.809   0.521  1.0039 -0.8307  1.7681
   18CHTO   C17 7612   6.687   7.971   0.588 -0.0040 -0.7928  0.1292
   18CHTO   O12 7613   6.757   8.088   0.558 -0.3690  0.0311 -0.1440
   18CHTO    H6 7614   6.790   8.093   0.471  0.2580 -0.0703  0.0822
   19CHTO  H203 7615   5.149   9.383   2.481  0.9129  0.5501  0.5670
   19CHTO   O82 7616   5.192   9.358   2.402  0.2715  0.6741  0.1760
   19CHTO  C123 7617   5.140   9.234   2.350  0.0289 -0.2373 -0.1737
   19CHTO  H227 7618   5.054   9.247   2.284  1.0687 -1.6377 -1.8681
   19CHTO   O77 7619   5.259   9.191   2.273  0.0247 -0.1685 -0.5189
   19CHTO  C118 7620   5.219   9.071   2.202 -0.1313  0.2865 -0.1051
   19CHTO  H222 7621   5.121   9.088   2.155 -0.5164 -0.3717  0.4533
   19CHTO  C125 7622   5.333   9.039   2.093 -0.0000 -0.3167 -0.7445
   19CHTO   O84 7623   5.453   9.018   2.166  0.2339  0.1472  0.3723
   19CHTO  H205 7624   5.451   8.980   2.251 -1.1975 -0.3640  0.1199
   19CHTO  C114 7625   5.209   8.959   2.309 -0.2287 -0.0676 -0.1472
   19CHTO  H218 7626   5.300   8.956   2.368 -0.3876 -2.3020  0.0099
   19CHTO  C116 7627   5.098   8.985   2.404 -0.1349  0.1677  0.4380
   19CHTO  H220 7628   5.003   8.972   2.348  1.1569 -0.0743 -1.7552
   19CHTO   O79 7629   5.113   8.880   2.501 -0.3393 -0.0876  0.1085
   19CHTO  H201 7630   5.110   8.904   2.592 -1.6364 -1.0681  0.3349
   19CHTO  C120 7631   5.110   9.133   2.470  0.3760 -0.5480 -1.0945
   19CHTO  H224 7632   5.201   9.133   2.532 -1.1833 -2.4581  1.2623
   19CHTO   N21 7633   5.001   9.171   2.559 -0.0628 -0.7488  0.0868
   19CHTO  H211 7634   4.917   9.215   2.506  1.0392 -0.1194 -1.1808
   19CHTO  H212 7635   5.030   9.243   2.633 -2.0846 -1.4790  1.6502
   19CHTO   O75 7636   5.186   8.837   2.236  0.0314 -0.2227 -0.6762
   19CHTO  C112 7637   5.312   8.712   2.301  0.0652  0.1776  0.0213
   19CHTO  H216 7638   5.329   8.725   2.409 -0.1069  1.2375 -0.0732
   19CHTO   O73 7639   5.436   8.736   2.231  0.8077  0.2058  0.3337
   19CHTO  C113 7640   5.531   8.654   2.285 -0.0192  0.4890 -0.1962
   19CHTO  H217 7641   5.536   8.662   2.396  0.2964 -1.0707 -0.0945
   19CHTO  C124 7642   5.670   8.697   2.237  0.3062 -0.2068  0.0624
   19CHTO   O83 7643   5.692   8.840   2.248  0.1205  0.1321  0.3302
   19CHTO  H204 7644   5.764   8.860   2.304  0.5108 -3.3368  1.2280
   19CHTO  C109 7645   5.504   8.505   2.249  0.0622 -0.6180  0.5003
   19CHTO  H213 7646   5.500   8.495   2.139  1.9340 -2.9183  0.6231
   19CHTO  C110 7647   5.368   8.468   2.314  0.1371  0.2100 -0.0092
   19CHTO  H214 7648   5.383   8.468   2.422  0.2182 -2.3822 -0.0024
   19CHTO   O78 7649   5.324   8.338   2.281 -0.4635 -0.2304  0.4180
   19CHTO  H200 7650   5.354   8.271   2.339  0.4246 -1.7426 -1.6992
   19CHTO  C111 7651   5.261   8.565   2.277  0.3667 -0.0168  0.0347
   19CHTO  H215 7652   5.235   8.553   2.171  1.0354  0.9618 -0.2483
   19CHTO   N19 7653   5.133   8.554   2.354 -0.0533  0.4550  0.4651
   19CHTO  H207 7654   5.083   8.643   2.389 -2.6887  0.2248 -2.4701
   19CHTO  H208 7655   5.070   8.502   2.283  2.9036  0.3512 -2.2370
   19CHTO   O74 7656   5.609   8.421   2.299 -0.4647 -0.1125  0.3495
   19CHTO  C115 7657   5.655   8.309   2.201  0.4157  0.4227 -0.0452
   19CHTO  H219 7658   5.569   8.253   2.164  1.5168  0.5364 -2.8449
   19CHTO   O76 7659   5.719   8.369   2.080  0.2349  0.0960 -0.1569
   19CHTO  C122 7660   5.860   8.394   2.073  0.0600 -0.2501 -0.3069
   19CHTO  H226 7661   5.868   8.479   2.140  0.4650  0.2207 -0.9416
   19CHTO  C126 7662   5.880   8.450   1.928 -0.8184  0.6077 -0.4822
   19CHTO   O85 7663   5.808   8.574   1.904  0.3919  0.5879 -0.1899
   19CHTO  H206 7664   5.835   8.621   1.828 -0.4273 -1.3396 -1.7360
   19CHTO  C121 7665   5.948   8.267   2.106  0.1423 -0.4559 -0.3714
   19CHTO  H225 7666   6.001   8.232   2.016  1.6170  0.2814  0.2023
   19CHTO   O81 7667   6.055   8.307   2.183  0.4442 -0.0928 -0.9340
   19CHTO  H202 7668   6.097   8.232   2.221 -0.6345  0.0840  0.6230
   19CHTO  C119 7669   5.858   8.148   2.161  0.2660  0.5778 -0.0017
   19CHTO  H223 7670   5.798   8.105   2.081 -0.1595  0.7812  0.2117
   19CHTO  C117 7671   5.759   8.212   2.273 -0.3872  0.1800  0.3728
   19CHTO  H221 7672   5.811   8.265   2.352  2.3209 -2.6669  0.5969
   19CHTO   N20 7673   5.671   8.109   2.337 -0.1913 -0.2702 -0.2651
   19CHTO  H209 7674   5.714   8.064   2.426  0.9630  1.3858  0.0400
   19CHTO  H210 7675   5.651   8.030   2.266 -0.1848 -0.7080  0.2099
   19CHTO   O80 7676   5.935   8.018   2.203 -0.0796  0.0740 -0.3963
   19CHTO  C103 7677   5.984   7.923   2.102  0.2467  0.5938 -0.6790
   19CHTO  H190 7678   5.950   7.956   2.004 -2.1619  2.3031  0.6816
   19CHTO  C101 7679   6.144   7.895   2.097 -0.6973 -0.0773 -0.4224
   19CHTO  H188 7680   6.171   7.838   2.185 -0.6800 -1.2926 -1.2058
   19CHTO   O68 7681   6.216   8.032   2.088  0.7479 -0.3059 -0.6701
   19CHTO  H168 7682   6.214   8.077   2.170  2.1113 -0.6808 -0.4228
   19CHTO   C99 7683   6.172   7.806   1.964 -0.5677  0.2932  0.2927
   19CHTO  H186 7684   6.145   7.864   1.874  1.5770  0.1561 -0.4753
   19CHTO   N17 7685   6.319   7.771   1.948  0.2221 -0.5848  0.3513
   19CHTO  H174 7686   6.358   7.788   1.849  0.0077 -0.7630  0.2346
   19CHTO  H175 7687   6.366   7.839   2.018 -1.6861  0.1003  1.0058
   19CHTO   C97 7688   6.087   7.680   1.962  0.7002  0.0956 -0.1251
   19CHTO  H184 7689   6.142   7.611   2.027 -1.1291 -0.2249  1.1278
   19CHTO   O64 7690   5.954   7.703   2.013 -0.1532 -0.1182 -0.1214
   19CHTO  C104 7691   5.922   7.784   2.128  0.3432 -0.0855 -0.1829
   19CHTO  H191 7692   5.975   7.741   2.213  3.2884  3.0411 -0.2936
   19CHTO  C108 7693   5.768   7.772   2.167 -0.4251  0.4129  0.6175
   19CHTO   O71 7694   5.726   7.639   2.210  0.1984 -0.0748 -0.1672
   19CHTO  H171 7695   5.770   7.623   2.291 -1.0448 -2.6740  0.0248
   19CHTO   O62 7696   6.070   7.627   1.827  0.8262 -0.3123 -0.2119
   19CHTO   C91 7697   6.001   7.501   1.815 -0.8226  0.3754  0.4831
   19CHTO  H178 7698   5.965   7.469   1.913 -0.7593 -0.8823  0.1130
   19CHTO   C92 7699   6.106   7.390   1.771  0.0935 -0.0668 -0.0511
   19CHTO  H179 7700   6.152   7.435   1.682  2.2946 -0.8038  0.6597
   19CHTO   O66 7701   6.205   7.377   1.877 -0.0991 -0.2965  0.2282
   19CHTO  H166 7702   6.219   7.464   1.909  2.9091 -1.0383  1.0779
   19CHTO   C93 7703   6.031   7.254   1.739 -0.4365  0.1810 -0.2858
   19CHTO  H180 7704   5.984   7.224   1.834  0.0906  2.4174  0.7135
   19CHTO   N16 7705   6.117   7.138   1.702 -0.0339 -1.1490 -0.2490
   19CHTO  H172 7706   6.055   7.057   1.667 -0.9662 -0.0983 -1.0603
   19CHTO  H173 7707   6.176   7.105   1.786  0.4024 -0.7397 -0.3947
   19CHTO   C94 7708   5.919   7.275   1.633 -0.0729  0.9115  0.0215
   19CHTO  H181 7709   5.958   7.320   1.541  0.9542  0.5700  0.2833
   19CHTO   O61 7710   5.832   7.370   1.703  0.4855 -0.4113  0.0652
   19CHTO   C95 7711   5.882   7.500   1.716  0.5992 -0.0028  0.3059
   19CHTO  H182 7712   5.917   7.538   1.620  1.0333  2.1047  1.2545
   19CHTO  C106 7713   5.772   7.598   1.765  0.1309  0.8485  0.5128
   19CHTO   O69 7714   5.649   7.569   1.690 -0.7944 -0.2904 -0.2702
   19CHTO  H169 7715   5.666   7.601   1.603 -0.8787  1.7603  0.4441
   19CHTO   O63 7716   5.811   7.149   1.603 -0.3694 -0.4223 -0.0787
   19CHTO   C96 7717   5.690   7.162   1.496  0.2239  0.1967  0.3227
   19CHTO  H183 7718   5.740   7.145   1.400 -0.2374 -1.1422  0.2980
   19CHTO   C98 7719   5.607   7.299   1.502 -0.6070  0.8807 -0.3128
   19CHTO  H185 7720   5.605   7.338   1.605  1.0952 -0.0229  0.0777
   19CHTO   O67 7721   5.669   7.401   1.431  0.0266 -0.4096 -0.1318
   19CHTO  H167 7722   5.652   7.384   1.340  0.2965 -0.8433 -0.1070
   19CHTO  C102 7723   5.452   7.284   1.448 -1.0543 -0.2860  0.2403
   19CHTO  H189 7724   5.461   7.279   1.338  0.2936 -2.2360  0.4200
   19CHTO   N18 7725   5.359   7.406   1.474 -0.8649  0.3415 -0.7622
   19CHTO  H176 7726   5.423   7.494   1.470 -1.3735  0.9247  2.5811
   19CHTO  H177 7727   5.335   7.409   1.579  2.2166  2.3082 -0.0487
   19CHTO  C105 7728   5.393   7.156   1.506 -0.5490 -0.0176 -0.1153
   19CHTO  H192 7729   5.402   7.161   1.615  0.0681  0.5538 -0.1889
   19CHTO   O65 7730   5.469   7.049   1.449 -0.7747  0.4222 -0.0385
   19CHTO  C100 7731   5.598   7.037   1.518 -0.1523  0.1324 -0.4652
   19CHTO  H187 7732   5.579   7.027   1.626 -1.5254  1.0797 -0.6139
   19CHTO  C107 7733   5.664   6.909   1.460  0.0564  0.1125  0.1393
   19CHTO   O70 7734   5.793   6.877   1.520 -0.7032 -0.0949 -0.3181
   19CHTO  H170 7735   5.791   6.784   1.510 -2.0355 -0.1294  0.2406
   19CHTO   O57 7736   5.241   7.135   1.471  0.2590 -0.8597  0.0814
   19CHTO   C85 7737   5.166   7.036   1.545  0.1943  0.4299 -0.0500
   19CHTO  H157 7738   5.229   7.013   1.633  0.3890 -1.8762 -0.7480
   19CHTO   C83 7739   5.155   6.906   1.465  0.4758  0.5791 -0.4480
   19CHTO  H155 7740   5.252   6.859   1.446 -1.1716 -2.0252 -2.7781
   19CHTO   O56 7741   5.100   6.948   1.337 -0.6618 -0.5715 -0.1927
   19CHTO  H135 7742   5.164   6.963   1.270  2.1428 -0.4880  2.3685
   19CHTO   C81 7743   5.078   6.804   1.550 -0.1063 -0.7143 -0.7062
   19CHTO  H153 7744   5.125   6.797   1.648  0.1770  0.3367 -0.7582
   19CHTO   N14 7745   5.089   6.668   1.499 -0.1311  0.7008  0.3619
   19CHTO  H141 7746   5.173   6.614   1.538 -0.9281  0.1878  1.4007
   19CHTO  H142 7747   5.084   6.661   1.392 -3.7199 -2.9786  0.6739
   19CHTO   C79 7748   4.929   6.846   1.576  0.1717 -0.6479 -0.1208
   19CHTO  H151 7749   4.888   6.774   1.646 -0.5075  0.2896  0.4661
   19CHTO   O52 7750   4.930   6.975   1.639  0.3067  0.5750  0.0891
   19CHTO   C86 7751   5.017   7.081   1.580  0.1764  0.2634 -0.1164
   19CHTO  H158 7752   4.973   7.116   1.484  1.0480  0.1008 -0.5778
   19CHTO   C90 7753   5.031   7.205   1.672  0.5255  0.1125  0.3867
   19CHTO   O60 7754   4.897   7.263   1.683 -0.0546  0.5405 -0.2604
   19CHTO  H138 7755   4.862   7.262   1.596  0.7972 -1.1422 -0.5938
   19CHTO   O50 7756   4.844   6.851   1.453 -0.1618  0.9937  0.1690
   19CHTO   C73 7757   4.729   6.830   1.376  0.3209  0.5281  0.6013
   19CHTO  H145 7758   4.707   6.722   1.377  0.3047  0.5283  0.2212
   19CHTO   C74 7759   4.757   6.887   1.237  0.0763 -0.2961  0.5407
   19CHTO  H146 7760   4.844   6.836   1.192  0.1351  1.1510 -1.0377
   19CHTO   O54 7761   4.647   6.849   1.154 -0.2611 -0.4122  0.0825
   19CHTO  H133 7762   4.675   6.809   1.074  0.0719 -0.7699  0.3750
   19CHTO   C75 7763   4.777   7.044   1.241 -0.0190  0.3328  0.4671
   19CHTO  H147 7764   4.867   7.063   1.300  1.6196  0.9412 -2.1313
   19CHTO   N13 7765   4.807   7.113   1.112  0.1693  0.1673  0.0701
   19CHTO  H139 7766   4.914   7.120   1.097  0.1661  0.5640  0.2142
   19CHTO  H140 7767   4.764   7.211   1.097 -1.7081 -0.4758  1.1308
   19CHTO   C76 7768   4.659   7.114   1.333  0.4400 -0.7273  0.6712
   19CHTO  H148 7769   4.565   7.103   1.278  1.1807  1.2234 -1.0759
   19CHTO   O49 7770   4.644   7.041   1.454 -0.5273 -0.0126 -0.3546
   19CHTO   C77 7771   4.618   6.903   1.449  0.3878  0.2007  0.1382
   19CHTO  H149 7772   4.521   6.879   1.405  1.0129 -0.3049 -0.9841
   19CHTO   C88 7773   4.598   6.839   1.586  0.2550  1.4156 -0.7578
   19CHTO   O58 7774   4.477   6.909   1.661 -0.2623  0.3752 -0.1192
   19CHTO  H136 7775   4.398   6.896   1.611  0.5102 -1.1919 -0.9602
   19CHTO   O51 7776   4.693   7.267   1.378  0.4193  0.3081  0.0226
   19CHTO   C78 7777   4.587   7.390   1.324 -0.2466  0.1474 -0.0530
   19CHTO  H150 7778   4.525   7.350   1.241 -0.3778 -0.3312  0.2693
   19CHTO   C80 7779   4.670   7.513   1.267 -0.1341 -0.5854  0.0139
   19CHTO  H152 7780   4.756   7.524   1.336 -0.1483  0.6402 -0.1522
   19CHTO   O55 7781   4.731   7.467   1.140  0.0243  0.7353 -0.5941
   19CHTO  H134 7782   4.802   7.521   1.112 -0.2856  2.1648  1.3400
   19CHTO   C84 7783   4.586   7.645   1.260  0.0520  0.3930 -1.1092
   19CHTO  H156 7784   4.535   7.653   1.164 -2.3209 -3.4762 -0.2705
   19CHTO   N15 7785   4.677   7.768   1.262  0.0876 -0.1878  0.0018
   19CHTO  H143 7786   4.639   7.842   1.194 -0.3704  0.0370  0.5005
   19CHTO  H144 7787   4.773   7.739   1.225  0.1009 -0.9379  0.6247
   19CHTO   C87 7788   4.475   7.662   1.364  0.1503 -0.5905 -0.4772
   19CHTO  H159 7789   4.507   7.704   1.459 -1.2953  1.4506 -0.8736
   19CHTO   O53 7790   4.402   7.531   1.386 -0.0038  0.3245 -0.1275
   19CHTO   C82 7791   4.489   7.428   1.433 -0.4310 -0.2960  0.7851
   19CHTO  H154 7792   4.548   7.471   1.514 -0.2221 -0.3652  0.6683
   19CHTO   C89 7793   4.409   7.310   1.488 -0.2090  0.9740  0.2303
   19CHTO   O59 7794   4.302   7.357   1.568 -0.0881 -0.2823  0.7632
   19CHTO  H137 7795   4.282   7.292   1.633 -0.3078  0.7049  1.7013
   19CHTO   O45 7796   4.357   7.785   1.305 -0.0695 -0.0045 -0.1473
   19CHTO   C67 7797   4.301   7.857   1.413 -0.5326 -0.2178 -0.4541
   19CHTO  H124 7798   4.302   7.794   1.502  0.9093  0.9869  0.4059
   19CHTO   C65 7799   4.381   7.988   1.444  0.1815  0.6154  0.1083
   19CHTO  H122 7800   4.444   8.014   1.359  1.2408  0.4764  0.8414
   19CHTO   O44 7801   4.471   7.950   1.549 -0.5954  0.2874 -0.6002
   19CHTO  H102 7802   4.541   7.907   1.504 -0.6565  1.0510 -1.4251
   19CHTO   C63 7803   4.292   8.112   1.493 -0.5066  0.0722 -0.2565
   19CHTO  H120 7804   4.258   8.172   1.408 -0.8667  1.0724  0.5833
   19CHTO   N11 7805   4.361   8.225   1.571 -0.0914  0.7904 -0.1045
   19CHTO  H108 7806   4.451   8.246   1.517  0.3796  0.3191  0.4896
   19CHTO  H109 7807   4.410   8.183   1.656 -1.2152  1.5008  0.9213
   19CHTO   C61 7808   4.162   8.051   1.568 -0.2379 -0.0746  0.0891
   19CHTO  H118 7809   4.101   8.134   1.604 -1.1342 -1.6077  2.2093
   19CHTO   O40 7810   4.086   7.970   1.483  0.2578  0.0053  0.5445
   19CHTO   C68 7811   4.150   7.881   1.378 -0.2186 -0.1866  0.3020
   19CHTO  H125 7812   4.137   7.923   1.277  1.1095 -2.4944 -0.8696
   19CHTO   C72 7813   4.068   7.752   1.388 -0.4506  0.2687  0.4410
   19CHTO   O48 7814   4.114   7.666   1.273  0.4614 -0.3156  0.2571
   19CHTO  H105 7815   4.081   7.579   1.265  2.5001 -0.9047 -2.6367
   19CHTO   O38 7816   4.210   7.968   1.677  0.0403 -0.1047 -0.0674
   19CHTO   C55 7817   4.125   7.869   1.731  0.5415  0.1162  0.4330
   19CHTO  H112 7818   4.092   7.798   1.654  0.7994 -2.5635  2.6913
   19CHTO   C56 7819   4.014   7.933   1.813  0.9081  0.2652 -0.1828
   19CHTO  H113 7820   4.058   8.005   1.884  2.0027 -0.2919 -0.2877
   19CHTO   O42 7821   3.921   8.009   1.730 -0.9841 -0.3828  0.3450
   19CHTO  H100 7822   3.876   8.064   1.792  2.3644  0.6218  2.0455
   19CHTO   C57 7823   3.929   7.820   1.891 -0.6924 -1.0425  0.0753
   19CHTO  H114 7824   3.880   7.764   1.811 -1.7648 -1.1478  0.8014
   19CHTO   N10 7825   3.822   7.866   1.983 -0.1875 -0.6727 -0.0731
   19CHTO  H106 7826   3.781   7.962   1.957  3.2340 -0.1344 -4.0943
   19CHTO  H107 7827   3.744   7.791   1.975 -2.1091  1.1821  0.8666
   19CHTO   C58 7828   4.028   7.722   1.972  0.8662  0.5426  0.4170
   19CHTO  H115 7829   4.063   7.769   2.066  2.4755 -3.1943  1.8191
   19CHTO   O37 7830   4.137   7.674   1.889 -0.7270  0.6455 -0.5457
   19CHTO   C59 7831   4.210   7.780   1.826 -0.9923 -0.1050 -0.1641
   19CHTO  H116 7832   4.254   7.839   1.906  1.0030 -1.3463 -0.3221
   19CHTO   C70 7833   4.332   7.709   1.755  0.0615 -0.1155 -0.2310
   19CHTO   O46 7834   4.291   7.592   1.682  0.3426  0.3748 -0.4377
   19CHTO  H103 7835   4.219   7.621   1.630 -0.8167 -1.1581  0.2940
   19CHTO   O39 7836   3.937   7.589   2.021  0.0414  0.0707 -0.1217
   19CHTO   C60 7837   3.934   7.460   1.954 -0.1469  0.7107  0.5187
   19CHTO  H117 7838   3.940   7.476   1.846  2.8718 -3.4740 -0.0632
   19CHTO   C62 7839   4.058   7.376   2.007 -0.7910  0.2037 -0.7006
   19CHTO  H119 7840   4.142   7.444   1.980 -0.7411  0.7815  0.8693
   19CHTO   O43 7841   4.064   7.354   2.149 -0.3451  0.5284 -0.1580
   19CHTO  H101 7842   4.020   7.428   2.187 -0.9576 -0.0887  0.3555
   19CHTO   C66 7843   4.066   7.245   1.926 -0.1949 -0.3009  0.3286
   19CHTO  H123 7844   4.077   7.270   1.821 -1.2322  1.1171  0.5435
   19CHTO   N12 7845   4.192   7.174   1.948  0.0496 -0.4245  0.2072
   19CHTO  H110 7846   4.274   7.217   1.892  0.6199 -1.3150  0.3382
   19CHTO  H111 7847   4.221   7.174   2.053 -2.1426 -0.8370  0.8387
   19CHTO   C69 7848   3.938   7.162   1.941 -0.4553  0.5784 -0.0255
   19CHTO  H126 7849   3.934   7.111   2.040 -3.3545 -2.3815 -1.5788
   19CHTO   O41 7850   3.804   7.244   1.919  0.0604 -0.4713 -0.6359
   19CHTO   C64 7851   3.804   7.383   1.984  0.5855 -0.2754  0.1309
   19CHTO  H121 7852   3.797   7.358   2.092 -0.1320 -0.8741 -0.0473
   19CHTO   C71 7853   3.681   7.461   1.939 -0.7705  0.6202 -0.1602
   19CHTO   O47 7854   3.568   7.389   1.981  0.1095  0.1649  0.3396
   19CHTO  H104 7855   3.552   7.308   1.938 -0.8175  0.8431 -0.6177
   19CHTO   O34 7856   3.949   7.030   1.839 -0.5070  0.3207  0.3833
   19CHTO   C49 7857   3.881   7.024   1.701 -0.2275 -0.5921 -0.3501
   19CHTO   H91 7858   3.776   7.025   1.729 -0.4526 -1.2275 -1.1759
   19CHTO   C47 7859   3.914   6.895   1.620  0.3051  0.4569 -0.7240
   19CHTO   H89 7860   3.835   6.890   1.542 -0.8704 -1.1559  0.5271
   19CHTO   O33 7861   3.894   6.784   1.704 -0.3503 -0.0141  0.0441
   19CHTO   H70 7862   3.950   6.716   1.673  0.5622  0.9874 -0.5309
   19CHTO   C45 7863   4.058   6.904   1.566 -0.7322 -0.0893 -0.1819
   19CHTO   H87 7864   4.122   6.917   1.654 -1.7515  0.0826  0.5394
   19CHTO    N8 7865   4.099   6.780   1.495 -0.0917  0.1664  0.1867
   19CHTO   H75 7866   4.204   6.770   1.471 -0.6395 -5.0971 -0.6942
   19CHTO   H76 7867   4.065   6.690   1.543  2.8888 -0.5786  0.9835
   19CHTO   C43 7868   4.077   7.041   1.477 -0.1484 -0.0167  0.0536
   19CHTO   H85 7869   4.185   7.036   1.470 -0.1590 -2.5555  1.1146
   19CHTO   O29 7870   4.035   7.156   1.544  0.3694 -0.2954  0.0581
   19CHTO   C50 7871   3.906   7.147   1.613 -0.5072  0.7554  0.2538
   19CHTO   H92 7872   3.911   7.229   1.685  1.6466  0.4259  0.5002
   19CHTO   C54 7873   3.787   7.196   1.519  0.6306  0.3825  0.2061
   19CHTO   O36 7874   3.799   7.326   1.472 -0.0920 -0.5730  0.2801
   19CHTO   H72 7875   3.720   7.359   1.433 -0.6521 -1.2323  0.8529
   19CHTO   O27 7876   4.019   7.033   1.343  0.4704  0.5785  0.3045
   19CHTO   C37 7877   4.045   7.076   1.208 -0.2295 -0.1389 -0.4513
   19CHTO   H79 7878   3.998   7.003   1.140  0.4363  0.3051 -1.3878
   19CHTO   C38 7879   3.962   7.212   1.190  0.8139 -0.2583  0.0115
   19CHTO   H80 7880   3.979   7.275   1.279 -1.0268 -0.7066  0.7056
   19CHTO   O31 7881   3.820   7.174   1.183 -0.4972 -0.3440 -0.0030
   19CHTO   H68 7882   3.764   7.217   1.121 -0.0311  0.7424  0.3182
   19CHTO   C39 7883   4.004   7.291   1.056  0.3653  0.0597  0.5223
   19CHTO   H81 7884   3.976   7.225   0.973 -2.8179  0.9750  0.8444
   19CHTO    N7 7885   3.932   7.423   1.033 -0.1199  0.7663 -0.5588
   19CHTO   H73 7886   3.989   7.483   0.964 -0.2014  1.5262  0.0243
   19CHTO   H74 7887   3.925   7.476   1.127  1.9555  0.3866 -0.1737
   19CHTO   C40 7888   4.155   7.300   1.050  0.3300  0.7759 -1.1235
   19CHTO   H82 7889   4.188   7.358   1.137  0.3802  0.2150 -0.7657
   19CHTO   O26 7890   4.210   7.161   1.051 -0.3683 -0.3882  0.0478
   19CHTO   C41 7891   4.198   7.095   1.180  0.2575 -0.0112 -0.6109
   19CHTO   H83 7892   4.243   7.162   1.254 -0.2734  0.0633 -0.3523
   19CHTO   C52 7893   4.275   6.961   1.177 -0.1628 -0.1498  0.2352
   19CHTO   O35 7894   4.401   6.984   1.157 -0.1282  0.1101 -0.2186
   19CHTO   H71 7895   4.434   7.030   1.232  1.6613 -0.6825 -0.4858
   19CHTO   O28 7896   4.212   7.364   0.938  0.0214  0.2187 -0.2941
   19CHTO   C42 7897   4.322   7.467   0.952 -0.1547  0.3400 -0.2015
   19CHTO   H84 7898   4.339   7.486   1.058  0.8959  1.6405 -0.6030
   19CHTO   C44 7899   4.291   7.605   0.883  0.3857  0.0083 -0.6911
   19CHTO   H86 7900   4.257   7.585   0.781 -0.3977 -2.4549  0.0075
   19CHTO   O32 7901   4.185   7.667   0.965  0.2339  0.0002  0.1389
   19CHTO   H69 7902   4.116   7.690   0.906 -1.5905 -0.1003  2.1686
   19CHTO   C48 7903   4.407   7.714   0.860 -0.5060  0.1128 -0.3843
   19CHTO   H90 7904   4.435   7.766   0.951 -0.2707 -0.4164 -0.1518
   19CHTO    N9 7905   4.362   7.826   0.767  0.1712 -0.1942 -0.0541
   19CHTO   H77 7906   4.442   7.897   0.754  0.1078 -0.2502 -0.8248
   19CHTO   H78 7907   4.334   7.785   0.671  0.4907  0.2775 -0.3487
   19CHTO   C51 7908   4.536   7.640   0.800 -0.4813  0.2544  0.2544
   19CHTO   H93 7909   4.507   7.600   0.703 -0.7608 -1.8265  1.1679
   19CHTO   O30 7910   4.569   7.532   0.895 -0.1882  0.2891  0.0236
   19CHTO   C46 7911   4.448   7.414   0.894 -0.2497  0.6571  0.1810
   19CHTO   H88 7912   4.437   7.393   0.788 -0.7489  0.0301  0.3594
   19CHTO   C53 7913   4.499   7.298   0.972 -0.1448  0.0355 -0.3882
   19CHTO   O72 7914   4.603   7.243   0.894 -0.2786 -0.3854  0.4637
   19CHTO  H199 7915   4.638   7.166   0.934 -0.0720  0.2454  1.5361
   19CHTO   O22 7916   4.656   7.715   0.784 -0.1910  0.0052 -0.3704
   19CHTO   C31 7917   4.778   7.648   0.728  0.2060 -0.0365 -0.8219
   19CHTO   H59 7918   4.768   7.540   0.753 -0.6241  0.2801  0.2542
   19CHTO   C29 7919   4.783   7.656   0.575 -0.3070  0.3906 -0.1640
   19CHTO   H57 7920   4.785   7.765   0.556 -1.6775  0.2278 -1.3019
   19CHTO   O21 7921   4.663   7.600   0.520 -0.7597 -0.4768 -0.4899
   19CHTO   H37 7922   4.616   7.668   0.476  0.9358  1.7728  1.0301
   19CHTO   C27 7923   4.915   7.598   0.525 -0.5103 -0.1858 -0.5301
   19CHTO   H55 7924   4.910   7.488   0.534  1.8410 -0.1550  1.6636
   19CHTO    N5 7925   4.933   7.631   0.375  0.1556  0.2387  0.0038
   19CHTO   H43 7926   4.854   7.602   0.308 -0.6696  0.6452  0.7930
   19CHTO   H44 7927   4.932   7.738   0.358  0.8918  0.5291  1.7332
   19CHTO   C25 7928   5.042   7.653   0.598  0.2917  0.7625  0.1682
   19CHTO   H53 7929   5.052   7.758   0.567  2.8207  1.0412  1.8035
   19CHTO   O17 7930   5.022   7.635   0.738  0.1297 -0.6438  0.3612
   19CHTO   C32 7931   4.905   7.701   0.799  0.1304 -0.1442  0.4055
   19CHTO   H60 7932   4.920   7.805   0.770  0.2549 -1.2351 -3.7612
   19CHTO   C36 7933   4.890   7.692   0.952  0.0131 -0.2878  0.7049
   19CHTO   O25 7934   4.980   7.793   1.003 -0.5388  0.0663  0.5109
   19CHTO   H40 7935   4.977   7.803   1.096 -1.2446  2.5402  0.2555
   19CHTO   O15 7936   5.178   7.556   0.553 -0.1039  0.0445  0.0522
   19CHTO   C19 7937   5.263   7.449   0.497  0.0931 -0.5679 -0.5919
   19CHTO   H47 7938   5.214   7.438   0.399 -0.3747 -1.9336 -0.2128
   19CHTO   C20 7939   5.409   7.490   0.467  0.4137 -0.2066 -0.0096
   19CHTO   H48 7940   5.467   7.508   0.559 -0.7018  1.9299  0.3232
   19CHTO   O19 7941   5.404   7.618   0.393 -0.2652  0.1178 -0.1983
   19CHTO   H35 7942   5.342   7.667   0.443  0.1611 -1.0640  1.5559
   19CHTO   C21 7943   5.469   7.377   0.378  0.7895  0.2092 -0.6426
   19CHTO   H49 7944   5.421   7.384   0.280 -0.0480  1.4749 -0.1616
   19CHTO    N4 7945   5.613   7.401   0.340 -0.4599  0.2305 -0.1625
   19CHTO   H41 7946   5.678   7.381   0.424 -0.8541 -0.7894 -0.0863
   19CHTO   H42 7947   5.640   7.332   0.261  0.3609  1.1479 -0.6788
   19CHTO   C22 7948   5.451   7.234   0.438  0.6597 -0.4379 -0.4715
   19CHTO   H50 7949   5.523   7.223   0.519  0.5275  0.7710 -0.1707
   19CHTO   O14 7950   5.315   7.215   0.481  0.3906 -0.2907 -0.0399
   19CHTO   C23 7951   5.264   7.311   0.576  0.3603 -0.0958  0.2381
   19CHTO   H51 7952   5.326   7.312   0.666 -1.5503 -1.8579  1.6195
   19CHTO   C34 7953   5.119   7.264   0.610  0.4132 -0.7396  0.4987
   19CHTO   O23 7954   5.072   7.339   0.728 -0.5494 -0.2095  0.0701
   19CHTO   H38 7955   5.053   7.273   0.792 -1.4457  0.4304  0.4665
   19CHTO   O16 7956   5.454   7.139   0.337 -0.2586 -0.2260  0.1883
   19CHTO   C24 7957   5.567   7.015   0.332  0.1064 -0.2168 -1.1224
   19CHTO   H52 7958   5.653   7.036   0.395 -0.4727 -1.3870  0.0897
   19CHTO   C26 7959   5.610   7.006   0.185 -0.2099 -0.0686  0.5798
   19CHTO   H54 7960   5.517   7.012   0.125  1.4445  0.5227 -2.0084
   19CHTO   O20 7961   5.693   7.121   0.140  0.0702 -0.4704  0.0340
   19CHTO   H36 7962   5.777   7.127   0.182  0.2188  0.4665 -0.3986
   19CHTO   C30 7963   5.684   6.873   0.152  0.0339 -0.7557 -0.2564
   19CHTO   H58 7964   5.780   6.877   0.206  0.7331  1.1955 -1.5806
   19CHTO    N6 7965   5.704   6.858   0.004 -0.6116 -0.8033  0.0645
   19CHTO   H45 7966   5.682   6.937  -0.065 -0.9869  0.7397  1.8967
   19CHTO   H46 7967   5.668   6.762  -0.031  0.5709 -1.5129  0.7534
   19CHTO   C33 7968   5.605   6.754   0.213 -0.1054  0.6197 -0.8360
   19CHTO   H61 7969   5.507   6.745   0.165  0.1319  0.0781 -1.2190
   19CHTO   O18 7970   5.585   6.782   0.355 -0.3152 -0.4322 -0.0665
   19CHTO   C28 7971   5.500   6.890   0.389  0.2352 -0.0529  0.1583
   19CHTO   H56 7972   5.402   6.880   0.341  0.5887 -1.4226 -0.2783
   19CHTO   C35 7973   5.481   6.905   0.539  0.1690 -0.5255 -0.5827
   19CHTO   O24 7974   5.453   6.783   0.603  0.1135  0.1339 -0.2784
   19CHTO   H39 7975   5.524   6.725   0.583  0.4802  1.3947 -3.0163
   19CHTO    O9 7976   5.668   6.628   0.192  0.3558  0.6276  0.7309
   19CHTO   C13 7977   5.548   6.510   0.147 -0.4484 -0.0337 -0.7330
   19CHTO   H26 7978   5.509   6.540   0.048  1.2057 -0.5360 -1.5602
   19CHTO   C11 7979   5.434   6.510   0.254  0.2979 -0.1636 -0.4304
   19CHTO   H24 7980   5.374   6.602   0.250 -1.7607 -1.2189  3.7934
   19CHTO    O8 7981   5.483   6.501   0.391  0.1459 -0.1751  0.0898
   19CHTO    H3 7982   5.564   6.547   0.396  0.1862  0.1142 -2.5465
   19CHTO    C9 7983   5.353   6.383   0.222  0.4680 -0.1040 -1.1221
   19CHTO   H22 7984   5.325   6.394   0.116 -1.0833 -0.1888 -0.7347
   19CHTO    N2 7985   5.215   6.390   0.280  0.3873 -0.9841 -0.3506
   19CHTO   H10 7986   5.149   6.317   0.236 -0.9369 -0.7617  1.1915
   19CHTO   H11 7987   5.181   6.490   0.302  1.1871 -0.6199 -0.7470
   19CHTO    C7 7988   5.432   6.253   0.242 -0.3478  0.1263  0.3238
   19CHTO   H20 7989   5.399   6.195   0.153  2.3794  0.8497 -1.2112
   19CHTO    O4 7990   5.574   6.269   0.232  0.0603  0.5667  0.4771
   19CHTO   C14 7991   5.608   6.361   0.131  0.3650  0.1222  0.2902
   19CHTO   H27 7992   5.577   6.306   0.040 -0.4209 -1.9711  1.7831
   19CHTO   C18 7993   5.759   6.378   0.119 -0.2181 -0.2028 -0.4727
   19CHTO   O13 7994   5.816   6.259   0.078 -0.3484  0.1151 -0.2526
   19CHTO    H7 7995   5.907   6.246   0.096 -1.1952 -2.3221  2.5663
   19CHTO    O2 7996   5.386   6.170   0.383  0.2507 -0.4394  0.4050
   19CHTO    C1 7997   5.388   6.029   0.367 -0.0460 -0.3199 -0.3630
   19CHTO   H14 7998   5.477   5.996   0.310  1.7924  1.1270  1.6210
   19CHTO    C2 7999   5.256   5.966   0.301  0.1196  0.2427  0.0671
   19CHTO   H15 8000   5.171   6.016   0.349  0.5073  0.8029  0.1775
   19CHTO    O6 8001   5.248   5.994   0.165  0.4039 -0.1150 -0.2739
   19CHTO    H1 8002   5.321   5.959   0.116 -1.0504 -1.5840 -1.4539
   19CHTO    C3 8003   5.258   5.804   0.329 -0.0046  0.1727  0.6089
   19CHTO   H16 8004   5.334   5.761   0.262  1.1121 -1.0944  2.6225
   19CHTO    N1 8005   5.119   5.753   0.293 -0.0262  0.1468  0.1450
   19CHTO    H8 8006   5.075   5.804   0.209 -2.6337 -0.1518  1.2559
   19CHTO    H9 8007   5.138   5.650   0.266  0.5699 -0.0449  1.2631
   19CHTO    C4 8008   5.303   5.770   0.472 -0.0557 -0.5755 -0.0151
   19CHTO   H17 8009   5.226   5.803   0.542  0.8015  1.3720  0.0497
   19CHTO    O1 8010   5.430   5.831   0.511 -0.3395  0.4518 -0.3276
   19CHTO    C5 8011   5.414   5.975   0.509 -0.1253  0.1167 -0.3878
   19CHTO   H18 8012   5.333   5.998   0.577  0.6808  2.0980 -0.0732
   19CHTO   C16 8013   5.548   6.032   0.568 -0.0337  0.0782 -0.3503
   19CHTO   O11 8014   5.596   5.978   0.689 -0.7568 -0.2679  0.7282
   19CHTO    H5 8015   5.611   5.886   0.679 -0.2925  0.0406 -1.6898
   19CHTO    O3 8016   5.329   5.627   0.484 -0.3358 -0.1395  0.0443
   19CHTO    C6 8017   5.284   5.569   0.603 -0.2765 -0.9330 -0.8208
   19CHTO   H19 8018   5.260   5.651   0.671  1.2842  0.3489 -1.7816
   19CHTO    C8 8019   5.170   5.471   0.568 -0.0897  0.2845 -0.5902
   19CHTO   H21 8020   5.206   5.408   0.487 -0.3425 -0.4028 -0.1752
   19CHTO    O7 8021   5.058   5.539   0.515 -0.4966 -0.4139 -0.2217
   19CHTO    H2 8022   5.004   5.588   0.574 -1.6132 -0.8049 -0.9118
   19CHTO   C12 8023   5.124   5.381   0.693 -0.3343 -0.0491 -0.0545
   19CHTO   H25 8024   5.064   5.438   0.766  1.2340  0.1025  1.1387
   19CHTO    N3 8025   5.025   5.274   0.642  0.6374 -0.4015 -0.1508
   19CHTO   H12 8026   5.061   5.206   0.566  1.6016  0.8528 -0.8416
   19CHTO   H13 8027   4.980   5.228   0.729  2.3141 -0.2993  0.7891
   19CHTO   C15 8028   5.247   5.323   0.767  0.4661  0.3015  0.3316
   19CHTO   H28 8029   5.288   5.234   0.718 -2.7588 -0.1837 -1.6378
   19CHTO   O10 8030   5.217   5.278   0.941  0.1237 -0.0327 -0.2175
   19CHTO    H4 8031   5.207   5.349   1.002  0.5233 -1.2067  1.2303
   19CHTO    O5 8032   5.350   5.422   0.793 -0.1836  0.2455 -0.4035
   19CHTO   C10 8033   5.395   5.488   0.673 -0.1953 -0.3314  0.3959
   19CHTO   H23 8034   5.428   5.413   0.602  1.8566  1.5636 -0.7193
   19CHTO   C17 8035   5.517   5.567   0.726  0.2862  0.6834 -0.3492
   19CHTO   O12 8036   5.622   5.477   0.772 -0.5020 -0.0163 -0.2261
   19CHTO    H6 8037   5.709   5.505   0.790 -0.2938 -1.2757  0.8412
   20CHTO  H203 8038   5.041   1.145   2.215  0.6848  0.0547  0.8885
   20CHTO   O82 8039   5.100   1.121   2.146  0.4430  0.5639  0.4986
   20CHTO  C123 8040   5.114   1.231   2.048  0.2588  0.9546  0.1524
   20CHTO  H227 8041   5.038   1.308   2.067 -0.1768  0.2386  1.3718
   20CHTO   O77 8042   5.244   1.288   2.067 -0.3601  0.4072 -1.0068
   20CHTO  C118 8043   5.280   1.396   1.987  0.6415 -1.1984 -0.5265
   20CHTO  H222 8044   5.201   1.473   1.994  1.1383 -0.5820 -1.6826
   20CHTO  C125 8045   5.409   1.460   2.042 -0.4902 -0.3624 -0.0460
   20CHTO   O84 8046   5.382   1.525   2.167 -0.2809  0.4603 -0.2725
   20CHTO  H205 8047   5.456   1.525   2.224  0.6415  1.5737 -1.4341
   20CHTO  C114 8048   5.296   1.348   1.846  0.9402 -0.0674 -0.0657
   20CHTO  H218 8049   5.369   1.267   1.837 -0.2783 -1.0859 -0.9423
   20CHTO  C116 8050   5.156   1.293   1.798 -0.3445  0.5923 -0.2012
   20CHTO  H220 8051   5.090   1.383   1.800  0.8127  1.4911 -1.7781
   20CHTO   O79 8052   5.169   1.247   1.664 -0.5250 -0.2566  0.3183
   20CHTO  H201 8053   5.207   1.162   1.667  1.9359  0.8442  1.6022
   20CHTO  C120 8054   5.101   1.183   1.898 -0.9993 -0.5341 -0.3024
   20CHTO  H224 8055   5.166   1.094   1.881  0.8207  0.2784  2.1201
   20CHTO   N21 8056   4.958   1.154   1.858  0.0982  0.3840  0.2068
   20CHTO  H211 8057   4.928   1.055   1.891  0.7739  0.7639  2.0036
   20CHTO  H212 8058   4.948   1.152   1.750  1.6107 -0.2660  0.0644
   20CHTO   O75 8059   5.334   1.460   1.763 -0.0323 -0.3677 -0.6690
   20CHTO  C112 8060   5.468   1.447   1.678  0.0366 -0.4451 -0.0915
   20CHTO  H216 8061   5.474   1.345   1.636  0.6399  0.0898 -1.3112
   20CHTO   O73 8062   5.578   1.482   1.767 -0.5434  0.1530  0.0044
   20CHTO  C113 8063   5.706   1.488   1.708 -0.0035 -0.0783  0.3115
   20CHTO  H217 8064   5.726   1.393   1.654 -0.0892  0.3553 -0.4948
   20CHTO  C124 8065   5.803   1.517   1.822 -0.0534  0.0485 -0.1409
   20CHTO   O83 8066   5.807   1.396   1.902  0.7015  0.5681 -0.3413
   20CHTO  H204 8067   5.887   1.389   1.951  1.3986 -4.4742 -1.9081
   20CHTO  C109 8068   5.721   1.585   1.587 -0.0846 -0.4799 -0.6524
   20CHTO  H213 8069   5.720   1.688   1.624  0.8544 -0.7182  0.0517
   20CHTO  C110 8070   5.604   1.569   1.485 -0.3833 -0.5744  0.5344
   20CHTO  H214 8071   5.617   1.480   1.422  0.3990 -1.9652  2.6096
   20CHTO   O78 8072   5.597   1.681   1.396  0.0119 -0.0927 -0.1461
   20CHTO  H200 8073   5.686   1.696   1.372 -0.3088  1.9813 -0.1333
   20CHTO  C111 8074   5.466   1.550   1.558 -0.9895 -0.4570 -0.5924
   20CHTO  H215 8075   5.434   1.648   1.596 -0.1724 -0.0235 -1.0173
   20CHTO   N19 8076   5.362   1.500   1.462  0.5165  0.1168 -0.5474
   20CHTO  H207 8077   5.283   1.571   1.446  0.4561 -0.0201 -0.8550
   20CHTO  H208 8078   5.401   1.474   1.364 -0.3818  1.6436 -1.3376
   20CHTO   O74 8079   5.853   1.575   1.522 -0.3233 -0.0854 -0.3764
   20CHTO  C115 8080   5.948   1.706   1.512  0.3005  0.0455  0.3648
   20CHTO  H219 8081   5.915   1.782   1.582 -0.8271 -0.8950  0.8758
   20CHTO   O76 8082   6.108   1.674   1.560  0.1147  0.3630 -0.0183
   20CHTO  C122 8083   6.202   1.606   1.472 -0.8666  0.5944 -0.0139
   20CHTO  H226 8084   6.215   1.505   1.511  0.8077  0.8026 -0.0109
   20CHTO  C126 8085   6.350   1.669   1.480  0.1366  0.6158  0.6301
   20CHTO   O85 8086   6.354   1.814   1.440  0.1777  0.4263  0.3055
   20CHTO  H206 8087   6.427   1.814   1.382  0.5810  0.7401  0.8080
   20CHTO  C121 8088   6.158   1.600   1.321 -0.4195  0.2648 -0.4342
   20CHTO  H225 8089   6.249   1.597   1.258  0.9166  2.7832  1.2968
   20CHTO   O81 8090   6.084   1.474   1.303  0.4265 -0.1033  0.2623
   20CHTO  H202 8091   6.142   1.404   1.280 -0.4390 -0.5199 -0.6868
   20CHTO  C119 8092   6.070   1.725   1.280 -0.1079  0.3942 -0.2467
   20CHTO  H223 8093   6.139   1.805   1.304  0.0412  0.2944 -0.3382
   20CHTO  C117 8094   5.936   1.756   1.360  0.5816 -0.6266  0.6241
   20CHTO  H221 8095   5.848   1.711   1.316  0.8675 -0.5090 -0.0741
   20CHTO   N20 8096   5.908   1.902   1.360 -0.7285  0.6569  0.8464
   20CHTO  H209 8097   5.982   1.953   1.420 -0.6567  1.8968 -0.2733
   20CHTO  H210 8098   5.917   1.946   1.262 -0.5278 -1.0960  0.0582
   20CHTO   O80 8099   6.062   1.741   1.125 -0.0720 -0.0097 -0.3828
   20CHTO  C103 8100   6.182   1.735   1.044 -0.4291  0.6640  0.2032
   20CHTO  H190 8101   6.276   1.718   1.097  0.6610  1.3100 -1.4676
   20CHTO  C101 8102   6.175   1.639   0.924 -0.0190 -0.1815  0.1912
   20CHTO  H188 8103   6.072   1.658   0.896 -0.1165  0.5699  1.0533
   20CHTO   O68 8104   6.189   1.488   0.982  0.2807  0.1304 -0.3348
   20CHTO  H168 8105   6.203   1.427   0.912  0.3370  0.6081 -0.7507
   20CHTO   C99 8106   6.266   1.677   0.793 -0.1313  0.7355 -0.5211
   20CHTO  H186 8107   6.375   1.672   0.817 -0.7262 -0.0222  2.1405
   20CHTO   N17 8108   6.236   1.582   0.684 -0.0411 -0.3151  0.0905
   20CHTO  H174 8109   6.273   1.619   0.590  0.4824 -0.2000  0.3376
   20CHTO  H175 8110   6.272   1.484   0.710  4.1890  1.0396 -0.2393
   20CHTO   C97 8111   6.241   1.830   0.762  0.5678  0.3794  0.0196
   20CHTO  H184 8112   6.133   1.842   0.747  0.2964 -1.6536  0.2325
   20CHTO   O64 8113   6.288   1.902   0.878  0.9121  0.5774  0.5454
   20CHTO  C104 8114   6.189   1.888   0.980  0.3300  0.4373 -0.0581
   20CHTO  H191 8115   6.090   1.918   0.947 -0.8488 -1.1275  1.9722
   20CHTO  C108 8116   6.227   1.989   1.086 -0.1217  0.1130 -0.1537
   20CHTO   O71 8117   6.354   1.962   1.149 -0.0812  0.2798 -0.5014
   20CHTO  H171 8118   6.424   1.936   1.093  1.6675  0.2351  1.6304
   20CHTO   O62 8119   6.305   1.888   0.640 -0.1323  0.1171  0.1623
   20CHTO   C91 8120   6.274   2.024   0.612  0.0172  0.2950  0.2000
   20CHTO  H178 8121   6.237   2.077   0.700  0.4048 -0.7742  1.0202
   20CHTO   C92 8122   6.163   2.025   0.504 -0.6280 -0.9728  0.6364
   20CHTO  H179 8123   6.199   1.973   0.414  1.8189  1.5027  0.1089
   20CHTO   O66 8124   6.052   1.951   0.554 -0.1810 -0.7017  0.3472
   20CHTO  H166 8125   5.971   1.989   0.525 -0.3000 -1.3668 -0.2049
   20CHTO   C93 8126   6.130   2.174   0.462  0.5046  0.9219 -0.2828
   20CHTO  H180 8127   6.095   2.220   0.556 -0.1715  0.8244 -0.4832
   20CHTO   N16 8128   6.015   2.183   0.366  0.2568  0.3449 -0.4402
   20CHTO  H172 8129   5.994   2.288   0.352  1.3887  0.3880 -2.1328
   20CHTO  H173 8130   6.045   2.134   0.274  0.4804 -2.0291  0.8878
   20CHTO   C94 8131   6.259   2.248   0.417  0.2202 -0.0913 -0.9329
   20CHTO  H181 8132   6.295   2.210   0.322 -0.4868 -3.4314  0.0614
   20CHTO   O61 8133   6.368   2.240   0.509  0.1110  0.1680  0.1748
   20CHTO   C95 8134   6.405   2.104   0.553 -0.5220  0.0790 -0.2354
   20CHTO  H182 8135   6.437   2.050   0.464  2.2073  0.4314  0.4804
   20CHTO  C106 8136   6.524   2.094   0.649  0.2177 -0.3490 -0.4799
   20CHTO   O69 8137   6.640   2.144   0.591 -0.2915 -0.0208 -0.2698
   20CHTO  H169 8138   6.662   2.094   0.515  0.2706  0.0537 -0.1562
   20CHTO   O63 8139   6.215   2.398   0.405  0.3108 -0.0340 -0.2425
   20CHTO   C96 8140   6.177   2.463   0.261  0.8437 -0.2577 -0.9575
   20CHTO  H183 8141   6.099   2.416   0.201 -1.4661  1.3145  0.7530
   20CHTO   C98 8142   6.308   2.486   0.175  0.2091 -0.1617  0.9587
   20CHTO  H185 8143   6.390   2.535   0.229  0.5419 -0.9133  1.1262
   20CHTO   O67 8144   6.349   2.357   0.137 -0.2063  0.0396 -0.1410
   20CHTO  H167 8145   6.292   2.339   0.065  1.6575  1.1429 -1.9608
   20CHTO  C102 8146   6.267   2.584   0.048 -0.4624 -0.0622  0.3373
   20CHTO  H189 8147   6.196   2.524  -0.010 -0.4262 -2.5458  2.7196
   20CHTO   N18 8148   6.381   2.610  -0.041 -0.3911  0.3777 -0.4660
   20CHTO  H176 8149   6.417   2.711  -0.051  0.2723  0.4272  2.0192
   20CHTO  H177 8150   6.465   2.545  -0.019  1.2235  1.6976 -2.5578
   20CHTO  C105 8151   6.195   2.710   0.108 -0.4387 -0.1862 -0.3781
   20CHTO  H192 8152   6.265   2.757   0.177  0.9212 -2.2664 -0.3271
   20CHTO   O65 8153   6.079   2.666   0.179  0.1280  0.1578  0.0130
   20CHTO  C100 8154   6.117   2.602   0.304 -0.4482  0.3950  0.4008
   20CHTO  H187 8155   6.191   2.660   0.361  0.0824  0.3625 -0.2457
   20CHTO  C107 8156   5.997   2.574   0.386 -0.0922 -0.5488 -0.6419
   20CHTO   O70 8157   5.935   2.695   0.437  0.3867  0.2104 -0.2274
   20CHTO  H170 8158   5.844   2.675   0.451  0.0793  2.0272  0.5814
   20CHTO   O57 8159   6.145   2.808  -0.022 -0.0252 -0.1216 -0.6594
   20CHTO   C85 8160   6.037   2.785  -0.104  0.4678  0.5959 -1.0559
   20CHTO  H157 8161   6.007   2.679  -0.086  0.9825  0.6496  0.1342
   20CHTO   C83 8162   6.071   2.790  -0.253 -0.8027 -0.2577  0.2476
   20CHTO  H155 8163   6.157   2.724  -0.263 -1.9579 -1.6662 -0.3917
   20CHTO   O56 8164   6.121   2.918  -0.295 -0.2863 -0.4381 -0.1546
   20CHTO  H135 8165   6.168   2.962  -0.227  2.3093  1.1129 -2.8348
   20CHTO   C81 8166   5.950   2.734  -0.334 -0.3893  0.0073  0.4537
   20CHTO  H153 8167   5.922   2.636  -0.295 -0.6071 -0.7790 -1.6014
   20CHTO   N14 8168   5.982   2.710  -0.476 -0.1191  0.5288  0.0069
   20CHTO  H141 8169   6.017   2.802  -0.519  0.3080 -0.4483 -1.8016
   20CHTO  H142 8170   5.899   2.680  -0.537 -1.0771 -0.3342  1.7120
   20CHTO   C79 8171   5.833   2.838  -0.312 -0.3251  0.1037  0.5734
   20CHTO  H151 8172   5.743   2.796  -0.358 -0.7584  0.8227  0.7552
   20CHTO   O52 8173   5.807   2.860  -0.170  0.3637  0.1511 -0.4293
   20CHTO   C86 8174   5.922   2.890  -0.084 -0.1600  0.3242  0.1255
   20CHTO  H158 8175   5.953   2.995  -0.103 -0.8104  0.2870 -1.2136
   20CHTO   C90 8176   5.873   2.885   0.057  0.7356  0.2008  0.5095
   20CHTO   O60 8177   5.761   2.969   0.074 -0.3610 -0.9200  0.4744
   20CHTO  H138 8178   5.800   3.054   0.072 -1.6938 -0.3071 -0.0080
   20CHTO   O50 8179   5.858   2.965  -0.372 -0.0750  0.1399 -0.6381
   20CHTO   C73 8180   5.825   3.035  -0.492  0.3128 -0.0657  0.4775
   20CHTO  H145 8181   5.815   2.962  -0.574  0.0661  0.7885 -0.2613
   20CHTO   C74 8182   5.944   3.127  -0.528  0.1238 -0.1599 -0.0349
   20CHTO  H146 8183   6.032   3.062  -0.536  1.8956  2.0565  0.8248
   20CHTO   O54 8184   5.920   3.195  -0.648  0.0259 -0.2450  0.2535
   20CHTO  H133 8185   5.999   3.225  -0.689 -0.8497 -1.8244 -2.7788
   20CHTO   C75 8186   5.960   3.227  -0.405  0.3222  0.4992  0.0403
   20CHTO  H147 8187   5.975   3.169  -0.312  2.0254 -0.0825 -0.5843
   20CHTO   N13 8188   6.076   3.321  -0.421  1.1656 -0.5262  0.0747
   20CHTO  H139 8189   6.161   3.254  -0.425 -0.1842 -2.2626 -0.5998
   20CHTO  H140 8190   6.058   3.378  -0.511  0.8365  0.5286  0.7991
   20CHTO   C76 8191   5.834   3.304  -0.385 -0.4158  0.3794  0.1662
   20CHTO  H148 8192   5.821   3.363  -0.475 -0.7370 -1.6964 -1.1863
   20CHTO   O49 8193   5.715   3.218  -0.377 -0.2230  0.6924  0.5474
   20CHTO   C77 8194   5.697   3.116  -0.472  0.5033  0.4852  0.2903
   20CHTO  H149 8195   5.662   3.160  -0.566 -0.0758 -0.3251  0.1188
   20CHTO   C88 8196   5.574   3.032  -0.420 -0.8929  0.3545 -0.6378
   20CHTO   O58 8197   5.461   3.105  -0.381 -0.1870 -0.0106 -0.3937
   20CHTO  H136 8198   5.389   3.098  -0.441 -2.3151  2.0894  1.8042
   20CHTO   O51 8199   5.835   3.388  -0.243  0.2310  0.0083 -0.1236
   20CHTO   C78 8200   5.704   3.484  -0.221  0.4079 -0.5445 -0.0810
   20CHTO  H150 8201   5.613   3.453  -0.276  2.3362 -2.2478 -2.4120
   20CHTO   C80 8202   5.738   3.630  -0.266  0.3918  0.9130  0.0375
   20CHTO  H152 8203   5.830   3.656  -0.210 -0.2379 -1.7675  2.4794
   20CHTO   O55 8204   5.771   3.645  -0.409 -0.3083 -0.0101  0.1912
   20CHTO  H134 8205   5.719   3.585  -0.458 -0.4428  0.9798 -0.9041
   20CHTO   C84 8206   5.622   3.727  -0.221  0.4134  0.2419 -1.2813
   20CHTO  H156 8207   5.530   3.696  -0.269 -1.0699  0.6447  1.2258
   20CHTO   N15 8208   5.652   3.875  -0.248  0.1340  0.1212  0.2298
   20CHTO  H143 8209   5.573   3.929  -0.294 -0.6290 -0.0741  1.2966
   20CHTO  H144 8210   5.739   3.880  -0.310 -0.6932 -0.1771 -0.9650
   20CHTO   C87 8211   5.594   3.698  -0.070  0.0048 -0.5077  0.3583
   20CHTO  H159 8212   5.685   3.706  -0.011 -0.1818 -1.7861  0.8420
   20CHTO   O53 8213   5.553   3.565  -0.060 -0.3584 -0.0497 -0.1382
   20CHTO   C82 8214   5.663   3.475  -0.079  0.2855 -0.6721  0.1818
   20CHTO  H154 8215   5.746   3.509  -0.017  0.1530  1.9536 -1.0066
   20CHTO   C89 8216   5.617   3.330  -0.041 -0.8283  0.2496  0.3814
   20CHTO   O59 8217   5.710   3.222  -0.059 -0.1150  0.0280  0.0356
   20CHTO  H137 8218   5.786   3.225  -0.006  0.1127  1.1715 -0.3481
   20CHTO   O45 8219   5.475   3.777  -0.015  0.2268 -0.4378 -0.1888
   20CHTO   C67 8220   5.480   3.760   0.130 -0.2745  0.2354 -0.2274
   20CHTO  H124 8221   5.536   3.670   0.155 -1.4189 -0.4124  0.0277
   20CHTO   C65 8222   5.549   3.885   0.192 -0.3520  0.5078  0.1309
   20CHTO  H122 8223   5.514   3.972   0.136 -1.3626  0.0111 -0.0277
   20CHTO   O44 8224   5.692   3.879   0.170  0.5273 -0.0412 -0.3638
   20CHTO  H102 8225   5.736   3.901   0.250  0.0136  1.3844 -0.4727
   20CHTO   C63 8226   5.501   3.900   0.339  0.7931 -0.7522  0.6978
   20CHTO  H120 8227   5.406   3.953   0.336  0.0472 -2.1074 -0.4358
   20CHTO   N11 8228   5.575   4.000   0.414 -0.1011  0.0659 -0.3838
   20CHTO  H108 8229   5.585   4.082   0.346  1.4001 -0.9672 -1.4437
   20CHTO  H109 8230   5.675   3.972   0.441 -0.5582 -1.8907 -0.6493
   20CHTO   C61 8231   5.465   3.761   0.398 -0.2637 -0.1073  0.1314
   20CHTO  H118 8232   5.433   3.777   0.502  1.0153  1.8683  0.2479
   20CHTO   O40 8233   5.357   3.704   0.330 -0.2310  0.0122  0.3967
   20CHTO   C68 8234   5.335   3.736   0.186  0.1171 -0.4440 -0.3264
   20CHTO  H125 8235   5.265   3.821   0.175  1.2196  0.3135 -1.6708
   20CHTO   C72 8236   5.273   3.617   0.114  0.9205 -0.2463  0.3183
   20CHTO   O48 8237   5.324   3.489   0.153  0.4648 -0.6684 -0.5470
   20CHTO  H105 8238   5.283   3.462   0.233 -0.7943  1.2141 -0.5213
   20CHTO   O38 8239   5.582   3.679   0.401  0.1030  0.0182  0.2473
   20CHTO   C55 8240   5.569   3.541   0.462 -0.1606 -0.0693  0.2010
   20CHTO  H112 8241   5.483   3.490   0.415 -0.9188  0.7245  0.7220
   20CHTO   C56 8242   5.565   3.540   0.617 -0.1731  0.2325  0.6050
   20CHTO  H113 8243   5.645   3.603   0.660  0.5626 -0.5179  0.3497
   20CHTO   O42 8244   5.443   3.601   0.665 -0.3051 -0.0517  0.7652
   20CHTO  H100 8245   5.442   3.606   0.759 -2.3902  1.2964  0.7042
   20CHTO   C57 8246   5.578   3.404   0.681  0.2595  0.0796  0.0851
   20CHTO  H114 8247   5.486   3.348   0.660  1.0744 -1.1394 -0.2830
   20CHTO   N10 8248   5.594   3.413   0.828  0.0690  0.4822 -0.5840
   20CHTO  H106 8249   5.507   3.400   0.891 -0.2736  1.0673 -0.9385
   20CHTO  H107 8250   5.668   3.474   0.877  1.3274 -1.4608  0.0351
   20CHTO   C58 8251   5.699   3.322   0.628 -0.4247  0.2315 -0.5125
   20CHTO  H115 8252   5.796   3.353   0.672 -0.4634 -1.3189  0.7047
   20CHTO   O37 8253   5.697   3.336   0.485  0.3014  0.1941 -0.0562
   20CHTO   C59 8254   5.702   3.467   0.427  0.6821 -0.4804  0.5641
   20CHTO  H116 8255   5.788   3.522   0.464  1.5928 -0.5061 -1.4735
   20CHTO   C70 8256   5.713   3.443   0.272  0.3025  0.0653 -0.1711
   20CHTO   O46 8257   5.834   3.373   0.229 -0.0118  0.3085 -0.4487
   20CHTO  H103 8258   5.828   3.281   0.248  2.0978  0.4065  0.9489
   20CHTO   O39 8259   5.674   3.170   0.645  0.0910 -0.9079 -0.0754
   20CHTO   C60 8260   5.789   3.084   0.667  0.2330  0.1935  0.5360
   20CHTO  H117 8261   5.856   3.102   0.584 -0.4232  0.4280  0.0485
   20CHTO   C62 8262   5.865   3.108   0.808 -0.2720 -0.1407  0.1440
   20CHTO  H119 8263   5.914   3.207   0.795 -0.0481 -0.5657 -2.6094
   20CHTO   O43 8264   5.771   3.117   0.916 -0.3633 -0.1320 -0.4076
   20CHTO  H101 8265   5.824   3.151   0.985  3.4479 -1.5527 -2.4533
   20CHTO   C66 8266   5.986   2.999   0.822  0.2059  0.3560 -0.3232
   20CHTO  H123 8267   6.052   3.006   0.735  0.4247 -3.1227 -0.5276
   20CHTO   N12 8268   6.076   3.019   0.943  0.2704 -0.1448  0.4603
   20CHTO  H110 8269   6.078   2.920   0.986  1.2613 -0.6101 -0.6300
   20CHTO  H111 8270   6.032   3.088   1.013  0.5932  0.5237  0.0068
   20CHTO   C69 8271   5.924   2.859   0.808 -0.9644  0.1165 -0.5403
   20CHTO  H126 8272   5.846   2.854   0.887  0.1994 -1.3361  0.5401
   20CHTO   O41 8273   5.856   2.837   0.684 -0.0511 -0.5360 -0.2163
   20CHTO   C64 8274   5.737   2.939   0.659 -0.7382 -0.3412 -0.2240
   20CHTO  H121 8275   5.657   2.921   0.733 -2.5728 -1.7090 -2.4468
   20CHTO   C71 8276   5.688   2.906   0.516  0.2971 -0.2200  0.1113
   20CHTO   O47 8277   5.609   2.786   0.511  0.3889 -0.0554  0.3059
   20CHTO  H104 8278   5.527   2.790   0.556  0.2047 -0.3862  0.0068
   20CHTO   O34 8279   6.025   2.737   0.829  0.2631 -0.1166 -0.2771
   20CHTO   C49 8280   5.977   2.592   0.879 -0.1285 -0.5870  0.7162
   20CHTO   H91 8281   5.905   2.554   0.806  0.9903  1.8464 -1.7546
   20CHTO   C47 8282   5.909   2.614   1.009  0.1042 -0.2391  0.2914
   20CHTO   H89 8283   5.820   2.671   0.976 -0.6470 -1.4678  0.1505
   20CHTO   O33 8284   5.986   2.688   1.102  0.0029 -0.3412  0.0134
   20CHTO   H70 8285   6.052   2.630   1.136  1.6851  2.9056  2.7212
   20CHTO   C45 8286   5.859   2.472   1.076  0.1276 -0.2149 -0.8461
   20CHTO   H87 8287   5.916   2.462   1.170  0.4880  0.7638 -0.9495
   20CHTO    N8 8288   5.720   2.490   1.122 -0.1251  1.0044  0.3174
   20CHTO   H75 8289   5.654   2.528   1.046 -1.9989  0.1910  1.4951
   20CHTO   H76 8290   5.719   2.554   1.209 -3.4448 -1.3013  2.1072
   20CHTO   C43 8291   5.892   2.341   0.987 -0.4946 -0.1906  0.5842
   20CHTO   H85 8292   5.876   2.258   1.056  0.0530 -0.9938 -0.2464
   20CHTO   O29 8293   6.030   2.349   0.953  0.3522 -0.4934  0.3146
   20CHTO   C50 8294   6.077   2.480   0.902 -0.3222 -0.0296  0.6067
   20CHTO   H92 8295   6.155   2.522   0.967 -0.9147  1.5267  0.3228
   20CHTO   C54 8296   6.159   2.439   0.780 -0.0939 -0.1341  0.2146
   20CHTO   O36 8297   6.276   2.370   0.829 -0.7346  0.0935 -0.4840
   20CHTO   H72 8298   6.350   2.428   0.827 -0.3464 -0.3134  1.2451
   20CHTO   O27 8299   5.811   2.323   0.868 -0.3119  0.4071 -0.5769
   20CHTO   C37 8300   5.715   2.257   0.788  0.1614 -0.1131  1.2099
   20CHTO   H79 8301   5.615   2.266   0.832  0.2216 -0.0309  1.3292
   20CHTO   C38 8302   5.710   2.326   0.647  0.5645 -0.1754 -0.0690
   20CHTO   H80 8303   5.812   2.335   0.606  0.7054 -2.6148 -0.3247
   20CHTO   O31 8304   5.661   2.463   0.668 -0.0563  0.2246 -0.1883
   20CHTO   H68 8305   5.589   2.475   0.610 -0.6407  1.2116  0.7207
   20CHTO   C39 8306   5.632   2.242   0.539 -0.4521  0.0782 -0.1613
   20CHTO   H81 8307   5.526   2.252   0.560 -0.8608 -1.7996 -1.2365
   20CHTO    N7 8308   5.649   2.289   0.399  0.5693  0.1846 -0.2688
   20CHTO   H73 8309   5.556   2.315   0.350 -0.1790 -2.6407 -0.4057
   20CHTO   H74 8310   5.722   2.247   0.331  0.6578  0.4079 -0.3140
   20CHTO   C40 8311   5.676   2.091   0.545 -0.5403 -0.0347 -1.0693
   20CHTO   H82 8312   5.777   2.064   0.514 -0.1105 -1.1245  1.1640
   20CHTO   O26 8313   5.649   2.050   0.684  0.5510  0.3298  0.4642
   20CHTO   C41 8314   5.746   2.105   0.775  0.3629  0.0985 -0.7301
   20CHTO   H83 8315   5.848   2.085   0.738 -0.0555 -3.8199  0.0054
   20CHTO   C52 8316   5.726   2.024   0.908 -0.6558  0.8254  0.1574
   20CHTO   O35 8317   5.768   1.878   0.891  0.1336  0.1641  0.3218
   20CHTO   H71 8318   5.703   1.832   0.841  0.3309  1.5975 -1.3187
   20CHTO   O28 8319   5.590   2.000   0.480  0.5955  0.4413 -0.1959
   20CHTO   C42 8320   5.641   1.869   0.432  0.5567 -0.1770  0.6686
   20CHTO   H84 8321   5.555   1.825   0.381 -1.4226  1.8655  2.1198
   20CHTO   C44 8322   5.672   1.766   0.552 -0.2420 -0.7158 -0.0430
   20CHTO   H86 8323   5.761   1.801   0.604  0.5231  0.0970 -1.8536
   20CHTO   O32 8324   5.563   1.758   0.641  0.5125  0.7410 -0.4758
   20CHTO   H69 8325   5.567   1.836   0.693  1.6818  0.3771 -0.0047
   20CHTO   C48 8326   5.714   1.625   0.493  0.3799  0.6674  0.4014
   20CHTO   H90 8327   5.624   1.583   0.446  1.9065  0.9512 -2.9133
   20CHTO    N9 8328   5.748   1.521   0.603  0.3142 -0.9029 -0.4736
   20CHTO   H77 8329   5.854   1.497   0.605  0.4608 -0.1945  0.1717
   20CHTO   H78 8330   5.698   1.426   0.593 -0.7519 -0.4811  0.8025
   20CHTO   C51 8331   5.827   1.650   0.394  0.1898 -0.5918 -0.0602
   20CHTO   H93 8332   5.913   1.697   0.442  0.0470  0.1761 -0.5557
   20CHTO   O30 8333   5.776   1.729   0.285 -0.0259  1.0649 -0.4124
   20CHTO   C46 8334   5.758   1.873   0.335  0.0384 -1.2164  0.7788
   20CHTO   H88 8335   5.854   1.902   0.378  0.7285 -0.9675 -0.8692
   20CHTO   C53 8336   5.715   1.950   0.213  0.5710  0.0002  0.3957
   20CHTO   O72 8337   5.828   1.975   0.139  0.0706 -0.0580  0.0670
   20CHTO  H199 8338   5.800   2.020   0.062  0.6395 -0.1427 -0.1896
   20CHTO   O22 8339   5.877   1.533   0.333 -0.1468 -0.2137  0.5899
   20CHTO   C31 8340   5.997   1.496   0.253  0.2595  0.6297 -0.3536
   20CHTO   H59 8341   5.966   1.483   0.147  3.3517  2.8920 -1.6066
   20CHTO   C29 8342   6.102   1.610   0.252 -0.0444 -0.6071 -0.2375
   20CHTO   H57 8343   6.127   1.629   0.357 -2.6260  1.7134  0.0064
   20CHTO   O21 8344   6.046   1.728   0.198 -0.0260  0.3981 -0.0320
   20CHTO   H37 8345   5.967   1.748   0.244 -0.5312  0.0108 -0.7082
   20CHTO   C27 8346   6.228   1.561   0.167  0.1145 -0.1036 -0.1768
   20CHTO   H55 8347   6.197   1.550   0.062 -2.7618  1.0017  0.5294
   20CHTO    N5 8348   6.339   1.665   0.172  0.7647  0.9896  0.0224
   20CHTO   H43 8349   6.396   1.639   0.084  2.2759 -1.8034  1.7507
   20CHTO   H44 8350   6.314   1.769   0.188  1.4884  1.5107 -2.0305
   20CHTO   C25 8351   6.274   1.413   0.207  0.2599 -0.0105 -0.7051
   20CHTO   H53 8352   6.329   1.414   0.303 -0.3404 -1.2106 -0.3395
   20CHTO   O17 8353   6.164   1.326   0.219  0.1936 -0.7233  0.3042
   20CHTO   C32 8354   6.048   1.357   0.302 -0.2020 -0.7511 -0.2082
   20CHTO   H60 8355   6.060   1.366   0.410 -2.0575 -0.7794  0.0307
   20CHTO   C36 8356   5.938   1.248   0.273  0.2333 -0.1855  0.4594
   20CHTO   O25 8357   5.887   1.241   0.141 -0.0396 -0.2720  0.0251
   20CHTO   H40 8358   5.802   1.279   0.143  0.4715  0.9665 -1.3827
   20CHTO   O15 8359   6.382   1.356   0.117 -0.2408  0.1112 -0.8956
   20CHTO   C19 8360   6.517   1.293   0.085  0.1294 -0.0091  0.2024
   20CHTO   H47 8361   6.503   1.245  -0.014 -0.2452 -0.0087  0.2531
   20CHTO   C20 8362   6.634   1.400   0.070  0.0626 -0.1231  0.5264
   20CHTO   H48 8363   6.654   1.452   0.164 -0.0128 -0.6337  0.8252
   20CHTO   O19 8364   6.583   1.506  -0.016  0.2868  0.6301  0.4389
   20CHTO   H35 8365   6.648   1.542  -0.072 -0.4662 -1.3313 -1.8326
   20CHTO   C21 8366   6.773   1.333   0.019  0.4162 -0.4455 -0.2937
   20CHTO   H49 8367   6.761   1.318  -0.088 -2.8506 -2.8105  0.3388
   20CHTO    N4 8368   6.882   1.437   0.027 -0.0211 -0.4596  0.0411
   20CHTO   H41 8369   6.861   1.528  -0.026 -0.6624  0.1593  1.3331
   20CHTO   H42 8370   6.906   1.463   0.129 -1.0387  2.2358 -0.3710
   20CHTO   C22 8371   6.800   1.202   0.097  0.2643  0.5895 -0.4663
   20CHTO   H50 8372   6.835   1.231   0.196 -0.6037 -0.1639  0.0619
   20CHTO   O14 8373   6.684   1.122   0.121 -0.3907 -0.5519 -0.1162
   20CHTO   C23 8374   6.573   1.186   0.184  0.2842 -0.6991  0.4290
   20CHTO   H51 8375   6.609   1.233   0.277  1.2023 -0.6539  0.0564
   20CHTO   C34 8376   6.475   1.073   0.217 -0.1816 -0.4631 -0.5740
   20CHTO   O23 8377   6.343   1.101   0.269 -0.2288 -0.1199  0.4879
   20CHTO   H38 8378   6.293   1.138   0.199 -1.6938  1.5985  2.3864
   20CHTO   O16 8379   6.885   1.113   0.023 -0.5692 -0.8643 -0.3117
   20CHTO   C24 8380   6.978   1.014   0.115 -0.2958  0.3522  0.8312
   20CHTO   H52 8381   6.944   1.013   0.219 -0.0479  0.9286  0.9193
   20CHTO   C26 8382   7.124   1.064   0.108  0.2443 -0.3225  0.1032
   20CHTO   H54 8383   7.149   1.080   0.001 -0.3829 -0.2405 -0.0313
   20CHTO   O20 8384   7.128   1.191   0.174  0.0420 -0.2451 -0.4726
   20CHTO   H36 8385   7.097   1.173   0.260  2.3159 -0.5752  0.3137
   20CHTO   C30 8386   7.229   0.964   0.169  0.6722 -0.0916  0.2744
   20CHTO   H58 8387   7.239   0.986   0.277  0.5652  2.2861 -0.1630
   20CHTO    N6 8388   7.362   1.012   0.119  0.2305  0.3844  0.1504
   20CHTO   H45 8389   7.444   0.973   0.178  0.7553  0.5088 -0.4895
   20CHTO   H46 8390   7.363   0.984   0.014 -1.3373  2.0749 -0.3548
   20CHTO   C33 8391   7.185   0.817   0.139  0.6883 -0.3259 -0.2431
   20CHTO   H61 8392   7.208   0.797   0.033 -1.0971  1.3146 -0.9891
   20CHTO   O18 8393   7.043   0.788   0.157 -0.9776  0.5510  0.4580
   20CHTO   C28 8394   6.970   0.863   0.063  0.0350 -1.0347 -0.0650
   20CHTO   H56 8395   7.013   0.856  -0.037  0.8893 -0.5787  0.2657
   20CHTO   C35 8396   6.827   0.813   0.061  1.0333 -0.0438  0.0921
   20CHTO   O24 8397   6.736   0.848  -0.047  0.3000  0.0985  0.3969
   20CHTO   H39 8398   6.767   0.794  -0.118  0.9534 -0.5211  1.1447
   20CHTO    O9 8399   7.270   0.723   0.221  0.7625 -0.1322  0.3369
   20CHTO   C13 8400   7.255   0.550   0.230  0.4426  0.2311 -0.3040
   20CHTO   H26 8401   7.356   0.520   0.266  0.8847  1.0646 -0.8238
   20CHTO   C11 8402   7.216   0.485   0.089  0.0732  0.4161 -0.2081
   20CHTO   H24 8403   7.312   0.474   0.037  1.2757 -1.5783  2.3199
   20CHTO    O8 8404   7.123   0.560  -0.000  0.5467  0.2276  0.0383
   20CHTO    H3 8405   7.150   0.582  -0.087  0.3174  2.1845  0.4498
   20CHTO    C9 8406   7.164   0.341   0.124 -0.3141  0.0677  0.8746
   20CHTO   H22 8407   7.240   0.300   0.192  1.9656  1.8290 -0.5255
   20CHTO    N2 8408   7.160   0.237   0.016 -0.1202  0.2618  0.2150
   20CHTO   H10 8409   7.254   0.205  -0.027  1.0087 -2.2186  4.2299
   20CHTO   H11 8410   7.076   0.238  -0.051  0.3301 -0.1414 -0.3544
   20CHTO    C7 8411   7.027   0.350   0.205 -0.1242 -0.8520  0.2467
   20CHTO   H20 8412   7.034   0.265   0.276 -1.0329 -0.4647  0.8029
   20CHTO    O4 8413   7.021   0.474   0.281 -0.4150  0.0901 -0.1189
   20CHTO   C14 8414   7.144   0.515   0.342 -0.0513 -0.1850 -0.4967
   20CHTO   H27 8415   7.184   0.427   0.397 -0.2700 -0.6274 -1.0288
   20CHTO   C18 8416   7.120   0.626   0.439 -0.4142  0.0199  0.0682
   20CHTO   O13 8417   7.240   0.660   0.516 -0.2913 -0.3315 -0.5280
   20CHTO    H7 8418   7.270   0.580   0.552 -3.5939  0.5399  4.7200
   20CHTO    O2 8419   6.890   0.341   0.100 -0.9273 -0.2099 -0.1700
   20CHTO    C1 8420   6.774   0.284   0.162 -0.9727 -0.2017  0.2474
   20CHTO   H14 8421   6.756   0.310   0.268  1.5836 -1.1953  0.9794
   20CHTO    C2 8422   6.778   0.126   0.148  0.5390  0.4609 -0.2423
   20CHTO   H15 8423   6.781   0.108   0.039  2.8910 -0.9302  0.0172
   20CHTO    O6 8424   6.889   0.080   0.221 -0.1169  0.0797  0.4356
   20CHTO    H1 8425   6.897  -0.013   0.216 -1.8360  0.0118 -2.4048
   20CHTO    C3 8426   6.641   0.064   0.195 -0.4552 -0.4808 -0.2349
   20CHTO   H16 8427   6.642   0.083   0.303  1.6148 -2.7853  0.1999
   20CHTO    N1 8428   6.624  -0.087   0.191 -0.1433 -0.5510  0.7187
   20CHTO    H8 8429   6.550  -0.126   0.123  0.0754 -1.4853  1.0127
   20CHTO    H9 8430   6.720  -0.135   0.203  0.3203 -0.3979 -2.0791
   20CHTO    C4 8431   6.514   0.148   0.133 -0.3035 -0.3658 -0.0786
   20CHTO   H17 8432   6.511   0.124   0.027  0.5091 -1.7104  0.1943
   20CHTO    O1 8433   6.533   0.288   0.146 -0.2451 -0.1537  0.0418
   20CHTO    C5 8434   6.655   0.338   0.082  0.1822 -0.0704  0.3777
   20CHTO   H18 8435   6.659   0.300  -0.020  1.3864  0.3735  0.2470
   20CHTO   C16 8436   6.638   0.497   0.076 -0.0867 -0.1717  0.0256
   20CHTO   O11 8437   6.548   0.544  -0.028 -0.0735  0.2128  0.6205
   20CHTO    H5 8438   6.472   0.490  -0.016 -2.2327  2.6454 -1.2990
   20CHTO    O3 8439   6.387   0.119   0.190  0.3195  0.1185 -0.3375
   20CHTO    C6 8440   6.267   0.138   0.111 -0.1608 -0.2317 -0.6049
   20CHTO   H19 8441   6.281   0.209   0.031 -1.2511  2.5735  1.6143
   20CHTO    C8 8442   6.213   0.007   0.062 -0.1925  0.8545 -0.1237
   20CHTO   H21 8443   6.207  -0.062   0.146  1.5149 -0.2403 -0.8757
   20CHTO    O7 8444   6.302  -0.044  -0.041  0.2965 -0.1404  0.2340
   20CHTO    H2 8445   6.258  -0.108  -0.094  0.2599  0.7657 -0.8584
   20CHTO   C12 8446   6.063   0.027   0.014 -0.1130 -0.1703  0.0609
   20CHTO   H25 8447   6.068   0.104  -0.066 -0.0668 -1.2128 -0.9490
   20CHTO    N3 8448   6.003  -0.089  -0.045  0.0533  0.5269  0.6392
   20CHTO   H12 8449   5.973  -0.085  -0.149 -1.5440  0.2482  1.0721
   20CHTO   H13 8450   5.940  -0.149   0.019 -1.8245  0.8911 -0.8268
   20CHTO   C15 8451   5.987   0.085   0.136  0.5459 -0.7493 -0.8911
   20CHTO   H28 8452   5.984   0.009   0.214 -0.0213 -0.1753 -0.3434
   20CHTO   O10 8453   5.840   0.127   0.088  0.2864 -0.7990 -0.1836
   20CHTO    H4 8454   5.786   0.122   0.164 -0.8013  1.2906 -0.7645
   20CHTO    O5 8455   6.041   0.203   0.194  0.1968  0.3925  0.1892
   20CHTO   C10 8456   6.178   0.207   0.221 -0.0197 -0.2853 -0.0390
   20CHTO   H23 8457   6.190   0.141   0.307  0.5675 -1.2069 -0.8037
   20CHTO   C17 8458   6.231   0.340   0.261 -0.4239 -0.2399  0.3648
   20CHTO   O12 8459   6.221   0.441   0.160  0.2821  0.0175  0.1798
   20CHTO    H6 8460   6.137   0.478   0.141  0.8926  1.5013  0.2782
   21GLOH   H03 8461   9.445   4.774   1.065  0.9896  1.6970 -1.2243
   21GLOH    O1 8462   9.378   4.838   1.095 -0.4002 -0.2663 -0.0406
   21GLOH    C1 8463   9.343   4.809   1.234  0.2844  0.2252 -0.0246
   21GLOH   H02 8464   9.299   4.899   1.277 -2.1521 -1.5369  1.3456
   21GLOH   H08 8465   9.437   4.805   1.289 -1.0959 -1.1557  2.3223
   21GLOH    C2 8466   9.259   4.681   1.266 -0.2219  0.4247  0.3094
   21GLOH   H04 8467   9.326   4.595   1.254  1.3828  1.5436  1.1093
   21GLOH    O2 8468   9.223   4.689   1.404 -0.3323 -0.0576  0.8050
   21GLOH   H05 8469   9.167   4.611   1.424 -1.0968  0.4199  0.5490
   21GLOH    C3 8470   9.149   4.664   1.172 -1.1015  0.0177 -0.4144
   21GLOH   H06 8471   9.059   4.716   1.205 -0.7962  1.8980 -2.4205
   21GLOH   H07 8472   9.123   4.558   1.167  1.5876 -0.7389  0.6796
   21GLOH    O3 8473   9.180   4.688   1.038 -0.1152 -0.2441 -0.2767
   21GLOH   H01 8474   9.228   4.773   1.037  1.1147 -0.8968  1.1720
   22GLOH   H03 8475   3.701   3.658   1.324  1.9252  1.7965 -0.8728
   22GLOH    O1 8476   3.781   3.604   1.321  0.4884 -0.4315  0.0868
   22GLOH    C1 8477   3.754   3.466   1.294 -0.1784 -0.0038 -0.1515
   22GLOH   H02 8478   3.730   3.461   1.188 -0.4157  0.1687 -0.1059
   22GLOH   H08 8479   3.667   3.427   1.346  2.2023 -2.2032  2.3339
   22GLOH    C2 8480   3.875   3.380   1.322  0.2530 -1.0365  0.0972
   22GLOH   H04 8481   3.955   3.423   1.261 -0.0581 -3.0284 -1.7703
   22GLOH    O2 8482   3.882   3.378   1.464 -0.2702 -0.5483  0.1625
   22GLOH   H05 8483   3.968   3.416   1.491 -0.1796  0.1984 -1.1353
   22GLOH    C3 8484   3.866   3.229   1.281  0.8222 -0.5767 -0.8228
   22GLOH   H06 8485   3.761   3.204   1.297  0.2724  1.2726 -1.4484
   22GLOH   H07 8486   3.925   3.172   1.352  0.2390  1.6722  1.5233
   22GLOH    O3 8487   3.898   3.203   1.145  0.0867  0.0013 -0.1759
   22GLOH   H01 8488   3.894   3.108   1.127  1.1212  0.2229 -1.7017
   23GLOH   H03 8489   9.356   5.258   2.062  3.3075  0.2815  0.5102
   23GLOH    O1 8490   9.337   5.348   2.095 -0.2103 -0.0558 -0.4473
   23GLOH    C1 8491   9.304   5.429   1.982  0.6444  0.7111  0.2699
   23GLOH   H02 8492   9.313   5.536   2.003  0.4092  1.4543 -3.0858
   23GLOH   H08 8493   9.201   5.412   1.952  0.7730 -0.7818  0.6411
   23GLOH    C2 8494   9.374   5.387   1.852  0.4590 -0.6857 -0.6563
   23GLOH   H04 8495   9.340   5.286   1.826 -0.3411 -0.5426 -0.1778
   23GLOH    O2 8496   9.333   5.478   1.752  1.0284 -0.1926 -0.0450
   23GLOH   H05 8497   9.289   5.431   1.679  0.4774  0.3672 -0.0747
   23GLOH    C3 8498   9.528   5.401   1.852 -0.2123  0.4658  0.5026
   23GLOH   H06 8499   9.550   5.504   1.878 -1.2105  1.3437 -1.9346
   23GLOH   H07 8500   9.569   5.391   1.751 -1.3919 -1.0985  0.1562
   23GLOH    O3 8501   9.593   5.313   1.945 -0.0507 -0.0093  0.1581
   23GLOH   H01 8502   9.681   5.355   1.956 -0.4525  0.6309  1.0021
   24GLOH   H03 8503   9.501   4.334   1.354  0.1626  1.6540 -1.1747
   24GLOH    O1 8504   9.414   4.309   1.318  0.3517  0.0638 -0.5775
   24GLOH    C1 8505   9.412   4.320   1.178  0.1161  0.1843 -0.3118
   24GLOH   H02 8506   9.424   4.425   1.152  1.6677 -0.1768 -1.1368
   24GLOH   H08 8507   9.317   4.287   1.136  0.3974 -0.0748 -0.7536
   24GLOH    C2 8508   9.528   4.237   1.114 -0.0904  0.0118 -0.0284
   24GLOH   H04 8509   9.623   4.263   1.163  0.6329  1.3212 -2.0688
   24GLOH    O2 8510   9.514   4.098   1.140  0.3248 -0.3623 -0.1260
   24GLOH   H05 8511   9.547   4.078   1.230 -0.1921 -0.0127  0.1458
   24GLOH    C3 8512   9.546   4.263   0.967  0.0471  0.1324 -0.0589
   24GLOH   H06 8513   9.462   4.233   0.904 -1.3476 -1.2133  2.3508
   24GLOH   H07 8514   9.628   4.196   0.940 -0.2060  0.2814 -1.2213
   24GLOH    O3 8515   9.584   4.400   0.944 -0.3194 -0.6884  0.0105
   24GLOH   H01 8516   9.679   4.418   0.959 -0.3983 -0.5818  0.4069
   25GLOH   H03 8517   1.886   4.562   1.741  0.0730 -1.0949 -0.0887
   25GLOH    O1 8518   1.948   4.591   1.811  0.0880 -0.3672 -0.3944
   25GLOH    C1 8519   1.884   4.701   1.877  0.0253 -0.2548  0.3899
   25GLOH   H02 8520   1.780   4.676   1.898 -1.0374  3.6541  0.0854
   25GLOH   H08 8521   1.871   4.784   1.808 -0.9687 -0.1783  0.6550
   25GLOH    C2 8522   1.966   4.739   1.996  0.1044 -0.1067 -0.4406
   25GLOH   H04 8523   2.069   4.761   1.962 -0.1184  1.4289 -0.1562
   25GLOH    O2 8524   1.918   4.858   2.058 -0.5456  0.2452  0.0278
   25GLOH   H05 8525   1.977   4.878   2.133  1.3836  4.0164 -2.2910
   25GLOH    C3 8526   1.967   4.623   2.099  0.2838 -0.0833 -0.2552
   25GLOH   H06 8527   2.021   4.653   2.189 -3.0599  3.4484  0.7082
   25GLOH   H07 8528   2.032   4.550   2.050  0.0061 -1.9314  2.0618
   25GLOH    O3 8529   1.841   4.569   2.140  0.2356 -0.1538  0.2050
   25GLOH   H01 8530   1.812   4.624   2.216  0.1463  0.3010 -0.1561
   26GLOH   H03 8531   1.871   3.330   2.413 -0.0995  0.0250 -0.5587
   26GLOH    O1 8532   1.843   3.423   2.417 -0.7563 -0.1914  0.0683
   26GLOH    C1 8533   1.943   3.491   2.489 -0.9643  0.2092 -0.2958
   26GLOH   H02 8534   1.991   3.411   2.545  0.3299 -0.1029 -1.8001
   26GLOH   H08 8535   1.909   3.559   2.567  2.3269  3.5711 -1.6022
   26GLOH    C2 8536   2.047   3.573   2.410  0.0294  0.4993  0.0587
   26GLOH   H04 8537   2.012   3.675   2.387  1.7184  1.3588  1.2560
   26GLOH    O2 8538   2.165   3.586   2.495  0.0753  0.4739 -0.7637
   26GLOH   H05 8539   2.154   3.626   2.583 -0.0828  1.6777 -1.3169
   26GLOH    C3 8540   2.077   3.500   2.274 -0.0108 -0.8039 -0.6633
   26GLOH   H06 8541   1.978   3.494   2.227 -0.2592 -0.3119 -0.2175
   26GLOH   H07 8542   2.106   3.400   2.305 -0.6079  0.3892  4.1736
   26GLOH    O3 8543   2.158   3.565   2.172  0.4206 -0.1520 -0.1069
   26GLOH   H01 8544   2.242   3.601   2.205  0.1342  1.3541 -0.9757
   27GLOH   H03 8545   9.868   4.486   0.498  0.9369 -1.2240  0.0720
   27GLOH    O1 8546   9.921   4.523   0.572 -0.1307  0.0766  0.2121
   27GLOH    C1 8547   9.844   4.606   0.665  0.0578  0.0648  0.3261
   27GLOH   H02 8548   9.899   4.613   0.759 -0.5353 -1.3910  0.7956
   27GLOH   H08 8549   9.751   4.557   0.694  0.2072 -0.3031  0.1923
   27GLOH    C2 8550   9.804   4.745   0.606 -0.9960  0.1892  0.6881
   27GLOH   H04 8551   9.761   4.728   0.507  0.0975  0.7752  0.1039
   27GLOH    O2 8552   9.707   4.799   0.689  0.2981  0.2808  0.7054
   27GLOH   H05 8553   9.726   4.894   0.696  0.3543  0.2487  1.0146
   27GLOH    C3 8554   9.929   4.830   0.589  0.9547  0.0809 -0.0839
   27GLOH   H06 8555   9.887   4.923   0.550 -2.8196 -1.5548 -0.1509
   27GLOH   H07 8556   9.993   4.787   0.512 -0.0661 -2.0579  0.2172
   27GLOH    O3 8557  10.001   4.859   0.708 -0.1089 -0.1149 -0.4602
   27GLOH   H01 8558  10.084   4.807   0.711 -1.3846 -2.1801 -0.6018
   28GLOH   H03 8559   3.421   0.779   2.843  1.3473  1.8127  1.3684
   28GLOH    O1 8560   3.403   0.857   2.788 -0.4889  0.3036 -0.2078
   28GLOH    C1 8561   3.477   0.978   2.820 -0.4494 -0.6811  0.2285
   28GLOH   H02 8562   3.416   1.049   2.876 -0.5191 -1.9343  1.7647
   28GLOH   H08 8563   3.502   1.030   2.727  0.7057 -1.1686  0.2568
   28GLOH    C2 8564   3.600   0.948   2.896 -0.1792  0.3368 -0.3446
   28GLOH   H04 8565   3.669   0.902   2.824 -0.1303  2.7444 -1.9262
   28GLOH    O2 8566   3.655   1.069   2.955 -0.1884  0.3802  0.3363
   28GLOH   H05 8567   3.702   1.049   3.038  1.2672 -2.7540 -1.1669
   28GLOH    C3 8568   3.578   0.839   3.006 -0.2019 -0.7583  0.0054
   28GLOH   H06 8569   3.515   0.892   3.077 -0.2627  1.1116 -1.4068
   28GLOH   H07 8570   3.676   0.811   3.046  0.6372  0.9753 -0.7733
   28GLOH    O3 8571   3.510   0.717   2.972 -0.1221 -0.7715 -0.7709
   28GLOH   H01 8572   3.486   0.681   3.059  3.9286 -0.3577  0.6544
   29GLOH   H03 8573   2.398   1.243   1.818 -1.4413  0.0393 -1.0831
   29GLOH    O1 8574   2.340   1.236   1.897 -0.0146  0.0370 -0.0118
   29GLOH    C1 8575   2.275   1.366   1.920 -0.1642  0.5305 -0.1996
   29GLOH   H02 8576   2.202   1.362   2.001  0.1499 -0.9266  0.0298
   29GLOH   H08 8577   2.213   1.386   1.833  1.1245 -0.2597 -1.3066
   29GLOH    C2 8578   2.386   1.469   1.956 -0.2127 -0.2154 -0.2374
   29GLOH   H04 8579   2.440   1.439   2.047  1.9584  1.9160 -0.7907
   29GLOH    O2 8580   2.477   1.500   1.848 -0.1490  0.4554  0.3325
   29GLOH   H05 8581   2.490   1.420   1.794  1.6391  0.0927  1.2860
   29GLOH    C3 8582   2.326   1.605   1.997  0.3027 -0.8024 -0.3911
   29GLOH   H06 8583   2.283   1.647   1.906  1.1917  0.0086 -0.4570
   29GLOH   H07 8584   2.399   1.681   2.027 -0.2944  0.7831 -2.8036
   29GLOH    O3 8585   2.225   1.605   2.099 -0.0858 -0.5151 -0.2404
   29GLOH   H01 8586   2.261   1.566   2.181  1.5753  2.6682  0.6139
   30GLOH   H03 8587   2.812   5.544   1.415 -1.1900  0.5306  1.6272
   30GLOH    O1 8588   2.738   5.560   1.353  0.0967  0.6416  0.0740
   30GLOH    C1 8589   2.763   5.688   1.291 -0.2811  0.4476 -0.4741
   30GLOH   H02 8590   2.856   5.685   1.233  0.0394  0.2268  0.0446
   30GLOH   H08 8591   2.772   5.768   1.364  0.5540 -0.9123  0.9733
   30GLOH    C2 8592   2.655   5.722   1.195  0.4661 -0.4757  0.2545
   30GLOH   H04 8593   2.562   5.740   1.251  1.8250  2.1725  1.7408
   30GLOH    O2 8594   2.672   5.844   1.130  0.2806  0.1792  0.2725
   30GLOH   H05 8595   2.689   5.914   1.195  1.2457 -0.5503  0.8400
   30GLOH    C3 8596   2.626   5.601   1.098  0.0660  0.2284  0.1589
   30GLOH   H06 8597   2.613   5.504   1.146 -1.4309 -0.3142 -1.2980
   30GLOH   H07 8598   2.711   5.608   1.030  0.1399 -0.2243  0.2044
   30GLOH    O3 8599   2.510   5.617   1.016  0.1571  0.1531 -0.1000
   30GLOH   H01 8600   2.537   5.586   0.928 -2.0645  0.4710 -0.9176
   31GLOH   H03 8601   4.948   1.632   2.646  0.5148 -0.8679  0.6477
   31GLOH    O1 8602   5.040   1.638   2.613  0.4673  0.0932  0.6741
   31GLOH    C1 8603   5.087   1.776   2.635  0.2557 -0.1774 -0.8700
   31GLOH   H02 8604   5.018   1.847   2.590 -0.1881 -0.3635 -0.4960
   31GLOH   H08 8605   5.175   1.794   2.573  0.2127 -1.3207 -1.2746
   31GLOH    C2 8606   5.133   1.806   2.773 -0.0206 -1.0789 -0.0548
   31GLOH   H04 8607   5.168   1.910   2.772 -2.2009 -0.2801  1.0866
   31GLOH    O2 8608   5.015   1.795   2.853 -0.4976 -0.6378 -0.2308
   31GLOH   H05 8609   5.041   1.784   2.946  1.1738  2.8442 -0.2161
   31GLOH    C3 8610   5.248   1.712   2.818  0.3120 -0.5991 -0.3570
   31GLOH   H06 8611   5.332   1.736   2.753  0.3535  0.4859  0.0866
   31GLOH   H07 8612   5.220   1.610   2.794 -2.9432 -0.0880  0.9286
   31GLOH    O3 8613   5.263   1.722   2.957 -0.5230 -0.5848  0.2392
   31GLOH   H01 8614   5.274   1.817   2.975  2.3694 -0.8909  0.2407
   32GLOH   H03 8615   3.986   0.353   1.026 -0.9272 -0.9134  1.4473
   32GLOH    O1 8616   3.985   0.431   1.083  0.0324  0.1022  0.0957
   32GLOH    C1 8617   4.102   0.441   1.163  0.2820 -0.6360  0.1222
   32GLOH   H02 8618   4.173   0.378   1.109  0.2102  1.6397 -2.7347
   32GLOH   H08 8619   4.093   0.399   1.264 -1.1092 -3.5176 -1.1242
   32GLOH    C2 8620   4.154   0.588   1.174 -0.6601  0.2238 -0.0796
   32GLOH   H04 8621   4.103   0.644   1.094  3.0200  1.3864 -1.7296
   32GLOH    O2 8622   4.105   0.662   1.285 -0.1149 -0.1530  0.6091
   32GLOH   H05 8623   4.014   0.644   1.314 -0.2576  1.1796  1.0268
   32GLOH    C3 8624   4.305   0.605   1.133 -0.3562 -0.7444  0.2833
   32GLOH   H06 8625   4.351   0.699   1.163  1.9272 -0.9703 -2.3798
   32GLOH   H07 8626   4.306   0.612   1.024  0.3643  0.6192  0.3674
   32GLOH    O3 8627   4.372   0.493   1.182  0.3375  0.2595  0.0052
   32GLOH   H01 8628   4.446   0.484   1.118 -1.5123 -3.4756 -1.7439
   33GLOH   H03 8629   9.594   5.075   3.072 -0.2333 -0.2603  0.0234
   33GLOH    O1 8630   9.501   5.104   3.076  0.0707  0.7727 -0.0761
   33GLOH    C1 8631   9.436   4.991   3.014  0.9114  0.1059 -0.4144
   33GLOH   H02 8632   9.328   4.988   3.031  0.3534 -1.4679 -3.9168
   33GLOH   H08 8633   9.468   4.894   3.051  0.0138 -1.3527 -3.3608
   33GLOH    C2 8634   9.458   4.994   2.864  0.4355  0.2791 -0.1478
   33GLOH   H04 8635   9.567   4.989   2.852  0.4735 -0.4326  0.4722
   33GLOH    O2 8636   9.390   4.890   2.792  0.2149  0.0351 -0.3204
   33GLOH   H05 8637   9.396   4.906   2.696 -0.6064 -0.1174 -0.3997
   33GLOH    C3 8638   9.432   5.138   2.808 -0.0081 -0.3966 -0.0254
   33GLOH   H06 8639   9.328   5.165   2.826  0.3464  0.4343  0.8635
   33GLOH   H07 8640   9.447   5.126   2.701 -1.4675 -1.6161 -0.1008
   33GLOH    O3 8641   9.534   5.226   2.866 -0.1164  0.1897 -0.6689
   33GLOH   H01 8642   9.546   5.199   2.959  0.6521  1.5885 -0.3406
   34GLOH   H03 8643   4.011   1.532   1.174 -0.2532 -0.5551  0.1929
   34GLOH    O1 8644   4.004   1.585   1.092  0.0080 -0.2723  0.3516
   34GLOH    C1 8645   3.906   1.696   1.094 -0.4629 -0.0894 -0.1693
   34GLOH   H02 8646   3.802   1.664   1.099 -0.2623 -0.5428  1.3052
   34GLOH   H08 8647   3.917   1.733   0.992 -0.2547 -0.7666 -0.3949
   34GLOH    C2 8648   3.946   1.802   1.196  0.0418  0.3332  0.8864
   34GLOH   H04 8649   3.955   1.752   1.294  1.2996  1.8100  1.5484
   34GLOH    O2 8650   4.077   1.853   1.169  0.8023  0.2464  0.0034
   34GLOH   H05 8651   4.067   1.892   1.081 -0.8836  0.6055  0.3343
   34GLOH    C3 8652   3.833   1.908   1.187 -0.0627 -0.5957  0.1553
   34GLOH   H06 8653   3.835   1.974   1.274 -2.2683 -0.3294  0.0302
   34GLOH   H07 8654   3.736   1.859   1.200  1.5657 -3.9275  0.2870
   34GLOH    O3 8655   3.826   1.989   1.068  0.3468 -0.1492 -0.7639
   34GLOH   H01 8656   3.753   2.054   1.061  1.0737  0.5838 -1.6133
   35GLOH   H03 8657   4.337   5.077   2.051 -0.0843 -0.9603  0.3790
   35GLOH    O1 8658   4.340   5.071   1.954  0.3037 -0.0015  0.3243
   35GLOH    C1 8659   4.476   5.096   1.917  0.1334 -0.0441  0.3737
   35GLOH   H02 8660   4.534   5.129   2.003  0.0248 -1.7438  1.1101
   35GLOH   H08 8661   4.477   5.178   1.845 -0.6871  1.5655  2.1494
   35GLOH    C2 8662   4.548   4.964   1.867 -0.1021 -0.6306  0.0210
   35GLOH   H04 8663   4.652   4.996   1.851 -0.4211  0.6020  0.3538
   35GLOH    O2 8664   4.536   4.864   1.967 -0.1283  0.1328  0.1425
   35GLOH   H05 8665   4.447   4.827   1.954  0.6753 -1.2367 -1.8222
   35GLOH    C3 8666   4.493   4.932   1.723 -0.1822 -0.2301 -0.3145
   35GLOH   H06 8667   4.386   4.929   1.740  0.0787 -0.8673  1.3037
   35GLOH   H07 8668   4.518   4.830   1.696 -4.6325 -1.5683  0.2000
   35GLOH    O3 8669   4.536   5.017   1.615  0.3592  0.1321 -0.3617
   35GLOH   H01 8670   4.570   4.967   1.539 -0.8736 -0.0785 -0.7920
   36GLOH   H03 8671   3.049   6.573   1.007  0.3225 -0.5965 -1.6259
   36GLOH    O1 8672   3.061   6.477   1.017  0.0598 -0.4688  0.0078
   36GLOH    C1 8673   3.064   6.414   0.894 -0.4561  0.2413 -0.1710
   36GLOH   H02 8674   3.108   6.314   0.898 -0.1648  0.3882  0.3677
   36GLOH   H08 8675   3.120   6.478   0.826 -0.7129 -0.8385 -1.4293
   36GLOH    C2 8676   2.920   6.411   0.841 -0.1327 -0.1073  0.1995
   36GLOH   H04 8677   2.903   6.520   0.836  0.6501 -0.0124 -0.6562
   36GLOH    O2 8678   2.909   6.350   0.714 -0.2712 -0.1579  0.3359
   36GLOH   H05 8679   2.941   6.258   0.710 -0.7250 -0.2776 -0.5213
   36GLOH    C3 8680   2.826   6.339   0.934  0.2713  0.1448 -0.6464
   36GLOH   H06 8681   2.830   6.383   1.034  0.8085 -0.5688 -0.3434
   36GLOH   H07 8682   2.861   6.235   0.936 -0.0756 -0.0022 -1.9597
   36GLOH    O3 8683   2.684   6.332   0.900 -0.1624  0.0877 -0.3791
   36GLOH   H01 8684   2.679   6.376   0.813  1.9944  1.5980  0.2399
   37GLOH   H03 8685   4.613   3.786   0.320  1.0519 -4.3061 -1.7858
   37GLOH    O1 8686   4.516   3.779   0.325  0.7190  0.0286 -0.0752
   37GLOH    C1 8687   4.459   3.721   0.445 -0.2754  0.1636 -0.1776
   37GLOH   H02 8688   4.523   3.640   0.479  1.4214  1.5002 -0.1176
   37GLOH   H08 8689   4.367   3.669   0.417  1.1897 -1.4194 -2.1867
   37GLOH    C2 8690   4.439   3.805   0.573 -0.1446  0.4641  0.1629
   37GLOH   H04 8691   4.349   3.860   0.542 -0.0139 -0.0965 -1.2432
   37GLOH    O2 8692   4.402   3.731   0.692  0.1781 -0.4148 -0.3314
   37GLOH   H05 8693   4.441   3.757   0.777 -0.1878 -1.0211  0.0305
   37GLOH    C3 8694   4.557   3.900   0.603  0.2860 -0.8352 -0.2019
   37GLOH   H06 8695   4.654   3.851   0.597  0.0308 -1.2603 -0.8855
   37GLOH   H07 8696   4.550   3.932   0.707 -0.2547  3.0173 -1.3592
   37GLOH    O3 8697   4.546   4.013   0.518  0.0271  0.6992 -0.0770
   37GLOH   H01 8698   4.460   4.059   0.529 -1.7508 -2.0518 -1.7368
   38GLOH   H03 8699   2.233   6.157   1.142 -0.2433  1.2681  1.8116
   38GLOH    O1 8700   2.163   6.178   1.077  0.8549  0.2892  0.2759
   38GLOH    C1 8701   2.149   6.073   0.985 -0.2284  0.1516 -0.0099
   38GLOH   H02 8702   2.119   5.979   1.032 -1.1958  0.9921  1.0769
   38GLOH   H08 8703   2.246   6.055   0.940  0.2101  0.8461  0.6582
   38GLOH    C2 8704   2.049   6.116   0.869  0.4691  0.7229  1.4426
   38GLOH   H04 8705   2.093   6.196   0.808 -0.0532  0.8732  1.2591
   38GLOH    O2 8706   2.030   5.999   0.780  0.2975  0.4360  0.3786
   38GLOH   H05 8707   1.955   6.017   0.721  0.3896  1.5148  0.5830
   38GLOH    C3 8708   1.917   6.161   0.934 -0.1363  0.2928 -0.3145
   38GLOH   H06 8709   1.859   6.081   0.979 -0.0845  0.8250  0.7063
   38GLOH   H07 8710   1.855   6.198   0.852  2.2493  0.6280 -2.0077
   38GLOH    O3 8711   1.945   6.265   1.029 -0.3962  0.2038 -0.3275
   38GLOH   H01 8712   2.035   6.244   1.059 -0.8745  0.6134  1.4712
   39GLOH   H03 8713   9.121   4.576   0.912 -2.0523 -2.0802  0.6661
   39GLOH    O1 8714   9.118   4.570   0.814 -0.1088  0.3288  0.4151
   39GLOH    C1 8715   9.243   4.514   0.767  0.2134 -0.4194 -0.5860
   39GLOH   H02 8716   9.221   4.486   0.664 -0.5673 -0.8196 -0.3176
   39GLOH   H08 8717   9.264   4.416   0.811 -0.0174 -0.9218 -1.5820
   39GLOH    C2 8718   9.363   4.607   0.790  0.0642  0.4968  0.4775
   39GLOH   H04 8719   9.376   4.615   0.899 -3.1391 -1.5342  1.0668
   39GLOH    O2 8720   9.487   4.545   0.746 -0.1603  0.2272  0.7788
   39GLOH   H05 8721   9.528   4.507   0.825 -1.1412  0.0569  1.2238
   39GLOH    C3 8722   9.337   4.745   0.733 -0.1456 -0.4196 -0.4851
   39GLOH   H06 8723   9.245   4.787   0.775  0.9978  0.6871  0.9943
   39GLOH   H07 8724   9.329   4.736   0.625 -0.6853  0.7708 -0.5492
   39GLOH    O3 8725   9.447   4.833   0.758 -0.3800  0.5521 -0.0139
   39GLOH   H01 8726   9.529   4.789   0.730  0.9399  2.4686  0.8017
   40GLOH   H03 8727   4.755   1.492   0.557  2.4143  1.4737  1.0262
   40GLOH    O1 8728   4.684   1.522   0.616  0.5287  0.0794 -0.4997
   40GLOH    C1 8729   4.732   1.499   0.751 -0.0450  0.6356 -0.0157
   40GLOH   H02 8730   4.655   1.520   0.825  0.2677  0.9462  0.2227
   40GLOH   H08 8731   4.810   1.573   0.767 -0.8486  1.2342  1.1806
   40GLOH    C2 8732   4.784   1.355   0.778 -0.1557 -0.4084 -0.0339
   40GLOH   H04 8733   4.879   1.341   0.724 -0.4778 -1.8622 -0.2368
   40GLOH    O2 8734   4.797   1.341   0.923  0.5145  0.7532  0.2190
   40GLOH   H05 8735   4.815   1.251   0.956 -3.9300 -0.1702  0.4348
   40GLOH    C3 8736   4.691   1.249   0.720  0.6280 -0.4956 -0.0154
   40GLOH   H06 8737   4.684   1.259   0.612  0.6136  3.5200  0.2951
   40GLOH   H07 8738   4.589   1.254   0.758  1.0259 -0.0714  1.0273
   40GLOH    O3 8739   4.731   1.111   0.747 -0.0304  0.1420 -0.2721
   40GLOH   H01 8740   4.719   1.098   0.843  0.1748 -2.4569 -0.5590
   41GLOH   H03 8741   2.594   7.717   0.588  0.1864 -2.1494  1.1659
   41GLOH    O1 8742   2.497   7.710   0.592 -0.0810  0.4521  0.1698
   41GLOH    C1 8743   2.454   7.624   0.701  0.7553  0.0578  0.5163
   41GLOH   H02 8744   2.349   7.600   0.687  0.8498 -0.5783  0.8757
   41GLOH   H08 8745   2.463   7.671   0.799 -0.2286 -0.3688  0.8206
   41GLOH    C2 8746   2.541   7.492   0.710  0.0438 -0.1047 -0.5612
   41GLOH   H04 8747   2.554   7.447   0.611  0.3110  2.6659 -1.8298
   41GLOH    O2 8748   2.670   7.529   0.768 -1.0781 -0.2160 -0.4110
   41GLOH   H05 8749   2.675   7.574   0.854  0.4538 -1.9964  0.4942
   41GLOH    C3 8750   2.475   7.380   0.793 -0.2355 -0.1807  0.7531
   41GLOH   H06 8751   2.510   7.391   0.896  1.3198  0.5074  0.1682
   41GLOH   H07 8752   2.506   7.290   0.742 -0.2666 -0.0536  0.5092
   41GLOH    O3 8753   2.330   7.374   0.799  0.6746 -0.4472  0.8728
   41GLOH   H01 8754   2.285   7.343   0.719 -1.0696  0.0277  1.6513
   42GLOH   H03 8755   3.508   9.694   1.712  0.0640  1.4686  0.5642
   42GLOH    O1 8756   3.482   9.737   1.628  0.2634 -0.4282 -0.4905
   42GLOH    C1 8757   3.572   9.697   1.519  0.2397 -0.1261  0.3882
   42GLOH   H02 8758   3.561   9.773   1.441  2.3427 -0.2829 -0.0888
   42GLOH   H08 8759   3.542   9.602   1.475 -1.1420  0.7234 -0.5436
   42GLOH    C2 8760   3.722   9.699   1.554 -0.2120 -0.3676  0.1445
   42GLOH   H04 8761   3.731   9.621   1.630  0.5123 -0.6352 -0.2114
   42GLOH    O2 8762   3.798   9.652   1.439  0.2547 -0.1509  0.5531
   42GLOH   H05 8763   3.887   9.691   1.432 -0.8552  2.2218 -0.7938
   42GLOH    C3 8764   3.755   9.835   1.613  0.3034 -0.2139  0.7170
   42GLOH   H06 8765   3.682   9.860   1.690  0.4394 -0.3290  0.8843
   42GLOH   H07 8766   3.745   9.904   1.529  0.0651 -0.7236  0.3272
   42GLOH    O3 8767   3.885   9.847   1.673 -0.4534 -0.2902  0.3938
   42GLOH   H01 8768   3.882   9.781   1.744 -0.9247 -1.2863 -0.5472
   43GLOH   H03 8769   4.605   2.163   2.089 -1.1785  0.0469 -0.1013
   43GLOH    O1 8770   4.600   2.080   2.139  0.0946 -0.1361 -0.2677
   43GLOH    C1 8771   4.715   2.034   2.201  0.1967 -0.7181  0.7127
   43GLOH   H02 8772   4.759   2.106   2.270  1.4422  0.6564 -1.4268
   43GLOH   H08 8773   4.794   2.024   2.126 -0.4772  1.3712 -0.3277
   43GLOH    C2 8774   4.696   1.892   2.258 -0.4135  0.4646  0.5292
   43GLOH   H04 8775   4.707   1.815   2.180  1.0138 -0.0166  1.1926
   43GLOH    O2 8776   4.807   1.862   2.342 -0.3122 -0.2844 -0.3166
   43GLOH   H05 8777   4.881   1.830   2.288 -0.9544 -0.1521 -1.2866
   43GLOH    C3 8778   4.564   1.862   2.335  0.2537  0.3131 -0.1861
   43GLOH   H06 8779   4.569   1.925   2.424  0.6198 -0.5447  0.4028
   43GLOH   H07 8780   4.555   1.762   2.376 -0.7689  1.1923  1.8420
   43GLOH    O3 8781   4.452   1.894   2.247  0.9494  0.2657  0.1570
   43GLOH   H01 8782   4.461   1.989   2.228 -1.2894  0.1058 -1.9356
   44GLOH   H03 8783   4.662   5.043   0.297  0.3991 -0.4967 -1.6068
   44GLOH    O1 8784   4.670   5.139   0.281 -0.3303 -0.0543  0.5422
   44GLOH    C1 8785   4.672   5.208   0.408  0.2682 -0.0981  0.6020
   44GLOH   H02 8786   4.657   5.315   0.396  1.3051  0.0291  0.4737
   44GLOH   H08 8787   4.764   5.204   0.465  0.1767  1.5272  0.8769
   44GLOH    C2 8788   4.569   5.161   0.509 -0.0689  0.0288  0.2430
   44GLOH   H04 8789   4.549   5.053   0.501  2.3411 -0.5419  1.4199
   44GLOH    O2 8790   4.612   5.207   0.638 -0.0753 -0.4600  0.0164
   44GLOH   H05 8791   4.553   5.160   0.699  0.3416 -0.0454  0.7448
   44GLOH    C3 8792   4.430   5.222   0.472  0.3068  0.4183 -0.1958
   44GLOH   H06 8793   4.422   5.196   0.366  0.8421  0.1240 -0.1677
   44GLOH   H07 8794   4.442   5.330   0.470 -0.0599  0.4652  0.0398
   44GLOH    O3 8795   4.326   5.179   0.556 -0.4657 -0.4310 -0.2736
   44GLOH   H01 8796   4.352   5.168   0.649  1.6207  1.6229 -0.6019
   45GLOH   H03 8797   3.640   3.881   1.262  0.0075  0.0228 -0.3050
   45GLOH    O1 8798   3.619   3.789   1.287  0.3211 -0.0847 -0.4325
   45GLOH    C1 8799   3.475   3.782   1.298  0.9190  0.8177  0.6937
   45GLOH   H02 8800   3.424   3.784   1.201 -0.2349  1.4513  1.3047
   45GLOH   H08 8801   3.442   3.865   1.361  3.2200  2.2988  0.0210
   45GLOH    C2 8802   3.444   3.647   1.351 -0.1996 -0.3904  0.2544
   45GLOH   H04 8803   3.497   3.568   1.298  3.4569  2.1476 -0.0092
   45GLOH    O2 8804   3.478   3.617   1.485  0.0781 -0.0541 -0.9783
   45GLOH   H05 8805   3.537   3.541   1.498  1.0420  0.8291 -0.1555
   45GLOH    C3 8806   3.293   3.614   1.342  0.1527 -0.7648  0.2048
   45GLOH   H06 8807   3.240   3.685   1.405  2.4741 -0.9246  2.4062
   45GLOH   H07 8808   3.270   3.516   1.383 -3.1055  0.4383  1.4093
   45GLOH    O3 8809   3.251   3.616   1.209 -0.4416  0.3125  0.7828
   45GLOH   H01 8810   3.217   3.526   1.192 -1.0248  0.3828  1.5462
   46GLOH   H03 8811   3.304   9.027   1.652 -1.1800  0.3841 -1.9709
   46GLOH    O1 8812   3.387   9.047   1.605 -0.0109  0.4188  0.0567
   46GLOH    C1 8813   3.478   9.120   1.685  0.0223  0.7938 -0.5304
   46GLOH   H02 8814   3.578   9.083   1.665  0.1645  1.4577 -1.0536
   46GLOH   H08 8815   3.449   9.108   1.790  1.6320 -0.6712 -0.2447
   46GLOH    C2 8816   3.473   9.274   1.658  0.2745 -0.1351  0.1315
   46GLOH   H04 8817   3.370   9.304   1.680  0.7851  0.8439  1.2952
   46GLOH    O2 8818   3.548   9.354   1.752  0.1713 -0.2330  0.6203
   46GLOH   H05 8819   3.525   9.442   1.787  0.2106  0.1515 -0.3117
   46GLOH    C3 8820   3.515   9.290   1.511  0.4286 -0.6780  0.1610
   46GLOH   H06 8821   3.617   9.252   1.510  1.3028  1.5709  0.4055
   46GLOH   H07 8822   3.514   9.395   1.478 -0.7599 -0.5562  0.5679
   46GLOH    O3 8823   3.448   9.216   1.419  0.2777  0.0309 -0.0539
   46GLOH   H01 8824   3.419   9.133   1.462 -0.2191  1.3040  2.1187
   47GLOH   H03 8825   2.401   7.632   3.102 -0.3951 -0.0628  0.3217
   47GLOH    O1 8826   2.352   7.579   3.038  0.2699 -0.5833  0.2412
   47GLOH    C1 8827   2.332   7.655   2.918 -0.1179 -0.0658 -1.1253
   47GLOH   H02 8828   2.339   7.757   2.957 -3.1141 -0.8609  1.7883
   47GLOH   H08 8829   2.235   7.643   2.870 -1.1703 -3.0384  1.5729
   47GLOH    C2 8830   2.444   7.648   2.813  0.6153  0.0651 -0.7481
   47GLOH   H04 8831   2.434   7.554   2.757  0.1969 -1.1024  1.2447
   47GLOH    O2 8832   2.417   7.746   2.713  0.1587  0.2351  0.0211
   47GLOH   H05 8833   2.481   7.739   2.640  1.9960  1.3448  1.4821
   47GLOH    C3 8834   2.582   7.661   2.877  0.2024  0.4859 -0.9632
   47GLOH   H06 8835   2.582   7.585   2.955 -2.1271 -0.8351 -2.1911
   47GLOH   H07 8836   2.597   7.760   2.919  0.8440 -1.1250  2.7932
   47GLOH    O3 8837   2.690   7.645   2.781 -0.0873 -0.6045 -0.2739
   47GLOH   H01 8838   2.670   7.561   2.736 -0.8127 -0.9025  0.5748
   48GLOH   H03 8839   4.671   0.940   1.660 -1.2583 -1.9339 -0.6980
   48GLOH    O1 8840   4.725   0.954   1.580  0.2932  0.2431  0.6570
   48GLOH    C1 8841   4.668   1.056   1.496 -0.1140  0.3366 -0.0713
   48GLOH   H02 8842   4.691   1.154   1.537 -2.0873  0.4912  0.7555
   48GLOH   H08 8843   4.560   1.046   1.482  0.1525 -1.7585 -0.8250
   48GLOH    C2 8844   4.727   1.043   1.356  0.1875 -0.3769 -0.1917
   48GLOH   H04 8845   4.701   0.944   1.316 -0.4146 -0.4422  0.3508
   48GLOH    O2 8846   4.653   1.143   1.284 -0.1688 -0.0406 -0.2891
   48GLOH   H05 8847   4.562   1.113   1.265 -0.9087  1.6060  0.6029
   48GLOH    C3 8848   4.886   1.066   1.352  0.1822 -0.7015 -0.4072
   48GLOH   H06 8849   4.914   1.169   1.375 -0.3424 -0.6543  0.0328
   48GLOH   H07 8850   4.924   1.048   1.251 -0.2950 -2.2602 -0.3163
   48GLOH    O3 8851   4.951   0.972   1.434 -0.5170 -0.2015 -0.4618
   48GLOH   H01 8852   4.894   0.966   1.513  0.4524 -0.3751  0.2317
   49GLOH   H03 8853   4.927   3.834   1.483  3.4618 -2.0546 -0.0793
   49GLOH    O1 8854   4.900   3.765   1.545  0.3443 -0.0323  0.9319
   49GLOH    C1 8855   4.987   3.659   1.508  0.0527 -0.7336 -0.0474
   49GLOH   H02 8856   5.004   3.654   1.400  3.6334 -1.4821  0.4612
   49GLOH   H08 8857   4.943   3.562   1.534 -1.4474  0.3099  1.3756
   49GLOH    C2 8858   5.128   3.661   1.574 -0.0653 -0.1601  0.6826
   49GLOH   H04 8859   5.114   3.646   1.682  0.9114 -0.1507  0.8089
   49GLOH    O2 8860   5.205   3.552   1.519 -0.3698  0.1708  0.1120
   49GLOH   H05 8861   5.216   3.562   1.423 -0.5236  2.0307  0.2802
   49GLOH    C3 8862   5.192   3.797   1.547 -0.2705  0.6062  0.7177
   49GLOH   H06 8863   5.297   3.804   1.576  0.4172  0.9106 -1.7610
   49GLOH   H07 8864   5.130   3.868   1.602 -2.4799 -0.9431  0.2507
   49GLOH    O3 8865   5.193   3.825   1.409  0.3570  0.2900 -0.4185
   49GLOH   H01 8866   5.106   3.859   1.381 -0.1060  0.3234  1.0233
   50GLOH   H03 8867   4.237   4.846   1.268 -0.9236 -1.5724  1.9249
   50GLOH    O1 8868   4.251   4.893   1.352  0.2572  0.9980  0.3428
   50GLOH    C1 8869   4.291   5.027   1.320  0.1937 -0.5462 -0.2365
   50GLOH   H02 8870   4.341   5.036   1.223  1.5393  0.1633  0.5000
   50GLOH   H08 8871   4.369   5.055   1.392 -3.0016  2.5123  2.1936
   50GLOH    C2 8872   4.175   5.125   1.311  0.1475  0.2276 -0.1618
   50GLOH   H04 8873   4.099   5.077   1.247  0.0200  0.1780  0.0279
   50GLOH    O2 8874   4.130   5.156   1.450 -0.2789  0.3895  0.6494
   50GLOH   H05 8875   4.209   5.180   1.503  0.2234 -1.1531  0.6415
   50GLOH    C3 8876   4.218   5.256   1.249  0.3547  0.2697  0.0235
   50GLOH   H06 8877   4.296   5.302   1.309  1.7224  2.1633 -3.0908
   50GLOH   H07 8878   4.135   5.326   1.240  0.1821  0.0499 -0.1135
   50GLOH    O3 8879   4.277   5.237   1.120  0.1509 -0.6614 -0.3292
   50GLOH   H01 8880   4.209   5.185   1.072  0.8195  0.5890 -2.7387
   51GLOH   H03 8881   4.976   3.628   2.866 -2.3322 -0.9741 -0.4379
   51GLOH    O1 8882   4.948   3.684   2.792 -0.5560 -0.0855 -0.4464
   51GLOH    C1 8883   4.851   3.623   2.708  0.6060  0.4626  0.2243
   51GLOH   H02 8884   4.806   3.695   2.640  0.6878 -0.3498 -0.6966
   51GLOH   H08 8885   4.773   3.590   2.777  1.2559 -1.0264  0.2735
   51GLOH    C2 8886   4.900   3.509   2.615  0.1541 -0.2611  0.5920
   51GLOH   H04 8887   4.972   3.559   2.549  1.0120  0.6258  2.1733
   51GLOH    O2 8888   4.948   3.387   2.675 -0.0100 -0.4534 -0.4035
   51GLOH   H05 8889   5.024   3.356   2.624 -0.2085 -1.2810 -0.2038
   51GLOH    C3 8890   4.778   3.469   2.528  0.5989  0.0634 -0.5349
   51GLOH   H06 8891   4.695   3.447   2.595 -0.5571  2.3884 -1.1611
   51GLOH   H07 8892   4.795   3.377   2.473  0.4981  1.2037 -2.5221
   51GLOH    O3 8893   4.739   3.580   2.438  0.8463 -0.1133 -0.2327
   51GLOH   H01 8894   4.776   3.551   2.353  0.0591 -2.5726  0.2238
   52GLOH   H03 8895   3.961   4.799   2.134  0.5800  0.2804 -0.4823
   52GLOH    O1 8896   3.993   4.755   2.215 -0.1116 -0.3542 -0.5416
   52GLOH    C1 8897   4.114   4.826   2.265 -0.1150  0.1918 -0.2213
   52GLOH   H02 8898   4.200   4.805   2.202 -0.3008 -1.7151  0.1362
   52GLOH   H08 8899   4.145   4.785   2.361  2.1941 -0.1330 -1.0649
   52GLOH    C2 8900   4.082   4.978   2.287 -0.0806 -0.1004  0.2462
   52GLOH   H04 8901   4.034   5.012   2.194  2.1534 -1.7404 -1.5928
   52GLOH    O2 8902   3.986   5.004   2.395 -0.0349 -0.0402  0.1810
   52GLOH   H05 8903   3.954   5.096   2.389 -0.2283 -0.1477 -0.3725
   52GLOH    C3 8904   4.214   5.060   2.315 -0.3973 -0.4119  0.4300
   52GLOH   H06 8905   4.266   5.006   2.395 -0.1867 -0.7550  0.0609
   52GLOH   H07 8906   4.195   5.160   2.356  2.2266 -0.6003  2.2929
   52GLOH    O3 8907   4.295   5.067   2.203  0.3623  0.5953  0.2615
   52GLOH   H01 8908   4.382   5.027   2.222 -0.4119  0.2922  3.5605
   53GLOH   H03 8909   1.232   5.437   0.416  1.4098  0.2031  0.5586
   53GLOH    O1 8910   1.273   5.350   0.400  0.6683 -0.0464 -0.0231
   53GLOH    C1 8911   1.408   5.358   0.445  0.2391  0.5970 -0.4680
   53GLOH   H02 8912   1.431   5.257   0.479  0.1415  0.0852 -1.9116
   53GLOH   H08 8913   1.424   5.435   0.521 -1.4275  1.5820 -1.1040
   53GLOH    C2 8914   1.497   5.381   0.322 -0.1832  0.2188  0.0727
   53GLOH   H04 8915   1.461   5.465   0.262 -1.1553 -0.4763 -0.3336
   53GLOH    O2 8916   1.633   5.406   0.370 -0.0336  0.3445  0.0820
   53GLOH   H05 8917   1.642   5.476   0.437 -1.7376  1.6211 -0.9640
   53GLOH    C3 8918   1.488   5.253   0.235  0.0945 -0.4256  0.5172
   53GLOH   H06 8919   1.506   5.163   0.294  0.2927 -0.7415 -0.0162
   53GLOH   H07 8920   1.565   5.275   0.161 -0.8618  2.0536  0.2144
   53GLOH    O3 8921   1.357   5.242   0.179 -0.8544  0.4225  0.7596
   53GLOH   H01 8922   1.284   5.277   0.232 -0.1633 -0.6988  2.4965
   54GLOH   H03 8923   3.705   2.743   0.497  0.2978 -0.8640  2.1661
   54GLOH    O1 8924   3.628   2.800   0.485  0.5984 -0.8491  0.1749
   54GLOH    C1 8925   3.667   2.938   0.482 -0.1105 -0.3304  0.1265
   54GLOH   H02 8926   3.584   2.999   0.517  0.2862 -0.0161  0.5151
   54GLOH   H08 8927   3.684   2.977   0.381 -1.4100  2.1809  0.8533
   54GLOH    C2 8928   3.801   2.969   0.560 -0.1910 -0.2837  0.2479
   54GLOH   H04 8929   3.821   3.076   0.542 -2.5770 -0.1975 -2.1684
   54GLOH    O2 8930   3.805   2.934   0.702  0.3083 -0.5676  0.2328
   54GLOH   H05 8931   3.762   2.846   0.705 -0.6218 -0.2183 -1.7824
   54GLOH    C3 8932   3.915   2.903   0.477 -0.5229 -0.2166 -0.2586
   54GLOH   H06 8933   4.011   2.937   0.515 -0.5435 -0.0377 -0.3686
   54GLOH   H07 8934   3.913   2.934   0.373 -0.0841  0.2557 -0.1272
   54GLOH    O3 8935   3.896   2.763   0.486 -0.1514 -0.8962 -0.3850
   54GLOH   H01 8936   3.956   2.734   0.414 -1.1439 -1.0282 -1.1817
   55GLOH   H03 8937   3.442   8.240   0.303  0.6453 -0.6822  0.1412
   55GLOH    O1 8938   3.400   8.152   0.298 -0.0365 -0.3377 -0.4003
   55GLOH    C1 8939   3.408   8.091   0.433 -0.3305 -0.1920 -0.0329
   55GLOH   H02 8940   3.397   7.985   0.412 -0.3676  0.0560 -1.3173
   55GLOH   H08 8941   3.323   8.119   0.495  0.8109 -1.3065  2.0849
   55GLOH    C2 8942   3.543   8.110   0.501  0.4316 -0.2549  0.2072
   55GLOH   H04 8943   3.571   8.217   0.494  0.8961 -0.3527  0.5346
   55GLOH    O2 8944   3.543   8.051   0.637 -0.1195 -0.4766  0.0305
   55GLOH   H05 8945   3.595   8.103   0.701  0.6858 -0.5207 -0.5786
   55GLOH    C3 8946   3.650   8.043   0.412 -0.5077 -0.2550  0.6920
   55GLOH   H06 8947   3.613   8.032   0.310 -1.0788 -1.8162  1.0447
   55GLOH   H07 8948   3.652   7.944   0.458 -1.6760 -1.3221 -1.5073
   55GLOH    O3 8949   3.781   8.101   0.418 -0.1407 -0.1324  0.8418
   55GLOH   H01 8950   3.806   8.093   0.512 -0.6211 -0.9529  0.9154
   56GLOH   H03 8951   1.509   3.920   0.946  1.0607 -0.6421  1.5669
   56GLOH    O1 8952   1.455   3.978   1.003  0.0463 -0.0470  0.0454
   56GLOH    C1 8953   1.541   4.004   1.124  0.8940 -0.1570  0.4465
   56GLOH   H02 8954   1.642   3.965   1.107  0.5769 -0.5704 -0.5120
   56GLOH   H08 8955   1.501   3.938   1.201  2.6011 -1.9248 -0.1214
   56GLOH    C2 8956   1.567   4.143   1.180 -0.0459  0.4143  0.5832
   56GLOH   H04 8957   1.472   4.191   1.205 -0.7268 -0.1780 -0.8232
   56GLOH    O2 8958   1.647   4.121   1.306  0.1557 -0.2138 -0.2780
   56GLOH   H05 8959   1.585   4.114   1.381  0.8144  1.0292  0.3925
   56GLOH    C3 8960   1.641   4.223   1.070  1.3888 -0.5275  0.2517
   56GLOH   H06 8961   1.590   4.214   0.974 -0.2494  2.7871  0.7438
   56GLOH   H07 8962   1.744   4.188   1.059  1.3918 -0.8964  1.4549
   56GLOH    O3 8963   1.651   4.362   1.110 -0.5156  0.1899 -0.1117
   56GLOH   H01 8964   1.697   4.416   1.043  0.3225  1.0431  1.1332
   57GLOH   H03 8965   3.305   6.504   0.541 -0.0886  0.5067 -0.5257
   57GLOH    O1 8966   3.368   6.551   0.598 -0.0859 -0.1244 -0.0096
   57GLOH    C1 8967   3.397   6.672   0.530 -0.3859 -0.0436  0.3256
   57GLOH   H02 8968   3.305   6.712   0.487  0.3978  0.2228 -1.1110
   57GLOH   H08 8969   3.468   6.648   0.451  0.5605 -1.6045  1.6228
   57GLOH    C2 8970   3.477   6.771   0.626 -0.5625  0.4074  0.2952
   57GLOH   H04 8971   3.559   6.719   0.678 -0.3430 -0.8000 -1.2236
   57GLOH    O2 8972   3.518   6.886   0.558  0.3898  0.0845  0.1787
   57GLOH   H05 8973   3.448   6.916   0.497  1.1978 -0.4949 -1.0583
   57GLOH    C3 8974   3.382   6.811   0.738 -0.0367  0.1360 -0.5413
   57GLOH   H06 8975   3.304   6.875   0.696  0.8628  2.8884  1.7911
   57GLOH   H07 8976   3.434   6.869   0.814 -1.3268  0.6862 -0.0551
   57GLOH    O3 8977   3.307   6.700   0.795  0.0860  0.1316 -0.1765
   57GLOH   H01 8978   3.318   6.624   0.735 -1.2592 -0.9976  0.9563
   58GLOH   H03 8979   3.374   0.853   2.215  0.8258  1.7120  1.8641
   58GLOH    O1 8980   3.445   0.786   2.215  0.0965  0.8918 -0.1717
   58GLOH    C1 8981   3.422   0.709   2.336  0.1125  0.8161  0.1248
   58GLOH   H02 8982   3.475   0.615   2.324 -2.5546 -0.5212 -1.4494
   58GLOH   H08 8983   3.318   0.677   2.339 -0.4518  2.6477  0.9205
   58GLOH    C2 8984   3.460   0.779   2.465  0.6387  0.5157  0.0751
   58GLOH   H04 8985   3.443   0.886   2.446 -0.2313  0.4825  0.6349
   58GLOH    O2 8986   3.377   0.726   2.574 -0.2326 -0.0668 -0.8630
   58GLOH   H05 8987   3.384   0.786   2.650  0.2778 -1.5140  0.2640
   58GLOH    C3 8988   3.611   0.759   2.502 -0.0085  0.0341  0.1942
   58GLOH   H06 8989   3.624   0.652   2.519 -0.1181 -0.3331 -1.8713
   58GLOH   H07 8990   3.621   0.794   2.604 -0.4373 -0.9108  0.5676
   58GLOH    O3 8991   3.706   0.812   2.414 -0.3763 -0.2067 -0.0524
   58GLOH   H01 8992   3.787   0.827   2.467 -0.9165  0.4697  0.6023
   59GLOH   H03 8993   3.003   5.262   0.948  2.4218  1.2477 -0.9385
   59GLOH    O1 8994   3.052   5.188   0.987  0.5972  0.7808  0.5474
   59GLOH    C1 8995   2.997   5.150   1.113 -0.8208  0.3462  0.2641
   59GLOH   H02 8996   3.046   5.060   1.150  0.1801  0.3643 -0.9815
   59GLOH   H08 8997   2.894   5.117   1.112 -0.9386  0.6700  1.2341
   59GLOH    C2 8998   3.013   5.259   1.219  0.3345 -0.1201 -0.1419
   59GLOH   H04 8999   2.954   5.343   1.179  0.2823 -0.2190 -0.2715
   59GLOH    O2 9000   2.954   5.222   1.345 -0.2486 -0.0008  0.2374
   59GLOH   H05 9001   3.000   5.142   1.373  0.8501  0.4135 -0.3602
   59GLOH    C3 9002   3.158   5.292   1.250  0.7199 -0.4195  0.0050
   59GLOH   H06 9003   3.203   5.198   1.279  0.7434 -0.1271  0.9318
   59GLOH   H07 9004   3.157   5.362   1.333 -1.4796 -0.7755  0.3106
   59GLOH    O3 9005   3.226   5.351   1.138 -0.0919 -0.3198  0.9048
   59GLOH   H01 9006   3.322   5.364   1.153  0.3753 -1.3650 -1.1237
   60GLOH   H03 9007   5.182   3.951   2.586  0.5814  0.4127  0.7751
   60GLOH    O1 9008   5.252   3.998   2.535  0.1686  0.3454  0.1406
   60GLOH    C1 9009   5.190   4.047   2.418 -0.4165  0.5325 -0.3732
   60GLOH   H02 9010   5.120   4.129   2.433 -0.0649  0.9148 -0.7962
   60GLOH   H08 9011   5.136   3.967   2.367 -1.9785 -0.1276  2.2039
   60GLOH    C2 9012   5.297   4.095   2.318 -0.2838  0.2086  0.0403
   60GLOH   H04 9013   5.363   4.007   2.314 -0.4116  0.1929 -2.3717
   60GLOH    O2 9014   5.252   4.128   2.181 -0.0912  0.5610 -0.2302
   60GLOH   H05 9015   5.292   4.056   2.130 -0.5594 -0.5223  0.9072
   60GLOH    C3 9016   5.371   4.207   2.386  0.3397  0.2392  0.0101
   60GLOH   H06 9017   5.290   4.276   2.409  1.0165  0.9374  0.2970
   60GLOH   H07 9018   5.435   4.256   2.312  1.3649 -0.4285  0.4390
   60GLOH    O3 9019   5.439   4.168   2.508  0.5037  0.5512  0.4560
   60GLOH   H01 9020   5.388   4.089   2.534  1.5578 -0.1947  0.3123
   61GLOH   H03 9021   4.095   4.272   1.909  1.7729  1.3601  2.1369
   61GLOH    O1 9022   4.062   4.362   1.892 -0.9542  0.0042 -0.2237
   61GLOH    C1 9023   4.033   4.372   1.750  0.0545 -0.5499 -1.1951
   61GLOH   H02 9024   3.943   4.314   1.726  0.4731 -1.4944 -0.5045
   61GLOH   H08 9025   4.122   4.332   1.703  0.3471 -2.3638  0.8278
   61GLOH    C2 9026   3.999   4.512   1.703 -0.4375 -0.6576 -0.0309
   61GLOH   H04 9027   3.956   4.489   1.604  2.0721 -1.3716 -0.9943
   61GLOH    O2 9028   3.895   4.580   1.776  0.4509  0.0686 -0.4700
   61GLOH   H05 9029   3.913   4.554   1.868 -1.3005  2.3577  0.5693
   61GLOH    C3 9030   4.129   4.600   1.692  0.1518  0.0330  0.0640
   61GLOH   H06 9031   4.180   4.599   1.789 -0.1670  0.9061  0.2478
   61GLOH   H07 9032   4.112   4.704   1.664  0.5172 -0.0152 -0.3315
   61GLOH    O3 9033   4.212   4.540   1.589 -0.0661 -0.5335  0.3553
   61GLOH   H01 9034   4.168   4.521   1.504  0.4752 -0.2547  0.0091
   62GLOH   H03 9035   3.298   3.081   2.623  0.9783 -0.9761  1.8126
   62GLOH    O1 9036   3.259   3.142   2.688 -0.5200 -0.2154  0.2322
   62GLOH    C1 9037   3.153   3.094   2.777 -0.0164  0.2655 -0.4866
   62GLOH   H02 9038   3.148   3.157   2.866  1.2810 -0.8901  0.4255
   62GLOH   H08 9039   3.172   2.994   2.816 -1.2512  1.1184  2.4586
   62GLOH    C2 9040   3.014   3.083   2.719  0.1912 -0.4561 -0.6750
   62GLOH   H04 9041   3.021   3.016   2.631  1.3519 -1.4758  0.1695
   62GLOH    O2 9042   2.914   3.034   2.813  0.4197 -0.3644  0.3308
   62GLOH   H05 9043   2.863   3.105   2.854 -2.0033 -1.9640  0.1553
   62GLOH    C3 9044   2.974   3.225   2.678  0.2581 -0.1771 -1.0340
   62GLOH   H06 9045   2.960   3.289   2.764  0.3184 -1.1317 -0.3017
   62GLOH   H07 9046   2.883   3.217   2.618 -0.8157 -1.3028  0.7084
   62GLOH    O3 9047   3.077   3.295   2.604  0.7766  0.1959 -0.3048
   62GLOH   H01 9048   3.158   3.241   2.610  0.9142  0.2992 -1.1005
   63GLOH   H03 9049   1.612   4.602   2.058  1.1334  1.0203 -0.3868
   63GLOH    O1 9050   1.563   4.681   2.088 -0.0993  0.2008 -0.1836
   63GLOH    C1 9051   1.514   4.642   2.213 -0.3139  0.0310  0.0383
   63GLOH   H02 9052   1.571   4.564   2.262  0.2423  0.5339  0.2093
   63GLOH   H08 9053   1.417   4.594   2.201 -0.7285  0.6824  0.7744
   63GLOH    C2 9054   1.488   4.757   2.313 -0.0070  0.1886  0.3897
   63GLOH   H04 9055   1.588   4.803   2.322  1.7936 -3.2157 -1.1574
   63GLOH    O2 9056   1.388   4.845   2.269 -0.3545 -0.5608  0.5586
   63GLOH   H05 9057   1.386   4.917   2.333  0.6440 -0.8743  0.9509
   63GLOH    C3 9058   1.465   4.702   2.451  0.2971  0.0062 -0.2207
   63GLOH   H06 9059   1.392   4.622   2.437  0.5888 -0.3459  0.2603
   63GLOH   H07 9060   1.433   4.782   2.518  1.2468  1.0244 -0.9621
   63GLOH    O3 9061   1.584   4.641   2.507 -0.2432  0.7933  0.1856
   63GLOH   H01 9062   1.571   4.613   2.599  1.7737  1.0515  0.5866
   64GLOH   H03 9063   0.161   4.188   1.042  1.8047  1.5215  1.2676
   64GLOH    O1 9064   0.133   4.167   1.133 -0.0560  0.9433  0.5962
   64GLOH    C1 9065   0.072   4.276   1.194  0.4137 -0.1058 -0.4489
   64GLOH   H02 9066  -0.035   4.268   1.176  0.6798  0.0295 -2.1110
   64GLOH   H08 9067   0.100   4.366   1.140 -0.3882 -0.2160 -1.0612
   64GLOH    C2 9068   0.099   4.295   1.342 -0.5147 -0.4088 -0.2137
   64GLOH   H04 9069   0.206   4.316   1.358 -0.2200 -1.5464 -0.6700
   64GLOH    O2 9070   0.015   4.404   1.396 -0.3734  0.0495 -0.8261
   64GLOH   H05 9071   0.040   4.417   1.489  0.9829  0.0550 -1.1869
   64GLOH    C3 9072   0.061   4.161   1.410  1.0359  0.0176 -0.6780
   64GLOH   H06 9073  -0.046   4.145   1.397  0.8500  0.3707  0.4051
   64GLOH   H07 9074   0.069   4.174   1.518  2.0208 -1.3248 -0.5677
   64GLOH    O3 9075   0.133   4.049   1.365 -0.1624 -0.2092 -0.2559
   64GLOH   H01 9076   0.132   4.053   1.268  1.3800 -2.3573 -0.3957
   65GLOH   H03 9077   2.875   7.024   2.018  1.1089 -1.2662 -0.8492
   65GLOH    O1 9078   2.892   7.099   1.957  0.4320  0.0390  0.5133
   65GLOH    C1 9079   2.962   7.200   2.030  0.3374 -0.3315 -0.2613
   65GLOH   H02 9080   2.986   7.285   1.965 -2.3451  0.8594  0.2366
   65GLOH   H08 9081   3.054   7.156   2.068 -0.1089 -1.7821 -0.8291
   65GLOH    C2 9082   2.893   7.266   2.150 -0.5075  0.5864 -0.1205
   65GLOH   H04 9083   2.867   7.187   2.222 -0.5466  0.4361 -0.3005
   65GLOH    O2 9084   2.994   7.353   2.211 -0.7228  0.0131  0.2193
   65GLOH   H05 9085   2.958   7.398   2.289 -0.3634 -0.0528  0.4264
   65GLOH    C3 9086   2.768   7.345   2.107 -0.3411  0.7247 -0.1937
   65GLOH   H06 9087   2.703   7.275   2.056 -1.0647 -0.6319  2.4905
   65GLOH   H07 9088   2.805   7.423   2.040  0.6158 -1.0758 -1.7925
   65GLOH    O3 9089   2.697   7.399   2.215  0.6057 -0.2746 -0.4902
   65GLOH   H01 9090   2.629   7.455   2.173  3.2146  1.1518 -3.0417
   66GLOH   H03 9091   3.830   8.893   1.645  0.5224 -2.3467 -1.5100
   66GLOH    O1 9092   3.743   8.868   1.611 -0.4513  0.0288 -0.8714
   66GLOH    C1 9093   3.720   8.731   1.641 -0.4092  0.5227 -0.1032
   66GLOH   H02 9094   3.689   8.720   1.745 -0.1270 -0.7806 -0.1508
   66GLOH   H08 9095   3.814   8.676   1.627 -0.0785  1.0529  0.0198
   66GLOH    C2 9096   3.611   8.660   1.563 -0.2715 -0.1132  0.3614
   66GLOH   H04 9097   3.604   8.555   1.595  3.7261 -0.0938  1.6591
   66GLOH    O2 9098   3.486   8.726   1.579 -0.1305  0.1829  0.0782
   66GLOH   H05 9099   3.508   8.817   1.555 -0.4891  0.2953  0.1738
   66GLOH    C3 9100   3.641   8.661   1.410 -0.1631 -0.1389 -0.0689
   66GLOH   H06 9101   3.682   8.756   1.377 -0.2126  0.1736  0.7621
   66GLOH   H07 9102   3.544   8.643   1.363 -0.0386 -0.3934 -0.2280
   66GLOH    O3 9103   3.727   8.556   1.375  0.1986  0.2449  0.0259
   66GLOH   H01 9104   3.819   8.589   1.381  0.1017  0.2554  1.5925
   67GLOH   H03 9105   3.033   6.084   0.826 -0.5125 -1.3052 -0.0741
   67GLOH    O1 9106   3.004   6.114   0.738 -0.1367  0.0697  0.2548
   67GLOH    C1 9107   3.124   6.125   0.656  0.0395  0.5227 -0.3524
   67GLOH   H02 9108   3.187   6.037   0.670 -0.5199  0.1118 -0.3941
   67GLOH   H08 9109   3.181   6.211   0.690  0.0726 -0.3998  2.0351
   67GLOH    C2 9110   3.085   6.145   0.510  0.2525  0.5342 -0.2960
   67GLOH   H04 9111   3.031   6.240   0.500 -0.8360 -0.3651 -3.9253
   67GLOH    O2 9112   3.199   6.157   0.426  0.2266 -0.0206 -0.1127
   67GLOH   H05 9113   3.248   6.074   0.437  0.2409 -0.1158 -0.9013
   67GLOH    C3 9114   2.979   6.039   0.457 -0.2002  0.2088  1.2480
   67GLOH   H06 9115   2.888   6.050   0.517 -0.1608 -1.4699  1.6325
   67GLOH   H07 9116   3.026   5.941   0.466  1.8963  1.2350  1.7419
   67GLOH    O3 9117   2.926   6.066   0.330 -0.3265  0.5270 -0.4852
   67GLOH   H01 9118   2.983   6.011   0.273  1.6628  2.4922 -0.4460
   68GLOH   H03 9119   3.502   4.261   1.387  0.1936 -2.2587  3.3065
   68GLOH    O1 9120   3.595   4.241   1.364 -0.1968 -0.3843 -0.1543
   68GLOH    C1 9121   3.672   4.218   1.486 -0.3951 -0.0158  0.4750
   68GLOH   H02 9122   3.624   4.150   1.556  1.1011 -1.6241 -0.0335
   68GLOH   H08 9123   3.688   4.313   1.536 -2.0932 -0.1841  1.3724
   68GLOH    C2 9124   3.812   4.160   1.447 -0.1377 -0.0034  0.1633
   68GLOH   H04 9125   3.848   4.246   1.391 -2.1316  1.3602  0.8919
   68GLOH    O2 9126   3.900   4.135   1.561 -0.0951  0.2527  0.1396
   68GLOH   H05 9127   3.844   4.085   1.623 -0.7172  1.5875  0.6884
   68GLOH    C3 9128   3.798   4.033   1.358 -0.2555  0.4687  0.0071
   68GLOH   H06 9129   3.777   3.951   1.426  1.8617  1.4620  1.9234
   68GLOH   H07 9130   3.896   4.009   1.317 -0.4535 -1.4883  0.6288
   68GLOH    O3 9131   3.707   4.051   1.244 -0.5874  0.3749 -0.4954
   68GLOH   H01 9132   3.655   4.129   1.271 -0.4762  1.0332 -2.1501
   69GLOH   H03 9133   2.008   5.293   1.930 -3.4551  1.7728 -0.5302
   69GLOH    O1 9134   2.053   5.378   1.917 -0.5623  0.3415 -0.1914
   69GLOH    C1 9135   2.189   5.352   1.873 -0.6141  0.4017 -0.0738
   69GLOH   H02 9136   2.252   5.441   1.868 -1.4432  0.8996 -2.4028
   69GLOH   H08 9137   2.186   5.322   1.768  3.8473  0.5602 -0.3732
   69GLOH    C2 9138   2.258   5.230   1.942  0.1106 -0.9391 -0.2396
   69GLOH   H04 9139   2.203   5.135   1.937 -1.3148 -0.0989 -0.6630
   69GLOH    O2 9140   2.388   5.204   1.882  0.1520 -0.3925  0.6294
   69GLOH   H05 9141   2.389   5.112   1.853  1.3995 -0.3475  0.5095
   69GLOH    C3 9142   2.270   5.261   2.088 -0.0415  0.3096  0.0328
   69GLOH   H06 9143   2.330   5.177   2.123  2.5687  1.5374 -1.3624
   69GLOH   H07 9144   2.174   5.262   2.139  1.1120  0.9812  2.3012
   69GLOH    O3 9145   2.334   5.384   2.115  0.1580  0.6295  0.1907
   69GLOH   H01 9146   2.334   5.379   2.212 -2.1972 -2.4951  0.1031
   70GLOH   H03 9147   2.832   0.936   1.884  0.0724  1.4185 -0.8654
   70GLOH    O1 9148   2.782   0.986   1.950  0.1974  0.2924  0.0992
   70GLOH    C1 9149   2.706   1.097   1.892 -0.8179 -0.6759  0.0358
   70GLOH   H02 9150   2.605   1.065   1.865 -0.6039  0.5823 -2.2963
   70GLOH   H08 9151   2.759   1.119   1.800  0.5178 -0.5013  0.8306
   70GLOH    C2 9152   2.703   1.230   1.973  0.1883 -0.3569 -1.0070
   70GLOH   H04 9153   2.640   1.305   1.924  1.6920  1.1576 -0.6856
   70GLOH    O2 9154   2.640   1.206   2.103 -0.0795 -0.6049 -0.4862
   70GLOH   H05 9155   2.580   1.130   2.099 -0.9698 -0.0246  1.4644
   70GLOH    C3 9156   2.845   1.296   1.985  0.5657  0.5724 -0.6474
   70GLOH   H06 9157   2.906   1.225   2.042 -0.6549 -1.4326 -1.7926
   70GLOH   H07 9158   2.833   1.388   2.042  0.1093 -0.5725  1.1629
   70GLOH    O3 9159   2.899   1.327   1.852  0.6741 -0.2368  0.3779
   70GLOH   H01 9160   2.965   1.398   1.854  0.0313  0.4062 -0.9226
   71GLOH   H03 9161   3.646   4.078   1.058  0.7580 -1.2780 -2.3622
   71GLOH    O1 9162   3.609   4.154   1.009 -0.4987  0.0847  0.5492
   71GLOH    C1 9163   3.678   4.171   0.879  0.0189  0.2388 -0.5197
   71GLOH   H02 9164   3.629   4.252   0.824 -0.1463 -0.0155 -0.7448
   71GLOH   H08 9165   3.671   4.078   0.824  0.3333  0.0468 -0.2313
   71GLOH    C2 9166   3.825   4.210   0.898  0.2690 -0.2666  0.5073
   71GLOH   H04 9167   3.865   4.142   0.975  1.4122  0.0764  0.2358
   71GLOH    O2 9168   3.903   4.196   0.773 -0.5876  0.0106 -0.0302
   71GLOH   H05 9169   3.853   4.137   0.714 -0.2115 -0.0652 -0.2707
   71GLOH    C3 9170   3.834   4.349   0.956  0.4738  0.4249  0.4665
   71GLOH   H06 9171   3.814   4.423   0.877 -3.0658 -0.4130  0.4962
   71GLOH   H07 9172   3.930   4.377   0.998 -0.3721  1.2631  1.8729
   71GLOH    O3 9173   3.731   4.369   1.053 -0.1213  0.1083  0.3045
   71GLOH   H01 9174   3.691   4.283   1.074  0.7972  0.0910  2.0483
   72GLOH   H03 9175   4.088   9.461   1.704  0.4524 -0.7776 -0.6459
   72GLOH    O1 9176   4.105   9.513   1.623  0.3324  0.3988  0.0649
   72GLOH    C1 9177   4.184   9.438   1.526  0.2580  0.2998 -0.2598
   72GLOH   H02 9178   4.213   9.343   1.571 -1.6963 -0.6890 -1.0234
   72GLOH   H08 9179   4.276   9.491   1.502  1.4171 -1.1902  0.8014
   72GLOH    C2 9180   4.100   9.408   1.403  0.7116  0.2393 -1.0607
   72GLOH   H04 9181   4.081   9.503   1.352 -0.0214  0.8369  0.3034
   72GLOH    O2 9182   4.187   9.338   1.314  0.2630  0.3812  0.5316
   72GLOH   H05 9183   4.148   9.341   1.225  0.9026  0.0851  0.2356
   72GLOH    C3 9184   3.972   9.333   1.444 -0.1733  0.0991 -0.5099
   72GLOH   H06 9185   3.931   9.295   1.350 -0.1774  2.8589 -1.6724
   72GLOH   H07 9186   3.907   9.414   1.478 -0.4864 -0.3959  0.0657
   72GLOH    O3 9187   3.980   9.221   1.538 -0.3311 -0.5450 -0.1232
   72GLOH   H01 9188   3.913   9.158   1.506 -0.5603  0.2821 -1.3200
   73GLOH   H03 9189   4.233   1.281   2.078  0.2721  0.9930  1.2390
   73GLOH    O1 9190   4.325   1.309   2.064  0.3827  0.0538 -0.1303
   73GLOH    C1 9191   4.410   1.195   2.065 -0.2513 -0.7201 -0.0693
   73GLOH   H02 9192   4.370   1.107   2.015 -1.0936 -0.1975 -0.3197
   73GLOH   H08 9193   4.445   1.177   2.167  0.4873 -0.0038 -0.1823
   73GLOH    C2 9194   4.532   1.218   1.980 -0.2134  0.7665  0.5717
   73GLOH   H04 9195   4.596   1.293   2.028 -0.9796  1.2671  0.8339
   73GLOH    O2 9196   4.613   1.091   1.987  0.7947  0.4155 -0.3573
   73GLOH   H05 9197   4.652   1.084   2.076 -1.1480  2.4968  0.7084
   73GLOH    C3 9198   4.511   1.259   1.831 -0.5801  0.1157  0.5936
   73GLOH   H06 9199   4.469   1.359   1.826  0.8188  0.6552 -1.3896
   73GLOH   H07 9200   4.437   1.199   1.778  1.6010 -1.9589 -0.2530
   73GLOH    O3 9201   4.637   1.268   1.758 -0.3674  0.0627 -0.3132
   73GLOH   H01 9202   4.692   1.203   1.806 -1.2353 -0.2209  0.3152
   74GLOH   H03 9203   5.018   3.088   2.273 -0.0408  3.2347  2.3736
   74GLOH    O1 9204   5.111   3.068   2.294 -0.1686  0.2718  0.3497
   74GLOH    C1 9205   5.147   3.086   2.434  0.1075  0.1817  0.4353
   74GLOH   H02 9206   5.249   3.050   2.451 -0.3728 -1.3417  0.1476
   74GLOH   H08 9207   5.082   3.036   2.506  1.3349 -2.4332 -0.1833
   74GLOH    C2 9208   5.146   3.238   2.467  0.2338  0.1512  0.0655
   74GLOH   H04 9209   5.044   3.273   2.448 -0.3598 -0.3918  2.1187
   74GLOH    O2 9210   5.165   3.267   2.604 -0.6207 -0.9045 -0.0046
   74GLOH   H05 9211   5.222   3.197   2.641  1.3334  1.6159  1.9452
   74GLOH    C3 9212   5.250   3.322   2.383 -0.1396 -0.7404  0.0275
   74GLOH   H06 9213   5.347   3.286   2.418  1.6061  2.1588 -1.6102
   74GLOH   H07 9214   5.240   3.426   2.412  0.4971 -0.4526 -0.7688
   74GLOH    O3 9215   5.234   3.309   2.239  0.1129 -0.5983 -0.3148
   74GLOH   H01 9216   5.204   3.217   2.228 -0.7364 -0.5671  1.4665
   75GLOH   H03 9217   2.559   5.233   0.879  1.3895  0.0244 -0.1082
   75GLOH    O1 9218   2.551   5.241   0.782  0.0213  0.6932  0.0442
   75GLOH    C1 9219   2.474   5.355   0.753  0.6777 -0.8300  0.6625
   75GLOH   H02 9220   2.417   5.396   0.837  0.2105 -0.5692  0.2201
   75GLOH   H08 9221   2.406   5.334   0.671 -0.5750  3.3642  0.5040
   75GLOH    C2 9222   2.561   5.468   0.698 -0.0662 -0.2297 -0.0386
   75GLOH   H04 9223   2.498   5.547   0.653  1.1645  1.1234  0.5672
   75GLOH    O2 9224   2.646   5.537   0.791  0.4006 -0.2953  0.1917
   75GLOH   H05 9225   2.686   5.604   0.734 -0.4758  1.3470  1.4466
   75GLOH    C3 9226   2.648   5.411   0.581  0.6170  0.4902 -0.0117
   75GLOH   H06 9227   2.713   5.331   0.617  1.8015  0.3964 -2.2638
   75GLOH   H07 9228   2.716   5.493   0.558  1.3404 -0.3354 -0.8383
   75GLOH    O3 9229   2.585   5.363   0.462 -0.3111 -0.8704 -0.4643
   75GLOH   H01 9230   2.578   5.266   0.469 -1.2768 -0.6936  1.3983
   76GLOH   H03 9231   2.951   0.147   1.717 -0.5128  3.1317  2.3533
   76GLOH    O1 9232   2.904   0.080   1.771  0.5140  0.0949 -0.3851
   76GLOH    C1 9233   2.935   0.102   1.909 -0.2166 -0.2669  0.1333
   76GLOH   H02 9234   3.033   0.149   1.917 -0.6659  1.0914 -1.8288
   76GLOH   H08 9235   2.942  -0.002   1.941  0.1871 -0.4280 -0.4784
   76GLOH    C2 9236   2.824   0.168   1.996  0.0071  0.2811  0.2836
   76GLOH   H04 9237   2.866   0.198   2.093  0.4672 -1.0672  0.5058
   76GLOH    O2 9238   2.773   0.294   1.942 -0.0783  0.1186  0.6544
   76GLOH   H05 9239   2.697   0.260   1.892 -0.1695  1.0578  0.1367
   76GLOH    C3 9240   2.710   0.063   2.012  0.8999 -0.5489 -0.0981
   76GLOH   H06 9241   2.691   0.027   1.911 -1.4536 -0.4979  0.3186
   76GLOH   H07 9242   2.619   0.109   2.049  1.0984  0.1567 -0.4602
   76GLOH    O3 9243   2.737  -0.049   2.097 -0.2591 -0.3146 -0.1202
   76GLOH   H01 9244   2.656  -0.092   2.128  0.0463 -0.8756 -0.0875
   77GLOH   H03 9245   4.981   1.447   3.093  0.9894  2.5734  0.8923
   77GLOH    O1 9246   4.887   1.469   3.078  0.3688 -0.3411  0.2916
   77GLOH    C1 9247   4.884   1.534   2.942 -0.6046 -0.1945 -0.0570
   77GLOH   H02 9248   4.962   1.499   2.875 -0.8126  0.7367 -0.7915
   77GLOH   H08 9249   4.898   1.641   2.957 -1.0569 -0.2188  0.5864
   77GLOH    C2 9250   4.756   1.518   2.870 -0.2144 -0.7018  0.2034
   77GLOH   H04 9251   4.681   1.582   2.919 -0.3668  0.1162 -1.0711
   77GLOH    O2 9252   4.785   1.552   2.730  0.1693 -0.1177  0.0999
   77GLOH   H05 9253   4.725   1.520   2.661  1.6469 -0.8943 -0.8679
   77GLOH    C3 9254   4.714   1.371   2.865  0.1723  0.2677  0.5284
   77GLOH   H06 9255   4.696   1.329   2.964  0.9640 -1.5023 -0.0450
   77GLOH   H07 9256   4.806   1.328   2.827  0.9905 -1.3283  4.1093
   77GLOH    O3 9257   4.601   1.334   2.781 -0.3032 -0.3075 -0.2889
   77GLOH   H01 9258   4.611   1.382   2.696  0.8789 -1.0693 -0.6130
   78GLOH   H03 9259   5.154   2.310   2.188  0.5552 -0.3160  0.5635
   78GLOH    O1 9260   5.168   2.258   2.107  0.1785  0.3926  0.0399
   78GLOH    C1 9261   5.052   2.241   2.026 -0.4919 -0.1530  0.0300
   78GLOH   H02 9262   5.000   2.336   2.008 -0.1668  0.3767  1.8283
   78GLOH   H08 9263   4.976   2.177   2.070  1.3226 -1.9556  0.6466
   78GLOH    C2 9264   5.087   2.181   1.886  0.4799  0.2979  0.4699
   78GLOH   H04 9265   5.141   2.086   1.902 -1.2750 -0.6890  0.7071
   78GLOH    O2 9266   4.971   2.151   1.800 -0.7196 -0.0300 -0.0218
   78GLOH   H05 9267   4.955   2.225   1.738  0.6867  0.2797 -0.0183
   78GLOH    C3 9268   5.171   2.282   1.808 -0.6048  0.5252  0.5115
   78GLOH   H06 9269   5.114   2.369   1.775 -1.8163 -0.8353 -1.0556
   78GLOH   H07 9270   5.201   2.237   1.713 -2.8860  0.6672 -0.2919
   78GLOH    O3 9271   5.286   2.322   1.887 -0.2808 -0.6623  0.3016
   78GLOH   H01 9272   5.253   2.316   1.978  0.8477 -1.5698  0.6633
   79GLOH   H03 9273   4.476   1.023   0.520 -1.4454 -1.4828  1.0812
   79GLOH    O1 9274   4.388   1.063   0.531 -0.7513  0.5594 -0.4627
   79GLOH    C1 9275   4.305   1.070   0.408 -0.2579 -0.1831  0.2385
   79GLOH   H02 9276   4.205   1.103   0.436  0.0021 -0.3083  1.3035
   79GLOH   H08 9277   4.296   0.973   0.357 -5.1851  0.6176 -0.7182
   79GLOH    C2 9278   4.358   1.164   0.308 -1.0455 -0.4192  0.7675
   79GLOH   H04 9279   4.371   1.259   0.363 -3.6920  1.3341 -1.4931
   79GLOH    O2 9280   4.488   1.123   0.260  0.4844  0.3341  0.0699
   79GLOH   H05 9281   4.533   1.196   0.213 -0.2220  1.9908  1.8513
   79GLOH    C3 9282   4.259   1.186   0.192 -0.2005 -0.0219  0.5870
   79GLOH   H06 9283   4.248   1.094   0.135  0.3571  0.7054 -0.7082
   79GLOH   H07 9284   4.303   1.248   0.114 -0.0871 -0.2061  0.5037
   79GLOH    O3 9285   4.132   1.232   0.237  0.4325  0.2687 -0.3278
   79GLOH   H01 9286   4.137   1.326   0.211 -0.2977  0.6138  0.7392
   80GLOH   H03 9287   4.490   0.267   1.524  0.6998  0.2916  0.4009
   80GLOH    O1 9288   4.460   0.208   1.596  0.1953 -0.4092 -0.3775
   80GLOH    C1 9289   4.326   0.167   1.577  0.3550  1.1947  0.3763
   80GLOH   H02 9290   4.271   0.216   1.657 -1.9907 -0.6793 -0.0150
   80GLOH   H08 9291   4.312   0.059   1.580 -0.1961  1.3045  1.7755
   80GLOH    C2 9292   4.262   0.207   1.438  0.2723  0.1139  0.1436
   80GLOH   H04 9293   4.239   0.315   1.436  0.7742  0.2467  1.0385
   80GLOH    O2 9294   4.350   0.191   1.325 -0.7633  0.4328 -0.4652
   80GLOH   H05 9295   4.437   0.230   1.344  0.2885 -2.1160  0.0455
   80GLOH    C3 9296   4.131   0.129   1.412 -0.4341 -0.9849  0.2598
   80GLOH   H06 9297   4.157   0.028   1.378 -1.4879 -1.5214  1.0345
   80GLOH   H07 9298   4.078   0.173   1.328  0.7024  1.9576  1.0217
   80GLOH    O3 9299   4.042   0.128   1.520 -0.9678  0.1704 -0.1689
   80GLOH   H01 9300   3.954   0.147   1.484 -0.6154  0.1937 -1.0109
   81GLOH   H03 9301   4.164   3.488   2.912 -0.5047 -0.8363  2.6305
   81GLOH    O1 9302   4.179   3.398   2.876 -0.2089  0.2675 -0.1227
   81GLOH    C1 9303   4.056   3.340   2.834  0.1255 -0.4345  0.7658
   81GLOH   H02 9304   4.071   3.251   2.773 -0.2339 -0.8260  1.2460
   81GLOH   H08 9305   4.004   3.412   2.771 -2.5601 -2.5078  0.5599
   81GLOH    C2 9306   3.965   3.303   2.952  0.0318 -1.1727 -0.4296
   81GLOH   H04 9307   4.029   3.237   3.013  1.0064  2.4862  2.7250
   81GLOH    O2 9308   3.928   3.421   3.022  0.2123  0.8445  0.1707
   81GLOH   H05 9309   4.000   3.485   3.020  1.9654 -1.0820  0.4905
   81GLOH    C3 9310   3.839   3.229   2.903 -0.7317  0.5021  0.3842
   81GLOH   H06 9311   3.790   3.301   2.837 -1.3710 -0.2153  0.0720
   81GLOH   H07 9312   3.779   3.200   2.989 -2.2809 -2.2047 -1.5293
   81GLOH    O3 9313   3.877   3.113   2.822 -0.3687  0.0467  0.5030
   81GLOH   H01 9314   3.800   3.090   2.767 -0.0816  1.4197 -0.5051
   82GLOH   H03 9315   3.468   2.526   1.355 -0.1428 -0.7901  0.6109
   82GLOH    O1 9316   3.461   2.567   1.267 -0.3327 -0.1160  0.9384
   82GLOH    C1 9317   3.579   2.570   1.187  0.3847 -0.2240 -0.5271
   82GLOH   H02 9318   3.566   2.486   1.118  1.4259 -0.3621 -0.5657
   82GLOH   H08 9319   3.668   2.560   1.248  0.0896  2.2289  0.3502
   82GLOH    C2 9320   3.601   2.702   1.105  0.2798 -0.6661 -0.3306
   82GLOH   H04 9321   3.707   2.715   1.081  0.6014 -0.0600  1.3749
   82GLOH    O2 9322   3.530   2.688   0.979  0.1465  0.1215 -0.1040
   82GLOH   H05 9323   3.475   2.768   0.971  4.1311  2.7363 -3.6363
   82GLOH    C3 9324   3.574   2.825   1.191 -0.1632 -0.0620 -0.4124
   82GLOH   H06 9325   3.602   2.815   1.296  1.5303  0.8481 -0.7638
   82GLOH   H07 9326   3.466   2.834   1.196 -0.1627 -1.0859  2.2345
   82GLOH    O3 9327   3.632   2.938   1.129  0.3185 -0.2840 -0.3048
   82GLOH   H01 9328   3.563   3.006   1.138  0.1608 -0.2435 -1.7250
   83GLOH   H03 9329   4.227   8.267   0.688 -1.6303 -1.4986 -0.7270
   83GLOH    O1 9330   4.226   8.218   0.773  0.3257 -0.3030  0.0074
   83GLOH    C1 9331   4.327   8.270   0.855 -0.1054  0.2668  0.4578
   83GLOH   H02 9332   4.302   8.365   0.903 -0.9450  0.7367 -0.8926
   83GLOH   H08 9333   4.413   8.303   0.798 -0.0771 -0.7337 -0.0903
   83GLOH    C2 9334   4.360   8.183   0.980 -0.1512  0.7567  0.6907
   83GLOH   H04 9335   4.414   8.095   0.943  2.2519  2.5511 -0.1839
   83GLOH    O2 9336   4.464   8.255   1.054 -0.2848  0.7684 -0.5594
   83GLOH   H05 9337   4.514   8.206   1.121  0.2815  0.2532 -1.3548
   83GLOH    C3 9338   4.248   8.128   1.070  0.1792 -0.4951 -0.4797
   83GLOH   H06 9339   4.286   8.033   1.108 -1.3613 -1.0287 -0.2402
   83GLOH   H07 9340   4.164   8.107   1.005 -0.9941 -0.4672  1.0081
   83GLOH    O3 9341   4.212   8.228   1.168  0.5862  0.3494  0.2690
   83GLOH   H01 9342   4.133   8.204   1.220 -1.1313  2.3151 -1.3336
   84GLOH   H03 9343   0.170   4.886   2.581  0.3222 -0.8541 -0.1076
   84GLOH    O1 9344   0.123   4.899   2.665 -0.1910 -0.1522 -0.5036
   84GLOH    C1 9345   0.148   5.035   2.690  0.0340  0.4301 -0.5393
   84GLOH   H02 9346   0.143   5.099   2.601 -4.2436 -0.3434 -0.9559
   84GLOH   H08 9347   0.251   5.049   2.724 -0.9170  0.6798  2.3118
   84GLOH    C2 9348   0.060   5.100   2.802 -0.1787 -0.5327 -0.0494
   84GLOH   H04 9349   0.061   5.210   2.798  3.3921 -0.4375  1.1331
   84GLOH    O2 9350  -0.081   5.072   2.793 -0.1340  0.3880 -0.3407
   84GLOH   H05 9351  -0.107   5.102   2.704  3.3458 -1.2279 -2.0420
   84GLOH    C3 9352   0.110   5.046   2.937  0.4127  0.0846  0.0682
   84GLOH   H06 9353   0.111   4.937   2.936  0.0183  0.0617  1.0423
   84GLOH   H07 9354   0.041   5.069   3.019 -0.8508 -2.1884 -0.2995
   84GLOH    O3 9355   0.240   5.099   2.974  0.0555  0.1338 -0.0120
   84GLOH   H01 9356   0.228   5.175   3.035  0.2208 -0.6315  0.9830
   85GLOH   H03 9357   3.487   1.515   2.385  0.8614 -1.1327  0.3113
   85GLOH    O1 9358   3.442   1.428   2.389 -0.0990 -0.6465  0.2255
   85GLOH    C1 9359   3.420   1.408   2.528 -0.7600 -0.8595 -0.0288
   85GLOH   H02 9360   3.320   1.433   2.562  0.5901 -0.4392  3.8274
   85GLOH   H08 9361   3.489   1.472   2.584 -1.3691  1.9639 -2.3772
   85GLOH    C2 9362   3.441   1.266   2.573 -0.0128 -0.2300  0.8624
   85GLOH   H04 9363   3.533   1.225   2.528 -0.8410 -0.3642 -0.7665
   85GLOH    O2 9364   3.447   1.251   2.716  1.0641  0.0545 -0.0126
   85GLOH   H05 9365   3.521   1.299   2.758  1.1290 -1.5763  1.8182
   85GLOH    C3 9366   3.330   1.181   2.514 -0.9213 -0.3124 -0.2411
   85GLOH   H06 9367   3.240   1.206   2.570 -0.4403 -1.4177  1.0772
   85GLOH   H07 9368   3.341   1.076   2.544 -1.9526 -0.5482 -0.6713
   85GLOH    O3 9369   3.311   1.197   2.371 -0.1255 -0.8732 -0.5542
   85GLOH   H01 9370   3.379   1.255   2.333 -1.3552 -0.1492 -1.7063
   86GLOH   H03 9371   2.667   6.818   0.663 -0.4947 -2.2358 -1.5587
   86GLOH    O1 9372   2.745   6.766   0.690  0.1663 -0.4918 -0.0256
   86GLOH    C1 9373   2.824   6.764   0.571  0.2206  0.5787  0.4342
   86GLOH   H02 9374   2.793   6.842   0.501  3.6610  0.6104 -1.0964
   86GLOH   H08 9375   2.821   6.670   0.517  0.1496  0.8802 -0.0883
   86GLOH    C2 9376   2.969   6.799   0.600  0.2093  0.5161 -0.2387
   86GLOH   H04 9377   3.006   6.715   0.661 -0.4356 -0.4542 -1.1667
   86GLOH    O2 9378   3.035   6.794   0.473 -0.1505 -0.3883 -0.1052
   86GLOH   H05 9379   3.051   6.880   0.432  3.7827 -1.3158 -0.7369
   86GLOH    C3 9380   2.972   6.938   0.670  0.3207  0.0503 -1.0849
   86GLOH   H06 9381   2.931   7.007   0.595  0.0391  0.7162 -0.3211
   86GLOH   H07 9382   3.071   6.975   0.696  0.2731  0.5312 -1.5684
   86GLOH    O3 9383   2.900   6.937   0.790 -0.0590 -0.2166 -0.5689
   86GLOH   H01 9384   2.838   6.862   0.781  1.9145 -1.6771 -2.7695
   87GLOH   H03 9385   5.019   4.285   0.555 -1.8944  0.4258  0.6736
   87GLOH    O1 9386   5.000   4.332   0.471  0.0377 -0.2333 -0.1759
   87GLOH    C1 9387   4.999   4.475   0.497  0.1637 -0.4329  0.1038
   87GLOH   H02 9388   4.950   4.496   0.592  1.1982 -1.1554  0.8107
   87GLOH   H08 9389   4.954   4.534   0.417 -1.5890  1.1340  2.1871
   87GLOH    C2 9390   5.142   4.524   0.510  0.2111  0.4107  0.3022
   87GLOH   H04 9391   5.139   4.633   0.527 -0.4682  0.2755  1.1224
   87GLOH    O2 9392   5.206   4.468   0.620  0.2873 -0.2369  0.1090
   87GLOH   H05 9393   5.156   4.483   0.702  1.6598 -0.3582  0.9931
   87GLOH    C3 9394   5.227   4.490   0.386  0.4430 -0.0658  0.3313
   87GLOH   H06 9395   5.236   4.382   0.377  1.7165 -0.0967  1.7860
   87GLOH   H07 9396   5.331   4.521   0.399  0.1474  0.8351  0.5742
   87GLOH    O3 9397   5.168   4.550   0.269  0.2717  0.5318  0.2003
   87GLOH   H01 9398   5.191   4.487   0.198  1.2721 -0.0348  1.0179
   88GLOH   H03 9399   4.204   1.180   1.129  0.2284 -2.3429  2.5831
   88GLOH    O1 9400   4.178   1.234   1.206 -0.1467  0.9365  0.2480
   88GLOH    C1 9401   4.290   1.322   1.222 -0.0157 -0.0454 -0.1908
   88GLOH   H02 9402   4.376   1.258   1.244 -0.8908 -1.2878 -0.2962
   88GLOH   H08 9403   4.270   1.398   1.297 -0.5696  0.4164 -0.8069
   88GLOH    C2 9404   4.310   1.397   1.088  0.8356 -0.4621  1.0330
   88GLOH   H04 9405   4.222   1.463   1.072  0.4723 -1.1115  0.3260
   88GLOH    O2 9406   4.415   1.487   1.112  0.6811  0.0921  0.2549
   88GLOH   H05 9407   4.481   1.448   1.171  0.2750 -0.2880  0.4658
   88GLOH    C3 9408   4.341   1.307   0.968  0.4552 -0.6284 -0.6058
   88GLOH   H06 9409   4.425   1.242   0.992 -0.5882 -1.2404  1.5407
   88GLOH   H07 9410   4.364   1.369   0.881 -0.2861  1.9916  1.0115
   88GLOH    O3 9411   4.231   1.227   0.941 -0.4212  0.4519 -0.3353
   88GLOH   H01 9412   4.256   1.197   0.851  0.0677  1.0594 -0.4154
   89GLOH   H03 9413   1.146   5.747   1.691 -2.2148  0.2156 -2.7408
   89GLOH    O1 9414   1.112   5.837   1.708  0.2225  0.7742 -0.4917
   89GLOH    C1 9415   1.234   5.917   1.706 -0.5150  0.6566  0.1510
   89GLOH   H02 9416   1.208   6.006   1.649 -3.5636 -0.8340 -0.8900
   89GLOH   H08 9417   1.316   5.862   1.659 -0.2395 -0.9852  2.4714
   89GLOH    C2 9418   1.291   5.974   1.833 -0.0572  0.2057  0.3369
   89GLOH   H04 9419   1.396   6.002   1.812 -0.0995  0.7204  0.7950
   89GLOH    O2 9420   1.207   6.081   1.885  0.2793 -0.1464  0.0137
   89GLOH   H05 9421   1.195   6.156   1.824  0.8977 -0.3400 -0.3567
   89GLOH    C3 9422   1.305   5.866   1.942  0.2962 -0.2198  0.2356
   89GLOH   H06 9423   1.206   5.842   1.981  0.0388  0.2235 -0.1445
   89GLOH   H07 9424   1.358   5.915   2.023  0.2758 -1.3263  0.9366
   89GLOH    O3 9425   1.371   5.743   1.909  0.1912  0.5219 -0.3042
   89GLOH   H01 9426   1.308   5.673   1.936 -0.3505  0.3101 -2.0482
   90GLOH   H03 9427   3.346   5.505   1.526 -0.5191  0.6049 -3.1291
   90GLOH    O1 9428   3.355   5.600   1.542 -0.5064  0.1014  0.3051
   90GLOH    C1 9429   3.272   5.654   1.442  0.2329 -0.3470  0.5971
   90GLOH   H02 9430   3.164   5.641   1.451  0.3212 -2.4438 -0.9738
   90GLOH   H08 9431   3.293   5.602   1.349 -0.8044 -1.4997  0.9889
   90GLOH    C2 9432   3.298   5.804   1.423  0.0635 -0.9503  0.6842
   90GLOH   H04 9433   3.396   5.815   1.374 -0.6279 -2.3552 -1.0601
   90GLOH    O2 9434   3.201   5.874   1.342 -0.4602  0.5236 -0.4350
   90GLOH   H05 9435   3.135   5.919   1.397  1.1699  0.4103  1.6830
   90GLOH    C3 9436   3.298   5.877   1.561 -0.7552 -0.0975 -0.1629
   90GLOH   H06 9437   3.197   5.882   1.602 -0.8068  2.6651 -0.5389
   90GLOH   H07 9438   3.326   5.982   1.551  1.7120 -0.7629 -0.6641
   90GLOH    O3 9439   3.381   5.815   1.657  0.2055  0.5896 -0.3470
   90GLOH   H01 9440   3.393   5.727   1.616 -0.1920  0.4376 -0.1326
   91GLOH   H03 9441   4.363   9.116   0.611  1.2199  3.4228  2.4559
   91GLOH    O1 9442   4.453   9.096   0.578 -0.3002  0.1112 -0.0496
   91GLOH    C1 9443   4.546   9.041   0.679  0.2035 -0.5070  0.4429
   91GLOH   H02 9444   4.530   9.084   0.778  2.0333  0.8453  0.1868
   91GLOH   H08 9445   4.650   9.068   0.661 -0.4766  0.9695 -1.4797
   91GLOH    C2 9446   4.522   8.889   0.690 -0.3317  0.2342  0.2170
   91GLOH   H04 9447   4.416   8.872   0.716 -0.4216 -0.4396 -0.5903
   91GLOH    O2 9448   4.550   8.815   0.566 -0.6951  0.0548 -0.4830
   91GLOH   H05 9449   4.561   8.878   0.493 -0.4895  0.4497 -0.1218
   91GLOH    C3 9450   4.609   8.829   0.801 -0.3461  0.0375  0.3756
   91GLOH   H06 9451   4.716   8.842   0.790 -0.1663 -1.7236 -0.2725
   91GLOH   H07 9452   4.603   8.720   0.806 -3.8439  0.1972  0.8025
   91GLOH    O3 9453   4.578   8.898   0.914  1.0583  0.8748 -0.5054
   91GLOH   H01 9454   4.602   8.839   0.987 -0.0092  2.5083  1.1932
   92GLOH   H03 9455   3.177   6.422   2.732  1.2951  0.2677  1.4060
   92GLOH    O1 9456   3.247   6.482   2.699  0.4722  0.2756 -0.3745
   92GLOH    C1 9457   3.249   6.617   2.762 -0.0370 -0.3276 -0.5642
   92GLOH   H02 9458   3.330   6.677   2.720 -2.2828  3.2611  0.0303
   92GLOH   H08 9459   3.282   6.602   2.865  0.3398  0.6214 -0.5394
   92GLOH    C2 9460   3.120   6.706   2.746  0.0229  0.6157  0.0446
   92GLOH   H04 9461   3.128   6.796   2.809 -0.1609 -0.1960  1.2560
   92GLOH    O2 9462   3.086   6.732   2.609 -0.4429  0.5814 -0.3264
   92GLOH   H05 9463   2.990   6.746   2.609 -0.6323 -0.5897 -2.2780
   92GLOH    C3 9464   3.002   6.621   2.801 -0.7041  0.1166 -0.7207
   92GLOH   H06 9465   2.983   6.543   2.727  0.8809  0.6437 -1.7033
   92GLOH   H07 9466   2.912   6.682   2.800  1.4142  3.3753 -0.6649
   92GLOH    O3 9467   3.026   6.577   2.935 -0.1842 -0.4925 -0.2081
   92GLOH   H01 9468   3.033   6.659   2.986 -1.6492 -0.3346 -0.2418
   93GLOH   H03 9469   3.213   5.861   1.192  1.8516 -1.0431  0.4987
   93GLOH    O1 9470   3.240   5.869   1.099  0.1588  0.4150  0.1222
   93GLOH    C1 9471   3.278   5.743   1.050 -0.1881  0.5243 -0.4998
   93GLOH   H02 9472   3.304   5.678   1.134 -1.2532  0.2199 -0.3988
   93GLOH   H08 9473   3.367   5.756   0.988  1.4084 -0.6056  1.4984
   93GLOH    C2 9474   3.173   5.671   0.964  0.4442 -0.0804 -0.3423
   93GLOH   H04 9475   3.134   5.739   0.886  1.1671 -0.7589 -1.3122
   93GLOH    O2 9476   3.232   5.551   0.911  0.2668 -0.2654  0.0973
   93GLOH   H05 9477   3.210   5.481   0.974 -0.2887 -0.9206 -0.8120
   93GLOH    C3 9478   3.048   5.640   1.049  0.0143  0.5314  0.2984
   93GLOH   H06 9479   2.982   5.575   0.991  1.0029 -2.1341  2.0768
   93GLOH   H07 9480   3.001   5.738   1.062 -0.6270  0.2839 -0.1190
   93GLOH    O3 9481   3.067   5.582   1.178 -0.0542  0.4782 -0.3896
   93GLOH   H01 9482   3.095   5.488   1.178 -2.0482 -0.1461  1.1174
   94GLOH   H03 9483   0.953   4.376   1.080 -1.3677  0.6987 -1.9759
   94GLOH    O1 9484   0.950   4.280   1.066 -0.4918  0.1339  1.2142
   94GLOH    C1 9485   0.819   4.260   1.014 -0.0472  0.2690  0.1402
   94GLOH   H02 9486   0.801   4.337   0.939  1.6796  0.7239  0.1741
   94GLOH   H08 9487   0.749   4.252   1.097 -0.7464 -1.8061 -0.6262
   94GLOH    C2 9488   0.803   4.125   0.935 -0.6053 -0.3098 -0.1347
   94GLOH   H04 9489   0.800   4.042   1.007  0.7343 -0.3062 -0.0654
   94GLOH    O2 9490   0.674   4.126   0.864  0.0552  0.0295  0.2936
   94GLOH   H05 9491   0.604   4.163   0.920  0.1580 -2.1447  1.9061
   94GLOH    C3 9492   0.921   4.106   0.833 -0.5280  0.5749  0.5064
   94GLOH   H06 9493   1.017   4.108   0.886  0.2965  0.4689 -0.9540
   94GLOH   H07 9494   0.916   4.189   0.762 -2.2863  1.3009  1.4478
   94GLOH    O3 9495   0.914   3.981   0.765 -0.0949 -0.0321 -0.3227
   94GLOH   H01 9496   0.935   4.003   0.673  1.4392  2.1845  0.5011
   95GLOH   H03 9497   2.277   7.677   2.321  1.1333  0.1872  0.2451
   95GLOH    O1 9498   2.241   7.678   2.412  0.5048 -0.2669  0.0019
   95GLOH    C1 9499   2.101   7.645   2.388  0.3103 -0.1393 -0.0281
   95GLOH   H02 9500   2.097   7.552   2.331  0.7978 -1.0317  1.3843
   95GLOH   H08 9501   2.049   7.722   2.331 -0.5223 -0.0608  0.8248
   95GLOH    C2 9502   2.023   7.620   2.515  0.0614 -0.1451 -0.1029
   95GLOH   H04 9503   2.033   7.714   2.571 -0.4624 -1.8498  2.9877
   95GLOH    O2 9504   1.884   7.594   2.476  0.4269  0.0921  0.2704
   95GLOH   H05 9505   1.856   7.514   2.525 -1.8515  0.0890 -0.9423
   95GLOH    C3 9506   2.088   7.504   2.598 -0.0079  0.4159 -0.5335
   95GLOH   H06 9507   2.195   7.528   2.602 -0.0232  0.8462 -2.2918
   95GLOH   H07 9508   2.078   7.412   2.542  1.5210  1.2128 -2.1527
   95GLOH    O3 9509   2.043   7.500   2.739  0.3980  0.2994  0.5066
   95GLOH   H01 9510   1.945   7.504   2.743  0.3665 -1.1437  1.5391
   96GLOH   H03 9511   3.743   8.911   3.020  0.4252  0.4730  0.3809
   96GLOH    O1 9512   3.697   8.995   3.001 -0.5176 -0.1109  0.0838
   96GLOH    C1 9513   3.744   9.039   2.869  0.5509 -0.1679  0.4418
   96GLOH   H02 9514   3.727   8.972   2.785 -0.6585  1.9490 -1.0570
   96GLOH   H08 9515   3.845   9.078   2.879 -0.1133  0.6949  5.3034
   96GLOH    C2 9516   3.672   9.174   2.836 -0.1533  0.4609  0.2612
   96GLOH   H04 9517   3.695   9.239   2.922 -1.2422  2.3018 -0.8200
   96GLOH    O2 9518   3.725   9.230   2.713  0.2984 -0.1986  0.1880
   96GLOH   H05 9519   3.786   9.173   2.663  1.6485  2.5100 -1.3768
   96GLOH    C3 9520   3.523   9.140   2.822  0.6340 -0.3646  0.7102
   96GLOH   H06 9521   3.510   9.085   2.729  2.7013 -0.6890  0.5920
   96GLOH   H07 9522   3.475   9.237   2.814  3.4417  1.1518  1.5863
   96GLOH    O3 9523   3.458   9.073   2.932 -0.1686  0.2610  0.0586
   96GLOH   H01 9524   3.529   9.016   2.968  1.8890  3.0280  0.5088
   97GLOH   H03 9525   4.830   2.244   1.520  2.4391 -0.3756 -1.2494
   97GLOH    O1 9526   4.892   2.289   1.581  0.3232  0.7764  0.1151
   97GLOH    C1 9527   4.868   2.436   1.569  0.4318 -0.3003 -0.1638
   97GLOH   H02 9528   4.872   2.469   1.465 -0.7505 -0.6822 -0.3412
   97GLOH   H08 9529   4.948   2.495   1.615  0.6690 -1.1973  0.5810
   97GLOH    C2 9530   4.727   2.474   1.609  0.1534 -0.2877 -0.1237
   97GLOH   H04 9531   4.719   2.584   1.620 -1.2890 -0.4800  0.9411
   97GLOH    O2 9532   4.624   2.420   1.522  0.3317 -0.2810  0.6090
   97GLOH   H05 9533   4.634   2.340   1.468 -1.1777 -0.3448  0.3950
   97GLOH    C3 9534   4.700   2.419   1.749  0.1486 -0.4570  0.6483
   97GLOH   H06 9535   4.779   2.458   1.812 -0.2702 -0.9345  1.4800
   97GLOH   H07 9536   4.708   2.310   1.745  0.0723 -0.6442  4.3448
   97GLOH    O3 9537   4.573   2.449   1.813 -0.7484  0.2811  0.2585
   97GLOH   H01 9538   4.551   2.541   1.790  2.0546  0.6284 -1.2734
   98GLOH   H03 9539   0.682   4.539   1.095 -0.2252 -0.2030 -1.0622
   98GLOH    O1 9540   0.591   4.518   1.124 -0.1801  0.0209 -0.7703
   98GLOH    C1 9541   0.556   4.604   1.232 -0.9459  0.1908 -0.3082
   98GLOH   H02 9542   0.556   4.709   1.205  0.3533  0.5951  1.1578
   98GLOH   H08 9543   0.627   4.592   1.314 -2.7962 -0.6838  1.2060
   98GLOH    C2 9544   0.420   4.577   1.293  0.1115 -0.2623  0.6622
   98GLOH   H04 9545   0.418   4.475   1.335  2.7827 -0.5053  0.3363
   98GLOH    O2 9546   0.391   4.669   1.404  0.1524 -0.2078 -0.0817
   98GLOH   H05 9547   0.468   4.699   1.455 -0.7819  0.0715  1.1684
   98GLOH    C3 9548   0.307   4.600   1.192 -0.6929  0.1368  0.6517
   98GLOH   H06 9549   0.304   4.703   1.157  3.5951  0.4521  0.9111
   98GLOH   H07 9550   0.214   4.584   1.247 -1.7550  0.2972 -1.0598
   98GLOH    O3 9551   0.318   4.515   1.080 -0.2546  0.4056 -0.3126
   98GLOH   H01 9552   0.415   4.513   1.071 -0.2676 -2.4446 -0.3260
   99GLOH   H03 9553   3.139   3.763   2.854 -0.4360 -0.1568  4.1606
   99GLOH    O1 9554   3.062   3.821   2.840  0.0491 -0.3201  0.2827
   99GLOH    C1 9555   2.953   3.728   2.835 -0.3423 -0.6047 -0.0887
   99GLOH   H02 9556   2.888   3.755   2.752 -0.2042  1.7149  0.5383
   99GLOH   H08 9557   2.899   3.755   2.926  1.4089  2.6003  0.0814
   99GLOH    C2 9558   2.976   3.573   2.858  0.3719  0.4202  0.6825
   99GLOH   H04 9559   2.879   3.521   2.857  0.1703  0.8069  0.0832
   99GLOH    O2 9560   3.060   3.532   2.749 -0.6180 -0.1893  0.0758
   99GLOH   H05 9561   3.041   3.438   2.732 -3.5034  0.5666 -1.1146
   99GLOH    C3 9562   3.041   3.553   2.993 -0.5710 -0.0967 -0.1003
   99GLOH   H06 9563   3.125   3.623   2.994  0.3695 -1.2272  0.6974
   99GLOH   H07 9564   3.085   3.454   2.998  0.8648  0.5217 -0.2939
   99GLOH    O3 9565   2.948   3.567   3.098  0.0420  0.4830  0.4476
   99GLOH   H01 9566   2.970   3.505   3.169  1.0012  2.1025  1.5873
  100GLOH   H03 9567   3.384   4.993   2.007 -0.9316  0.3873  0.0353
  100GLOH    O1 9568   3.314   4.942   2.052 -0.3314 -0.1651  0.3610
  100GLOH    C1 9569   3.201   4.912   1.964  0.6359 -0.3017  0.6702
  100GLOH   H02 9570   3.161   5.005   1.924 -0.4273 -0.4604  1.3484
  100GLOH   H08 9571   3.121   4.875   2.028 -0.2487 -2.5301 -1.6783
  100GLOH    C2 9572   3.226   4.809   1.858 -0.1344  0.4223  0.2489
  100GLOH   H04 9573   3.139   4.796   1.792  1.6640 -0.7039 -1.9621
  100GLOH    O2 9574   3.339   4.850   1.769 -0.0393 -0.4535 -0.3918
  100GLOH   H05 9575   3.320   4.936   1.727 -0.5851 -0.5377 -0.3290
  100GLOH    C3 9576   3.252   4.675   1.920  0.2125 -0.4885  0.0264
  100GLOH   H06 9577   3.335   4.684   1.990  0.3243  1.3161 -0.3087
  100GLOH   H07 9578   3.283   4.605   1.842  1.0126  0.0797 -0.1728
  100GLOH    O3 9579   3.138   4.627   1.992  0.7526 -0.7952 -0.4962
  100GLOH   H01 9580   3.144   4.643   2.088  0.5098  2.8006 -0.9874
  101GLOH   H03 9581   3.359   5.721   2.554 -0.8374 -2.4671 -2.0503
  101GLOH    O1 9582   3.431   5.667   2.591  0.2087  0.3212  0.1799
  101GLOH    C1 9583   3.542   5.677   2.506 -0.0065  0.2715  0.9879
  101GLOH   H02 9584   3.631   5.645   2.561  0.1121  1.2564  1.3650
  101GLOH   H08 9585   3.558   5.782   2.484  0.9287 -0.1657 -0.5006
  101GLOH    C2 9586   3.529   5.579   2.388 -0.5926  0.1157  0.2232
  101GLOH   H04 9587   3.436   5.603   2.334 -1.5037 -0.8371  1.3225
  101GLOH    O2 9588   3.656   5.597   2.316  0.3785  0.2508  0.6178
  101GLOH   H05 9589   3.627   5.571   2.226 -0.6114  0.9025  0.7435
  101GLOH    C3 9590   3.496   5.434   2.425 -0.8304  1.6869  0.0281
  101GLOH   H06 9591   3.485   5.367   2.340  1.6116 -0.2925  1.1911
  101GLOH   H07 9592   3.399   5.440   2.475 -1.3168  1.5648 -0.8898
  101GLOH    O3 9593   3.590   5.376   2.520  0.5696 -0.5726  0.1045
  101GLOH   H01 9594   3.571   5.283   2.543  0.6736 -1.1386 -2.0060
  102GLOH   H03 9595   2.621   2.241   0.437 -0.8897  1.8679 -1.2349
  102GLOH    O1 9596   2.706   2.288   0.439  0.3867 -0.3944 -0.0116
  102GLOH    C1 9597   2.781   2.266   0.317 -0.4717 -0.5896  0.2142
  102GLOH   H02 9598   2.867   2.333   0.323 -0.1089 -1.0127 -0.2878
  102GLOH   H08 9599   2.721   2.284   0.228  0.1657  0.8559  0.0591
  102GLOH    C2 9600   2.843   2.126   0.304 -0.3845 -0.2823  0.1757
  102GLOH   H04 9601   2.752   2.066   0.321  0.0775 -0.3410  2.6324
  102GLOH    O2 9602   2.909   2.105   0.178 -0.2858  0.0577  0.1736
  102GLOH   H05 9603   3.001   2.137   0.178 -0.3912  0.3963  1.9952
  102GLOH    C3 9604   2.926   2.087   0.425 -0.5066  0.0251  0.8661
  102GLOH   H06 9605   2.873   2.106   0.519 -1.0197 -1.3277  0.8673
  102GLOH   H07 9606   3.020   2.142   0.427 -1.7790  2.3029 -0.0918
  102GLOH    O3 9607   2.938   1.941   0.421 -0.1927  0.4588 -0.5387
  102GLOH   H01 9608   2.933   1.896   0.335 -0.3913 -0.1193 -0.2263
  103GLOH   H03 9609   3.030   1.594   1.948 -0.4332 -2.9303  0.6500
  103GLOH    O1 9610   3.002   1.622   2.036 -0.1989 -0.0434 -0.1516
  103GLOH    C1 9611   3.115   1.675   2.110  0.4194 -0.1540  0.1837
  103GLOH   H02 9612   3.069   1.754   2.170 -0.7106 -1.6471  1.3517
  103GLOH   H08 9613   3.186   1.711   2.036 -1.5815 -0.2222 -1.8306
  103GLOH    C2 9614   3.200   1.577   2.191 -0.2454 -1.0010 -0.0601
  103GLOH   H04 9615   3.201   1.481   2.137  2.1384 -0.6264 -0.7318
  103GLOH    O2 9616   3.329   1.635   2.218  0.2488  0.0020  0.1317
  103GLOH   H05 9617   3.394   1.569   2.186 -1.8240 -0.5096 -3.2894
  103GLOH    C3 9618   3.133   1.555   2.327  0.3978  0.5947 -0.1562
  103GLOH   H06 9619   3.143   1.653   2.375  1.8850  1.1960 -1.6525
  103GLOH   H07 9620   3.187   1.488   2.393 -0.9411 -0.2044  0.1448
  103GLOH    O3 9621   2.996   1.505   2.325 -0.1012  0.0282  0.0177
  103GLOH   H01 9622   2.998   1.409   2.310 -1.7927 -0.3682  2.0852
  104GLOH   H03 9623   5.052   1.652   2.454 -1.8548  1.4147  0.2831
  104GLOH    O1 9624   5.050   1.702   2.371  0.5286  0.2484 -0.5382
  104GLOH    C1 9625   5.032   1.620   2.253 -0.3777  0.0934  0.7841
  104GLOH   H02 9626   4.934   1.573   2.257 -0.0733 -0.5573  0.5914
  104GLOH   H08 9627   5.098   1.533   2.252 -2.4782 -1.5442 -0.6844
  104GLOH    C2 9628   5.034   1.688   2.114  0.1513  0.0056  0.2104
  104GLOH   H04 9629   5.088   1.618   2.049 -0.3362  0.9768 -1.2759
  104GLOH    O2 9630   4.902   1.720   2.062 -0.4153  0.7822  0.3609
  104GLOH   H05 9631   4.911   1.778   1.984  0.7841  1.0215  0.6796
  104GLOH    C3 9632   5.122   1.812   2.114 -0.3864  0.0844 -0.1516
  104GLOH   H06 9633   5.120   1.857   2.014 -5.2811  1.1714  0.3018
  104GLOH   H07 9634   5.225   1.785   2.139  0.2535  1.4316 -1.2192
  104GLOH    O3 9635   5.069   1.904   2.211  0.4413 -0.0431 -0.0653
  104GLOH   H01 9636   5.081   1.855   2.294  2.8163 -1.1319 -0.9855
  105GLOH   H03 9637   2.658   3.641   2.757 -0.1043  0.5618 -0.3158
  105GLOH    O1 9638   2.581   3.600   2.713 -0.1478 -0.0914  0.3455
  105GLOH    C1 9639   2.465   3.578   2.795  0.3748 -0.2458 -0.1922
  105GLOH   H02 9640   2.398   3.503   2.753 -1.2253  1.3631 -0.5671
  105GLOH   H08 9641   2.399   3.665   2.802  0.8262  0.2481 -1.8048
  105GLOH    C2 9642   2.488   3.532   2.939  0.1522  0.5559 -0.0545
  105GLOH   H04 9643   2.545   3.438   2.938 -0.7959 -0.0419  0.7809
  105GLOH    O2 9644   2.564   3.640   2.987 -0.6342 -0.4133 -0.3729
  105GLOH   H05 9645   2.599   3.620   3.075 -2.6045 -0.1845  0.4975
  105GLOH    C3 9646   2.354   3.505   3.010 -1.0196 -0.6236  0.7006
  105GLOH   H06 9647   2.302   3.597   3.035  0.3934  0.6225 -0.8134
  105GLOH   H07 9648   2.385   3.457   3.103 -2.3913 -0.7560  1.0993
  105GLOH    O3 9649   2.275   3.411   2.945 -0.3228 -0.1297  0.3819
  105GLOH   H01 9650   2.269   3.335   3.005  0.5027  0.8142  1.6769
  106GLOH   H03 9651   3.583   8.142   0.968 -0.7177 -2.5467 -0.3967
  106GLOH    O1 9652   3.644   8.127   0.893 -0.2785  0.2318 -0.6188
  106GLOH    C1 9653   3.705   7.998   0.914 -0.2584 -0.3766 -0.3523
  106GLOH   H02 9654   3.724   7.941   0.823  3.5995  0.3660 -0.0799
  106GLOH   H08 9655   3.630   7.938   0.966  1.6322 -0.7331  2.0436
  106GLOH    C2 9656   3.827   7.994   1.002  0.4515 -0.4581 -0.5818
  106GLOH   H04 9657   3.901   8.064   0.960  1.8634 -1.8460 -0.4687
  106GLOH    O2 9658   3.798   8.024   1.138  0.2674 -0.1293 -0.3396
  106GLOH   H05 9659   3.735   7.952   1.160 -1.0362  1.0779 -0.0614
  106GLOH    C3 9660   3.885   7.854   0.982 -0.4214 -0.3064  0.5058
  106GLOH   H06 9661   3.809   7.783   1.015 -0.2992 -1.4645 -1.6411
  106GLOH   H07 9662   3.978   7.843   1.038 -1.1669 -1.2597  1.5835
  106GLOH    O3 9663   3.917   7.820   0.846 -0.1923  0.4446 -0.0897
  106GLOH   H01 9664   3.980   7.886   0.812  1.7173 -0.4805  1.5854
  107GLOH   H03 9665   5.416   2.662   2.394  1.9377  0.3697 -0.8579
  107GLOH    O1 9666   5.453   2.683   2.482  0.1253  0.1659 -0.0122
  107GLOH    C1 9667   5.372   2.785   2.543  0.3311 -0.5948 -0.0878
  107GLOH   H02 9668   5.344   2.858   2.468 -0.2219 -0.8087 -0.0879
  107GLOH   H08 9669   5.438   2.838   2.612 -1.4751 -0.2564  1.4164
  107GLOH    C2 9670   5.244   2.730   2.617  0.0473  0.1038 -0.1600
  107GLOH   H04 9671   5.270   2.630   2.656  0.0146  0.2930  0.3453
  107GLOH    O2 9672   5.195   2.816   2.720 -0.8049 -0.2568  0.0302
  107GLOH   H05 9673   5.110   2.857   2.696  0.1939  3.3549  2.2168
  107GLOH    C3 9674   5.130   2.698   2.511  0.0420  0.1669 -0.6773
  107GLOH   H06 9675   5.179   2.647   2.428  2.2988  0.0131  0.7352
  107GLOH   H07 9676   5.088   2.785   2.459  0.7749 -0.6664 -2.7394
  107GLOH    O3 9677   5.017   2.626   2.569  0.2509 -0.3289  0.0096
  107GLOH   H01 9678   5.038   2.533   2.588 -1.6811 -0.9711 -0.8495
  108GLOH   H03 9679   3.860  -0.199   2.387  0.8127 -1.1087 -0.9141
  108GLOH    O1 9680   3.933  -0.136   2.375  0.0983 -0.1055 -0.0179
  108GLOH    C1 9681   3.893  -0.014   2.305  0.7978 -0.0214 -0.0131
  108GLOH   H02 9682   3.982   0.048   2.294  2.4418 -2.1440  1.0539
  108GLOH   H08 9683   3.829   0.044   2.371 -0.7634 -0.7004 -0.9080
  108GLOH    C2 9684   3.810  -0.026   2.175  0.1850  0.5736 -0.4898
  108GLOH   H04 9685   3.730  -0.099   2.192 -1.1025  1.7635 -1.3689
  108GLOH    O2 9686   3.755   0.104   2.136 -0.1050 -0.2661 -0.8868
  108GLOH   H05 9687   3.824   0.172   2.138 -0.6579  0.3003 -0.7451
  108GLOH    C3 9688   3.898  -0.084   2.065  0.6824  0.0858  0.0972
  108GLOH   H06 9689   3.995  -0.034   2.064  0.3234  0.7745 -0.7467
  108GLOH   H07 9690   3.851  -0.061   1.970 -0.9146 -0.1583  0.8001
  108GLOH    O3 9691   3.926  -0.226   2.084  0.2668 -0.2319  0.2639
  108GLOH   H01 9692   4.016  -0.223   2.121  1.1154  0.6072 -1.7783
  109GLOH   H03 9693   3.963   2.413   2.850 -2.6437 -1.2059 -1.5626
  109GLOH    O1 9694   3.931   2.500   2.821 -0.8341 -0.0007 -0.0901
  109GLOH    C1 9695   4.043   2.549   2.739  0.0268  0.3629 -0.3948
  109GLOH   H02 9696   4.139   2.548   2.791  0.8049  0.1614 -1.8241
  109GLOH   H08 9697   4.033   2.655   2.714 -1.6762  0.8135  2.0358
  109GLOH    C2 9698   4.059   2.478   2.602  1.1262 -0.0559 -0.2228
  109GLOH   H04 9699   4.162   2.498   2.569  1.2813  1.3111  1.0276
  109GLOH    O2 9700   4.055   2.333   2.615 -0.3059 -0.5317 -0.0622
  109GLOH   H05 9701   4.109   2.313   2.693 -3.4713  0.0751  2.4150
  109GLOH    C3 9702   3.954   2.513   2.498 -0.3161 -1.1997 -0.4193
  109GLOH   H06 9703   3.954   2.622   2.498 -2.8099 -1.1504  1.3974
  109GLOH   H07 9704   3.851   2.485   2.519 -0.8976  1.3097  0.2286
  109GLOH    O3 9705   3.996   2.464   2.367  0.3972  0.0940 -0.7828
  109GLOH   H01 9706   3.956   2.377   2.346  1.4677 -0.2669 -1.3985
  110GLOH   H03 9707   4.192   9.497   0.149  1.2879 -1.1095  0.5831
  110GLOH    O1 9708   4.147   9.496   0.236 -0.2922 -0.3903 -0.2047
  110GLOH    C1 9709   4.196   9.382   0.310  0.5074  0.8388  0.0820
  110GLOH   H02 9710   4.258   9.405   0.397 -0.8594 -1.9020  1.8634
  110GLOH   H08 9711   4.260   9.317   0.250 -1.1289  0.2523 -1.0508
  110GLOH    C2 9712   4.081   9.287   0.364  0.6370 -1.0020 -0.1632
  110GLOH   H04 9713   4.046   9.224   0.281  0.9396 -1.8354  0.3448
  110GLOH    O2 9714   4.140   9.200   0.465  0.4599 -0.4729 -0.0294
  110GLOH   H05 9715   4.112   9.109   0.448  0.2352 -0.7069  1.4770
  110GLOH    C3 9716   3.955   9.364   0.419  0.3286 -0.4818  0.3047
  110GLOH   H06 9717   3.991   9.417   0.507  0.8678  0.4770 -0.4854
  110GLOH   H07 9718   3.876   9.294   0.448 -1.6856  0.6234 -2.2744
  110GLOH    O3 9719   3.901   9.453   0.317  0.4712 -0.0224  0.6879
  110GLOH   H01 9720   3.977   9.478   0.263  0.8563 -1.9922  0.2660
  111GLOH   H03 9721   2.828   5.187   1.717  0.1031  0.9600  0.6380
  111GLOH    O1 9722   2.854   5.115   1.777 -0.0970 -0.1458 -0.5716
  111GLOH    C1 9723   2.943   5.018   1.703  0.2088 -0.0003  0.1292
  111GLOH   H02 9724   2.876   4.967   1.635  0.4913  0.8185 -0.7777
  111GLOH   H08 9725   2.989   4.941   1.765 -2.8304 -2.2907 -0.3994
  111GLOH    C2 9726   3.055   5.083   1.625  0.0794  0.6527 -0.9761
  111GLOH   H04 9727   3.006   5.171   1.580 -2.0169 -0.9671 -1.9323
  111GLOH    O2 9728   3.164   5.115   1.710 -0.3195 -0.2983 -0.3955
  111GLOH   H05 9729   3.138   5.194   1.760  1.2644 -0.6546  1.0413
  111GLOH    C3 9730   3.105   4.988   1.510  0.3056  0.4507 -0.9232
  111GLOH   H06 9731   3.119   4.894   1.563 -1.4222  0.8059  0.2043
  111GLOH   H07 9732   3.206   5.018   1.481  1.6525 -2.1513  0.8614
  111GLOH    O3 9733   3.022   4.985   1.397  0.2255 -0.0944 -0.3504
  111GLOH   H01 9734   3.046   4.914   1.334 -0.7048 -0.1106 -0.6927
  112GLOH   H03 9735   3.428   5.379   1.872 -4.0893 -2.0205 -2.0051
  112GLOH    O1 9736   3.370   5.442   1.918 -0.4909 -0.0669  0.0702
  112GLOH    C1 9737   3.443   5.568   1.913 -0.5769  0.6765  0.3752
  112GLOH   H02 9738   3.403   5.642   1.982 -2.0406  0.3849 -0.1346
  112GLOH   H08 9739   3.435   5.614   1.814  0.0086 -0.8846 -0.4127
  112GLOH    C2 9740   3.595   5.560   1.941 -0.0317 -0.7744  0.2255
  112GLOH   H04 9741   3.630   5.664   1.934 -3.9924  0.6303 -0.0116
  112GLOH    O2 9742   3.606   5.513   2.073  0.2678 -1.1539  0.3022
  112GLOH   H05 9743   3.597   5.416   2.075  3.4035 -1.4723  0.9173
  112GLOH    C3 9744   3.667   5.466   1.840  0.6077 -0.6052  0.1567
  112GLOH   H06 9745   3.765   5.430   1.872  1.0753 -1.2973 -1.9903
  112GLOH   H07 9746   3.683   5.531   1.754 -2.4296 -0.7981 -0.5946
  112GLOH    O3 9747   3.579   5.356   1.796  0.4500  0.2631  0.2084
  112GLOH   H01 9748   3.588   5.359   1.699  1.7230 -0.5068  0.2892
  113GLOH   H03 9749   3.946   9.592   2.600 -0.1087  0.5837  1.1424
  113GLOH    O1 9750   4.018   9.650   2.569  0.1259 -0.1115  0.3580
  113GLOH    C1 9751   4.027   9.762   2.656  0.8859  0.0394  0.1112
  113GLOH   H02 9752   4.038   9.742   2.763 -2.2907 -0.0681  0.4703
  113GLOH   H08 9753   3.938   9.824   2.644  1.0976  0.2743 -0.2284
  113GLOH    C2 9754   4.147   9.852   2.630 -0.5200  0.0941 -0.0756
  113GLOH   H04 9755   4.239   9.792   2.634 -0.5026  0.1909  1.0789
  113GLOH    O2 9756   4.133   9.920   2.503 -0.7398  0.4235 -0.3370
  113GLOH   H05 9757   4.066   9.873   2.451 -0.1822 -1.5886  0.7278
  113GLOH    C3 9758   4.163   9.958   2.733 -0.8377 -0.2619 -0.6101
  113GLOH   H06 9759   4.063  10.001   2.739 -0.1790  1.0579  1.2760
  113GLOH   H07 9760   4.229  10.040   2.703  0.9191 -0.9636  1.2375
  113GLOH    O3 9761   4.193   9.912   2.865 -0.0489  0.3232  1.1896
  113GLOH   H01 9762   4.172   9.984   2.928 -1.3064  1.3193 -0.3299
  114GLOH   H03 9763   9.213   5.310   1.484  1.2327  1.8597 -0.3075
  114GLOH    O1 9764   9.253   5.287   1.570  0.4147 -0.2267 -0.4593
  114GLOH    C1 9765   9.335   5.166   1.549 -0.3750  0.2114  0.8489
  114GLOH   H02 9766   9.277   5.074   1.553  1.7330 -1.3957 -2.9655
  114GLOH   H08 9767   9.403   5.164   1.635 -1.8098  2.0970  2.0621
  114GLOH    C2 9768   9.395   5.166   1.407 -0.3102 -0.0068 -0.2190
  114GLOH   H04 9769   9.451   5.261   1.406 -0.0762 -0.1456 -0.6839
  114GLOH    O2 9770   9.474   5.049   1.391 -0.3388 -0.0000 -0.3923
  114GLOH   H05 9771   9.488   5.051   1.294 -0.3945  1.9794 -0.3647
  114GLOH    C3 9772   9.280   5.192   1.302  0.3317  0.0916 -0.0692
  114GLOH   H06 9773   9.227   5.097   1.292 -2.2460  1.5761 -0.8779
  114GLOH   H07 9774   9.323   5.205   1.203 -0.5823 -0.9789 -0.6210
  114GLOH    O3 9775   9.193   5.303   1.323  0.6731  0.2592  0.3370
  114GLOH   H01 9776   9.146   5.326   1.241  2.4698  2.1670 -0.1904
  115GLOH   H03 9777   2.518   0.793   3.073  1.2555 -0.4331 -0.3740
  115GLOH    O1 9778   2.463   0.779   2.994 -0.5952 -0.2945  0.8577
  115GLOH    C1 9779   2.410   0.644   2.998  0.1380  0.6267  0.1030
  115GLOH   H02 9780   2.303   0.642   3.019  0.2140 -1.9163  0.4068
  115GLOH   H08 9781   2.463   0.581   3.069 -0.1942 -0.6250 -0.7542
  115GLOH    C2 9782   2.434   0.578   2.859  0.0898  0.7170  0.0043
  115GLOH   H04 9783   2.379   0.484   2.874  3.0491 -0.8794  1.2741
  115GLOH    O2 9784   2.368   0.633   2.742 -0.4625  0.8532 -0.1703
  115GLOH   H05 9785   2.350   0.725   2.765 -1.3737  0.6748 -0.1666
  115GLOH    C3 9786   2.580   0.547   2.820  1.0498 -0.3482  0.7156
  115GLOH   H06 9787   2.628   0.644   2.822  2.1625 -0.9005  1.3084
  115GLOH   H07 9788   2.578   0.500   2.721 -1.3654  1.3098 -0.0906
  115GLOH    O3 9789   2.647   0.470   2.921 -0.4301  0.2348  0.0896
  115GLOH   H01 9790   2.741   0.476   2.897 -0.8993  0.9165 -1.7033
  116GLOH   H03 9791   4.554   0.589   0.874  3.2507 -1.4946  0.5041
  116GLOH    O1 9792   4.592   0.665   0.828 -0.2828  0.1564  0.1208
  116GLOH    C1 9793   4.518   0.668   0.707 -0.3140  0.2998 -0.0862
  116GLOH   H02 9794   4.441   0.745   0.718 -0.2699  0.3198  0.0755
  116GLOH   H08 9795   4.468   0.575   0.681 -1.6265  0.3903  2.0165
  116GLOH    C2 9796   4.605   0.706   0.581 -0.5975  0.0166 -0.5312
  116GLOH   H04 9797   4.678   0.626   0.560  1.3297  1.0464  2.0660
  116GLOH    O2 9798   4.523   0.706   0.470  0.1468  0.0122  0.4139
  116GLOH   H05 9799   4.574   0.746   0.398  1.7581 -0.1053  1.4599
  116GLOH    C3 9800   4.686   0.836   0.591  0.2552  0.1864 -0.0315
  116GLOH   H06 9801   4.765   0.840   0.516  1.3507  0.7451  1.1300
  116GLOH   H07 9802   4.738   0.834   0.687 -0.8730 -2.2145  0.5666
  116GLOH    O3 9803   4.600   0.956   0.583  0.6541  0.0754  0.5348
  116GLOH   H01 9804   4.653   1.026   0.626  0.0955  0.5450  0.4566
  117GLOH   H03 9805   3.179   7.817   0.596 -0.3202  1.7998  0.3077
  117GLOH    O1 9806   3.204   7.800   0.688 -0.0880 -0.0997 -0.0849
  117GLOH    C1 9807   3.270   7.674   0.705  0.7793  0.2017 -0.2652
  117GLOH   H02 9808   3.207   7.593   0.667 -1.1580  0.2971  2.5702
  117GLOH   H08 9809   3.286   7.647   0.809  0.5181 -1.1240 -0.5495
  117GLOH    C2 9810   3.407   7.662   0.644  0.2873 -0.1212  0.7143
  117GLOH   H04 9811   3.397   7.695   0.539 -1.7092 -2.2609  0.1810
  117GLOH    O2 9812   3.502   7.747   0.716 -0.0456  0.0233 -0.0350
  117GLOH   H05 9813   3.483   7.841   0.703  4.0281  0.8910 -0.3200
  117GLOH    C3 9814   3.451   7.513   0.642  0.2626  0.3054 -0.5160
  117GLOH   H06 9815   3.475   7.483   0.744  4.4907 -0.8010 -1.7483
  117GLOH   H07 9816   3.543   7.507   0.585 -0.0332  0.0459 -0.9676
  117GLOH    O3 9817   3.357   7.422   0.578  0.1054  0.2941 -0.1939
  117GLOH   H01 9818   3.281   7.400   0.635 -1.3451  0.7600 -1.9031
  118GLOH   H03 9819   3.627   7.582   1.051 -1.5686 -0.1940 -0.7804
  118GLOH    O1 9820   3.604   7.571   1.145  0.5448 -0.4544 -0.2717
  118GLOH    C1 9821   3.546   7.442   1.165  0.6242 -0.7526 -0.3095
  118GLOH   H02 9822   3.527   7.424   1.271  1.9485  0.1522  0.0948
  118GLOH   H08 9823   3.613   7.365   1.128  0.6783 -0.8135 -0.0781
  118GLOH    C2 9824   3.420   7.428   1.080  0.0631  0.4412 -0.4863
  118GLOH   H04 9825   3.453   7.435   0.976 -0.8549  0.6862 -0.7704
  118GLOH    O2 9826   3.370   7.290   1.099  0.2476 -0.6598  0.0431
  118GLOH   H05 9827   3.294   7.273   1.041  1.1676 -1.0115 -1.0747
  118GLOH    C3 9828   3.313   7.531   1.104 -0.0283 -0.3563 -0.1604
  118GLOH   H06 9829   3.366   7.626   1.104  0.0216 -0.3757  1.5600
  118GLOH   H07 9830   3.274   7.504   1.202  2.2615  0.6375  1.0583
  118GLOH    O3 9831   3.211   7.534   0.998 -0.0304  0.1118 -0.0679
  118GLOH   H01 9832   3.139   7.582   1.043  0.2163  0.8556 -0.4746
  119GLOH   H03 9833   2.553   3.782   0.880 -0.0172 -1.1142 -1.1248
  119GLOH    O1 9834   2.461   3.802   0.856 -0.1764 -0.0978  0.2983
  119GLOH    C1 9835   2.373   3.688   0.896  0.7869 -0.0827 -0.1580
  119GLOH   H02 9836   2.392   3.604   0.829  1.0816 -0.6235  0.5819
  119GLOH   H08 9837   2.267   3.708   0.884  0.3969 -1.1635  1.3271
  119GLOH    C2 9838   2.392   3.643   1.045 -0.1161  1.4206  0.6206
  119GLOH   H04 9839   2.302   3.587   1.072  0.7368 -1.2878 -1.8807
  119GLOH    O2 9840   2.500   3.553   1.055 -0.2453  0.0267  0.6441
  119GLOH   H05 9841   2.490   3.506   1.140  0.8863 -0.2268  0.6439
  119GLOH    C3 9842   2.414   3.759   1.141 -0.0913  0.1860  0.3424
  119GLOH   H06 9843   2.502   3.819   1.117  0.1162  0.2116  1.1416
  119GLOH   H07 9844   2.431   3.716   1.240  0.3730  0.8592  0.5626
  119GLOH    O3 9845   2.299   3.844   1.146 -0.7197  0.1728  0.4640
  119GLOH   H01 9846   2.286   3.878   1.056  0.7412  1.1612  0.6207
  120GLOH   H03 9847   4.472   5.101   0.871 -4.4388  0.9348  1.0553
  120GLOH    O1 9848   4.445   5.072   0.782  0.2842  0.1148 -0.2657
  120GLOH    C1 9849   4.424   4.931   0.775  1.1644 -0.2363 -0.3217
  120GLOH   H02 9850   4.407   4.881   0.871  1.7822 -1.7412 -0.9879
  120GLOH   H08 9851   4.500   4.871   0.725  0.7452 -0.5382 -0.5886
  120GLOH    C2 9852   4.294   4.893   0.702 -0.2144 -0.0722  0.3972
  120GLOH   H04 9853   4.308   4.936   0.602  1.6532 -0.5369  0.4345
  120GLOH    O2 9854   4.285   4.752   0.693  0.1598  0.0277  0.0469
  120GLOH   H05 9855   4.219   4.713   0.754 -1.0524  2.1572  0.1282
  120GLOH    C3 9856   4.162   4.936   0.773  0.0750  0.0465 -0.2126
  120GLOH   H06 9857   4.169   5.044   0.786  0.0112 -0.0267  0.4142
  120GLOH   H07 9858   4.146   4.887   0.869 -1.3366 -0.1741 -0.5440
  120GLOH    O3 9859   4.042   4.915   0.699  0.1426 -0.0478  0.0250
  120GLOH   H01 9860   4.050   4.981   0.627  2.1170  0.0221  0.2942
  121ACOH    H4 9861   2.623   8.151   1.334  0.6930  0.9293  1.0642
  121ACOH    O2 9862   2.528   8.162   1.319  0.7777  0.1601 -0.1487
  121ACOH    C2 9863   2.478   8.236   1.423  0.4134  0.5031  0.0959
  121ACOH    O1 9864   2.524   8.248   1.536 -0.1402 -0.2985  0.2192
  121ACOH    C1 9865   2.331   8.245   1.394  0.1176 -0.4901  0.1444
  121ACOH    H1 9866   2.322   8.267   1.288  1.5575  0.0140  0.1177
  121ACOH    H2 9867   2.282   8.325   1.451  1.4132 -0.4031  1.1890
  121ACOH    H3 9868   2.297   8.145   1.421  0.2345 -0.0274  2.0840
  122ACOH    H4 9869   0.664   4.610   0.890  0.0852  0.7076 -1.3829
  122ACOH    O2 9870   0.669   4.517   0.862  0.0984  0.0783  0.6424
  122ACOH    C2 9871   0.568   4.502   0.769 -0.0767 -0.1155  0.6361
  122ACOH    O1 9872   0.457   4.557   0.768  0.0021  0.1669 -0.3458
  122ACOH    C1 9873   0.602   4.399   0.667  0.2797  0.1146 -0.9501
  122ACOH    H1 9874   0.521   4.333   0.637  1.7711 -2.1190 -0.2306
  122ACOH    H2 9875   0.686   4.336   0.697 -0.4086 -0.7893 -0.8973
  122ACOH    H3 9876   0.638   4.451   0.578 -3.1810 -0.0239 -2.4907
  123ACOH    H4 9877   4.260   2.402   1.740 -0.0780  2.6582  0.5719
  123ACOH    O2 9878   4.199   2.392   1.815 -0.4281 -0.0108 -0.0317
  123ACOH    C2 9879   4.130   2.504   1.795 -0.1594 -0.4968  0.9460
  123ACOH    O1 9880   4.112   2.567   1.693 -0.3076  0.5105 -0.2486
  123ACOH    C1 9881   4.059   2.551   1.920  1.1669  0.1911  0.7382
  123ACOH    H1 9882   3.989   2.472   1.943 -0.5712  1.4973  0.0571
  123ACOH    H2 9883   4.013   2.649   1.906  0.5176  0.9038  6.5840
  123ACOH    H3 9884   4.145   2.567   1.985  0.6695  0.9200  1.2241
  125ACOH    H4 9885   9.060   4.629   0.700 -1.9940 -0.6029 -0.3706
  125ACOH    O2 9886   9.056   4.664   0.609  0.2941  0.2829 -0.1598
  125ACOH    C2 9887   9.013   4.792   0.601 -0.5567  0.1792  0.4474
  125ACOH    O1 9888   8.945   4.851   0.683  0.0986  0.4074 -0.1387
  125ACOH    C1 9889   9.052   4.854   0.471  0.4636 -0.0227  0.1798
  125ACOH    H1 9890   9.025   4.789   0.388  1.5902  2.1110 -1.9383
  125ACOH    H2 9891   9.161   4.850   0.473  0.4042 -2.0739  3.9707
  125ACOH    H3 9892   9.013   4.954   0.452 -0.5258 -0.2388  1.0037
  126ACOH    H4 9893   4.467   9.066   3.012 -2.4964 -1.6058  0.6709
  126ACOH    O2 9894   4.509   8.997   2.958 -0.0122  0.1545  0.2581
  126ACOH    C2 9895   4.456   9.012   2.838 -0.3659  0.8255 -0.2914
  126ACOH    O1 9896   4.389   9.102   2.796 -1.1300  0.2082  0.1477
  126ACOH    C1 9897   4.478   8.886   2.763  0.5466  0.3303 -0.2594
  126ACOH    H1 9898   4.412   8.827   2.827 -0.1445  0.9882 -0.3463
  126ACOH    H2 9899   4.580   8.849   2.759  1.1141  1.2676  3.2025
  126ACOH    H3 9900   4.432   8.880   2.665  0.0621 -2.9744  0.1195
  127ACOH    H4 9901   4.143   9.624   2.475 -0.6334  1.1115 -0.7266
  127ACOH    O2 9902   4.204   9.595   2.405 -0.7790 -0.6488 -0.1385
  127ACOH    C2 9903   4.300   9.519   2.471  0.6307  0.4675 -0.5756
  127ACOH    O1 9904   4.304   9.489   2.591  0.4838 -0.9488 -0.0458
  127ACOH    C1 9905   4.391   9.465   2.367 -0.1227 -0.0671  0.7438
  127ACOH    H1 9906   4.486   9.512   2.390  0.4288 -0.3436 -0.9051
  127ACOH    H2 9907   4.359   9.503   2.270 -2.0489 -1.7006  0.6916
  127ACOH    H3 9908   4.391   9.357   2.379  1.3628  0.0386  1.7005
  128ACOH    H4 9909   2.392   6.149   1.527  2.2725 -1.4014 -1.7539
  128ACOH    O2 9910   2.420   6.088   1.597 -0.0928 -0.0741  0.4420
  128ACOH    C2 9911   2.508   6.003   1.540 -0.5327  0.2649  0.2422
  128ACOH    O1 9912   2.527   5.996   1.418  0.0521 -0.2636  0.7019
  128ACOH    C1 9913   2.576   5.928   1.646  0.3356  0.5529 -0.4539
  128ACOH    H1 9914   2.570   5.821   1.626 -1.6551  0.3169  1.1802
  128ACOH    H2 9915   2.523   5.935   1.741 -0.2738  2.0429 -0.8830
  128ACOH    H3 9916   2.681   5.952   1.665  0.5152 -1.4134  1.2058
  129ACOH    H4 9917   5.240   9.567   1.943 -0.2518 -1.9631  2.9980
  129ACOH    O2 9918   5.335   9.550   1.949  0.1344 -0.6731  0.8601
  129ACOH    C2 9919   5.356   9.426   1.898  0.1430 -0.0476  0.5427
  129ACOH    O1 9920   5.280   9.361   1.826 -0.0587 -0.3589 -0.2830
  129ACOH    C1 9921   5.494   9.380   1.927 -0.0347 -0.4540 -0.0244
  129ACOH    H1 9922   5.544   9.356   1.833 -0.8427  0.8277 -0.7972
  129ACOH    H2 9923   5.488   9.294   1.993  1.0092 -0.5233 -0.0101
  129ACOH    H3 9924   5.553   9.455   1.979  0.7108 -0.5047 -0.7720
  130ACOH    H4 9925   4.984   1.690   1.744  2.1839  1.2473 -0.7340
  130ACOH    O2 9926   4.996   1.609   1.693 -0.0376  0.1705  0.3505
  130ACOH    C2 9927   4.882   1.567   1.648  0.0639  0.3381  0.2243
  130ACOH    O1 9928   4.772   1.581   1.692 -0.2106 -0.4299  0.1392
  130ACOH    C1 9929   4.906   1.468   1.540 -0.9067  0.3469  0.1877
  130ACOH    H1 9930   4.868   1.370   1.569  0.5826  0.3925  2.4522
  130ACOH    H2 9931   5.014   1.458   1.530 -1.1355  0.1674 -2.5146
  130ACOH    H3 9932   4.865   1.502   1.445 -0.3968  1.3069  0.3012
  131ACOH    H4 9933   3.945   8.641   2.298 -1.1841  0.5343 -0.5674
  131ACOH    O2 9934   3.988   8.727   2.316 -0.1701  0.0277 -0.5167
  131ACOH    C2 9935   4.077   8.710   2.419 -0.0033  0.0310 -0.3442
  131ACOH    O1 9936   4.094   8.612   2.488 -0.0836  0.0574 -0.8993
  131ACOH    C1 9937   4.164   8.830   2.427 -0.5092  0.4685 -0.0297
  131ACOH    H1 9938   4.109   8.916   2.391 -1.2696 -0.4243 -1.0423
  131ACOH    H2 9939   4.254   8.811   2.369 -0.9032  0.1947 -0.5654
  131ACOH    H3 9940   4.189   8.849   2.531 -3.2700  1.4756  0.4980
  132ACOH    H4 9941   8.634   5.214   0.654 -0.3985 -1.1582  0.0058
  132ACOH    O2 9942   8.563   5.250   0.711  0.2818 -0.4127  0.3909
  132ACOH    C2 9943   8.590   5.369   0.756 -0.1933 -0.0503  0.2674
  132ACOH    O1 9944   8.699   5.413   0.743  0.0982  0.0763 -0.6718
  132ACOH    C1 9945   8.471   5.444   0.800  0.2283 -0.2179 -0.6090
  132ACOH    H1 9946   8.419   5.385   0.876  0.3829  1.6180  0.9722
  132ACOH    H2 9947   8.400   5.456   0.719  1.0298  2.0937 -0.9944
  132ACOH    H3 9948   8.486   5.540   0.849 -0.1889  0.8060 -2.4847
  133ACOH    H4 9949   0.880   6.162   2.515  0.9304  0.6812  0.5981
  133ACOH    O2 9950   0.901   6.221   2.441  0.0627  0.0037 -0.2075
  133ACOH    C2 9951   0.978   6.319   2.486 -0.1438  0.4690  0.5302
  133ACOH    O1 9952   1.024   6.331   2.593  0.2292 -0.3995 -0.2017
  133ACOH    C1 9953   0.998   6.412   2.377  0.0759 -0.0285  0.4215
  133ACOH    H1 9954   0.909   6.420   2.314  0.3665  0.2361  0.0386
  133ACOH    H2 9955   1.085   6.382   2.319  1.5947  1.3291  1.9194
  133ACOH    H3 9956   1.027   6.510   2.416 -0.6783  0.3812 -0.0466
  134ACOH    H4 9957   3.777   2.241   0.294  0.4804 -2.1850  1.1804
  134ACOH    O2 9958   3.754   2.303   0.364 -0.2810 -0.4303 -0.5656
  134ACOH    C2 9959   3.630   2.343   0.348 -0.7109 -1.3693 -0.3699
  134ACOH    O1 9960   3.556   2.340   0.252 -0.1952 -0.1964 -0.0941
  134ACOH    C1 9961   3.583   2.412   0.473 -0.3098 -0.3887  0.4320
  134ACOH    H1 9962   3.498   2.479   0.461  0.2127  0.0306 -1.0000
  134ACOH    H2 9963   3.663   2.482   0.494  0.7954 -1.3722 -0.4239
  134ACOH    H3 9964   3.567   2.336   0.550 -3.0432 -1.1377 -0.8220
  135ACOH    H4 9965   0.433   5.858   1.328  2.5237  0.2430  1.3292
  135ACOH    O2 9966   0.394   5.930   1.380  0.6379  0.2412 -0.0136
  135ACOH    C2 9967   0.340   5.887   1.496 -0.0433  0.6724 -0.1685
  135ACOH    O1 9968   0.322   5.775   1.533  0.4749 -0.5029  0.4847
  135ACOH    C1 9969   0.308   6.002   1.591  0.0897 -0.1112  0.3472
  135ACOH    H1 9970   0.395   6.011   1.656  0.2824 -2.8711  0.5299
  135ACOH    H2 9971   0.223   5.981   1.655  0.7210 -1.3801  0.8016
  135ACOH    H3 9972   0.295   6.096   1.538  0.2841 -0.0623  0.3840
  137ACOH    H4 9973   9.350   5.433   2.239 -0.6148 -1.4182  2.5156
  137ACOH    O2 9974   9.370   5.518   2.281 -0.2438 -0.3570  0.2242
  137ACOH    C2 9975   9.509   5.514   2.300  0.2464  1.1809 -0.7774
  137ACOH    O1 9976   9.590   5.422   2.308 -0.5980 -0.1017 -1.0411
  137ACOH    C1 9977   9.553   5.645   2.356 -1.3586  0.2006 -0.0920
  137ACOH    H1 9978   9.530   5.726   2.286  1.3640  0.0936 -1.1596
  137ACOH    H2 9979   9.658   5.643   2.384 -1.2854 -0.5543 -0.4110
  137ACOH    H3 9980   9.492   5.665   2.444 -1.0308  2.1222 -0.2698
  138ACOH    H4 9981   9.247   4.527   2.220  0.0287  0.4534  0.6561
  138ACOH    O2 9982   9.253   4.474   2.301 -0.1734 -0.1108  0.3003
  138ACOH    C2 9983   9.284   4.556   2.405 -0.5751 -0.3502  0.2783
  138ACOH    O1 9984   9.335   4.669   2.405  0.4544  0.1581  0.0310
  138ACOH    C1 9985   9.257   4.503   2.540  0.1616  0.0677  0.2246
  138ACOH    H1 9986   9.355   4.466   2.570  0.5092  1.8187  1.3070
  138ACOH    H2 9987   9.179   4.427   2.536 -0.1294  0.3618  0.2909
  138ACOH    H3 9988   9.223   4.577   2.612  0.6315  0.9673 -0.4703
  140ACOH    H4 9989   4.287   8.558   1.959 -0.9416  1.6691 -0.3284
  140ACOH    O2 9990   4.328   8.598   1.880  0.7214  0.1851 -0.2462
  140ACOH    C2 9991   4.417   8.504   1.828 -0.3833 -0.2019 -0.1194
  140ACOH    O1 9992   4.456   8.400   1.872 -0.1948  0.0470 -0.1480
  140ACOH    C1 9993   4.467   8.557   1.698  0.0136  0.1579  0.0833
  140ACOH    H1 9994   4.410   8.640   1.656  1.6502  0.9110 -0.6631
  140ACOH    H2 9995   4.492   8.480   1.624  0.1588  0.5885 -0.3189
  140ACOH    H3 9996   4.555   8.612   1.728  0.0332 -0.3267  0.9376
  141ACOH    H4 9997   3.373   6.006   2.014  1.1734 -0.0183 -1.8963
  141ACOH    O2 9998   3.456   6.006   2.064  0.1781 -0.0765 -0.2218
  141ACOH    C2 9999   3.426   5.955   2.190  0.3584 -0.2757  0.0245
  141ACOH    O110000   3.321   5.910   2.229  0.3500  0.7189 -0.5162
  141ACOH    C110001   3.547   5.931   2.266  0.2004 -0.4005 -0.1757
  141ACOH    H110002   3.568   5.825   2.277  0.8005 -0.4524 -1.7113
  141ACOH    H210003   3.515   5.958   2.366  0.1413 -1.1384  0.0046
  141ACOH    H310004   3.638   5.989   2.251 -0.6989  1.4095  1.0935
  142ACOH    H410005   4.869   2.970   0.448 -0.5755  0.3258 -0.8117
  142ACOH    O210006   4.919   3.026   0.387  0.6141 -0.1099 -0.2582
  142ACOH    C210007   4.954   3.139   0.451  0.7590  0.6039 -0.1968
  142ACOH    O110008   4.887   3.173   0.548  0.2529 -0.1710 -0.1310
  142ACOH    C110009   5.054   3.210   0.371  0.1197 -0.2177 -0.4621
  142ACOH    H110010   5.006   3.295   0.321  0.7756  0.0295 -0.6719
  142ACOH    H210011   5.102   3.148   0.296  0.3021 -0.4162 -0.1803
  142ACOH    H310012   5.117   3.251   0.449  1.1053 -1.9418 -0.3467
  143ACOH    H410013   1.110   4.017   1.911 -0.6797 -0.4621  0.4874
  143ACOH    O210014   1.162   4.090   1.874 -0.7606 -0.6811 -0.0624
  143ACOH    C210015   1.068   4.184   1.871 -0.7264 -0.3097 -0.0379
  143ACOH    O110016   0.947   4.178   1.889 -0.1906  0.3293 -0.1442
  143ACOH    C110017   1.137   4.302   1.810  0.4923  0.0080  0.4458
  143ACOH    H110018   1.075   4.391   1.819 -0.4887 -0.2291 -3.3694
  143ACOH    H210019   1.158   4.287   1.704 -1.3758 -0.3992  0.1269
  143ACOH    H310020   1.239   4.325   1.843  1.4186 -1.4421 -1.3227
  144ACOH    H410021   5.393   2.341   1.782  0.7529  1.2101 -0.0014
  144ACOH    O210022   5.469   2.360   1.725  0.4500  0.6641 -0.5933
  144ACOH    C210023   5.426   2.437   1.624  0.8398 -0.0954  0.4140
  144ACOH    O110024   5.310   2.463   1.591  0.2295  0.1721  0.5566
  144ACOH    C110025   5.538   2.490   1.544  0.0253  0.2799  0.2878
  144ACOH    H110026   5.537   2.453   1.441 -2.0268  3.2794 -0.8283
  144ACOH    H210027   5.631   2.457   1.590 -0.5388 -0.3133  1.0224
  144ACOH    H310028   5.540   2.599   1.543  0.4538  0.2927  1.8312
  145ACOH    H410029   2.156   8.978   1.458  0.6511 -1.0439 -1.6976
  145ACOH    O210030   2.130   9.058   1.409  0.0134 -0.2771 -0.1422
  145ACOH    C210031   2.142   9.023   1.284  0.2449 -0.1694  0.0332
  145ACOH    O110032   2.141   8.907   1.241  0.4529 -0.5393  0.1505
  145ACOH    C110033   2.143   9.132   1.183 -0.7580 -0.2813  0.5095
  145ACOH    H110034   2.049   9.145   1.130  1.0783  1.5897 -2.3769
  145ACOH    H210035   2.229   9.140   1.117 -0.2065  0.3890  1.2956
  145ACOH    H310036   2.161   9.228   1.232  2.1570 -0.8005  0.5951
  146ACOH    H410037   3.040   6.524   1.856 -0.1747 -1.0410 -0.7600
  146ACOH    O210038   3.048   6.595   1.790  0.5099 -0.1280  0.2909
  146ACOH    C210039   3.136   6.680   1.845 -0.3069  0.5949  0.0215
  146ACOH    O110040   3.223   6.652   1.926 -0.3986  0.5035 -0.8698
  146ACOH    C110041   3.110   6.822   1.806 -0.2695  0.1566  0.1830
  146ACOH    H110042   3.053   6.836   1.715  0.6785 -1.1887 -0.6275
  146ACOH    H210043   3.202   6.879   1.793 -0.8273  0.8891 -0.5667
  146ACOH    H310044   3.048   6.861   1.887  0.3277  0.2713  0.5916
  147ACOH    H410045   3.757   9.487   0.335  0.2327  0.4651  1.8388
  147ACOH    O210046   3.660   9.493   0.340  0.0766  0.0071 -0.2531
  147ACOH    C210047   3.640   9.486   0.476  0.7203 -0.0605  0.2780
  147ACOH    O110048   3.728   9.508   0.555 -0.1730  0.2571  0.5033
  147ACOH    C110049   3.494   9.481   0.523 -0.0297  0.4286  0.0737
  147ACOH    H110050   3.441   9.392   0.492  1.4699 -1.0730  1.6962
  147ACOH    H210051   3.436   9.568   0.491 -1.4850 -0.2263  0.8862
  147ACOH    H310052   3.489   9.486   0.632 -0.7085  2.1277 -0.0213
  148ACOH    H410053   3.414   7.372   3.048 -4.0224 -1.0396 -1.1357
  148ACOH    O210054   3.445   7.334   2.964 -0.1029 -0.0867 -0.1998
  148ACOH    C210055   3.469   7.427   2.873 -0.8274  0.1023  0.6204
  148ACOH    O110056   3.505   7.540   2.902 -0.3241  0.3680  0.2939
  148ACOH    C110057   3.515   7.371   2.744  0.0959 -0.3698 -0.0564
  148ACOH    H110058   3.466   7.276   2.722  0.6892 -0.3693 -1.4683
  148ACOH    H210059   3.623   7.357   2.745  0.4181  1.7593 -1.1325
  148ACOH    H310060   3.488   7.440   2.664 -0.2046  0.3381  0.6487
  149ACOH    H410061   0.526   3.914   1.080  1.3340  1.6445 -2.2795
  149ACOH    O210062   0.602   3.855   1.067  0.6213  0.0997  0.2954
  149ACOH    C210063   0.681   3.874   1.176 -0.2375  0.0924 -0.4463
  149ACOH    O110064   0.673   3.970   1.249  0.4467 -0.5098  0.1810
  149ACOH    C110065   0.773   3.760   1.189  0.1247 -0.1191  0.1908
  149ACOH    H110066   0.830   3.763   1.282  2.5079 -3.3912 -1.0595
  149ACOH    H210067   0.846   3.749   1.109  1.6861 -0.2708  1.5987
  149ACOH    H310068   0.716   3.668   1.199 -1.0060  0.4807 -0.6662
  150ACOH    H410069   0.263   5.108   2.315  0.0508 -0.9399  1.3873
  150ACOH    O210070   0.274   5.197   2.354 -0.1621 -0.5114  0.4647
  150ACOH    C210071   0.378   5.192   2.443  0.4561  0.4968  0.0632
  150ACOH    O110072   0.458   5.103   2.471  0.6011 -0.3875 -0.4359
  150ACOH    C110073   0.367   5.313   2.527  0.2465 -0.5949 -0.1354
  150ACOH    H110074   0.461   5.359   2.559  1.1155 -2.2250 -0.3231
  150ACOH    H210075   0.318   5.275   2.617  0.7935  1.1042  0.9071
  150ACOH    H310076   0.314   5.393   2.476 -2.2927 -2.8184 -1.0757
  152ACOH    H410077   1.906   7.781   0.373  1.7040  1.3632 -0.5798
  152ACOH    O210078   1.899   7.765   0.468 -0.1766  0.7114 -0.8124
  152ACOH    C210079   2.009   7.813   0.521  0.4499 -0.5072  0.1488
  152ACOH    O110080   2.110   7.847   0.468  0.1992  0.1388 -0.0741
  152ACOH    C110081   2.000   7.832   0.665 -0.1826  0.0485 -0.3730
  152ACOH    H110082   1.980   7.939   0.671 -0.1745  0.0713 -0.7235
  152ACOH    H210083   2.092   7.802   0.714 -1.0452  0.6294  1.6812
  152ACOH    H310084   1.915   7.775   0.702 -0.0860 -0.5911 -1.1427
  153ACOH    H410085   3.367   6.249   1.538 -2.1905  0.9843  1.4643
  153ACOH    O210086   3.400   6.225   1.626 -0.0483  0.1371  0.4809
  153ACOH    C210087   3.334   6.300   1.716  0.5178 -0.0558 -0.4863
  153ACOH    O110088   3.219   6.341   1.692  0.1537  0.2742  0.4086
  153ACOH    C110089   3.397   6.286   1.849 -0.1028  0.0184 -0.1231
  153ACOH    H110090   3.497   6.330   1.854  0.9124 -1.9681 -2.1107
  153ACOH    H210091   3.402   6.185   1.891 -1.4182  1.0331  2.5505
  153ACOH    H310092   3.345   6.343   1.926 -0.7080 -0.5068 -0.1374
  154ACOH    H410093   4.824   2.355   0.488 -0.0755  0.0676 -1.2473
  154ACOH    O210094   4.802   2.288   0.554 -0.3680  0.4426 -0.9633
  154ACOH    C210095   4.670   2.295   0.575  0.1772 -0.2486 -0.1299
  154ACOH    O110096   4.592   2.354   0.500 -0.5548 -0.2043 -0.0832
  154ACOH    C110097   4.633   2.209   0.690 -0.4037 -0.0745  0.3431
  154ACOH    H110098   4.525   2.219   0.703 -0.6488 -0.7503 -1.1061
  154ACOH    H210099   4.670   2.245   0.786 -2.4641  0.3165  1.0082
  154ACOH    H310100   4.672   2.108   0.679 -1.6613 -0.4173 -1.0240
  156ACOH    H410101   5.376   2.676   1.894 -0.7265  0.1678  1.3888
  156ACOH    O210102   5.444   2.612   1.919 -0.0418  0.3351 -0.0335
  156ACOH    C210103   5.568   2.637   1.875  0.4130 -0.1924 -0.2563
  156ACOH    O110104   5.597   2.717   1.790 -0.4548 -0.1966  0.7149
  156ACOH    C110105   5.661   2.536   1.947 -0.5342  0.4257  1.3212
  156ACOH    H110106   5.681   2.449   1.885  0.5860  0.6756  1.3323
  156ACOH    H210107   5.617   2.508   2.043  1.5139  2.0453  2.7817
  156ACOH    H310108   5.753   2.585   1.977 -0.3811  0.4533  0.8024
  157ACOH    H410109   5.571   3.141   1.280 -0.1149 -0.5744  1.0009
  157ACOH    O210110   5.649   3.100   1.239  0.0237  0.4286  0.2522
  157ACOH    C210111   5.730   3.028   1.314 -0.2959 -0.5746  0.1922
  157ACOH    O110112   5.765   3.056   1.424  0.7098  0.8987 -0.7135
  157ACOH    C110113   5.794   2.914   1.240 -0.0483  1.0521  0.0865
  157ACOH    H110114   5.866   2.859   1.302 -1.0494 -1.4159 -0.8556
  157ACOH    H210115   5.852   2.948   1.154  0.6652 -1.1755 -0.3717
  157ACOH    H310116   5.719   2.844   1.203 -0.3631 -0.0814  2.7215
  158ACOH    H410117   4.331   8.307   1.250  0.8487 -0.1839 -1.7846
  158ACOH    O210118   4.394   8.372   1.285  0.1278 -0.2517 -0.3325
  158ACOH    C210119   4.334   8.491   1.292 -0.6926  0.3269  0.6087
  158ACOH    O110120   4.211   8.506   1.276 -0.1878 -0.2596 -0.0521
  158ACOH    C110121   4.429   8.604   1.319  0.6335 -0.1865 -0.0116
  158ACOH    H110122   4.509   8.597   1.245  2.1482 -0.9922  1.6740
  158ACOH    H210123   4.466   8.590   1.421  1.2981  2.4671  0.1621
  158ACOH    H310124   4.376   8.699   1.310 -0.5541 -0.5574  2.5135
  159ACOH    H410125   1.966   2.444   1.698  0.9953 -1.3255  0.1072
  159ACOH    O210126   1.911   2.382   1.648  0.2876 -0.6074 -0.0223
  159ACOH    C210127   1.781   2.405   1.671  0.0685  0.0243  0.1368
  159ACOH    O110128   1.733   2.460   1.769  0.5416  0.4170 -0.0018
  159ACOH    C110129   1.697   2.329   1.582  0.0488  0.4090  0.6346
  159ACOH    H110130   1.607   2.384   1.554  0.5993  0.8352 -0.2981
  159ACOH    H210131   1.680   2.236   1.636 -0.0381  0.5943  0.9264
  159ACOH    H310132   1.747   2.315   1.487 -0.8946  0.7455  0.0749
  161ACOH    H410133   4.991   0.596   1.302  2.7241  0.2337 -0.6754
  161ACOH    O210134   5.013   0.502   1.296  0.1388 -0.5147  0.5908
  161ACOH    C210135   4.915   0.415   1.283 -0.0272  1.0743  0.0401
  161ACOH    O110136   4.802   0.443   1.245  0.1516 -0.2222  0.0895
  161ACOH    C110137   4.959   0.282   1.331  0.0241 -0.1721  0.6180
  161ACOH    H110138   4.942   0.289   1.438  3.0777 -1.1979  1.2133
  161ACOH    H210139   5.063   0.258   1.307  0.6957  0.4425  2.8232
  161ACOH    H310140   4.900   0.199   1.292  0.4128 -0.2496  0.1879
  162ACOH    H410141   4.334   0.243   0.895  0.5419  0.5298  0.2968
  162ACOH    O210142   4.305   0.236   0.802  0.4223 -0.5218  0.4134
  162ACOH    C210143   4.402   0.303   0.736  0.6072 -0.2466 -0.1516
  162ACOH    O110144   4.513   0.309   0.776 -0.9069  0.0730  0.0624
  162ACOH    C110145   4.370   0.307   0.594 -0.8085  0.1254 -0.3873
  162ACOH    H110146   4.460   0.323   0.536 -0.8813  1.2009 -0.2069
  162ACOH    H210147   4.301   0.385   0.562 -3.4620 -2.9862 -2.5204
  162ACOH    H310148   4.342   0.210   0.552 -1.0779  0.3986 -0.8427
  163ACOH    H410149   5.244   2.404   1.246 -0.0224  0.2906 -2.3625
  163ACOH    O210150   5.326   2.354   1.228  0.4900  0.2371 -0.0158
  163ACOH    C210151   5.308   2.313   1.101 -0.3477  0.0563 -1.2669
  163ACOH    O110152   5.208   2.326   1.037  0.2659  0.0837 -0.1016
  163ACOH    C110153   5.422   2.250   1.036 -0.3492  0.4032 -0.0089
  163ACOH    H110154   5.399   2.151   0.997  1.7080  0.2137 -0.8008
  163ACOH    H210155   5.499   2.228   1.111  0.5248 -0.1605 -1.0664
  163ACOH    H310156   5.464   2.318   0.962  0.1941  1.6626  1.4220
  164ACOH    H410157   3.247   6.467   2.537  3.3025 -0.5489  0.7294
  164ACOH    O210158   3.279   6.497   2.450  0.4866  0.7260  0.0757
  164ACOH    C210159   3.365   6.397   2.408 -0.1735 -0.7057  0.4817
  164ACOH    O110160   3.374   6.285   2.450 -0.6088  0.2887 -0.2865
  164ACOH    C110161   3.432   6.445   2.283  0.3749 -0.0005  0.4581
  164ACOH    H110162   3.429   6.554   2.282 -0.9321 -0.0020  2.3111
  164ACOH    H210163   3.389   6.406   2.190  0.0390 -2.2752  1.5267
  164ACOH    H310164   3.534   6.407   2.282 -0.1475 -1.4565  1.0873
  165ACOH    H410165   3.856   5.506   0.681  1.1021  2.2488  2.4341
  165ACOH    O210166   3.942   5.460   0.684  0.4075  0.7135 -0.0299
  165ACOH    C210167   3.988   5.448   0.562 -0.6392 -0.9929  0.2303
  165ACOH    O110168   3.923   5.478   0.463  0.0091 -0.2732  0.4473
  165ACOH    C110169   4.136   5.443   0.566 -0.4156  0.2861 -0.6411
  165ACOH    H110170   4.164   5.408   0.665  2.3748 -0.2946 -1.5884
  165ACOH    H210171   4.168   5.546   0.548 -0.5565  0.7524  1.5879
  165ACOH    H310172   4.168   5.380   0.484  1.2785  0.3993 -0.0816
  166ACOH    H410173   4.802   1.364   2.230 -1.6568 -2.4603 -0.0520
  166ACOH    O210174   4.837   1.329   2.314 -0.1469 -0.1141  0.3578
  166ACOH    C210175   4.812   1.198   2.328  0.3608  0.0806 -0.2501
  166ACOH    O110176   4.733   1.139   2.254  0.3988  0.5903 -0.3598
  166ACOH    C110177   4.858   1.151   2.459  0.6687  0.2380  0.6943
  166ACOH    H110178   4.967   1.156   2.459  0.7062  0.0697 -1.8524
  166ACOH    H210179   4.836   1.045   2.475  0.8918  0.0170 -0.3850
  166ACOH    H310180   4.830   1.223   2.535 -1.7519  1.7283 -1.5145
  167ACOH    H410181   8.744   5.584   0.704 -1.4820  0.1944  1.2066
  167ACOH    O210182   8.723   5.679   0.709 -0.1503  0.5842  0.0233
  167ACOH    C210183   8.795   5.731   0.810  0.3557 -0.0529 -0.4149
  167ACOH    O110184   8.880   5.670   0.876  0.0547  0.3522 -0.3482
  167ACOH    C110185   8.748   5.862   0.850  0.3003  0.2830  0.1255
  167ACOH    H110186   8.670   5.885   0.778 -0.3567 -1.6931  0.1827
  167ACOH    H210187   8.823   5.940   0.862  0.8941 -0.5018  1.7211
  167ACOH    H310188   8.697   5.866   0.947  0.2152  2.9024  0.0076
  168ACOH    H410189   1.452   2.839   2.166 -0.1044 -1.1538  1.9255
  168ACOH    O210190   1.375   2.783   2.149  0.0554 -0.7936 -0.1604
  168ACOH    C210191   1.408   2.655   2.171  0.2601  0.0532  0.4278
  168ACOH    O110192   1.520   2.606   2.145  0.2579 -0.3697 -0.1169
  168ACOH    C110193   1.292   2.564   2.198  0.8094 -0.6782  0.2018
  168ACOH    H110194   1.328   2.463   2.181 -0.7230 -1.2872  0.4263
  168ACOH    H210195   1.207   2.594   2.136  1.9584  1.5281 -0.3574
  168ACOH    H310196   1.254   2.573   2.300  1.5562  2.8615  0.2121
  169ACOH    H410197   4.084   9.220   2.340 -0.8953 -0.7360 -0.4480
  169ACOH    O210198   4.110   9.142   2.289 -0.0068 -0.3373 -0.6271
  169ACOH    C210199   4.102   9.178   2.159  0.5769 -0.2884 -0.5134
  169ACOH    O110200   4.067   9.289   2.118  0.4760 -0.1167 -0.2573
  169ACOH    C110201   4.134   9.068   2.070  0.5644  0.4156  1.4417
  169ACOH    H110202   4.047   9.003   2.083 -1.2810  2.5249  0.0579
  169ACOH    H210203   4.223   9.018   2.108 -0.4261 -1.2638  1.6042
  169ACOH    H310204   4.143   9.098   1.966  0.5734  0.2601  1.3982
  170ACOH    H410205   5.087   4.663   2.810  1.1355  1.5319  0.5639
  170ACOH    O210206   5.056   4.731   2.748  0.0138  0.4371 -0.0971
  170ACOH    C210207   5.011   4.833   2.826  0.4314 -0.7411  0.0596
  170ACOH    O110208   4.981   4.823   2.944  0.0561  0.4276  0.0554
  170ACOH    C110209   4.962   4.944   2.740 -0.0026 -0.3039 -0.5662
  170ACOH    H110210   4.957   5.041   2.789  0.1230 -0.1682 -0.8216
  170ACOH    H210211   4.863   4.920   2.704 -0.6615  1.9784 -0.3872
  170ACOH    H310212   5.032   4.955   2.657  1.2768 -0.5265  0.4709
  171ACOH    H410213   3.713   8.406   1.437  0.3109 -0.8547  1.8225
  171ACOH    O210214   3.669   8.320   1.419 -0.1278 -0.2170 -0.3880
  171ACOH    C210215   3.715   8.235   1.508 -0.1165 -0.6145 -0.1651
  171ACOH    O110216   3.796   8.262   1.597 -0.4814  0.1606 -0.2178
  171ACOH    C110217   3.650   8.105   1.504  0.9107 -0.0230 -0.3961
  171ACOH    H110218   3.682   8.031   1.577  1.6407 -0.6437 -1.3267
  171ACOH    H210219   3.668   8.064   1.404 -1.2004 -0.8803 -0.4602
  171ACOH    H310220   3.542   8.119   1.507  0.9110 -0.0622 -0.2514
  172ACOH    H410221   9.271   4.279   1.395  1.3663  0.0265  1.0862
  172ACOH    O210222   9.209   4.230   1.451  0.0293 -0.1490 -0.5133
  172ACOH    C210223   9.107   4.311   1.488 -0.2277  0.3019 -0.4694
  172ACOH    O110224   9.103   4.434   1.494 -0.3406 -0.2485  0.2302
  172ACOH    C110225   9.004   4.226   1.550 -0.2957  0.0952 -0.9385
  172ACOH    H110226   8.959   4.158   1.478  2.5679 -1.9373 -0.8738
  172ACOH    H210227   8.923   4.285   1.594 -0.8452 -0.5035 -1.1320
  172ACOH    H310228   9.048   4.158   1.623 -0.6670 -0.8750 -1.6061
  174ACOH    H410229   4.005   9.204   0.774  1.3417 -0.0746 -3.3391
  174ACOH    O210230   4.043   9.294   0.770 -0.1613  0.8145  0.0929
  174ACOH    C210231   4.176   9.277   0.748 -0.0485 -0.5395 -0.3798
  174ACOH    O110232   4.243   9.178   0.772  0.2240 -0.2723 -0.7120
  174ACOH    C110233   4.225   9.408   0.700  0.7680 -0.4159  0.6029
  174ACOH    H110234   4.180   9.485   0.763 -3.7113 -2.8124  0.5421
  174ACOH    H210235   4.183   9.425   0.601  1.7783 -0.0327  0.2396
  174ACOH    H310236   4.333   9.415   0.700  0.8912 -2.1136  0.8752
  175ACOH    H410237   9.219   4.819   2.022  0.7327 -2.3094  1.1727
  175ACOH    O210238   9.198   4.785   1.934 -0.0809  0.5312  0.2229
  175ACOH    C210239   9.204   4.653   1.943  0.0823 -0.3284  0.0215
  175ACOH    O110240   9.220   4.594   2.050 -0.0500 -0.5429 -0.8647
  175ACOH    C110241   9.206   4.596   1.805  0.6354 -0.0154  0.1952
  175ACOH    H110242   9.187   4.666   1.725  0.5483  2.1818  2.0891
  175ACOH    H210243   9.136   4.512   1.807  2.0485 -1.1859  2.2171
  175ACOH    H310244   9.305   4.551   1.790 -0.1652 -1.2376 -1.6343
  176ACOH    H410245   5.143   4.104   0.374 -1.5781 -1.0601  1.7167
  176ACOH    O210246   5.204   4.086   0.448  0.3307 -0.2367  0.4041
  176ACOH    C210247   5.179   3.965   0.495  0.1756 -0.4911 -0.5906
  176ACOH    O110248   5.087   3.895   0.461 -0.3140  0.3382 -0.0197
  176ACOH    C110249   5.258   3.931   0.616  0.0834 -0.7176 -0.1491
  176ACOH    H110250   5.262   3.823   0.623  2.9529 -0.7815 -2.0839
  176ACOH    H210251   5.215   3.973   0.707  0.2771 -0.5989 -0.1111
  176ACOH    H310252   5.359   3.971   0.612 -0.9065  1.9349  0.2157
  177ACOH    H410253   4.048   8.303   2.001  2.8508 -2.8104 -1.7170
  177ACOH    O210254   4.093   8.280   2.083  0.4856  0.1122  0.5011
  177ACOH    C210255   4.175   8.376   2.129  0.1262  0.0174 -0.3192
  177ACOH    O110256   4.193   8.482   2.074  0.3910 -0.3389 -0.1401
  177ACOH    C110257   4.265   8.344   2.245 -0.4207  0.4710 -0.0055
  177ACOH    H110258   4.282   8.433   2.306 -3.1081 -0.0815  1.6319
  177ACOH    H210259   4.354   8.299   2.203 -0.4330  1.0647 -0.6827
  177ACOH    H310260   4.211   8.276   2.311  1.0796 -0.6991  0.0329
  178ACOH    H410261   5.905   3.431   1.507  0.6100 -1.3027  0.6680
  178ACOH    O210262   5.939   3.480   1.583 -0.1630  0.3504 -0.0241
  178ACOH    C210263   5.843   3.476   1.674  0.4706  0.1971  0.0047
  178ACOH    O110264   5.719   3.469   1.663  0.5283 -0.5308 -0.6949
  178ACOH    C110265   5.918   3.486   1.808  0.0408 -0.3569  0.4364
  178ACOH    H110266   5.937   3.591   1.828 -1.3848 -0.2304  1.1845
  178ACOH    H210267   6.001   3.415   1.809 -0.0664 -0.4668  1.2789
  178ACOH    H310268   5.851   3.447   1.884 -2.5654  0.2849 -1.4566
  180ACOH    H410269   3.807   5.629   2.330 -0.4498  1.0963 -0.6381
  180ACOH    O210270   3.897   5.666   2.334 -0.0524  0.0522  0.3156
  180ACOH    C210271   3.979   5.600   2.406  0.5103 -0.1000 -0.6893
  180ACOH    O110272   3.955   5.503   2.468  0.3023  0.0226 -0.4054
  180ACOH    C110273   4.116   5.655   2.390  0.2636  0.4535 -0.3546
  180ACOH    H110274   4.158   5.675   2.291 -0.6039 -2.8335 -1.4428
  180ACOH    H210275   4.186   5.587   2.439 -0.6705 -0.2569  0.0028
  180ACOH    H310276   4.111   5.753   2.439 -0.2096  0.3210 -0.1378
  181ACOH    H410277   5.437   4.255   0.744 -0.4628 -0.3866 -0.2842
  181ACOH    O210278   5.471   4.251   0.835 -0.3007  0.4086 -0.3066
  181ACOH    C210279   5.365   4.224   0.914 -0.1225 -0.6622 -0.1514
  181ACOH    O110280   5.264   4.165   0.871 -0.0564  0.0782 -0.2337
  181ACOH    C110281   5.396   4.225   1.058  0.0884 -0.1198 -0.1375
  181ACOH    H110282   5.495   4.269   1.070  0.7049 -2.0089  2.2024
  181ACOH    H210283   5.404   4.123   1.096 -3.0598 -0.6846 -0.8545
  181ACOH    H310284   5.315   4.278   1.108  0.7226  0.5561  0.1837
  182ACOH    H410285   5.251   1.583   0.894  0.9978 -1.0154 -2.7145
  182ACOH    O210286   5.337   1.598   0.937 -0.5134 -0.4180  0.2618
  182ACOH    C210287   5.324   1.730   0.969  0.2542  0.9975  0.7101
  182ACOH    O110288   5.265   1.810   0.898  0.4187 -0.2866 -0.3844
  182ACOH    C110289   5.412   1.767   1.081 -0.0713 -0.4538  0.5902
  182ACOH    H110290   5.371   1.737   1.177 -0.7224 -0.2416  0.3793
  182ACOH    H210291   5.431   1.874   1.071 -0.2859 -0.3946  0.8270
  182ACOH    H310292   5.507   1.714   1.074  0.3727  0.3629  0.3890
  183ACOH    H410293   5.307   3.660   2.240  3.0798  1.1987  0.1022
  183ACOH    O210294   5.353   3.623   2.163  0.5970 -0.5146 -0.5985
  183ACOH    C210295   5.368   3.729   2.079 -0.8112 -0.0951  0.5403
  183ACOH    O110296   5.344   3.843   2.116  0.5785 -0.6259 -0.2476
  183ACOH    C110297   5.450   3.690   1.957  0.0548 -0.7825  0.5679
  183ACOH    H110298   5.429   3.761   1.877 -4.6626 -0.8789  1.5596
  183ACOH    H210299   5.416   3.594   1.917  0.5182 -0.3592 -0.8627
  183ACOH    H310300   5.556   3.693   1.981 -0.4505 -1.5159  3.0009
  184ACOH    H410301   3.459   4.498   1.645  1.4442 -1.2548 -1.3159
  184ACOH    O210302   3.407   4.564   1.597 -0.0884 -1.2024  0.3367
  184ACOH    C210303   3.510   4.627   1.530  0.0374  0.1238  0.1681
  184ACOH    O110304   3.621   4.588   1.528 -0.8051 -0.1410 -0.3640
  184ACOH    C110305   3.449   4.744   1.456  0.5327  0.5658  0.2328
  184ACOH    H110306   3.500   4.833   1.492 -0.0745  1.4133 -0.9805
  184ACOH    H210307   3.344   4.768   1.475  0.6573  0.9126  0.4784
  184ACOH    H310308   3.457   4.749   1.347  0.5520  0.4475  0.2284
  185ACOH    H410309   2.367   0.785   1.734  0.2114  0.1549 -1.1747
  185ACOH    O210310   2.270   0.793   1.743  0.2508  0.1352 -0.7158
  185ACOH    C210311   2.246   0.797   1.878  0.3604 -0.1585  0.9578
  185ACOH    O110312   2.330   0.789   1.963  0.1919  0.5030  0.3428
  185ACOH    C110313   2.098   0.799   1.901 -0.2232  0.1724  0.5681
  185ACOH    H110314   2.064   0.894   1.943 -1.5639  0.1931 -0.5496
  185ACOH    H210315   2.081   0.718   1.973 -0.8340  0.6355  0.9468
  185ACOH    H310316   2.045   0.768   1.811 -0.0637 -0.8225  0.8126
  186ACOH    H410317   3.768   2.196   1.372 -1.1882  0.9567 -2.2785
  186ACOH    O210318   3.853   2.244   1.377 -0.5197 -0.3660 -0.0308
  186ACOH    C210319   3.914   2.219   1.491  0.0579 -0.0034  0.2440
  186ACOH    O110320   3.918   2.112   1.552  0.0558  0.1837 -0.2031
  186ACOH    C110321   4.010   2.327   1.506 -0.7024 -0.7970 -0.0023
  186ACOH    H110322   4.022   2.353   1.611  0.5035 -0.1035 -0.2980
  186ACOH    H210323   3.970   2.419   1.463  1.5163  0.1043 -0.1754
  186ACOH    H310324   4.105   2.301   1.460 -1.0572 -0.6416 -0.8464
  188ACOH    H410325   4.378   0.650   2.219 -0.2603 -1.0056 -1.5052
  188ACOH    O210326   4.465   0.667   2.180  0.0355  0.7569 -0.1567
  188ACOH    C210327   4.534   0.770   2.239  0.7861  0.8045  0.4561
  188ACOH    O110328   4.489   0.849   2.316  0.3788 -0.4290  0.1340
  188ACOH    C110329   4.678   0.779   2.198 -0.7476 -0.0694  0.2264
  188ACOH    H110330   4.692   0.884   2.170 -0.1154  0.1709  1.4196
  188ACOH    H210331   4.696   0.722   2.107 -2.0808 -0.7777  0.3970
  188ACOH    H310332   4.751   0.750   2.274  0.9963  0.7299 -1.0948
  189ACOH    H410333   4.720   3.219   0.513 -0.3864  1.8342  2.7734
  189ACOH    O210334   4.633   3.243   0.478 -0.1010 -0.3078  0.4876
  189ACOH    C210335   4.650   3.290   0.355 -0.6282  0.3001  0.3642
  189ACOH    O110336   4.749   3.352   0.316  0.5434 -0.3366  0.0763
  189ACOH    C110337   4.522   3.298   0.281 -0.8998  0.9331  0.2314
  189ACOH    H110338   4.462   3.211   0.306 -0.6436  0.0660 -2.0553
  189ACOH    H210339   4.527   3.304   0.172  1.2390  0.5029  0.2804
  189ACOH    H310340   4.471   3.388   0.315 -3.0817 -0.6443  1.2425
  190ACOH    H410341   4.909   5.121   0.898 -0.4215 -0.0272 -0.0281
  190ACOH    O210342   4.950   5.177   0.966 -0.1607  0.3289 -0.4727
  190ACOH    C210343   4.911   5.113   1.080  0.6054  0.3879  0.2448
  190ACOH    O110344   4.871   4.999   1.091 -0.5128 -0.0544 -0.2498
  190ACOH    C110345   4.917   5.197   1.201 -0.0676  0.2955  0.1490
  190ACOH    H110346   4.930   5.302   1.173 -0.8374 -0.3744 -2.8268
  190ACOH    H210347   5.005   5.176   1.262  1.1160 -0.5850 -1.8363
  190ACOH    H310348   4.831   5.191   1.268 -0.8503  0.3872 -0.8359
  192ACOH    H410349   3.210   7.062   1.430 -0.0108  0.0400  0.0612
  192ACOH    O210350   3.195   6.971   1.457  0.4364  0.1143  0.5653
  192ACOH    C210351   3.201   6.898   1.349  0.4635 -0.4616  0.2548
  192ACOH    O110352   3.214   6.936   1.234 -0.0206  0.1629  0.1021
  192ACOH    C110353   3.168   6.762   1.383  0.7611 -0.7057  0.1203
  192ACOH    H110354   3.060   6.753   1.391  0.6455 -2.2009 -2.6848
  192ACOH    H210355   3.215   6.755   1.481 -0.5745  0.7699  0.8779
  192ACOH    H310356   3.207   6.690   1.311  0.4917 -0.6672 -0.0649
  193ACOH    H410357   4.173   5.212   2.037  1.4220  1.2444  0.8351
  193ACOH    O210358   4.110   5.283   2.057 -0.1821  0.1262 -0.2077
  193ACOH    C210359   4.169   5.397   2.015 -0.0428 -0.3684 -0.2643
  193ACOH    O110360   4.286   5.421   1.990  0.1918  0.0449  0.2262
  193ACOH    C110361   4.064   5.497   2.035  0.4466  0.7367 -0.0178
  193ACOH    H110362   4.110   5.593   2.055 -0.1580  0.9654  0.2834
  193ACOH    H210363   4.002   5.465   2.118  1.4487 -0.4077  0.3047
  193ACOH    H310364   4.015   5.504   1.937  0.9576 -2.3886 -0.5612
  194ACOH    H410365   2.344   0.663   2.600 -2.2206 -1.8905  0.5647
  194ACOH    O210366   2.313   0.680   2.509 -0.1423  0.2855  0.1949
  194ACOH    C210367   2.383   0.594   2.432  0.3744  0.1441  0.2898
  194ACOH    O110368   2.437   0.489   2.463  0.2818  0.3241  0.2664
  194ACOH    C110369   2.356   0.617   2.287  0.9830  0.7165  0.0416
  194ACOH    H110370   2.259   0.667   2.281 -1.2102 -3.2986 -0.1354
  194ACOH    H210371   2.358   0.523   2.233 -1.6605  1.6560 -1.7752
  194ACOH    H310372   2.428   0.693   2.257 -1.7774  3.9933  1.2950
  195ACOH    H410373   3.536   1.027   1.099  0.7068  0.3425 -1.6684
  195ACOH    O210374   3.626   1.011   1.132  0.2441 -0.0938 -0.6191
  195ACOH    C210375   3.678   1.128   1.173  0.2536  0.4833  0.3591
  195ACOH    O110376   3.635   1.238   1.151 -0.5643 -0.0913 -0.6851
  195ACOH    C110377   3.785   1.108   1.275 -0.1388 -0.3765 -0.3711
  195ACOH    H110378   3.794   1.000   1.287  2.2020 -0.2463 -0.7348
  195ACOH    H210379   3.763   1.154   1.371 -0.8621 -1.7584  0.1366
  195ACOH    H310380   3.874   1.151   1.229 -1.4844  2.0906 -0.7587
  196ACOH    H410381   3.695   7.593   1.284 -0.1589  0.8466  0.1552
  196ACOH    O210382   3.743   7.587   1.368 -0.5221 -0.0245  0.3115
  196ACOH    C210383   3.665   7.642   1.464 -1.0359 -0.3041 -0.2278
  196ACOH    O110384   3.544   7.646   1.462  0.0646 -0.3556  0.1149
  196ACOH    C110385   3.740   7.696   1.576 -0.0987  0.1623  0.0340
  196ACOH    H110386   3.801   7.778   1.537 -1.3184  0.1075 -2.1297
  196ACOH    H210387   3.797   7.623   1.633  1.9794  0.9460 -1.0028
  196ACOH    H310388   3.671   7.738   1.649 -0.1947  1.8688 -1.0015
  197ACOH    H410389   1.388   2.564   1.463  0.0755 -0.1391  0.8121
  197ACOH    O210390   1.346   2.484   1.501 -0.1422 -0.1689  0.5170
  197ACOH    C210391   1.347   2.505   1.633 -0.5372  1.0506  0.3069
  197ACOH    O110392   1.420   2.573   1.704 -0.3528 -0.0037 -0.2077
  197ACOH    C110393   1.251   2.404   1.687 -0.2845  0.6066  0.3241
  197ACOH    H110394   1.169   2.392   1.616  2.2977 -2.8785 -2.2248
  197ACOH    H210395   1.206   2.442   1.779 -0.0541  0.8672  0.3304
  197ACOH    H310396   1.295   2.306   1.704 -1.7659  0.1031  1.4302
  198ACOH    H410397   5.161   2.809   0.573  0.0870 -0.1680  3.3917
  198ACOH    O210398   5.160   2.906   0.578  0.4572  0.0805 -0.1330
  198ACOH    C210399   5.278   2.924   0.652 -0.0020  0.7857 -0.2749
  198ACOH    O110400   5.350   2.842   0.705  0.1370  0.4424 -0.1844
  198ACOH    C110401   5.313   3.070   0.650  0.0921  0.6403 -1.0699
  198ACOH    H110402   5.312   3.116   0.551  1.2905  2.8979 -0.0624
  198ACOH    H210403   5.407   3.089   0.702  0.7003 -2.5125 -0.9438
  198ACOH    H310404   5.246   3.123   0.717 -0.1978  1.5895 -2.0989
  199ACOH    H410405   2.692   0.401   2.548 -0.6693  0.3534  0.5822
  199ACOH    O210406   2.666   0.309   2.568 -0.6715  0.1369 -0.3507
  199ACOH    C210407   2.658   0.249   2.446  0.7824  0.0854  0.5367
  199ACOH    O110408   2.717   0.277   2.344  0.1613  0.4342  0.2061
  199ACOH    C110409   2.608   0.112   2.478  0.0052 -0.7067 -0.1965
  199ACOH    H110410   2.503   0.108   2.507  0.3149  0.4756  1.1289
  199ACOH    H210411   2.672   0.071   2.556 -1.4562 -0.9855  0.8806
  199ACOH    H310412   2.619   0.051   2.388 -0.9512  0.8559 -1.3959
  200ACOH    H410413   3.638   5.090   0.279 -0.1622 -3.3661 -0.4312
  200ACOH    O210414   3.555   5.078   0.327 -0.2765  0.0769  0.3414
  200ACOH    C210415   3.564   4.949   0.358  0.1414  0.1633  0.4407
  200ACOH    O110416   3.630   4.862   0.309  0.0079  0.1655  0.5807
  200ACOH    C110417   3.450   4.910   0.444  0.0891  0.7729 -0.4900
  200ACOH    H110418   3.467   4.811   0.486  0.6117  0.1589 -2.0933
  200ACOH    H210419   3.360   4.917   0.383  0.0404 -0.3210 -0.5674
  200ACOH    H310420   3.450   4.975   0.531 -1.5250  0.7520 -0.4593
  202ACOH    H410421   5.321   1.623   0.456 -0.6569 -0.1964  0.2270
  202ACOH    O210422   5.367   1.554   0.507 -0.1969  0.2405  0.4118
  202ACOH    C210423   5.271   1.470   0.542 -0.1777  0.1699 -0.2432
  202ACOH    O110424   5.151   1.477   0.532 -0.1517  0.0646 -0.0500
  202ACOH    C110425   5.334   1.368   0.623  0.1317 -0.2216  0.5460
  202ACOH    H110426   5.315   1.395   0.726  0.0930  0.2373  0.4165
  202ACOH    H210427   5.442   1.364   0.605 -0.1419  0.5576 -1.4242
  202ACOH    H310428   5.284   1.273   0.602 -1.3850  0.3838  1.4457
  203ACOH    H410429   4.701   8.542   1.024 -0.1838  0.7744  1.1282
  203ACOH    O210430   4.797   8.539   1.036  0.0645  0.2995 -0.8616
  203ACOH    C210431   4.823   8.653   1.110  0.5592  0.1716  0.2091
  203ACOH    O110432   4.740   8.735   1.157 -0.2041  0.3706  0.3581
  203ACOH    C110433   4.968   8.672   1.135 -0.2561 -0.5081 -0.2221
  203ACOH    H110434   4.986   8.671   1.243  0.3015 -1.8380 -0.3237
  203ACOH    H210435   4.997   8.771   1.099 -0.1278 -1.0660 -1.6886
  203ACOH    H310436   5.014   8.587   1.085  3.0388  0.1899  1.4524
  204SOL     OW10437   9.920   5.602   0.992  0.2722  0.0550  0.2654
  204SOL    HW110438  10.004   5.631   0.947  0.9078  0.1076  1.4416
  204SOL    HW210439   9.897   5.667   1.064  0.0050 -0.6990  0.8743
  205SOL     OW10440   1.040   5.012   1.354  0.3262 -0.2473  0.1524
  205SOL    HW110441   0.974   5.065   1.301  0.3942  0.8516  1.1526
  205SOL    HW210442   1.014   5.014   1.451  2.2743  0.8835  0.6776
  206SOL     OW10443   1.790   6.008   2.104 -0.4078  0.6017 -0.4495
  206SOL    HW110444   1.724   6.083   2.095  1.0767  1.7933 -1.8324
  206SOL    HW210445   1.786   5.951   2.022 -0.3067  0.1943 -0.1695
  207SOL     OW10446   3.362   9.651   1.013  0.5467  0.1223 -0.0810
  207SOL    HW110447   3.355   9.570   1.070 -2.2353  0.6520  0.3828
  207SOL    HW210448   3.427   9.715   1.054 -1.3724  0.4774  2.5411
  208SOL     OW10449   2.520   9.098   1.115  0.2118  0.1887  0.0519
  208SOL    HW110450   2.517   9.052   1.204 -1.8256  0.3665  0.0941
  208SOL    HW210451   2.496   9.033   1.043  1.5670  0.1232 -0.3668
  209SOL     OW10452   3.771   0.577   2.247  0.4209 -0.1070  0.1615
  209SOL    HW110453   3.750   0.673   2.269  1.2628  0.4704 -1.4900
  209SOL    HW210454   3.802   0.531   2.330 -2.5141  0.3214  1.5722
  210SOL     OW10455   3.452   2.826   1.725  0.7309  0.6353  0.5583
  210SOL    HW110456   3.455   2.899   1.658  1.1708  1.3531  1.3445
  210SOL    HW210457   3.539   2.822   1.774  0.6440 -0.2907  0.6549
  211SOL     OW10458   3.644   0.800   0.789 -0.1158 -0.5170 -0.2000
  211SOL    HW110459   3.717   0.753   0.740  0.8032  2.5547 -1.8340
  211SOL    HW210460   3.652   0.781   0.887  2.4547 -0.7311 -0.4373
  212SOL     OW10461   9.423   4.906   1.840 -0.3448 -0.1947 -0.2852
  212SOL    HW110462   9.354   4.841   1.870  0.0758 -0.5489 -0.0692
  212SOL    HW210463   9.453   4.883   1.747 -0.0887 -0.4066 -0.1530
  213SOL     OW10464   4.485   4.722   1.163  0.0909 -0.1637  0.7023
  213SOL    HW110465   4.387   4.727   1.144  0.2236  0.4623  0.1834
  213SOL    HW210466   4.535   4.701   1.079  0.5248  0.9071  0.6949
  215SOL     OW10467   1.964   2.455   1.138  0.1519  0.4122 -0.4695
  215SOL    HW110468   1.935   2.523   1.205 -2.3116 -1.2225  0.1955
  215SOL    HW210469   1.903   2.459   1.059 -1.2264 -2.2746  0.4084
  216SOL     OW10470   1.723   2.591   0.795  0.2805 -0.1314 -0.8134
  216SOL    HW110471   1.723   2.498   0.832 -0.2171  0.7225  1.4408
  216SOL    HW210472   1.636   2.609   0.749  0.1879 -0.6319 -0.8359
  218SOL     OW10473   3.490   0.637   0.614  0.0266  0.5311  0.0322
  218SOL    HW110474   3.516   0.696   0.691 -1.1387 -0.0761  0.9073
  218SOL    HW210475   3.531   0.547   0.627  0.1963  0.5634 -0.2883
  219SOL     OW10476   2.913   5.369   0.842  0.5622 -0.9263 -0.9352
  219SOL    HW110477   2.922   5.325   0.752 -0.6752  0.1691 -1.6154
  219SOL    HW210478   2.831   5.427   0.842 -0.2782 -2.0718  1.3960
  220SOL     OW10479   1.889   4.113   1.631 -0.6841 -0.1066  0.1665
  220SOL    HW110480   1.978   4.138   1.667 -1.6392  1.7452  1.3141
  220SOL    HW210481   1.884   4.014   1.618  1.9185 -0.1164 -1.0180
  222SOL     OW10482   3.155   3.230   1.395  0.2202  0.0763  0.1118
  222SOL    HW110483   3.163   3.248   1.493 -0.2105  1.3838 -0.0806
  222SOL    HW210484   3.246   3.235   1.352  0.1162  1.9937  0.0529
  223SOL     OW10485   3.023   0.715   0.789  0.0623  0.3689  0.0119
  223SOL    HW110486   3.043   0.733   0.693 -0.4614  0.5887 -0.0597
  223SOL    HW210487   2.939   0.660   0.796 -1.0467  2.0931  0.4166
  224SOL     OW10488   0.772   3.693   0.560 -0.3478  0.1306  0.1510
  224SOL    HW110489   0.752   3.632   0.483 -1.7855  0.5830  0.1359
  224SOL    HW210490   0.772   3.787   0.528 -1.8259  0.3884  0.8387
  225SOL     OW10491   3.587   3.176   2.210 -0.5595 -0.4282  0.4195
  225SOL    HW110492   3.488   3.184   2.201 -0.5476  3.1349  2.3967
  225SOL    HW210493   3.612   3.174   2.307  1.4211  1.4664 -0.0079
  226SOL     OW10494   1.996   2.182   1.228  0.1817  1.0796  0.1801
  226SOL    HW110495   2.026   2.162   1.321  0.0230  1.8748  0.4028
  226SOL    HW210496   1.991   2.281   1.214 -1.8069  0.9823 -0.0126
  227SOL     OW10497   2.072   4.455   1.505 -0.0105  0.2278 -0.4823
  227SOL    HW110498   2.073   4.401   1.590 -0.0093  0.6958 -0.1804
  227SOL    HW210499   2.005   4.417   1.442  1.3514 -1.2930 -1.0384
  228SOL     OW10500   3.228   3.679   1.667  0.2633 -0.1781  0.2254
  228SOL    HW110501   3.197   3.768   1.701 -1.1687 -1.0945  1.3537
  228SOL    HW210502   3.307   3.693   1.607 -0.0784  1.8758  0.1938
  229SOL     OW10503   1.740   6.516   0.656  0.3315  0.3826 -0.0252
  229SOL    HW110504   1.838   6.504   0.668  0.6225  1.1567 -1.4998
  229SOL    HW210505   1.691   6.448   0.710  1.5740  2.0812  3.3366
  230SOL     OW10506   1.836   4.584   0.488  1.1924  0.2557 -0.4487
  230SOL    HW110507   1.917   4.637   0.514  2.5232 -1.6227 -0.6722
  230SOL    HW210508   1.831   4.501   0.544  0.5112 -0.6013 -1.7590
  231SOL     OW10509   0.938   5.141   0.776 -0.5930 -0.4671 -0.9278
  231SOL    HW110510   0.913   5.064   0.835 -0.8262 -1.7237 -2.6491
  231SOL    HW210511   1.035   5.135   0.752  0.6273  2.3830  2.7198
  232SOL     OW10512   2.101   4.572   0.761  0.0412 -0.5445 -0.3440
  232SOL    HW110513   2.189   4.592   0.804  0.1914 -1.3147 -0.2884
  232SOL    HW210514   2.051   4.505   0.815 -1.4231  1.2970  0.6490
  233SOL     OW10515   4.074   2.065   2.160 -0.4482  0.6911 -0.2382
  233SOL    HW110516   4.120   2.069   2.248 -1.2274  1.8091  0.1220
  233SOL    HW210517   4.142   2.055   2.087  0.0880 -2.2883  0.6090
  234SOL     OW10518   2.965   0.506   1.870 -0.0947 -0.5904 -0.5453
  234SOL    HW110519   2.883   0.450   1.877 -0.7485  0.4292  0.1392
  234SOL    HW210520   3.025   0.486   1.948 -0.5121 -0.0677 -0.0805
  235SOL     OW10521   1.429   5.132   1.964 -0.0704  0.7397  0.3390
  235SOL    HW110522   1.407   5.034   1.972 -2.2917  1.3044  1.4266
  235SOL    HW210523   1.432   5.172   2.055  0.3826  1.8059 -0.1425
  237SOL     OW10524   2.221   6.231   2.239 -0.1582 -0.0598 -0.7702
  237SOL    HW110525   2.238   6.160   2.171 -2.6588 -0.4690 -1.0246
  237SOL    HW210526   2.122   6.246   2.248  0.1410  0.4812  2.2599
  240SOL     OW10527   2.183   3.493   1.488 -0.1757 -0.3242  0.6325
  240SOL    HW110528   2.087   3.502   1.515 -0.1364  0.7685  0.4261
  240SOL    HW210529   2.231   3.435   1.554 -0.6512  0.2745  1.5060
  241SOL     OW10530   0.483   4.587   2.047  0.7728  0.5415 -0.6722
  241SOL    HW110531   0.521   4.661   2.103 -0.5469 -0.2489  1.3367
  241SOL    HW210532   0.532   4.502   2.067  1.7583  0.6851 -2.3864
  243SOL     OW10533   3.105   0.306   0.991 -0.1671 -0.8540 -0.0565
  243SOL    HW110534   3.006   0.308   0.977 -0.3940 -2.0201  1.1592
  243SOL    HW210535   3.127   0.234   1.057  1.1756  1.5986  2.2695
  244SOL     OW10536   3.439   8.137   1.040  0.6499  0.2349 -0.0996
  244SOL    HW110537   3.417   8.084   1.121  0.4693 -0.6341 -0.7054
  244SOL    HW210538   3.435   8.235   1.061  1.6348  0.0061  1.1952
  245SOL     OW10539   2.745   6.718   1.542 -0.5846 -0.1566 -0.3378
  245SOL    HW110540   2.777   6.799   1.493  1.9791  0.0862  1.5947
  245SOL    HW210541   2.684   6.745   1.616 -0.9796 -0.1328 -0.6720
  247SOL     OW10542   2.682   6.284   1.430 -0.4449 -0.8741 -0.2810
  247SOL    HW110543   2.748   6.234   1.486  0.6909  1.8222  0.8843
  247SOL    HW210544   2.603   6.309   1.485 -0.6386 -0.6991 -0.6381
  248SOL     OW10545   2.511   2.898   2.018 -0.0091  0.4754 -0.5153
  248SOL    HW110546   2.552   2.808   2.007 -0.3974  0.0352  1.4191
  248SOL    HW210547   2.570   2.967   1.975  2.3620 -0.2368  1.4439
  249SOL     OW10548   5.005   3.441   2.075 -0.5939  0.0750  0.2229
  249SOL    HW110549   5.055   3.399   2.151  0.2039  0.3875 -0.1118
  249SOL    HW210550   5.069   3.459   2.000 -0.9506  1.6938  0.2888
  250SOL     OW10551   1.196   5.110   0.739 -0.4079 -0.4175  0.5526
  250SOL    HW110552   1.270   5.176   0.753 -1.3270  0.4497  1.4718
  250SOL    HW210553   1.183   5.057   0.823  1.3878 -2.9223 -0.6917
  252SOL     OW10554   2.830   1.711   1.346  0.4185 -0.6368 -0.2040
  252SOL    HW110555   2.792   1.642   1.285 -1.2404 -0.9375  1.1407
  252SOL    HW210556   2.804   1.802   1.312 -1.2876 -0.8276  0.5273
  253SOL     OW10557   1.660   6.570   1.137 -0.3523 -0.2035  0.1834
  253SOL    HW110558   1.594   6.642   1.115 -0.2465  0.1325  0.9529
  253SOL    HW210559   1.732   6.569   1.068  1.9135  3.2036  2.3653
  254SOL     OW10560   4.069   1.503   2.300 -0.0383 -0.2795  0.8036
  254SOL    HW110561   4.150   1.483   2.355 -1.4669 -0.2299  2.9872
  254SOL    HW210562   4.001   1.432   2.314 -1.9950  1.8326  2.2872
  255SOL     OW10563   3.107   7.275   0.501  0.2817  0.3176 -0.1156
  255SOL    HW110564   3.087   7.340   0.427 -1.6147  0.5220  0.5464
  255SOL    HW210565   3.039   7.285   0.573  0.7887 -1.4497  0.6382
  256SOL     OW10566   3.026   2.648   1.180 -0.3437 -0.1025 -0.4841
  256SOL    HW110567   2.946   2.700   1.152 -0.0630  0.4615 -0.2407
  256SOL    HW210568   3.069   2.607   1.099 -1.2533 -0.9566 -0.5456
  257SOL     OW10569   0.680   4.757   0.946 -0.5858  0.4395 -0.0870
  257SOL    HW110570   0.597   4.809   0.929  0.3787  1.6759 -1.1689
  257SOL    HW210571   0.760   4.816   0.932  0.4820 -0.7849  0.6891
  258SOL     OW10572   3.240   1.348   1.015 -0.2746 -0.4040  0.2802
  258SOL    HW110573   3.210   1.254   1.027 -0.6777 -0.0939  1.8523
  258SOL    HW210574   3.165   1.403   0.980 -0.6535 -0.2444  1.3407
  259SOL     OW10575   2.415   9.846   1.580  0.2073  0.1451  0.1793
  259SOL    HW110576   2.417   9.747   1.571  0.9685  0.2741 -1.2149
  259SOL    HW210577   2.402   9.871   1.676  1.0973 -1.2954  0.6891
  262SOL     OW10578   2.056   4.212   1.147 -0.2185 -1.0824  0.3210
  262SOL    HW110579   2.004   4.239   1.228  0.7802 -0.0395  0.6319
  262SOL    HW210580   2.135   4.156   1.174 -1.2487 -2.8305 -0.1637
  263SOL     OW10581   2.641   1.556   0.451  0.3479  0.8761 -0.2992
  263SOL    HW110582   2.564   1.571   0.514 -0.1494 -0.3043 -0.6070
  263SOL    HW210583   2.669   1.643   0.411 -1.0757  1.2819 -0.4445
  264SOL     OW10584   1.201   3.785   0.425 -0.5342  0.1782  0.3219
  264SOL    HW110585   1.260   3.720   0.473 -0.2687  0.7529  0.7851
  264SOL    HW210586   1.150   3.839   0.491  1.3608  2.3981  0.0465
  266SOL     OW10587   2.784   2.911   0.480  0.1451  0.1205  0.6649
  266SOL    HW110588   2.729   2.954   0.409  4.3614 -0.0397 -2.9564
  266SOL    HW210589   2.765   2.813   0.483  2.7833 -0.6273 -3.2727
  268SOL     OW10590   3.916   0.524   0.831  0.4114 -0.3196 -0.2170
  268SOL    HW110591   3.882   0.576   0.909 -0.0615 -0.9319 -0.0045
  268SOL    HW210592   3.884   0.429   0.838  3.2938 -1.2889  0.7293
  269SOL     OW10593   2.671   8.918   0.797 -0.3351 -0.1689 -0.7407
  269SOL    HW110594   2.689   8.942   0.892 -2.1981 -0.3615 -0.3102
  269SOL    HW210595   2.747   8.947   0.740  1.2104 -0.8559  0.9249
  270SOL     OW10596   3.218   5.148   2.231 -0.1917  0.7604 -0.0601
  270SOL    HW110597   3.279   5.100   2.169  0.1878  1.0130  0.1153
  270SOL    HW210598   3.126   5.152   2.191 -0.2270 -0.1202 -0.0625
  271SOL     OW10599   2.297   6.920   1.506 -0.1487  0.6229 -0.2058
  271SOL    HW110600   2.336   6.828   1.494 -0.3202  0.8933 -3.1836
  271SOL    HW210601   2.343   6.965   1.583  0.8902 -1.4457  0.4425
  273SOL     OW10602   3.647   0.826   1.465  0.1632 -0.0968  0.5819
  273SOL    HW110603   3.728   0.871   1.505  1.5948  0.8400 -3.1540
  273SOL    HW210604   3.572   0.892   1.460  0.5668  0.3293  0.0316
  274SOL     OW10605   1.455   5.248   1.513  0.0068 -0.0685 -0.0865
  274SOL    HW110606   1.514   5.225   1.436  0.8236  0.8640  0.2401
  274SOL    HW210607   1.428   5.165   1.561  0.9151 -0.5187 -0.3513
  275SOL     OW10608   2.901   8.867   1.571 -0.3771  0.2351  0.3752
  275SOL    HW110609   2.918   8.769   1.561  1.8431  0.5009  1.4381
  275SOL    HW210610   2.900   8.910   1.481  0.5171 -0.4596  0.0293
  277SOL     OW10611   4.328   5.229   1.586 -0.2007 -0.4147 -0.3926
  277SOL    HW110612   4.390   5.151   1.582 -0.4643 -0.5495 -2.3638
  277SOL    HW210613   4.369   5.302   1.641  0.5183 -1.5103  0.5450
  279SOL     OW10614   4.305   0.789   1.897  0.2414 -0.3125 -0.5171
  279SOL    HW110615   4.223   0.772   1.951  1.1635  0.8570  1.2928
  279SOL    HW210616   4.287   0.862   1.831  0.7962  2.4551  2.2763
  280SOL     OW10617   4.272   0.970   1.672 -0.1753  0.3989 -0.4877
  280SOL    HW110618   4.306   1.057   1.637  1.9754 -0.0133  0.4765
  280SOL    HW210619   4.218   0.925   1.602  0.2954  1.6332 -1.6815
  282SOL     OW10620   2.402   9.396   1.585  0.3735  0.0079 -0.6268
  282SOL    HW110621   2.384   9.372   1.490  1.6853 -0.0522 -0.8637
  282SOL    HW210622   2.376   9.320   1.645 -0.4275  0.0375 -0.9287
  283SOL     OW10623   5.188   3.434   1.849 -0.2529 -0.2109  0.2676
  283SOL    HW110624   5.256   3.379   1.898 -0.8765 -1.8152 -0.6140
  283SOL    HW210625   5.151   3.381   1.773 -2.3658  0.6879  0.6171
  284SOL     OW10626   2.090   8.045   2.012  0.5388 -0.2826  0.7934
  284SOL    HW110627   2.007   8.056   1.957  0.1950 -1.6925  1.0152
  284SOL    HW210628   2.068   8.062   2.108  0.6544  0.0185  0.7655
  287SOL     OW10629   3.249   5.979   1.875 -0.2476 -0.5493 -0.0563
  287SOL    HW110630   3.169   5.922   1.860 -0.8282  0.0974  0.5359
  287SOL    HW210631   3.322   5.952   1.812 -1.5638  0.0970 -1.8928
  288SOL     OW10632   3.132   5.713   2.146  0.2892  0.3436 -0.1668
  288SOL    HW110633   3.180   5.792   2.184 -0.4385 -0.3115  2.1444
  288SOL    HW210634   3.183   5.629   2.167 -1.9936 -0.4042  2.6699
  289SOL     OW10635   0.059   5.120   0.711 -0.6044  0.2581  0.6045
  289SOL    HW110636   0.008   5.034   0.701 -0.2092 -0.0805  1.5505
  289SOL    HW210637   0.011   5.179   0.775 -0.2176  0.2502  0.9011
  290SOL     OW10638   4.796   3.888   0.817  0.7517 -0.1123 -0.1096
  290SOL    HW110639   4.797   3.973   0.764 -0.2254 -0.2906 -0.4273
  290SOL    HW210640   4.795   3.810   0.755  0.2220 -0.3311  0.1708
  291SOL     OW10641   0.654   4.353   2.061 -0.4070 -0.7434  0.1439
  291SOL    HW110642   0.752   4.333   2.061 -0.2874 -0.2578 -1.5341
  291SOL    HW210643   0.603   4.270   2.039 -0.3071 -0.7454 -0.0809
  292SOL     OW10644   4.797   4.095   1.518 -0.0002  0.2760 -0.4224
  292SOL    HW110645   4.809   4.194   1.509 -1.9060  0.5009 -0.9130
  292SOL    HW210646   4.795   4.070   1.615  1.3727  0.5815 -0.3051
  293SOL     OW10647   1.316   6.157   2.107  0.1489  0.1096 -0.1275
  293SOL    HW110648   1.262   6.127   2.186 -0.8595  1.4116 -0.3229
  293SOL    HW210649   1.265   6.140   2.023 -0.5733  2.6158 -0.2304
  294SOL     OW10650   3.100   3.879   1.106  0.2739 -0.3894  0.0115
  294SOL    HW110651   3.163   3.943   1.063  0.3507 -1.4607 -1.4943
  294SOL    HW210652   3.146   3.792   1.123 -0.7264 -1.1189 -0.9197
  295SOL     OW10653   3.063   9.306   1.413  0.3598 -0.5308 -0.3242
  295SOL    HW110654   3.115   9.383   1.376 -1.2054 -0.6452 -2.9208
  295SOL    HW210655   3.046   9.321   1.511  1.9195  1.3551 -0.3048
  296SOL     OW10656   1.910   2.875   2.232  0.5822  0.5728 -0.0023
  296SOL    HW110657   1.840   2.919   2.289  0.2335 -0.2386  0.2070
  296SOL    HW210658   1.998   2.921   2.246 -0.2786  2.7953 -1.6812
  297SOL     OW10659   3.804   1.848   2.313  0.8376  0.8154 -0.0469
  297SOL    HW110660   3.873   1.873   2.381 -0.1570  2.3413  0.4215
  297SOL    HW210661   3.714   1.881   2.342  0.2485  0.6793 -1.6549
  298SOL     OW10662   0.869   5.732   0.621  0.0992 -0.7466 -0.1556
  298SOL    HW110663   0.772   5.707   0.617 -0.1953  0.4062 -0.5091
  298SOL    HW210664   0.884   5.817   0.569  1.4287 -1.3089 -0.7076
  299SOL     OW10665   2.164   4.975   1.117 -0.4033 -0.2377  0.3235
  299SOL    HW110666   2.162   5.073   1.101 -0.8386 -0.4720 -1.1443
  299SOL    HW210667   2.070   4.940   1.122 -0.2499 -0.6183  0.5725
  300SOL     OW10668   3.277   9.083   0.522  0.0376 -0.2042 -0.1563
  300SOL    HW110669   3.245   9.010   0.583 -0.5715 -0.1927 -0.4562
  300SOL    HW210670   3.330   9.043   0.448  0.9720 -0.1950  0.5076
  301SOL     OW10671   0.360   5.852   2.177 -0.3071  0.3133  0.0856
  301SOL    HW110672   0.308   5.767   2.182 -0.9076  0.6711 -0.0540
  301SOL    HW210673   0.458   5.832   2.177 -0.4405 -0.3453  0.7252
  302SOL     OW10674   2.681   0.711   2.277 -0.0165  0.1586 -0.7445
  302SOL    HW110675   2.681   0.629   2.219 -1.9948 -1.4028  1.3572
  302SOL    HW210676   2.636   0.786   2.229 -0.2570 -0.6592 -1.8199
  303SOL     OW10677   1.228   4.360   1.170 -0.3027  0.4956  0.3435
  303SOL    HW110678   1.293   4.426   1.208  1.3085 -0.5165 -0.6405
  303SOL    HW210679   1.148   4.354   1.230  0.2352  2.1811  1.2511
  304SOL     OW10680   4.527   2.675   0.554 -0.9515 -0.0855 -0.0014
  304SOL    HW110681   4.572   2.606   0.611 -1.3811 -0.3139  0.0694
  304SOL    HW210682   4.524   2.644   0.459  0.4899  0.6596 -0.2955
  305SOL     OW10683   3.316   3.117   2.224 -0.8931  0.1409 -0.3691
  305SOL    HW110684   3.314   3.040   2.161  1.1659 -1.1435  1.0911
  305SOL    HW210685   3.307   3.084   2.318 -1.8708  1.8584  0.1749
  306SOL     OW10686   2.897   4.133   1.216  0.5303  0.2980 -0.4006
  306SOL    HW110687   2.868   4.050   1.167 -1.1615 -0.3381  1.6025
  306SOL    HW210688   2.819   4.194   1.228  0.9183  0.4401  1.4984
  308SOL     OW10689   2.143   7.046   1.150  0.0375  0.2391 -0.2489
  308SOL    HW110690   2.215   6.992   1.107  0.2499 -0.0195  0.4197
  308SOL    HW210691   2.182   7.098   1.226 -0.5443 -0.1690  0.3371
  309SOL     OW10692   2.686   7.229   1.107  0.4621 -0.2960  0.3604
  309SOL    HW110693   2.600   7.211   1.154  0.2081 -0.7270 -0.2682
  309SOL    HW210694   2.739   7.295   1.159 -0.6026  0.5800  0.3516
  311SOL     OW10695   4.556   3.379   0.837 -0.0266 -0.1860  0.4702
  311SOL    HW110696   4.505   3.407   0.919 -1.4281 -1.9842  0.2576
  311SOL    HW210697   4.615   3.301   0.859 -0.1754 -0.4809 -0.1481
  312SOL     OW10698   2.793   8.565   2.125 -0.1967  0.2439 -0.3631
  312SOL    HW110699   2.805   8.631   2.051 -0.9758  0.4421 -0.3122
  312SOL    HW210700   2.700   8.529   2.123 -0.7987  1.6324  1.6587
  314SOL     OW10701   2.882   8.184   1.078  0.4935  0.2976 -0.1251
  314SOL    HW110702   2.969   8.162   1.032  1.8861  1.5125  1.8598
  314SOL    HW210703   2.845   8.268   1.040  1.4845  1.1342  0.7320
  316SOL     OW10704   2.459   8.778   1.459  0.1989 -0.4920  0.1032
  316SOL    HW110705   2.493   8.721   1.534 -0.4938 -1.2515 -0.1518
  316SOL    HW210706   2.529   8.784   1.387  0.5712 -0.3776  0.4745
  318SOL     OW10707   3.270   9.573   1.985  0.3425  0.3595 -0.3274
  318SOL    HW110708   3.214   9.650   2.016  1.3112 -0.1258  2.8324
  318SOL    HW210709   3.316   9.532   2.063  0.9967 -2.5542 -2.1501
  319SOL     OW10710   9.519   5.027   2.260  0.4220  0.3117  0.5052
  319SOL    HW110711   9.611   5.060   2.284  0.2198  2.0151 -0.9330
  319SOL    HW210712   9.496   5.058   2.168 -1.4416 -0.4620  0.6930
  320SOL     OW10713   2.871   2.037   1.213 -0.4060 -0.1097  0.1727
  320SOL    HW110714   2.815   2.024   1.131 -0.5091  0.2749  0.1838
  320SOL    HW210715   2.868   2.133   1.241 -0.4867 -0.2679  0.7114
  321SOL     OW10716   2.547   1.994   1.949  0.2455 -0.1215 -0.1717
  321SOL    HW110717   2.515   1.995   2.044  0.0615  0.0028 -0.2337
  321SOL    HW210718   2.550   1.900   1.916  0.2483 -0.1605 -0.0619
  322SOL     OW10719   4.089   3.622   0.386 -0.1276  0.1854 -0.0250
  322SOL    HW110720   4.082   3.719   0.363  1.9968  0.0907 -1.2278
  322SOL    HW210721   4.093   3.612   0.486 -0.3227  1.3400  0.1053
  323SOL     OW10722   4.911   3.704   0.590 -0.1595 -0.1588  0.1704
  323SOL    HW110723   4.912   3.648   0.507 -1.0955 -0.9169  0.6573
  323SOL    HW210724   4.962   3.788   0.574  2.6091 -1.8346 -0.0622
  324SOL     OW10725   2.496   5.847   2.353 -0.2586  0.0081 -0.3461
  324SOL    HW110726   2.556   5.832   2.274  0.9705 -0.2760  0.6121
  324SOL    HW210727   2.424   5.778   2.354 -1.6479  1.3764 -2.4528
  325SOL     OW10728   0.359   5.114   0.712 -0.1059  0.1790 -0.4642
  325SOL    HW110729   0.429   5.152   0.651 -0.2330  0.1900 -0.6036
  325SOL    HW210730   0.278   5.092   0.659 -0.1766  0.0843 -0.3157
  328SOL     OW10731   4.175   8.880   0.858 -0.2424  0.1787 -0.7234
  328SOL    HW110732   4.211   8.943   0.788 -1.6862  0.7876 -0.9354
  328SOL    HW210733   4.079   8.900   0.874 -0.3389 -1.0461  0.2718
  329SOL     OW10734   2.252   8.500   0.442 -0.7283  0.4388 -0.4983
  329SOL    HW110735   2.227   8.594   0.463  1.0181  0.8600 -0.1671
  329SOL    HW210736   2.297   8.459   0.522  0.6254  0.0977 -1.4151
  330SOL     OW10737   2.665   5.332   1.998  0.1631 -0.3407  0.4377
  330SOL    HW110738   2.658   5.247   2.052  1.1129  0.0169  1.1382
  330SOL    HW210739   2.615   5.405   2.045 -1.0728 -0.6178 -0.4146
  331SOL     OW10740   4.700   4.683   0.529 -0.3153 -0.2613  0.3762
  331SOL    HW110741   4.617   4.659   0.579 -1.1344 -1.3065 -1.4427
  331SOL    HW210742   4.728   4.606   0.472  2.5463 -0.3160  1.7757
  334SOL     OW10743   1.822   3.801   0.463 -0.5020  0.6161  0.3173
  334SOL    HW110744   1.790   3.818   0.370 -1.6433  0.1831  0.6192
  334SOL    HW210745   1.771   3.859   0.527 -0.2603  0.3617  0.7478
  335SOL     OW10746   2.944   4.893   2.270  0.0999  0.1028 -0.0893
  335SOL    HW110747   2.864   4.945   2.240  0.7940  1.9839  1.1973
  335SOL    HW210748   2.991   4.944   2.343  2.0066 -1.3560 -0.2688
  336SOL     OW10749   1.057   4.328   1.392  0.2844  0.1015  0.2154
  336SOL    HW110750   0.968   4.370   1.375 -0.3251 -1.0155  0.5745
  336SOL    HW210751   1.044   4.234   1.423  1.6631 -0.8823 -2.0431
  339SOL     OW10752   4.634   2.326   2.055 -0.9724 -0.5389  0.2480
  339SOL    HW110753   4.574   2.345   1.977  1.1583 -0.5768 -1.4227
  339SOL    HW210754   4.633   2.405   2.117  0.6626  1.3190 -2.0111
  340SOL     OW10755   2.574   6.048   2.037  0.3440  0.7615 -0.0732
  340SOL    HW110756   2.600   5.952   2.033  2.1446  1.0840  2.7414
  340SOL    HW210757   2.476   6.055   2.054 -0.0871 -0.5459 -1.8939
  341SOL     OW10758   4.677   3.168   2.347  0.0887  0.5866  0.2136
  341SOL    HW110759   4.627   3.255   2.352 -0.3122  0.2861  1.6986
  341SOL    HW210760   4.686   3.130   2.439 -0.8956 -1.5898 -0.5478
  342SOL     OW10761   3.865   0.145   0.347 -0.0611 -0.0118  0.1823
  342SOL    HW110762   3.777   0.167   0.389 -0.1073 -0.8538  0.5511
  342SOL    HW210763   3.855   0.143   0.248 -0.8427 -1.5981  0.2724
  343SOL     OW10764   2.632   5.754   2.097  0.1477 -0.0912  0.1957
  343SOL    HW110765   2.562   5.699   2.053 -0.0412 -1.2148  1.8526
  343SOL    HW210766   2.713   5.697   2.114  1.3558  1.0920 -1.3657
  345SOL     OW10767   3.392   7.999   1.285  0.0570  0.2282  0.1872
  345SOL    HW110768   3.313   7.945   1.255  1.9942 -1.4054 -2.1504
  345SOL    HW210769   3.377   8.031   1.379 -2.9394 -0.8725  0.1261
  347SOL     OW10770   2.101   5.248   1.045  0.2902  0.0383 -0.1597
  347SOL    HW110771   2.026   5.230   1.109 -0.0616 -2.6217 -1.2514
  347SOL    HW210772   2.177   5.291   1.093 -0.0760 -1.6611  1.9923
  348SOL     OW10773   2.185   4.266   0.513  0.6646 -0.8335  0.3029
  348SOL    HW110774   2.212   4.338   0.450 -0.5411 -0.0668  0.6548
  348SOL    HW210775   2.089   4.243   0.499  1.1949 -2.8098 -0.2276
  349SOL     OW10776   1.623   3.182   0.674  0.1317  0.2035 -0.0162
  349SOL    HW110777   1.664   3.180   0.583  0.8972 -4.6943  0.2670
  349SOL    HW210778   1.689   3.144   0.740 -3.0302 -3.5395  1.2018
  350SOL     OW10779   9.785   5.338   1.351  0.2259 -0.2432 -0.4095
  350SOL    HW110780   9.737   5.359   1.266 -1.0859  3.3752  1.0933
  350SOL    HW210781   9.727   5.279   1.408 -0.5745  0.5171 -0.4223
  351SOL     OW10782   1.480   5.591   1.472 -0.2562  0.8414  0.7945
  351SOL    HW110783   1.418   5.573   1.548  0.2110 -1.8591  0.5626
  351SOL    HW210784   1.456   5.534   1.394 -0.4835  3.2915 -1.0167
  352SOL     OW10785   1.474   3.085   1.639 -0.9614 -0.8296 -0.4731
  352SOL    HW110786   1.472   3.009   1.703 -0.8750 -0.4733 -0.0453
  352SOL    HW210787   1.480   3.050   1.545  0.1215 -1.3245 -0.2265
  353SOL     OW10788   4.091   3.532   0.635  0.5076 -0.6035  0.4450
  353SOL    HW110789   4.028   3.465   0.673 -0.5995 -0.1665 -0.6023
  353SOL    HW210790   4.184   3.497   0.640  0.1125 -1.5469  1.3519
  354SOL     OW10791   1.554   4.917   1.257 -0.3115 -0.0700  0.1237
  354SOL    HW110792   1.573   4.878   1.347 -1.3195 -0.0242  0.3699
  354SOL    HW210793   1.457   4.939   1.251 -0.2993 -0.3052 -1.0673
  355SOL     OW10794   1.931   6.778   0.394 -0.2697 -0.1544  0.6496
  355SOL    HW110795   1.922   6.877   0.410  0.6372 -0.0632  0.6370
  355SOL    HW210796   1.842   6.739   0.371 -0.3857  0.9117 -0.7643
  358SOL     OW10797   1.214   5.919   1.348  0.1854  0.3629  0.1855
  358SOL    HW110798   1.145   5.859   1.307  0.6557  0.1982 -0.3784
  358SOL    HW210799   1.169   5.998   1.390 -0.2709  0.7842 -1.0763
  361SOL     OW10800   2.329   1.430   2.283 -0.1975 -0.1222 -0.2502
  361SOL    HW110801   2.285   1.353   2.237  0.3013  0.0542 -1.0440
  361SOL    HW210802   2.393   1.397   2.352 -0.2679 -0.4094 -0.3231
  362SOL     OW10803   9.139   4.966   0.927 -0.0624  0.6288  0.0547
  362SOL    HW110804   9.223   4.971   0.872  1.4132 -2.5012  1.9063
  362SOL    HW210805   9.060   4.953   0.867  0.8798  2.4450 -1.6317
  363SOL     OW10806   9.467   4.480   0.465 -0.5366 -0.1699 -0.8372
  363SOL    HW110807   9.461   4.507   0.561 -1.0644 -1.5901 -0.4669
  363SOL    HW210808   9.490   4.560   0.410  0.1291  0.5890  0.5055
  365SOL     OW10809   2.178   1.857   2.115 -0.3005 -0.2423 -0.1565
  365SOL    HW110810   2.205   1.769   2.075  0.5892 -1.6403  3.3233
  365SOL    HW210811   2.108   1.842   2.185 -0.6162  1.9067  0.0247
  366SOL     OW10812   4.096   8.449   1.004  0.1178  0.3859  0.7253
  366SOL    HW110813   4.158   8.394   1.059  0.2474 -0.9384 -0.7142
  366SOL    HW210814   4.001   8.421   1.023  0.1773 -0.2660  0.0816
  367SOL     OW10815   3.424   5.453   0.431 -0.0766  0.4315  0.4939
  367SOL    HW110816   3.346   5.451   0.494 -1.0045  0.8196 -0.6302
  367SOL    HW210817   3.392   5.471   0.338  1.0538 -2.2510 -0.4754
  368SOL     OW10818   4.866   4.486   1.189  0.2478  0.7996 -0.5098
  368SOL    HW110819   4.774   4.448   1.189 -0.3170  2.1265 -0.1303
  368SOL    HW210820   4.864   4.577   1.231  1.8148  0.6312 -0.0418
  370SOL     OW10821   2.453   2.004   2.194 -0.5669  0.0268  0.2168
  370SOL    HW110822   2.475   1.936   2.264 -1.2925 -0.0899  0.3322
  370SOL    HW210823   2.389   2.071   2.231 -0.2185  0.5078 -0.0453
  371SOL     OW10824   2.831   6.953   1.397  0.3037 -0.5651 -0.0969
  371SOL    HW110825   2.834   6.915   1.304 -1.2144  1.0585 -0.8432
  371SOL    HW210826   2.875   7.043   1.398  0.4829 -0.6578  0.7885
  373SOL     OW10827   8.791   5.121   0.617  0.2794  0.5189  0.7414
  373SOL    HW110828   8.816   5.027   0.642 -1.0248  0.8366  3.3997
  373SOL    HW210829   8.873   5.178   0.617  0.7872 -0.1961  1.0925
  376SOL     OW10830   2.396   6.084   1.175 -0.6576 -0.0121  0.0168
  376SOL    HW110831   2.433   6.053   1.262 -0.6231  0.1611  0.0636
  376SOL    HW210832   2.470   6.096   1.109 -0.5914  0.6504  0.2067
  378SOL     OW10833   0.865   5.557   1.677  0.1031  0.4030  0.1728
  378SOL    HW110834   0.875   5.543   1.776 -0.3652  0.7351  0.2676
  378SOL    HW210835   0.897   5.649   1.653 -0.9351  0.7728  0.1976
  379SOL     OW10836   3.884   4.909   2.040  0.4428 -0.5294 -0.1979
  379SOL    HW110837   3.892   4.968   1.960 -1.6474 -0.8357 -0.6472
  379SOL    HW210838   3.818   4.948   2.104 -0.3194 -1.9470 -0.1091
  380SOL     OW10839   2.536   5.251   1.072 -0.1712 -0.6358 -0.0260
  380SOL    HW110840   2.584   5.234   1.158 -1.8161  1.6491  1.3824
  380SOL    HW210841   2.458   5.311   1.088 -1.0682 -0.9187 -2.9779
  381SOL     OW10842   3.021   2.780   0.433  0.1576  0.2554  0.3968
  381SOL    HW110843   2.991   2.702   0.488 -1.5548 -0.3572 -1.3428
  381SOL    HW210844   2.960   2.857   0.449 -1.4831 -0.5026 -1.9874
  382SOL     OW10845   4.702   4.431   0.412 -0.1913  0.5937  0.0496
  382SOL    HW110846   4.723   4.490   0.334 -1.1209  1.0407  0.1280
  382SOL    HW210847   4.755   4.346   0.405  0.3899  1.0050 -0.6016
  383SOL     OW10848   1.650   3.936   1.917  0.9043  0.7643  0.0055
  383SOL    HW110849   1.655   3.999   1.840 -3.0138 -1.3791 -2.1640
  383SOL    HW210850   1.592   3.975   1.988 -0.1866  0.2984 -0.6287
  384SOL     OW10851   2.159   4.448   2.333  0.0246 -0.2904 -0.8191
  384SOL    HW110852   2.121   4.379   2.271  0.9471 -0.8359 -0.7908
  384SOL    HW210853   2.162   4.411   2.425  0.6019 -0.2451 -0.8182
  386SOL     OW10854   0.121   5.001   1.665 -0.2126  0.0376  0.2521
  386SOL    HW110855   0.070   4.941   1.727 -1.2353 -0.6158 -1.1764
  386SOL    HW210856   0.136   4.953   1.578  2.0398  0.5770  0.3155
  387SOL     OW10857   2.022   4.398   0.955 -0.1182 -0.1381  0.0967
  387SOL    HW110858   1.954   4.464   0.987  0.5612  1.1439 -1.0251
  387SOL    HW210859   2.047   4.337   1.029 -3.0503 -1.1307  0.3340
  388SOL     OW10860   1.620   6.312   0.768 -0.9421  0.3084  0.2808
  388SOL    HW110861   1.555   6.308   0.843 -0.9813 -0.7149  0.2060
  388SOL    HW210862   1.704   6.264   0.794 -1.0762 -0.3344 -0.4306
  389SOL     OW10863   4.562   4.040   2.289 -0.1750 -0.4219  0.0481
  389SOL    HW110864   4.559   3.955   2.342 -0.2780 -0.1841  0.4228
  389SOL    HW210865   4.657   4.066   2.271 -0.1456 -0.9475 -0.6017
  390SOL     OW10866   2.014   5.493   0.582  0.2453 -0.0024 -0.2113
  390SOL    HW110867   1.968   5.572   0.541  1.5436  0.2355 -1.2168
  390SOL    HW210868   2.091   5.525   0.637  1.0816 -0.5985 -1.0306
  391SOL     OW10869   1.850   4.900   1.214  0.0383  0.2194  0.3313
  391SOL    HW110870   1.853   4.900   1.114  0.0583 -0.1258  0.3299
  391SOL    HW210871   1.755   4.907   1.244 -0.0133 -0.2190  0.2810
  392SOL     OW10872   1.621   6.686   2.087 -0.1179 -0.3289  0.0504
  392SOL    HW110873   1.627   6.767   2.146 -0.0237 -0.6623  0.5024
  392SOL    HW210874   1.525   6.670   2.063 -0.0173  0.5936 -0.9923
  393SOL     OW10875   3.244   2.573   1.753  0.1515 -0.7146  0.2096
  393SOL    HW110876   3.277   2.597   1.844 -0.7789  0.9085  0.1443
  393SOL    HW210877   3.310   2.603   1.684 -0.4844  0.6859  0.1951
  395SOL     OW10878   0.788   4.846   0.524  0.2489 -1.0750  0.7577
  395SOL    HW110879   0.858   4.842   0.452 -0.3973  0.9431 -0.0058
  395SOL    HW210880   0.833   4.856   0.613  0.9326  1.9238  0.1231
  396SOL     OW10881   1.834   6.968   0.691  0.1155 -0.4201  0.1148
  396SOL    HW110882   1.838   7.067   0.702  0.5090 -0.3536 -0.6241
  396SOL    HW210883   1.896   6.925   0.757  0.0004 -0.1686  0.3848
  397SOL     OW10884   2.706   8.174   0.424  0.6025 -0.0827  0.2195
  397SOL    HW110885   2.648   8.168   0.343 -0.1561 -1.0908  0.8259
  397SOL    HW210886   2.766   8.254   0.416  2.2728 -1.5079 -2.4795
  398SOL     OW10887   2.702   4.686   0.355  0.2400 -0.0986 -0.2308
  398SOL    HW110888   2.766   4.630   0.303 -1.3855 -1.6426 -0.5891
  398SOL    HW210889   2.717   4.671   0.453 -0.6966 -1.7665 -0.3302
  399SOL     OW10890   2.860   4.121   2.358 -0.3138 -0.6390  0.0431
  399SOL    HW110891   2.946   4.071   2.370 -1.5667 -2.3723  2.2113
  399SOL    HW210892   2.799   4.101   2.434 -1.8516  2.2666 -0.3424
  401SOL     OW10893   3.591   9.453   2.161  0.5414  0.3281  0.7312
  401SOL    HW110894   3.547   9.542   2.166  1.6937  0.9232  0.4660
  401SOL    HW210895   3.685   9.460   2.196 -0.0790 -1.2660  2.7998
  402SOL     OW10896   4.819   2.829   1.378  0.2042 -0.8439  0.6019
  402SOL    HW110897   4.914   2.838   1.409  0.4144  0.7505 -0.4626
  402SOL    HW210898   4.771   2.915   1.392 -0.5340 -1.0331 -0.6836
  404SOL     OW10899   2.533   4.213   1.133  0.9834 -0.2597  0.5934
  404SOL    HW110900   2.560   4.183   1.041  2.6036  1.1885  0.5707
  404SOL    HW210901   2.457   4.156   1.165  0.0815 -0.5016 -1.8213
  407SOL     OW10902   2.370   9.114   1.680 -0.4664  0.4883 -0.2397
  407SOL    HW110903   2.417   9.025   1.682  0.2678  0.8883  1.3708
  407SOL    HW210904   2.271   9.099   1.680 -0.3483 -0.3434 -1.6562
  408SOL     OW10905   4.120   5.085   1.762  0.0656  0.2158  0.8332
  408SOL    HW110906   4.208   5.052   1.796  0.6548  0.4517 -0.4484
  408SOL    HW210907   4.115   5.071   1.663 -0.4870  2.1235  0.5752
  409SOL     OW10908   3.019   6.886   2.363 -0.6879 -0.0936 -0.6283
  409SOL    HW110909   3.107   6.932   2.355  0.6759 -2.6785 -1.1637
  409SOL    HW210910   3.018   6.832   2.448 -1.9486  0.3261 -0.3727
  410SOL     OW10911   2.707   1.928   1.017  0.4235  0.5866  0.2180
  410SOL    HW110912   2.736   1.927   0.921 -0.8114  0.5112 -0.1732
  410SOL    HW210913   2.667   1.840   1.040  0.9722  0.5159  0.8797
  412SOL     OW10914   4.301   3.571   1.857  0.1289  0.4067 -0.0251
  412SOL    HW110915   4.301   3.650   1.918  0.8558  0.0625  0.4322
  412SOL    HW210916   4.387   3.521   1.868 -0.0081 -0.0145 -0.8717
  413SOL     OW10917   3.139   7.480   1.795 -0.0512  0.5531 -0.6751
  413SOL    HW110918   3.193   7.422   1.734 -0.1270  2.0910 -2.2501
  413SOL    HW210919   3.074   7.533   1.741 -0.7693  1.2657  0.8603
  414SOL     OW10920   3.002   2.095   0.819  0.2748 -0.0589 -0.2163
  414SOL    HW110921   2.971   2.181   0.859  0.5097 -0.1514  0.1761
  414SOL    HW210922   3.093   2.073   0.855  0.4636 -0.1718 -0.7711
  415SOL     OW10923   4.081   0.040   1.757  0.1411  0.5901  0.3821
  415SOL    HW110924   4.050   0.070   1.667  2.9115 -1.7831 -1.4613
  415SOL    HW210925   4.063  -0.057   1.768 -0.5943  0.9498  2.6192
  416SOL     OW10926   2.475   1.164   0.430 -0.4121 -0.0321 -0.3817
  416SOL    HW110927   2.451   1.069   0.409 -1.4568  0.3924 -1.1553
  416SOL    HW210928   2.519   1.206   0.350  0.2277  0.0790  0.0251
  418SOL     OW10929   3.518   3.378   1.095  0.0790  0.3494  0.0311
  418SOL    HW110930   3.519   3.309   1.022  0.1709  0.2537  0.1233
  418SOL    HW210931   3.498   3.468   1.055 -0.7108  0.1672 -0.0058
  422SOL     OW10932   1.495   4.308   0.493  0.4351 -0.4639 -0.0694
  422SOL    HW110933   1.467   4.212   0.499  1.8252 -0.8151  0.8214
  422SOL    HW210934   1.550   4.322   0.410 -1.0031 -0.1033 -0.9872
  423SOL     OW10935   4.579   1.414   1.309 -0.2999 -0.4977  0.2309
  423SOL    HW110936   4.574   1.434   1.407  3.0039  0.3084  0.2965
  423SOL    HW210937   4.629   1.329   1.294  3.0483  1.5876 -0.8826
  424SOL     OW10938   3.871   8.522   2.225 -0.2989  0.0463  0.5740
  424SOL    HW110939   3.873   8.431   2.266 -2.3273  0.0928  0.8342
  424SOL    HW210940   3.847   8.514   2.128 -1.9832  0.4002  0.9542
  425SOL     OW10941   2.406   4.927   1.874  0.3133  0.4761 -0.1081
  425SOL    HW110942   2.487   4.926   1.815  0.6028  1.5821  0.2686
  425SOL    HW210943   2.324   4.922   1.817  0.5721  2.2491 -0.6673
  426SOL     OW10944   2.823   3.527   1.119 -0.5912 -0.7901  0.1025
  426SOL    HW110945   2.779   3.612   1.149  0.8926  0.3209 -0.7959
  426SOL    HW210946   2.885   3.494   1.191 -1.4020 -1.2886  0.5770
  427SOL     OW10947   3.185   0.400   0.758 -0.0151  0.1397  0.1038
  427SOL    HW110948   3.129   0.475   0.721  1.3505  0.7305 -0.8192
  427SOL    HW210949   3.139   0.360   0.836 -1.5028  0.9421 -0.3328
  428SOL     OW10950   3.097   8.897   2.011 -0.2886  0.1548  0.0525
  428SOL    HW110951   3.156   8.821   2.038 -0.3246 -0.3911 -1.3856
  428SOL    HW210952   3.064   8.944   2.093  1.6403  0.0900  0.9016
  429SOL     OW10953   4.000   0.200   0.943 -0.2325  0.1040  0.9361
  429SOL    HW110954   4.039   0.235   0.858 -2.2586  2.0322  0.7396
  429SOL    HW210955   3.925   0.137   0.922 -1.5562  1.5413  1.2469
  435SOL     OW10956   9.877   4.628   1.720 -0.2778  0.8353  0.0393
  435SOL    HW110957   9.813   4.573   1.774 -0.9754  2.4643  0.8933
  435SOL    HW210958   9.920   4.569   1.651 -2.3289 -0.3996 -0.2576
  436SOL     OW10959   2.604   2.347   1.465  0.0974 -0.0340  0.4445
  436SOL    HW110960   2.550   2.361   1.547 -2.9148  1.0999 -1.6472
  436SOL    HW210961   2.624   2.249   1.454  0.3622 -0.2056  2.3815
  437SOL     OW10962   2.539   8.614   1.683  0.1155 -0.0152 -0.0197
  437SOL    HW110963   2.518   8.707   1.714  2.9154 -0.0676  2.2789
  437SOL    HW210964   2.525   8.550   1.758  1.7650 -0.9219 -0.4712
  438SOL     OW10965   4.917   1.830   1.807  0.1117  0.2062  0.0848
  438SOL    HW110966   4.948   1.924   1.793  1.2901 -0.1849 -0.0252
  438SOL    HW210967   4.817   1.827   1.810 -0.0068  1.1570 -2.1067
  439SOL     OW10968   1.208   6.197   0.933  0.3681 -0.2926  0.1882
  439SOL    HW110969   1.253   6.205   1.022 -2.0115  0.8736  1.3351
  439SOL    HW210970   1.192   6.289   0.896  0.8229 -0.7566 -1.1728
  440SOL     OW10971   4.412   4.040   1.741  0.2642  0.2670  0.4240
  440SOL    HW110972   4.476   4.090   1.798  0.7565  0.1697 -0.0390
  440SOL    HW210973   4.400   4.089   1.654 -0.0723  0.1423  0.3988
  441SOL     OW10974   5.050   3.325   1.606  0.2446 -0.3028 -0.3350
  441SOL    HW110975   5.083   3.419   1.616  0.9678 -0.5198 -0.6170
  441SOL    HW210976   4.979   3.322   1.536  0.2807  0.0231 -0.3855
  442SOL     OW10977   4.227   0.635   2.299  0.4900  0.1094  0.0617
  442SOL    HW110978   4.161   0.594   2.235  1.9003 -1.8066 -0.2103
  442SOL    HW210979   4.217   0.734   2.298 -2.0506 -0.1089 -0.3443
  443SOL     OW10980   3.282   2.936   0.467  0.8062 -0.4077 -0.7156
  443SOL    HW110981   3.349   2.896   0.530 -0.3891 -0.3631  0.5866
  443SOL    HW210982   3.209   2.870   0.449 -1.8690  1.5445  2.4584
  444SOL     OW10983   1.919   3.992   0.981 -0.4702 -0.3603  0.1647
  444SOL    HW110984   2.000   4.045   0.958 -1.2457  0.9922  0.4844
  444SOL    HW210985   1.946   3.912   1.035  0.8527 -1.0575 -1.4860
  445SOL     OW10986   4.168   1.993   1.424  0.1850 -0.0827 -0.4737
  445SOL    HW110987   4.069   2.003   1.423 -0.0697 -2.3865 -3.0063
  445SOL    HW210988   4.194   1.910   1.374  3.3168 -0.1619  1.1634
  446SOL     OW10989   3.754   1.610   1.383  0.0652  0.0593  0.2789
  446SOL    HW110990   3.740   1.670   1.461 -2.6235 -0.1671  0.0519
  446SOL    HW210991   3.789   1.521   1.414  0.3557  0.4471  1.0511
  447SOL     OW10992   1.740   5.889   1.580 -0.6198 -0.2138  0.7395
  447SOL    HW110993   1.655   5.939   1.564 -1.5014 -1.6878  0.7630
  447SOL    HW210994   1.741   5.806   1.524  1.3245  0.3777 -0.1395
  449SOL     OW10995   1.239   5.343   1.813 -0.1303  0.2083 -0.2609
  449SOL    HW110996   1.238   5.356   1.912 -2.2816  0.9272 -0.3532
  449SOL    HW210997   1.219   5.247   1.791  0.5139  0.0126 -0.0060
  450SOL     OW10998   4.727   3.605   0.796  0.4462  0.6117 -0.2373
  450SOL    HW110999   4.667   3.525   0.788 -0.5830  1.3765 -0.2507
  450SOL    HW211000   4.782   3.614   0.713  1.7380 -1.0083  0.4194
  451SOL     OW11001   2.928   7.767   2.315  0.4728  0.2757  0.0355
  451SOL    HW111002   2.948   7.785   2.219  0.2490 -0.0809 -0.0762
  451SOL    HW211003   2.917   7.854   2.363 -1.9760  0.4614 -0.7894
  452SOL     OW11004   2.059   5.470   1.639  0.7333 -0.4165 -0.3934
  452SOL    HW111005   1.967   5.498   1.611  1.2406 -0.4009 -2.1103
  452SOL    HW211006   2.064   5.467   1.739 -0.7187  0.9784 -0.2528
  454SOL     OW11007   1.820   3.704   1.719 -0.1707 -0.3429 -0.0074
  454SOL    HW111008   1.855   3.716   1.812  0.6068  3.0188 -0.6520
  454SOL    HW211009   1.720   3.708   1.720 -0.0767  3.0771  0.3355
  455SOL     OW11010   3.018   6.732   1.012 -0.0364  0.0341 -0.7913
  455SOL    HW111011   2.988   6.819   0.972 -1.6410 -0.4940 -0.7618
  455SOL    HW211012   3.112   6.742   1.044 -0.1615  1.7520 -0.8622
  456SOL     OW11013   3.355   0.043   0.901  0.7841 -0.3589  0.4141
  456SOL    HW111014   3.310  -0.035   0.946  1.0139  0.4435  2.0703
  456SOL    HW211015   3.285   0.104   0.864  0.4469  1.0034  3.1861
  457SOL     OW11016   3.027   9.188   2.090 -0.3675 -0.4141  0.4281
  457SOL    HW111017   3.063   9.267   2.040 -0.3958 -0.6285  0.0671
  457SOL    HW211018   2.933   9.171   2.061 -0.3356 -0.6302  0.4495
  458SOL     OW11019   2.774   4.050   1.784  0.2160 -0.0494 -0.0818
  458SOL    HW111020   2.860   4.000   1.795  0.1664 -0.5701 -1.9460
  458SOL    HW211021   2.713   3.999   1.723 -0.6379  1.2916 -0.3692
  460SOL     OW11022   1.880   4.267   1.383  0.4151 -0.0014  0.0381
  460SOL    HW111023   1.794   4.289   1.337  0.5976  0.2543 -0.1817
  460SOL    HW211024   1.864   4.196   1.452  0.2926 -0.9613 -0.9776
  462SOL     OW11025   0.817   5.402   0.811 -1.0693  0.0399  0.3481
  462SOL    HW111026   0.864   5.318   0.784 -2.0438 -0.2754 -0.3963
  462SOL    HW211027   0.882   5.478   0.811 -0.6864 -0.2727 -1.2625
  463SOL     OW11028   9.901   5.022   1.349  0.4879 -0.2676  0.1034
  463SOL    HW111029   9.963   5.036   1.426 -0.4548  1.1911  0.6262
  463SOL    HW211030   9.810   5.056   1.373  0.1429  0.0803 -1.5988
  465SOL     OW11031   0.326   5.553   0.543  0.7833 -0.1276  0.1259
  465SOL    HW111032   0.233   5.581   0.566  1.3353  0.2743  1.9046
  465SOL    HW211033   0.326   5.458   0.513 -0.1623 -0.2153  0.3922
  466SOL     OW11034   3.581   0.067   0.723  0.5470  0.4946 -0.1176
  466SOL    HW111035   3.558   0.059   0.626  0.3702  0.5808 -0.0822
  466SOL    HW211036   3.498   0.060   0.778  0.9335 -2.3499  0.1938
  467SOL     OW11037   4.379   1.722   1.914 -0.2013 -0.0591  0.1215
  467SOL    HW111038   4.344   1.666   1.989 -0.8020  1.6749  1.1657
  467SOL    HW211039   4.356   1.818   1.931 -0.0876  0.3903 -2.1439
  468SOL     OW11040   3.126   2.331   0.566  0.1831  0.1260 -0.2272
  468SOL    HW111041   3.143   2.398   0.494 -1.8404  1.5660  0.6093
  468SOL    HW211042   3.198   2.337   0.636  0.2697  1.0708 -0.3992
  469SOL     OW11043   4.514   4.919   2.221 -0.1513  0.0092 -1.0049
  469SOL    HW111044   4.568   4.908   2.138 -1.1895  0.1460 -1.7038
  469SOL    HW211045   4.502   4.829   2.265  2.5342  0.2695  0.3884
  470SOL     OW11046   5.166   3.247   1.234  0.2481  0.1022  0.0881
  470SOL    HW111047   5.142   3.201   1.320  1.3913  0.6472  0.7084
  470SOL    HW211048   5.196   3.341   1.253  2.1765 -0.3165 -0.7027
  471SOL     OW11049   2.521   8.564   1.216  0.2297 -0.2437 -0.2378
  471SOL    HW111050   2.567   8.620   1.285  2.3805 -0.1603 -1.6896
  471SOL    HW211051   2.473   8.623   1.151  0.0738 -0.2280 -0.1100
  472SOL     OW11052   3.215   0.027   2.041 -0.3460 -0.3489  0.2253
  472SOL    HW111053   3.224   0.105   1.979 -1.2230  1.2423  2.0488
  472SOL    HW211054   3.209   0.059   2.135  2.5696 -2.7772  1.3555
  473SOL     OW11055   2.412   2.584   2.363 -0.3913 -0.2126  0.3249
  473SOL    HW111056   2.419   2.486   2.379 -1.7324 -0.2702  0.6311
  473SOL    HW211057   2.449   2.606   2.273 -1.5161 -1.2243 -0.3971
  474SOL     OW11058   1.079   4.816   0.989 -0.4177  0.0407 -0.0549
  474SOL    HW111059   1.077   4.723   0.952  1.7790 -0.8342  1.9008
  474SOL    HW211060   1.171   4.837   1.020 -1.3248  2.1875  1.2745
  475SOL     OW11061   2.489   6.448   1.581 -0.5340  0.5747  0.2059
  475SOL    HW111062   2.402   6.464   1.627 -1.1869  1.3955 -1.2829
  475SOL    HW211063   2.564   6.467   1.644 -1.4248  1.5042  0.9892
  476SOL     OW11064   2.924   4.729   1.911  0.8858 -0.4440 -0.0121
  476SOL    HW111065   2.914   4.720   1.812  2.4316  1.2848 -0.3576
  476SOL    HW211066   2.986   4.658   1.945 -0.4117 -1.6504 -0.1145
  477SOL     OW11067   3.797   9.233   1.774  0.3979 -0.3119  0.0922
  477SOL    HW111068   3.851   9.228   1.690  1.2021 -0.1265  0.5935
  477SOL    HW211069   3.710   9.279   1.756  0.1618 -1.1312 -0.8476
  478SOL     OW11070   0.374   3.700   1.654 -0.6890 -0.9026 -0.1600
  478SOL    HW111071   0.285   3.656   1.642 -1.0282  0.0090 -1.1287
  478SOL    HW211072   0.370   3.793   1.616  0.9350 -1.1587 -1.0117
  479SOL     OW11073   3.934   0.285   0.677  0.2004 -0.0109  0.3302
  479SOL    HW111074   3.935   0.213   0.606  0.0683 -0.2617  0.5813
  479SOL    HW211075   3.960   0.372   0.636  0.0589 -0.1424 -0.0459
  480SOL     OW11076   2.879   4.296   1.907 -0.3801 -0.3596  0.1925
  480SOL    HW111077   2.814   4.354   1.956 -0.9510 -1.0720  0.3005
  480SOL    HW211078   2.830   4.216   1.870  0.5789 -1.3364  1.0010
  482SOL     OW11079   2.592   1.378   1.397 -0.3191  0.5026 -0.4318
  482SOL    HW111080   2.638   1.406   1.481  0.2186  0.5614 -0.7503
  482SOL    HW211081   2.507   1.330   1.421 -0.0770  0.3548  0.1509
  483SOL     OW11082   2.826   2.301   1.230 -0.6877 -0.4474  0.2459
  483SOL    HW111083   2.735   2.312   1.270  0.0496  0.5160  1.6997
  483SOL    HW211084   2.894   2.342   1.290  0.6804 -0.8235 -1.0149
  484SOL     OW11085   3.969   1.739   1.848 -0.4876  0.1875  0.5418
  484SOL    HW111086   4.049   1.696   1.807  0.4134  0.2746  2.1621
  484SOL    HW211087   3.969   1.723   1.947 -1.6824  1.4503  0.7692
  485SOL     OW11088   3.044   8.720   0.922 -0.3337  0.1796 -0.4891
  485SOL    HW111089   3.106   8.642   0.929  0.6123  1.0027  0.3604
  485SOL    HW211090   3.022   8.735   0.825  1.6951  0.5689 -0.9204
  486SOL     OW11091   3.789   4.795   0.701  0.3738  0.5253  0.6653
  486SOL    HW111092   3.887   4.775   0.693  0.5650  1.5773  0.3200
  486SOL    HW211093   3.770   4.885   0.662 -0.9798 -0.3207 -0.6586
  487SOL     OW11094   3.002   6.234   1.181 -0.0298 -0.1271 -0.1792
  487SOL    HW111095   3.002   6.261   1.277 -0.6753  0.1723 -0.2577
  487SOL    HW211096   3.033   6.310   1.125 -0.1054 -0.1435 -0.2445
  488SOL     OW11097   2.211   2.806   1.715  0.0867 -0.1682 -0.2467
  488SOL    HW111098   2.132   2.750   1.691 -0.2823  0.3835 -0.3328
  488SOL    HW211099   2.288   2.747   1.738 -0.4898 -0.7104  0.2942
  489SOL     OW11100   3.134   1.112   1.949  0.4282  0.4923 -0.1581
  489SOL    HW111101   3.118   1.021   1.987  1.1761  0.7034  0.6847
  489SOL    HW211102   3.086   1.121   1.862  1.7264 -1.3328 -1.1100
  490SOL     OW11103   9.130   4.148   1.865  0.8136 -0.6460  0.0782
  490SOL    HW111104   9.129   4.104   1.955  1.3461 -1.1917 -0.1779
  490SOL    HW211105   9.161   4.242   1.874  1.6469 -0.9409  0.3657
  492SOL     OW11106   1.636   5.186   1.308  0.2099  0.3218  0.2614
  492SOL    HW111107   1.629   5.246   1.228 -0.0286  0.9666  0.7600
  492SOL    HW211108   1.599   5.096   1.285  0.6401  0.3420 -0.5149
  493SOL     OW11109   4.283   2.990   0.409  0.7453 -0.4235  0.3252
  493SOL    HW111110   4.342   2.940   0.471 -0.7155  0.8248  2.8214
  493SOL    HW211111   4.276   3.085   0.439 -1.9025 -0.3600 -0.3208
  494SOL     OW11112   1.173   4.011   2.213 -0.2620 -0.2522  0.1310
  494SOL    HW111113   1.165   4.092   2.270  0.3414  1.0135 -1.5261
  494SOL    HW211114   1.084   3.966   2.205 -0.5861  0.2064  1.1225
  496SOL     OW11115   0.286   4.549   1.638 -0.3461  0.1864  0.1731
  496SOL    HW111116   0.333   4.621   1.689 -0.8600  0.4860  0.2233
  496SOL    HW211117   0.305   4.560   1.540 -0.8860  0.7263  0.1310
  497SOL     OW11118   4.141   2.989   1.773 -0.4107 -0.5876  0.1940
  497SOL    HW111119   4.183   2.985   1.863  1.3107  1.0249 -0.4881
  497SOL    HW211120   4.194   2.932   1.709 -1.2116 -1.1775  0.0533
  498SOL     OW11121   3.071   0.988   1.364  0.1991  0.8241 -1.4355
  498SOL    HW111122   3.038   1.023   1.276 -1.7041 -1.9170 -1.8606
  498SOL    HW211123   3.062   0.888   1.366  1.6260  0.7059  1.3078
  499SOL     OW11124   4.287   8.646   0.608  0.2097  0.5873  0.0079
  499SOL    HW111125   4.279   8.632   0.707  2.8866 -1.4047 -0.0081
  499SOL    HW211126   4.372   8.695   0.588  0.4554 -0.3669 -1.3919
  500SOL     OW11127   2.712   3.769   1.257 -0.1541 -0.3920 -0.1336
  500SOL    HW111128   2.667   3.825   1.327 -1.3327 -0.9462 -0.4405
  500SOL    HW211129   2.753   3.828   1.188  0.2136  0.1346  0.5223
  502SOL     OW11130   0.514   5.084   1.450 -1.0281  0.1024 -0.0716
  502SOL    HW111131   0.485   5.090   1.355 -0.5090  3.1303 -0.0987
  502SOL    HW211132   0.597   5.138   1.463 -2.5744  1.9308  2.6557
  503SOL     OW11133   2.715   4.634   1.741  0.3233 -0.2453  0.4346
  503SOL    HW111134   2.620   4.640   1.709  0.0572  1.6339  1.4905
  503SOL    HW211135   2.777   4.651   1.665 -0.1376 -2.1417 -0.4137
  504SOL     OW11136   0.359   5.073   1.224 -0.5132  0.5719 -0.3061
  504SOL    HW111137   0.434   5.085   1.159 -1.8024  1.7281 -1.6129
  504SOL    HW211138   0.272   5.092   1.179 -1.5807 -0.3983  1.2825
  505SOL     OW11139   3.879   9.227   1.065 -0.0724 -0.1581 -0.1220
  505SOL    HW111140   3.798   9.279   1.037  0.7508  0.8447 -0.6834
  505SOL    HW211141   3.955   9.290   1.080  1.3994 -1.3202 -2.3766
  507SOL     OW11142   2.948   5.638   0.518 -0.6488  0.3398 -0.3130
  507SOL    HW111143   2.888   5.666   0.592 -0.3221 -0.6758  0.3514
  507SOL    HW211144   2.900   5.645   0.431 -0.7381  2.3930 -0.1125
  510SOL     OW11145   3.151   4.597   0.737  0.4770  0.2588  0.0903
  510SOL    HW111146   3.069   4.630   0.783  1.0949 -0.9693  2.1519
  510SOL    HW211147   3.156   4.636   0.645 -2.9127 -0.4084 -0.4406
  511SOL     OW11148   3.846   8.307   1.037 -0.0800  0.5127  0.7892
  511SOL    HW111149   3.807   8.216   1.052 -0.7010  0.5092 -0.7879
  511SOL    HW211150   3.783   8.376   1.071 -1.1685  0.4816 -1.1546
  512SOL     OW11151   2.840   7.480   0.459 -0.0906 -0.3861 -0.2418
  512SOL    HW111152   2.754   7.433   0.441 -0.7484  0.5476  0.3734
  512SOL    HW211153   2.876   7.450   0.548  0.4986 -1.1711 -0.7415
  513SOL     OW11154   1.885   3.155   1.743 -0.3187  0.0546 -0.2343
  513SOL    HW111155   1.801   3.139   1.796 -0.4510  0.2222 -0.3918
  513SOL    HW211156   1.959   3.177   1.805 -0.6925  1.1680 -0.1791
  514SOL     OW11157   2.314   4.423   0.973  0.0393  0.0423 -0.0921
  514SOL    HW111158   2.354   4.341   0.932  0.3273 -0.5504  1.3528
  514SOL    HW211159   2.214   4.416   0.968  0.0127 -1.4310  1.9739
  515SOL     OW11160   3.836   8.581   1.943  0.5656  0.0392 -0.7194
  515SOL    HW111161   3.907   8.629   1.891  0.8912  1.6403  1.1440
  515SOL    HW211162   3.762   8.646   1.965 -0.1260 -0.9142 -0.2197
  519SOL     OW11163   0.578   4.790   2.200  0.1220 -0.4982 -0.4064
  519SOL    HW111164   0.670   4.756   2.181  0.0469 -1.7711  1.2755
  519SOL    HW211165   0.541   4.740   2.279 -0.9258  1.9165  0.6764
  520SOL     OW11166   3.544   0.086   1.883  0.0625  0.5656  0.0433
  520SOL    HW111167   3.635   0.115   1.852  0.0278  0.6034 -0.0220
  520SOL    HW211168   3.495   0.045   1.807  0.8604 -1.4875  0.5917
  521SOL     OW11169   3.327   6.308   1.391  0.1562 -0.5596  0.6721
  521SOL    HW111170   3.294   6.226   1.344  0.2346 -0.5876  0.6675
  521SOL    HW211171   3.320   6.387   1.330  3.1040 -1.1028 -0.4514
  523SOL     OW11172   3.709   4.184   1.946 -0.2291  0.2018 -0.0315
  523SOL    HW111173   3.643   4.154   2.014 -1.6631 -1.0197 -1.9107
  523SOL    HW211174   3.730   4.281   1.959 -4.0397  1.1794 -0.7143
  525SOL     OW11175   3.876   4.911   0.969  0.0655 -0.5301 -0.0035
  525SOL    HW111176   3.881   4.879   0.874  1.0580 -0.0317 -0.1269
  525SOL    HW211177   3.792   4.877   1.011 -0.3538 -0.8023 -1.0427
  527SOL     OW11178   9.682   4.561   1.903  0.3389 -0.1545  0.4926
  527SOL    HW111179   9.718   4.615   1.979 -0.5751  0.5009  0.4708
  527SOL    HW211180   9.626   4.487   1.938 -0.1046  0.1635  0.4647
  528SOL     OW11181   2.503   5.921   0.852 -0.5474 -0.2684  0.1858
  528SOL    HW111182   2.586   5.871   0.880 -1.1029 -1.2209  0.1593
  528SOL    HW211183   2.488   5.998   0.914 -1.0733 -1.6125  1.7594
  529SOL     OW11184   4.490   3.390   2.295  0.1435 -0.6828 -0.5181
  529SOL    HW111185   4.426   3.333   2.244  0.2278 -0.7826 -0.5127
  529SOL    HW211186   4.465   3.487   2.285 -0.2843 -0.7526 -0.1304
  530SOL     OW11187   3.356   4.273   1.429 -0.2280 -0.0059  0.6388
  530SOL    HW111188   3.290   4.247   1.498 -0.5946  1.4451  0.8329
  530SOL    HW211189   3.356   4.205   1.355 -1.9224 -0.0147  0.6404
  531SOL     OW11190   2.723   7.984   0.950 -0.4092 -0.6654 -0.1142
  531SOL    HW111191   2.773   8.054   1.000  0.9421 -1.5078 -0.2552
  531SOL    HW211192   2.698   8.018   0.860  0.1550 -0.3371 -0.1448
  533SOL     OW11193   2.756   0.298   1.368 -0.3795  0.0380  0.5807
  533SOL    HW111194   2.806   0.375   1.406 -0.4342  0.2287  0.2701
  533SOL    HW211195   2.739   0.230   1.440 -0.9959  0.6629  1.0251
  534SOL     OW11196   3.101   2.638   2.052  0.1061 -0.4287  0.8563
  534SOL    HW111197   3.015   2.675   2.016 -1.1633 -3.4241  0.6834
  534SOL    HW211198   3.081   2.568   2.120  2.4584 -0.5011  1.5252
  536SOL     OW11199   2.642   2.001   0.577  0.1196  0.4681  0.4884
  536SOL    HW111200   2.598   2.086   0.550  0.3954  0.5732  0.3714
  536SOL    HW211201   2.582   1.951   0.639  0.5764  1.4322  1.7218
  537SOL     OW11202   3.684   9.384   0.980 -0.0661 -0.0852  0.1570
  537SOL    HW111203   3.676   9.464   0.921 -0.0459  0.4463  0.8637
  537SOL    HW211204   3.665   9.410   1.075  1.7394 -0.5251  0.6725
  539SOL     OW11205   3.297   6.472   1.172 -0.0266 -0.1346 -0.7714
  539SOL    HW111206   3.222   6.430   1.120 -1.0599 -0.1897  0.7239
  539SOL    HW211207   3.328   6.555   1.125 -2.5062  1.1101 -0.3106
  540SOL     OW11208   4.643   1.841   1.809 -0.1858 -0.2026 -0.3001
  540SOL    HW111209   4.606   1.909   1.873 -0.5652 -0.4300 -0.2719
  540SOL    HW211210   4.593   1.755   1.821 -2.4399  0.6681 -3.1197
  541SOL     OW11211   2.583   3.224   0.892 -0.1317  0.2201  0.8900
  541SOL    HW111212   2.648   3.203   0.965 -0.1001 -1.7717  0.3308
  541SOL    HW211213   2.496   3.176   0.910 -0.9921  1.7878  0.9518
  543SOL     OW11214   3.182  -0.079   0.625 -0.2433  0.0731 -0.1738
  543SOL    HW111215   3.184  -0.135   0.708  0.0052 -0.7325 -0.7145
  543SOL    HW211216   3.183  -0.139   0.544  1.4949  0.8616 -0.7720
  544SOL     OW11217   2.338   5.311   1.465  0.3518 -0.3184 -0.5093
  544SOL    HW111218   2.274   5.358   1.526 -0.4832 -1.6492 -0.3551
  544SOL    HW211219   2.422   5.290   1.515 -0.2872 -1.3127  0.1531
  545SOL     OW11220   1.962   2.133   0.969  0.1184 -0.3800  0.1567
  545SOL    HW111221   2.044   2.108   0.918  0.1912 -0.0786  0.1253
  545SOL    HW211222   1.984   2.140   1.067 -0.2206 -1.8506  0.3548
  547SOL     OW11223   0.494   4.252   1.006 -0.1143  0.1209  0.0489
  547SOL    HW111224   0.415   4.296   0.963 -0.4513 -1.0750 -0.5660
  547SOL    HW211225   0.523   4.307   1.085 -0.8130  1.1964 -0.4298
  548SOL     OW11226   1.700   3.314   2.150 -0.1348  0.2116  0.5887
  548SOL    HW111227   1.639   3.375   2.099  1.7667  0.0965 -1.9151
  548SOL    HW211228   1.764   3.369   2.203 -0.9041  0.3378  1.4095
  549SOL     OW11229   5.123   2.438   0.409  0.2373 -0.0617  0.2822
  549SOL    HW111230   5.183   2.472   0.336  0.9112 -0.0796  0.8321
  549SOL    HW211231   5.140   2.341   0.424 -1.9006 -0.7622 -1.4962
  550SOL     OW11232   2.456   1.467   0.870  0.1419  0.4040 -0.2410
  550SOL    HW111233   2.440   1.510   0.781  0.2363 -0.1241 -0.5193
  550SOL    HW211234   2.471   1.369   0.857  0.6758  0.4090  0.3083
  551SOL     OW11235   2.728   3.738   2.305 -0.1682  0.3762  0.3443
  551SOL    HW111236   2.719   3.810   2.237 -0.7110  0.0162  0.0279
  551SOL    HW211237   2.751   3.652   2.259  0.8698  0.4184  0.7539
  552SOL     OW11238   0.125   4.590   2.358  0.0078  0.2550  0.1028
  552SOL    HW111239   0.189   4.514   2.362 -1.0830 -0.6857  0.0721
  552SOL    HW211240   0.083   4.593   2.267  2.1584  2.6879 -0.8795
  553SOL     OW11241   2.590   6.966   1.052  0.0027  0.4373  0.3034
  553SOL    HW111242   2.637   7.055   1.051 -0.9952  0.9877  1.2045
  553SOL    HW211243   2.657   6.894   1.069  0.5130  1.2228  1.7513
  554SOL     OW11244   9.697   5.698   1.891  0.0606 -0.4559 -0.0816
  554SOL    HW111245   9.715   5.712   1.794 -3.4985 -0.7925 -0.8308
  554SOL    HW211246   9.655   5.780   1.930  1.1411 -0.4484  1.1069
  556SOL     OW11247   3.991   8.157   1.286  0.3102 -0.4349  0.0273
  556SOL    HW111248   3.919   8.135   1.221  0.8564  0.3214 -0.8441
  556SOL    HW211249   3.957   8.144   1.379 -0.6768 -0.9037 -0.3953
  557SOL     OW11250   2.202   3.090   1.694 -0.3274  0.5747 -0.4839
  557SOL    HW111251   2.240   2.998   1.692 -0.2905  0.5764  0.2962
  557SOL    HW211252   2.103   3.086   1.700 -0.2163  0.5880  1.6467
  558SOL     OW11253   2.865   3.745   2.015 -0.1988  0.3246  0.1492
  558SOL    HW111254   2.889   3.661   2.065 -1.1198 -1.4030 -2.2219
  558SOL    HW211255   2.934   3.815   2.033  1.3472 -1.3943  1.0934
  559SOL     OW11256   3.245   0.142   2.313 -0.8090  0.3705  0.0222
  559SOL    HW111257   3.259   0.057   2.364 -3.0866  0.3650  0.7062
  559SOL    HW211258   3.269   0.220   2.370  0.3896  0.2350 -0.2824
  560SOL     OW11259   1.377   4.996   1.650  0.0452 -0.2187  0.2297
  560SOL    HW111260   1.438   5.035   1.720 -1.3983  1.3281  0.6602
  560SOL    HW211261   1.357   4.901   1.674  1.4464 -0.4300  0.6401
  562SOL     OW11262   3.478   2.650   1.516  0.1526  0.1337 -0.7562
  562SOL    HW111263   3.560   2.676   1.465  2.5110 -2.7099  1.3895
  562SOL    HW211264   3.472   2.703   1.601  1.0560 -1.2579  0.1904
  565SOL     OW11265   2.974   8.669   2.294  0.1156 -0.4112 -0.4388
  565SOL    HW111266   2.933   8.759   2.286  0.6591 -0.0929  0.2549
  565SOL    HW211267   2.926   8.604   2.234 -1.9545 -0.2492  0.9876
  566SOL     OW11268   3.800   8.767   0.461 -0.4391 -0.4757  0.3073
  566SOL    HW111269   3.847   8.795   0.544 -1.1577  0.9341  0.2539
  566SOL    HW211270   3.783   8.669   0.463  0.0326 -0.5316  1.5707
  568SOL     OW11271   3.265   0.971   2.215  0.0367  0.6154 -0.0052
  568SOL    HW111272   3.165   0.976   2.218 -0.0591 -0.5460 -1.0494
  568SOL    HW211273   3.303   1.060   2.242 -1.3226  1.7599 -1.7301
  569SOL     OW11274   4.130   0.110   0.429  0.6050  0.3621  0.4383
  569SOL    HW111275   4.131   0.067   0.519  2.9975  1.5620  1.0167
  569SOL    HW211276   4.035   0.121   0.398 -0.1431 -2.1417  1.7753
  570SOL     OW11277   2.538   1.668   1.063 -0.6193 -0.2638  1.0030
  570SOL    HW111278   2.451   1.713   1.081 -0.3244  1.0969 -0.7704
  570SOL    HW211279   2.528   1.605   0.986  0.3856  1.3947 -0.5304
  571SOL     OW11280   2.946   0.078   0.721  0.0381  0.1399 -0.8175
  571SOL    HW111281   2.885   0.058   0.645 -0.6354  2.3165 -0.8901
  571SOL    HW211282   3.040   0.059   0.694 -0.3563 -0.7270 -1.6036
  572SOL     OW11283   0.856   5.833   1.580 -0.3521  0.0311 -0.0293
  572SOL    HW111284   0.954   5.835   1.595 -0.2289  0.4390 -0.8443
  572SOL    HW211285   0.808   5.862   1.663  0.2731  1.6201 -0.2145
  573SOL     OW11286   2.580   7.174   2.331  0.3190 -0.1721  0.0383
  573SOL    HW111287   2.497   7.218   2.365  0.1283 -0.5908  0.1184
  573SOL    HW211288   2.640   7.243   2.291  0.0669  0.1729  0.2543
  574SOL     OW11289   3.406   1.194   1.912  0.0560 -0.0012  0.5399
  574SOL    HW111290   3.466   1.130   1.863  0.4916  0.9003 -0.1196
  574SOL    HW211291   3.319   1.150   1.931  0.6392 -1.0599  0.7969
  575SOL     OW11292   2.508   3.259   2.247 -0.2344  0.6786  0.0639
  575SOL    HW111293   2.437   3.197   2.212  1.4285 -1.8726  1.1620
  575SOL    HW211294   2.559   3.215   2.320  1.6880  2.9805  0.1760
  576SOL     OW11295   4.930   2.642   2.249  0.5445  0.2538 -0.2711
  576SOL    HW111296   4.895   2.709   2.315  0.0667  0.9168 -1.1957
  576SOL    HW211297   4.910   2.673   2.156  0.9157 -0.8508 -0.7221
  577SOL     OW11298   3.018   9.090   0.983 -0.0224  0.1371  0.2431
  577SOL    HW111299   2.944   9.022   0.985  0.5116 -0.5121 -1.2039
  577SOL    HW211300   3.100   9.050   1.024 -0.1577  0.4671  0.8348
  578SOL     OW11301   2.657   3.943   1.464 -0.4983  0.1195  0.8995
  578SOL    HW111302   2.600   3.962   1.544 -1.0741  1.3571  0.2203
  578SOL    HW211303   2.742   3.996   1.470 -0.7443  0.5648  0.4744
  579SOL     OW11304   0.297   4.064   1.908  0.3621 -0.0349 -0.3580
  579SOL    HW111305   0.316   4.008   1.828 -0.8155 -1.8194  0.5806
  579SOL    HW211306   0.223   4.129   1.887 -1.2591 -1.7873 -0.1836
  580SOL     OW11307   2.157   7.132   1.421  0.5418  0.1328  0.2982
  580SOL    HW111308   2.224   7.062   1.444  0.3060 -0.8599 -1.9050
  580SOL    HW211309   2.065   7.093   1.423  0.5398 -0.1310 -2.6182
  581SOL     OW11310   1.415   3.365   0.712  0.3626 -0.1038 -0.6001
  581SOL    HW111311   1.429   3.433   0.784 -0.1670 -1.2280  0.5879
  581SOL    HW211312   1.473   3.286   0.730 -0.2387 -0.6510 -1.0662
  582SOL     OW11313   0.568   5.204   0.546  0.0145 -0.2556  0.2051
  582SOL    HW111314   0.667   5.203   0.561  0.2140  1.5432 -0.8589
  582SOL    HW211315   0.548   5.255   0.463 -1.8435 -0.3943  0.5576
  583SOL     OW11316   2.413   7.949   0.699 -0.4434 -0.4337 -0.8028
  583SOL    HW111317   2.448   7.865   0.659  0.4270  0.1171 -1.2232
  583SOL    HW211318   2.381   7.932   0.792  0.2579 -1.1000 -0.6880
  584SOL     OW11319   1.452   5.253   2.209  0.2292 -0.1747 -0.3203
  584SOL    HW111320   1.526   5.186   2.220  0.0939  0.1091  2.6502
  584SOL    HW211321   1.486   5.344   2.229 -0.7431  0.0503  0.3283
  585SOL     OW11322   1.716   5.387   2.238  0.3519  0.4015  0.0600
  585SOL    HW111323   1.813   5.365   2.254  0.1458 -0.4704  0.1631
  585SOL    HW211324   1.700   5.397   2.140  0.7781  1.6699  0.1163
  586SOL     OW11325   2.353   4.689   0.701  0.2118 -0.3457 -0.0896
  586SOL    HW111326   2.318   4.647   0.617  0.3168 -0.9343  0.1549
  586SOL    HW211327   2.418   4.761   0.678  0.5259 -0.7565 -0.5106
  587SOL     OW11328   2.983   0.767   2.333 -0.0798  0.0922  0.2495
  587SOL    HW111329   3.049   0.736   2.401 -0.4874  0.0970  0.6461
  587SOL    HW211330   2.892   0.768   2.372 -0.8282 -3.0658 -1.2755
  589SOL     OW11331   4.140   0.611   1.646 -0.1334 -0.0627  0.1068
  589SOL    HW111332   4.212   0.600   1.715 -1.0653  0.0476  1.1027
  589SOL    HW211333   4.083   0.529   1.644 -1.4713  0.8299  1.0552
  590SOL     OW11334   4.371   4.360   0.963  0.4816 -0.3240  0.4536
  590SOL    HW111335   4.414   4.331   1.048  3.2852  0.5412 -0.6367
  590SOL    HW211336   4.374   4.285   0.897  2.1235  0.3739 -0.2799
  592SOL     OW11337   3.219   3.928   2.194  0.6802 -0.5198  0.0226
  592SOL    HW111338   3.167   3.900   2.114  0.4857 -1.0756  0.3392
  592SOL    HW211339   3.282   4.002   2.169 -0.3736  0.2701 -0.3208
  593SOL     OW11340   2.550   7.916   1.151 -0.6365  0.3272 -0.6326
  593SOL    HW111341   2.518   8.010   1.161 -0.0295  0.3168  1.6701
  593SOL    HW211342   2.609   7.909   1.070 -1.0039  1.8216 -1.0457
  595SOL     OW11343   0.786   4.046   2.168 -0.2008  0.0159 -0.0750
  595SOL    HW111344   0.843   4.091   2.099 -0.7537 -0.9081 -1.1425
  595SOL    HW211345   0.690   4.053   2.141 -0.1964 -3.3168 -1.1693
  596SOL     OW11346   2.513   2.831   0.775  0.0750  0.9196  0.3569
  596SOL    HW111347   2.476   2.807   0.685 -1.9227  0.2640  1.3292
  596SOL    HW211348   2.560   2.751   0.814 -0.9666  0.5219  0.8198
  597SOL     OW11349   2.690   5.886   0.418 -0.1867  0.3322 -0.1687
  597SOL    HW111350   2.767   5.927   0.369 -1.2126 -0.2592 -2.3606
  597SOL    HW211351   2.637   5.957   0.464 -0.1341  1.0948 -1.2842
  598SOL     OW11352   4.596   4.157   1.920  0.4997 -0.0892  0.1981
  598SOL    HW111353   4.673   4.095   1.934  0.1270 -0.7346 -0.5449
  598SOL    HW211354   4.629   4.243   1.882  0.7695 -0.7059 -1.0089
  600SOL     OW11355   1.408   4.011   0.374  0.6175 -0.3516  0.0901
  600SOL    HW111356   1.324   3.962   0.351  0.3682 -0.0795  0.4114
  600SOL    HW211357   1.442   3.980   0.462 -0.4198  1.1692  1.0577
  601SOL     OW11358   3.001   4.802   1.192  0.0960  0.6348  0.2565
  601SOL    HW111359   2.961   4.867   1.129  0.5150  1.5699  0.9417
  601SOL    HW211360   2.932   4.736   1.221 -0.9412  2.1569  1.3427
  602SOL     OW11361   1.145   4.684   2.239 -0.7864 -0.0018  0.5920
  602SOL    HW111362   1.166   4.648   2.148  0.9295 -1.0327  1.3708
  602SOL    HW211363   1.224   4.733   2.275 -2.3055  2.6677  0.5138
  603SOL     OW11364   4.584   3.659   1.970 -0.2729  0.4085  0.3276
  603SOL    HW111365   4.501   3.700   2.007  0.3838  1.6080  0.4992
  603SOL    HW211366   4.617   3.712   1.892  0.4417  0.0507  0.3731
  604SOL     OW11367   3.043   3.440   0.706  0.1994 -0.3825  0.3008
  604SOL    HW111368   3.086   3.361   0.663 -2.0561  0.3824 -3.5609
  604SOL    HW211369   2.965   3.410   0.761 -0.4399 -0.8993 -0.8758
  605SOL     OW11370   2.521   8.038   2.321 -0.2654 -0.1303  0.4043
  605SOL    HW111371   2.572   8.016   2.238  1.6740  0.4459  1.4278
  605SOL    HW211372   2.450   8.105   2.299  1.0755  1.0109 -0.5667
  606SOL     OW11373   3.717   0.499   1.193 -0.4766  0.0970 -0.2000
  606SOL    HW111374   3.800   0.454   1.159 -1.9367 -0.8832 -2.6278
  606SOL    HW211375   3.653   0.429   1.224 -0.5275  0.8367  1.3868
  607SOL     OW11376   2.553   2.405   1.207 -0.5216 -0.1264  0.5788
  607SOL    HW111377   2.458   2.402   1.175 -0.5244  0.1792  0.5572
  607SOL    HW211378   2.557   2.377   1.303 -0.9723  2.3333  1.3506
  608SOL     OW11379   0.854   4.697   2.177  0.1571  0.1911  0.1413
  608SOL    HW111380   0.943   4.691   2.222 -0.0818 -0.7716  0.4781
  608SOL    HW211381   0.853   4.637   2.097  0.5279  1.7723 -1.0903
  609SOL     OW11382   2.683   2.560   0.788  0.6527  0.1731 -0.1258
  609SOL    HW111383   2.646   2.468   0.775  1.6212 -0.0136 -1.7223
  609SOL    HW211384   2.718   2.594   0.701  2.6327  1.0218  0.9630
  610SOL     OW11385   3.797   2.086   0.645 -0.1375  0.5593  0.3646
  610SOL    HW111386   3.794   2.166   0.705 -0.2418  1.4194 -0.7729
  610SOL    HW211387   3.719   2.088   0.583  0.1504 -0.1531 -0.0269
  611SOL     OW11388   1.058   3.194   1.823 -0.2807  0.4178  0.2169
  611SOL    HW111389   1.140   3.223   1.774 -0.6505 -0.3010 -0.8512
  611SOL    HW211390   1.085   3.137   1.901  0.1456 -2.4311 -1.9383
  612SOL     OW11391   2.546   0.806   1.673 -0.6368 -0.2287  0.3709
  612SOL    HW111392   2.564   0.745   1.596 -1.2092 -0.5124  0.4626
  612SOL    HW211393   2.599   0.777   1.753 -0.4262 -0.2305  0.2288
  615SOL     OW11394   4.089   1.328   1.783 -0.5930 -0.2617  0.4847
  615SOL    HW111395   4.085   1.395   1.857  2.1362 -1.5637  1.8724
  615SOL    HW211396   4.034   1.248   1.807 -0.8646 -0.0752  0.4794
  617SOL     OW11397   2.955   5.227   0.600 -0.8354 -0.1816 -0.4507
  617SOL    HW111398   2.935   5.296   0.530  0.0054  0.6586  0.1127
  617SOL    HW211399   3.021   5.161   0.563  0.3284  0.7957 -0.1624
  619SOL     OW11400   5.357   2.648   2.248  0.0569  0.1231  0.5660
  619SOL    HW111401   5.288   2.720   2.236 -0.0937  0.3810  2.8825
  619SOL    HW211402   5.375   2.605   2.159 -0.1400  2.7433 -0.7857
  620SOL     OW11403   2.326   6.282   0.376 -0.4032 -0.0468  0.0436
  620SOL    HW111404   2.273   6.197   0.379 -0.0553 -0.2895 -0.6215
  620SOL    HW211405   2.424   6.260   0.375 -0.3088  0.3682 -0.0158
  623SOL     OW11406   3.108   3.081   1.790  0.3135  0.5073  0.0379
  623SOL    HW111407   3.141   3.010   1.853  0.4861  1.5530  1.1288
  623SOL    HW211408   3.120   3.049   1.696  0.3662 -0.9253  0.5153
  624SOL     OW11409   2.504   0.486   1.851 -0.4248 -0.3771  0.2882
  624SOL    HW111410   2.544   0.533   1.929  0.2335 -0.2894 -0.0924
  624SOL    HW211411   2.412   0.522   1.833  0.3307  1.2465 -0.4116
  625SOL     OW11412   3.357   4.224   1.720  1.0601 -0.1080  0.1555
  625SOL    HW111413   3.274   4.239   1.774  1.1618  0.8847  0.0347
  625SOL    HW211414   3.422   4.298   1.737  1.9565 -0.9092  0.2957
  626SOL     OW11415   2.989   5.882   1.849  0.6125 -0.0096 -0.7873
  626SOL    HW111416   2.940   5.966   1.871  2.4013  1.3181 -1.7803
  626SOL    HW211417   2.968   5.854   1.756  0.6010 -0.2451 -0.7146
  627SOL     OW11418   9.816   4.508   1.248 -0.0283 -0.5239  0.1298
  627SOL    HW111419   9.900   4.473   1.290  1.3867  0.5150 -1.7560
  627SOL    HW211420   9.825   4.506   1.148 -2.0733  0.0501 -0.0867
  628SOL     OW11421   4.412   3.061   1.158  0.6445 -0.2648 -0.3476
  628SOL    HW111422   4.501   3.106   1.170  0.2860  0.6545 -1.1560
  628SOL    HW211423   4.416   3.000   1.079  0.7547 -0.7399  0.0201
  630SOL     OW11424   2.887   1.311   1.280 -0.4086  0.3167 -0.0835
  630SOL    HW111425   2.933   1.322   1.368 -1.1092  0.7408  0.2391
  630SOL    HW211426   2.828   1.391   1.263 -3.6835 -1.7413  1.1451
  631SOL     OW11427   3.695   3.579   0.426  0.1138 -0.5026 -0.0172
  631SOL    HW111428   3.678   3.631   0.342  1.4172  2.1372  1.2924
  631SOL    HW211429   3.788   3.541   0.422 -0.0614 -0.9258 -0.0495
  632SOL     OW11430   1.841   3.552   1.226 -0.4794 -0.3693  0.2517
  632SOL    HW111431   1.761   3.534   1.284  1.1036  1.3555  3.1348
  632SOL    HW211432   1.920   3.504   1.264  0.8886  1.8670  0.3145
  633SOL     OW11433   3.323   4.533   1.108 -0.2490  0.6635  0.1080
  633SOL    HW111434   3.419   4.545   1.084 -0.5613  1.9720 -0.5509
  633SOL    HW211435   3.271   4.612   1.077 -1.2923  0.6716  1.8134
  635SOL     OW11436   0.185   5.308   0.551 -0.3146 -0.2324 -0.0950
  635SOL    HW111437   0.158   5.245   0.624 -1.1256  1.1680  0.8546
  635SOL    HW211438   0.137   5.395   0.563  0.9645  0.6609 -1.2269
  636SOL     OW11439   4.006   0.882   0.335  0.2389 -0.0501 -0.0573
  636SOL    HW111440   4.036   0.964   0.383  0.3917 -0.1821  0.0714
  636SOL    HW211441   3.973   0.908   0.244 -0.0863  0.2030  0.1273
  637SOL     OW11442   4.282   2.034   1.943  0.4113  0.0941 -0.3316
  637SOL    HW111443   4.344   2.108   1.915 -0.9481  1.0041 -1.0170
  637SOL    HW211444   4.202   2.034   1.883 -1.6367  0.8208  2.3037
  638SOL     OW11445   9.678   5.068   0.770  0.3122  0.1864 -0.3717
  638SOL    HW111446   9.594   5.079   0.824  0.8199 -2.6455  1.1000
  638SOL    HW211447   9.748   5.131   0.804 -0.3221  0.5488  0.2934
  640SOL     OW11448   5.378   3.827   1.231 -0.7374  0.2640 -0.4431
  640SOL    HW111449   5.463   3.838   1.282 -0.2310  1.5877 -1.5287
  640SOL    HW211450   5.302   3.813   1.295  0.1854 -0.2158  0.5622
  641SOL     OW11451   2.718   1.372   2.309 -0.3698  0.7310 -0.3993
  641SOL    HW111452   2.686   1.321   2.228  0.7574 -1.7399  0.6489
  641SOL    HW211453   2.804   1.417   2.287 -0.5848  0.9157 -0.8797
  643SOL     OW11454   3.244   4.793   1.015  0.1519 -0.6270 -0.2223
  643SOL    HW111455   3.154   4.812   1.053  1.1618 -0.7398  2.3273
  643SOL    HW211456   3.248   4.827   0.921 -2.1137  0.5354  0.0585
  644SOL     OW11457   3.787   0.434   1.536 -0.4700 -0.7675 -0.0959
  644SOL    HW111458   3.805   0.514   1.480 -2.1299 -1.8162 -2.2158
  644SOL    HW211459   3.788   0.459   1.632  0.2759  1.5182 -0.6753
  645SOL     OW11460   2.589   5.079   2.125 -0.4744  0.0839 -0.1572
  645SOL    HW111461   2.505   5.095   2.073 -1.3857  0.1390  1.3315
  645SOL    HW211462   2.653   5.025   2.069 -2.0216 -1.1184 -0.7890
  646SOL     OW11463   2.777   3.145   1.054 -0.0614  0.5575  0.1689
  646SOL    HW111464   2.745   3.157   1.148 -1.0143 -2.1667  0.2453
  646SOL    HW211465   2.838   3.066   1.050 -0.4558  0.3241 -1.5969
  647SOL     OW11466   1.486   4.548   1.171  0.1462  0.2544  0.1386
  647SOL    HW111467   1.531   4.459   1.159 -2.3105 -1.0459  0.2946
  647SOL    HW211468   1.483   4.595   1.083  1.9814  0.4509  0.1684
  648SOL     OW11469   2.486   4.246   0.844 -0.3888  0.3573 -0.0066
  648SOL    HW111470   2.545   4.327   0.843 -0.5196  0.4440 -1.2139
  648SOL    HW211471   2.521   4.178   0.779  1.9942 -2.2408  3.7368
  649SOL     OW11472   4.214   0.644   0.554  0.0690 -0.5365 -0.2206
  649SOL    HW111473   4.142   0.639   0.485 -0.2044 -1.2113  0.1155
  649SOL    HW211474   4.298   0.676   0.511  0.1107 -1.7034 -1.0391
  651SOL     OW11475   2.365   3.684   2.252  0.3344  0.9815 -0.0841
  651SOL    HW111476   2.393   3.766   2.203 -0.9154  1.4193 -0.0842
  651SOL    HW211477   2.397   3.689   2.347  2.5534  0.2380 -0.7586
  652SOL     OW11478   1.420   3.949   2.108 -0.2314  0.7186  0.2412
  652SOL    HW111479   1.333   3.954   2.157 -0.8026  0.6681 -0.7525
  652SOL    HW211480   1.424   4.023   2.041  0.3897  0.5783  0.1237
  653SOL     OW11481   3.287   7.794   2.140  0.1854 -0.0122  0.2566
  653SOL    HW111482   3.252   7.713   2.093 -0.2282 -1.5452  3.0753
  653SOL    HW211483   3.232   7.873   2.116 -2.5773 -1.5535  1.2402
  654SOL     OW11484   2.556   0.194   1.805 -0.6809 -0.4779  0.1518
  654SOL    HW111485   2.573   0.177   1.708 -1.5526 -1.3027  0.1372
  654SOL    HW211486   2.534   0.291   1.819 -0.6445 -0.3782 -0.4807
  656SOL     OW11487   3.457   1.805   1.036 -0.0104 -0.0141  0.4860
  656SOL    HW111488   3.436   1.729   0.974  3.2738 -1.0236  0.5271
  656SOL    HW211489   3.485   1.769   1.125  2.3330  1.1832  0.2680
  657SOL     OW11490   2.637   2.625   2.136  0.4078  0.2436  0.6121
  657SOL    HW111491   2.584   2.550   2.097  0.9468 -0.4843  1.2494
  657SOL    HW211492   2.648   2.610   2.235  2.3495  0.0163  0.3926
  658SOL     OW11493   0.840   4.085   1.472 -0.0503  0.5034  0.2416
  658SOL    HW111494   0.776   4.105   1.398  1.7279  2.1994 -0.8960
  658SOL    HW211495   0.808   4.128   1.556 -0.5773  1.0483 -0.2354
  659SOL     OW11496   3.257   9.491   0.811 -0.0802  0.8191 -0.4108
  659SOL    HW111497   3.298   9.409   0.772  0.8761  1.5509 -0.9544
  659SOL    HW211498   3.324   9.537   0.870 -1.1132  0.3781  1.1378
  660SOL     OW11499  10.042   4.205   0.447 -0.2111  0.3631 -0.0250
  660SOL    HW111500   9.954   4.216   0.492 -1.0419 -0.6461 -1.3834
  660SOL    HW211501  10.059   4.284   0.387 -1.6845 -0.9529 -2.2344
  661SOL     OW11502   4.302   2.957   1.382  0.7652  0.6194 -0.1526
  661SOL    HW111503   4.263   3.031   1.437  2.7747  1.0654  0.7311
  661SOL    HW211504   4.357   2.996   1.309  0.2336 -0.0027 -0.8900
  662SOL     OW11505   4.889   4.412   2.025 -0.0607 -0.0863  0.0478
  662SOL    HW111506   4.949   4.379   2.097  1.8086  1.3927 -0.7885
  662SOL    HW211507   4.822   4.475   2.064  0.7612  0.4924  0.5462
  665SOL     OW11508   4.268   4.802   1.919 -0.6456  0.2936  0.4013
  665SOL    HW111509   4.224   4.715   1.940  0.5290  0.1261  2.2657
  665SOL    HW211510   4.217   4.877   1.961 -1.5262  0.5108 -1.0117
  666SOL     OW11511   3.950   3.260   2.256 -0.3056 -0.1875  0.6894
  666SOL    HW111512   3.873   3.302   2.207  0.3184  1.8801  1.4358
  666SOL    HW211513   3.998   3.330   2.308  1.7131 -1.5884  0.7407
  667SOL     OW11514   2.450   0.053   1.171 -0.3532  0.7012 -0.2732
  667SOL    HW111515   2.368   0.057   1.115  0.4229  3.0577 -1.3120
  667SOL    HW211516   2.515  -0.012   1.132 -1.1436 -0.1136 -0.2375
  668SOL     OW11517   2.335   6.550   0.350  0.3671 -0.1307 -0.3076
  668SOL    HW111518   2.334   6.450   0.357  0.9302 -0.1500 -0.4081
  668SOL    HW211519   2.380   6.576   0.265 -0.2328  0.2029 -0.5215
  671SOL     OW11520   3.311   3.746   0.325 -0.0576  0.0393  0.3891
  671SOL    HW111521   3.341   3.703   0.410  0.3363 -0.9557 -0.2418
  671SOL    HW211522   3.369   3.715   0.249 -0.9607  0.2169 -0.3931
  672SOL     OW11523   2.294   3.335   1.059  0.3697  0.7016 -0.0096
  672SOL    HW111524   2.384   3.375   1.076  0.1321  0.2253  2.5372
  672SOL    HW211525   2.297   3.281   0.975  2.8671 -0.5378  0.8305
  673SOL     OW11526   3.534   1.192   2.164 -0.0944 -0.0937  0.0250
  673SOL    HW111527   3.605   1.260   2.183 -1.1928  0.8634  0.6841
  673SOL    HW211528   3.497   1.207   2.072  1.2875 -1.2657 -0.7562
  675SOL     OW11529   4.232   2.635   2.330 -0.0250 -0.2201 -0.2126
  675SOL    HW111530   4.161   2.695   2.368 -0.7749 -0.3517 -1.3804
  675SOL    HW211531   4.197   2.542   2.324  1.0846 -0.7638  1.4456
  676SOL     OW11532   3.913   9.673   1.859  0.2633  0.1283 -0.0197
  676SOL    HW111533   3.928   9.574   1.859 -0.5617 -0.0100  0.8296
  676SOL    HW211534   3.923   9.708   1.952  2.3676  1.1454 -0.5937
  677SOL     OW11535   3.928   9.648   1.098  0.3859 -0.7269  0.4431
  677SOL    HW111536   3.939   9.692   1.009  1.7657 -0.3555  0.7909
  677SOL    HW211537   3.954   9.712   1.170 -0.6198 -1.0637  1.1131
  678SOL     OW11538   3.104   8.962   1.359  0.4665  0.4478  0.0445
  678SOL    HW111539   3.177   8.904   1.395  0.2229 -0.4382 -0.8875
  678SOL    HW211540   3.117   9.055   1.393  1.0932 -0.0511  1.2110
  679SOL     OW11541   0.223   4.951   0.925  0.0418 -0.1666 -0.3009
  679SOL    HW111542   0.229   4.875   0.859  1.6153  0.4759 -0.9314
  679SOL    HW211543   0.178   5.029   0.881 -0.6353 -0.3820  0.0100
  680SOL     OW11544   4.775   3.027   1.730 -0.6111 -0.4061 -0.5533
  680SOL    HW111545   4.753   3.068   1.642  1.8798 -0.3378 -1.1804
  680SOL    HW211546   4.811   3.098   1.792 -0.6850 -0.7727 -0.0889
  681SOL     OW11547   2.810   4.748   1.392  0.8448 -0.1366  0.1192
  681SOL    HW111548   2.767   4.827   1.348  0.8145 -1.4762 -2.3677
  681SOL    HW211549   2.759   4.665   1.368  2.0621 -1.1638  1.0240
  682SOL     OW11550   2.837   3.628   1.639 -0.1013  0.4940 -0.2192
  682SOL    HW111551   2.871   3.564   1.708 -0.2029 -0.2560 -0.8633
  682SOL    HW211552   2.747   3.599   1.607 -0.6903  1.6351  0.3663
  683SOL     OW11553   4.411   4.660   2.342  0.4230  0.1710 -0.4758
  683SOL    HW111554   4.339   4.671   2.411  0.0844  0.9458 -0.9482
  683SOL    HW211555   4.380   4.595   2.273  0.7026 -0.4924  0.0175
  685SOL     OW11556   2.975   3.871   1.710  0.0099 -0.0321  0.5103
  685SOL    HW111557   2.929   3.933   1.646  1.7504  0.1751 -0.5851
  685SOL    HW211558   2.931   3.781   1.706  0.9844 -0.4303 -2.0724
  687SOL     OW11559   2.993   2.091   1.958 -0.7277 -0.2522 -0.3406
  687SOL    HW111560   3.076   2.118   2.007 -1.1061 -2.7637  1.7485
  687SOL    HW211561   3.019   2.051   1.870  0.1013  1.5401 -0.9469
  689SOL     OW11562   9.689   5.350   1.100 -0.2888  0.3711 -0.2241
  689SOL    HW111563   9.767   5.369   1.040  0.1050 -1.5017 -0.3338
  689SOL    HW211564   9.610   5.324   1.045 -0.9121  1.9216 -0.0919
  690SOL     OW11565   1.352   5.685   0.413  0.2597 -0.2135 -0.5151
  690SOL    HW111566   1.438   5.720   0.376  0.6954 -0.8210 -0.0692
  690SOL    HW211567   1.297   5.647   0.339  0.5300 -0.1603 -0.7449
  691SOL     OW11568   3.803   9.082   1.429  0.2331  0.0480 -0.0876
  691SOL    HW111569   3.757   9.095   1.341 -0.9689  0.2555  0.5565
  691SOL    HW211570   3.766   9.000   1.473  1.0785 -0.2473  0.0731
  694SOL     OW11571   4.091   2.805   1.290 -0.4486  0.4940  0.0166
  694SOL    HW111572   4.182   2.838   1.316 -0.1194 -1.5639  1.6206
  694SOL    HW211573   4.070   2.834   1.197  2.1662  0.3710 -0.6479
  696SOL     OW11574   2.846   7.381   1.296 -0.1755  0.2182 -0.0280
  696SOL    HW111575   2.800   7.426   1.373 -0.5679  0.8581 -0.6244
  696SOL    HW211576   2.901   7.304   1.330  0.2668  0.9564  0.9844
  698SOL     OW11577   3.362   9.240   0.714 -0.1554 -0.2639  0.1840
  698SOL    HW111578   3.358   9.181   0.796  0.3188 -0.6106 -0.0433
  698SOL    HW211579   3.325   9.189   0.636  0.6268 -0.3963 -0.0965
  699SOL     OW11580   3.106   6.584   2.189 -0.3780 -0.2840  0.0200
  699SOL    HW111581   3.185   6.606   2.132 -1.7295  0.7943 -1.4774
  699SOL    HW211582   3.089   6.660   2.252  1.7931 -1.9319  2.7392
  700SOL     OW11583  10.046   5.550   0.568 -0.3655 -0.1029  0.2618
  700SOL    HW111584  10.021   5.600   0.485 -1.1072 -1.7127 -0.5057
  700SOL    HW211585   9.975   5.564   0.638 -0.7077 -0.2960 -0.0446
  701SOL     OW11586   3.697   2.582   1.952  0.2809  0.2491  0.0467
  701SOL    HW111587   3.684   2.676   1.918  0.3756 -0.8870 -3.2964
  701SOL    HW211588   3.752   2.584   2.035  2.5661  2.9873 -1.4521
  702SOL     OW11589   2.442   6.626   2.204 -0.1738 -0.3666 -0.3210
  702SOL    HW111590   2.388   6.703   2.238  1.4226  1.2595 -1.3705
  702SOL    HW211591   2.384   6.545   2.197 -2.2723  1.1369 -0.7099
  703SOL     OW11592   2.256   3.972   0.908 -0.0322  0.2152  0.3068
  703SOL    HW111593   2.217   4.032   0.839 -0.3745 -1.3764 -0.9310
  703SOL    HW211594   2.338   3.928   0.872 -0.0607 -0.4262  1.0007
  704SOL     OW11595   5.009   2.759   0.912  0.0073 -0.2481  0.2732
  704SOL    HW111596   5.016   2.781   1.009 -0.8114  0.7625  0.1101
  704SOL    HW211597   5.101   2.762   0.871  0.3766 -0.8696  1.0526
  705SOL     OW11598   1.822   5.754   1.801 -0.7677 -0.0745  0.2519
  705SOL    HW111599   1.742   5.780   1.856 -2.0796 -1.3715 -1.0075
  705SOL    HW211600   1.807   5.783   1.706  1.5921  2.3801  0.5762
  707SOL     OW11601   4.745   2.881   0.551  0.3338 -0.0069  0.6157
  707SOL    HW111602   4.685   2.803   0.568  0.6365 -0.2382  0.6424
  707SOL    HW211603   4.799   2.899   0.634  1.4070 -0.7755  0.1050
  708SOL     OW11604   3.469  -0.111   2.110  0.5438 -0.1133  0.1474
  708SOL    HW111605   3.383  -0.072   2.078  0.2504  0.2433  1.3521
  708SOL    HW211606   3.545  -0.068   2.062  0.1023  0.1838 -0.2972
  710SOL     OW11607   3.371   8.954   2.302 -0.1444  0.4997  0.0221
  710SOL    HW111608   3.412   8.968   2.392 -0.9550  2.0044  0.1750
  710SOL    HW211609   3.274   8.980   2.305 -0.0512  1.0579 -1.4019
  711SOL     OW11610   0.555   3.989   0.473  0.5046 -0.4930  0.5848
  711SOL    HW111611   0.462   4.027   0.477 -0.0210 -1.8218  1.4222
  711SOL    HW211612   0.581   3.955   0.563  0.9913 -1.9934 -0.1016
  713SOL     OW11613   1.623   6.935   0.889 -0.3948  0.0021 -0.4040
  713SOL    HW111614   1.691   7.008   0.896 -1.0680  0.6622 -0.8134
  713SOL    HW211615   1.610   6.911   0.793 -0.2768 -0.5692 -0.2806
  714SOL     OW11616   5.048   3.308   0.750  0.3746  0.2967  0.1217
  714SOL    HW111617   5.075   3.266   0.836 -1.1517  1.7658  1.3575
  714SOL    HW211618   4.959   3.271   0.721  1.6050 -1.3586 -1.6728
  715SOL     OW11619   3.432   0.943   1.352  0.1091 -1.0323  0.4166
  715SOL    HW111620   3.377   1.016   1.393  1.2299 -0.2802  0.6018
  715SOL    HW211621   3.372   0.867   1.327 -0.7634 -1.0108  2.3438
  717SOL     OW11622   3.263   9.542   1.389  0.1786  0.1504  0.6772
  717SOL    HW111623   3.300   9.531   1.481  0.1050  0.3732  0.7320
  717SOL    HW211624   3.228   9.635   1.378 -1.3011 -0.3587  0.9714
  718SOL     OW11625   2.133   3.738   1.325 -0.6365  0.0425 -0.3985
  718SOL    HW111626   2.208   3.785   1.278  0.2177 -0.7396  0.1684
  718SOL    HW211627   2.170   3.663   1.380 -1.6489  0.6548  1.1586
  719SOL     OW11628   0.403   4.742   1.844 -0.0205  0.3831  0.1970
  719SOL    HW111629   0.475   4.810   1.832  1.7236 -1.6560 -1.2265
  719SOL    HW211630   0.429   4.679   1.917 -1.6510  1.2302  1.5515
  721SOL     OW11631   3.954   0.928   2.058  0.0698  0.5707 -0.6457
  721SOL    HW111632   3.970   0.835   2.024  0.6762  0.5591 -0.3317
  721SOL    HW211633   3.864   0.933   2.101  0.2139  0.0097 -0.2695
  722SOL     OW11634   3.466   5.114   1.667 -0.3820 -0.8007 -0.2987
  722SOL    HW111635   3.558   5.090   1.634 -0.2861  1.5097 -1.8681
  722SOL    HW211636   3.466   5.117   1.767  1.2016 -1.0073 -0.2806
  724SOL     OW11637   2.761   9.637   1.749  0.2104  0.3067 -0.2314
  724SOL    HW111638   2.778   9.648   1.652  0.8772  0.5369 -0.0893
  724SOL    HW211639   2.834   9.584   1.790 -0.9124 -1.2073 -0.1569
  725SOL     OW11640   2.402   9.356   1.285  0.2791 -0.5075 -0.4647
  725SOL    HW111641   2.491   9.379   1.244  0.8565 -1.4543  0.2334
  725SOL    HW211642   2.337   9.334   1.212  0.9949 -1.1469 -0.9244
  726SOL     OW11643   9.899   5.767   1.392 -0.0016 -0.2718  0.6718
  726SOL    HW111644   9.944   5.682   1.422  0.1927  0.0853  1.4079
  726SOL    HW211645   9.840   5.801   1.465 -2.7487 -1.5846 -0.8655
  727SOL     OW11646   1.979   6.751   2.237 -0.5623 -0.1873 -0.1497
  727SOL    HW111647   1.893   6.799   2.221 -0.2439  1.0646  1.6403
  727SOL    HW211648   1.972   6.697   2.321  0.1215 -0.7086 -0.4303
  728SOL     OW11649   1.336   3.297   1.838 -0.0107 -0.3854  0.0147
  728SOL    HW111650   1.370   3.210   1.803  0.2498 -0.8864  1.4720
  728SOL    HW211651   1.356   3.304   1.936 -2.8367 -0.0659  0.6062
  729SOL     OW11652   1.375   3.557   1.146  1.0035  0.3842 -0.1190
  729SOL    HW111653   1.402   3.641   1.193  1.1521  1.0369 -1.3307
  729SOL    HW211654   1.322   3.499   1.208 -1.6468  2.6844 -0.0978
  732SOL     OW11655   0.330   4.461   0.456 -0.4650 -0.0510 -0.0666
  732SOL    HW111656   0.272   4.421   0.527 -1.7953  0.1194 -1.0374
  732SOL    HW211657   0.347   4.557   0.478  0.5562 -0.4461  0.9036
  734SOL     OW11658   0.476   4.895   0.858 -0.2773 -0.1839 -0.1748
  734SOL    HW111659   0.390   4.925   0.899  0.1486  1.1681 -0.2374
  734SOL    HW211660   0.474   4.911   0.759  0.6655  1.4155  0.0466
  735SOL     OW11661   1.929   2.387   0.448 -0.0083 -0.3279  0.6042
  735SOL    HW111662   1.911   2.370   0.351  0.2424  1.3052  0.2528
  735SOL    HW211663   1.950   2.301   0.494  0.9202 -0.9782 -1.0093
  736SOL     OW11664   3.592   0.817   1.987  0.1128  0.6678  0.1159
  736SOL    HW111665   3.615   0.721   1.997 -0.7115  0.4288 -0.2754
  736SOL    HW211666   3.539   0.847   2.067  2.7972  1.5410  1.6335
  737SOL     OW11667   4.513   4.825   1.422 -0.2256  0.4839  1.1745
  737SOL    HW111668   4.505   4.790   1.328 -0.7078  0.2757  1.2966
  737SOL    HW211669   4.423   4.846   1.458 -0.1357 -0.5397  2.0234
  738SOL     OW11670   3.540   2.059   2.131  0.2998  0.1459 -0.0260
  738SOL    HW111671   3.449   2.018   2.132  0.3652  0.0057  0.5888
  738SOL    HW211672   3.540   2.141   2.189  0.2984  0.7379 -0.8494
  740SOL     OW11673   1.820   7.476   0.521 -0.3830  0.0133 -0.4767
  740SOL    HW111674   1.827   7.575   0.532  1.3365 -0.4288  3.2213
  740SOL    HW211675   1.910   7.439   0.496 -0.5444 -0.7984  0.1248
  741SOL     OW11676   4.973   4.274   1.055  0.2239 -0.3989 -0.0444
  741SOL    HW111677   4.944   4.322   1.137  0.5823 -0.0724 -0.1085
  741SOL    HW211678   4.968   4.175   1.071  1.4822 -0.3327  0.7920
  743SOL     OW11679   1.868   5.847   2.315 -0.0915  0.4235  0.8408
  743SOL    HW111680   1.846   5.904   2.236 -0.9509  0.4985  1.1305
  743SOL    HW211681   1.918   5.901   2.382 -0.7781  0.8091  1.0501
  745SOL     OW11682   5.194   3.113   1.481  0.2921 -0.5645 -0.2547
  745SOL    HW111683   5.134   3.174   1.533  0.8276  0.7778 -1.1706
  745SOL    HW211684   5.288   3.124   1.514  0.4729 -0.4875 -0.7917
  746SOL     OW11685   2.993   9.673   1.182 -0.3136 -0.6899  0.1642
  746SOL    HW111686   3.035   9.608   1.118  0.1562 -1.5811  1.3476
  746SOL    HW211687   2.905   9.637   1.214  0.0961 -0.9101  1.0696
  747SOL     OW11688   2.417   8.379   0.637 -0.3738 -0.1586 -0.1817
  747SOL    HW111689   2.392   8.293   0.594 -0.6285  0.1860 -0.7258
  747SOL    HW211690   2.488   8.363   0.706 -2.2423 -1.1762  1.5310
  748SOL     OW11691   5.124   3.156   0.980 -0.6860 -0.1328 -0.2815
  748SOL    HW111692   5.157   3.179   1.071  0.6432 -2.8455 -0.0331
  748SOL    HW211693   5.087   3.062   0.980 -2.2502  0.4326 -2.1365
  749SOL     OW11694   3.448   3.044   1.573 -0.2722  0.4700 -0.1995
  749SOL    HW111695   3.409   3.118   1.629  0.6646 -0.9889  2.4791
  749SOL    HW211696   3.530   3.077   1.528 -1.0768  1.7009 -0.7889
  750SOL     OW11697   3.492   5.075   1.933 -0.3686 -0.0890 -0.5136
  750SOL    HW111698   3.554   5.142   1.974  0.4780 -0.7368 -0.7056
  750SOL    HW211699   3.546   4.997   1.899 -1.3637 -1.0386  0.0488
  751SOL     OW11700   0.400   5.715   1.216  0.8417  0.7896 -0.2907
  751SOL    HW111701   0.362   5.629   1.252  2.2293  0.4627  0.4097
  751SOL    HW211702   0.480   5.695   1.159  1.3474  1.6442  0.1164
  753SOL     OW11703   5.267   2.850   1.841 -0.3881  0.6326  0.1443
  753SOL    HW111704   5.310   2.937   1.816  5.2056 -1.5810  1.3227
  753SOL    HW211705   5.222   2.860   1.930  0.2873  2.2971  0.3222
  754SOL     OW11706   2.446   2.781   0.516 -0.0596  0.2391  0.1624
  754SOL    HW111707   2.360   2.751   0.475 -0.7094  1.0138  0.9284
  754SOL    HW211708   2.464   2.876   0.490  1.8043 -0.6383 -1.9679
  755SOL     OW11709   3.641   2.331   1.833 -0.2374  0.1382 -0.0121
  755SOL    HW111710   3.707   2.273   1.881  0.4469  1.6677  0.9637
  755SOL    HW211711   3.642   2.423   1.873 -4.5044 -0.3335  1.4140
  756SOL     OW11712   1.937   5.764   0.901  0.0489 -0.2364  0.3972
  756SOL    HW111713   1.978   5.673   0.893 -0.7351 -0.4425 -1.5260
  756SOL    HW211714   1.995   5.830   0.853  0.9490  0.4129  2.3274
  758SOL     OW11715   1.410   5.956   0.793 -0.0476  0.1365  0.1305
  758SOL    HW111716   1.452   5.880   0.843 -0.3895 -0.2540 -0.1740
  758SOL    HW211717   1.422   6.041   0.845 -2.5471 -0.6581  2.0917
  763SOL     OW11718   4.085   9.754   1.522  0.8380  0.3578 -0.0370
  763SOL    HW111719   4.100   9.663   1.560  1.1773  1.1333  1.7493
  763SOL    HW211720   4.043   9.813   1.592 -2.0452  0.7955 -2.0469
  764SOL     OW11721   0.054   4.066   2.326  0.3320  0.2556 -0.1565
  764SOL    HW111722   0.048   4.156   2.284 -1.4091 -0.5369 -1.6850
  764SOL    HW211723  -0.035   4.043   2.368  0.4699 -1.1225 -0.5839
  765SOL     OW11724   1.051   5.121   2.026 -0.6385 -0.2133  0.6880
  765SOL    HW111725   1.066   5.024   2.009 -0.4024 -0.2041  0.8354
  765SOL    HW211726   0.963   5.149   1.987 -0.5822 -0.4246  0.4031
  767SOL     OW11727   2.773   5.073   0.768  0.2483 -0.0959  0.5773
  767SOL    HW111728   2.846   5.122   0.720 -0.5926 -1.3432 -2.0648
  767SOL    HW211729   2.687   5.121   0.754 -0.1564 -0.9634  0.0805
  768SOL     OW11730   2.987   0.986   2.172  0.1072  0.2325 -0.1163
  768SOL    HW111731   2.973   0.912   2.237 -1.4586 -0.0472 -0.7683
  768SOL    HW211732   2.912   0.989   2.106 -0.3847  3.0120  0.4911
  769SOL     OW11733   4.187   4.039   1.487  0.5372 -0.4356 -0.2142
  769SOL    HW111734   4.196   3.939   1.495  0.6133 -0.2459  2.7080
  769SOL    HW211735   4.108   4.069   1.541  0.0356  1.0317 -1.7168
  770SOL     OW11736   4.235   9.074   1.297  0.0109  0.0076 -0.5243
  770SOL    HW111737   4.225   9.173   1.305 -0.7129 -0.1221  0.2984
  770SOL    HW211738   4.316   9.053   1.242  0.7170  1.0498  0.0895
  771SOL     OW11739   3.722   0.981   2.213 -0.5916 -0.2324 -0.4243
  771SOL    HW111740   3.653   1.051   2.199 -2.1629 -1.1945  2.2186
  771SOL    HW211741   3.692   0.918   2.284  2.7206 -1.0688  0.3198
  773SOL     OW11742   4.830   2.462   0.364 -0.2717  0.0954 -0.5577
  773SOL    HW111743   4.801   2.552   0.330 -1.9225 -0.1334  0.1910
  773SOL    HW211744   4.885   2.416   0.295  0.0137  1.4076 -1.2166
  775SOL     OW11745   2.283   2.441   1.113 -0.1736 -0.6499 -0.2437
  775SOL    HW111746   2.198   2.439   1.166  0.4542 -0.8568  0.7652
  775SOL    HW211747   2.269   2.494   1.030 -1.0585  0.0481  0.3413
  776SOL     OW11748   5.365   4.253   0.594  0.0873  0.1196 -0.2164
  776SOL    HW111749   5.296   4.323   0.612  0.7112  0.6894 -0.0312
  776SOL    HW211750   5.337   4.199   0.515 -0.2812  0.7415 -0.5169
  777SOL     OW11751   2.300   3.163   2.124 -0.0610  0.2323  0.0970
  777SOL    HW111752   2.275   3.081   2.073 -1.8808  0.2783  0.8799
  777SOL    HW211753   2.310   3.240   2.062  0.9774 -0.4173 -0.5570
  778SOL     OW11754   2.422  -0.086   1.874  0.0529 -0.2969 -0.2081
  778SOL    HW111755   2.436  -0.093   1.973  1.1382 -1.2099 -0.4187
  778SOL    HW211756   2.443   0.008   1.844 -1.1423  0.2231  0.5507
  780SOL     OW11757   2.875   9.614   1.493  0.3360  0.5301 -0.0086
  780SOL    HW111758   2.799   9.583   1.436 -2.0615  0.9981  2.7916
  780SOL    HW211759   2.940   9.538   1.505 -1.9614 -1.3243  1.1415
  781SOL     OW11760   4.808   3.567   1.049 -0.1769  0.9102 -0.0235
  781SOL    HW111761   4.764   3.586   0.962  0.2633 -0.9645 -0.6732
  781SOL    HW211762   4.898   3.612   1.051 -1.3590  3.3371  0.6400
  783SOL     OW11763   3.716   5.346   0.966 -0.4873 -0.2926 -0.1266
  783SOL    HW111764   3.623   5.320   0.943 -0.5293 -0.8020  0.5870
  783SOL    HW211765   3.749   5.415   0.902 -1.0839 -0.6645 -0.8421
  786SOL     OW11766   5.249   3.517   1.252 -0.0456  0.8015  0.2589
  786SOL    HW111767   5.197   3.568   1.185  0.9444  1.0043 -0.3754
  786SOL    HW211768   5.347   3.523   1.230  0.3907  1.7222  2.2940
  787SOL     OW11769   4.014   1.418   1.307 -0.1091  0.0013  0.2710
  787SOL    HW111770   4.071   1.338   1.288 -0.7008 -0.1394 -0.9634
  787SOL    HW211771   3.941   1.393   1.369  0.1859 -0.2221  0.5278
  790SOL     OW11772   3.685   3.731   1.681  0.0099  0.0674 -0.3768
  790SOL    HW111773   3.621   3.723   1.604  0.7940  0.1086 -1.0420
  790SOL    HW211774   3.660   3.666   1.752  1.7388 -3.0245 -2.4507
  792SOL     OW11775   2.629   7.055   2.084  0.7685 -0.1831 -0.0047
  792SOL    HW111776   2.707   6.996   2.064  1.8012  0.4771  1.9821
  792SOL    HW211777   2.633   7.085   2.179 -1.1091  1.0647 -0.2915
  793SOL     OW11778   2.319   4.509   0.389 -0.4875 -0.0525  0.0689
  793SOL    HW111779   2.418   4.497   0.380 -0.8183 -2.1009 -1.1815
  793SOL    HW211780   2.292   4.594   0.345  0.9468  1.5012  2.1097
  794SOL     OW11781   4.227   1.200   0.670  0.5620 -0.2272  0.4979
  794SOL    HW111782   4.297   1.138   0.635  1.0491 -0.2715  1.5337
  794SOL    HW211783   4.238   1.290   0.627 -0.6862 -1.0659 -1.6650
  795SOL     OW11784   2.897   3.533   2.194 -0.1989  0.3524 -0.3565
  795SOL    HW111785   2.964   3.524   2.268  0.1965 -0.3446 -0.7946
  795SOL    HW211786   2.835   3.455   2.196  0.3096 -0.0773 -1.2574
  796SOL     OW11787   3.571   8.461   0.573  0.3024  0.5935  0.5342
  796SOL    HW111788   3.669   8.451   0.552  0.2746  0.1597  0.5998
  796SOL    HW211789   3.522   8.484   0.489  0.4418  0.6710  0.4725
  797SOL     OW11790   4.403   3.451   0.627  0.2233  0.0002  0.2817
  797SOL    HW111791   4.427   3.546   0.647  2.2891 -0.3998 -0.1335
  797SOL    HW211792   4.456   3.390   0.686  1.0874 -0.9638 -1.4474
  798SOL     OW11793   0.116   4.592   0.902 -0.5171 -1.0328  0.3167
  798SOL    HW111794   0.072   4.681   0.920  0.5254 -0.4839  0.1589
  798SOL    HW211795   0.186   4.574   0.971  0.8024 -0.7036 -0.9101
  799SOL     OW11796   3.136   2.974   0.775 -0.6045 -0.2961  0.4541
  799SOL    HW111797   3.216   2.970   0.715  0.2108 -0.0809  1.4971
  799SOL    HW211798   3.053   2.989   0.721  0.0958 -0.2509 -0.6122
  800SOL     OW11799   3.179   9.789   1.334  0.0802  0.7639  0.7892
  800SOL    HW111800   3.111   9.764   1.265  0.8203  1.0412 -0.0667
  800SOL    HW211801   3.141   9.857   1.395 -1.3424 -1.0913  2.0291
  801SOL     OW11802   3.138   3.430   1.039  0.0699 -0.3700  0.6140
  801SOL    HW111803   3.096   3.464   0.955  0.6412 -1.4317 -0.1207
  801SOL    HW211804   3.152   3.331   1.031  1.4149 -0.2509  1.4038
  802SOL     OW11805   3.436   5.343   0.884 -0.7868 -0.3214 -0.0302
  802SOL    HW111806   3.402   5.408   0.816 -1.2754  0.7575  1.2181
  802SOL    HW211807   3.371   5.268   0.893  0.4003 -1.6826 -2.4059
  804SOL     OW11808   1.952   3.533   0.493  0.4681  0.4622 -0.0212
  804SOL    HW111809   1.907   3.622   0.488  0.5285  0.4701 -0.4555
  804SOL    HW211810   1.948   3.489   0.404 -1.7263 -1.0340  0.7771
  805SOL     OW11811   0.233   4.905   1.432 -0.0171  0.1064  0.0227
  805SOL    HW111812   0.270   4.960   1.357 -0.9772 -2.1031 -2.1294
  805SOL    HW211813   0.301   4.837   1.459 -0.7472 -1.0098 -0.8798
  806SOL     OW11814   3.218   1.841   0.481 -0.1752 -0.4675  0.4252
  806SOL    HW111815   3.129   1.886   0.488  0.2235  0.4426 -0.3073
  806SOL    HW211816   3.207   1.752   0.438 -0.4630  0.4822 -1.4960
  807SOL     OW11817   1.802   3.084   0.850  0.2777 -0.0296  0.3738
  807SOL    HW111818   1.801   2.986   0.833  1.5540  0.1777 -1.1073
  807SOL    HW211819   1.861   3.104   0.928 -0.4612 -0.4937  1.0476
  808SOL     OW11820   3.377   0.101   1.540 -0.3244 -1.0185 -0.0836
  808SOL    HW111821   3.341   0.194   1.534 -0.6707 -1.2418 -1.4265
  808SOL    HW211822   3.308   0.036   1.510  0.3480 -1.6293 -0.3120
  809SOL     OW11823   1.292   4.553   0.598 -0.2295  0.3912 -0.0710
  809SOL    HW111824   1.303   4.499   0.681 -2.6554  0.6623  0.4402
  809SOL    HW211825   1.300   4.492   0.518  1.4453  0.0295  0.3489
  810SOL     OW11826   4.571   1.975   1.550 -0.4734  0.4874  0.4163
  810SOL    HW111827   4.617   1.921   1.620  0.1729 -0.2838 -0.5887
  810SOL    HW211828   4.519   1.914   1.490  0.6892  0.9251 -1.0461
  811SOL     OW11829   1.126   6.076   0.569 -0.2071  0.3303 -0.1757
  811SOL    HW111830   1.198   6.013   0.540 -0.0597  0.5632 -0.3181
  811SOL    HW211831   1.095   6.052   0.661 -0.5708 -0.3165 -0.4692
  812SOL     OW11832   1.293   4.708   1.344  0.4257 -0.8123 -0.6360
  812SOL    HW111833   1.373   4.680   1.290  1.2777 -0.9516  0.6712
  812SOL    HW211834   1.270   4.802   1.323  1.5435 -0.4594 -0.3295
  814SOL     OW11835   0.239   4.767   0.686  0.1264  0.0635 -0.6526
  814SOL    HW111836   0.304   4.704   0.730 -0.7294 -1.7107 -1.8510
  814SOL    HW211837   0.254   4.765   0.587  0.0088  1.6793 -0.7006
  815SOL     OW11838   1.724   3.188   0.420  0.7970  0.0840  0.6507
  815SOL    HW111839   1.670   3.110   0.389  1.0722  0.0676  0.2177
  815SOL    HW211840   1.794   3.211   0.352 -0.0168  1.4366  0.2433
  816SOL     OW11841   4.117   3.431   1.591  0.0013 -0.0992  0.1558
  816SOL    HW111842   4.084   3.493   1.663 -1.6033 -0.2765 -0.4037
  816SOL    HW211843   4.192   3.475   1.541 -1.8576  1.8756 -0.9597
  817SOL     OW11844   2.900   5.701   2.032 -0.2288  0.0132 -0.3256
  817SOL    HW111845   2.901   5.768   1.958 -1.7533 -1.9648 -2.2155
  817SOL    HW211846   2.991   5.696   2.073  0.7426  0.9266 -2.2833
  819SOL     OW11847   1.509   4.662   0.921 -0.0278  0.5171 -0.4232
  819SOL    HW111848   1.594   4.714   0.927 -1.1794  2.3988  0.2574
  819SOL    HW211849   1.450   4.702   0.850 -0.6935 -0.2261 -0.2995
  820SOL     OW11850   3.166   3.941   1.396  0.1349  0.0111  0.3437
  820SOL    HW111851   3.071   3.924   1.422 -0.0269  0.1837 -0.1327
  820SOL    HW211852   3.171   3.957   1.298  0.5393  0.8444  0.4950
  821SOL     OW11853   9.472   5.248   0.957 -0.2607  0.6504 -0.6940
  821SOL    HW111854   9.483   5.288   0.866  0.2404 -1.8104 -1.7489
  821SOL    HW211855   9.381   5.270   0.993 -0.6128  1.2899 -1.9581
  822SOL     OW11856   0.637   4.426   1.773 -0.0450  0.1087 -0.2971
  822SOL    HW111857   0.545   4.466   1.775 -0.1627 -0.1629 -0.2891
  822SOL    HW211858   0.677   4.432   1.865 -0.7520 -1.3904  0.1189
  823SOL     OW11859   0.378   5.306   0.891  0.2891 -0.5084 -0.3852
  823SOL    HW111860   0.360   5.237   0.822  0.6517 -0.0358 -0.9547
  823SOL    HW211861   0.410   5.390   0.847  2.2720 -0.7771  0.4713
  824SOL     OW11862   3.162   1.149   1.572  0.2195 -0.1190 -0.1899
  824SOL    HW111863   3.128   1.068   1.523 -0.4657  0.4747 -0.7046
  824SOL    HW211864   3.102   1.227   1.554  0.5472  0.3675  0.7712
  825SOL     OW11865   0.740   5.534   2.102 -0.4678 -0.0633 -0.4539
  825SOL    HW111866   0.799   5.587   2.041 -0.1984 -0.7149 -0.7705
  825SOL    HW211867   0.650   5.522   2.060 -0.5677  0.2456 -0.3279
  826SOL     OW11868   1.121   3.377   2.176  0.5832 -0.2623  0.0065
  826SOL    HW111869   1.185   3.454   2.175 -0.3304  0.4915 -1.6202
  826SOL    HW211870   1.028   3.410   2.160  0.0045 -1.5612  0.5829
  828SOL     OW11871   0.886   3.517   2.152  0.3295  0.2578  0.4687
  828SOL    HW111872   0.930   3.506   2.063 -2.0553 -1.3723 -0.5822
  828SOL    HW211873   0.815   3.588   2.146  1.2601  1.3100  1.5412
  829SOL     OW11874   2.665   1.276   0.559 -0.6208  0.1885  0.6001
  829SOL    HW111875   2.661   1.368   0.519  0.5731  0.7809  1.8252
  829SOL    HW211876   2.592   1.220   0.519  0.9686  0.5295 -3.0025
  830SOL     OW11877   4.877   3.118   2.186  0.5567  0.1378  0.5475
  830SOL    HW111878   4.799   3.133   2.246  0.9566 -1.0990  1.3932
  830SOL    HW211879   4.855   3.150   2.094 -0.5730  0.7161  1.0109
  831SOL     OW11880   3.176   7.151   0.963  0.3685 -0.2941 -0.5146
  831SOL    HW111881   3.078   7.153   0.941  0.1578  1.7719  0.5399
  831SOL    HW211882   3.191   7.089   1.040  0.2059 -2.3126 -2.0725
  832SOL     OW11883   1.316   3.251   1.278 -0.8942  0.4652  0.5714
  832SOL    HW111884   1.386   3.249   1.206 -0.0522 -0.0511  1.3942
  832SOL    HW211885   1.226   3.239   1.237 -0.6760  2.7476 -0.6953
  833SOL     OW11886   1.586   2.951   2.184 -0.0525 -0.4072 -0.3296
  833SOL    HW111887   1.561   3.026   2.245  0.2675 -0.1212 -0.5461
  833SOL    HW211888   1.658   2.982   2.121 -0.0188 -0.8522 -0.5115
  834SOL     OW11889   3.927   8.716   1.116  0.3294  0.0996 -0.2330
  834SOL    HW111890   3.967   8.807   1.101  0.2728  0.0896 -0.4406
  834SOL    HW211891   3.973   8.673   1.194  0.6274  0.1468 -0.3822
  835SOL     OW11892   3.024   2.188   1.535  0.5372 -0.0426 -0.4674
  835SOL    HW111893   3.055   2.122   1.467  3.1357  0.5600  0.0677
  835SOL    HW211894   3.012   2.277   1.492  0.2216 -0.1211 -0.5405
  837SOL     OW11895   1.263   4.483   1.514 -0.5979 -0.0165  0.2972
  837SOL    HW111896   1.191   4.428   1.472 -0.1935  0.1672 -0.6518
  837SOL    HW211897   1.274   4.569   1.464 -0.9364  0.7551  1.5141
  839SOL     OW11898   2.556   9.494   0.490  0.0319 -0.1430  0.2272
  839SOL    HW111899   2.504   9.512   0.574 -0.2977 -0.1677  0.0296
  839SOL    HW211900   2.541   9.399   0.462 -1.0699  0.2876 -0.6915
  840SOL     OW11901   3.561   2.235   0.814 -0.0322 -0.5765 -0.1333
  840SOL    HW111902   3.564   2.202   0.909  0.7969  0.9860  0.4034
  840SOL    HW211903   3.630   2.307   0.802  0.1106 -1.0018 -2.0221
  841SOL     OW11904   1.655   6.769   0.615  0.5087 -0.1992 -0.2667
  841SOL    HW111905   1.690   6.675   0.623  1.5406  0.1499 -0.6026
  841SOL    HW211906   1.727   6.833   0.639 -0.0340  0.5276 -0.5704
  843SOL     OW11907   3.161   5.353   1.813 -0.3329 -0.0223  0.3349
  843SOL    HW111908   3.076   5.383   1.856 -0.9231  1.6013 -1.8544
  843SOL    HW211909   3.239   5.388   1.865 -1.0183  1.0499  0.6522
  844SOL     OW11910   4.035   3.475   1.853 -0.0660 -0.4632 -0.2800
  844SOL    HW111911   4.126   3.512   1.870 -1.1324  1.1044  2.2813
  844SOL    HW211912   4.028   3.384   1.894 -0.1837  0.1433  1.0833
  845SOL     OW11913   4.851   3.321   1.431  0.3675  0.0693  0.0595
  845SOL    HW111914   4.882   3.265   1.354  0.0777  1.2308 -0.9126
  845SOL    HW211915   4.769   3.372   1.405 -0.1234 -0.0106  1.3582
  846SOL     OW11916   5.336   2.852   1.249 -0.2711 -0.3742  0.4034
  846SOL    HW111917   5.390   2.850   1.333 -1.4394  0.6787  1.2010
  846SOL    HW211918   5.395   2.834   1.171  1.9551  3.8776  0.9267
  847SOL     OW11919   3.423   3.103   1.161  0.1170  0.5217  0.0024
  847SOL    HW111920   3.350   3.132   1.099 -1.8937  0.0508  2.0930
  847SOL    HW211921   3.430   3.168   1.237  2.6883  1.2046 -0.7416
  849SOL     OW11922   4.045   0.922   1.232  0.0417 -0.1142 -0.6588
  849SOL    HW111923   4.002   0.941   1.144  0.2058 -0.3730 -0.7956
  849SOL    HW211924   4.082   0.829   1.232 -2.5795 -1.1957  0.7383
  851SOL     OW11925   1.168   4.450   2.929 -0.1616 -0.5113  0.7492
  851SOL    HW111926   1.211   4.371   2.884  0.6571 -0.0755  0.7426
  851SOL    HW211927   1.170   4.528   2.867  1.7320  0.3259  1.8076
  852SOL     OW11928   3.008   5.964   1.502  0.2869  0.1883 -0.3351
  852SOL    HW111929   2.956   6.047   1.524  0.0754  0.3526 -1.4274
  852SOL    HW211930   2.959   5.884   1.537 -0.6169  0.3556 -1.1975
  853SOL     OW11931   2.157   4.662   1.347  0.3933  0.7126  0.1664
  853SOL    HW111932   2.121   4.610   1.424  0.1110  3.1371  1.7335
  853SOL    HW211933   2.243   4.621   1.316  1.4168  0.6954  2.9224
  855SOL     OW11934   2.902   7.055   1.043 -0.1698  0.3461 -0.5058
  855SOL    HW111935   2.825   7.114   1.067 -2.1854 -1.4678 -2.3582
  855SOL    HW211936   2.888   7.017   0.952  2.5906 -0.5990 -0.5840
  856SOL     OW11937   2.477   8.111   1.801  0.4597  0.7562 -0.0769
  856SOL    HW111938   2.410   8.172   1.844 -0.5598 -1.0272  0.9182
  856SOL    HW211939   2.481   8.129   1.703 -1.4463  0.9339 -0.1360
  857SOL     OW11940   3.780   0.133   1.740  0.0939 -0.1596 -0.3501
  857SOL    HW111941   3.860   0.073   1.748 -0.2533 -0.4099  1.4303
  857SOL    HW211942   3.803   0.213   1.686  1.2782 -0.7022 -0.6516
  859SOL     OW11943   1.195   5.370   1.471 -0.5868 -0.0013  0.6640
  859SOL    HW111944   1.109   5.328   1.501 -0.3809 -0.5854  0.4311
  859SOL    HW211945   1.268   5.302   1.472 -0.7808 -0.2856 -2.0901
  860SOL     OW11946   0.553   5.488   0.773 -0.0451 -0.0111  0.5208
  860SOL    HW111947   0.564   5.542   0.690 -1.4463  0.7996  0.8338
  860SOL    HW211948   0.641   5.449   0.801  0.7693  1.2147 -0.3188
  861SOL     OW11949   2.226   6.444   1.657  0.0202  0.4039  0.1931
  861SOL    HW111950   2.146   6.419   1.603 -0.0669  1.1851 -0.0559
  861SOL    HW211951   2.216   6.408   1.749 -0.1582 -0.3447 -0.1182
  862SOL     OW11952   3.668   7.623   0.886 -0.0165 -0.6843 -0.8278
  862SOL    HW111953   3.758   7.646   0.849  0.4406 -3.0963 -1.3221
  862SOL    HW211954   3.597   7.660   0.826  0.5843  2.1408  0.1271
  863SOL     OW11955   3.879   4.011   2.205 -0.0322  0.1313  0.0763
  863SOL    HW111956   3.886   4.108   2.183  0.1121  0.6267  2.1757
  863SOL    HW211957   3.894   3.956   2.122 -0.7219  1.8976 -1.2410
  864SOL     OW11958   9.746   4.833   1.563 -0.3259 -0.0751  0.1242
  864SOL    HW111959   9.740   4.767   1.638  0.1770 -0.0604  0.1836
  864SOL    HW211960   9.795   4.791   1.486  2.5868  1.1648  1.2314
  866SOL     OW11961   4.012   8.433   0.720 -0.1791 -0.7740 -0.7190
  866SOL    HW111962   4.043   8.427   0.815 -0.4675 -1.9711 -0.7018
  866SOL    HW211963   4.084   8.400   0.660 -0.0816 -0.2193 -0.9115
  867SOL     OW11964   2.689   0.194   1.128 -0.4263  0.0996 -0.1896
  867SOL    HW111965   2.598   0.154   1.135 -0.1971 -0.3710  0.2167
  867SOL    HW211966   2.716   0.231   1.217 -1.0885  2.1956 -0.8515
  868SOL     OW11967   4.663   3.496   1.299  0.5072  0.6294 -0.0309
  868SOL    HW111968   4.581   3.548   1.324  0.0329 -0.1085 -0.0434
  868SOL    HW211969   4.716   3.549   1.233 -0.6645  0.5476 -1.0782
  869SOL     OW11970   1.974   6.931   0.987 -0.0973  0.3806 -0.2798
  869SOL    HW111971   1.991   6.833   0.974  0.1857  0.1258  1.7401
  869SOL    HW211972   2.036   6.966   1.058 -0.2131  2.0229 -0.9785
  871SOL     OW11973   1.265   6.202   1.213  0.4666 -0.1876 -0.6075
  871SOL    HW111974   1.270   6.108   1.181  1.6260 -0.5935  0.7161
  871SOL    HW211975   1.353   6.229   1.254 -0.4307  0.8277  0.7335
  872SOL     OW11976   1.698   3.858   1.390  0.1255  0.4818  0.0116
  872SOL    HW111977   1.723   3.938   1.336  0.0968  1.1353  0.9608
  872SOL    HW211978   1.771   3.838   1.456  0.4657 -0.7137 -0.7179
  873SOL     OW11979   4.777   1.917   0.870  0.1738 -1.1036  0.1714
  873SOL    HW111980   4.680   1.940   0.881  0.1859 -0.2698 -1.3040
  873SOL    HW211981   4.830   1.967   0.938 -0.3602 -1.0249  0.5407
  874SOL     OW11982   1.026   4.522   0.912 -0.0158 -0.1132  0.2436
  874SOL    HW111983   0.994   4.547   0.820  0.4760  0.8377  0.3298
  874SOL    HW211984   1.114   4.476   0.905  1.0259  1.8234  0.3851
  875SOL     OW11985   2.912   5.747   1.618 -0.3667 -0.1965 -0.2165
  875SOL    HW111986   2.962   5.669   1.579 -1.5452 -1.6091  1.0411
  875SOL    HW211987   2.848   5.714   1.688 -0.5043  1.9742  0.7018
  876SOL     OW11988   2.086   4.914   2.257 -0.0068  0.3600  0.6720
  876SOL    HW111989   2.075   4.872   2.347  0.9057  0.3399  0.7760
  876SOL    HW211990   2.183   4.919   2.234 -0.2788 -0.5570 -0.7538
  877SOL     OW11991   3.799   2.871   2.253  0.1642 -0.4868 -0.6213
  877SOL    HW111992   3.747   2.838   2.331  0.0780  0.1664 -0.4005
  877SOL    HW211993   3.742   2.933   2.199  0.9361  0.8011  0.0200
  878SOL     OW11994   4.691   3.653   1.680 -1.0534 -0.0829  0.4293
  878SOL    HW111995   4.623   3.725   1.666 -1.1978 -0.3301 -0.1665
  878SOL    HW211996   4.779   3.684   1.646 -1.3870 -0.6535 -0.9696
  881SOL     OW11997   1.899   7.031   1.521  0.0704  0.5283  0.4659
  881SOL    HW111998   1.805   7.040   1.490 -0.0319  2.1819  1.1580
  881SOL    HW211999   1.901   7.021   1.620  0.5343 -1.5702  0.2559
  882SOL     OW12000   2.363   9.148   0.499  0.4539  0.2974 -0.2710
  882SOL    HW112001   2.377   9.052   0.472  3.1354  0.0723  1.7302
  882SOL    HW212002   2.421   9.207   0.444 -0.3108  0.6534 -0.6930
  883SOL     OW12003   4.583   3.010   2.135  0.1045 -0.0437 -0.2575
  883SOL    HW112004   4.509   3.075   2.116 -0.3182 -0.6070 -0.5484
  883SOL    HW212005   4.608   3.015   2.231  0.5082  1.0048 -0.4080
  884SOL     OW12006   3.026   1.243   2.318  0.1412 -0.1806  0.1382
  884SOL    HW112007   3.002   1.166   2.259 -0.1359  1.9271 -2.6201
  884SOL    HW212008   3.124   1.242   2.337  0.1152 -1.2775  0.2412
  885SOL     OW12009   2.846   6.904   2.115  0.2434  0.0834  0.4196
  885SOL    HW112010   2.886   6.904   2.207  1.6690 -2.5782 -0.1273
  885SOL    HW212011   2.792   6.820   2.103 -1.9464  1.5657 -0.3700
  886SOL     OW12012   4.030   3.001   2.168 -0.4052  0.0334 -0.4545
  886SOL    HW112013   4.029   3.097   2.197 -0.8263 -1.2769  4.3174
  886SOL    HW212014   3.953   2.953   2.209 -0.1645 -2.4096 -2.7315
  887SOL     OW12015   1.921   5.228   0.616  0.4898  0.2777  0.1453
  887SOL    HW112016   1.978   5.311   0.616  0.4603  0.3156 -1.4952
  887SOL    HW212017   1.980   5.148   0.613  0.4786  0.2970 -0.6536
  888SOL     OW12018   3.278   5.885   0.433  0.2733  0.3908 -0.0360
  888SOL    HW112019   3.367   5.857   0.398  0.0392 -1.2818  0.6578
  888SOL    HW212020   3.261   5.842   0.522 -2.2265 -1.2725 -1.2492
  891SOL     OW12021   2.924   4.656   0.893 -0.4581 -0.0822 -0.2553
  891SOL    HW112022   2.904   4.592   0.967 -0.5456  1.5066  1.1163
  891SOL    HW212023   2.890   4.747   0.917  1.1486  0.8574 -1.4429
  892SOL     OW12024   9.099   5.455   0.802 -0.1728  0.5160  1.0018
  892SOL    HW112025   9.160   5.494   0.734  0.9027 -0.0167  1.6527
  892SOL    HW212026   9.040   5.527   0.839  0.5478  1.1760  0.8770
  893SOL     OW12027   3.672   4.692   2.054 -0.0278  0.6261 -0.3730
  893SOL    HW112028   3.660   4.757   1.979 -0.5822  0.6364 -0.2791
  893SOL    HW212029   3.660   4.740   2.141 -0.9778  0.2974 -0.3137
  895SOL     OW12030   3.383   1.464   1.929 -0.7059 -0.1426 -0.0820
  895SOL    HW112031   3.477   1.496   1.918 -1.1568  0.8176 -1.1652
  895SOL    HW212032   3.383   1.364   1.934  0.4059 -0.1340  0.2938
  896SOL     OW12033   0.568   5.156   1.023  0.5239  0.1049 -0.1053
  896SOL    HW112034   0.593   5.073   0.974 -0.8187 -1.2168  1.3918
  896SOL    HW212035   0.500   5.207   0.971  1.4803  0.3847 -1.1107
  897SOL     OW12036   3.111   0.452   1.250  0.5476 -0.0820 -0.1113
  897SOL    HW112037   3.129   0.436   1.153 -0.3897 -2.2649  0.0430
  897SOL    HW212038   3.086   0.547   1.264  1.1714  0.3783 -1.9275
  898SOL     OW12039   2.937   9.104   1.701  0.1604  0.0623 -0.1616
  898SOL    HW112040   3.031   9.081   1.727  0.5930 -0.8743 -2.4418
  898SOL    HW212041   2.903   9.037   1.635 -1.8667  0.7862  0.1182
  900SOL     OW12042   5.465   3.266   1.324  0.2209  0.0690 -0.4247
  900SOL    HW112043   5.381   3.255   1.270  1.0045  3.4632 -2.5288
  900SOL    HW212044   5.452   3.341   1.390  0.6750 -1.3044  1.2582
  901SOL     OW12045   4.673   0.820   1.037 -0.1759  0.0295  0.0621
  901SOL    HW112046   4.678   0.776   0.947  0.9818  0.8399 -0.2768
  901SOL    HW212047   4.706   0.756   1.107  0.3382 -0.0788 -0.2751
  902SOL     OW12048   3.319   1.915   1.803  0.3393 -0.0790 -0.4050
  902SOL    HW112049   3.358   1.975   1.734  1.3916  1.0727  1.1508
  902SOL    HW212050   3.255   1.966   1.860  0.4698 -0.6717  0.2923
  903SOL     OW12051   1.102   3.544   0.941  0.1976 -0.0097  0.4704
  903SOL    HW112052   1.197   3.575   0.952  0.3982 -0.4534  0.0102
  903SOL    HW212053   1.046   3.619   0.905  0.3045  0.3471  1.0280
  904SOL     OW12054   4.232   8.374   0.562  0.3616  0.6616 -0.3015
  904SOL    HW112055   4.258   8.471   0.563 -1.3277  1.1269 -0.0190
  904SOL    HW212056   4.218   8.345   0.468  1.9877  0.3766 -0.4634
  905SOL     OW12057   2.929   7.872   1.306  0.4832  0.6177  0.0681
  905SOL    HW112058   2.928   7.903   1.211 -0.7972  1.3365  0.3099
  905SOL    HW212059   2.892   7.943   1.365 -1.8736 -1.0908  0.7219
  906SOL     OW12060   1.078   5.694   0.819  0.5482 -0.2538  0.0146
  906SOL    HW112061   1.003   5.722   0.759  0.3783  1.1863  0.8699
  906SOL    HW212062   1.165   5.713   0.774  0.4174 -0.8265 -0.4915
  907SOL     OW12063   3.406   2.591   1.994 -0.0331 -0.9733 -0.1403
  907SOL    HW112064   3.505   2.600   1.977 -0.0013 -1.5298 -0.2684
  907SOL    HW212065   3.382   2.642   2.077  0.5560 -1.6928  0.4941
  908SOL     OW12066   9.629   4.401   1.435  0.0856 -0.3695 -0.3258
  908SOL    HW112067   9.696   4.463   1.394  0.8905 -0.1431  1.3117
  908SOL    HW212068   9.595   4.441   1.520 -2.6315 -0.1658 -1.4415
  909SOL     OW12069   3.609   8.619   0.794  0.1211  0.4241 -0.6402
  909SOL    HW112070   3.596   8.568   0.709  1.6512 -2.1989  0.6131
  909SOL    HW212071   3.704   8.649   0.802 -0.5467  2.7000 -0.9022
  910SOL     OW12072   3.845   2.743   1.375  0.0614  0.0281  0.0613
  910SOL    HW112073   3.842   2.724   1.473  0.0121 -2.8285 -0.4666
  910SOL    HW212074   3.939   2.763   1.348  0.1666  0.2523  0.5808
  911SOL     OW12075   3.162   8.321   1.754  0.1963 -0.0273  0.2268
  911SOL    HW112076   3.067   8.352   1.754 -0.5103 -2.1237  0.6872
  911SOL    HW212077   3.206   8.346   1.840 -0.3684 -0.3202  0.5994
  912SOL     OW12078   9.305   5.357   0.433  0.5772 -0.1118 -0.0160
  912SOL    HW112079   9.321   5.262   0.460 -0.2688 -0.2596 -0.0350
  912SOL    HW212080   9.241   5.359   0.356  0.9266  0.4529 -0.2934
  913SOL     OW12081   5.017   4.250   0.738  0.4633  0.0218  0.6858
  913SOL    HW112082   5.100   4.206   0.771 -0.7559 -1.8732  1.2415
  913SOL    HW212083   4.974   4.301   0.813  0.7707  0.4747  0.5574
  914SOL     OW12084   4.851   2.532   0.859  0.0624  0.1543  0.0521
  914SOL    HW112085   4.877   2.627   0.844 -1.9289  0.7189 -0.0278
  914SOL    HW212086   4.850   2.513   0.958  1.9128 -0.2355  0.0134
  916SOL     OW12087   2.979   8.730   0.621 -0.5083  0.1199  0.2242
  916SOL    HW112088   3.053   8.797   0.627  0.4263 -0.7612 -1.1289
  916SOL    HW212089   2.901   8.771   0.573 -0.0948  0.3767 -0.2340
  917SOL     OW12090   4.663   3.058   1.409 -0.1293  0.1246 -0.8919
  917SOL    HW112091   4.644   3.104   1.323  0.5088  1.8193 -0.1318
  917SOL    HW212092   4.596   3.086   1.478 -0.1173 -0.5691 -0.5875
  918SOL     OW12093   3.936   3.327   0.729 -0.0054  0.0241  0.0802
  918SOL    HW112094   3.892   3.337   0.819  0.1850  1.2847  0.0397
  918SOL    HW212095   3.995   3.247   0.730 -0.7229 -0.5141  0.7851
  919SOL     OW12096   3.438   8.831   0.803  0.2535 -0.5961  0.4298
  919SOL    HW112097   3.485   8.892   0.740 -0.2209 -0.0963  0.5606
  919SOL    HW212098   3.495   8.750   0.819 -0.3057 -1.4852 -1.8701
  920SOL     OW12099   4.112   9.726   0.435  0.0836 -0.0520 -0.0987
  920SOL    HW112100   4.184   9.662   0.409 -0.6429 -1.0100  0.2019
  920SOL    HW212101   4.115   9.806   0.375  1.5345  0.0314  0.0664
  921SOL     OW12102   2.282   5.385   1.177  0.1196  0.0512  0.1285
  921SOL    HW112103   2.251   5.479   1.161  1.5492  0.2499 -1.6827
  921SOL    HW212104   2.301   5.373   1.274 -3.7701  0.4526  1.0386
  922SOL     OW12105   4.190   4.567   0.851  0.6196 -0.2429 -0.2870
  922SOL    HW112106   4.249   4.495   0.886  2.4186  0.5275 -1.6270
  922SOL    HW212107   4.111   4.527   0.805  1.4801 -1.3433 -0.8194
  923SOL     OW12108   3.877   0.742   0.657  0.0879  0.8935 -0.0277
  923SOL    HW112109   3.896   0.671   0.724  3.4089  2.3924  0.7652
  923SOL    HW212110   3.906   0.712   0.567 -0.5088  0.4236 -0.0590
  924SOL     OW12111   2.341   6.335   0.663  0.0112 -0.2548 -0.7496
  924SOL    HW112112   2.299   6.370   0.579  0.0867  1.8929  0.0787
  924SOL    HW212113   2.440   6.329   0.651 -0.0367 -0.5529 -1.0117
  925SOL     OW12114   2.535   2.329   0.750 -0.0063 -0.5554 -0.1704
  925SOL    HW112115   2.514   2.284   0.663  0.0764 -0.0982 -0.4294
  925SOL    HW212116   2.470   2.299   0.820  1.0286 -2.2890  0.0672
  926SOL     OW12117   3.830   1.281   1.904 -0.1027  0.4150  0.1694
  926SOL    HW112118   3.753   1.334   1.868  0.6744 -0.9521 -3.7939
  926SOL    HW212119   3.803   1.185   1.910  1.1373 -0.0100 -0.8641
  928SOL     OW12120   4.184  -0.038   1.069 -0.2133  0.9001  0.2458
  928SOL    HW112121   4.146   0.050   1.039  1.1676  1.2850 -0.4251
  928SOL    HW212122   4.154  -0.110   1.007 -0.1327  1.1481 -0.0826
  929SOL     OW12123   2.650   8.994   1.327 -0.0682  0.3303  0.5137
  929SOL    HW112124   2.702   9.062   1.378 -1.6255  0.9298  1.3303
  929SOL    HW212125   2.688   8.903   1.346  0.7162  0.7548  1.0413
  930SOL     OW12126   1.916   4.215   0.442 -0.3245  0.8423  0.3182
  930SOL    HW112127   1.900   4.239   0.346 -0.0600  0.8804  0.2825
  930SOL    HW212128   1.876   4.286   0.500  0.5006  1.4135  0.2107
  931SOL     OW12129   3.289   5.109   0.942  0.4078 -0.4921  0.2811
  931SOL    HW112130   3.284   5.038   0.872  0.8456 -1.0744  0.8371
  931SOL    HW212131   3.197   5.145   0.959  0.0696 -1.4384  0.5056
  932SOL     OW12132   3.511   8.147   1.901 -0.0550 -0.2424  0.3675
  932SOL    HW112133   3.467   8.222   1.950  0.5057 -0.1090  0.6804
  932SOL    HW212134   3.443   8.080   1.873 -0.4856  0.0987  0.5992
  934SOL     OW12135   3.158   7.609   1.410 -0.0403  0.5203 -0.5667
  934SOL    HW112136   3.199   7.692   1.371  1.0005  0.9661  1.4041
  934SOL    HW212137   3.087   7.635   1.475  0.6316 -0.1290  0.4320
  935SOL     OW12138   3.351   2.884   0.955  0.0080 -0.4652 -0.2498
  935SOL    HW112139   3.277   2.891   0.887  0.2864  0.7747 -0.4233
  935SOL    HW212140   3.366   2.973   0.998 -0.7083 -1.3991  2.0385
  936SOL     OW12141   3.257   0.351   1.488  0.0579  0.6428  0.1539
  936SOL    HW112142   3.212   0.362   1.399 -1.1252 -0.2964  0.6207
  936SOL    HW212143   3.314   0.431   1.506  0.0096  1.0178 -1.2797
  937SOL     OW12144   3.282   8.745   1.400 -0.0030  0.0621  0.1896
  937SOL    HW112145   3.340   8.714   1.474 -0.4007 -1.2153 -0.0139
  937SOL    HW212146   3.210   8.677   1.383 -0.1058  0.4870 -1.1475
  938SOL     OW12147   3.560   2.030   0.505  0.0317 -0.0715  0.2481
  938SOL    HW112148   3.574   1.993   0.413  0.8347 -0.0371  0.3529
  938SOL    HW212149   3.511   1.963   0.561  3.3021 -1.9015  1.0596
  939SOL     OW12150   3.254   3.248   1.968 -0.0503  1.0061  0.3376
  939SOL    HW112151   3.228   3.210   2.056  0.1152  2.0051  0.8242
  939SOL    HW212152   3.199   3.206   1.896  0.2563 -0.2784  0.8382
  940SOL     OW12153   1.413   6.642   0.354 -0.1192  0.0579  0.4414
  940SOL    HW112154   1.403   6.682   0.263 -0.1812  0.4859  0.6322
  940SOL    HW212155   1.510   6.631   0.375 -0.1128 -0.5117  0.1238
  941SOL     OW12156   4.953   3.921   2.077 -0.0081 -0.0699 -0.1377
  941SOL    HW112157   4.982   3.870   2.158  0.6571  2.3701  1.2295
  941SOL    HW212158   4.888   3.992   2.104  0.1555  0.7149 -1.7570
  943SOL     OW12159   2.068   4.004   2.357 -0.5235 -0.3200  0.4174
  943SOL    HW112160   2.094   3.936   2.426  0.2142 -1.1602 -0.6615
  943SOL    HW212161   2.146   4.020   2.296 -1.2980  0.1026 -0.4687
  945SOL     OW12162   2.574   4.325   2.139  0.0825 -0.5276  0.0809
  945SOL    HW112163   2.628   4.381   2.076 -0.6961 -1.7132 -1.7062
  945SOL    HW212164   2.490   4.373   2.162  0.2785 -0.1635  0.0434
  946SOL     OW12165   3.139   4.496   1.569 -0.0940  0.2513 -0.5756
  946SOL    HW112166   3.229   4.538   1.573 -0.0026  0.1209 -1.2508
  946SOL    HW212167   3.108   4.490   1.474  0.0313 -1.4902 -0.5379
  947SOL     OW12168   3.740   4.535   0.607 -0.0695  0.0843  0.0688
  947SOL    HW112169   3.758   4.631   0.584 -1.9739  0.5319  0.3649
  947SOL    HW212170   3.641   4.521   0.616  0.2330 -1.7639  0.6681
  948SOL     OW12171   3.033   1.981   1.709  0.6083  0.2665 -0.0567
  948SOL    HW112172   3.087   1.930   1.642 -1.8105 -1.7132 -0.5695
  948SOL    HW212173   3.001   2.066   1.668 -0.5430 -0.7536 -1.3332
  949SOL     OW12174   9.405   5.721   0.455 -0.0298 -0.2959  0.5481
  949SOL    HW112175   9.425   5.812   0.420 -0.5693 -0.5486 -0.4243
  949SOL    HW212176   9.443   5.652   0.393  1.6674 -0.7557  2.0198
  950SOL     OW12177   9.274   4.868   2.178 -0.3678  0.0216 -0.1446
  950SOL    HW112178   9.271   4.794   2.245  0.8993 -1.5839 -1.7956
  950SOL    HW212179   9.341   4.937   2.207  1.2495 -1.3905 -0.4571
  951SOL     OW12180   4.023   9.832   0.868 -0.5381 -0.3511  0.0689
  951SOL    HW112181   4.022   9.762   0.797 -1.1799 -0.2725  0.0021
  951SOL    HW212182   3.946   9.894   0.855 -0.5513 -0.2272  0.7233
  952SOL     OW12183   0.278   3.975   1.615 -0.5770  0.1724  0.1137
  952SOL    HW112184   0.192   3.978   1.564 -1.1253  0.5323  1.0449
  952SOL    HW212185   0.343   4.039   1.574 -1.6152  1.7684  0.9355
  953SOL     OW12186   2.356   4.527   2.143  0.4026  0.5188  0.1392
  953SOL    HW112187   2.276   4.500   2.196 -0.2274 -0.7989 -1.4429
  953SOL    HW212188   2.405   4.599   2.191 -1.3385  0.8409  1.4719
  954SOL     OW12189   3.290   2.329   0.806 -0.2842  0.4501  0.2190
  954SOL    HW112190   3.374   2.275   0.796  0.0546  0.7812  1.2045
  954SOL    HW212191   3.255   2.319   0.899 -1.4920  0.1092 -0.2649
  955SOL     OW12192   3.394   2.333   2.134  0.1658  0.5989 -0.5443
  955SOL    HW112193   3.365   2.402   2.067 -0.6169  2.6514  1.8232
  955SOL    HW212194   3.481   2.361   2.175 -0.7878  0.8530  1.3517
  958SOL     OW12195   2.581   6.227   1.825 -0.2227 -0.2179 -0.4232
  958SOL    HW112196   2.567   6.161   1.751  0.9076 -0.6631 -0.2546
  958SOL    HW212197   2.550   6.187   1.911  1.5329 -0.9947 -0.1350
  960SOL     OW12198   0.867   5.992   0.508  0.2834  0.1366  0.6300
  960SOL    HW112199   0.953   6.043   0.521  0.5798  0.2848 -1.6703
  960SOL    HW212200   0.806   6.009   0.586  1.6998  1.3375  1.5058
  961SOL     OW12201   3.317   0.735   0.854  0.1021  0.3075 -0.0746
  961SOL    HW112202   3.346   0.822   0.893 -1.4258  0.9636 -0.3512
  961SOL    HW212203   3.220   0.741   0.829 -0.7002 -2.2148  2.1194
  962SOL     OW12204   3.094   1.617   1.400  0.4164 -0.3901 -0.0841
  962SOL    HW112205   3.115   1.715   1.404  0.3586 -0.3568 -0.5101
  962SOL    HW212206   2.996   1.605   1.388  0.7546 -0.3996 -3.3467
  963SOL     OW12207   4.173   4.094   1.208 -0.6257 -0.5599  0.5685
  963SOL    HW112208   4.141   4.064   1.298 -0.4813 -1.7482  0.2320
  963SOL    HW212209   4.257   4.045   1.184 -0.3693  0.1378  0.0094
  964SOL     OW12210   3.920   8.322   1.906  0.0446  0.1409  0.1076
  964SOL    HW112211   3.917   8.282   1.814  1.5974  1.7239 -0.6575
  964SOL    HW212212   3.877   8.413   1.905 -1.7058 -0.6265  1.4113
  965SOL     OW12213   4.934   4.815   0.628  0.2187 -0.5176 -0.2449
  965SOL    HW112214   4.973   4.840   0.540 -0.8072 -0.2250 -0.6225
  965SOL    HW212215   4.849   4.764   0.614  0.0785 -0.5134  0.5709
  966SOL     OW12216   3.019   6.024   0.977  0.4241  0.0051 -0.4129
  966SOL    HW112217   3.078   5.967   1.033 -1.6645 -1.7751  0.0472
  966SOL    HW212218   2.988   6.103   1.031  0.5621 -0.2708  0.0670
  967SOL     OW12219   1.008   3.124   2.198 -0.3442 -0.2532 -0.2045
  967SOL    HW112220   1.036   3.219   2.184 -1.3246  0.1050  0.2405
  967SOL    HW212221   0.910   3.120   2.218  0.0754 -1.1778  1.8028
  968SOL     OW12222   3.842   1.665   0.385 -0.4913 -0.0752 -0.4946
  968SOL    HW112223   3.834   1.712   0.472  0.4700 -1.3374  0.2886
  968SOL    HW212224   3.845   1.566   0.400 -1.3002 -0.3555 -2.0322
  969SOL     OW12225   2.796   0.508   0.893 -0.6242 -0.1054 -0.0312
  969SOL    HW112226   2.795   0.529   0.796  1.6549  0.2873 -0.0100
  969SOL    HW212227   2.810   0.409   0.905 -1.6044 -0.2555 -0.0953
  971SOL     OW12228   2.838   0.237   0.908  0.2039 -0.2329 -0.3663
  971SOL    HW112229   2.865   0.149   0.868 -0.8526 -0.4237 -0.6960
  971SOL    HW212230   2.786   0.220   0.993  1.5188  0.1342  0.5267
  972SOL     OW12231   0.969   5.399   2.260  0.9237 -0.4578  0.1176
  972SOL    HW112232   1.038   5.391   2.189  0.8105  3.1417 -0.4863
  972SOL    HW212233   0.883   5.430   2.220  0.2549 -0.4237  1.5350
  973SOL     OW12234   0.379   5.107   1.674 -0.3506  0.0964 -0.4896
  973SOL    HW112235   0.296   5.052   1.682  0.8903 -1.5868  1.4170
  973SOL    HW212236   0.425   5.087   1.588 -0.0415 -1.7410  0.0795
  974SOL     OW12237   3.781   4.450   2.028  0.3068 -0.7919  0.2395
  974SOL    HW112238   3.823   4.427   2.115  1.9337  0.2130 -0.2405
  974SOL    HW212239   3.739   4.541   2.034  3.3087  0.7415 -0.9246
  977SOL     OW12240   3.411   8.671   1.861  0.5189 -0.3738  0.5470
  977SOL    HW112241   3.503   8.668   1.898  0.8714 -0.1801 -0.3112
  977SOL    HW212242   3.414   8.665   1.761 -0.5243 -3.0878  0.6251
  978SOL     OW12243   5.159   2.506   1.340  0.7873  0.4034  0.1123
  978SOL    HW112244   5.207   2.516   1.427 -2.2547  1.5812  1.7263
  978SOL    HW212245   5.147   2.596   1.298  1.6273 -0.0887 -1.2248
  980SOL     OW12246   2.538   6.914   0.611  0.0487 -0.4888 -0.3094
  980SOL    HW112247   2.565   7.006   0.583  0.7986 -0.8516 -0.7996
  980SOL    HW212248   2.449   6.918   0.656  0.0335  0.4621 -0.4038
  981SOL     OW12249   0.110   5.785   1.220  0.3051  0.3029  0.8688
  981SOL    HW112250   0.039   5.801   1.289  1.9404 -1.1231  2.9158
  981SOL    HW212251   0.200   5.796   1.261  1.3130 -0.5977 -1.0472
  982SOL     OW12252   4.177   2.204   0.832 -0.1816 -0.6492 -0.2097
  982SOL    HW112253   4.252   2.147   0.866  0.4398 -0.7356 -1.6549
  982SOL    HW212254   4.125   2.241   0.909  1.8054  0.0292  0.8574
  983SOL     OW12255   0.710   4.183   0.370  0.1843 -0.1041  0.3018
  983SOL    HW112256   0.638   4.252   0.366 -0.0810 -0.4562 -2.0983
  983SOL    HW212257   0.681   4.107   0.427 -0.8101  0.3569  0.4178
  984SOL     OW12258   1.955   2.393   0.869 -1.0350  0.9152  0.4822
  984SOL    HW112259   1.971   2.303   0.910 -1.2647 -0.7627 -3.0094
  984SOL    HW212260   2.042   2.442   0.863 -0.8179  0.7261  1.8925
  986SOL     OW12261   3.859   1.358   1.527  0.1656 -0.6950 -0.2260
  986SOL    HW112262   3.815   1.375   1.616  0.7938 -0.6786  0.0828
  986SOL    HW212263   3.921   1.281   1.536 -0.2598 -1.1041 -0.8197
  988SOL     OW12264   3.038   5.137   2.927 -0.6290 -0.8549 -0.1586
  988SOL    HW112265   2.975   5.208   2.897  0.1024  0.2612  0.9131
  988SOL    HW212266   3.129   5.154   2.889 -0.8736 -2.2979 -1.4601
  990SOL     OW12267   2.829   8.899   2.163  0.1238  0.1233 -0.5001
  990SOL    HW112268   2.762   8.967   2.133  0.2719  0.6910  0.4345
  990SOL    HW212269   2.873   8.858   2.083 -1.0212  0.0634 -1.1111
  992SOL     OW12270   2.740   0.418   1.682 -0.1007 -0.0686  0.2122
  992SOL    HW112271   2.816   0.470   1.642 -0.9291 -0.2270 -1.6584
  992SOL    HW212272   2.723   0.336   1.627  1.8146 -2.9442  3.6818
  993SOL     OW12273   3.618   4.867   1.822 -0.2310  0.4071  0.5072
  993SOL    HW112274   3.541   4.845   1.762 -0.7205 -2.4924  2.0968
  993SOL    HW212275   3.703   4.865   1.770 -0.9503  1.0942 -0.7230
  994SOL     OW12276   2.441   9.033   2.195 -0.2149 -0.5605 -0.1734
  994SOL    HW112277   2.435   9.010   2.292  0.7710 -0.3432 -0.0529
  994SOL    HW212278   2.480   9.125   2.185 -1.4359 -0.1034 -0.7393
  995SOL     OW12279   1.194   2.993   2.043 -0.3950  0.2050  0.2994
  995SOL    HW112280   1.144   3.042   2.115 -1.4018 -0.4267  0.0373
  995SOL    HW212281   1.235   2.910   2.081 -0.6605  0.0374  0.2253
  997SOL     OW12282   1.262   6.318   0.597 -0.2372  0.0098  0.2938
  997SOL    HW112283   1.205   6.238   0.613  1.0662 -0.8365  0.7989
  997SOL    HW212284   1.262   6.377   0.678 -0.0481 -0.2140  0.4577
  998SOL     OW12285   1.127   4.189   0.437  0.2854  0.7980  0.3384
  998SOL    HW112286   1.189   4.170   0.513  0.1359  1.2446  0.5706
  998SOL    HW212287   1.176   4.239   0.366  0.3022  0.7879  0.3431
  999SOL     OW12288   0.994   3.138   0.536 -0.3042 -0.5452 -0.3735
  999SOL    HW112289   0.923   3.087   0.585 -0.9690 -0.6039 -1.3738
  999SOL    HW212290   1.054   3.183   0.602 -1.1068 -0.7221  0.4959
 1000SOL     OW12291   2.754   5.347   1.639 -0.3779  0.3233 -0.0548
 1000SOL    HW112292   2.806   5.414   1.691 -0.6293  1.1577 -0.8572
 1000SOL    HW212293   2.663   5.384   1.619 -1.4697 -1.2856  1.7250
 1001SOL     OW12294   1.738   6.864   2.279 -0.5262  0.5027 -0.1737
 1001SOL    HW112295   1.761   6.885   2.374 -0.4197  1.3778 -0.3888
 1001SOL    HW212296   1.715   6.949   2.231 -1.0267  0.0136 -0.8100
 1004SOL     OW12297   1.980   5.014   1.802  0.2273 -0.2634  0.0681
 1004SOL    HW112298   1.945   5.005   1.896 -0.3574 -1.0576 -0.2170
 1004SOL    HW212299   1.916   5.069   1.748 -0.3571 -1.3352 -0.3363
 1005SOL     OW12300   4.281   1.739   0.526  0.0398 -0.2139  0.7598
 1005SOL    HW112301   4.346   1.687   0.582 -0.4187  0.3837  1.8660
 1005SOL    HW212302   4.199   1.759   0.581 -0.0176  1.1868  0.1676
 1006SOL     OW12303   2.345   6.253   1.411 -0.2396 -0.7211 -0.4481
 1006SOL    HW112304   2.343   6.348   1.443  1.1806 -1.0064  0.5734
 1006SOL    HW212305   2.383   6.250   1.318  2.0224 -0.4756  0.4222
 1007SOL     OW12306   5.123   2.140   0.514  0.0501 -0.1596  1.0194
 1007SOL    HW112307   5.042   2.123   0.456  1.2184 -0.9112 -0.4289
 1007SOL    HW212308   5.096   2.140   0.610 -2.2889  2.9916  0.4469
 1009SOL     OW12309   4.602   4.104   1.045 -0.0150  0.2341  0.3504
 1009SOL    HW112310   4.680   4.043   1.057  0.1787  0.1915 -0.9706
 1009SOL    HW212311   4.577   4.145   1.132  1.9045  0.7429  0.6877
 1010SOL     OW12312   2.148   7.223   0.326  0.0377  0.2154 -0.0648
 1010SOL    HW112313   2.199   7.218   0.239  0.0082  0.0909 -0.0757
 1010SOL    HW212314   2.110   7.314   0.338 -0.6299  0.0079 -0.5647
 1011SOL     OW12315   4.644   3.246   1.200 -0.1583  0.2726  0.3391
 1011SOL    HW112316   4.632   3.332   1.249 -1.2007  0.8700 -0.9509
 1011SOL    HW212317   4.679   3.264   1.108  0.0003 -0.7020  0.2062
 1013SOL     OW12318   4.957   3.778   2.319  0.1059 -0.2150 -0.4034
 1013SOL    HW112319   4.900   3.713   2.268 -0.6152  0.1502 -0.0677
 1013SOL    HW212320   4.898   3.838   2.373  0.7817  0.6254 -0.6008
 1014SOL     OW12321   5.004   3.536   0.407 -0.4179 -0.0284  0.2664
 1014SOL    HW112322   5.085   3.508   0.459  0.1919 -0.6520 -1.0012
 1014SOL    HW212323   4.944   3.457   0.392 -1.0170  0.3269  0.7623
 1015SOL     OW12324   2.114   1.909   1.160 -0.6845 -0.5454 -0.2574
 1015SOL    HW112325   2.145   2.002   1.181  0.2228 -0.8641 -0.1285
 1015SOL    HW212326   2.015   1.904   1.166 -0.5842 -0.1747  2.1435
 1017SOL     OW12327   2.246   3.214   0.516 -0.4444 -0.2273 -0.3410
 1017SOL    HW112328   2.202   3.125   0.508 -1.7587  0.3451  0.3968
 1017SOL    HW212329   2.261   3.235   0.613 -0.6483  0.5934 -0.4792
 1018SOL     OW12330   3.378   4.219   0.515 -0.4684 -0.1459 -0.1917
 1018SOL    HW112331   3.349   4.125   0.529 -0.6880  0.0511  0.6551
 1018SOL    HW212332   3.477   4.221   0.498  0.0433 -0.2642  2.6090
 1019SOL     OW12333   2.866   2.374   1.881 -0.4532  1.0585 -0.4036
 1019SOL    HW112334   2.873   2.459   1.830 -1.6682  1.4632  0.0833
 1019SOL    HW212335   2.944   2.315   1.860  0.3667  2.2709 -0.7749
 1020SOL     OW12336   4.418   2.700   1.157 -0.8084 -1.0775 -0.0434
 1020SOL    HW112337   4.337   2.678   1.211 -0.0331 -1.0976  1.1334
 1020SOL    HW212338   4.500   2.690   1.214 -0.0514 -0.1120 -0.9355
 1022SOL     OW12339   2.479   3.428   1.273 -0.0687 -0.0512  0.4010
 1022SOL    HW112340   2.412   3.441   1.346 -0.0878  0.0655  0.3618
 1022SOL    HW212341   2.568   3.408   1.314 -0.1446 -0.2944  0.4517
 1023SOL     OW12342   2.359   4.442   1.866 -0.0084 -0.2796 -0.1872
 1023SOL    HW112343   2.348   4.512   1.937 -1.4093  0.1291 -0.7990
 1023SOL    HW212344   2.394   4.484   1.783 -2.9368  0.1317 -1.2681
 1024SOL     OW12345   3.272   2.116   2.011  0.3416 -0.1717 -0.3804
 1024SOL    HW112346   3.328   2.199   2.015 -1.7725  1.2627  0.6687
 1024SOL    HW212347   3.279   2.068   2.099  0.4702 -0.3766 -0.5015
 1025SOL     OW12348   4.824   3.231   1.925  0.1389  0.0091 -0.3554
 1025SOL    HW112349   4.746   3.275   1.970  1.3431  0.0967  1.7485
 1025SOL    HW212350   4.900   3.297   1.918  0.9479 -0.8513  0.1407
 1026SOL     OW12351   4.600   0.489   1.048 -0.5945 -0.6833 -0.1756
 1026SOL    HW112352   4.595   0.396   1.010  1.2720 -0.9060  0.1001
 1026SOL    HW212353   4.687   0.502   1.094 -0.3546  1.6128 -1.2085
 1027SOL     OW12354   0.170   4.491   2.015  0.0111 -0.0802 -0.2335
 1027SOL    HW112355   0.266   4.513   2.000  0.1878  0.9597  2.0802
 1027SOL    HW212356   0.120   4.576   2.035 -1.0029 -0.8173  0.4164
 1028SOL     OW12357   1.855   5.503   1.251  0.0469 -0.3183 -0.1509
 1028SOL    HW112358   1.760   5.477   1.232  0.3767 -0.9946 -0.9253
 1028SOL    HW212359   1.912   5.421   1.253  0.9784  0.2614 -1.8566
 1029SOL     OW12360   0.602   5.058   2.090 -0.0805  0.8986  0.6350
 1029SOL    HW112361   0.600   4.991   2.164  1.6728  0.0120 -0.0711
 1029SOL    HW212362   0.529   5.038   2.025 -0.3695  0.4407  1.0981
 1031SOL     OW12363   1.760   4.356   0.632  0.1759  0.4597  0.0965
 1031SOL    HW112364   1.782   4.282   0.696 -1.0956  1.3710  1.6402
 1031SOL    HW212365   1.662   4.353   0.611  0.6153  0.0113 -2.0609
 1033SOL     OW12366   1.953   3.864   1.512 -0.5394 -0.0860 -0.2967
 1033SOL    HW112367   1.941   3.777   1.559  1.4561 -0.1194  0.2220
 1033SOL    HW212368   2.015   3.852   1.434 -2.5025  0.3104 -1.9578
 1034SOL     OW12369   2.049   2.556   1.819  0.5034  0.6174 -0.1918
 1034SOL    HW112370   2.029   2.646   1.858 -1.2213  0.3928 -0.5160
 1034SOL    HW212371   2.115   2.508   1.876  1.4130  2.0705  0.0052
 1035SOL     OW12372   2.328   8.879   2.007  0.2712  0.1811  0.7694
 1035SOL    HW112373   2.359   8.951   2.069 -0.5364  1.0129  0.2248
 1035SOL    HW212374   2.234   8.854   2.031  0.3023 -0.1937  0.4992
 1036SOL     OW12375   2.364   7.438   1.273  0.0148 -0.2550  0.0944
 1036SOL    HW112376   2.415   7.374   1.329 -0.1594 -0.0248  0.5180
 1036SOL    HW212377   2.318   7.389   1.199 -0.0613 -0.6090  0.3751
 1037SOL     OW12378   3.798  -0.128   0.319  0.0643  0.3660 -0.3772
 1037SOL    HW112379   3.832  -0.035   0.312 -0.9359  0.8698  1.2256
 1037SOL    HW212380   3.772  -0.148   0.413 -0.3386 -1.3233 -0.8133
 1038SOL     OW12381   2.241   7.328   1.649 -0.0522  0.2151  0.4064
 1038SOL    HW112382   2.277   7.407   1.599  0.1335  0.2363  0.5722
 1038SOL    HW212383   2.195   7.266   1.585  0.8388 -0.1281  0.0884
 1039SOL     OW12384   3.125   5.447   0.376  0.2858  0.0226 -0.3695
 1039SOL    HW112385   3.147   5.441   0.278  0.6870 -0.7822 -0.2287
 1039SOL    HW212386   3.078   5.533   0.393 -1.5820 -0.6972 -1.6455
 1040SOL     OW12387   3.985   8.622   1.364 -0.4512 -0.0625  0.3102
 1040SOL    HW112388   4.054   8.559   1.328 -0.2706  1.2608 -1.7799
 1040SOL    HW212389   4.029   8.707   1.393 -0.9651  0.0191  0.8517
 1041SOL     OW12390   4.243   0.070   2.242 -1.2386  0.5767  0.3377
 1041SOL    HW112391   4.217   0.049   2.336  1.2872  0.6754  1.1176
 1041SOL    HW212392   4.301   0.152   2.241 -0.0679 -0.2400 -1.1182
 1044SOL     OW12393   4.301   2.454   0.707 -0.6926  0.1971  0.4866
 1044SOL    HW112394   4.390   2.493   0.728 -0.7764  0.5085  0.2805
 1044SOL    HW212395   4.283   2.376   0.766 -1.0037  1.1544  1.6854
 1046SOL     OW12396   3.134   7.824   0.440  0.0229  0.6475 -0.2387
 1046SOL    HW112397   3.045   7.868   0.451 -0.5479 -0.2262 -1.2032
 1046SOL    HW212398   3.156   7.816   0.343  1.2843  1.0959 -0.0039
 1047SOL     OW12399   3.624   4.835   1.045  0.0539 -0.2059 -0.4970
 1047SOL    HW112400   3.639   4.738   1.030 -2.0874 -0.7338  0.6291
 1047SOL    HW212401   3.563   4.848   1.124 -0.0368  2.0263 -0.8988
 1048SOL     OW12402   9.409   4.266   2.245 -0.2430 -0.2477 -0.2378
 1048SOL    HW112403   9.453   4.223   2.324 -0.7766 -0.4597 -0.0499
 1048SOL    HW212404   9.337   4.328   2.277 -0.2907 -0.1414 -0.5502
 1051SOL     OW12405   5.134   3.628   0.792  0.2489  0.0162 -0.0216
 1051SOL    HW112406   5.076   3.547   0.802  0.6350 -0.2477  0.0775
 1051SOL    HW212407   5.096   3.687   0.721 -0.4935  0.1518  0.4824
 1052SOL     OW12408   2.599   4.975   1.652  0.3457  0.5348 -0.4523
 1052SOL    HW112409   2.666   5.049   1.662  0.2928  0.4091  0.9826
 1052SOL    HW212410   2.612   4.930   1.564  1.8638  0.7930 -0.3761
 1053SOL     OW12411   0.696   3.366   2.252 -0.0018 -0.7361 -0.0671
 1053SOL    HW112412   0.614   3.422   2.241  0.4336 -0.1327 -0.3000
 1053SOL    HW212413   0.777   3.422   2.234  0.3998 -1.7217 -1.4269
 1054SOL     OW12414   2.819   0.967   1.548  0.2821  0.2607 -0.0435
 1054SOL    HW112415   2.885   0.991   1.476  2.0917  0.7081  1.7175
 1054SOL    HW212416   2.728   0.996   1.520  0.7316 -0.7476 -2.7254
 1057SOL     OW12417   4.402   0.663   1.420  1.1148  0.5724  0.8068
 1057SOL    HW112418   4.353   0.607   1.352  2.4869 -1.7782  1.6752
 1057SOL    HW212419   4.337   0.718   1.471 -0.3271 -0.4044  0.0736
 1059SOL     OW12420   3.859   5.138   1.861  0.1904 -0.3177  0.0772
 1059SOL    HW112421   3.954   5.123   1.835  0.2763 -0.3640  0.4076
 1059SOL    HW212422   3.812   5.191   1.790  0.6248  0.2298  0.1961
 1060SOL     OW12423   3.638   5.320   1.538  0.6831 -0.3034  0.0817
 1060SOL    HW112424   3.725   5.317   1.489  0.3245  0.3405 -0.5825
 1060SOL    HW212425   3.567   5.277   1.482  0.2987  0.3361  0.0817
 1061SOL     OW12426   2.212   2.291   2.021 -0.2409  0.6748 -0.1588
 1061SOL    HW112427   2.227   2.272   2.118  1.2867 -0.3589 -0.5849
 1061SOL    HW212428   2.205   2.204   1.971  1.8481  1.1862 -1.3971
 1062SOL     OW12429   3.066   1.524   0.919 -0.5360 -0.6011  0.3195
 1062SOL    HW112430   3.087   1.615   0.883 -0.1963 -1.1751 -0.9266
 1062SOL    HW212431   2.967   1.514   0.930 -0.5489  0.0625  0.8713
 1064SOL     OW12432   2.050   7.392   2.063 -0.0065  0.3239  0.0017
 1064SOL    HW112433   2.026   7.487   2.079 -1.9930 -0.3371  1.0540
 1064SOL    HW212434   2.135   7.387   2.010 -0.2780  2.6709 -0.6771
 1065SOL     OW12435   0.591   5.672   0.468 -0.6172 -0.2387  0.2980
 1065SOL    HW112436   0.646   5.672   0.385 -1.4562  3.3077 -0.3153
 1065SOL    HW212437   0.498   5.642   0.446 -0.4790 -0.6357  0.2436
 1066SOL     OW12438   3.564   3.388   1.584 -0.0997 -0.5189  0.0765
 1066SOL    HW112439   3.501   3.329   1.635 -0.4130  0.9090  1.3950
 1066SOL    HW212440   3.651   3.392   1.632 -0.5243  1.1552  0.7666
 1067SOL     OW12441   0.726   3.716   2.083 -0.1053  0.1294  0.2492
 1067SOL    HW112442   0.779   3.793   2.119  1.8638 -1.8397  1.7949
 1067SOL    HW212443   0.640   3.708   2.133  0.2963  0.5504  1.0212
 1068SOL     OW12444   2.004   3.112   1.302 -0.1148  0.2544  0.1055
 1068SOL    HW112445   2.016   3.211   1.296 -1.0396  0.3428 -0.3329
 1068SOL    HW212446   1.911   3.087   1.273  0.4431 -0.8410 -0.7876
 1069SOL     OW12447   2.620   8.657   0.884 -0.3534 -0.3496 -0.0206
 1069SOL    HW112448   2.672   8.728   0.837  0.9004 -1.7539 -0.8154
 1069SOL    HW212449   2.527   8.689   0.902  0.1646  1.4366 -0.4460
 1070SOL     OW12450   3.292   5.337   1.543 -0.0029 -1.0067  0.4017
 1070SOL    HW112451   3.243   5.315   1.627  1.2052 -0.4406  1.2537
 1070SOL    HW212452   3.355   5.263   1.521 -0.2854 -1.1334  0.0073
 1071SOL     OW12453   0.964   3.974   0.504 -0.1334  0.0639  0.5861
 1071SOL    HW112454   0.909   3.962   0.422 -0.3675  0.6402  0.6526
 1071SOL    HW212455   1.033   4.045   0.487  0.5485 -0.6044  0.5237
 1072SOL     OW12456   2.372   3.355   1.634 -0.3464 -0.1095 -0.1598
 1072SOL    HW112457   2.311   3.281   1.662  0.7555 -0.6718  0.7755
 1072SOL    HW212458   2.386   3.417   1.711  1.2530 -0.6621  0.0033
 1073SOL     OW12459   3.107   9.479   1.045 -0.2704  0.1350 -0.1196
 1073SOL    HW112460   3.174   9.461   1.117 -1.0685 -1.2024  0.3097
 1073SOL    HW212461   3.147   9.454   0.956 -0.3496 -1.1261  0.1838
 1074SOL     OW12462   2.086   3.372   1.236 -0.0136 -0.1093 -0.3939
 1074SOL    HW112463   2.116   3.452   1.287 -0.3277 -0.6898  0.7114
 1074SOL    HW212464   2.147   3.357   1.158  0.3303  0.9126 -0.3272
 1075SOL     OW12465   1.445   4.128   1.920 -0.0696  0.2806  0.2115
 1075SOL    HW112466   1.352   4.111   1.888  0.0369 -3.1267  1.5668
 1075SOL    HW212467   1.508   4.127   1.842 -0.6049 -1.7999 -0.1954
 1076SOL     OW12468   3.386   1.013   1.001 -0.5475  0.1157  0.7664
 1076SOL    HW112469   3.424   1.003   0.909 -2.0904 -1.1459  0.2527
 1076SOL    HW212470   3.298   1.060   0.995 -0.6002  0.1244  1.6282
 1077SOL     OW12471   3.853   3.067   1.755  0.0054  0.3244 -0.0824
 1077SOL    HW112472   3.845   3.166   1.766  0.1015  0.0639  2.7267
 1077SOL    HW212473   3.949   3.040   1.766  0.0824 -0.0421 -1.4848
 1078SOL     OW12474   1.803   6.038   1.329 -1.0047  0.3061 -0.1127
 1078SOL    HW112475   1.721   6.040   1.386  0.3035 -0.2784  1.8391
 1078SOL    HW212476   1.811   5.949   1.284 -0.6244 -0.1897  0.9323
 1079SOL     OW12477   9.756   4.428   0.369 -0.0920  0.5699 -0.6395
 1079SOL    HW112478   9.820   4.407   0.295  0.1183 -1.0578 -0.0159
 1079SOL    HW212479   9.689   4.495   0.337  1.8294  2.2105 -1.3408
 1080SOL     OW12480   1.095   5.019   2.328  0.2286 -0.1438 -0.8872
 1080SOL    HW112481   1.125   5.096   2.385  0.7106 -0.3229 -0.8971
 1080SOL    HW212482   1.076   5.052   2.236  0.5275 -0.0527 -0.9167
 1081SOL     OW12483   3.050   6.298   1.454 -0.3140  0.4251 -0.0718
 1081SOL    HW112484   2.987   6.375   1.467  0.1341  0.4357  2.2406
 1081SOL    HW212485   3.125   6.304   1.520 -0.9772 -2.6993  1.0683
 1082SOL     OW12486   2.117   6.517   2.097 -0.1340 -0.2943  0.6722
 1082SOL    HW112487   2.090   6.566   2.014  0.5331  3.1173  2.3736
 1082SOL    HW212488   2.086   6.568   2.177  0.2874 -2.9036  2.5536
 1083SOL     OW12489   2.477   4.186   1.854  0.0865 -0.1779 -0.4198
 1083SOL    HW112490   2.430   4.275   1.859 -0.3379 -0.2261 -2.8321
 1083SOL    HW212491   2.539   4.176   1.931 -1.4255  1.3283  1.0190
 1085SOL     OW12492   4.142  -0.004   0.666 -0.7737  0.6332 -0.0261
 1085SOL    HW112493   4.081  -0.074   0.704  1.9958 -2.0057 -0.2206
 1085SOL    HW212494   4.197   0.036   0.739  0.1899 -0.0245 -0.3703
 1090SOL     OW12495   2.143   3.641   1.775  0.4338 -0.0568 -0.4102
 1090SOL    HW112496   2.080   3.636   1.697 -0.5783 -0.2644  0.4083
 1090SOL    HW212497   2.094   3.674   1.855  1.4341  0.0079  0.1809
 1091SOL     OW12498   4.778   1.489   2.079 -0.2930  0.2712  0.0866
 1091SOL    HW112499   4.772   1.457   1.985 -0.5815  1.9992 -0.4955
 1091SOL    HW212500   4.830   1.574   2.083 -0.1513  0.1425  1.5043
 1092SOL     OW12501   2.070   2.928   1.474  0.0751  0.2549 -0.0713
 1092SOL    HW112502   2.148   2.949   1.533  0.8706  0.4581 -1.1673
 1092SOL    HW212503   2.052   3.006   1.414  0.3710 -0.5641 -1.2558
 1093SOL     OW12504   3.913   4.381   2.295 -0.6418 -0.2022  0.0108
 1093SOL    HW112505   3.860   4.325   2.358 -0.6895 -0.7032 -0.4776
 1093SOL    HW212506   4.010   4.360   2.305 -0.7386 -1.0851 -0.8728
 1094SOL     OW12507   3.683   8.220   2.085 -0.4705  0.0454  0.3779
 1094SOL    HW112508   3.618   8.168   2.029 -1.0926 -0.1494  1.2852
 1094SOL    HW212509   3.757   8.253   2.026 -0.7863 -0.6970 -0.4587
 1095SOL     OW12510   2.952   3.724   1.425  0.3738 -0.1665  0.4894
 1095SOL    HW112511   2.910   3.689   1.509  1.0506  0.7316  1.2000
 1095SOL    HW212512   2.880   3.753   1.362 -0.1063  0.2254  1.2148
 1097SOL     OW12513   9.790   4.176   1.944 -0.1692 -0.3426 -0.1979
 1097SOL    HW112514   9.773   4.086   1.983 -0.7501 -0.3283 -0.4013
 1097SOL    HW212515   9.715   4.237   1.969  0.5587  0.2730  0.5051
 1098SOL     OW12516   1.893   6.281   0.588 -0.2054 -0.1749  0.2457
 1098SOL    HW112517   1.964   6.336   0.631 -2.6975  2.1156  1.5907
 1098SOL    HW212518   1.856   6.329   0.508  1.7661 -2.7078 -2.3014
 1099SOL     OW12519   4.501   3.837   1.590 -0.1762 -0.1611 -0.2529
 1099SOL    HW112520   4.463   3.919   1.632  1.2529  0.0648  0.6387
 1099SOL    HW212521   4.493   3.843   1.490  0.4121  1.3058 -0.2207
 1100SOL     OW12522   3.822   0.790   1.802 -0.1152 -0.0447 -0.4674
 1100SOL    HW112523   3.777   0.750   1.723 -1.1645  1.1605 -0.4826
 1100SOL    HW212524   3.758   0.795   1.878  0.7246 -0.6659  0.2973
 1101SOL     OW12525   2.706   7.821   1.504  0.5618  0.2498  0.1805
 1101SOL    HW112526   2.615   7.792   1.475 -0.9599  3.5977  1.4011
 1101SOL    HW212527   2.758   7.851   1.424  0.3059 -0.7804 -0.3936
 1102SOL     OW12528   3.930   3.898   1.929 -0.0079 -0.3375 -0.0431
 1102SOL    HW112529   3.863   3.945   1.872  0.9153 -0.3864 -1.1924
 1102SOL    HW212530   4.016   3.889   1.878  0.4157 -1.5637  0.8809
 1103SOL     OW12531   0.616   3.896   0.724  0.1335 -0.4253  0.3535
 1103SOL    HW112532   0.671   3.948   0.789  0.4260  0.4531 -0.5747
 1103SOL    HW212533   0.652   3.803   0.716 -0.2935 -0.7247  1.9046
 1104SOL     OW12534   4.080   1.767   0.713  0.1761  0.5368 -0.6320
 1104SOL    HW112535   3.986   1.751   0.684  0.1810  0.0097 -0.3715
 1104SOL    HW212536   4.081   1.837   0.784  0.0433  0.9795 -1.0669
 1105SOL     OW12537   4.115   4.496   1.351 -0.0392 -0.4230 -0.5576
 1105SOL    HW112538   4.158   4.546   1.276 -0.6748  2.0762  0.6921
 1105SOL    HW212539   4.017   4.515   1.352  0.2276  1.0845  1.9952
 1106SOL     OW12540   2.681   6.487   1.772 -0.8778  0.9659 -1.0039
 1106SOL    HW112541   2.777   6.499   1.747  0.1463  2.7499  3.2229
 1106SOL    HW212542   2.666   6.393   1.802 -0.2279  0.9111 -0.8415
 1107SOL     OW12543   9.507   5.047   1.130  0.6421 -0.4295  0.0775
 1107SOL    HW112544   9.512   5.116   1.057  1.2742  0.4666  0.9534
 1107SOL    HW212545   9.439   4.977   1.105  0.3680  0.2226 -1.0583
 1110SOL     OW12546   2.868   3.355   0.882  0.1258 -0.1111 -0.0979
 1110SOL    HW112547   2.870   3.442   0.932 -0.2928  0.6891 -1.4512
 1110SOL    HW212548   2.829   3.284   0.941  1.7428  0.2826  1.5078
 1111SOL     OW12549   0.918   5.403   1.069  0.1787  0.1192 -0.3383
 1111SOL    HW112550   0.879   5.478   1.123 -1.9227 -0.7919 -0.5479
 1111SOL    HW212551   0.873   5.400   0.980  1.0044 -0.7432 -0.7320
 1113SOL     OW12552   3.704   1.489   1.733 -0.0869  0.0235  0.1061
 1113SOL    HW112553   3.622   1.524   1.688 -0.6057 -1.4355 -0.1296
 1113SOL    HW212554   3.783   1.542   1.704 -0.8798  1.1426 -0.0396
 1117SOL     OW12555   2.103   4.992   0.607 -0.3336 -0.0481  0.0307
 1117SOL    HW112556   2.117   5.005   0.509 -1.0636 -0.9192 -0.1931
 1117SOL    HW212557   2.188   5.014   0.656  0.4135 -0.8263 -0.9061
 1118SOL     OW12558   1.863   2.840   0.443 -0.4050 -0.1677 -0.1032
 1118SOL    HW112559   1.859   2.772   0.517  5.6004 -0.9589 -0.2414
 1118SOL    HW212560   1.850   2.794   0.355  1.1125 -0.7706 -0.0295
 1119SOL     OW12561   1.493   6.806   1.082 -0.1198  0.6535 -0.1383
 1119SOL    HW112562   1.536   6.882   1.033 -0.8796  2.0085  1.2474
 1119SOL    HW212563   1.423   6.842   1.144  1.1771 -0.9750  2.3116
 1120SOL     OW12564   2.779   0.650   1.135 -0.1011 -0.0643  0.5603
 1120SOL    HW112565   2.749   0.584   1.065 -2.0278  0.6381  0.6823
 1120SOL    HW212566   2.858   0.700   1.102  1.3287 -2.3308  0.4008
 1121SOL     OW12567   1.918   4.005   1.967 -0.0533 -0.5826  0.1906
 1121SOL    HW112568   1.901   4.005   2.066 -1.5225  0.8144 -0.0313
 1121SOL    HW212569   1.837   3.974   1.919 -0.6266  2.1579 -0.7185
 1122SOL     OW12570   2.547   9.803   2.196  0.0799  0.5032  0.0970
 1122SOL    HW112571   2.530   9.802   2.295  1.3950  0.5888  0.3249
 1122SOL    HW212572   2.555   9.708   2.164  3.3339  0.5310  0.7231
 1124SOL     OW12573   2.933   5.516   2.247  0.1397  0.0050  0.4199
 1124SOL    HW112574   2.974   5.605   2.266  0.9518 -0.0607 -0.9082
 1124SOL    HW212575   2.907   5.512   2.150 -1.1585 -0.6955  0.7884
 1125SOL     OW12576   2.668   5.511   2.341  0.4994  0.3531 -0.2198
 1125SOL    HW112577   2.641   5.419   2.369  0.2201  0.1766 -1.0474
 1125SOL    HW212578   2.767   5.513   2.324  0.6550  0.4417  0.6850
 1126SOL     OW12579   0.884   4.786   1.741  0.0844 -0.1339  0.4783
 1126SOL    HW112580   0.912   4.874   1.702  1.5321  0.0574  1.9126
 1126SOL    HW212581   0.899   4.714   1.673  0.6972  0.4634 -0.0257
 1127SOL     OW12582   1.190   6.268   1.696 -0.3105 -0.1068  0.0693
 1127SOL    HW112583   1.138   6.231   1.619 -0.2414 -2.8388  1.2855
 1127SOL    HW212584   1.272   6.313   1.661 -2.2637  2.1878 -1.6892
 1128SOL     OW12585   9.371   4.305   1.762  0.0685 -0.9149  0.0518
 1128SOL    HW112586   9.344   4.209   1.759 -0.5348 -0.7432 -0.1058
 1128SOL    HW212587   9.359   4.346   1.672 -3.4439  0.3119  0.9927
 1129SOL     OW12588   2.681   2.591   1.084 -0.1658  0.2372 -0.0625
 1129SOL    HW112589   2.647   2.506   1.123 -1.3514  0.4153 -0.6864
 1129SOL    HW212590   2.692   2.581   0.985  0.7642  0.4613  0.0071
 1130SOL     OW12591   2.390   6.738   1.920  0.1168  0.3095  0.2573
 1130SOL    HW112592   2.301   6.784   1.916 -0.2836 -0.5359 -0.7216
 1130SOL    HW212593   2.395   6.684   2.005 -0.8768 -0.7435 -0.3256
 1131SOL     OW12594   4.285   2.814   1.626  0.0186  0.4002  0.8216
 1131SOL    HW112595   4.305   2.853   1.537 -0.9606  1.4198  1.0323
 1131SOL    HW212596   4.229   2.732   1.615  2.4719 -1.2397  0.3548
 1132SOL     OW12597   2.929   5.414   1.945  0.4918 -1.2258 -0.3852
 1132SOL    HW112598   2.837   5.375   1.956  0.3894 -1.2328 -1.2363
 1132SOL    HW212599   2.928   5.509   1.974  0.0548 -1.0414 -0.9907
 1133SOL     OW12600   1.288   4.032   1.585  0.3022 -0.9710  0.2889
 1133SOL    HW112601   1.217   3.998   1.522  0.3515 -0.5322 -0.0095
 1133SOL    HW212602   1.287   3.978   1.669 -0.3447 -1.0132  0.2599
 1134SOL     OW12603   9.777   5.021   1.990 -0.4616  0.5338  0.1095
 1134SOL    HW112604   9.808   5.044   2.082 -1.1850  0.1322  0.4605
 1134SOL    HW212605   9.705   5.085   1.962  0.7377  1.5274 -0.7385
 1135SOL     OW12606   2.430   8.986   0.891  0.5651  0.1824  0.4618
 1135SOL    HW112607   2.374   9.062   0.857 -0.0550 -1.6489 -2.7771
 1135SOL    HW212608   2.506   8.969   0.828  1.5912 -0.9084  1.9563
 1136SOL     OW12609   2.241   7.316   1.063 -0.5231 -0.3705  0.0310
 1136SOL    HW112610   2.172   7.244   1.073 -1.3079  0.2198 -1.0734
 1136SOL    HW212611   2.290   7.303   0.977  1.4259 -1.3480  1.2392
 1137SOL     OW12612   1.464   5.597   0.895 -0.3284 -0.2213 -0.7716
 1137SOL    HW112613   1.487   5.664   0.966 -1.3173 -0.1710 -0.4954
 1137SOL    HW212614   1.448   5.645   0.809 -0.2229 -0.1814 -0.7697
 1138SOL     OW12615   0.836   5.145   1.185  0.0345  0.1564 -0.6795
 1138SOL    HW112616   0.738   5.159   1.178 -0.0904 -0.8718 -1.0662
 1138SOL    HW212617   0.884   5.229   1.160 -0.7521  0.8205  0.0102
 1139SOL     OW12618   2.281   5.589   1.555 -0.0194 -0.1619  1.1140
 1139SOL    HW112619   2.183   5.578   1.573 -0.0297 -3.7797 -0.7482
 1139SOL    HW212620   2.294   5.655   1.481 -1.1855 -0.8842  0.2495
 1142SOL     OW12621   2.717   8.476   1.497  0.1558  0.3676  0.3948
 1142SOL    HW112622   2.699   8.379   1.511  0.3801 -0.0854 -2.2338
 1142SOL    HW212623   2.664   8.530   1.563  1.5006 -1.5804  3.1255
 1143SOL     OW12624   3.410   3.599   0.972 -0.2144  0.2567 -0.2398
 1143SOL    HW112625   3.374   3.602   0.879 -1.9603 -2.6005  0.2773
 1143SOL    HW212626   3.334   3.602   1.037  0.8682  0.3449  1.0305
 1145SOL     OW12627   1.588   3.491   1.368 -0.1652  0.3582 -0.2236
 1145SOL    HW112628   1.565   3.588   1.365 -1.8904 -0.0829 -2.8636
 1145SOL    HW212629   1.543   3.448   1.447  0.1118  1.5597  0.6053
 1146SOL     OW12630   1.257   6.844   2.168  0.4092 -0.2197  0.0240
 1146SOL    HW112631   1.314   6.906   2.115  3.0257 -0.4723  2.3996
 1146SOL    HW212632   1.280   6.749   2.144  0.4013 -0.3121  0.3820
 1147SOL     OW12633   2.230   2.648   0.415  0.7216  0.5885  0.3256
 1147SOL    HW112634   2.210   2.577   0.348  1.5757  0.0696  0.6242
 1147SOL    HW212635   2.218   2.738   0.373 -0.5770  0.2814  0.0129
 1148SOL     OW12636   9.335   5.614   0.691 -0.5183 -0.0129  0.4262
 1148SOL    HW112637   9.389   5.656   0.763  0.4514 -1.3280  0.4995
 1148SOL    HW212638   9.361   5.653   0.603  1.4853 -1.4744  0.3197
 1150SOL     OW12639   4.232   4.008   2.927 -0.4964  0.3535 -0.0886
 1150SOL    HW112640   4.149   4.033   2.876  1.1464  2.5046 -1.8021
 1150SOL    HW212641   4.284   3.941   2.874 -0.5950 -0.1795  0.4852
 1151SOL     OW12642   1.947   6.028   1.679 -0.2434  0.2614 -0.0411
 1151SOL    HW112643   1.998   6.080   1.611  2.3262 -2.4650 -0.3070
 1151SOL    HW212644   1.873   5.978   1.634 -0.3157  0.6568 -0.3638
 1153SOL     OW12645   4.007   3.937   1.058 -0.3045 -0.2681  0.0097
 1153SOL    HW112646   4.052   3.952   0.970 -1.0277 -1.0796 -0.5015
 1153SOL    HW212647   4.057   3.986   1.129  0.8622 -0.4239 -0.6921
 1154SOL     OW12648   4.060   2.729   0.991 -0.4120 -0.0817 -0.0722
 1154SOL    HW112649   4.041   2.723   0.893 -0.7275  1.7587 -0.1566
 1154SOL    HW212650   4.049   2.639   1.033 -1.9409 -0.5674 -1.4374
 1155SOL     OW12651   2.909   1.069   1.171  0.4225  0.2379 -0.8729
 1155SOL    HW112652   2.877   1.158   1.204  0.7118  0.8784 -2.3073
 1155SOL    HW212653   2.844   0.998   1.198 -0.2224  0.9867 -0.4332
 1158SOL     OW12654   4.049   0.324   1.870 -0.0724  0.5338 -0.4336
 1158SOL    HW112655   4.122   0.392   1.875  0.4686 -0.0810  0.1399
 1158SOL    HW212656   4.084   0.242   1.825 -0.4272  0.2510 -0.1890
 1160SOL     OW12657   0.564   5.346   1.240 -0.0127 -0.2809  0.1834
 1160SOL    HW112658   0.556   5.287   1.159  0.4951  0.6534 -0.5598
 1160SOL    HW212659   0.476   5.388   1.259 -0.3600 -1.2130  0.6705
 1161SOL     OW12660   3.113   7.839   0.988 -0.2417  0.0123 -0.4142
 1161SOL    HW112661   3.179   7.829   0.914 -1.9277  0.7508 -2.0535
 1161SOL    HW212662   3.061   7.754   0.998 -0.5849  0.1961 -0.6368
 1162SOL     OW12663   1.289   4.182   0.956 -0.3202 -0.0227  0.0317
 1162SOL    HW112664   1.353   4.114   0.989  0.9813  1.5278  0.7478
 1162SOL    HW212665   1.251   4.234   1.033 -1.4632 -0.0615 -0.4852
 1164SOL     OW12666   2.651   8.112   2.022 -0.1593  0.2460  0.3971
 1164SOL    HW112667   2.578   8.115   1.954 -0.2580 -1.1424  0.4237
 1164SOL    HW212668   2.739   8.094   1.977 -0.2911 -1.1318  0.6642
 1166SOL     OW12669   2.836   8.684   1.100  0.6309 -0.3577 -0.4883
 1166SOL    HW112670   2.783   8.622   1.042  0.7573 -0.0919 -0.8896
 1166SOL    HW212671   2.927   8.696   1.061  1.4394 -1.8206  0.8800
 1168SOL     OW12672   1.444   5.967   2.339 -0.2609 -0.2560  0.2570
 1168SOL    HW112673   1.420   6.056   2.301 -0.6298 -1.2219 -1.8315
 1168SOL    HW212674   1.457   5.975   2.438 -1.1817  1.9217  0.2174
 1169SOL     OW12675   2.326   2.123   1.667 -0.2252 -0.7254 -0.5613
 1169SOL    HW112676   2.285   2.112   1.757  1.3889  0.1653  0.3191
 1169SOL    HW212677   2.263   2.173   1.607  0.1843  2.1704  1.2926
 1170SOL     OW12678   2.728   1.243   0.850 -0.0633 -0.2406 -0.3446
 1170SOL    HW112679   2.734   1.239   0.750 -0.0601  0.8399 -0.3998
 1170SOL    HW212680   2.725   1.151   0.887  1.9035 -0.7000 -1.2351
 1171SOL     OW12681   1.676   4.933   2.102 -0.2453  0.0205  0.4853
 1171SOL    HW112682   1.755   4.884   2.067 -0.6990  0.3582 -1.0453
 1171SOL    HW212683   1.610   4.867   2.140 -1.1105 -0.6465 -2.0807
 1172SOL     OW12684   3.221   8.490   0.995  0.4928 -0.5008 -0.7665
 1172SOL    HW112685   3.290   8.485   1.067  0.8850  0.8288 -1.0383
 1172SOL    HW212686   3.265   8.489   0.906  0.3398  2.4503 -0.9202
 1173SOL     OW12687   0.231   5.693   0.987  0.4345 -0.0143 -0.2697
 1173SOL    HW112688   0.322   5.672   1.025  0.5400  1.4126  0.2837
 1173SOL    HW212689   0.175   5.736   1.057 -0.6617 -0.8497 -0.6302
 1174SOL     OW12690   2.321   6.849   2.356 -0.2257 -1.2625 -0.2573
 1174SOL    HW112691   2.255   6.838   2.430 -0.3380 -0.5961 -0.2518
 1174SOL    HW212692   2.297   6.930   2.303  1.8218  0.2341  1.0296
 1175SOL     OW12693   4.326   1.756   1.208 -0.9800  0.0096  1.2721
 1175SOL    HW112694   4.363   1.670   1.171  0.3797  0.7087  0.9800
 1175SOL    HW212695   4.228   1.759   1.192 -0.8927 -1.0832  0.4509
 1177SOL     OW12696   2.344   4.934   2.142  0.5663  0.4517 -0.7353
 1177SOL    HW112697   2.365   4.896   2.052  1.7078  1.4722 -0.9140
 1177SOL    HW212698   2.419   4.913   2.205 -0.8843 -1.5162  0.3832
 1178SOL     OW12699   1.668   6.737   0.348 -0.0636  0.2198  0.2584
 1178SOL    HW112700   1.669   6.749   0.448  0.2115 -0.6041  0.3544
 1178SOL    HW212701   1.621   6.815   0.306  1.2792  1.4040  0.9195
 1179SOL     OW12702   0.749   5.801   2.249  0.0006 -0.2011  0.1338
 1179SOL    HW112703   0.764   5.733   2.178  0.8842  0.0458  0.0763
 1179SOL    HW212704   0.798   5.775   2.332 -0.1464  0.0632  0.3066
 1182SOL     OW12705   1.989   2.803   1.968 -0.4658  0.2120 -0.4200
 1182SOL    HW112706   1.911   2.792   1.908 -1.2277 -0.4392  0.6590
 1182SOL    HW212707   1.958   2.830   2.059  0.4114 -1.5799  0.4486
 1183SOL     OW12708   2.423   7.118   0.403 -0.3741  0.6562 -0.0137
 1183SOL    HW112709   2.382   7.027   0.414  0.4502 -0.1250 -3.0221
 1183SOL    HW212710   2.366   7.174   0.344  0.2443  1.3512  0.0329
 1184SOL     OW12711   1.476   3.016   1.366  0.1641 -0.5736 -0.0273
 1184SOL    HW112712   1.574   3.025   1.348 -0.1832 -0.7272 -2.2055
 1184SOL    HW212713   1.429   3.100   1.340 -0.6102 -1.4815 -1.6883
 1185SOL     OW12714   9.058   5.218   0.607 -0.1800 -0.1741  0.8364
 1185SOL    HW112715   9.061   5.283   0.682  2.1444  1.8153 -0.8786
 1185SOL    HW212716   9.140   5.161   0.608 -0.0049  0.0286 -0.2751
 1186SOL     OW12717   2.606   2.086   1.364 -0.2378  0.3085  0.4978
 1186SOL    HW112718   2.580   2.053   1.455  1.1583  0.4290  0.9553
 1186SOL    HW212719   2.683   2.032   1.330 -1.8396 -0.8536 -1.3643
 1187SOL     OW12720   2.115   2.234   2.323  0.1962 -0.0413 -0.3508
 1187SOL    HW112721   2.047   2.305   2.305 -0.3204 -0.5900 -0.5972
 1187SOL    HW212722   2.068   2.147   2.341  0.8341 -0.4367 -0.5802
 1188SOL     OW12723   0.746   4.203   1.686 -0.3729  0.2813 -0.3708
 1188SOL    HW112724   0.722   4.299   1.693 -1.7774 -0.0866  0.0392
 1188SOL    HW212725   0.790   4.173   1.770 -1.7397  0.0893  0.2927
 1189SOL     OW12726   2.853   2.742   2.002  0.5323  0.1074 -0.5541
 1189SOL    HW112727   2.826   2.795   1.921  0.0728  0.8987  0.1064
 1189SOL    HW212728   2.776   2.687   2.033  0.8791 -0.6339 -0.9798
 1190SOL     OW12729   2.254   5.632   0.654 -0.4881  0.2313 -0.3510
 1190SOL    HW112730   2.293   5.724   0.665 -0.5085  0.3169 -0.9789
 1190SOL    HW212731   2.293   5.589   0.573 -1.9077  0.4229 -1.1476
 1191SOL     OW12732   2.658   8.304   0.815 -0.5999  0.0191  0.5000
 1191SOL    HW112733   2.667   8.216   0.768 -1.4122  1.1074 -1.7780
 1191SOL    HW212734   2.746   8.350   0.817 -0.5151 -0.1341  0.2748
 1192SOL     OW12735   3.751   1.767   1.606  1.0162 -0.7323 -0.2227
 1192SOL    HW112736   3.832   1.800   1.655  0.1535 -0.1798  0.8729
 1192SOL    HW212737   3.672   1.772   1.667  0.5830 -3.5066 -0.5072
 1193SOL     OW12738   1.678   6.446   1.953 -0.3889  0.0373  0.7025
 1193SOL    HW112739   1.730   6.442   1.867 -0.1067 -0.6005  0.9069
 1193SOL    HW212740   1.679   6.540   1.987  0.3123  0.1060  0.5062
 1194SOL     OW12741   2.353   1.965   0.333 -0.0428 -0.3660 -0.3300
 1194SOL    HW112742   2.413   2.013   0.269  0.0987  1.5732  1.2005
 1194SOL    HW212743   2.268   2.017   0.345 -0.2342 -0.9111  0.7472
 1195SOL     OW12744   2.074   4.712   0.516  0.2362  0.7306 -0.4749
 1195SOL    HW112745   2.099   4.648   0.590 -0.2686  0.1625 -0.7902
 1195SOL    HW212746   2.098   4.805   0.543 -0.0718  0.5418  0.4697
 1196SOL     OW12747   3.326   3.957   1.633 -0.2979 -0.5704 -0.4797
 1196SOL    HW112748   3.277   3.942   1.547  2.0509 -1.9282 -1.6303
 1196SOL    HW212749   3.336   4.055   1.650 -2.0717 -0.2941 -0.9772
 1197SOL     OW12750   4.897   2.969   0.773 -0.4521  0.4803  0.0484
 1197SOL    HW112751   4.936   2.889   0.821 -1.8861  0.2449  0.8570
 1197SOL    HW212752   4.971   3.024   0.734  0.6747 -0.1015  1.3211
 1198SOL     OW12753   4.518   5.195   0.992 -0.2447  0.9976  0.1199
 1198SOL    HW112754   4.444   5.233   1.047  0.9282  2.7702  0.5234
 1198SOL    HW212755   4.552   5.111   1.035 -2.0698  0.1199 -0.1273
 1199SOL     OW12756   3.134   2.915   2.372  0.6832  0.0040 -0.0778
 1199SOL    HW112757   3.218   2.959   2.406  0.5275  0.7043 -0.5769
 1199SOL    HW212758   3.086   2.979   2.311 -0.5732 -0.1275  0.7588
 1200SOL     OW12759   5.817   3.374   1.359 -0.8497 -0.1036 -0.6185
 1200SOL    HW112760   5.717   3.366   1.367 -1.0982  0.7802 -2.3903
 1200SOL    HW212761   5.845   3.345   1.267  0.2669  1.6745 -0.8641
 1203SOL     OW12762   2.674   4.273   0.367 -0.3484 -0.3494  0.3531
 1203SOL    HW112763   2.657   4.175   0.357  0.1516 -0.5210  1.1124
 1203SOL    HW212764   2.628   4.306   0.449 -0.3892  0.0192  0.1809
 1204SOL     OW12765   2.799   4.978   1.993  0.2263 -0.0247 -0.2949
 1204SOL    HW112766   2.809   4.880   1.973 -0.3850 -0.0464 -0.4840
 1204SOL    HW212767   2.825   5.031   1.913 -0.0081 -0.0467 -0.3852
 1205SOL     OW12768   4.621   3.945   1.324  0.3058  0.0779 -0.0026
 1205SOL    HW112769   4.639   3.850   1.349  0.3429  0.1564  0.2652
 1205SOL    HW212770   4.668   4.006   1.387  1.4806  0.2748 -1.0614
 1206SOL     OW12771   2.908   7.405   0.685  0.0961 -0.0430 -0.2058
 1206SOL    HW112772   2.988   7.419   0.743 -0.2004 -1.9254  0.7232
 1206SOL    HW212773   2.825   7.435   0.734  0.0724  0.4336 -0.5379
 1208SOL     OW12774   3.458   8.368   2.233  0.4380  0.4260  0.4403
 1208SOL    HW112775   3.407   8.330   2.310 -0.0242 -0.9828 -0.5441
 1208SOL    HW212776   3.538   8.312   2.215  1.1502  1.3847  0.5808
 1209SOL     OW12777   1.691   6.519   2.306  0.0450 -0.1271 -0.2552
 1209SOL    HW112778   1.651   6.556   2.223 -1.0276 -1.9482 -0.5777
 1209SOL    HW212779   1.783   6.485   2.287 -0.0967 -0.3022 -0.6210
 1211SOL     OW12780   1.280   4.963   1.232  0.7571  0.6152 -0.0453
 1211SOL    HW112781   1.289   5.039   1.167  0.4755  0.9500  0.3082
 1211SOL    HW212782   1.197   4.975   1.286  1.6401  0.9828  1.2343
 1212SOL     OW12783   3.697   2.834   1.828 -0.0796 -0.1072  0.0032
 1212SOL    HW112784   3.731   2.770   1.759  0.4676 -1.1710  1.2368
 1212SOL    HW212785   3.756   2.914   1.832  0.4401 -0.4842 -0.0940
 1213SOL     OW12786   3.098   4.332   0.429  0.0042  0.2681 -0.0484
 1213SOL    HW112787   3.101   4.316   0.330 -0.0901  1.1561 -0.1969
 1213SOL    HW212788   3.150   4.261   0.476  0.7436  0.3144 -0.7914
 1214SOL     OW12789   4.987   2.288   0.751  0.9448  0.1020  0.6730
 1214SOL    HW112790   4.981   2.380   0.790 -1.4602 -0.1401  0.9274
 1214SOL    HW212791   4.925   2.281   0.672 -0.6509 -1.9632  2.0487
 1216SOL     OW12792   3.920   2.947   1.100  0.0679  0.0946 -0.3213
 1216SOL    HW112793   3.987   2.900   1.041  0.8744  0.9704 -0.1225
 1216SOL    HW212794   3.835   2.895   1.102  0.2783 -0.3319 -1.6853
 1217SOL     OW12795   3.715   9.835   0.557  0.9708  0.7019 -0.4650
 1217SOL    HW112796   3.775   9.784   0.619  0.1877  1.3744  0.8560
 1217SOL    HW212797   3.620   9.824   0.586  0.4513 -0.2108 -2.4451
 1218SOL     OW12798   4.341   4.474   2.126  0.2337  0.3392 -0.1264
 1218SOL    HW112799   4.248   4.439   2.114  0.5830 -0.3476 -0.9332
 1218SOL    HW212800   4.372   4.515   2.041  0.3315  1.4100  0.4208
 1220SOL     OW12801   4.749   4.138   0.380 -0.2222  0.3443  0.2469
 1220SOL    HW112802   4.781   4.106   0.469 -0.2465 -1.4127 -0.3627
 1220SOL    HW212803   4.649   4.133   0.377 -0.2589  0.9868  0.3341
 1222SOL     OW12804   1.121   4.855   0.562  0.0343 -0.2731 -0.1374
 1222SOL    HW112805   1.195   4.832   0.499  0.1386  0.4139 -0.2737
 1222SOL    HW212806   1.119   4.954   0.577 -1.4334 -0.1718 -0.8601
 1223SOL     OW12807   2.424   1.588   0.630  0.2588  0.3155  0.1994
 1223SOL    HW112808   2.363   1.583   0.551 -1.4417  0.6219  1.4599
 1223SOL    HW212809   2.440   1.683   0.654  1.4680  0.2469 -0.2662
 1224SOL     OW12810   3.948   9.663   0.653 -0.3291 -0.2824  0.1180
 1224SOL    HW112811   3.890   9.585   0.629 -1.0897  0.7919 -1.7048
 1224SOL    HW212812   4.007   9.685   0.576  0.9192  0.0314  1.1608
 1225SOL     OW12813   1.606   5.084   1.790 -0.0813 -0.1493 -0.0632
 1225SOL    HW112814   1.679   5.145   1.758 -0.3953  0.4497  0.3717
 1225SOL    HW212815   1.567   5.120   1.874  1.4353 -2.2784  1.5816
 1226SOL     OW12816   4.816   4.139   2.212  0.2348  0.2252  0.0425
 1226SOL    HW112817   4.912   4.166   2.208 -0.0628  1.2898 -0.1195
 1226SOL    HW212818   4.760   4.212   2.174 -0.6581 -0.3114  0.3237
 1227SOL     OW12819   3.235   0.975   0.603 -0.2206 -0.4771  0.0685
 1227SOL    HW112820   3.215   1.042   0.531  1.5542 -1.9560 -1.8574
 1227SOL    HW212821   3.328   0.991   0.639 -0.1370 -1.3335  0.2431
 1228SOL     OW12822   3.473   3.903   1.854  0.2464  0.2344  0.0384
 1228SOL    HW112823   3.418   3.926   1.773 -1.1394 -1.8343  0.3510
 1228SOL    HW212824   3.436   3.821   1.897  3.4937 -1.1440  0.3721
 1229SOL     OW12825   3.637   0.521   2.016 -0.2638  0.1358  0.5648
 1229SOL    HW112826   3.703   0.538   2.090 -0.6498  0.3372  0.8618
 1229SOL    HW212827   3.550   0.492   2.055 -0.5511  0.5007  0.1978
 1230SOL     OW12828   3.004   8.155   2.249 -0.2398 -0.7309 -0.1607
 1230SOL    HW112829   3.019   8.245   2.291 -0.3274 -1.5765  1.7393
 1230SOL    HW212830   2.984   8.088   2.321  0.5124 -2.4109 -1.4942
 1231SOL     OW12831   5.406   3.096   1.829 -1.2438  0.3867 -0.0586
 1231SOL    HW112832   5.491   3.097   1.777 -2.1345 -0.5571 -1.5999
 1231SOL    HW212833   5.408   3.167   1.899  0.8038  0.3578 -0.0548
 1232SOL     OW12834   2.029   4.006   0.573 -0.0428 -0.4145  0.5047
 1232SOL    HW112835   2.007   4.058   0.490 -0.2845 -0.4211  0.5656
 1232SOL    HW212836   2.003   4.059   0.654  2.1211  0.5131  0.6328
 1233SOL     OW12837   1.249   6.425   0.344  0.4312  0.0561 -0.0908
 1233SOL    HW112838   1.258   6.386   0.436 -1.7950  1.0347  0.5723
 1233SOL    HW212839   1.301   6.510   0.339  1.9948 -0.8786 -0.3105
 1235SOL     OW12840   3.282   3.254   0.499 -0.1180 -0.9368 -0.0097
 1235SOL    HW112841   3.188   3.237   0.530  0.1792 -1.3525  0.6638
 1235SOL    HW212842   3.325   3.167   0.473  0.6843 -0.9671  1.3928
 1236SOL     OW12843   3.593   0.064   1.384  0.3444 -0.1064  0.0112
 1236SOL    HW112844   3.529   0.104   1.451 -0.2973  0.2796 -0.8105
 1236SOL    HW212845   3.560  -0.026   1.357  1.5911 -1.0491  1.5815
 1237SOL     OW12846   0.136   4.426   0.692  0.0373 -0.0304  0.3359
 1237SOL    HW112847   0.148   4.491   0.767 -0.5301  0.0853  0.3287
 1237SOL    HW212848   0.069   4.461   0.627  0.0283 -0.4377  0.1183
 1238SOL     OW12849   2.614   0.616   1.371 -0.3237  0.2332 -0.3541
 1238SOL    HW112850   2.566   0.528   1.366  0.9793 -0.4764 -0.9007
 1238SOL    HW212851   2.668   0.629   1.288 -0.2941  1.4318 -0.1554
 1239SOL     OW12852   2.833   8.951   0.556 -0.4462  0.1087 -0.8483
 1239SOL    HW112853   2.859   9.037   0.598 -0.5096 -0.0996 -0.3810
 1239SOL    HW212854   2.791   8.968   0.467 -1.2872  0.6186 -0.3648
 1240SOL     OW12855   2.661   8.050   0.686 -0.6512 -0.0231 -0.6698
 1240SOL    HW112856   2.567   8.020   0.700 -0.8965  1.4176  1.0228
 1240SOL    HW212857   2.670   8.092   0.596 -2.0122  1.1523 -0.2791
 1241SOL     OW12858   3.759   3.370   2.054 -0.0881 -0.0036 -0.3273
 1241SOL    HW112859   3.716   3.455   2.025  1.3355  1.4676  1.6818
 1241SOL    HW212860   3.692   3.313   2.103 -0.8729  0.2584 -1.0957
 1242SOL     OW12861   2.826   3.028   1.370  0.6296 -0.1660  0.2126
 1242SOL    HW112862   2.889   3.002   1.297  0.1092  0.2995 -0.4125
 1242SOL    HW212863   2.747   2.967   1.368  1.1016 -0.8069  1.0536
 1243SOL     OW12864   2.034   6.504   0.709 -0.2126  0.2346  0.0649
 1243SOL    HW112865   2.085   6.513   0.794 -0.9629 -0.6151  0.6098
 1243SOL    HW212866   2.071   6.568   0.641 -0.0395  1.3911  1.2262
 1244SOL     OW12867   9.892   4.253   0.827 -0.1184  0.1254 -0.1502
 1244SOL    HW112868   9.842   4.278   0.743 -2.4222 -0.6162  0.9832
 1244SOL    HW212869   9.885   4.155   0.842 -0.7914  0.4394  1.6030
 1245SOL     OW12870   4.200   1.617   0.896  0.3379 -0.2337 -0.0391
 1245SOL    HW112871   4.138   1.596   0.972  1.4559  0.3183  1.0365
 1245SOL    HW212872   4.146   1.647   0.817 -0.7039  1.3985  1.2590
 1246SOL     OW12873   1.358   3.634   2.182  0.7427  0.2500  0.0759
 1246SOL    HW112874   1.395   3.722   2.153  2.8407 -0.1796  1.2760
 1246SOL    HW212875   1.401   3.608   2.269  0.0107 -1.8461 -0.1749
 1247SOL     OW12876   2.606   6.114   1.014 -0.0032  0.1702 -0.3582
 1247SOL    HW112877   2.676   6.098   1.083  0.3257 -2.2097 -1.1926
 1247SOL    HW212878   2.635   6.188   0.952  1.4241 -0.3022 -0.2560
 1249SOL     OW12879   2.992   2.533   1.704  0.1724 -0.3070 -0.4040
 1249SOL    HW112880   3.086   2.551   1.734 -0.6690  0.2498  1.9960
 1249SOL    HW212881   2.952   2.616   1.666  0.3397 -0.2900 -0.5424
 1250SOL     OW12882   3.980   1.233   0.961  0.1191 -0.3959  0.2569
 1250SOL    HW112883   4.075   1.251   0.933  0.0350 -1.3087 -0.6180
 1250SOL    HW212884   3.944   1.313   1.009  0.9627  0.3789 -0.3957
 1251SOL     OW12885   3.087   9.278   0.415  0.1457  0.4930 -0.3511
 1251SOL    HW112886   3.079   9.361   0.470  1.1122  0.5315 -0.2702
 1251SOL    HW212887   3.145   9.211   0.462  1.1447  0.6009 -1.3951
 1252SOL     OW12888   0.573   5.545   2.359 -0.0439  0.1577  0.7220
 1252SOL    HW112889   0.567   5.570   2.263 -1.3045  0.2876  0.8332
 1252SOL    HW212890   0.662   5.503   2.377  0.4891  0.8206 -0.3339
 1254SOL     OW12891   3.049   1.381   1.552 -0.2424 -0.5242  0.3052
 1254SOL    HW112892   3.041   1.410   1.648 -0.0466  0.6108 -0.0093
 1254SOL    HW212893   3.082   1.458   1.497 -0.6416 -1.0823 -0.7269
 1256SOL     OW12894   4.707   1.091   1.018  0.5332 -0.7960 -0.6469
 1256SOL    HW112895   4.693   0.992   1.013 -0.4213 -0.7331  0.6738
 1256SOL    HW212896   4.700   1.121   1.113 -0.5484  0.7249 -1.1851
 1258SOL     OW12897   3.901   5.256   1.426 -0.3940  0.3956  0.0024
 1258SOL    HW112898   3.996   5.225   1.433 -0.4381  0.4672  0.8548
 1258SOL    HW212899   3.879   5.270   1.329 -0.0186 -1.1116 -0.3126
 1259SOL     OW12900   2.714   9.006   1.862  0.5270 -0.3123  0.2490
 1259SOL    HW112901   2.788   9.047   1.808 -0.2041  1.4306  0.5473
 1259SOL    HW212902   2.690   9.067   1.938  0.4987 -2.0319  1.6650
 1260SOL     OW12903   2.313   4.100   1.527 -0.0056  0.4770  0.4795
 1260SOL    HW112904   2.251   4.111   1.604 -0.5338  1.0528 -0.0241
 1260SOL    HW212905   2.405   4.078   1.560 -0.8412 -2.0641  1.1666
 1261SOL     OW12906   1.722   6.802   1.522 -0.1636 -0.2190 -0.0206
 1261SOL    HW112907   1.709   6.783   1.619 -1.2164  0.2487 -0.0683
 1261SOL    HW212908   1.818   6.828   1.506 -0.2710  0.9227  1.0904
 1262SOL     OW12909   3.149   4.226   1.932 -0.0656 -0.2558  0.5451
 1262SOL    HW112910   3.207   4.289   1.982  0.1516  1.0656 -1.3190
 1262SOL    HW212911   3.055   4.261   1.929 -0.2586 -0.7481  0.7548
 1264SOL     OW12912   3.027   3.176   0.539  0.4308 -0.8385  0.2457
 1264SOL    HW112913   2.968   3.122   0.600 -0.6521 -0.7401 -0.6856
 1264SOL    HW212914   2.969   3.228   0.476  1.4846  0.9171  0.7102
 1266SOL     OW12915   1.519   3.502   2.006 -0.4199  0.5340  0.1737
 1266SOL    HW112916   1.489   3.539   1.918 -0.9130 -1.3386 -0.4551
 1266SOL    HW212917   1.461   3.540   2.079 -0.7792  1.1600 -0.4239
 1267SOL     OW12918   2.871   9.773   1.978  0.1821  0.1835  0.5763
 1267SOL    HW112919   2.828   9.855   2.017 -1.1386 -1.3759  2.4820
 1267SOL    HW212920   2.822   9.748   1.894  0.2930  1.0687  0.2381
 1268SOL     OW12921   0.794   4.391   1.350  0.1296 -0.0418 -0.1159
 1268SOL    HW112922   0.711   4.344   1.321  1.2240 -1.4616 -1.0107
 1268SOL    HW212923   0.817   4.463   1.284 -0.5944  0.6172  0.3421
 1269SOL     OW12924   1.777   2.771   1.807  0.0798 -0.2669  0.2101
 1269SOL    HW112925   1.713   2.837   1.848 -1.3161 -1.0555 -0.6375
 1269SOL    HW212926   1.735   2.680   1.808  0.6809 -0.5779 -1.4806
 1270SOL     OW12927   9.753   5.148   0.437  0.4225  0.3602  0.2878
 1270SOL    HW112928   9.752   5.217   0.509 -2.1182  1.1051 -0.4066
 1270SOL    HW212929   9.812   5.179   0.362  0.6315  1.0038  0.7167
 1271SOL     OW12930   4.324   0.203   1.063  0.0610  0.1319 -0.3196
 1271SOL    HW112931   4.329   0.258   1.146 -0.4294  0.6621 -0.6420
 1271SOL    HW212932   4.299   0.109   1.087 -0.3391  0.3456  0.1055
 1272SOL     OW12933   2.205   5.757   2.123  0.3819 -0.1290 -0.1645
 1272SOL    HW112934   2.193   5.838   2.065 -0.6022  0.2448  0.5430
 1272SOL    HW212935   2.146   5.683   2.092  1.5556 -0.7153 -1.0384
 1273SOL     OW12936   4.183   3.763   1.537 -0.1263  0.3045  0.3349
 1273SOL    HW112937   4.086   3.738   1.538 -0.5153  1.4908 -2.6450
 1273SOL    HW212938   4.235   3.693   1.488  0.1107  0.9718 -0.3714
 1274SOL     OW12939   2.710   0.683   1.905 -0.5414  0.0714  0.1063
 1274SOL    HW112940   2.738   0.670   2.000 -0.7336  0.8881  0.2793
 1274SOL    HW212941   2.778   0.643   1.844 -0.8597 -1.2646  0.6023
 1275SOL     OW12942   1.400   6.389   1.600  0.6319 -0.1637 -0.4183
 1275SOL    HW112943   1.419   6.475   1.554 -0.7350 -0.7119 -2.0296
 1275SOL    HW212944   1.482   6.359   1.650  1.4118  1.5476 -0.6426
 1277SOL     OW12945   3.028   9.462   1.938  0.3249  0.0396  0.4545
 1277SOL    HW112946   2.961   9.499   2.002  1.0226  0.5045  0.9233
 1277SOL    HW212947   3.115   9.510   1.948  1.1257 -1.4326  0.7715
 1278SOL     OW12948   2.308   2.715   1.342 -0.0494 -0.3712 -0.1948
 1278SOL    HW112949   2.373   2.746   1.272 -0.0722  0.8807  0.3289
 1278SOL    HW212950   2.238   2.785   1.355  0.5463 -0.1354  1.8264
 1280SOL     OW12951   0.716   5.915   1.817 -0.6032  0.3912 -0.4911
 1280SOL    HW112952   0.809   5.941   1.843 -0.4754  0.7161 -1.2489
 1280SOL    HW212953   0.650   5.963   1.876 -0.2624 -1.6288  1.6100
 1282SOL     OW12954   3.701   5.544   0.720  0.4401  0.0739 -0.5276
 1282SOL    HW112955   3.664   5.475   0.658  0.2543 -0.8658  0.6311
 1282SOL    HW212956   3.635   5.619   0.730  0.6656  0.4558 -1.8237
 1283SOL     OW12957   2.643   9.461   2.165  0.0075 -0.1492  0.1857
 1283SOL    HW112958   2.732   9.494   2.196  0.4473 -1.3870  0.2537
 1283SOL    HW212959   2.616   9.510   2.082 -0.2102  1.6981  1.3195
 1284SOL     OW12960   1.027   5.757   1.253  0.0621 -0.2579  0.1615
 1284SOL    HW112961   1.086   5.713   1.186  0.5597 -0.5270  0.7713
 1284SOL    HW212962   0.940   5.708   1.258  0.6562 -1.2703  0.9250
 1286SOL     OW12963   3.827   4.510   1.297  0.5801  0.1573 -0.2467
 1286SOL    HW112964   3.768   4.471   1.368  0.4133  0.9360  0.0482
 1286SOL    HW212965   3.791   4.487   1.207  0.1128  0.1807 -0.0693
 1287SOL     OW12966   4.027   0.480   2.182  0.7133 -0.3333  0.2591
 1287SOL    HW112967   3.935   0.497   2.219  0.7343 -0.8598  0.5553
 1287SOL    HW212968   4.044   0.382   2.180  0.3229 -0.3763 -2.0972
 1288SOL     OW12969   4.787   4.105   0.663  0.3702  0.9187 -0.6698
 1288SOL    HW112970   4.876   4.146   0.684  0.2816  1.4497 -1.2936
 1288SOL    HW212971   4.719   4.177   0.652  0.1611  0.5999 -1.5429
 1290SOL     OW12972   1.989   6.696   1.584  0.2608 -0.1092  0.0653
 1290SOL    HW112973   2.037   6.765   1.638 -0.9344  1.7958 -1.2266
 1290SOL    HW212974   2.047   6.667   1.508  0.8050 -0.6016  0.6650
 1291SOL     OW12975   1.677   5.593   0.530 -0.1372 -0.5796 -0.4314
 1291SOL    HW112976   1.606   5.645   0.578  0.2181  0.3038 -0.8728
 1291SOL    HW212977   1.760   5.648   0.523  0.0402 -0.9766 -1.4445
 1292SOL     OW12978   3.633   9.226   0.771 -0.4277 -0.2755 -0.1718
 1292SOL    HW112979   3.657   9.286   0.847 -1.4662  0.3310 -0.3165
 1292SOL    HW212980   3.536   9.235   0.750 -0.6892 -2.3183  0.0600
 1293SOL     OW12981   3.060   9.482   0.614  0.1926  0.1743 -1.1391
 1293SOL    HW112982   3.120   9.481   0.695  0.5772  0.1500 -1.4205
 1293SOL    HW212983   2.965   9.486   0.643  0.3195 -0.1110 -0.6796
 1294SOL     OW12984   3.467   9.806   0.705  0.6207  0.2204  0.5519
 1294SOL    HW112985   3.375   9.825   0.672  1.5115  1.4369 -1.3790
 1294SOL    HW212986   3.486   9.862   0.786 -0.1930  0.2648  0.7108
 1295SOL     OW12987   2.207   3.273   0.774 -0.1531 -0.0097 -0.2245
 1295SOL    HW112988   2.116   3.257   0.735 -0.2446  1.0773 -0.4811
 1295SOL    HW212989   2.250   3.186   0.795 -1.0127 -0.5513 -0.6770
 1296SOL     OW12990   2.788   1.872   1.752 -0.0364  0.3974  0.0846
 1296SOL    HW112991   2.759   1.851   1.846 -1.2864 -2.9691 -0.9743
 1296SOL    HW212992   2.886   1.890   1.751  0.3127 -1.2226  1.7996
 1297SOL     OW12993   3.055   0.298   0.537  0.2128 -0.7256 -0.2526
 1297SOL    HW112994   3.122   0.309   0.610  1.7826 -0.5932 -1.6875
 1297SOL    HW212995   3.088   0.230   0.471 -1.1141 -0.7467 -0.9072
 1299SOL     OW12996   4.605   3.353   2.037  0.1122 -0.1956 -0.1397
 1299SOL    HW112997   4.566   3.445   2.024 -0.9525 -0.5300  0.5965
 1299SOL    HW212998   4.593   3.325   2.132  2.6180 -0.1254  0.2104
 1300SOL     OW12999   4.020   3.235   1.978 -0.0794 -0.3409 -0.8083
 1300SOL    HW113000   3.945   3.272   2.032  0.5341 -0.9208  0.4763
 1300SOL    HW213001   4.001   3.140   1.954  0.0042 -0.3244 -0.9424
 1301SOL     OW13002   9.949   4.870   1.849  0.5855 -0.7653  0.4205
 1301SOL    HW113003   9.924   4.797   1.785  0.6905 -1.3395  1.0327
 1301SOL    HW213004   9.866   4.919   1.877  0.4158 -1.1796  0.6468
 1302SOL     OW13005   1.348   4.563   1.759  0.1355 -0.4405 -0.5161
 1302SOL    HW113006   1.331   4.512   1.674  1.3641  0.2590 -1.1911
 1302SOL    HW213007   1.427   4.524   1.806 -0.6797 -0.9678  0.4316
 1303SOL     OW13008   9.533   4.331   1.990  0.2604  0.1930 -1.2031
 1303SOL    HW113009   9.489   4.313   2.078  2.4592  0.5761  0.0127
 1303SOL    HW213010   9.466   4.318   1.916 -1.3005 -1.3435  0.4181
 1304SOL     OW13011   2.144   2.154   0.334 -0.0671  0.4010 -0.2636
 1304SOL    HW113012   2.068   2.136   0.396 -0.0817 -2.0728 -0.9541
 1304SOL    HW213013   2.119   2.228   0.272 -1.3273  0.6441  0.5108
 1306SOL     OW13014   1.865   6.294   1.286  0.2239  0.2177 -0.0963
 1306SOL    HW113015   1.833   6.201   1.305  3.2876 -0.7007  0.7561
 1306SOL    HW213016   1.897   6.299   1.191  0.9580  0.1186  0.1419
 1308SOL     OW13017   3.816   0.464   1.796  0.1865 -0.0970  0.0347
 1308SOL    HW113018   3.755   0.488   1.871  3.2253  0.5711  2.3608
 1308SOL    HW213019   3.884   0.398   1.827  0.8492 -0.6360 -2.4282
 1309SOL     OW13020   3.594   9.798   1.185  0.0210 -0.0376 -0.1638
 1309SOL    HW113021   3.632   9.707   1.199 -0.2420 -0.4839 -2.2473
 1309SOL    HW213022   3.663   9.858   1.147 -0.5563 -0.1077 -1.3502
 1311SOL     OW13023   2.133   2.256   1.472 -0.2561  0.3366 -0.4306
 1311SOL    HW113024   2.207   2.322   1.461  0.3278 -0.0030  1.4122
 1311SOL    HW213025   2.057   2.299   1.522  1.2431 -1.1417  3.3188
 1312SOL     OW13026   9.679   5.421   0.554 -0.0849  0.6179  0.6599
 1312SOL    HW113027   9.727   5.472   0.625  1.5625 -0.6604  0.4966
 1312SOL    HW213028   9.650   5.483   0.482 -0.8827  1.7711  1.9387
 1314SOL     OW13029   1.764   4.133   0.798  0.5556 -0.3095 -0.0382
 1314SOL    HW113030   1.828   4.073   0.846  1.2216  0.6285  0.2661
 1314SOL    HW213031   1.674   4.089   0.793  0.9516 -1.1876  0.4663
 1315SOL     OW13032   2.796   0.314   0.624  0.2543  0.0780  0.0776
 1315SOL    HW113033   2.872   0.290   0.564  1.3843  0.3505  1.3644
 1315SOL    HW213034   2.822   0.296   0.719 -0.0925  3.1185  0.8080
 1316SOL     OW13035   3.541   3.279   0.844 -0.5834  0.3620  0.3896
 1316SOL    HW113036   3.562   3.324   0.757 -1.6633  0.6538  0.2735
 1316SOL    HW213037   3.566   3.182   0.838  1.8444  0.9514  0.6850
 1318SOL     OW13038   2.802   4.672   0.631 -0.5587  0.0686 -0.3872
 1318SOL    HW113039   2.835   4.666   0.726  1.4961  1.0255 -1.0109
 1318SOL    HW213040   2.833   4.592   0.580 -1.1765 -0.1566 -0.4202
 1319SOL     OW13041   4.831   4.756   1.254  0.0108 -0.5265 -0.3683
 1319SOL    HW113042   4.849   4.837   1.198  0.8457 -0.8526 -0.5660
 1319SOL    HW213043   4.746   4.770   1.305  0.6125  0.8525  0.2857
 1320SOL     OW13044   3.808   1.774   0.654 -0.6299 -0.1574  0.1985
 1320SOL    HW113045   3.831   1.871   0.644 -1.8703  0.2314  0.9676
 1320SOL    HW213046   3.714   1.766   0.687 -0.1630 -1.6023  1.2083
 1321SOL     OW13047   3.110   1.602   0.339  0.1370 -0.3017 -0.1120
 1321SOL    HW113048   3.149   1.510   0.332 -1.3106 -0.9817  0.7309
 1321SOL    HW213049   3.051   1.620   0.260 -0.8146 -0.6882  0.5058
 1323SOL     OW13050   3.146   4.222   1.179  0.2362 -0.7346 -0.2318
 1323SOL    HW113051   3.053   4.188   1.189  0.2606 -1.0800 -1.1188
 1323SOL    HW213052   3.160   4.253   1.085  0.9979 -0.6390 -0.0916
 1324SOL     OW13053   3.729   3.611   0.876 -0.0298 -0.2283 -0.0241
 1324SOL    HW113054   3.681   3.580   0.794  1.5812  0.2124 -1.1531
 1324SOL    HW213055   3.788   3.538   0.911  1.7866  0.6673 -1.1788
 1325SOL     OW13056   3.300   7.997   1.558 -0.1647 -0.1151  0.7554
 1325SOL    HW113057   3.290   8.002   1.657  0.7442 -0.8283  0.8858
 1325SOL    HW213058   3.270   7.907   1.526 -2.0324  0.6812  0.1776
 1326SOL     OW13059   1.787   6.431   0.399  0.1841 -0.3416  0.0294
 1326SOL    HW113060   1.719   6.384   0.342 -0.6787  0.8590  0.0363
 1326SOL    HW213061   1.741   6.473   0.477  0.8231  1.0617 -0.3284
 1328SOL     OW13062   0.428   3.580   2.154 -0.1585  0.2098  0.3023
 1328SOL    HW113063   0.455   3.659   2.209  1.2235 -1.0957  1.5643
 1328SOL    HW213064   0.328   3.572   2.155 -0.3012  1.7614  0.3715
 1329SOL     OW13065   2.276   2.490   1.495 -0.1641  0.5139  0.1137
 1329SOL    HW113066   2.269   2.529   1.587  1.0029 -0.8613  0.7937
 1329SOL    HW213067   2.289   2.564   1.429 -1.1758  1.5204  1.0276
 1330SOL     OW13068   3.110   4.774   0.511 -1.1780 -0.2416  0.4294
 1330SOL    HW113069   3.032   4.818   0.466 -0.8765 -1.1620 -1.0435
 1330SOL    HW213070   3.146   4.703   0.451 -1.6158 -2.4691  2.7258
 1331SOL     OW13071   4.091   1.148   2.142 -0.4579 -0.0044  0.5294
 1331SOL    HW113072   4.043   1.076   2.092  0.1143 -0.5212  0.7054
 1331SOL    HW213073   4.039   1.173   2.223 -1.3969  0.8476 -0.3352
 1332SOL     OW13074   1.887   7.234   1.924 -0.2570 -0.1385  0.0185
 1332SOL    HW113075   1.850   7.294   1.853  0.4207 -0.0795 -0.2920
 1332SOL    HW213076   1.953   7.285   1.979  0.8357 -0.7679 -0.6749
 1333SOL     OW13077   4.343   3.783   2.037  0.2668  0.3730 -0.4091
 1333SOL    HW113078   4.339   3.882   2.040 -3.2968  0.2779  0.5046
 1333SOL    HW213079   4.341   3.746   2.130  0.8647 -0.5798 -0.7591
 1334SOL     OW13080   2.775   7.707   0.937  0.7433  0.4086  0.0004
 1334SOL    HW113081   2.846   7.696   0.868  0.1335  0.6228 -0.6604
 1334SOL    HW213082   2.740   7.801   0.934 -1.4423 -0.4316 -1.4864
 1335SOL     OW13083   1.995   5.580   2.297 -0.1116  0.0084 -0.4076
 1335SOL    HW113084   1.971   5.580   2.200  1.8279 -0.0708 -0.9132
 1335SOL    HW213085   1.965   5.665   2.339 -0.0483  0.4781 -1.3107
 1336SOL     OW13086   3.547   4.469   1.796 -0.4861 -0.2485 -0.3739
 1336SOL    HW113087   3.641   4.482   1.826  0.4731 -1.7448 -2.6286
 1336SOL    HW213088   3.497   4.418   1.866  0.1506  1.1035  1.1239
 1337SOL     OW13089   4.286   8.631   0.920  0.9219 -0.1929  1.0725
 1337SOL    HW113090   4.246   8.722   0.929 -0.3802 -0.5518 -0.8171
 1337SOL    HW213091   4.220   8.562   0.949 -0.0279 -0.8020 -2.2571
 1338SOL     OW13092   3.707   3.006   1.521  0.0396  0.1168 -0.4134
 1338SOL    HW113093   3.750   2.953   1.448 -0.4583 -0.2134 -0.4637
 1338SOL    HW213094   3.775   3.024   1.592  0.0394 -1.1732 -0.0720
 1340SOL     OW13095   2.971   7.626   1.609  0.1520  0.0016  0.3866
 1340SOL    HW113096   2.932   7.709   1.650  0.4154  1.1175 -1.5777
 1340SOL    HW213097   2.900   7.577   1.559  0.5445  0.3656 -0.5371
 1341SOL     OW13098   4.207   3.385   0.899 -0.3237 -0.0276 -0.0663
 1341SOL    HW113099   4.151   3.325   0.842 -2.0496  0.7058  0.8204
 1341SOL    HW213100   4.230   3.338   0.984  0.4773 -0.3388 -0.4405
 1342SOL     OW13101   4.524   8.516   1.009  0.0169  0.0872  0.7534
 1342SOL    HW113102   4.439   8.562   0.986 -0.7056 -2.4394 -1.8487
 1342SOL    HW213103   4.505   8.421   1.036  2.0165 -0.6897 -0.4466
 1343SOL     OW13104   3.233   1.961   0.918 -0.3877  0.1967  0.3536
 1343SOL    HW113105   3.192   1.890   0.861 -1.3692  0.4257  0.7666
 1343SOL    HW213106   3.319   1.926   0.958  0.3222  0.0555 -1.2636
 1344SOL     OW13107   1.212   5.591   1.626  0.2565 -0.2425 -0.5237
 1344SOL    HW113108   1.238   5.533   1.704  1.6711 -1.0252 -1.5561
 1344SOL    HW213109   1.163   5.535   1.558 -0.7167  0.3750 -0.3457
 1345SOL     OW13110   1.623   4.815   1.498  0.1681  0.0486  0.7180
 1345SOL    HW113111   1.594   4.838   1.591 -0.2092  0.4118  0.5134
 1345SOL    HW213112   1.627   4.716   1.487 -0.6192  0.0005  0.8620
 1346SOL     OW13113   1.585   5.909   0.557  0.4331 -0.1980 -0.1684
 1346SOL    HW113114   1.588   5.878   0.461  1.0365 -0.6122 -0.0214
 1346SOL    HW213115   1.523   5.986   0.565 -0.2876 -0.7046 -0.7474
 1347SOL     OW13116   4.470   2.202   1.826  0.1621 -0.0576 -0.6707
 1347SOL    HW113117   4.519   2.136   1.769  0.9311  0.2141 -0.3330
 1347SOL    HW213118   4.492   2.295   1.795  1.6982  0.1517  0.9230
 1348SOL     OW13119   3.173   2.337   1.038  0.2671  0.3505  0.5213
 1348SOL    HW113120   3.223   2.424   1.041 -0.8907  1.0633 -0.4447
 1348SOL    HW213121   3.076   2.355   1.024  0.1278 -1.1329 -0.5616
 1349SOL     OW13122   3.184   8.485   1.384 -0.3320  0.0231  0.0620
 1349SOL    HW113123   3.159   8.429   1.305  0.1306 -2.1466  1.3787
 1349SOL    HW213124   3.254   8.436   1.437 -1.7792  0.7069  2.6438
 1350SOL     OW13125   2.790   9.499   0.649  0.1298  0.1062 -0.1930
 1350SOL    HW113126   2.750   9.412   0.675  1.4064 -0.7977 -1.1551
 1350SOL    HW213127   2.735   9.541   0.577  0.2145 -0.5311 -0.6367
 1351SOL     OW13128   2.041   3.154   1.980 -0.3361  0.4538 -0.3521
 1351SOL    HW113129   2.110   3.082   1.972 -0.3935  0.5377 -1.8319
 1351SOL    HW213130   2.086   3.242   1.991 -0.2809  0.0972  2.5072
 1352SOL     OW13131   4.459   3.661   1.352  0.2916  0.1935 -0.7500
 1352SOL    HW113132   4.386   3.632   1.289  1.2516  1.1459 -2.3407
 1352SOL    HW213133   4.447   3.615   1.440 -1.2826 -0.9120 -1.5109
 1353SOL     OW13134   2.085   9.178   1.713 -0.5160 -0.7333  0.2550
 1353SOL    HW113135   2.073   9.219   1.622 -0.8244  0.0641  0.6474
 1353SOL    HW213136   1.995   9.153   1.749 -0.5161  0.1586  0.8866
 1354SOL     OW13137   3.761   4.048   0.570  0.2957  0.1739 -0.1101
 1354SOL    HW113138   3.669   4.010   0.583 -0.4991  1.6450 -1.2409
 1354SOL    HW213139   3.819   3.979   0.526 -0.6926 -0.2678 -0.7619
 1356SOL     OW13140   4.226   2.558   1.320 -0.0169 -0.0063 -0.4205
 1356SOL    HW113141   4.263   2.555   1.413  0.6300  2.5146 -0.5553
 1356SOL    HW213142   4.156   2.629   1.314  1.4188  1.3147 -2.3457
 1358SOL     OW13143   3.180   2.936   1.527  0.2529  0.0148  0.2453
 1358SOL    HW113144   3.272   2.976   1.524  0.7808 -0.8060  3.1970
 1358SOL    HW213145   3.177   2.856   1.467  1.4375  0.1229  0.0267
 1359SOL     OW13146   2.930   6.526   1.536 -0.0264  0.2677 -0.3106
 1359SOL    HW113147   2.996   6.555   1.605 -1.1933 -0.5870  1.2185
 1359SOL    HW213148   2.852   6.589   1.536 -1.6541 -1.6733  1.6459
 1360SOL     OW13149   3.086   4.660   2.240 -0.6593 -0.1107 -0.2533
 1360SOL    HW113150   3.065   4.613   2.326  1.3220 -0.8382 -0.1499
 1360SOL    HW213151   3.055   4.755   2.246 -0.3979 -0.1066  1.3192
 1362SOL     OW13152   2.873   4.090   1.486 -1.1297 -0.0892 -0.3520
 1362SOL    HW113153   2.884   4.167   1.549 -2.0284 -0.5244  0.3545
 1362SOL    HW213154   2.892   4.120   1.393 -0.9582  0.8636 -0.0177
 1364SOL     OW13155   4.155   0.899   2.293  0.8186 -0.7981 -0.2112
 1364SOL    HW113156   4.179   0.989   2.258 -0.1852 -0.1721  0.6681
 1364SOL    HW213157   4.055   0.887   2.289  0.7245 -0.9358  1.8268
 1365SOL     OW13158   2.303   6.081   2.006 -0.4906 -0.1921  0.2061
 1365SOL    HW113159   2.270   6.005   1.950  0.1573 -1.2693  1.2803
 1365SOL    HW213160   2.264   6.166   1.971 -0.2477 -0.8527 -1.7883
 1367SOL     OW13161   0.887   3.582   1.647  0.4209  0.0223 -0.5156
 1367SOL    HW113162   0.856   3.493   1.678  0.3650 -0.1830 -1.1692
 1367SOL    HW213163   0.809   3.645   1.642  0.4535  0.0967 -0.1000
 1368SOL     OW13164   3.768   4.010   1.742 -0.0944 -0.7292  0.0218
 1368SOL    HW113165   3.695   3.942   1.739 -0.4326 -0.4129  1.0696
 1368SOL    HW213166   3.744   4.083   1.806 -0.3228  1.0616 -2.0360
 1369SOL     OW13167   2.922   9.563   2.175 -0.0082 -0.4779 -0.1439
 1369SOL    HW113168   3.001   9.569   2.236  0.2984 -2.3103 -0.3368
 1369SOL    HW213169   2.896   9.655   2.144  2.1142  0.1206 -0.1712
 1371SOL     OW13170   1.827   3.908   2.242  0.3399  0.0676 -0.4028
 1371SOL    HW113171   1.914   3.945   2.274 -0.0344  1.0505 -0.5317
 1371SOL    HW213172   1.755   3.927   2.309 -0.5681  2.6573 -2.0410
 1374SOL     OW13173  10.036   5.179   1.966  0.4613  0.6073  0.1036
 1374SOL    HW113174   9.999   5.086   1.964  2.4350 -0.1886 -0.3710
 1374SOL    HW213175   9.996   5.232   1.890  0.9535 -0.5021 -0.9454
 1375SOL     OW13176   2.850   9.303   1.000 -0.3059 -0.0155  0.0872
 1375SOL    HW113177   2.919   9.374   1.011  0.7950 -1.0284 -0.1465
 1375SOL    HW213178   2.892   9.213   1.014 -1.2959 -0.7138 -1.3210
 1377SOL     OW13179   0.217   4.996   2.221 -0.2995  0.2361 -0.4912
 1377SOL    HW113180   0.223   4.915   2.279  4.0663  0.1559 -0.9051
 1377SOL    HW213181   0.223   4.968   2.125 -0.3048  0.9330 -0.6940
 1379SOL     OW13182   4.800   2.521   1.121 -0.1348 -0.6790 -0.0046
 1379SOL    HW113183   4.849   2.437   1.144 -0.4928 -0.6246  0.9777
 1379SOL    HW213184   4.748   2.552   1.200  0.3528  0.7265 -0.2160
 1380SOL     OW13185   1.020   3.900   1.948 -0.0666 -0.4331 -0.1386
 1380SOL    HW113186   1.011   3.858   2.039  0.8057 -0.2084  0.0528
 1380SOL    HW213187   0.941   3.876   1.893 -0.6739 -0.4662  0.7287
 1381SOL     OW13188   1.897   4.623   1.258  0.0332  0.1605  0.1355
 1381SOL    HW113189   1.982   4.609   1.309 -0.4541  0.0440  0.9209
 1381SOL    HW213190   1.878   4.721   1.250 -0.4509  0.1506  1.1167
 1383SOL     OW13191   3.099   0.704   1.349 -0.3188  0.2364 -0.4357
 1383SOL    HW113192   3.197   0.695   1.334 -0.3340  0.9838 -1.0023
 1383SOL    HW213193   3.079   0.699   1.447  0.2492 -0.2295 -0.3449
 1384SOL     OW13194   4.224   3.539   1.260  0.5237  0.0119  0.0589
 1384SOL    HW113195   4.146   3.600   1.248  1.3638  0.8881 -1.0613
 1384SOL    HW213196   4.197   3.445   1.238 -0.4733  0.1588  0.6570
 1385SOL     OW13197   4.018   4.827   1.185  0.3111 -0.1388  0.0349
 1385SOL    HW113198   3.952   4.830   1.110  0.1356 -2.0788  0.0709
 1385SOL    HW213199   3.970   4.812   1.271  0.7712 -1.4341  0.0767
 1386SOL     OW13200   4.925   0.747   1.288  0.3593  0.2188  0.0219
 1386SOL    HW113201   4.836   0.721   1.326 -0.6065  0.1381 -2.1941
 1386SOL    HW213202   4.954   0.835   1.325  0.0898 -0.4895  1.9211
 1387SOL     OW13203   1.381   5.307   0.814 -0.2454 -0.1587  0.0055
 1387SOL    HW113204   1.476   5.278   0.822 -0.7000 -1.5723  0.4507
 1387SOL    HW213205   1.377   5.404   0.788  1.3136 -0.8507 -2.9853
 1388SOL     OW13206   1.253   4.396   2.182  0.1319  0.0660  0.0919
 1388SOL    HW113207   1.198   4.403   2.265 -0.5385 -0.2827 -0.3254
 1388SOL    HW213208   1.337   4.345   2.203  0.1015  0.2291  0.6227
 1390SOL     OW13209   5.055   1.813   0.558  0.0838 -0.2553  0.2096
 1390SOL    HW113210   5.117   1.738   0.583  0.2347 -0.9751 -2.1738
 1390SOL    HW213211   5.066   1.888   0.623  1.5187 -1.4294  1.3825
 1391SOL     OW13212   0.860   4.967   0.958 -0.1195  0.1642  0.1546
 1391SOL    HW113213   0.860   5.040   1.028  0.1021  0.8855 -0.5845
 1391SOL    HW213214   0.937   4.905   0.976  0.8924  1.2481 -0.3530
 1392SOL     OW13215   3.372   0.813   1.794  0.1116 -0.3339 -0.0023
 1392SOL    HW113216   3.442   0.798   1.864  0.8642 -0.8585 -0.8666
 1392SOL    HW213217   3.391   0.898   1.745 -2.0419  1.6076  2.3432
 1393SOL     OW13218   3.536   1.750   0.641  0.4338 -0.0649  0.1807
 1393SOL    HW113219   3.474   1.702   0.703 -1.4644  0.7984 -1.0284
 1393SOL    HW213220   3.550   1.695   0.559  1.3087 -0.2736  0.4659
 1394SOL     OW13221   3.320   5.185   0.595 -0.0082 -0.1527  0.2557
 1394SOL    HW113222   3.252   5.258   0.607 -0.8617 -0.6616 -1.2707
 1394SOL    HW213223   3.383   5.210   0.522 -0.4855 -1.0654 -0.4765
 1395SOL     OW13224   1.190   5.603   2.063 -0.3097  0.1265  0.4411
 1395SOL    HW113225   1.213   5.509   2.087 -0.2973  0.6428  2.5386
 1395SOL    HW213226   1.211   5.663   2.140  1.7892  2.1904 -1.6928
 1396SOL     OW13227   4.228   3.654   0.906 -0.2918 -0.4548 -0.1824
 1396SOL    HW113228   4.197   3.700   0.822 -2.6468 -0.8765  0.4236
 1396SOL    HW213229   4.208   3.556   0.900 -0.2197 -0.5327  0.7605
 1397SOL     OW13230   0.753   3.116   2.321  0.0746  0.1133 -0.1805
 1397SOL    HW113231   0.679   3.050   2.318 -1.1821  1.4216  1.2740
 1397SOL    HW213232   0.721   3.205   2.290  1.3319  0.4366 -0.6110
 1398SOL     OW13233   2.173   2.084   0.769  0.0934 -0.4124  0.0721
 1398SOL    HW113234   2.210   1.991   0.778 -1.4838 -0.8803  2.0325
 1398SOL    HW213235   2.236   2.149   0.813  0.4339 -0.7354  0.0663
 1399SOL     OW13236   4.242   2.301   1.221  0.7693 -0.0803 -0.1888
 1399SOL    HW113237   4.297   2.265   1.296  0.0084 -1.3801 -0.2451
 1399SOL    HW213238   4.201   2.388   1.248 -0.4187 -1.0818  1.3333
 1401SOL     OW13239   1.941   3.278   0.673 -0.1077  0.3941  0.0595
 1401SOL    HW113240   1.923   3.369   0.636 -1.2412 -0.2939 -1.1107
 1401SOL    HW213241   1.860   3.245   0.721 -0.0243 -0.4047 -0.3475
 1402SOL     OW13242   3.067   7.038   0.387 -0.1844 -0.3527 -0.6275
 1402SOL    HW113243   3.094   7.122   0.435 -1.1761  0.1579 -0.9619
 1402SOL    HW213244   3.035   7.060   0.296 -0.5155 -1.0965 -0.6963
 1403SOL     OW13245   2.833   4.906   0.989 -0.2911 -0.4690  0.0563
 1403SOL    HW113246   2.741   4.898   1.028  0.4753  0.5156  2.1381
 1403SOL    HW213247   2.833   4.978   0.919 -1.0676 -0.3500  0.1680
 1404SOL     OW13248   1.561   6.304   1.274 -0.0314 -0.1299  0.0412
 1404SOL    HW113249   1.563   6.398   1.241  0.0144  0.8379  2.6928
 1404SOL    HW213250   1.655   6.272   1.291 -0.1183 -0.2008  0.3883
 1405SOL     OW13251   2.217   7.323   2.321 -0.3271  0.1272 -0.2335
 1405SOL    HW113252   2.218   7.378   2.237  0.8851 -1.0731 -1.0341
 1405SOL    HW213253   2.132   7.271   2.326 -0.7654  0.8341 -0.2947
 1406SOL     OW13254   2.836   9.170   1.415  0.1909  0.1870 -0.7924
 1406SOL    HW113255   2.792   9.241   1.471 -0.5560  0.7284 -2.0462
 1406SOL    HW213256   2.908   9.211   1.360  1.2950 -0.4444  0.1588
 1407SOL     OW13257   2.514   3.945   1.713  0.0001 -0.0273  0.3556
 1407SOL    HW113258   2.522   4.026   1.770 -4.6240 -0.3728  1.6859
 1407SOL    HW213259   2.547   3.865   1.763  1.4108  0.5087  0.3000
 1408SOL     OW13260   4.201   3.233   1.126 -0.4762 -0.5919 -0.0876
 1408SOL    HW113261   4.280   3.176   1.149  0.7000  0.2389 -1.9601
 1408SOL    HW213262   4.118   3.177   1.129  0.2875 -1.6996  1.0023
 1409SOL     OW13263   2.674   4.086   2.186 -0.8095  0.6455  0.2463
 1409SOL    HW113264   2.626   4.171   2.163 -0.4517  0.8259  0.1655
 1409SOL    HW213265   2.739   4.104   2.259 -0.0441  0.6517 -0.4340
 1411SOL     OW13266   0.970   3.731   0.770 -0.2215 -0.3923  0.3396
 1411SOL    HW113267   0.913   3.684   0.703 -1.5132 -0.0733  1.1940
 1411SOL    HW213268   0.934   3.822   0.787  0.9264  0.0514  0.4155
 1412SOL     OW13269   2.815   2.821   1.068 -0.0374 -0.0051  0.0942
 1412SOL    HW113270   2.866   2.789   0.988 -1.4539 -0.0634 -0.8004
 1412SOL    HW213271   2.736   2.761   1.084 -0.2360  0.4928  1.0320
 1413SOL     OW13272   1.332   5.458   1.249 -0.4716  0.1431 -0.0581
 1413SOL    HW113273   1.279   5.516   1.187 -0.2809  1.6871  1.2081
 1413SOL    HW213274   1.277   5.438   1.331  0.8368  1.6613  1.2119
 1415SOL     OW13275   2.070   6.114   1.441 -0.0106 -0.0034 -0.0922
 1415SOL    HW113276   2.130   6.184   1.403  0.8862 -1.5837 -1.6431
 1415SOL    HW213277   1.988   6.105   1.384  0.1501 -0.6170 -0.2311
 1416SOL     OW13278   0.598   5.786   0.715 -0.1725 -0.6916  0.0598
 1416SOL    HW113279   0.506   5.817   0.740 -0.0081 -0.3120  0.1984
 1416SOL    HW213280   0.598   5.756   0.620 -0.3411 -0.2730 -0.0761
 1417SOL     OW13281   3.911   3.848   0.403  0.0290 -0.2291 -0.3109
 1417SOL    HW113282   3.944   3.934   0.365  0.0819 -0.6608 -1.2521
 1417SOL    HW213283   3.842   3.809   0.342 -1.0239 -0.1528  0.8153
 1418SOL     OW13284   2.268   7.599   0.954  0.4957 -0.0347  0.1183
 1418SOL    HW113285   2.274   7.526   0.885 -0.8486  0.3077 -0.3723
 1418SOL    HW213286   2.297   7.563   1.043  1.3627 -0.7307 -0.4465
 1419SOL     OW13287   3.314   8.768   2.107 -0.3269 -0.1260 -0.0362
 1419SOL    HW113288   3.354   8.838   2.166 -0.7325 -0.3552  0.5159
 1419SOL    HW213289   3.380   8.744   2.035  1.1450 -1.5340  1.7111
 1421SOL     OW13290   4.911   2.752   1.766  0.2917  0.0129  0.0228
 1421SOL    HW113291   4.858   2.830   1.733 -1.5273 -1.4066 -0.5587
 1421SOL    HW213292   4.999   2.748   1.718 -0.1260  0.9811 -0.8334
 1422SOL     OW13293   4.805   3.579   2.189 -0.0798  0.5113  0.1831
 1422SOL    HW113294   4.863   3.512   2.143 -0.2191  0.6572 -0.2062
 1422SOL    HW213295   4.743   3.620   2.123  0.8581  1.9420  0.1662
 1423SOL     OW13296   1.575   4.778   1.800 -0.7775  0.1159  0.4345
 1423SOL    HW113297   1.630   4.860   1.808 -1.6366  0.7765 -0.3289
 1423SOL    HW213298   1.536   4.755   1.889 -0.4890  0.4928  0.6597
 1424SOL     OW13299   2.114   2.784   0.735  0.4617 -0.3043 -0.7745
 1424SOL    HW113300   2.110   2.877   0.701  0.3398 -0.2387 -0.5803
 1424SOL    HW213301   2.053   2.725   0.681  0.3845 -0.2313 -0.7662
 1425SOL     OW13302   2.462   7.696   1.343  0.1259  0.0591  0.0727
 1425SOL    HW113303   2.420   7.615   1.302  0.8808 -0.7151  0.7896
 1425SOL    HW213304   2.489   7.760   1.271  0.8727 -1.0017 -0.6126
 1426SOL     OW13305   3.725   5.024   1.462  0.3966 -0.0138  0.1952
 1426SOL    HW113306   3.776   4.941   1.437 -0.4242 -1.2500  2.4196
 1426SOL    HW213307   3.787   5.102   1.465  1.1897 -0.5338 -1.9309
 1427SOL     OW13308   1.556   5.737   1.114  0.0084 -0.3478 -0.4287
 1427SOL    HW113309   1.566   5.660   1.177  0.7364  0.8386  0.9289
 1427SOL    HW213310   1.646   5.777   1.097 -0.3684  0.1918 -1.1433
 1429SOL     OW13311   4.168   3.908   1.758  0.0979 -0.3570 -0.6169
 1429SOL    HW113312   4.181   3.843   1.683  0.7651 -0.2288 -0.6143
 1429SOL    HW213313   4.256   3.950   1.782 -0.1823 -0.0840 -0.0477
 1430SOL     OW13314   4.403   3.915   1.160  0.2700 -0.3321  0.2153
 1430SOL    HW113315   4.480   3.921   1.223  1.7611  0.4945 -1.6333
 1430SOL    HW213316   4.434   3.878   1.073 -1.2923  0.6385 -0.7798
 1431SOL     OW13317   2.764   1.656   1.589  0.1360  0.1566  0.0527
 1431SOL    HW113318   2.765   1.745   1.635  1.7313  0.2844 -0.1930
 1431SOL    HW213319   2.804   1.665   1.498 -1.2399 -0.4884 -0.6272
 1432SOL     OW13320   3.845   3.691   2.070 -0.3959 -0.7133  0.3063
 1432SOL    HW113321   3.870   3.605   2.025 -0.4019 -0.4482 -0.2162
 1432SOL    HW213322   3.884   3.767   2.018 -0.8911 -0.3732  0.4324
 1433SOL     OW13323   1.710   7.099   2.081 -0.5136 -0.5395  0.0718
 1433SOL    HW113324   1.776   7.148   2.024  0.1007 -1.4111  0.0249
 1433SOL    HW213325   1.716   7.132   2.175 -0.4932 -0.1378 -0.0692
 1434SOL     OW13326   3.525   0.350   1.288 -0.0005  0.7762  0.1268
 1434SOL    HW113327   3.529   0.278   1.219  0.6054  0.9520 -0.0198
 1434SOL    HW213328   3.457   0.326   1.358 -0.3755  0.4454 -0.3549
 1435SOL     OW13329   0.135   5.237   1.022  0.3317  0.0594  0.1782
 1435SOL    HW113330   0.221   5.272   0.985  1.5204 -1.8453  1.0447
 1435SOL    HW213331   0.105   5.296   1.097  1.5228  0.0712  0.6656
 1437SOL     OW13332   1.861   9.264   2.075 -0.1963  0.5481 -0.5254
 1437SOL    HW113333   1.884   9.263   2.172 -2.3071 -1.9592  0.0123
 1437SOL    HW213334   1.945   9.263   2.020  1.0024  2.1728  1.2416
 1438SOL     OW13335   4.319   2.735   2.065 -0.0772 -0.0225 -0.4521
 1438SOL    HW113336   4.417   2.713   2.059  0.3740  1.7944 -0.1343
 1438SOL    HW213337   4.278   2.685   2.140  0.8692  0.0659  0.1322
 1439SOL     OW13338   3.297   1.914   2.232  0.4372  0.1968  0.4726
 1439SOL    HW113339   3.300   1.942   2.327  1.3886 -0.1538  0.5504
 1439SOL    HW213340   3.271   1.818   2.226 -1.2661  0.6630  0.2888
 1440SOL     OW13341   1.003   3.512   1.912 -0.2813  0.6678  0.0908
 1440SOL    HW113342   1.003   3.424   1.864 -1.2992  0.0872  1.1021
 1440SOL    HW213343   0.984   3.586   1.848 -3.2986 -0.2607 -0.1541
 1441SOL     OW13344   0.516   4.088   2.053  0.4559 -0.1454  0.0296
 1441SOL    HW113345   0.441   4.081   1.988  1.2422  1.9203 -1.1589
 1441SOL    HW213346   0.482   4.123   2.140 -0.1238 -0.1469 -0.1954
 1442SOL     OW13347   3.429   2.822   0.684  0.2184  0.3616  0.0530
 1442SOL    HW113348   3.470   2.874   0.759  1.2857  0.7423 -0.7782
 1442SOL    HW213349   3.501   2.790   0.623 -0.2049 -3.5796  1.4542
 1443SOL     OW13350   9.861   5.223   0.940  0.4171  0.0289  0.0364
 1443SOL    HW113351   9.819   5.168   1.012  0.6421  0.9182  0.8600
 1443SOL    HW213352   9.956   5.243   0.964  1.0930 -1.2761 -1.4266
 1444SOL     OW13353   2.478   9.817   0.721  0.6694  0.0831 -0.9265
 1444SOL    HW113354   2.569   9.791   0.754  0.3152 -1.9668 -1.5033
 1444SOL    HW213355   2.488   9.877   0.641  1.4906  1.8509  0.4487
 1445SOL     OW13356   0.983   3.777   2.227 -0.2864 -0.5018 -0.0639
 1445SOL    HW113357   0.954   3.781   2.322 -3.0239  0.8466 -0.9095
 1445SOL    HW213358   0.973   3.684   2.192 -0.9856 -0.6122  0.4329
 1448SOL     OW13359   1.726   3.119   1.280 -0.0776 -0.5011 -0.2132
 1448SOL    HW113360   1.776   3.157   1.357 -0.3163 -0.0678 -0.2712
 1448SOL    HW213361   1.680   3.193   1.229 -0.2573 -0.8234 -0.5274
 1449SOL     OW13362   1.956   3.556   0.866 -0.7197  0.3848 -0.1997
 1449SOL    HW113363   2.037   3.544   0.810  0.2810 -0.1682  1.3285
 1449SOL    HW213364   1.974   3.624   0.937 -1.5914  0.2886  0.1273
 1450SOL     OW13365   3.752   0.023   1.109  0.4221 -0.1658  0.2271
 1450SOL    HW113366   3.820   0.039   1.180  0.0218  0.7164  0.4227
 1450SOL    HW213367   3.680   0.093   1.115 -1.0053 -1.6285  0.6417
 1451SOL     OW13368   3.374   0.678   1.340  0.0372 -0.5553  0.2590
 1451SOL    HW113369   3.453   0.740   1.350 -1.6073  1.7145 -0.4938
 1451SOL    HW213370   3.387   0.621   1.259  0.2936  0.7419 -0.6299
 1452SOL     OW13371   4.562   0.935   1.791  0.2408  0.0217 -0.0228
 1452SOL    HW113372   4.565   0.987   1.877  1.0935  2.0016 -1.2311
 1452SOL    HW213373   4.467   0.925   1.761 -0.1163 -1.2021  1.4377
 1453SOL     OW13374   3.255   5.459   2.157 -0.0016  0.3967  0.1155
 1453SOL    HW113375   3.237   5.369   2.195 -0.2630  0.4145  0.0352
 1453SOL    HW213376   3.298   5.450   2.068 -1.0288  0.3454 -0.3762
 1454SOL     OW13377   0.695   5.298   1.470 -0.5241  0.0187 -0.3188
 1454SOL    HW113378   0.665   5.356   1.545  0.3839 -1.2022  1.0106
 1454SOL    HW213379   0.642   5.320   1.388 -1.9071  0.9954  0.8041
 1455SOL     OW13380   2.629   0.801   0.589 -0.1047 -0.1842 -0.1583
 1455SOL    HW113381   2.673   0.748   0.661  0.7773 -0.7557 -1.0902
 1455SOL    HW213382   2.682   0.883   0.570  0.6877 -0.9506 -1.3883
 1459SOL     OW13383   2.313   5.713   1.328 -0.7045  0.7959  0.5071
 1459SOL    HW113384   2.248   5.681   1.259 -0.9612  1.5592  0.3871
 1459SOL    HW213385   2.372   5.783   1.288  0.1146  0.1955  0.6540
 1460SOL     OW13386   2.128   2.623   2.301  0.0617 -0.2512 -0.3320
 1460SOL    HW113387   2.225   2.598   2.294  0.1630  0.1994 -0.6063
 1460SOL    HW213388   2.105   2.686   2.226 -0.1578  0.5280  0.3812
 1462SOL     OW13389   2.585   4.543   0.768 -0.2613  0.3542  0.2106
 1462SOL    HW113390   2.498   4.593   0.763  0.0257  0.9899  1.4853
 1462SOL    HW213391   2.658   4.598   0.728 -0.1986  0.3882  0.3701
 1464SOL     OW13392   3.431   0.608   1.081  0.7216  0.2226 -0.7752
 1464SOL    HW113393   3.531   0.605   1.080  0.6776 -3.8255 -1.4797
 1464SOL    HW213394   3.399   0.655   0.999  2.0062  3.2390  0.3705
 1465SOL     OW13395   1.897   7.006   1.793  0.2163 -0.1166 -0.1313
 1465SOL    HW113396   1.881   7.077   1.862  0.5209  1.6553 -1.8480
 1465SOL    HW213397   1.837   6.928   1.812 -2.3279  1.8102  0.0710
 1466SOL     OW13398   2.865   4.482   1.098 -0.3385 -0.6132 -0.8338
 1466SOL    HW113399   2.792   4.459   1.163  0.5040  3.7747  1.8984
 1466SOL    HW213400   2.953   4.451   1.135  0.3151  3.1124  0.9690
 1468SOL     OW13401   2.595   3.284   0.627 -0.0254 -0.0027  0.0045
 1468SOL    HW113402   2.613   3.383   0.627  0.5251 -0.1021  0.2427
 1468SOL    HW213403   2.603   3.249   0.720 -0.6333 -0.2003 -0.0144
 1469SOL     OW13404   1.804   5.221   1.669  0.3458 -0.3503 -0.3512
 1469SOL    HW113405   1.808   5.321   1.666 -1.3712 -0.2521  0.1165
 1469SOL    HW213406   1.798   5.185   1.575 -2.0020  0.1418 -0.4029
 1470SOL     OW13407   3.657   8.539   1.080  0.4790 -0.1441 -0.0802
 1470SOL    HW113408   3.711   8.613   1.121  0.9384  0.6244 -1.9927
 1470SOL    HW213409   3.611   8.573   0.998 -1.2376 -1.3687  0.3384
 1471SOL     OW13410   3.831   2.670   1.642 -0.2320 -0.3535  0.3279
 1471SOL    HW113411   3.929   2.674   1.660  0.3357  1.0595 -2.6880
 1471SOL    HW213412   3.802   2.574   1.640  1.3248 -0.8379  0.2067
 1472SOL     OW13413   0.953   5.288   1.577 -0.3526  0.5726  0.1484
 1472SOL    HW113414   0.868   5.272   1.528  0.6143  0.2758 -1.4791
 1472SOL    HW213415   0.956   5.383   1.609 -0.4522  1.1271 -1.4709
 1474SOL     OW13416   4.679   0.663   1.396  0.1771 -0.3245  0.4400
 1474SOL    HW113417   4.580   0.669   1.407 -0.0723  0.3726 -1.8087
 1474SOL    HW213418   4.724   0.676   1.484 -1.6664  1.2216  1.1841
 1475SOL     OW13419   2.480   6.632   0.580  0.7806 -0.1254 -0.2290
 1475SOL    HW113420   2.430   6.613   0.495 -0.2813 -0.1341  0.3900
 1475SOL    HW213421   2.505   6.729   0.583 -0.5561  0.2209  0.1572
 1476SOL     OW13422   0.575   5.456   1.669  0.1366  0.4301  0.4219
 1476SOL    HW113423   0.569   5.396   1.749  0.9051 -0.3695 -0.1038
 1476SOL    HW213424   0.602   5.548   1.698  0.7202  0.0693  1.0588
 1477SOL     OW13425   4.025   0.669   1.997 -0.0114 -0.2847 -0.3210
 1477SOL    HW113426   3.957   0.664   1.923 -1.6995  2.7980  0.9310
 1477SOL    HW213427   4.014   0.590   2.057 -2.4951  0.1217 -0.1680
 1478SOL     OW13428   3.622   3.021   0.852  0.0265  0.5194 -0.0471
 1478SOL    HW113429   3.707   3.006   0.802  1.0375  3.5259  0.7040
 1478SOL    HW213430   3.635   2.995   0.948 -0.0064  0.7402  0.0156
 1480SOL     OW13431   4.166   9.779   2.180  0.2297  0.8130  0.0221
 1480SOL    HW113432   4.214   9.735   2.255  1.4678 -0.5272 -1.5382
 1480SOL    HW213433   4.215   9.862   2.152  0.1614  0.9084  0.1821
 1481SOL     OW13434   1.792   3.275   1.501  0.4145 -0.2812 -0.5656
 1481SOL    HW113435   1.844   3.229   1.573 -1.6072 -3.2850 -0.9695
 1481SOL    HW213436   1.702   3.300   1.536  0.6134  1.2610 -1.0993
 1482SOL     OW13437   5.467   3.478   1.480 -0.5098  0.8690  0.0457
 1482SOL    HW113438   5.546   3.474   1.541 -0.1640 -0.2357 -0.4682
 1482SOL    HW213439   5.386   3.504   1.532  0.1257  1.7168  0.6294
 1483SOL     OW13440   4.537   3.763   0.933 -0.2977 -0.6741 -0.4003
 1483SOL    HW113441   4.541   3.665   0.956 -0.8509 -0.8025 -0.8469
 1483SOL    HW213442   4.628   3.794   0.904 -0.2648 -1.2132 -0.8862
 1484SOL     OW13443   3.783   2.420   0.802 -0.1294  0.5815  0.1961
 1484SOL    HW113444   3.845   2.407   0.879  0.6166  0.3863 -0.4273
 1484SOL    HW213445   3.836   2.422   0.717 -1.1044 -0.8588 -0.4512
 1485SOL     OW13446   2.023   6.408   1.499 -0.0928 -0.0865  0.0160
 1485SOL    HW113447   1.952   6.390   1.431  1.6711  0.2736 -1.9705
 1485SOL    HW213448   2.089   6.474   1.462 -0.3958  1.9326  2.9890
 1487SOL     OW13449   5.076   2.877   1.435  0.6195 -0.1968 -0.0131
 1487SOL    HW113450   5.104   2.813   1.506  0.8132  0.8837  0.9048
 1487SOL    HW213451   5.122   2.964   1.448 -1.6633  0.9928  0.3558
 1488SOL     OW13452   3.441   3.735   2.234  0.2737 -0.3363  0.1140
 1488SOL    HW113453   3.464   3.665   2.166 -2.1693 -1.6748  0.6337
 1488SOL    HW213454   3.357   3.781   2.208 -0.1545 -0.1761  1.7012
 1489SOL     OW13455   1.922   5.227   1.248  0.0242  0.3664  0.4807
 1489SOL    HW113456   1.983   5.197   1.321 -0.1843  1.1417  0.9865
 1489SOL    HW213457   1.832   5.185   1.260  0.4554 -0.7920 -0.2767
 1490SOL     OW13458   4.462   2.404   1.100  0.0308 -0.6793  0.1562
 1490SOL    HW113459   4.372   2.381   1.135 -0.8073  1.4242 -0.5689
 1490SOL    HW213460   4.472   2.503   1.095  1.9878 -0.9009 -0.7804
 1491SOL     OW13461   2.961   2.732   0.857 -0.4364  0.3847 -0.1237
 1491SOL    HW113462   3.058   2.753   0.841  0.0728 -1.5664  0.2704
 1491SOL    HW213463   2.918   2.707   0.770 -0.1688 -0.4031 -0.0282
 1492SOL     OW13464   4.817   4.379   1.488 -0.4463 -0.3439  0.6639
 1492SOL    HW113465   4.733   4.432   1.501 -1.9218 -2.2558 -0.8834
 1492SOL    HW213466   4.862   4.408   1.404 -1.5619 -1.8742 -0.4968
 1493SOL     OW13467   2.358   5.695   1.795 -0.1943  0.2481  0.0592
 1493SOL    HW113468   2.292   5.755   1.840 -3.3313 -3.5572  0.7700
 1493SOL    HW213469   2.325   5.670   1.704  0.5161 -1.2705  0.1985
 1494SOL     OW13470   3.403   4.090   1.199  0.2666  0.1096  0.2035
 1494SOL    HW113471   3.308   4.121   1.196  0.2051 -0.0347  0.6547
 1494SOL    HW213472   3.446   4.109   1.111 -0.1960  0.1205 -0.0255
 1495SOL     OW13473   2.043   7.685   2.027 -0.3376  0.2343  0.5495
 1495SOL    HW113474   1.993   7.762   2.068 -0.5383  0.2551  0.2619
 1495SOL    HW213475   2.124   7.719   1.980 -0.7143  0.3212 -0.0331
 1496SOL     OW13476   2.333   3.051   0.846 -0.5706  0.4945  0.1206
 1496SOL    HW113477   2.297   2.982   0.908 -2.1939  0.3003 -1.0197
 1496SOL    HW213478   2.401   3.010   0.785 -0.8081  0.1369  0.0982
 1497SOL     OW13479   2.285   5.655   2.364  0.7234 -0.0593  0.2709
 1497SOL    HW113480   2.284   5.556   2.354 -1.6528 -0.3400  2.6239
 1497SOL    HW213481   2.228   5.696   2.292 -0.2925 -0.6002  0.7576
 1499SOL     OW13482   4.156   0.428   0.322  0.0958 -0.2240 -0.2293
 1499SOL    HW113483   4.068   0.415   0.367  0.8147 -1.8808  0.7718
 1499SOL    HW213484   4.217   0.353   0.347  1.3489  0.1756 -2.0035
 1502SOL     OW13485   4.591   3.409   1.710 -0.1804  0.3154  0.1693
 1502SOL    HW113486   4.601   3.377   1.805 -1.4248  0.9409  0.5229
 1502SOL    HW213487   4.643   3.494   1.698 -0.1804  0.3420  0.3457
 1503SOL     OW13488   2.540   8.708   0.569 -0.0211 -0.1152  0.4192
 1503SOL    HW113489   2.518   8.613   0.594  0.1737 -0.0428  0.8786
 1503SOL    HW213490   2.550   8.762   0.652 -2.0815  0.7624  0.1394
 1504SOL     OW13491   3.836   8.498   0.519 -0.6101  0.0931  0.0303
 1504SOL    HW113492   3.850   8.457   0.429 -1.7918 -0.3797  0.0490
 1504SOL    HW213493   3.912   8.473   0.579  0.3514  0.6897 -0.9352
 1506SOL     OW13494   2.745   7.643   1.910 -0.5155 -0.3147 -0.1271
 1506SOL    HW113495   2.685   7.580   1.861  0.8337 -0.3803 -1.7190
 1506SOL    HW213496   2.791   7.703   1.845  0.8154  0.0404  1.1176
 1507SOL     OW13497   1.501   3.979   0.626 -0.0862 -0.0332 -0.2806
 1507SOL    HW113498   1.508   3.911   0.699  0.1240  0.3204  0.0298
 1507SOL    HW213499   1.438   4.051   0.653 -1.0086 -0.5693 -0.9821
 1508SOL     OW13500   2.321   7.079   1.737  0.1840 -0.1516  0.3974
 1508SOL    HW113501   2.382   7.104   1.811 -0.3478  0.0584  0.7649
 1508SOL    HW213502   2.282   7.162   1.696  1.5202 -0.1799 -1.0195
 1509SOL     OW13503   3.566   9.163   2.192 -0.1643 -0.6577  0.2063
 1509SOL    HW113504   3.477   9.124   2.168 -0.0474  0.3191 -1.8928
 1509SOL    HW213505   3.575   9.253   2.151  0.6861  0.4666  2.7450
 1510SOL     OW13506   2.788   6.500   1.309  0.0144 -0.0587  0.0130
 1510SOL    HW113507   2.764   6.410   1.347  0.3675 -0.0972  0.1508
 1510SOL    HW213508   2.854   6.544   1.370  1.0650 -0.3878 -0.8764
 1511SOL     OW13509   4.174   0.853   1.467  0.0137 -0.0496 -0.3297
 1511SOL    HW113510   4.132   0.885   1.382  0.5470  1.4710 -0.0357
 1511SOL    HW213511   4.136   0.764   1.492 -1.8830  0.5951 -0.8803
 1512SOL     OW13512   4.161   4.132   1.944  0.2287  0.5721 -0.4134
 1512SOL    HW113513   4.119   4.059   1.891  0.1817 -0.7025  1.3239
 1512SOL    HW213514   4.222   4.092   2.013 -1.2088  2.0637  1.7876
 1513SOL     OW13515   3.352   3.657   1.923  0.1930 -0.6449  0.3742
 1513SOL    HW113516   3.315   3.645   1.831 -0.6901 -2.7491  0.9516
 1513SOL    HW213517   3.285   3.623   1.990  0.4536  1.6586  1.8435
 1515SOL     OW13518   2.048   2.877   1.138 -0.1641  0.0224 -0.5682
 1515SOL    HW113519   1.952   2.870   1.167  0.0714  0.1433  0.2516
 1515SOL    HW213520   2.089   2.958   1.181  0.8570 -1.1457  0.6904
 1516SOL     OW13521   2.572   0.247   0.488 -0.0267  0.3818 -0.2503
 1516SOL    HW113522   2.563   0.324   0.424  0.6396  0.0231 -0.7926
 1516SOL    HW213523   2.635   0.271   0.561 -0.9341  0.8598  0.3778
 1517SOL     OW13524   2.592   7.199   1.825 -0.2605  0.3119 -0.0619
 1517SOL    HW113525   2.614   7.169   1.918  2.0556  1.0043 -0.3754
 1517SOL    HW213526   2.651   7.151   1.760 -1.2309  0.5369 -1.1141
 1518SOL     OW13527   2.447   4.538   1.617 -0.1470 -0.1200 -0.5369
 1518SOL    HW113528   2.428   4.621   1.564 -0.9809  1.0055  1.4768
 1518SOL    HW213529   2.441   4.458   1.557 -3.4194  0.9019 -1.6649
 1520SOL     OW13530   4.106   1.576   1.650 -0.4875  0.4151  0.2738
 1520SOL    HW113531   4.084   1.497   1.707  3.9420 -1.4667 -0.4222
 1520SOL    HW213532   4.062   1.566   1.561 -0.1175 -1.2025  0.2563
 1522SOL     OW13533   3.702   2.443   1.580  0.0454  0.6605  0.4044
 1522SOL    HW113534   3.682   2.385   1.658  0.9837  0.5622  0.5734
 1522SOL    HW213535   3.619   2.457   1.526 -0.1049 -1.1246  0.1550
 1523SOL     OW13536   4.106   5.097   1.000  0.8368 -0.2380  0.0722
 1523SOL    HW113537   4.050   5.022   1.034 -1.0606  0.4788 -1.3812
 1523SOL    HW213538   4.063   5.136   0.918  1.1805  3.2036  1.4649
 1524SOL     OW13539   1.966   2.206   0.626 -0.0758  0.1313  0.4336
 1524SOL    HW113540   2.044   2.159   0.668 -0.6588 -1.2276  0.0239
 1524SOL    HW213541   1.904   2.239   0.697 -1.4269 -2.7884  0.6879
 1525SOL     OW13542   4.489   0.369   2.067  0.2809 -0.3503  0.4612
 1525SOL    HW113543   4.500   0.370   1.967 -0.2780 -1.1837  0.3886
 1525SOL    HW213544   4.502   0.461   2.102  1.0515 -0.1471 -0.3219
 1526SOL     OW13545   2.212   8.842   1.542  0.1473  0.2064 -0.2342
 1526SOL    HW113546   2.194   8.745   1.560  0.9816 -0.1682 -1.3507
 1526SOL    HW213547   2.307   8.852   1.511 -0.2006  1.2795 -0.9564
 1527SOL     OW13548   1.940   2.420   2.297  0.5656 -0.3139  0.1511
 1527SOL    HW113549   1.901   2.423   2.205  1.7420 -0.7747 -0.3720
 1527SOL    HW213550   2.009   2.491   2.307  0.3016 -0.1360  0.7497
 1528SOL     OW13551   3.486   5.165   1.353  0.3239 -0.0643 -0.7024
 1528SOL    HW113552   3.553   5.108   1.400  0.2783 -0.8145 -1.5235
 1528SOL    HW213553   3.428   5.107   1.295  0.0485  0.7736 -1.2757
 1529SOL     OW13554   3.106   1.489   1.824  0.1714 -0.0163 -0.3802
 1529SOL    HW113555   3.135   1.579   1.792 -0.7818 -0.2566 -2.0285
 1529SOL    HW213556   3.186   1.438   1.858  1.2374  0.3603 -2.2164
 1530SOL     OW13557   3.116   4.487   1.303 -0.1000 -0.1059 -0.6325
 1530SOL    HW113558   3.188   4.543   1.262  1.2606 -1.7799 -0.5679
 1530SOL    HW213559   3.144   4.391   1.304 -1.6376 -0.5725  0.8904
 1532SOL     OW13560  10.040   3.964   0.341 -0.1903  0.0743 -0.1312
 1532SOL    HW113561  10.075   4.045   0.388 -1.0587  0.5556 -0.3060
 1532SOL    HW213562  10.005   3.990   0.251  1.9344 -0.9253 -1.2755
 1533SOL     OW13563   4.914   3.951   1.071  0.0627  0.2698 -0.3001
 1533SOL    HW113564   5.008   3.918   1.061  0.2931  0.7624  0.2413
 1533SOL    HW213565   4.863   3.931   0.987  1.1448  1.6343 -1.3001
 1534SOL     OW13566   3.578   0.336   0.683  0.4676 -0.2742  0.3107
 1534SOL    HW113567   3.518   0.362   0.758 -0.2724 -0.5668 -0.1737
 1534SOL    HW213568   3.616   0.246   0.700  0.5834 -0.1905  0.5011
 1535SOL     OW13569   3.171   3.514   2.071  0.1741 -0.2501  0.5214
 1535SOL    HW113570   3.087   3.521   2.126 -0.3071  0.6218 -0.2983
 1535SOL    HW213571   3.200   3.419   2.066 -1.3273 -0.7068  0.0151
 1537SOL     OW13572   4.351   2.420   1.588  0.2231  0.6044 -0.2985
 1537SOL    HW113573   4.341   2.335   1.538  0.6452 -0.5308  1.4954
 1537SOL    HW213574   4.447   2.450   1.585  0.5978 -0.3980  1.2816
 1538SOL     OW13575   0.646   5.647   1.432  0.6017  0.2995 -0.4501
 1538SOL    HW113576   0.725   5.692   1.474  2.1234 -1.5933 -1.1680
 1538SOL    HW213577   0.636   5.556   1.471 -1.2245  0.5138 -0.4017
 1539SOL     OW13578   2.943   4.699   1.614 -0.3033  0.0523  1.1857
 1539SOL    HW113579   2.907   4.750   1.536 -0.3851  0.6874  1.6316
 1539SOL    HW213580   3.012   4.633   1.583  0.3505  0.9647  0.6890
 1541SOL     OW13581   4.206   3.920   0.865 -0.1262 -0.4934 -0.3243
 1541SOL    HW113582   4.252   3.835   0.892 -1.3489 -0.6968  1.1826
 1541SOL    HW213583   4.140   3.900   0.793 -0.4347 -0.8332  0.0499
 1542SOL     OW13584   1.387   3.193   0.447  0.0512  0.1285 -0.3110
 1542SOL    HW113585   1.474   3.168   0.488  0.8036  0.9446 -1.3828
 1542SOL    HW213586   1.349   3.272   0.494  0.1777  0.1362 -0.2223
 1543SOL     OW13587   3.870   9.504   2.173  0.0491  0.4075 -0.3454
 1543SOL    HW113588   3.957   9.473   2.136  1.4504  2.2933  1.2472
 1543SOL    HW213589   3.871   9.604   2.182 -2.1490  0.4220  0.0111
 1546SOL     OW13590   2.540   4.895   0.672 -0.0396 -0.1441 -0.5796
 1546SOL    HW113591   2.630   4.925   0.705 -0.3020 -1.1681  1.1342
 1546SOL    HW213592   2.470   4.919   0.739 -1.0730  0.7677 -1.9715
 1547SOL     OW13593   5.076   3.650   1.086  0.0571  0.4932 -1.2302
 1547SOL    HW113594   5.117   3.625   0.999 -0.2647 -0.6509 -1.0702
 1547SOL    HW213595   5.109   3.740   1.115 -1.8804  2.1244 -3.8257
 1549SOL     OW13596   3.103   8.112   0.906 -0.0716  0.1026  0.6613
 1549SOL    HW113597   3.094   8.017   0.935 -2.0162 -0.2547 -1.0540
 1549SOL    HW213598   3.180   8.121   0.843 -0.3462 -0.4782  0.2419
 1550SOL     OW13599   3.852   4.833   1.701  0.8835  0.3084 -0.2621
 1550SOL    HW113600   3.941   4.878   1.692  0.4785  0.9429 -1.1726
 1550SOL    HW213601   3.863   4.749   1.754  2.3044 -0.4352 -1.6716
 1551SOL     OW13602   3.403   9.646   2.257  0.2292  0.2182  0.4345
 1551SOL    HW113603   3.418   9.732   2.207  0.5734  0.1475  0.4159
 1551SOL    HW213604   3.317   9.651   2.306 -0.1217  0.2852 -0.1806
 1554SOL     OW13605   4.558   2.524   0.799 -0.1929  0.4086  0.1092
 1554SOL    HW113606   4.656   2.509   0.816 -0.0626  1.3711  0.2273
 1554SOL    HW213607   4.513   2.544   0.886 -0.4084  0.4341 -0.0106
 1555SOL     OW13608   3.380  -0.075   1.178 -0.1646  0.1083 -0.2403
 1555SOL    HW113609   3.469  -0.120   1.172  0.1988  0.7607  0.2231
 1555SOL    HW213610   3.320  -0.128   1.237  0.7731  1.0421  1.5833
 1556SOL     OW13611   0.080   4.277   1.879  0.1262 -0.2710  0.3616
 1556SOL    HW113612  -0.004   4.250   1.927  0.2291 -2.0220 -0.4078
 1556SOL    HW213613   0.112   4.364   1.916 -1.2071 -0.3152  1.7043
 1557SOL     OW13614   3.687   1.624   2.029 -0.1989 -0.0048  0.6027
 1557SOL    HW113615   3.751   1.603   1.955  0.4295  0.9202  0.8828
 1557SOL    HW213616   3.646   1.714   2.014  1.5543  1.1459  2.4986
 1558SOL     OW13617   2.933   2.398   2.182  0.0673  0.3562 -0.9403
 1558SOL    HW113618   2.893   2.382   2.091 -1.2342 -1.8039 -0.0143
 1558SOL    HW213619   2.864   2.440   2.241 -0.0100 -0.9733 -0.0844
 1559SOL     OW13620   2.596   7.465   1.789 -0.0735 -0.0767 -0.1985
 1559SOL    HW113621   2.601   7.368   1.811 -0.7915  0.1893  1.2227
 1559SOL    HW213622   2.537   7.478   1.709  0.1696 -0.8228 -0.4996
 1560SOL     OW13623   3.211   9.676   0.471  0.0784 -0.0946  0.2687
 1560SOL    HW113624   3.184   9.591   0.518 -0.4902  0.2236  0.5208
 1560SOL    HW213625   3.267   9.653   0.392 -3.1018 -0.9452 -1.8299
 1562SOL     OW13626   9.979   5.331   1.758  0.8784  0.1930  0.3421
 1562SOL    HW113627   9.999   5.259   1.690  0.6737 -0.4850  0.9888
 1562SOL    HW213628  10.048   5.403   1.752  1.7318 -0.6094  0.4468
 1563SOL     OW13629   4.527   1.858   0.428 -0.1271 -0.0228 -0.2095
 1563SOL    HW113630   4.447   1.807   0.462 -1.1302  2.4767  1.3173
 1563SOL    HW213631   4.607   1.835   0.484 -0.3482 -0.6390 -0.1414
 1565SOL     OW13632   4.107   4.601   2.003  0.3056 -0.1858  0.1966
 1565SOL    HW113633   4.087   4.510   1.967 -0.3789 -0.8800  2.2348
 1565SOL    HW213634   4.041   4.623   2.075  0.2977  2.0497 -0.4517
 1567SOL     OW13635   1.467   2.726   1.411 -0.0992 -0.4320  0.3951
 1567SOL    HW113636   1.566   2.711   1.423  0.4097  0.8801 -1.7857
 1567SOL    HW213637   1.449   2.824   1.401 -1.1576 -0.8746 -2.5770
 1568SOL     OW13638   2.494   3.051   0.467  0.3664 -0.3666  0.3177
 1568SOL    HW113639   2.526   3.126   0.526 -0.0751 -0.9514  1.3223
 1568SOL    HW213640   2.445   3.089   0.389  0.1948  0.4035  0.7885
 1570SOL     OW13641   2.393   3.837   0.397 -0.0633  0.0859  0.3188
 1570SOL    HW113642   2.332   3.827   0.476  0.5322  0.3840  0.8232
 1570SOL    HW213643   2.457   3.760   0.395  0.5850  0.6055  0.7195
 1571SOL     OW13644   2.789   3.228   0.354 -0.4315 -0.0883  0.0420
 1571SOL    HW113645   2.735   3.276   0.284 -0.4321 -0.7482 -0.4187
 1571SOL    HW213646   2.734   3.217   0.436 -0.1071  1.5565  0.5083
 1572SOL     OW13647   4.050   8.008   0.726  0.5800 -0.1377 -0.0571
 1572SOL    HW113648   4.126   8.070   0.743 -0.0657  0.0234  2.4787
 1572SOL    HW213649   3.969   8.061   0.699  1.2884 -0.2968 -2.6158
 1573SOL     OW13650   1.654   5.233   0.899  0.0958 -0.1855 -0.6802
 1573SOL    HW113651   1.652   5.210   0.802  0.9559 -1.8961 -0.3070
 1573SOL    HW213652   1.704   5.319   0.912 -1.0822  0.6906 -1.8568
 1574SOL     OW13653   4.344   3.682   2.282  0.1684 -0.1044  0.5353
 1574SOL    HW113654   4.250   3.696   2.314  0.5942 -0.1532  1.8246
 1574SOL    HW213655   4.407   3.733   2.339  0.8225  1.1261 -1.2536
 1575SOL     OW13656   2.832   9.166   0.750 -0.3943  0.8786 -0.5304
 1575SOL    HW113657   2.738   9.199   0.743 -0.7545 -0.2441 -1.1630
 1575SOL    HW213658   2.882   9.221   0.816 -1.6275  1.2149  0.1408
 1576SOL     OW13659   2.737   7.032   1.656 -0.7543  0.3155 -0.3014
 1576SOL    HW113660   2.696   6.961   1.714 -1.0423  0.7009 -0.0325
 1576SOL    HW213661   2.782   6.989   1.577 -0.7144 -0.1828 -0.0084
 1577SOL     OW13662   1.679   5.796   0.812 -0.3417  0.1533 -0.4981
 1577SOL    HW113663   1.774   5.801   0.841 -0.7149 -0.3801  0.8441
 1577SOL    HW213664   1.665   5.857   0.734  1.0224  0.4715 -0.5044
 1579SOL     OW13665   2.773   6.753   1.166  0.4415 -0.6167 -0.1668
 1579SOL    HW113666   2.756   6.676   1.227  2.9867 -0.1436  1.2035
 1579SOL    HW213667   2.860   6.740   1.119  0.3236  0.8654 -0.8316
 1581SOL     OW13668   1.021   4.736   1.308  0.1580 -0.0013 -0.1060
 1581SOL    HW113669   1.118   4.721   1.326  0.4541  0.9632 -0.8632
 1581SOL    HW213670   0.991   4.820   1.352 -0.1525  0.0952 -0.4929
 1583SOL     OW13671   3.439   0.051   0.475  0.3362 -0.3126  0.0685
 1583SOL    HW113672   3.344   0.025   0.493 -0.8961  2.9646 -1.2837
 1583SOL    HW213673   3.467   0.016   0.386 -1.0236  2.0892 -1.3551
 1584SOL     OW13674   2.751   2.678   1.410 -0.0971  0.8337  0.6781
 1584SOL    HW113675   2.766   2.695   1.313  0.0625  1.9381  0.8843
 1584SOL    HW213676   2.685   2.604   1.421  0.4347  0.2090 -0.2649
 1585SOL     OW13677   4.639   2.194   1.162 -0.3490 -0.3384  0.3540
 1585SOL    HW113678   4.712   2.178   1.095 -1.6267 -1.2888 -0.8436
 1585SOL    HW213679   4.574   2.260   1.126  0.0268  0.6708  1.5093
 1586SOL     OW13680   2.855   6.168   1.627  0.2104  0.3002 -0.0868
 1586SOL    HW113681   2.870   6.145   1.723  2.7268 -2.5143 -1.0441
 1586SOL    HW213682   2.936   6.215   1.591 -0.7452  1.4078 -0.7969
 1587SOL     OW13683   2.700   5.622   1.797  0.0449  0.7232 -0.0743
 1587SOL    HW113684   2.671   5.610   1.892  0.7299  1.4983  0.2432
 1587SOL    HW213685   2.623   5.606   1.736 -0.2068 -0.5621  0.5675
 1589SOL     OW13686   2.480   1.819   0.752 -0.0298 -0.0440 -0.7555
 1589SOL    HW113687   2.558   1.780   0.803 -2.1148 -2.5285  0.6462
 1589SOL    HW213688   2.427   1.877   0.813  0.1136  0.7774 -1.4149
 1590SOL     OW13689   3.845   0.991   1.612  0.0412 -0.2311 -0.4639
 1590SOL    HW113690   3.897   0.947   1.686  0.3164 -0.4547 -0.7913
 1590SOL    HW213691   3.906   1.049   1.559 -0.1252 -0.1924 -0.6115
 1591SOL     OW13692   2.143   4.187   0.806  0.1678  0.0080 -0.2478
 1591SOL    HW113693   2.190   4.209   0.721  2.3308 -0.4065  0.7999
 1591SOL    HW213694   2.103   4.270   0.845  2.5802  0.9523  0.3241
 1592SOL     OW13695   2.318   5.907   0.597 -0.2811 -0.2098 -0.0955
 1592SOL    HW113696   2.387   5.923   0.667 -0.3172  0.4241 -0.1988
 1592SOL    HW213697   2.230   5.944   0.628 -0.7459 -1.6667  0.3478
 1593SOL     OW13698   1.639   5.472   1.969  0.2040  0.2062  0.1172
 1593SOL    HW113699   1.629   5.443   1.874  0.2110 -1.6375  0.6609
 1593SOL    HW213700   1.643   5.571   1.973 -2.0070  0.3936 -1.5928
 1594SOL     OW13701   9.954   4.811   0.977 -0.0297  0.5909 -0.2626
 1594SOL    HW113702   9.905   4.884   1.026  1.3719  1.5944 -0.3230
 1594SOL    HW213703   9.931   4.816   0.879 -1.2171 -0.1106 -0.0349
 1598SOL     OW13704   2.979   5.488   1.525  0.6341 -0.4679  0.5259
 1598SOL    HW113705   3.074   5.468   1.548  0.1600 -2.2318  1.0368
 1598SOL    HW213706   2.924   5.405   1.535 -0.7814  0.2823 -0.7377
 1599SOL     OW13707   4.271   1.425   0.539  0.4965  0.2538  0.2736
 1599SOL    HW113708   4.339   1.463   0.602 -0.6404 -0.8345  2.2292
 1599SOL    HW213709   4.203   1.495   0.517  0.4054  0.4042  1.0051
 1600SOL     OW13710   1.669   5.091   2.322  0.2673 -0.7552 -0.2514
 1600SOL    HW113711   1.755   5.079   2.373 -0.1941 -3.4344 -0.0078
 1600SOL    HW213712   1.681   5.056   2.229 -0.6252 -1.4094 -0.1254
 1601SOL     OW13713   3.901   1.269   2.338 -0.1443 -0.3286  0.1030
 1601SOL    HW113714   3.833   1.284   2.267 -0.3984 -1.6624  0.0527
 1601SOL    HW213715   3.865   1.205   2.406  0.5569 -0.0114  0.7822
 1602SOL     OW13716   0.895   6.015   2.216  0.0926  0.0904  0.0158
 1602SOL    HW113717   0.835   5.937   2.227  0.5157 -0.1390  0.7062
 1602SOL    HW213718   0.842   6.096   2.190 -0.1772 -0.7740 -2.3009
 1603SOL     OW13719   5.065   4.489   0.874  0.4637 -0.1242 -0.4021
 1603SOL    HW113720   5.081   4.418   0.943  1.9779 -0.7217 -1.3440
 1603SOL    HW213721   5.007   4.560   0.913 -0.6606 -1.6133  0.7275
 1604SOL     OW13722   1.588   6.123   1.470  0.3156  0.7798 -0.4729
 1604SOL    HW113723   1.566   6.209   1.425  1.4508  0.5502 -1.4937
 1604SOL    HW213724   1.520   6.054   1.445  0.2171  0.9921 -0.7885
 1605SOL     OW13725   2.166   6.871   1.828  0.0663  0.7091  0.1057
 1605SOL    HW113726   2.076   6.909   1.807 -0.5791  0.5746  2.4665
 1605SOL    HW213727   2.236   6.920   1.775 -1.2491  1.7940 -0.6584
 1606SOL     OW13728   1.951   5.133   2.344  0.1199  0.1341 -0.4369
 1606SOL    HW113729   2.008   5.211   2.371  1.1912 -1.1116  1.0774
 1606SOL    HW213730   2.010   5.052   2.334 -1.4264 -1.3257  1.7341
 1608SOL     OW13731   2.937   9.795   0.392  0.5616 -0.0161 -0.2960
 1608SOL    HW113732   3.017   9.737   0.408  0.3395 -0.2039  0.1453
 1608SOL    HW213733   2.932   9.867   0.461 -0.1708 -0.5776  0.2508
 1609SOL     OW13734   3.173   7.552   2.059  0.4689  0.1086  0.0567
 1609SOL    HW113735   3.167   7.522   1.964  0.4682  0.7016 -0.1371
 1609SOL    HW213736   3.149   7.477   2.120  2.2169 -0.8045 -0.3456
 1610SOL     OW13737   5.053   4.293   2.198 -0.1409  0.1060  0.3752
 1610SOL    HW113738   5.076   4.319   2.292 -0.7396  1.3229  0.2028
 1610SOL    HW213739   5.127   4.240   2.159  0.2591 -0.1281  1.4292
 1611SOL     OW13740   4.176   3.171   1.566  0.0338 -0.3618 -0.5702
 1611SOL    HW113741   4.138   3.139   1.653 -2.1822  0.3499 -1.2315
 1611SOL    HW213742   4.155   3.268   1.554 -0.7798 -0.7438 -2.4487
 1614SOL     OW13743   1.530   6.159   1.010  0.1553 -0.4846 -0.3427
 1614SOL    HW113744   1.480   6.079   1.046 -0.7226  0.4834  0.6113
 1614SOL    HW213745   1.535   6.229   1.080  2.5605 -0.4129 -0.5702
 1615SOL     OW13746   3.432   4.332   2.004 -0.0792  0.5441 -0.2170
 1615SOL    HW113747   3.454   4.239   2.032 -3.1818  0.0072  0.6144
 1615SOL    HW213748   3.425   4.391   2.084  0.2333  1.1211 -0.6069
 1617SOL     OW13749   2.686   2.654   0.469 -0.0774 -0.2260 -0.1062
 1617SOL    HW113750   2.675   2.555   0.472  0.9518 -0.3658 -0.8114
 1617SOL    HW213751   2.598   2.698   0.488 -0.0042 -1.2415  2.7166
 1621SOL     OW13752   2.626   2.252   1.929 -1.0413 -0.1274 -0.4209
 1621SOL    HW113753   2.720   2.275   1.905 -0.9408  0.3626  0.4219
 1621SOL    HW213754   2.614   2.153   1.929 -0.6114 -0.1783 -0.8640
 1622SOL     OW13755   2.563   6.438   1.159 -0.9297 -0.3478  0.4129
 1622SOL    HW113756   2.598   6.386   1.082 -2.2878 -1.3500  0.4504
 1622SOL    HW213757   2.639   6.462   1.220  0.0559 -0.0922 -0.8947
 1623SOL     OW13758   2.475   2.097   1.084  0.3390  0.3332  0.5385
 1623SOL    HW113759   2.570   2.095   1.054  0.1150 -1.7275 -0.0605
 1623SOL    HW213760   2.473   2.118   1.182  1.4426 -0.3521  0.7216
 1624SOL     OW13761   4.497   4.549   0.686 -0.1488  0.1186  0.2226
 1624SOL    HW113762   4.487   4.453   0.660 -0.2029  0.1853 -0.0062
 1624SOL    HW213763   4.408   4.595   0.678  0.0586  0.3984 -0.5285
 1626SOL     OW13764   3.136   0.060   1.157  0.1181  0.0871  0.4832
 1626SOL    HW113765   3.100   0.074   1.249 -2.2392 -0.6989 -0.2855
 1626SOL    HW213766   3.229   0.023   1.163  0.4067  1.0792  2.5265
 1627SOL     OW13767   4.486   2.685   1.768  0.5839  0.2330  0.0600
 1627SOL    HW113768   4.414   2.728   1.714  0.8392 -0.8298 -1.1604
 1627SOL    HW213769   4.530   2.753   1.827 -0.7017  1.0965  0.0290
 1629SOL     OW13770   3.608   7.875   1.225 -0.5749 -0.2762 -0.1460
 1629SOL    HW113771   3.526   7.930   1.244 -0.8250  0.3932 -2.9391
 1629SOL    HW213772   3.582   7.779   1.216 -0.7166 -0.3571  1.0113
 1630SOL     OW13773   2.070   5.377   0.340  0.6391 -0.5675 -0.3279
 1630SOL    HW113774   2.161   5.394   0.378  0.7257 -3.8693  1.1907
 1630SOL    HW213775   2.001   5.389   0.412  0.0151  0.4753 -1.0902
 1631SOL     OW13776   3.272   0.250   1.888  0.2892  0.0389  0.1433
 1631SOL    HW113777   3.214   0.331   1.898  0.7161  0.3037  0.4898
 1631SOL    HW213778   3.365   0.272   1.917  0.7404 -0.1658 -1.0956
 1633SOL     OW13779   3.075   3.006   1.235  0.2467 -0.2983  0.4045
 1633SOL    HW113780   3.121   2.925   1.272  1.2100 -0.5199 -1.2000
 1633SOL    HW213781   3.087   3.083   1.297  0.8475 -0.9486  1.0997
 1636SOL     OW13782   4.285   1.233   1.597  0.6371  0.1021  0.2563
 1636SOL    HW113783   4.231   1.263   1.676  1.5483 -0.4098  1.0988
 1636SOL    HW213784   4.321   1.313   1.549  1.0045  0.4075  1.0283
 1637SOL     OW13785   2.642   2.224   2.366  0.5588 -0.5705  0.1126
 1637SOL    HW113786   2.688   2.196   2.450  1.7789 -1.8457 -0.9469
 1637SOL    HW213787   2.645   2.149   2.300  0.3407  0.6954 -1.3687
 1638SOL     OW13788   2.369   5.541   0.421  0.1990 -0.3438 -0.0863
 1638SOL    HW113789   2.401   5.612   0.359  0.6706 -0.0405  0.4974
 1638SOL    HW213790   2.446   5.484   0.449 -0.3830 -1.9357 -1.6148
 1639SOL     OW13791   9.774   4.959   1.123 -0.0329  0.4348 -0.4042
 1639SOL    HW113792   9.679   4.983   1.139 -0.0818 -0.6979  1.0526
 1639SOL    HW213793   9.827   4.970   1.207  1.0060  0.4557 -1.0377
 1640SOL     OW13794   5.417   2.569   0.339  0.3212 -0.1693  0.2833
 1640SOL    HW113795   5.410   2.644   0.404  0.6118 -1.4004  1.7614
 1640SOL    HW213796   5.495   2.585   0.278  1.0085  0.2408  1.2517
 1641SOL     OW13797   3.231   4.947   0.702  0.4332  0.5692  0.0443
 1641SOL    HW113798   3.277   5.027   0.665  1.1565 -0.0403 -0.3686
 1641SOL    HW213799   3.175   4.905   0.631  0.8950  0.0847 -0.0296
 1642SOL     OW13800   2.773   5.739   0.673 -0.2115 -0.1976  0.1441
 1642SOL    HW113801   2.776   5.779   0.765 -2.2639  0.0816  0.1146
 1642SOL    HW213802   2.748   5.808   0.606 -0.8887 -0.8753 -0.3174
 1643SOL     OW13803   2.983   8.605   1.522  0.1735 -0.0161  0.1298
 1643SOL    HW113804   2.894   8.558   1.518  0.0066  0.2361  0.7728
 1643SOL    HW213805   3.044   8.567   1.452 -0.4472 -0.1711 -0.3327
 1644SOL     OW13806   3.712   3.705   2.328 -0.1451 -0.4119  0.2894
 1644SOL    HW113807   3.613   3.714   2.316 -0.0163  2.9032  1.1660
 1644SOL    HW213808   3.757   3.704   2.239 -0.6530  2.9396 -0.0430
 1645SOL     OW13809   1.549   3.162   2.356  0.1217 -0.3802  0.2505
 1645SOL    HW113810   1.587   3.225   2.288 -0.6601  0.7418  0.8398
 1645SOL    HW213811   1.449   3.173   2.360 -0.1137 -2.1572 -0.1341
 1646SOL     OW13812   2.972   9.387   1.666 -1.1385  0.4882  0.2717
 1646SOL    HW113813   2.939   9.294   1.682  0.1450 -0.1836 -0.9096
 1646SOL    HW213814   3.030   9.415   1.742 -1.8535  0.4899  0.8274
 1647SOL     OW13815   2.894   2.311   0.957  0.0909  0.0317 -0.0974
 1647SOL    HW113816   2.866   2.317   1.052  0.4503 -1.0328  0.0853
 1647SOL    HW213817   2.827   2.357   0.899 -0.1552  0.6350  0.6608
 1648SOL     OW13818   3.413   0.415   0.898 -0.2957 -0.7798  0.1780
 1648SOL    HW113819   3.400   0.465   0.984 -0.1978  0.1837 -0.3592
 1648SOL    HW213820   3.328   0.419   0.845 -0.2168 -1.0077  0.0352
 1649SOL     OW13821   2.806   0.009   0.492  0.1155  0.4100  0.3489
 1649SOL    HW113822   2.826   0.040   0.399  0.5417  0.0782  0.3248
 1649SOL    HW213823   2.708  -0.012   0.500  0.5219 -2.1964 -0.8419
 1650SOL     OW13824   0.442   5.294   1.870  0.3676 -0.3685  0.0767
 1650SOL    HW113825   0.397   5.301   1.959  0.3700  2.2220 -0.0748
 1650SOL    HW213826   0.393   5.229   1.812 -1.4850  0.2374  0.9188
 1651SOL     OW13827   2.329   8.234   2.335  0.2339  0.7011  0.0386
 1651SOL    HW113828   2.263   8.300   2.370  0.6168  1.2337 -0.2402
 1651SOL    HW213829   2.407   8.282   2.295 -0.3942  0.1088 -1.9420
 1652SOL     OW13830   3.252   3.996   0.885  0.0363  0.4078  0.0343
 1652SOL    HW113831   3.338   3.955   0.916  0.1938  0.9271  0.2812
 1652SOL    HW213832   3.271   4.075   0.827 -0.2734  0.4619  0.0048
 1653SOL     OW13833   4.454   3.172   1.562  0.0235  0.3618  0.0873
 1653SOL    HW113834   4.504   3.236   1.621  0.5364  2.3275 -2.3583
 1653SOL    HW213835   4.356   3.182   1.576  0.1865 -0.5501  1.9467
 1654SOL     OW13836   1.316   4.882   1.982 -0.4302  0.3663 -0.0454
 1654SOL    HW113837   1.218   4.880   1.999 -0.3896  2.5358  0.6167
 1654SOL    HW213838   1.365   4.874   2.069  0.0031 -1.1360 -0.4105
 1655SOL     OW13839   2.847   6.133   1.895  0.5740 -0.2537  0.2467
 1655SOL    HW113840   2.927   6.161   1.948  0.2918 -0.1895  0.6408
 1655SOL    HW213841   2.764   6.150   1.948  0.3007 -0.3617 -0.1429
 1656SOL     OW13842   2.834   8.100   1.819 -0.2977  0.1735  0.4246
 1656SOL    HW113843   2.914   8.157   1.836 -1.3517  2.1339 -0.9840
 1656SOL    HW213844   2.783   8.137   1.741 -1.2163 -2.4887 -0.2988
 1657SOL     OW13845   4.400   4.796   0.359 -0.1741  0.1435 -0.8253
 1657SOL    HW113846   4.394   4.698   0.340 -0.8128 -0.1728  0.9034
 1657SOL    HW213847   4.361   4.815   0.449 -0.2263  2.0190 -1.2239
 1658SOL     OW13848   3.321   1.485   1.260  0.1420 -0.5169 -0.1029
 1658SOL    HW113849   3.306   1.442   1.171 -1.5707 -0.5629  0.1894
 1658SOL    HW213850   3.235   1.524   1.292  0.5559 -1.2391  1.9248
 1659SOL     OW13851   4.330   2.805   0.737 -0.4680  0.1879 -0.6905
 1659SOL    HW113852   4.387   2.755   0.672  0.6927 -0.8535  1.0582
 1659SOL    HW213853   4.240   2.762   0.742 -0.0301 -0.7097 -0.4340
 1660SOL     OW13854   4.001   3.728   1.265 -0.0900  0.3628  0.0145
 1660SOL    HW113855   3.990   3.785   1.184  1.1310 -0.8495 -1.0329
 1660SOL    HW213856   3.912   3.708   1.305 -0.7818  0.1771 -1.5927
 1664SOL     OW13857   4.326   2.079   0.345 -0.6569  0.1386 -0.7777
 1664SOL    HW113858   4.411   2.040   0.380  0.0472  2.0168 -0.3699
 1664SOL    HW213859   4.270   2.111   0.421 -2.0177 -1.5926 -0.9994
 1665SOL     OW13860   9.435   5.754   1.665 -0.2057  0.0153  0.0719
 1665SOL    HW113861   9.420   5.661   1.698  0.3702 -0.1733 -0.2035
 1665SOL    HW213862   9.356   5.811   1.690 -1.1240 -0.8346 -0.8564
 1666SOL     OW13863   2.534   4.757   2.249 -0.3090 -0.1208 -0.0460
 1666SOL    HW113864   2.603   4.692   2.219  2.6732  2.5785  0.6647
 1666SOL    HW213865   2.527   4.754   2.349 -0.4497  0.3363 -0.0404
 1667SOL     OW13866   1.963   6.286   1.754  0.6639 -0.1004 -0.0628
 1667SOL    HW113867   1.952   6.343   1.672  0.0403  0.0355  0.1101
 1667SOL    HW213868   1.932   6.193   1.734  0.6477 -0.1023 -0.0294
 1668SOL     OW13869   2.742   7.732   0.548  0.3646  0.3398  0.3928
 1668SOL    HW113870   2.780   7.649   0.508  0.2603 -0.4286  1.8476
 1668SOL    HW213871   2.795   7.811   0.519  0.3247 -0.1940 -1.1940
 1669SOL     OW13872   4.610   4.388   1.203 -0.1225  0.3839 -0.5630
 1669SOL    HW113873   4.602   4.332   1.121 -0.7341 -1.9365  1.0196
 1669SOL    HW213874   4.519   4.407   1.240  0.2058  0.0192  0.4611
 1672SOL     OW13875   3.175   8.889   1.102 -0.6720  0.0250 -0.2721
 1672SOL    HW113876   3.146   8.894   1.198  0.9853 -0.3329  0.2707
 1672SOL    HW213877   3.138   8.806   1.060  0.4710 -1.0212  0.7395
 1674SOL     OW13878   1.100   6.140   1.456  0.5294 -0.1478  0.2786
 1674SOL    HW113879   1.147   6.193   1.385  0.6519 -2.1606 -1.1962
 1674SOL    HW213880   1.005   6.125   1.429  0.4034 -0.3790  0.8467
 1675SOL     OW13881   3.256   2.749   1.309 -0.7834 -0.3349 -0.0726
 1675SOL    HW113882   3.346   2.705   1.311 -1.3085 -1.3550  1.1821
 1675SOL    HW213883   3.198   2.705   1.241  0.0409  1.0788 -1.7141
 1676SOL     OW13884   2.778   6.061   1.255 -0.5634 -0.5024 -0.7861
 1676SOL    HW113885   2.713   6.106   1.316 -1.8604 -0.9784 -1.7986
 1676SOL    HW213886   2.857   6.120   1.240  0.5768 -1.0654  2.6850
 1677SOL     OW13887   4.917   1.705   0.956  0.2365  0.1211  0.0703
 1677SOL    HW113888   4.849   1.675   1.023  0.6999 -0.1438  0.4254
 1677SOL    HW213889   4.871   1.755   0.882 -0.3886 -0.4074  0.0954
 1678SOL     OW13890   3.542   1.352   0.637 -0.0107  0.3502 -0.0872
 1678SOL    HW113891   3.463   1.393   0.592  0.8357  1.3197 -0.7108
 1678SOL    HW213892   3.526   1.349   0.736 -1.0914 -0.0610 -0.2694
 1681SOL     OW13893   2.619   6.801   1.774 -0.2973  0.7100  0.8130
 1681SOL    HW113894   2.520   6.807   1.786 -0.2907  1.1368  0.6960
 1681SOL    HW213895   2.653   6.717   1.815 -0.9062 -0.1501 -0.3934
 1683SOL     OW13896   3.506   7.852   2.281 -0.6603  0.0210  0.2434
 1683SOL    HW113897   3.417   7.834   2.239 -1.1534  1.9365  0.3979
 1683SOL    HW213898   3.577   7.805   2.229 -1.3062  1.9353 -2.4804
 1684SOL     OW13899   4.299   1.962   0.915 -0.4561  0.5506  0.3810
 1684SOL    HW113900   4.366   1.962   0.989 -0.7496  1.8110  0.6650
 1684SOL    HW213901   4.266   1.869   0.900 -0.6235  0.3121  2.0562
 1685SOL     OW13902   3.471   4.085   2.069  0.6559  0.3363  0.5968
 1685SOL    HW113903   3.471   4.017   2.142 -2.3313  0.9902  1.2545
 1685SOL    HW213904   3.473   4.039   1.980 -1.0604 -0.6008  1.0377
 1687SOL     OW13905   4.402   1.001   1.243  0.5649  0.0207  0.1402
 1687SOL    HW113906   4.413   0.944   1.162 -0.8616  0.1039 -0.1157
 1687SOL    HW213907   4.325   0.967   1.297  0.1866  1.2496  0.3788
 1688SOL     OW13908  10.004   5.420   1.216  0.0690  0.1739  0.4187
 1688SOL    HW113909   9.943   5.380   1.284 -1.4893  0.1703 -0.9411
 1688SOL    HW213910   9.966   5.507   1.185 -0.1898 -0.6686 -1.7198
 1689SOL     OW13911   2.239   5.625   1.042  0.0585  0.2106  0.1475
 1689SOL    HW113912   2.334   5.630   1.011  0.2640  0.4273  0.8101
 1689SOL    HW213913   2.188   5.563   0.982  0.3609  0.9097 -0.8571
 1690SOL     OW13914   3.053   1.251   0.540 -0.2895 -0.2768  0.0985
 1690SOL    HW113915   3.002   1.326   0.498 -1.6986 -1.5719 -0.5617
 1690SOL    HW213916   2.991   1.196   0.596  0.8230 -0.6907  0.9514
 1691SOL     OW13917   4.246   2.989   2.024 -0.1124 -0.6487  0.4417
 1691SOL    HW113918   4.174   3.006   2.092 -0.9805 -0.6062 -0.4760
 1691SOL    HW213919   4.271   2.892   2.026 -0.7869 -0.8340  0.2018
 1692SOL     OW13920   2.324   7.906   2.021 -0.0436  0.4553  0.1634
 1692SOL    HW113921   2.371   7.904   1.933 -0.7250  0.9906 -0.2148
 1692SOL    HW213922   2.235   7.951   2.011  0.2082  1.2344  1.2955
 1693SOL     OW13923   3.442   0.551   1.669 -0.0926  0.6222 -0.2347
 1693SOL    HW113924   3.517   0.488   1.689 -0.0591  0.5900 -0.4709
 1693SOL    HW213925   3.479   0.635   1.629 -0.3284  0.0056 -1.7701
 1694SOL     OW13926   2.185   6.314   1.925  0.2428  0.3144  0.4480
 1694SOL    HW113927   2.100   6.306   1.872  0.9072  0.3811 -0.6439
 1694SOL    HW213928   2.173   6.383   1.996 -0.4923  0.6027  0.0526
 1695SOL     OW13929   3.149   0.456   2.053  0.0687 -0.2114 -0.3797
 1695SOL    HW113930   3.231   0.512   2.045 -0.9252  1.2864 -0.2460
 1695SOL    HW213931   3.141   0.423   2.148 -0.0722  0.5503 -0.1260
 1696SOL     OW13932   2.487   7.475   2.098  0.0139  0.2279  0.1762
 1696SOL    HW113933   2.443   7.559   2.130  0.7270  0.8259 -0.3900
 1696SOL    HW213934   2.423   7.424   2.041 -1.8453 -1.6697  3.8034
 1698SOL     OW13935   4.224   4.591   0.485 -0.5100 -0.0852  0.2110
 1698SOL    HW113936   4.295   4.522   0.476  0.0252  0.3653  0.9278
 1698SOL    HW213937   4.223   4.627   0.578  0.1252  1.8393 -0.4997
 1699SOL     OW13938   2.974   6.459   1.996 -0.3020  0.5455  0.8960
 1699SOL    HW113939   3.006   6.520   2.068 -0.7518 -0.5838  2.0652
 1699SOL    HW213940   2.989   6.364   2.023 -0.3906  0.1132 -0.5376
 1700SOL     OW13941   2.318   9.202   0.761  0.7462 -0.2810 -0.1771
 1700SOL    HW113942   2.243   9.266   0.744  0.7846 -0.1554  0.1102
 1700SOL    HW213943   2.342   9.154   0.677  1.2778  0.6915 -0.5781
 1701SOL     OW13944   2.716   1.724   0.832 -0.4504  0.1674 -0.2004
 1701SOL    HW113945   2.789   1.778   0.790 -1.3250  2.2076  0.8262
 1701SOL    HW213946   2.752   1.636   0.860  0.9035 -0.0216 -2.3718
 1702SOL     OW13947   3.615   8.981   0.648 -0.2369 -0.3784 -0.2519
 1702SOL    HW113948   3.636   9.067   0.694 -1.1575 -1.8449  3.0384
 1702SOL    HW213949   3.628   8.992   0.549 -0.4898  3.5508  0.0799
 1703SOL     OW13950   4.951   3.945   1.354  0.5162  0.6342  0.6466
 1703SOL    HW113951   4.935   3.954   1.255  1.6677  1.1418  0.4915
 1703SOL    HW213952   4.880   3.996   1.404 -0.1464  0.2672  0.0873
 1704SOL     OW13953   5.252   2.403   0.754 -0.0126  0.5849 -0.5801
 1704SOL    HW113954   5.246   2.390   0.853  0.8194  0.9015 -0.4851
 1704SOL    HW213955   5.180   2.351   0.709 -1.5323  1.8853  0.3071
 1705SOL     OW13956   2.797   4.653   2.163  0.3133  0.2170 -0.3126
 1705SOL    HW113957   2.825   4.730   2.105 -0.6620  0.9956  0.2153
 1705SOL    HW213958   2.862   4.641   2.237  0.7155  0.2508 -0.6625
 1706SOL     OW13959   2.559   3.084   1.520 -0.0235 -0.3552 -0.4133
 1706SOL    HW113960   2.561   3.091   1.420  1.4203 -1.0752 -0.4523
 1706SOL    HW213961   2.479   3.133   1.555 -0.6031 -0.1832 -1.9228
 1708SOL     OW13962   0.359   4.732   0.448  0.7444  0.3146 -0.5218
 1708SOL    HW113963   0.388   4.724   0.353  0.6329 -2.1882 -0.3593
 1708SOL    HW213964   0.408   4.808   0.491  1.7715  0.6220 -2.2102
 1709SOL     OW13965   9.998   4.684   2.109  0.4648 -0.1410 -0.1611
 1709SOL    HW113966   9.901   4.688   2.132 -0.0719  0.1939 -2.4089
 1709SOL    HW213967  10.020   4.756   2.042  2.1741 -0.4746  0.0137
 1710SOL     OW13968   2.341   4.359   1.450 -0.6263  0.2979  0.2084
 1710SOL    HW113969   2.345   4.263   1.481  1.4891 -0.0490 -1.0559
 1710SOL    HW213970   2.247   4.393   1.460 -1.6844 -2.2829 -0.4364
 1711SOL     OW13971   0.494   4.184   2.331  0.1975 -0.2186 -0.1659
 1711SOL    HW113972   0.431   4.112   2.359 -1.5736  0.2831 -2.7441
 1711SOL    HW213973   0.580   4.174   2.380 -1.0894 -2.2559  1.7507
 1712SOL     OW13974   3.077   3.965   1.939  0.5235 -0.3998  0.3552
 1712SOL    HW113975   3.121   4.054   1.926  1.6080 -0.8343  1.0298
 1712SOL    HW213976   3.044   3.932   1.850 -0.7159  1.0800  0.2249
 1713SOL     OW13977   1.880   5.177   2.028  0.4732  0.2401  0.6043
 1713SOL    HW113978   1.882   5.126   2.114 -1.9711 -2.4418 -0.8407
 1713SOL    HW213979   1.787   5.174   1.990  0.7457  4.0790 -0.5824
 1715SOL     OW13980   2.838   2.334   0.649  0.4307  0.4888 -0.1347
 1715SOL    HW113981   2.782   2.320   0.567  1.2698 -0.2777 -0.5883
 1715SOL    HW213982   2.921   2.279   0.642  1.1480  1.4621  0.6293
 1717SOL     OW13983   0.126   4.305   2.203  0.3038 -0.4123 -0.3480
 1717SOL    HW113984   0.141   4.353   2.116 -1.5590  0.4227 -0.2283
 1717SOL    HW213985   0.175   4.353   2.276  1.5397 -0.8803 -0.8515
 1718SOL     OW13986   3.611   8.755   2.029 -0.1210  0.6123 -0.2569
 1718SOL    HW113987   3.611   8.748   2.129  0.2826  2.2418 -0.1216
 1718SOL    HW213988   3.644   8.846   2.002 -0.2518  0.2005 -1.8751
 1719SOL     OW13989   3.035   7.206   1.715  0.2206  0.2351 -0.6792
 1719SOL    HW113990   3.011   7.287   1.768  0.7751 -0.3718  0.5033
 1719SOL    HW213991   2.986   7.126   1.751  2.2980 -0.6129  0.3997
 1720SOL     OW13992   4.780   3.960   1.831  0.0149  0.2228 -0.1203
 1720SOL    HW113993   4.851   3.937   1.897  1.5275 -0.7836 -2.0206
 1720SOL    HW213994   4.750   3.877   1.784 -2.0138  0.7266  0.2323
 1721SOL     OW13995   1.841   3.808   0.771 -0.2560 -0.1929 -0.1923
 1721SOL    HW113996   1.869   3.712   0.782 -1.3098 -0.3770  1.0797
 1721SOL    HW213997   1.873   3.861   0.849  1.4810  0.7878 -1.5514
 1722SOL     OW13998   1.591   4.909   0.677 -0.2868  0.3106  0.1221
 1722SOL    HW113999   1.500   4.879   0.706 -1.0663  0.6665 -1.8391
 1722SOL    HW214000   1.614   4.864   0.590  1.0848  0.7906  0.2361
 1723SOL     OW14001   3.420   8.980   1.045  0.5350 -0.5260 -0.4935
 1723SOL    HW114002   3.332   8.947   1.079  0.1483 -0.0798 -1.0302
 1723SOL    HW214003   3.442   8.933   0.960  1.7033 -1.9493  0.5835
 1724SOL     OW14004   4.548   1.497   2.279  0.0772  0.0036  0.4176
 1724SOL    HW114005   4.622   1.511   2.214 -0.3284  1.7116  0.2910
 1724SOL    HW214006   4.465   1.541   2.245 -0.3976  0.0464  1.6060
 1725SOL     OW14007   9.871   4.476   0.975 -0.2418  0.7584 -0.2160
 1725SOL    HW114008   9.879   4.392   0.922  1.4582  0.6550  0.1594
 1725SOL    HW214009   9.940   4.542   0.944 -1.5835  2.0449 -0.5414
 1727SOL     OW14010   4.076   8.882   1.406 -0.4474 -0.0757 -0.0637
 1727SOL    HW114011   4.002   8.891   1.338 -0.0970  0.3238 -0.3889
 1727SOL    HW214012   4.154   8.938   1.379  0.5808 -1.6849 -0.5334
 1728SOL     OW14013   1.674   7.113   0.432  0.5116 -0.5150 -0.7482
 1728SOL    HW114014   1.598   7.048   0.434  0.9868 -1.0979 -1.4159
 1728SOL    HW214015   1.709   7.125   0.525  0.5336 -1.3444 -0.6456
 1729SOL     OW14016   5.159   2.380   2.327  0.5323 -0.0132 -0.2107
 1729SOL    HW114017   5.118   2.466   2.296 -0.1330  0.1554  1.1032
 1729SOL    HW214018   5.147   2.371   2.425  0.9113 -1.4581 -0.2852
 1731SOL     OW14019   4.034   1.053   1.817 -0.4749 -0.0458 -0.2087
 1731SOL    HW114020   3.998   0.999   1.893 -1.2640 -0.4584 -0.8683
 1731SOL    HW214021   4.127   1.023   1.796 -0.7533 -0.8693 -0.2935
 1732SOL     OW14022   2.963   7.709   0.731 -0.3906 -0.3054 -0.2116
 1732SOL    HW114023   2.893   7.712   0.660  0.7444 -4.1104 -1.6348
 1732SOL    HW214024   3.044   7.758   0.699 -0.7971  0.2139 -0.4542
 1733SOL     OW14025   2.986   7.170   1.402 -0.3268  0.0185  0.2748
 1733SOL    HW114026   3.000   7.189   1.499  0.9248  1.1352 -0.1191
 1733SOL    HW214027   3.069   7.192   1.350 -1.4727  0.8692 -1.2512
 1734SOL     OW14028   2.571   0.880   2.101 -0.3281 -0.0601 -0.7323
 1734SOL    HW114029   2.623   0.914   2.023 -0.5906 -0.7560 -1.2252
 1734SOL    HW214030   2.502   0.815   2.068 -2.6886  2.1464 -0.3073
 1735SOL     OW14031   4.130   3.131   0.754  0.0426 -0.1446 -0.2037
 1735SOL    HW114032   4.220   3.141   0.711 -0.3513  0.8501 -0.7974
 1735SOL    HW214033   4.097   3.038   0.739 -1.1764  0.8426 -4.1999
 1736SOL     OW14034   1.287   3.564   0.548  0.3673  0.2385  0.4259
 1736SOL    HW114035   1.360   3.504   0.580  1.5191  0.0702 -2.3706
 1736SOL    HW214036   1.211   3.508   0.514  0.7342  0.3419 -0.5968
 1739SOL     OW14037   4.381   8.991   1.078 -0.1746  0.0061  0.1800
 1739SOL    HW114038   4.307   8.933   1.046  0.3724 -1.9465  2.3237
 1739SOL    HW214039   4.447   9.005   1.004 -1.0229 -0.9303 -0.7603
 1740SOL     OW14040   2.968   4.306   1.645 -0.4153 -0.1210 -0.6409
 1740SOL    HW114041   3.035   4.368   1.604  0.5054 -1.0375 -0.5519
 1740SOL    HW214042   2.971   4.315   1.744  2.3246 -2.8486 -0.3758
 1742SOL     OW14043   1.169   3.076   0.341 -0.5090 -0.3679 -0.2672
 1742SOL    HW114044   1.266   3.093   0.358 -0.6125 -0.0518  0.0091
 1742SOL    HW214045   1.116   3.096   0.423 -0.5962 -2.4766  0.2222
 1744SOL     OW14046   3.125   9.776   2.075  0.4037  0.2520 -0.2051
 1744SOL    HW114047   3.034   9.772   2.034  1.1540 -0.5849 -1.8285
 1744SOL    HW214048   3.162   9.869   2.066  0.5759  0.0703 -1.4881
 1745SOL     OW14049   2.294   9.620   0.620  0.2984 -0.4767 -0.1988
 1745SOL    HW114050   2.298   9.664   0.530  0.8142  1.9536  0.9973
 1745SOL    HW214051   2.352   9.669   0.684  1.6444 -3.4659  0.9716
 1746SOL     OW14052   0.248   5.321   2.076 -0.7914 -0.2233  0.2756
 1746SOL    HW114053   0.167   5.269   2.050 -0.9143 -0.6886  1.5398
 1746SOL    HW214054   0.271   5.301   2.172  2.1481 -1.8882 -0.7152
 1747SOL     OW14055   3.133   8.022   2.069  0.4627 -0.4964 -1.4379
 1747SOL    HW114056   3.069   8.068   2.131  1.2423  1.0636 -1.7690
 1747SOL    HW214057   3.093   7.936   2.038 -0.0769 -1.1746  0.9978
 1748SOL     OW14058   2.469   6.696   0.869 -0.3970  0.3789 -0.5995
 1748SOL    HW114059   2.474   6.668   0.773  0.7226  0.0019 -0.4363
 1748SOL    HW214060   2.549   6.662   0.918 -1.1214  0.2991  0.5488
 1749SOL     OW14061   0.309   5.757   0.728  0.0012  0.3943  0.4405
 1749SOL    HW114062   0.360   5.686   0.680 -0.8079  0.9853 -1.3535
 1749SOL    HW214063   0.283   5.725   0.819 -0.8842 -1.8532 -0.5661
 1750SOL     OW14064   5.513   2.857   1.503  0.3817  0.5571  0.5595
 1750SOL    HW114065   5.610   2.881   1.512  0.0131  2.7721 -0.8179
 1750SOL    HW214066   5.484   2.802   1.581  2.3673  1.1678  1.7512
 1751SOL     OW14067   1.335   5.190   1.082 -0.3276  0.0947  0.4561
 1751SOL    HW114068   1.356   5.240   0.998 -2.2381  1.0025  0.4999
 1751SOL    HW214069   1.315   5.255   1.155 -0.3619 -0.7239  1.1756
 1752SOL     OW14070   3.282   6.720   1.061  0.0717 -0.1325  0.1601
 1752SOL    HW114071   3.304   6.737   0.965 -1.6128 -1.0111 -0.4014
 1752SOL    HW214072   3.295   6.805   1.113 -0.6742  0.8268 -1.1744
 1753SOL     OW14073   5.092   1.999   0.762  0.0419  0.0068 -0.1388
 1753SOL    HW114074   5.120   2.088   0.799  1.3007  0.7679 -2.7466
 1753SOL    HW214075   5.129   1.926   0.818 -0.0501  1.1246  1.3985
 1754SOL     OW14076   4.021   1.947   0.892  0.0756  0.1758  0.2155
 1754SOL    HW114077   4.103   2.001   0.907 -0.5597  1.1832  0.0921
 1754SOL    HW214078   3.944   1.988   0.941 -0.2065 -1.1450  0.8908
 1755SOL     OW14079   9.440   5.108   2.020  0.0825 -0.1366 -0.4184
 1755SOL    HW114080   9.421   5.037   1.953 -0.7979  0.3466 -0.6871
 1755SOL    HW214081   9.500   5.177   1.981 -1.7977  1.0409 -1.2987
 1756SOL     OW14082   4.272   0.501   1.874 -1.2303 -0.0321  0.1697
 1756SOL    HW114083   4.300   0.596   1.892 -1.5763  0.0387  0.3401
 1756SOL    HW214084   4.351   0.448   1.844 -0.6648 -0.1008  1.7190
 1757SOL     OW14085   4.772   1.865   0.563  0.5600 -0.0764  0.0327
 1757SOL    HW114086   4.774   1.899   0.656  2.2753  2.9184 -1.0416
 1757SOL    HW214087   4.856   1.815   0.543 -0.4210 -1.9606  0.4977
 1758SOL     OW14088   1.739   4.519   1.649 -0.0108  0.1803  0.3724
 1758SOL    HW114089   1.708   4.484   1.560 -0.2121  2.6776 -0.5964
 1758SOL    HW214090   1.661   4.555   1.699  0.0954 -1.2995  1.6133
 1759SOL     OW14091   3.322   7.427   1.519 -0.4998  0.3190  0.0286
 1759SOL    HW114092   3.410   7.476   1.522 -0.6406  0.5892 -0.2308
 1759SOL    HW214093   3.251   7.489   1.487 -0.9299  0.3101  0.9385
 1760SOL     OW14094   5.148   2.835   2.197 -0.3717 -0.1347  0.1046
 1760SOL    HW114095   5.149   2.906   2.267  0.2718  0.2457 -0.2956
 1760SOL    HW214096   5.054   2.803   2.183 -0.6187  0.4337  0.4845
 1761SOL     OW14097   4.296   3.239   2.128 -0.2741 -0.1291  0.5409
 1761SOL    HW114098   4.291   3.141   2.112  0.8375  0.2539 -2.3304
 1761SOL    HW214099   4.220   3.285   2.081  0.2643  0.5691  0.3412
 1762SOL     OW14100   2.871   4.441   0.529 -0.2291  0.3760 -0.2472
 1762SOL    HW114101   2.959   4.400   0.503  0.0674  0.8745 -0.0431
 1762SOL    HW214102   2.796   4.384   0.496  0.1648  0.2091 -0.8537
 1763SOL     OW14103   4.058   8.949   0.451  0.7585 -0.3251  0.1620
 1763SOL    HW114104   4.091   8.879   0.388 -1.1234 -1.4289  0.4040
 1763SOL    HW214105   4.022   8.906   0.534 -1.5196  0.8607 -0.1983
 1765SOL     OW14106   4.627   2.638   1.329  0.6751  0.1066  0.0728
 1765SOL    HW114107   4.687   2.715   1.347  1.3387 -0.4685  0.3225
 1765SOL    HW214108   4.629   2.575   1.407 -1.2303  0.7166  0.6478
 1766SOL     OW14109   2.573   9.323   0.757  0.3783  0.2204 -0.4510
 1766SOL    HW114110   2.592   9.361   0.848  1.0270  0.8885 -0.8640
 1766SOL    HW214111   2.478   9.289   0.755  0.3245  0.2917  0.4373
 1767SOL     OW14112   2.366   8.787   1.065  0.2268  0.1264  0.4717
 1767SOL    HW114113   2.273   8.803   1.098 -0.4447 -1.5339 -0.4959
 1767SOL    HW214114   2.395   8.863   1.007 -0.7481  0.3821  0.3155
 1768SOL     OW14115   1.209   5.325   2.132 -0.1420 -0.2817 -0.5462
 1768SOL    HW114116   1.173   5.238   2.097 -1.3640 -0.1690  0.3905
 1768SOL    HW214117   1.299   5.311   2.172 -0.8195 -1.3504  0.6370
 1769SOL     OW14118   0.364   5.369   1.536  0.3346 -0.1078  0.2024
 1769SOL    HW114119   0.348   5.276   1.569  0.2247 -0.7689 -1.6626
 1769SOL    HW214120   0.448   5.405   1.577  2.6169 -2.5704 -2.1841
 1770SOL     OW14121   4.492   1.717   0.912  0.2880 -0.8829 -0.0381
 1770SOL    HW114122   4.434   1.655   0.965 -1.2969  1.5014  1.1070
 1770SOL    HW214123   4.532   1.786   0.973  1.3336 -0.2545 -1.3941
 1771SOL     OW14124   3.119   0.662   1.670  0.3646 -0.1736  0.2871
 1771SOL    HW114125   3.218   0.651   1.669  0.1766 -2.1118  0.9842
 1771SOL    HW214126   3.081   0.610   1.747 -1.2657 -0.0743 -0.4369
 1772SOL     OW14127   2.520  -0.047   0.491  0.0072 -0.0790  0.0194
 1772SOL    HW114128   2.508   0.053   0.491 -0.9885 -0.1989 -0.0437
 1772SOL    HW214129   2.518  -0.080   0.396 -0.5030 -0.2567  0.0906
 1774SOL     OW14130   3.679   3.445   0.660 -0.0900 -0.2154 -0.1084
 1774SOL    HW114131   3.760   3.385   0.660 -0.2315 -0.4020  0.4129
 1774SOL    HW214132   3.677   3.496   0.574 -0.2446 -1.3335 -0.7807
 1776SOL     OW14133   3.085   8.447   0.640  0.1576  0.0999 -0.1388
 1776SOL    HW114134   3.177   8.450   0.678  0.8779  0.4980 -1.8659
 1776SOL    HW214135   3.055   8.540   0.617 -0.2774 -0.1297 -0.5177
 1777SOL     OW14136   2.311   4.086   1.237  0.3348 -0.3005 -0.4001
 1777SOL    HW114137   2.320   4.106   1.334 -2.4979  0.8233 -0.3322
 1777SOL    HW214138   2.327   3.989   1.221  2.0621 -0.2691  0.9903
 1778SOL     OW14139   2.687   7.752   2.180  0.4184 -0.2400 -0.2234
 1778SOL    HW114140   2.767   7.745   2.240 -0.2219  1.7709  0.9109
 1778SOL    HW214141   2.709   7.714   2.091  1.8548 -1.9734  0.8258
 1779SOL     OW14142   2.351   2.462   0.560 -0.0383 -0.3473 -0.0578
 1779SOL    HW114143   2.412   2.473   0.638 -1.4613 -1.2646  1.2139
 1779SOL    HW214144   2.323   2.552   0.526 -2.0101  0.0952  2.5754
 1780SOL     OW14145   1.732   5.669   1.411 -0.3379 -0.3266 -0.6431
 1780SOL    HW114146   1.793   5.615   1.353  1.1860  1.0662 -0.3947
 1780SOL    HW214147   1.645   5.621   1.423  1.6004 -3.5750  1.0531
 1781SOL     OW14148   2.942   0.872   1.762 -0.0075 -0.1768  0.3919
 1781SOL    HW114149   3.016   0.811   1.736 -0.1018 -0.4644  0.7784
 1781SOL    HW214150   2.899   0.910   1.681  0.0385 -0.6481  0.1449
 1782SOL     OW14151   9.861   5.879   0.646 -0.3695  0.0900  0.2139
 1782SOL    HW114152   9.840   5.972   0.616  1.8339  0.6958  0.4171
 1782SOL    HW214153   9.959   5.862   0.635 -1.0075 -2.8752 -1.5843
 1783SOL     OW14154   4.584   0.610   1.699 -0.0061  0.1182 -0.2890
 1783SOL    HW114155   4.488   0.635   1.713 -0.4314  0.1479 -2.9050
 1783SOL    HW214156   4.643   0.686   1.725 -0.7077  0.2001  1.0899
 1784SOL     OW14157   2.323   1.171   2.168 -0.0000 -0.0410  0.6222
 1784SOL    HW114158   2.328   1.184   2.069  2.2935 -0.3894  0.6678
 1784SOL    HW214159   2.349   1.077   2.191  2.5586  0.8859  1.7559
 1785SOL     OW14160   2.881   3.025   0.710  0.0108  0.3648  0.0020
 1785SOL    HW114161   2.812   3.034   0.782  1.0067  2.3132  0.7556
 1785SOL    HW214162   2.843   2.973   0.633 -1.4805 -0.6725  1.3976
 1786SOL     OW14163   2.351   4.756   1.017 -0.6458  0.3315 -0.4417
 1786SOL    HW114164   2.313   4.780   1.106 -0.5980  1.3331 -0.6901
 1786SOL    HW214165   2.332   4.660   0.997  0.3443 -0.2146  1.1647
 1787SOL     OW14166   2.912   7.944   0.463  0.2788  0.2089  0.4972
 1787SOL    HW114167   2.872   7.940   0.371  1.0598  1.3199  0.0992
 1787SOL    HW214168   2.917   8.040   0.493  2.2976  0.0763  0.6725
 1788SOL     OW14169   1.245   4.094   0.701 -0.2135 -0.4248  0.2155
 1788SOL    HW114170   1.253   4.122   0.796 -0.6566 -0.5000  0.2784
 1788SOL    HW214171   1.205   4.002   0.697  0.6963 -0.8168 -0.0080
 1789SOL     OW14172   1.089   3.422   0.421  0.2046 -0.2619  0.2095
 1789SOL    HW114173   1.050   3.330   0.419 -0.0653 -0.1449  0.0850
 1789SOL    HW214174   1.059   3.472   0.340 -0.3181  0.2177  0.6971
 1790SOL     OW14175   2.395   9.320   2.192  0.0487  0.0292  0.0603
 1790SOL    HW114176   2.335   9.348   2.117  0.6764 -2.7865 -1.5541
 1790SOL    HW214177   2.481   9.371   2.187 -0.2160  0.4075 -0.6525
 1791SOL     OW14178   2.401   3.562   1.813  0.1173  0.0861 -0.2826
 1791SOL    HW114179   2.317   3.610   1.789 -0.5151 -1.0849 -0.4581
 1791SOL    HW214180   2.408   3.556   1.913 -0.5009 -0.6601 -0.2807
 1793SOL     OW14181   3.349   9.419   1.167  0.2400 -0.6127  0.4086
 1793SOL    HW114182   3.382   9.326   1.179 -0.7068 -0.8543  1.1925
 1793SOL    HW214183   3.321   9.456   1.256 -0.5168 -0.0076 -0.0741
 1794SOL     OW14184   2.775   1.733   2.004  0.0802 -0.7606 -0.2184
 1794SOL    HW114185   2.705   1.695   2.065 -0.5839  0.1347 -0.4086
 1794SOL    HW214186   2.865   1.703   2.035 -0.1941  0.2289  1.6226
 1795SOL     OW14187   3.395   4.806   2.329  0.1652  0.5577  0.8873
 1795SOL    HW114188   3.372   4.731   2.391  1.6674 -0.8167 -0.1437
 1795SOL    HW214189   3.333   4.803   2.250  0.7030 -0.1045  0.4765
 1796SOL     OW14190   1.671   4.444   0.321 -0.1819  0.3320  0.2049
 1796SOL    HW114191   1.724   4.385   0.261 -0.0239 -0.1983  0.8592
 1796SOL    HW214192   1.731   4.511   0.365 -0.5194  1.6733 -1.3393
 1797SOL     OW14193   4.083   3.820   0.643  0.9028 -0.3736 -0.4153
 1797SOL    HW114194   4.035   3.733   0.636 -0.0061 -0.0445  1.4979
 1797SOL    HW214195   4.064   3.875   0.561 -0.6524 -0.8988 -0.4240
 1798SOL     OW14196   3.997   8.778   0.648 -0.4751  0.1707  0.3924
 1798SOL    HW114197   4.070   8.712   0.665 -0.5601 -0.2198 -0.6876
 1798SOL    HW214198   3.929   8.773   0.721 -0.1957 -0.5538  0.6023
 1799SOL     OW14199   3.660   8.107   2.322 -0.0344 -0.3352 -0.2806
 1799SOL    HW114200   3.671   8.150   2.232  0.5260 -0.5614 -0.3263
 1799SOL    HW214201   3.587   8.038   2.317  0.7614 -1.1497 -0.8683
 1800SOL     OW14202   3.528   3.940   0.658  0.3933 -0.4916  0.1516
 1800SOL    HW114203   3.562   3.940   0.752  0.4379  0.9881  0.1499
 1800SOL    HW214204   3.429   3.958   0.658  0.2610 -1.2275 -0.0374
 1801SOL     OW14205   1.810   9.119   1.817 -0.1635  0.4023 -0.1059
 1801SOL    HW114206   1.813   9.095   1.914  0.2966  0.9598  0.0152
 1801SOL    HW214207   1.716   9.110   1.784 -0.7957  2.6691  1.0043
 1803SOL     OW14208   2.791   1.026   0.545  0.1108 -0.0292  0.0005
 1803SOL    HW114209   2.836   0.986   0.465  1.6262  1.7148 -0.0599
 1803SOL    HW214210   2.758   1.117   0.521 -1.1674 -0.2778  0.8096
 1804SOL     OW14211   4.279   0.360   2.337 -0.2137 -0.3061  0.1511
 1804SOL    HW114212   4.375   0.335   2.337 -0.5461 -1.6680 -1.1607
 1804SOL    HW214213   4.269   0.458   2.349  1.3015 -0.2626  1.0914
 1805SOL     OW14214   3.510   1.032   0.770 -0.2808 -1.3404 -0.0187
 1805SOL    HW114215   3.566   0.955   0.739  1.2731  0.0779 -0.7401
 1805SOL    HW214216   3.554   1.118   0.747 -1.8241 -0.2028  1.1369
 1806SOL     OW14217   0.355   3.986   0.769  0.7928  0.3151 -0.1347
 1806SOL    HW114218   0.442   3.949   0.736 -0.2121 -2.7231  0.4629
 1806SOL    HW214219   0.339   3.956   0.863 -0.1403  2.2292  0.3397
 1807SOL     OW14220   2.471   2.336   1.732  0.7114 -0.0222  0.0617
 1807SOL    HW114221   2.430   2.257   1.686  0.5466 -1.1783  2.1141
 1807SOL    HW214222   2.513   2.306   1.818 -0.9410  2.4145  1.7628
 1809SOL     OW14223   2.036   5.489   0.886 -0.0227  0.2247  0.4262
 1809SOL    HW114224   2.079   5.411   0.931  3.2817  0.7291 -1.7162
 1809SOL    HW214225   1.938   5.471   0.875  0.4688 -3.1163  0.9628
 1810SOL     OW14226   2.606   6.056   0.622  0.7787  0.2229  0.1209
 1810SOL    HW114227   2.581   5.997   0.698  0.2317  0.7889  0.3847
 1810SOL    HW214228   2.637   6.144   0.657  2.1298 -0.0965 -0.2466
 1811SOL     OW14229   2.109   4.364   1.854  0.6542  0.1111 -0.3288
 1811SOL    HW114230   2.043   4.439   1.857 -0.3702 -0.6657 -2.4276
 1811SOL    HW214231   2.202   4.401   1.857  0.1586  1.3594  0.0866
 1812SOL     OW14232   3.250   8.070   1.844 -0.3940  0.2453 -0.4133
 1812SOL    HW114233   3.203   8.050   1.930 -2.9444 -0.4422 -1.9094
 1812SOL    HW214234   3.207   8.149   1.801  0.2141 -0.0362 -1.5384
 1813SOL     OW14235   3.005   0.805   1.034  0.0023 -0.0518  0.2105
 1813SOL    HW114236   3.031   0.901   1.026 -1.5021  0.5339  2.1591
 1813SOL    HW214237   3.027   0.758   0.948 -0.4891  2.3209 -1.2695
 1815SOL     OW14238   0.699   3.541   0.357 -0.6172  0.3330  0.2770
 1815SOL    HW114239   0.700   3.455   0.408  0.8693  0.7829  1.0296
 1815SOL    HW214240   0.715   3.522   0.260 -1.7246 -0.3532  0.2098
 1816SOL     OW14241   3.347   0.633   2.027  0.1832 -0.4446 -0.4111
 1816SOL    HW114242   3.348   0.708   2.093  2.1577  0.0801 -0.9936
 1816SOL    HW214243   3.338   0.670   1.935 -0.1435 -1.0213 -0.6141
 1818SOL     OW14244   3.998   8.947   1.667  0.3112  0.8068  0.1025
 1818SOL    HW114245   4.037   9.033   1.700  2.3566  0.1063 -0.3803
 1818SOL    HW214246   4.046   8.918   1.584 -0.1788 -0.9300  0.3964
 1820SOL     OW14247   3.813   2.179   1.969 -0.0213  0.0143 -0.1058
 1820SOL    HW114248   3.910   2.159   1.985 -0.6989 -1.6168  2.1536
 1820SOL    HW214249   3.761   2.094   1.967 -1.4225  0.8651 -1.4939
 1821SOL     OW14250   2.352   9.598   1.764 -0.3154  0.3755  0.0764
 1821SOL    HW114251   2.252   9.598   1.769 -0.3059  0.0829  0.3242
 1821SOL    HW214252   2.381   9.532   1.695 -0.2101 -2.1669  2.4117
 1822SOL     OW14253   3.912   2.259   2.250  0.2148  0.2667 -0.0304
 1822SOL    HW114254   3.830   2.258   2.192 -0.1281  1.4594  0.4259
 1822SOL    HW214255   3.982   2.202   2.208 -0.7392 -0.5375 -0.5768
 1823SOL     OW14256   2.696   0.135   1.579 -0.2515  0.2595  0.4570
 1823SOL    HW114257   2.653   0.066   1.521 -0.5843  0.7260  0.1418
 1823SOL    HW214258   2.764   0.092   1.638  1.0454 -0.0617 -1.2217
 1825SOL     OW14259   9.828   5.462   1.956  0.3863 -0.3389  0.1920
 1825SOL    HW114260   9.870   5.437   1.869 -0.0942  0.7951 -0.3731
 1825SOL    HW214261   9.779   5.548   1.946 -0.5450 -0.7233  1.3199
 1826SOL     OW14262   2.482   2.797   1.133 -0.5289  0.5047  0.6917
 1826SOL    HW114263   2.412   2.796   1.061 -2.5247 -0.5696  2.5562
 1826SOL    HW214264   2.541   2.717   1.123 -1.1992  0.0138  0.6029
 1827SOL     OW14265   2.626   3.991   0.410  0.2858 -0.1533 -0.1932
 1827SOL    HW114266   2.681   3.982   0.327 -1.2873  2.4382 -1.6061
 1827SOL    HW214267   2.538   3.946   0.397 -0.5254  1.4665 -0.5266
 1828SOL     OW14268   1.331   3.541   1.654 -0.3968 -0.3833 -0.3431
 1828SOL    HW114269   1.304   3.467   1.716 -0.1387  0.5724  0.9358
 1828SOL    HW214270   1.250   3.582   1.613 -0.6129 -0.6300 -0.1662
 1829SOL     OW14271   3.034   0.459   2.331  0.6201  0.3406 -0.4816
 1829SOL    HW114272   2.988   0.538   2.291  0.3411  0.0338 -0.7647
 1829SOL    HW214273   2.967   0.397   2.371  0.9060  0.7047  0.5760
 1831SOL     OW14274   2.648   4.573   1.294 -0.1354  0.0423  0.1886
 1831SOL    HW114275   2.673   4.481   1.326 -1.5605 -0.0872  0.9585
 1831SOL    HW214276   2.559   4.570   1.249 -0.7539  1.2367  1.2682
 1832SOL     OW14277   2.461   2.209   0.471 -0.2619 -0.7917  0.2112
 1832SOL    HW114278   2.427   2.302   0.481 -0.1686 -0.7170 -0.1528
 1832SOL    HW214279   2.396   2.156   0.415 -0.4552 -1.0211  0.6481
 1833SOL     OW14280   2.529   3.882   2.131  0.2315  0.6108  0.2706
 1833SOL    HW114281   2.525   3.885   2.031 -0.4403 -0.2531  0.2589
 1833SOL    HW214282   2.581   3.960   2.165  0.0411  1.1863 -0.7291
 1834SOL     OW14283   4.742   2.483   2.356 -0.1668  0.3829  0.0211
 1834SOL    HW114284   4.751   2.500   2.454  0.4169 -2.1743  0.4548
 1834SOL    HW214285   4.822   2.520   2.309 -0.2327  1.2307  0.5605
 1835SOL     OW14286   3.089   0.044   1.429 -0.4641 -0.1795  0.2767
 1835SOL    HW114287   3.063   0.108   1.501 -0.5376  0.8169 -0.6160
 1835SOL    HW214288   3.012  -0.016   1.408 -1.0518  0.7274 -0.2164
 1836SOL     OW14289   1.759   5.507   1.678  0.3235  0.5908  0.0901
 1836SOL    HW114290   1.670   5.462   1.685  0.1567  0.9782  0.5367
 1836SOL    HW214291   1.757   5.593   1.730  0.9210  0.6627  0.0025
 1837SOL     OW14292   3.911   3.676   1.555  0.3140  0.0276 -0.2465
 1837SOL    HW114293   3.886   3.639   1.465  0.8622 -0.1021 -0.3430
 1837SOL    HW214294   3.828   3.686   1.610 -0.0945  0.5707 -0.9406
 1838SOL     OW14295   4.513   1.412   1.575  0.0456  0.4259  0.3773
 1838SOL    HW114296   4.573   1.374   1.646 -0.6064 -1.4449 -0.0555
 1838SOL    HW214297   4.473   1.498   1.608  1.1777  0.5215  1.5471
 1840SOL     OW14298   4.001   8.988   1.167  0.1264 -0.3768  0.4601
 1840SOL    HW114299   3.947   9.068   1.140 -0.8760 -0.4733  2.1000
 1840SOL    HW214300   4.087   9.018   1.208  0.1832 -0.1695  0.1935
 1842SOL     OW14301   1.788   4.553   1.008  0.4163 -0.2492 -0.0893
 1842SOL    HW114302   1.806   4.575   1.104  4.2285 -0.2267 -0.7224
 1842SOL    HW214303   1.758   4.635   0.960  0.9678  0.3481  0.5690
 1843SOL     OW14304   2.291   6.890   0.932  0.4585  0.1770 -0.5902
 1843SOL    HW114305   2.260   6.911   0.839 -0.5681 -0.5942 -0.4278
 1843SOL    HW214306   2.384   6.854   0.929  0.5853  0.5510 -1.2785
 1844SOL     OW14307   1.507   5.380   1.741  0.5185 -0.2895 -0.3066
 1844SOL    HW114308   1.429   5.351   1.796 -0.3166  0.9097 -0.8193
 1844SOL    HW214309   1.492   5.352   1.646  0.9627 -0.5175 -0.3096
 1845SOL     OW14310   3.277   2.114   0.380 -0.2191 -0.0905 -0.1507
 1845SOL    HW114311   3.301   2.022   0.413 -0.6837 -0.7314 -1.5646
 1845SOL    HW214312   3.218   2.159   0.448 -2.1123 -1.8483 -0.5609
 1846SOL     OW14313   3.032   3.886   0.721 -0.0400  0.6951 -0.3434
 1846SOL    HW114314   2.934   3.874   0.706 -0.0544  0.7480 -0.2902
 1846SOL    HW214315   3.047   3.948   0.799  0.0351  0.7052 -0.3658
 1847SOL     OW14316   1.783   2.446   2.059  0.4355  0.4643  0.4157
 1847SOL    HW114317   1.765   2.469   1.963  1.2731  1.2282  0.4377
 1847SOL    HW214318   1.696   2.445   2.109 -0.2174 -1.6774 -0.7067
 1848SOL     OW14319   3.157   0.151   0.334  0.2455 -0.3931  0.2646
 1848SOL    HW114320   3.207   0.086   0.277  1.8841  1.3242 -0.2842
 1848SOL    HW214321   3.059   0.140   0.317  0.7128  1.2117 -4.2289
 1849SOL     OW14322   1.929   7.070   0.338 -0.1061 -0.1990  0.1088
 1849SOL    HW114323   1.849   7.112   0.379 -0.3492 -1.4141  0.9122
 1849SOL    HW214324   2.008   7.130   0.347 -0.3748 -0.0510  1.5182
 1851SOL     OW14325   0.376   4.005   1.089  0.2367  0.3131  0.6550
 1851SOL    HW114326   0.421   4.090   1.062 -1.6540  0.6147 -1.7226
 1851SOL    HW214327   0.297   4.026   1.147 -0.2315  0.1824  0.0656
 1852SOL     OW14328   3.222   2.514   0.382  0.6071 -0.4428  0.2453
 1852SOL    HW114329   3.172   2.599   0.396  2.1100  0.2609  1.4850
 1852SOL    HW214330   3.271   2.517   0.295  0.3769 -0.1832  0.1274
 1853SOL     OW14331   1.119   3.685   1.565 -0.0763  0.1682 -0.2782
 1853SOL    HW114332   1.092   3.753   1.498  0.1737 -0.9808 -1.5620
 1853SOL    HW214333   1.039   3.632   1.593 -0.2198  0.7879  0.5083
 1854SOL     OW14334   3.289   1.418   0.507  0.8681 -0.4879 -0.5952
 1854SOL    HW114335   3.222   1.364   0.557 -0.8672  0.9254 -1.3610
 1854SOL    HW214336   3.291   1.390   0.411  0.0845  0.6750 -0.9589
 1855SOL     OW14337   3.609   3.534   1.870  0.0955 -0.0745  0.0707
 1855SOL    HW114338   3.619   3.441   1.835 -1.2313 -0.5556  0.9346
 1855SOL    HW214339   3.512   3.553   1.887  0.5872  0.5872  2.2670
 1856SOL     OW14340   4.494   4.522   1.893 -0.1066 -0.2431 -0.5032
 1856SOL    HW114341   4.534   4.611   1.873 -1.3143  0.3462 -0.2984
 1856SOL    HW214342   4.483   4.470   1.808 -0.1110  0.0916 -0.7051
 1858SOL     OW14343   1.355   4.779   0.713 -0.4787 -0.1273  0.1860
 1858SOL    HW114344   1.273   4.830   0.685 -1.0398 -1.2872 -0.3053
 1858SOL    HW214345   1.358   4.692   0.663  1.7293  0.4779 -0.7686
 1859SOL     OW14346   2.610   4.252   1.614  0.4490 -0.5721  0.1904
 1859SOL    HW114347   2.604   4.201   1.700 -0.2801  0.6233  0.8529
 1859SOL    HW214348   2.629   4.348   1.633 -3.3451  0.4453 -0.7529
 1861SOL     OW14349   2.942   8.339   0.845 -0.0475  0.0218 -0.1464
 1861SOL    HW114350   2.982   8.401   0.777  0.7260  1.8174  1.9019
 1861SOL    HW214351   2.993   8.253   0.847 -0.1610 -0.1130 -1.8947
 1862SOL     OW14352   3.441   2.343   1.457 -0.2812  0.2095  0.6317
 1862SOL    HW114353   3.427   2.326   1.554  1.2688 -2.3678  0.4514
 1862SOL    HW214354   3.372   2.292   1.404  1.8883 -2.4023  0.2346
 1863SOL     OW14355   2.946   8.362   2.016 -0.1742  0.4239 -0.3139
 1863SOL    HW114356   2.923   8.434   2.081 -0.1908  0.0499  0.0897
 1863SOL    HW214357   2.969   8.278   2.064 -0.6319  0.0132 -0.7986
 1865SOL     OW14358   0.875   4.560   1.115 -0.4629 -0.0019 -0.3513
 1865SOL    HW114359   0.912   4.635   1.169  0.8825 -1.4196  0.7284
 1865SOL    HW214360   0.933   4.544   1.035  0.0852 -0.8316  0.2032
 1866SOL     OW14361   3.004   6.176   2.333  0.3691  0.5493  0.0547
 1866SOL    HW114362   2.961   6.264   2.354 -1.8974 -0.3129 -0.8497
 1866SOL    HW214363   2.935   6.112   2.300  1.8900 -1.7682  1.2352
 1868SOL     OW14364   1.650   4.158   1.736  0.3394  0.1764  0.8228
 1868SOL    HW114365   1.747   4.175   1.718  0.6003  2.2982  3.7915
 1868SOL    HW214366   1.596   4.179   1.655  2.3293 -0.9134 -0.8238
 1870SOL     OW14367   9.610   4.725   1.020 -0.4468  0.1153  0.5110
 1870SOL    HW114368   9.645   4.800   0.964 -0.7357  0.9742  1.4845
 1870SOL    HW214369   9.683   4.690   1.079 -0.4746  0.0170  0.4879
 1871SOL     OW14370   4.886   4.714   0.896  0.2528  0.2556  0.0710
 1871SOL    HW114371   4.910   4.730   0.801  2.0800 -0.4432  0.3945
 1871SOL    HW214372   4.924   4.787   0.953  0.8090 -0.3466  0.4804
 1872SOL     OW14373   3.457   0.243   2.104 -0.0593  0.3260  0.3441
 1872SOL    HW114374   3.508   0.177   2.050 -0.3574  0.5126 -0.1653
 1872SOL    HW214375   3.383   0.197   2.153  0.6319  0.0445  1.1312
 1874SOL     OW14376   1.757   3.088   2.030  0.2821  0.2881 -0.2033
 1874SOL    HW114377   1.722   3.178   2.060  0.6991  0.4480 -0.2014
 1874SOL    HW214378   1.856   3.092   2.022  0.5572 -0.8805  2.2255
 1875SOL     OW14379   1.634   4.491   1.373 -0.4845 -0.0654  0.7335
 1875SOL    HW114380   1.583   4.526   1.294 -0.6835 -1.4504  0.2283
 1875SOL    HW214381   1.732   4.505   1.358 -0.5188 -0.3524  0.2186
 1878SOL     OW14382   4.042   1.129   1.465 -0.0428 -0.7325  0.0907
 1878SOL    HW114383   4.070   1.080   1.382  0.5653  0.4837 -0.4441
 1878SOL    HW214384   4.123   1.153   1.518 -0.2341  0.7171 -0.2574
 1879SOL     OW14385   3.640   2.387   2.242 -0.1088 -0.2139  0.1644
 1879SOL    HW114386   3.679   2.333   2.317  0.8184 -0.1984 -0.3028
 1879SOL    HW214387   3.704   2.458   2.216 -0.5504 -0.0492 -0.4722
 1880SOL     OW14388   2.752   3.086   1.949  0.2256  0.6745 -0.1478
 1880SOL    HW114389   2.734   3.181   1.923 -0.3182  0.6143 -0.0092
 1880SOL    HW214390   2.772   3.033   1.867  1.2653  1.0582 -0.1522
 1881SOL     OW14391   2.713   1.417   1.674 -0.4111 -0.2626  0.3453
 1881SOL    HW114392   2.787   1.376   1.727  0.6801  1.3046  0.0532
 1881SOL    HW214393   2.726   1.516   1.668 -0.9206 -0.3114 -2.1908
 1882SOL     OW14394   0.957   5.964   1.901  0.3420 -0.4243 -0.2993
 1882SOL    HW114395   0.930   6.035   1.966  1.0153 -1.1800  0.8072
 1882SOL    HW214396   1.054   5.975   1.878  1.0420 -2.3316  1.6109
 1883SOL     OW14397   2.105   6.666   0.949 -0.1697  0.1199 -0.2460
 1883SOL    HW114398   2.167   6.744   0.959 -0.8927  0.7718 -0.7743
 1883SOL    HW214399   2.158   6.581   0.953  0.9617  0.7092 -2.1897
 1885SOL     OW14400   4.141   2.109   0.572  0.8178 -0.4566  0.2171
 1885SOL    HW114401   4.068   2.041   0.581  0.6759 -0.2228  0.9108
 1885SOL    HW214402   4.176   2.131   0.663  0.7668  0.5001  0.0055
 1887SOL     OW14403   0.769   5.611   1.190  0.1491 -0.2536 -0.1993
 1887SOL    HW114404   0.712   5.631   1.110 -0.5151 -0.9618  0.0960
 1887SOL    HW214405   0.713   5.611   1.272  0.2223 -2.8102 -0.1234
 1888SOL     OW14406   3.268   2.197   1.274 -0.5159 -0.4411  0.2256
 1888SOL    HW114407   3.231   2.104   1.276  2.2493 -1.6155 -0.8542
 1888SOL    HW214408   3.248   2.239   1.186  0.3159 -0.9462 -0.2201
 1890SOL     OW14409   2.310   5.246   0.396 -0.1787  0.6093 -0.0413
 1890SOL    HW114410   2.385   5.212   0.453 -1.3731  1.0086  1.8061
 1890SOL    HW214411   2.267   5.169   0.348  0.8397  0.2766 -0.4489
 1891SOL     OW14412   3.682   1.400   2.203  0.2539  0.0973  0.2006
 1891SOL    HW114413   3.641   1.420   2.292  1.0664 -0.2909  0.6737
 1891SOL    HW214414   3.687   1.483   2.149 -2.2837 -0.0684 -0.3544
 1892SOL     OW14415   4.426   3.530   1.049  0.2610 -0.0169 -0.6394
 1892SOL    HW114416   4.375   3.588   0.986 -2.3091 -0.5824  0.8486
 1892SOL    HW214417   4.367   3.503   1.125  2.4194 -1.7797  0.4811
 1893SOL     OW14418   0.847   3.320   1.702 -0.5199  0.8005  0.1118
 1893SOL    HW114419   0.829   3.297   1.606 -0.4459 -0.0535  0.2925
 1893SOL    HW214420   0.915   3.257   1.739 -1.0563  0.6795  0.9164
 1894SOL     OW14421   1.896   5.747   0.494 -0.3129  0.1813  0.7143
 1894SOL    HW114422   1.899   5.804   0.576 -0.7679  0.6458  0.4144
 1894SOL    HW214423   1.933   5.798   0.417 -2.3956  0.7550  0.0561
 1895SOL     OW14424   4.618   4.639   0.936  0.1264 -0.2099  0.2451
 1895SOL    HW114425   4.595   4.603   0.846 -0.5256  1.8140 -0.4318
 1895SOL    HW214426   4.709   4.681   0.933  0.3240 -0.5929  0.6837
 1897SOL     OW14427   2.863   8.243   1.584 -0.8976 -0.2349 -0.2743
 1897SOL    HW114428   2.885   8.328   1.631 -2.4825 -0.6071  1.1897
 1897SOL    HW214429   2.945   8.206   1.542  0.0552  1.3676  0.1430
 1898SOL     OW14430   3.866   5.210   1.150  0.4960  0.3937 -0.2815
 1898SOL    HW114431   3.870   5.119   1.110 -3.0388 -0.7319  1.7097
 1898SOL    HW214432   3.824   5.273   1.084 -0.6154 -0.2990 -0.2393
 1899SOL     OW14433   2.437   7.601   1.613 -0.0174  0.1637  0.0392
 1899SOL    HW114434   2.421   7.670   1.684  0.1254 -0.7440  0.9603
 1899SOL    HW214435   2.435   7.645   1.524  0.1733  1.3898  0.6219
 1901SOL     OW14436   1.075   3.308   1.117  1.0014 -0.2854 -0.1867
 1901SOL    HW114437   1.109   3.375   1.051  2.2252 -1.6542 -0.9832
 1901SOL    HW214438   0.978   3.293   1.101  1.1305 -0.0872 -1.2319
 1902SOL     OW14439   3.801   3.331   0.955  0.5853 -0.0252  0.2329
 1902SOL    HW114440   3.832   3.293   1.042  1.1820  2.1904  1.0465
 1902SOL    HW214441   3.701   3.339   0.955  0.4502 -1.6821 -0.0047
 1904SOL     OW14442   3.672   9.000   2.005 -0.4112 -0.2504 -0.1513
 1904SOL    HW114443   3.669   9.036   2.099 -0.1517 -0.8882  0.1030
 1904SOL    HW214444   3.734   9.055   1.950  0.8754 -1.0031  0.5305
 1905SOL     OW14445   2.690   3.677   0.907  0.0904  0.2188 -0.1330
 1905SOL    HW114446   2.635   3.643   0.983  0.6181  0.7397  0.4907
 1905SOL    HW214447   2.776   3.715   0.943  0.9244 -0.7217 -1.1009
 1907SOL     OW14448   2.482   8.867   1.784 -0.0941 -0.5748 -0.3168
 1907SOL    HW114449   2.430   8.892   1.865  1.0661 -1.1589  0.6269
 1907SOL    HW214450   2.576   8.901   1.793 -0.4168  0.8748 -2.2009
 1908SOL     OW14451   3.017   0.250   1.622 -0.1526 -0.1993  1.1438
 1908SOL    HW114452   3.115   0.266   1.612 -0.0079  0.3460  3.1702
 1908SOL    HW214453   2.967   0.334   1.604 -0.4590 -1.0110 -2.1360
 1909SOL     OW14454   4.260   3.238   0.505 -0.5355  0.6379  0.2311
 1909SOL    HW114455   4.214   3.288   0.432  0.7758  1.3102 -0.1481
 1909SOL    HW214456   4.313   3.301   0.561  1.4838 -0.3354 -0.5068
 1910SOL     OW14457   2.636   3.415   1.619 -0.4161  0.2307 -0.5628
 1910SOL    HW114458   2.544   3.379   1.632  0.7563 -2.5191  0.7021
 1910SOL    HW214459   2.680   3.369   1.542  0.4056  0.4129 -0.2149
 1912SOL     OW14460   4.930   2.284   1.218 -0.8023  0.7553 -0.1432
 1912SOL    HW114461   5.013   2.333   1.243  1.8812 -2.2937 -2.5863
 1912SOL    HW214462   4.902   2.225   1.294  1.2014 -0.6367 -0.4476
 1913SOL     OW14463   2.411   2.621   1.736  0.3092 -0.5597 -0.0395
 1913SOL    HW114464   2.425   2.523   1.724 -0.3937 -0.7910  1.0138
 1913SOL    HW214465   2.473   2.671   1.675  0.0154 -1.6559 -1.2534
 1914SOL     OW14466   3.577   1.797   1.817  0.1601 -0.1739 -0.1741
 1914SOL    HW114467   3.644   1.848   1.872  1.5419 -0.8820 -1.1699
 1914SOL    HW214468   3.491   1.848   1.816  0.2663  0.1234  2.1713
 1915SOL     OW14469   3.195   2.856   1.938  0.5445 -0.2074 -0.4025
 1915SOL    HW114470   3.239   2.826   1.853 -2.6068 -0.7458 -1.8825
 1915SOL    HW214471   3.162   2.776   1.988  1.0660  0.2054  0.6150
 1916SOL     OW14472   5.500   2.778   1.055  0.3365 -0.2098 -0.3714
 1916SOL    HW114473   5.460   2.699   1.008 -0.1600 -0.8834  1.1487
 1916SOL    HW214474   5.510   2.853   0.991 -1.6395 -0.6579 -1.2379
 1917SOL     OW14475   5.420   3.326   2.026  0.0344 -0.1152  0.0859
 1917SOL    HW114476   5.367   3.324   2.111 -1.0888  0.7570 -0.5745
 1917SOL    HW214477   5.499   3.387   2.038 -0.0705 -0.0600  0.5256
 1918SOL     OW14478   2.498   1.256   1.690  0.4790  0.5143  0.0738
 1918SOL    HW114479   2.592   1.289   1.684  0.8199 -0.5342 -0.5862
 1918SOL    HW214480   2.489   1.172   1.636  0.2274 -1.7406  3.4422
 1919SOL     OW14481   9.873   5.509   1.540 -0.2008 -0.5084 -0.1898
 1919SOL    HW114482   9.850   5.437   1.474 -0.4646  0.2975 -0.9807
 1919SOL    HW214483   9.919   5.468   1.619  3.9260 -1.0120 -2.7343
 1921SOL     OW14484   3.157   0.500   0.382 -0.3076 -0.0761  0.2362
 1921SOL    HW114485   3.179   0.581   0.437 -2.9319 -0.0124  1.2568
 1921SOL    HW214486   3.126   0.426   0.442 -0.4898 -0.9569 -0.9162
 1922SOL     OW14487   2.965   5.170   2.122 -0.0741  0.1733  0.4694
 1922SOL    HW114488   2.961   5.255   2.069  0.6607 -1.0971 -1.7187
 1922SOL    HW214489   2.903   5.103   2.082 -1.5815  0.0536  2.9322
 1923SOL     OW14490   2.454   7.805   1.804  0.2800  0.6974 -0.1189
 1923SOL    HW114491   2.492   7.743   1.873  0.3881  1.9096  0.9333
 1923SOL    HW214492   2.503   7.892   1.807 -0.6639  1.2582 -0.7608
 1924SOL     OW14493   3.808   3.349   1.734  0.3897  0.8406 -0.0524
 1924SOL    HW114494   3.887   3.384   1.785  0.7536 -0.6571  0.4150
 1924SOL    HW214495   3.829   3.349   1.636  0.2760  2.2058 -0.0884
 1927SOL     OW14496   2.981   2.417   1.407  0.2130 -0.0248 -0.2751
 1927SOL    HW114497   3.038   2.482   1.357 -1.0889  1.0409 -0.4177
 1927SOL    HW214498   2.933   2.465   1.480 -1.4407 -0.6448 -0.9291
 1930SOL     OW14499   3.691   2.681   0.757  0.1707  0.1418 -0.0629
 1930SOL    HW114500   3.642   2.697   0.843 -0.3647 -0.9653 -0.1556
 1930SOL    HW214501   3.721   2.586   0.753 -0.1171  0.0938 -1.2623
 1931SOL     OW14502   2.083   4.897   1.412 -0.0699 -0.0476 -0.3392
 1931SOL    HW114503   2.111   4.806   1.382 -0.1808  0.3313 -1.6270
 1931SOL    HW214504   2.004   4.927   1.358 -0.7152  0.3735  0.8061
 1932SOL     OW14505   2.522   5.106   0.474  0.3339 -0.0122 -0.1631
 1932SOL    HW114506   2.523   5.037   0.546  2.5214 -0.4883 -0.6081
 1932SOL    HW214507   2.551   5.065   0.388  1.6309  1.4309 -0.4426
 1933SOL     OW14508   2.597   1.721   2.230 -0.4262  0.1661 -0.1904
 1933SOL    HW114509   2.661   1.735   2.306  0.5825  1.9492 -1.3346
 1933SOL    HW214510   2.564   1.626   2.231  0.6858 -0.2256  1.5950
 1934SOL     OW14511   2.671   4.317   1.342 -0.0387 -0.4855 -0.4145
 1934SOL    HW114512   2.596   4.273   1.293  1.0184 -2.0412 -0.6873
 1934SOL    HW214513   2.673   4.283   1.437 -0.4214  0.4702 -0.0602
 1935SOL     OW14514   3.913   9.068   0.781 -0.1702  0.2891 -0.0314
 1935SOL    HW114515   3.865   9.108   0.859 -1.5928  0.6373 -1.0502
 1935SOL    HW214516   3.848   9.013   0.728  0.6318  0.5396 -1.2884
 1936SOL     OW14517   0.792   6.204   1.960  0.7318  0.0737  0.5615
 1936SOL    HW114518   0.692   6.206   1.961  0.7319  0.2808  0.3607
 1936SOL    HW214519   0.824   6.219   1.866  0.8657 -3.8442 -0.1073
 1937SOL     OW14520   2.759   8.932   1.071  0.6419  0.1896  0.6249
 1937SOL    HW114521   2.720   8.984   1.147  1.3133  0.1194  1.0174
 1937SOL    HW214522   2.776   8.838   1.100  1.5215  0.3357  0.5859
 1938SOL     OW14523   3.084   8.154   1.397 -0.1338  0.3089 -0.7702
 1938SOL    HW114524   3.167   8.111   1.433 -0.4427 -1.3830 -2.0049
 1938SOL    HW214525   3.107   8.243   1.356  0.9123  0.2765 -0.2662
 1939SOL     OW14526   4.024   9.401   1.849 -0.0794  0.2244  0.4503
 1939SOL    HW114527   4.068   9.341   1.917  0.4309  0.3882  0.2677
 1939SOL    HW214528   3.934   9.365   1.826  1.7113 -2.6589 -2.5160
 1940SOL     OW14529   3.109   1.123   0.948  0.6453 -0.0997 -0.2644
 1940SOL    HW114530   3.049   1.186   0.898  1.6625  0.5531 -0.6658
 1940SOL    HW214531   3.065   1.098   1.034  0.3222  1.3537  0.0100
 1941SOL     OW14532   2.110   5.914   1.866  0.1646  0.2823  0.6162
 1941SOL    HW114533   2.053   5.972   1.808 -0.2640 -0.1575  0.5950
 1941SOL    HW214534   2.052   5.848   1.915  0.7690 -1.0831 -0.4468
 1943SOL     OW14535   3.187   6.419   0.479 -0.1796  0.1661  0.3290
 1943SOL    HW114536   3.203   6.322   0.464  0.3319  0.5712 -1.8207
 1943SOL    HW214537   3.124   6.455   0.410 -1.8319  0.9870  2.2031
 1944SOL     OW14538   2.270   4.016   2.180 -0.6003  0.5879 -0.2163
 1944SOL    HW114539   2.242   3.955   2.106 -1.0304 -1.9413  1.9707
 1944SOL    HW214540   2.367   4.004   2.198 -0.4369  1.4045 -0.5430
 1945SOL     OW14541   1.978   3.750   1.073  0.0785  0.1521  0.2025
 1945SOL    HW114542   2.062   3.748   1.128  0.2548  0.3900 -0.0548
 1945SOL    HW214543   1.907   3.698   1.120 -0.0959  1.2391  1.1813
 1948SOL     OW14544   0.595   4.781   1.525  0.1629 -1.0349  0.2876
 1948SOL    HW114545   0.608   4.840   1.604  0.9149 -1.2101  0.2922
 1948SOL    HW214546   0.675   4.722   1.513  0.9002  0.3007 -1.7120
 1949SOL     OW14547   2.186   3.036   2.358 -0.1235 -0.1284 -0.6185
 1949SOL    HW114548   2.271   3.020   2.408 -0.7105 -3.0484 -0.4636
 1949SOL    HW214549   2.206   3.085   2.272  1.4283  0.9563  0.3425
 1950SOL     OW14550   0.487   3.747   0.369 -0.2318 -0.1473  0.4036
 1950SOL    HW114551   0.515   3.829   0.418  0.7042 -0.9557  1.2442
 1950SOL    HW214552   0.567   3.689   0.352 -0.5839 -0.0619 -1.7650
 1952SOL     OW14553   2.887  -0.118   1.436  0.2128 -0.4918 -0.1741
 1952SOL    HW114554   2.795  -0.095   1.406  0.4453  0.9001  0.1047
 1952SOL    HW214555   2.891  -0.213   1.464 -0.7408 -0.9984 -1.6979
 1955SOL     OW14556   3.776   0.997   0.580 -0.1012 -0.1893 -0.6618
 1955SOL    HW114557   3.827   1.074   0.618  0.1835 -1.3115  1.2896
 1955SOL    HW214558   3.818   0.911   0.608 -0.7387 -1.0957 -2.3561
 1956SOL     OW14559   5.201   3.453   0.573 -0.1261  0.0894  0.3355
 1956SOL    HW114560   5.250   3.509   0.639 -0.0164  0.9340 -0.4465
 1956SOL    HW214561   5.142   3.388   0.621  0.0676  0.5928  1.2602
 1957SOL     OW14562   3.537   0.205   1.037 -0.2122  0.2648 -0.1300
 1957SOL    HW114563   3.460   0.143   1.024 -1.0441  0.8503  1.8268
 1957SOL    HW214564   3.529   0.282   0.973 -0.0020 -0.8155 -1.4925
 1958SOL     OW14565   2.618   9.851   1.061 -0.7292 -0.0729  0.0807
 1958SOL    HW114566   2.628   9.856   0.962  0.4407  2.3835  0.2706
 1958SOL    HW214567   2.705   9.874   1.105 -1.2686 -1.0018  1.6878
 1960SOL     OW14568   4.528   1.948   1.099  0.3777 -0.7454  1.0440
 1960SOL    HW114569   4.572   2.024   1.148  0.0716 -0.1440  0.3933
 1960SOL    HW214570   4.483   1.888   1.165 -0.8343  0.5661  1.4442
 1961SOL     OW14571   4.471   5.420   1.758  0.0303  0.2217 -0.1177
 1961SOL    HW114572   4.556   5.440   1.808  0.8131  2.1362 -2.0884
 1961SOL    HW214573   4.394   5.422   1.822  1.2999 -0.1535  1.4764
 1962SOL     OW14574   2.050   3.006   0.566 -0.3375  0.0964  0.0100
 1962SOL    HW114575   2.001   2.945   0.504 -1.2205  0.7592  0.0361
 1962SOL    HW214576   1.994   3.086   0.585 -1.3325 -1.3967  3.9587
 1963SOL     OW14577   3.219   5.464   0.638  0.1965  0.4802 -0.3105
 1963SOL    HW114578   3.207   5.482   0.735 -0.7882 -0.0219 -0.3380
 1963SOL    HW214579   3.140   5.498   0.587  0.0332 -0.5574 -0.7679
 1964SOL     OW14580   3.447   3.447   0.361  0.3695  0.6982  0.0430
 1964SOL    HW114581   3.393   3.376   0.406 -2.4498  2.8216  0.1408
 1964SOL    HW214582   3.486   3.509   0.429  0.5770  0.8042 -0.1686
 1965SOL     OW14583   3.183   9.825   0.888 -0.2551 -0.1506 -0.2364
 1965SOL    HW114584   3.106   9.826   0.951 -0.2035 -0.1703 -0.1733
 1965SOL    HW214585   3.244   9.748   0.910 -0.2169 -0.1351 -0.2857
 1966SOL     OW14586   1.048   3.910   1.418 -0.3073 -0.4600 -0.0731
 1966SOL    HW114587   0.978   3.975   1.448  1.7752  1.5645  0.6140
 1966SOL    HW214588   1.073   3.929   1.323  0.2916 -0.2550  0.1215
 1968SOL     OW14589   3.160   2.298   2.291 -0.6233 -0.2813  0.2811
 1968SOL    HW114590   3.241   2.335   2.245 -1.7640  0.5408 -1.1159
 1968SOL    HW214591   3.078   2.341   2.253 -1.6734 -0.4641  2.2896
 1969SOL     OW14592   2.560   1.981   1.613  0.0613 -0.5564 -0.4179
 1969SOL    HW114593   2.596   1.966   1.705  0.8557 -3.8751 -1.2239
 1969SOL    HW214594   2.465   2.012   1.620  0.7144  1.1412  1.5283
 1970SOL     OW14595   3.216   1.861   1.432  0.1231 -0.5058  0.0356
 1970SOL    HW114596   3.190   1.884   1.338 -1.1121 -0.6911  0.3221
 1970SOL    HW214597   3.312   1.884   1.447 -0.2790  1.6551 -0.5810
 1971SOL     OW14598   9.692   5.122   1.536 -0.3240  0.6639 -0.2598
 1971SOL    HW114599   9.722   5.035   1.576  0.3666  0.1053 -1.9279
 1971SOL    HW214600   9.598   5.113   1.503 -0.3427  0.6201 -0.1950
 1972SOL     OW14601   1.623   5.802   1.978  0.1010  0.5640  0.5526
 1972SOL    HW114602   1.529   5.780   1.950  0.3011  0.8117 -0.3351
 1972SOL    HW214603   1.621   5.840   2.070 -0.6208  0.1181  0.7308
 1973SOL     OW14604   3.712   9.523   1.214 -0.0722  0.1801  0.3281
 1973SOL    HW114605   3.783   9.555   1.152 -0.2458 -1.7018 -0.8441
 1973SOL    HW214606   3.746   9.526   1.308  1.9493 -1.7559 -0.3235
 1974SOL     OW14607   2.214   3.801   0.600  0.2175  0.4078  0.3597
 1974SOL    HW114608   2.186   3.708   0.623  0.4631  0.5261  1.1243
 1974SOL    HW214609   2.136   3.862   0.611  0.1598  0.3574  0.2327
 1976SOL     OW14610   3.892   8.653   0.871 -0.4901 -0.4767  0.0498
 1976SOL    HW114611   3.952   8.578   0.846 -1.9107 -2.0675  1.2785
 1976SOL    HW214612   3.907   8.677   0.967 -1.8379 -0.9352  0.3871
 1977SOL     OW14613   0.194   4.867   1.972 -0.0599  0.3436 -0.1559
 1977SOL    HW114614   0.272   4.837   1.917 -0.7783 -0.4984 -0.7446
 1977SOL    HW214615   0.116   4.884   1.912 -0.8605 -0.6122  0.5997
 1979SOL     OW14616   4.690   3.149   0.878  0.4923 -0.4770 -0.2444
 1979SOL    HW114617   4.606   3.097   0.893  0.7879 -0.2026  2.6362
 1979SOL    HW214618   4.767   3.087   0.867  0.2267 -0.6955 -0.9008
 1980SOL     OW14619   2.336   8.817   0.369  0.3233  0.1460  0.3466
 1980SOL    HW114620   2.389   8.830   0.285  0.5803  0.0854  0.4994
 1980SOL    HW214621   2.390   8.765   0.435 -1.2814 -3.1813 -0.8485
 1981SOL     OW14622   0.868   4.614   1.540  0.2663  0.0445  0.3898
 1981SOL    HW114623   0.826   4.526   1.517 -0.0476  0.3223 -0.1004
 1981SOL    HW214624   0.922   4.647   1.463 -1.2023  1.2246 -0.1457
 1982SOL     OW14625   3.108   8.311   1.181  0.4907 -0.2897 -0.2867
 1982SOL    HW114626   3.150   8.354   1.101 -0.4098  0.2714 -0.4648
 1982SOL    HW214627   3.028   8.259   1.153 -1.8144  2.6222  0.6256
 1983SOL     OW14628   3.481   1.332   0.920  0.3067  0.0314 -0.1468
 1983SOL    HW114629   3.394   1.322   0.968  0.4255  1.1091  0.2988
 1983SOL    HW214630   3.556   1.313   0.983  0.4056 -0.4798 -0.4203
 1984SOL     OW14631   2.351   8.150   0.524 -0.3645 -0.1662 -0.1693
 1984SOL    HW114632   2.338   8.134   0.426  1.6539  1.0263 -0.6608
 1984SOL    HW214633   2.364   8.063   0.571  0.6102 -0.6358 -1.2765
 1985SOL     OW14634   2.282   7.338   1.906 -0.1253  0.2168  0.1674
 1985SOL    HW114635   2.285   7.333   1.807 -1.0492 -2.6262  0.2283
 1985SOL    HW214636   2.313   7.251   1.945 -0.1819  1.1379  2.3509
 1986SOL     OW14637   1.462   5.884   1.429 -0.1375 -0.6944  0.1939
 1986SOL    HW114638   1.370   5.883   1.390 -0.6023 -1.5418  1.2904
 1986SOL    HW214639   1.490   5.790   1.449 -0.1292 -0.2378  2.4021
 1987SOL     OW14640   2.519   1.040   1.521 -0.0683  0.1960  0.2522
 1987SOL    HW114641   2.509   0.961   1.581  1.0192 -0.2932 -0.1982
 1987SOL    HW214642   2.493   1.016   1.428  1.0348  0.1214 -0.0498
 1988SOL     OW14643   2.223   6.038   0.373  0.2844  0.2676  0.4183
 1988SOL    HW114644   2.253   5.988   0.453 -0.8769 -0.4049  0.4531
 1988SOL    HW214645   2.275   6.009   0.293  0.6149  0.0615  0.7119
 1989SOL     OW14646   9.266   4.035   1.644 -0.6226  0.3403  0.5030
 1989SOL    HW114647   9.248   4.084   1.559  0.8519  1.1655  0.6564
 1989SOL    HW214648   9.197   4.060   1.712 -1.3820  0.2291 -0.2183
 1990SOL     OW14649   0.158   5.962   0.644  0.1507  0.2513  0.5481
 1990SOL    HW114650   0.192   5.874   0.676 -2.0956 -0.0198  2.3213
 1990SOL    HW214651   0.194   6.035   0.702  0.1988  0.2728  0.4918
 1991SOL     OW14652   1.426   6.666   0.848 -0.0713 -0.2372  0.1751
 1991SOL    HW114653   1.504   6.681   0.787 -0.3928  0.2625 -0.1078
 1991SOL    HW214654   1.445   6.706   0.938  0.2566 -0.6684  0.3018
 1992SOL     OW14655   1.922   2.624   0.595  0.0820 -0.0949  0.0777
 1992SOL    HW114656   1.880   2.594   0.681  1.8938 -1.6666  0.4517
 1992SOL    HW214657   1.922   2.548   0.530 -0.8225  0.9404 -1.1563
 1993SOL     OW14658   3.165   9.777   2.370 -0.8315  0.6191 -0.2833
 1993SOL    HW114659   3.106   9.801   2.293 -0.7767  0.0448 -0.5032
 1993SOL    HW214660   3.123   9.704   2.423 -1.0371  1.2595  0.4400
 1996SOL     OW14661   2.268   2.036   1.914  0.6987 -0.1913  0.0752
 1996SOL    HW114662   2.219   1.976   1.977 -0.4046 -0.7963 -1.3426
 1996SOL    HW214663   2.364   2.007   1.909  0.9456  0.2352  1.9137
 1997SOL     OW14664   3.956   2.504   1.126  0.6605  0.0953  0.1995
 1997SOL    HW114665   3.958   2.405   1.108 -1.8826 -0.4101  2.4024
 1997SOL    HW214666   3.887   2.524   1.196 -1.6687  3.9201 -3.0140
 1999SOL     OW14667   1.348   5.937   1.128  0.0522  0.8677 -0.0783
 1999SOL    HW114668   1.431   5.881   1.125 -0.9193 -0.5895 -0.3195
 1999SOL    HW214669   1.293   5.911   1.207 -0.5973  1.1956 -0.4171
 2000SOL     OW14670   2.787   2.852   2.289  0.0558  0.2599 -0.6741
 2000SOL    HW114671   2.858   2.825   2.224  1.0996  1.4168 -0.0350
 2000SOL    HW214672   2.709   2.890   2.239  0.2441 -0.2163 -1.3347
 2001SOL     OW14673   3.494   3.881   0.939 -0.0380 -0.4390  0.6155
 2001SOL    HW114674   3.461   3.797   0.984  0.1751 -0.6496  0.3832
 2001SOL    HW214675   3.594   3.883   0.943 -0.0685  0.0997  1.1433
 2002SOL     OW14676   2.231   6.435   0.907  0.4192  0.4980  0.5945
 2002SOL    HW114677   2.294   6.428   0.830 -1.6847  0.2061 -1.1597
 2002SOL    HW214678   2.231   6.350   0.959  1.4730  0.5055  0.6060
 2003SOL     OW14679   3.432   8.452   0.322 -0.4583 -0.1349 -0.3356
 2003SOL    HW114680   3.390   8.543   0.327 -0.3086 -0.1354  1.1280
 2003SOL    HW214681   3.499   8.450   0.248 -0.5795  0.8970 -0.4834
 2004SOL     OW14682   4.070   2.654   0.725 -0.1975 -0.1593  0.0426
 2004SOL    HW114683   4.002   2.674   0.654 -2.0374  0.2205  1.8609
 2004SOL    HW214684   4.136   2.586   0.690 -0.9013  0.2056 -2.0895
 2005SOL     OW14685   9.929   5.078   2.230 -0.0951 -0.2143  0.1658
 2005SOL    HW114686  10.023   5.050   2.209  0.3746  1.6848 -0.4489
 2005SOL    HW214687   9.923   5.178   2.223 -1.9380 -0.2398  1.1502
 2006SOL     OW14688   2.799   4.329   0.806  0.0398  0.0837  0.5774
 2006SOL    HW114689   2.783   4.411   0.860 -1.0115  2.2660 -2.8635
 2006SOL    HW214690   2.887   4.336   0.759  0.0570 -0.8784  0.4524
 2008SOL     OW14691   2.181   3.405   1.965  0.1726 -0.4831 -0.1527
 2008SOL    HW114692   2.165   3.456   2.049 -1.4028 -1.0180 -0.1247
 2008SOL    HW214693   2.189   3.470   1.888  0.4162 -0.0710  0.2166
 2011SOL     OW14694   4.199   0.592   0.812  0.0754 -0.2661  0.5761
 2011SOL    HW114695   4.126   0.544   0.860 -0.3661  0.9096  1.1041
 2011SOL    HW214696   4.182   0.591   0.714 -0.1996 -0.7312  0.6281
 2012SOL     OW14697   3.467   2.149   1.689  0.1353  0.5749  0.5007
 2012SOL    HW114698   3.379   2.186   1.721 -0.1094  0.6966 -0.2994
 2012SOL    HW214699   3.537   2.166   1.758 -0.8063 -0.9372  1.8549
 2014SOL     OW14700   2.740   7.441   1.530 -0.4051  0.0559  0.2615
 2014SOL    HW114701   2.719   7.438   1.628 -2.1908  3.2275  0.0332
 2014SOL    HW214702   2.657   7.417   1.478  0.2447 -0.5415 -0.5210
 2015SOL     OW14703   3.498   1.612   1.598 -0.1965  0.0996 -0.0467
 2015SOL    HW114704   3.428   1.671   1.637 -0.2639  0.9385 -1.3962
 2015SOL    HW214705   3.456   1.526   1.568  0.0002 -0.8946  2.4253
 2016SOL     OW14706   4.382   3.523   1.579  0.1376 -0.0121 -0.0146
 2016SOL    HW114707   4.341   3.570   1.657 -0.9743  1.0231 -1.1936
 2016SOL    HW214708   4.459   3.468   1.610  0.6976  1.6141  1.6054
 2017SOL     OW14709   4.020   1.454   2.000  0.5304 -0.3305 -0.0900
 2017SOL    HW114710   3.956   1.381   1.979 -0.5670  0.4684  0.4050
 2017SOL    HW214711   4.020   1.471   2.098  1.9041 -0.6830 -0.0236
 2018SOL     OW14712   3.187   7.826   1.252  0.0213 -0.3754  0.2948
 2018SOL    HW114713   3.094   7.832   1.289 -0.0592  0.9080 -0.0861
 2018SOL    HW214714   3.183   7.830   1.152  0.6307  1.8681  0.3427
 2019SOL     OW14715   3.171   7.385   0.800  0.7042 -0.9068 -0.1298
 2019SOL    HW114716   3.179   7.453   0.874 -0.6114  0.3923 -1.1365
 2019SOL    HW214717   3.168   7.293   0.839 -2.8959 -0.1162  1.7339
 2020SOL     OW14718   1.741   4.820   0.908  0.0675  0.1246  0.6427
 2020SOL    HW114719   1.837   4.830   0.879  0.3328  0.2465  1.5331
 2020SOL    HW214720   1.685   4.889   0.861  0.5278  0.4768  0.6013
 2021SOL     OW14721   2.358   1.527   0.345 -0.0387  0.0859  0.4464
 2021SOL    HW114722   2.318   1.436   0.356 -0.6778  0.3174  0.1024
 2021SOL    HW214723   2.454   1.519   0.319 -0.2211 -0.4989 -0.0547
 2022SOL     OW14724   3.170   8.967   1.746 -0.0852 -0.7994 -0.3108
 2022SOL    HW114725   3.110   8.905   1.695 -0.3135  0.6610 -1.8726
 2022SOL    HW214726   3.164   8.947   1.844 -0.8178 -2.6446 -0.7216
 2023SOL     OW14727   3.972   1.811   2.117 -0.3869  0.0862  0.3165
 2023SOL    HW114728   4.016   1.892   2.156  0.0814  0.0712 -0.1817
 2023SOL    HW214729   3.906   1.775   2.182 -0.3090  0.6377  0.7035
 2024SOL     OW14730   2.342   7.112   2.050 -0.3417  0.2169 -0.0041
 2024SOL    HW114731   2.426   7.066   2.080 -0.8081  0.1368  1.1876
 2024SOL    HW214732   2.263   7.065   2.088 -1.0257 -0.7653 -2.5551
 2025SOL     OW14733   1.592   6.186   2.098 -0.0458 -0.3315 -0.0395
 2025SOL    HW114734   1.629   6.272   2.063  1.7516 -0.7143  0.8258
 2025SOL    HW214735   1.492   6.188   2.094 -0.0593  2.0524  0.5604
 2026SOL     OW14736   2.335   2.254   0.911 -0.1228  0.7277 -0.3603
 2026SOL    HW114737   2.300   2.328   0.968 -0.6029  1.2944 -1.3808
 2026SOL    HW214738   2.380   2.186   0.969 -0.7764  1.1912  0.7097
 2027SOL     OW14739   1.049   4.839   1.963  0.1740 -0.0012  0.0991
 2027SOL    HW114740   0.967   4.817   1.910  1.3240  0.3737 -1.9005
 2027SOL    HW214741   1.050   4.786   2.048 -1.4511 -1.0299 -0.5142
 2028SOL     OW14742   2.840   8.744   1.906 -0.4175 -0.2196 -0.4009
 2028SOL    HW114743   2.939   8.736   1.893 -0.2450  0.4668  0.4245
 2028SOL    HW214744   2.807   8.825   1.860  0.3176  2.6455  3.8128
 2029SOL     OW14745   4.856   2.768   2.030 -0.7423 -0.3070 -0.1838
 2029SOL    HW114746   4.799   2.849   2.014 -3.4070 -1.9676  0.5887
 2029SOL    HW214747   4.918   2.755   1.952 -1.2974  1.6251 -0.9752
 2030SOL     OW14748   2.580   4.068   0.669 -0.0923 -0.1583 -0.3179
 2030SOL    HW114749   2.613   4.082   0.575  0.7662 -0.6295 -0.0904
 2030SOL    HW214750   2.531   3.981   0.674  0.1686 -0.3023 -0.2506
 2033SOL     OW14751   2.207   2.518   0.817  0.2181  0.1621 -0.4262
 2033SOL    HW114752   2.179   2.612   0.797  1.7508  0.6245 -0.4281
 2033SOL    HW214753   2.224   2.470   0.731  0.4753  0.2040 -0.3985
 2034SOL     OW14754   4.066   5.069   0.481 -0.0129  0.2125 -0.2787
 2034SOL    HW114755   4.071   5.077   0.381  0.7539 -1.1013 -0.3513
 2034SOL    HW214756   4.150   5.103   0.522  1.0184 -2.2850 -0.2793
 2035SOL     OW14757   1.510   6.170   0.568  0.0218  0.3847  0.1256
 2035SOL    HW114758   1.565   6.215   0.638 -0.6722  0.6982  0.4764
 2035SOL    HW214759   1.417   6.208   0.569 -0.9649 -1.9823  1.2886
 2036SOL     OW14760   2.623   4.996   1.380  0.0108  0.4433  0.0411
 2036SOL    HW114761   2.626   5.095   1.364  1.1857  0.1163 -2.0142
 2036SOL    HW214762   2.575   4.952   1.304 -0.5605 -0.5773  0.9819
 2037SOL     OW14763   2.005   3.693   1.995  0.3705 -0.0353  0.7138
 2037SOL    HW114764   2.055   3.676   2.080  0.0270 -1.2118  0.6980
 2037SOL    HW214765   1.907   3.696   2.015  0.1855 -1.7774  0.1558
 2038SOL     OW14766   0.900   4.463   0.444 -0.0309 -0.3156  0.0538
 2038SOL    HW114767   0.995   4.479   0.419 -0.1404 -1.2558 -1.0172
 2038SOL    HW214768   0.876   4.367   0.426 -1.0464 -0.2041  0.7399
 2040SOL     OW14769   9.714   5.746   1.620 -0.5413 -0.0033  0.8392
 2040SOL    HW114770   9.743   5.653   1.600 -0.6550 -0.0127  0.7222
 2040SOL    HW214771   9.614   5.753   1.610 -0.7296 -0.2794  2.4449
 2041SOL     OW14772   2.563   9.603   1.936 -0.2468  0.2354 -0.3215
 2041SOL    HW114773   2.639   9.623   1.875 -0.8624  1.0200 -0.8278
 2041SOL    HW214774   2.477   9.611   1.887 -0.7653  1.1199  0.7077
 2042SOL     OW14775   3.117   8.678   1.751  0.1369 -0.0631  0.2185
 2042SOL    HW114776   3.212   8.668   1.778  0.9606  2.7747 -1.3723
 2042SOL    HW214777   3.105   8.646   1.657 -0.8078 -1.6982  0.8752
 2043SOL     OW14778   3.387   1.046   1.679  0.1197  0.0760  0.0293
 2043SOL    HW114779   3.465   1.110   1.684  0.8273 -0.8480  0.8268
 2043SOL    HW214780   3.309   1.093   1.638  1.6235  0.5124 -2.4687
 2044SOL     OW14781   9.557   4.536   1.658 -0.0373  0.2218  0.3276
 2044SOL    HW114782   9.519   4.626   1.634  0.2810  0.0318 -0.8650
 2044SOL    HW214783   9.611   4.545   1.742  0.9780  1.3983 -0.4258
 2047SOL     OW14784   2.554   5.501   1.529  0.0731  0.0375 -0.4352
 2047SOL    HW114785   2.600   5.534   1.447 -0.5939 -1.0255 -1.2611
 2047SOL    HW214786   2.459   5.533   1.528  0.2133  0.4888  0.2171
 2048SOL     OW14787   3.934   1.195   0.667 -0.0437  0.4629 -0.0378
 2048SOL    HW114788   4.032   1.189   0.651 -0.0459  1.0903 -0.3168
 2048SOL    HW214789   3.917   1.193   0.766  0.0828 -1.7889 -0.0451
 2050SOL     OW14790   3.817   0.013   0.848 -0.2659 -0.1716  0.4177
 2050SOL    HW114791   3.785   0.018   0.942 -0.3686  1.9178  0.2846
 2050SOL    HW214792   3.743   0.035   0.785  0.2084  0.0102 -0.0898
 2051SOL     OW14793   2.608   3.771   1.868  0.1950 -0.2503 -0.4356
 2051SOL    HW114794   2.682   3.749   1.933 -0.1642  1.0340  0.4441
 2051SOL    HW214795   2.545   3.694   1.861  0.5085 -0.5866  0.3737
 2052SOL     OW14796   2.735   8.616   0.379 -0.6437  0.0641 -0.0688
 2052SOL    HW114797   2.796   8.539   0.400  2.3273  2.0104 -1.1072
 2052SOL    HW214798   2.684   8.642   0.460 -1.4060 -2.7471  0.3938
 2053SOL     OW14799   3.612   0.286   0.422 -0.3961  0.6179  0.3803
 2053SOL    HW114800   3.560   0.204   0.399  0.8211  0.0865 -0.5255
 2053SOL    HW214801   3.601   0.306   0.519  0.2428 -1.2958  0.8662
 2054SOL     OW14802   3.430   5.662   0.756 -0.8000  0.5084 -0.3419
 2054SOL    HW114803   3.376   5.625   0.831  1.4533 -2.6245 -0.1576
 2054SOL    HW214804   3.388   5.636   0.669 -0.1236 -1.1482 -0.1916
 2057SOL     OW14805   3.225   2.282   1.727  0.0143 -0.2947 -0.5718
 2057SOL    HW114806   3.230   2.380   1.749 -0.0506 -0.1171 -1.3383
 2057SOL    HW214807   3.156   2.268   1.656  0.2207 -0.8668 -0.6534
 2062SOL     OW14808   3.838   2.572   2.191  0.3243 -0.3160  0.6044
 2062SOL    HW114809   3.909   2.537   2.252  0.7929 -0.9730 -0.3078
 2062SOL    HW214810   3.831   2.671   2.202  2.4798 -0.0113 -0.3860
 2065SOL     OW14811   3.180   8.908   0.720 -0.4320 -0.7671 -0.2323
 2065SOL    HW114812   3.259   8.850   0.741 -0.7117 -1.6192 -1.4674
 2065SOL    HW214813   3.133   8.931   0.804  1.3663  0.0967  0.5718
 2066SOL     OW14814   4.007   2.231   1.068  0.0391  0.3432 -0.1074
 2066SOL    HW114815   4.084   2.229   1.131 -0.7779 -0.0964  0.9082
 2066SOL    HW214816   3.926   2.195   1.114 -0.8243  1.0003 -1.0829
 2068SOL     OW14817   2.580   4.905   1.113  0.4844 -0.4288  0.3904
 2068SOL    HW114818   2.536   4.993   1.098 -0.2465 -0.6349  1.3372
 2068SOL    HW214819   2.526   4.833   1.069  1.4387 -0.3415 -0.9716
 2069SOL     OW14820   1.491   3.551   0.902 -0.4455 -0.2947  0.4653
 2069SOL    HW114821   1.435   3.543   0.984 -0.6169  1.6620  0.5786
 2069SOL    HW214822   1.588   3.538   0.926 -0.6408 -1.4456  0.6598
 2070SOL     OW14823   1.455   6.995   2.016 -0.2362  0.0287 -0.5123
 2070SOL    HW114824   1.534   6.967   1.961 -0.9527 -0.1458 -1.4764
 2070SOL    HW214825   1.486   7.045   2.097  0.9818 -1.9161  0.2675
 2071SOL     OW14826   0.478   4.207   1.572 -0.1251 -0.7952 -0.1063
 2071SOL    HW114827   0.546   4.171   1.635 -0.6910 -2.2986 -0.3459
 2071SOL    HW214828   0.418   4.271   1.620 -0.3143 -1.6357  0.7880
 2072SOL     OW14829   2.936   1.870   0.682 -0.1193  0.0914  0.2463
 2072SOL    HW114830   2.957   1.947   0.742 -0.4512 -0.0140  0.5006
 2072SOL    HW214831   2.923   1.904   0.589 -0.7292  0.4086  0.4428
 2073SOL     OW14832   1.324   4.831   0.393  0.3275 -0.4095 -0.2321
 2073SOL    HW114833   1.376   4.906   0.353  2.6962 -0.8322  1.9258
 2073SOL    HW214834   1.386   4.760   0.426 -1.5758 -1.0307  2.2535
 2075SOL     OW14835   0.558   4.261   1.325  0.2383 -0.3175 -0.7803
 2075SOL    HW114836   0.579   4.175   1.278  0.3251 -0.6634 -0.1118
 2075SOL    HW214837   0.527   4.241   1.418  1.3152  0.4363 -0.2580
 2076SOL     OW14838   9.899   5.359   2.209  0.4621 -0.1125 -0.3150
 2076SOL    HW114839   9.892   5.418   2.128 -1.1988  1.6179  1.0434
 2076SOL    HW214840   9.812   5.360   2.258  1.5304 -0.9355  1.6272
 2078SOL     OW14841   1.008   5.014   1.643 -0.2917 -0.0610  0.1460
 2078SOL    HW114842   1.009   5.114   1.651  2.1095  0.0388 -0.9872
 2078SOL    HW214843   1.098   4.978   1.667 -0.6336 -1.8266 -1.1598
 2079SOL     OW14844   3.865   0.661   1.357 -0.5736 -0.2693 -0.2337
 2079SOL    HW114845   3.818   0.608   1.286 -0.5029  1.7205 -1.7921
 2079SOL    HW214846   3.809   0.739   1.383  0.8846  0.9352 -0.5877
 2080SOL     OW14847   1.841   5.815   1.155  0.0545  0.0533 -0.0568
 2080SOL    HW114848   1.864   5.750   1.228 -1.2526  0.8013  1.0433
 2080SOL    HW214849   1.880   5.783   1.069  2.1524 -0.5209  1.0715
 2082SOL     OW14850   1.778   6.761   1.852  0.2853 -0.7267 -0.4782
 2082SOL    HW114851   1.827   6.678   1.824  2.2042  0.1842  0.0956
 2082SOL    HW214852   1.750   6.753   1.947 -0.8596 -1.3118 -0.8507
 2083SOL     OW14853   4.380   4.117   0.867  0.5619  0.2652  0.4296
 2083SOL    HW114854   4.299   4.060   0.871 -0.6029  2.0156  2.4997
 2083SOL    HW214855   4.445   4.090   0.938  1.0736 -0.0313 -0.1382
 2084SOL     OW14856   9.717   4.719   2.106  0.6876 -0.1185  0.1750
 2084SOL    HW114857   9.657   4.720   2.186  0.6825 -0.2633  0.1733
 2084SOL    HW214858   9.713   4.808   2.061  0.0802 -0.2980 -0.1208
 2086SOL     OW14859   2.960   3.017   2.150 -0.4949 -0.3506  0.2558
 2086SOL    HW114860   2.990   2.954   2.078 -1.5548  0.5733 -1.0132
 2086SOL    HW214861   2.871   3.057   2.125  0.2260  1.7697  0.9603
 2087SOL     OW14862   2.489   5.551   1.993 -0.6922 -0.3047  0.1490
 2087SOL    HW114863   2.430   5.504   2.059 -1.9778 -1.5341 -1.8244
 2087SOL    HW214864   2.433   5.589   1.919  0.8221  0.0869 -0.8239
 2088SOL     OW14865   1.156   5.555   1.067  0.6197 -0.2318  0.4647
 2088SOL    HW114866   1.163   5.584   0.972  2.2091 -1.3323  0.2164
 2088SOL    HW214867   1.073   5.500   1.080 -0.0248  0.6039 -0.0815
 2090SOL     OW14868   4.624   4.582   1.502  0.3029  0.7111 -0.1356
 2090SOL    HW114869   4.574   4.555   1.584  1.7426 -0.2164  0.4619
 2090SOL    HW214870   4.587   4.668   1.467  0.7576  2.0198  2.4753
 2091SOL     OW14871   2.780   4.055   0.849  0.6958  0.1057 -0.0003
 2091SOL    HW114872   2.789   4.152   0.871 -0.1058  0.1396  0.1848
 2091SOL    HW214873   2.718   4.043   0.771 -0.7776 -0.3830  1.2233
 2092SOL     OW14874   2.153   6.610   1.385 -0.0338 -0.2442  0.0005
 2092SOL    HW114875   2.250   6.631   1.398  0.1633 -0.6333 -0.7768
 2092SOL    HW214876   2.125   6.640   1.294 -0.3641 -1.1062 -0.1925
 2093SOL     OW14877   2.962   3.433   1.361  0.0543 -0.7708 -0.3596
 2093SOL    HW114878   3.045   3.379   1.364  0.0632 -0.7519 -0.2180
 2093SOL    HW214879   2.971   3.511   1.424 -1.0005 -2.1261  1.5024
 2094SOL     OW14880   1.314   4.447   0.843 -0.2278  0.2881  0.3628
 2094SOL    HW114881   1.392   4.480   0.896 -0.5051  1.5866 -0.0206
 2094SOL    HW214882   1.302   4.349   0.858  0.5944  0.3667  1.5504
 2095SOL     OW14883   3.946   0.632   0.414  0.6146  0.4742  0.4416
 2095SOL    HW114884   3.858   0.620   0.368  0.2106  2.0939  0.7787
 2095SOL    HW214885   3.987   0.718   0.385  1.3655  0.4697  1.4802
 2096SOL     OW14886   4.744   4.350   1.778 -0.1036  0.4571 -0.1796
 2096SOL    HW114887   4.809   4.378   1.848 -0.9458  0.5385  0.5860
 2096SOL    HW214888   4.772   4.387   1.689  1.2516 -0.0830  0.0134
 2097SOL     OW14889   2.304   4.978   0.852 -0.0640 -0.2218  0.2264
 2097SOL    HW114890   2.219   5.030   0.855  0.3527  0.5826 -1.3057
 2097SOL    HW214891   2.304   4.909   0.925 -2.5017 -0.9746 -0.4407
 2098SOL     OW14892   2.906   1.438   0.406  0.0008 -0.1555  0.4354
 2098SOL    HW114893   2.974   1.510   0.390 -0.0801 -0.2006 -0.1178
 2098SOL    HW214894   2.817   1.481   0.422 -0.3408 -0.1625 -1.3369
 2099SOL     OW14895   3.202   1.697   1.692  0.2253 -0.5237 -0.2348
 2099SOL    HW114896   3.241   1.773   1.744 -1.2230 -0.5819  0.9569
 2099SOL    HW214897   3.204   1.719   1.595  0.8980  0.5423  0.0103
 2101SOL     OW14898   2.715   1.531   1.200  0.6896  0.4301  0.1589
 2101SOL    HW114899   2.653   1.596   1.157  1.1585  1.0020  0.3406
 2101SOL    HW214900   2.668   1.484   1.275  0.1513  0.0883 -0.3962
 2102SOL     OW14901   2.149   6.947   2.133 -0.5963 -0.5153 -0.1836
 2102SOL    HW114902   2.109   6.869   2.181 -2.6684  0.6039 -0.0487
 2102SOL    HW214903   2.131   6.939   2.035 -1.7785  0.3303 -0.0468
 2103SOL     OW14904   2.727   3.301   1.367  0.4557  0.0707 -0.7154
 2103SOL    HW114905   2.799   3.370   1.367  0.5349 -0.0103 -0.2368
 2103SOL    HW214906   2.768   3.210   1.360  0.5846 -0.1502  2.3414
 2104SOL     OW14907   1.158   3.259   0.752  0.6306  0.1413 -0.8255
 2104SOL    HW114908   1.255   3.273   0.733  0.1928  3.0780 -1.1130
 2104SOL    HW214909   1.120   3.342   0.794 -1.9363 -0.6335 -1.5305
 2105SOL     OW14910   1.192   4.787   1.703 -0.2455 -0.2548 -0.2156
 2105SOL    HW114911   1.151   4.780   1.794 -0.3334  0.8790 -0.1627
 2105SOL    HW214912   1.263   4.717   1.694 -0.8878 -0.9952  0.3722
 2106SOL     OW14913   4.384   4.053   2.073 -0.2941 -0.6779 -0.3247
 2106SOL    HW114914   4.438   4.066   2.156 -0.3578  1.2069 -0.5570
 2106SOL    HW214915   4.426   4.104   1.998 -3.2642  2.2464 -0.1233
 2107SOL     OW14916   1.190   6.458   0.830 -0.7021 -0.2538 -0.6165
 2107SOL    HW114917   1.099   6.487   0.860 -0.7602  0.6276 -1.5886
 2107SOL    HW214918   1.256   6.529   0.851 -0.1540 -1.0889  0.4936
 2108SOL     OW14919   4.592   4.976   1.129  0.1499 -0.0341 -0.4609
 2108SOL    HW114920   4.556   4.896   1.177  2.6442  0.1638  1.8494
 2108SOL    HW214921   4.690   4.965   1.114 -0.0301  1.2413 -2.9567
 2109SOL     OW14922   4.696   4.376   0.935  0.0850  0.2872 -0.5760
 2109SOL    HW114923   4.785   4.378   0.980 -0.0703  0.6060 -0.2728
 2109SOL    HW214924   4.656   4.468   0.937  0.0654  0.3022 -1.3475
 2110SOL     OW14925   3.427   3.676   0.556  0.4508  0.1338  0.0712
 2110SOL    HW114926   3.498   3.737   0.590  0.8578 -1.3088  1.8950
 2110SOL    HW214927   3.352   3.671   0.622  0.3089 -1.1305 -0.1613
 2111SOL     OW14928   4.539   0.357   1.389 -0.4541  0.1660  0.4076
 2111SOL    HW114929   4.634   0.347   1.359  0.1297  0.6843  1.9765
 2111SOL    HW214930   4.505   0.447   1.363  0.4328  1.0615  2.2416
 2112SOL     OW14931   0.534   4.931   0.534 -0.2920  0.0480  0.4399
 2112SOL    HW114932   0.623   4.887   0.539 -0.4610 -0.2052  1.4293
 2112SOL    HW214933   0.546   5.030   0.530  0.0687 -0.0542 -1.0696
 2113SOL     OW14934   3.410   1.356   1.503 -0.4625 -0.1799  0.4311
 2113SOL    HW114935   3.319   1.318   1.519  0.0495 -0.8583  1.7303
 2113SOL    HW214936   3.416   1.388   1.408 -1.6218 -1.3149 -0.0374
 2114SOL     OW14937   4.027   0.197   2.122 -0.6924 -0.1969 -0.0689
 2114SOL    HW114938   4.115   0.160   2.154  0.1117 -0.0173 -1.9787
 2114SOL    HW214939   4.039   0.235   2.030 -2.7508 -0.0239 -0.2791
 2115SOL     OW14940   2.728   8.417   1.064 -0.0478  0.3300 -0.4312
 2115SOL    HW114941   2.671   8.395   0.985 -1.2084  1.0186  0.1929
 2115SOL    HW214942   2.669   8.443   1.141  0.9793 -2.0956  1.2234
 2116SOL     OW14943   2.752   2.954   1.713 -0.4850 -0.5873  0.1688
 2116SOL    HW114944   2.700   2.983   1.632 -0.5962 -0.8044  0.1615
 2116SOL    HW214945   2.841   2.920   1.685 -1.0243 -1.9017  0.0084
 2117SOL     OW14946   2.241   2.941   2.020 -0.0318 -0.1916  0.2220
 2117SOL    HW114947   2.187   2.875   1.967  0.5132 -1.2630  0.9828
 2117SOL    HW214948   2.337   2.913   2.019  0.6204  1.9578 -1.5139
 2119SOL     OW14949   2.834   3.897   1.056  0.3807 -0.2993  0.3411
 2119SOL    HW114950   2.820   3.953   0.974  0.3186 -3.2683 -1.7860
 2119SOL    HW214951   2.932   3.882   1.070  0.3663 -0.3125  0.4288
 2120SOL     OW14952   0.534   3.792   2.329  0.0903  0.5034  0.7107
 2120SOL    HW114953   0.468   3.867   2.337 -0.9584 -0.3726  0.3605
 2120SOL    HW214954   0.602   3.800   2.402  0.4372  2.2300  0.2153
 2121SOL     OW14955   2.165   3.538   0.675  0.4697 -0.7303 -0.1100
 2121SOL    HW114956   2.188   3.445   0.705 -2.1644 -0.9541  1.3184
 2121SOL    HW214957   2.095   3.534   0.604 -1.2360  0.2085  1.4821
 2122SOL     OW14958   2.941  -0.035   2.267 -0.7525  0.0837  0.1711
 2122SOL    HW114959   2.854  -0.047   2.219 -0.4368 -0.1837 -0.3458
 2122SOL    HW214960   2.979   0.055   2.245 -1.2305  0.4749  0.9432
 2123SOL     OW14961   4.738   1.542   1.085 -0.0704  0.4731  0.0663
 2123SOL    HW114962   4.700   1.511   1.172  0.7420  2.2221  1.0576
 2123SOL    HW214963   4.742   1.465   1.022  0.3917 -1.0910  1.9458
 2124SOL     OW14964   3.521   9.584   1.856 -0.5960  0.3803 -0.3372
 2124SOL    HW114965   3.568   9.591   1.944 -0.9180 -0.8379 -0.0571
 2124SOL    HW214966   3.425   9.610   1.867 -1.1443 -1.7528  0.1344
 2125SOL     OW14967   2.562   9.255   0.349 -0.8699 -0.0762  0.0567
 2125SOL    HW114968   2.562   9.289   0.255  0.6476  1.1019  0.4686
 2125SOL    HW214969   2.608   9.166   0.353  0.2996  0.5195 -0.0957
 2126SOL     OW14970   5.187   3.934   1.057 -0.0988 -0.1238 -0.2009
 2126SOL    HW114971   5.223   4.004   0.996  0.1373 -1.0045 -1.0929
 2126SOL    HW214972   5.261   3.897   1.113  0.2609 -1.3269 -1.4262
 2128SOL     OW14973   2.962   0.483   1.494 -0.0908 -0.2719  0.0053
 2128SOL    HW114974   2.994   0.450   1.405  1.5222 -1.3712  0.9838
 2128SOL    HW214975   3.017   0.562   1.521 -1.4255  0.8682 -0.5482
 2130SOL     OW14976   2.917   8.444   1.759 -0.5804 -0.1850  0.0247
 2130SOL    HW114977   2.905   8.543   1.752  1.2852  0.0770  0.5054
 2130SOL    HW214978   2.916   8.417   1.855  0.4493 -0.4299 -0.0279
 2131SOL     OW14979   2.686   9.366   1.555  0.0686 -0.4382 -0.2739
 2131SOL    HW114980   2.733   9.370   1.643 -1.0689  2.2299  0.2874
 2131SOL    HW214981   2.591   9.394   1.567 -0.6743 -2.0944 -2.0136
 2132SOL     OW14982   2.840   6.416   0.465 -0.1338 -0.5139 -0.1659
 2132SOL    HW114983   2.891   6.478   0.404  0.5254 -0.0049  0.8782
 2132SOL    HW214984   2.902   6.381   0.535 -1.0320 -0.5657  0.6092
 2133SOL     OW14985   9.436   5.333   0.697 -0.0092  0.2845  0.6437
 2133SOL    HW114986   9.517   5.328   0.638  0.5352  1.0126  1.3186
 2133SOL    HW214987   9.378   5.410   0.667 -0.6465 -0.4606 -0.0702
 2134SOL     OW14988   1.797   7.121   0.993  0.6554  0.0406 -0.5619
 2134SOL    HW114989   1.856   7.041   1.000 -1.0100 -1.3400 -1.6124
 2134SOL    HW214990   1.775   7.155   1.084  0.2323 -1.6094 -0.0242
 2136SOL     OW14991   1.056   4.000   1.148  0.4468  0.4217 -0.6473
 2136SOL    HW114992   1.095   3.948   1.073 -1.2543 -1.4220 -0.2905
 2136SOL    HW214993   1.030   4.091   1.115  2.5867  0.7422 -1.4986
 2137SOL     OW14994   3.606   2.126   1.327 -0.5552  0.0260  0.1055
 2137SOL    HW114995   3.540   2.184   1.374  1.8590  1.3456  1.9800
 2137SOL    HW214996   3.601   2.033   1.363 -1.0862  0.2198  0.5344
 2138SOL     OW14997   5.160   2.629   0.601  0.5859  0.3145 -0.4639
 2138SOL    HW114998   5.197   2.565   0.668  1.2029  0.4414 -0.6811
 2138SOL    HW214999   5.130   2.580   0.520 -1.5523 -0.0135  0.4944
 2139SOL     OW15000   0.847   6.038   1.412  0.1850 -0.8044  0.0355
 2139SOL    HW115001   0.749   6.055   1.400  0.3983  0.3382 -0.1253
 2139SOL    HW215002   0.860   5.955   1.467 -0.8693 -0.6191  0.5725
 2140SOL     OW15003   3.615   9.048   1.233 -0.0514  0.2455 -0.2555
 2140SOL    HW115004   3.553   9.000   1.171 -0.5842 -1.5477  1.5911
 2140SOL    HW215005   3.561   9.103   1.297  0.3407 -0.2312  0.4800
 2141SOL     OW15006   5.653   3.131   1.696  0.2340 -0.1413  0.3456
 2141SOL    HW115007   5.637   3.229   1.708 -0.4562 -0.1220 -0.7552
 2141SOL    HW215008   5.690   3.114   1.605 -1.1670 -1.0674 -0.0681
 2142SOL     OW15009   4.569   4.253   0.702  0.2357  0.1118 -0.4863
 2142SOL    HW115010   4.586   4.289   0.793 -0.9014 -0.7875  0.1032
 2142SOL    HW215011   4.511   4.171   0.709  0.3372 -0.1066 -1.9909
 2143SOL     OW15012   3.070   6.160   2.040 -0.4657  0.3891  0.8732
 2143SOL    HW115013   3.152   6.119   2.000 -1.6979 -2.5076  1.2214
 2143SOL    HW215014   3.076   6.156   2.140 -0.6007  1.0987  0.9135
 2144SOL     OW15015   2.218   4.896   1.677 -0.1342 -0.0633  0.5580
 2144SOL    HW115016   2.126   4.908   1.714 -0.2460 -2.5689  1.1518
 2144SOL    HW215017   2.217   4.913   1.578 -1.1761  0.2038  0.6068
 2145SOL     OW15018   2.401   6.686   1.190 -0.0294 -0.4961  0.0987
 2145SOL    HW115019   2.390   6.741   1.108  2.0278 -0.9443 -0.5010
 2145SOL    HW215020   2.461   6.608   1.171 -0.6074 -1.3635  1.6740
 2146SOL     OW15021   2.394   4.518   1.220  0.2939 -0.0589 -0.0287
 2146SOL    HW115022   2.390   4.505   1.121  0.5126  1.5414 -0.2601
 2146SOL    HW215023   2.385   4.430   1.265  1.4937 -0.9758 -1.5093
 2147SOL     OW15024   3.911   8.261   2.306 -0.6545  0.0349  0.4356
 2147SOL    HW115025   3.992   8.202   2.298  0.2754  1.4141 -0.5943
 2147SOL    HW215026   3.829   8.208   2.287  0.2007 -0.8567 -0.8550
 2149SOL     OW15027   1.038   6.003   0.837 -0.1627  0.3374  0.2418
 2149SOL    HW115028   1.099   6.075   0.871  0.0325 -0.4352  1.5614
 2149SOL    HW215029   1.044   5.923   0.897 -1.0538 -0.4491 -0.6997
 2150SOL     OW15030   4.705   2.189   1.426  0.2852 -0.1915  0.1734
 2150SOL    HW115031   4.648   2.121   1.473 -1.6550  0.4885 -1.1367
 2150SOL    HW215032   4.669   2.205   1.334  2.8457 -0.0156 -0.8474
 2151SOL     OW15033   5.096   1.569   0.818 -0.2672 -0.5280 -0.2348
 2151SOL    HW115034   5.028   1.605   0.882 -0.1379 -0.3812 -0.1801
 2151SOL    HW215035   5.055   1.496   0.763 -0.2434 -0.9963  0.3567
 2152SOL     OW15036   1.844   2.828   0.849  0.0002 -0.0474 -0.5381
 2152SOL    HW115037   1.796   2.743   0.828 -1.1708  1.0044 -2.2459
 2152SOL    HW215038   1.943   2.812   0.848 -0.1763 -1.1844 -1.8737
 2154SOL     OW15039   0.517   6.120   1.979  0.1342 -0.0672  0.1417
 2154SOL    HW115040   0.480   6.195   1.925  0.6731  0.8208  0.9899
 2154SOL    HW215041   0.450   6.093   2.048 -0.0029 -0.2690 -0.0705
 2156SOL     OW15042   3.340   8.399   1.970  0.3696 -0.6174 -0.1924
 2156SOL    HW115043   3.359   8.395   2.068  1.3617  0.1509 -0.3481
 2156SOL    HW215044   3.344   8.494   1.939  1.6710 -1.0212 -1.3009
 2157SOL     OW15045   4.371   1.629   1.657 -0.4935  0.4074  0.3099
 2157SOL    HW115046   4.276   1.604   1.636 -0.5410 -0.1084  1.1069
 2157SOL    HW215047   4.374   1.675   1.745 -0.0176  0.5493  0.2188
 2158SOL     OW15048   2.722   8.696   1.360 -0.5227  0.0778  0.0027
 2158SOL    HW115049   2.719   8.611   1.412 -2.1097  0.2955  0.2735
 2158SOL    HW215050   2.756   8.677   1.268  0.6984 -0.5689  0.5627
 2159SOL     OW15051   3.563   2.091   1.058  0.0246 -0.0551 -0.1492
 2159SOL    HW115052   3.563   2.106   1.157  1.1346  1.0861 -0.3115
 2159SOL    HW215053   3.532   1.998   1.038  1.4293 -0.8679  1.3719
 2160SOL     OW15054   9.694   4.270   0.602 -0.3650  0.1090  0.1455
 2160SOL    HW115055   9.604   4.230   0.618 -0.9730  2.0194  1.8313
 2160SOL    HW215056   9.687   4.336   0.527 -0.1732 -0.3698 -0.2926
 2161SOL     OW15057   2.141   9.231   1.980 -0.6561 -0.5252  0.1264
 2161SOL    HW115058   2.139   9.203   1.884 -1.0320 -0.2765  0.0596
 2161SOL    HW215059   2.207   9.175   2.030 -1.0182 -1.1785 -0.1161
 2162SOL     OW15060   0.315   5.468   1.293  0.2974  0.0969  0.2098
 2162SOL    HW115061   0.218   5.456   1.271  0.1752  2.3106 -0.6840
 2162SOL    HW215062   0.331   5.445   1.389 -0.8297 -1.6747 -0.0225
 2163SOL     OW15063   1.959   6.249   2.195 -0.3310  0.4411 -0.1886
 2163SOL    HW115064   1.959   6.321   2.127  1.6824 -0.4541 -1.1760
 2163SOL    HW215065   1.887   6.183   2.174 -0.0319  0.4240 -1.1913
 2166SOL     OW15066   2.970   3.472   1.816  0.0782 -0.6043  0.0889
 2166SOL    HW115067   3.015   3.498   1.902 -0.5125 -0.0917  0.2463
 2166SOL    HW215068   2.895   3.409   1.836  0.7295 -1.4729 -0.1756
 2167SOL     OW15069   1.678   6.333   1.638 -0.4753 -0.1456  0.5732
 2167SOL    HW115070   1.666   6.244   1.596 -0.7096 -1.0059  2.4003
 2167SOL    HW215071   1.689   6.403   1.567 -0.8590 -1.5348 -0.8752
 2168SOL     OW15072   1.344   6.571   2.050 -0.1932 -0.1256 -0.3915
 2168SOL    HW115073   1.350   6.483   2.097  0.2332  0.2524  0.2637
 2168SOL    HW215074   1.298   6.558   1.962 -1.2280 -0.7940  0.2282
 2169SOL     OW15075   3.961   5.198   0.767  0.5201 -0.3787  0.3112
 2169SOL    HW115076   3.913   5.286   0.770 -0.4555 -0.9031  0.4546
 2169SOL    HW215077   3.907   5.133   0.714  1.6747 -0.6366 -0.5639
 2170SOL     OW15078   2.503   1.757   1.776  0.4298 -0.3201 -0.4919
 2170SOL    HW115079   2.490   1.657   1.772  0.5859 -0.3402 -0.5008
 2170SOL    HW215080   2.554   1.787   1.696  1.2519 -0.3656  0.0132
 2171SOL     OW15081   9.195   5.292   1.015 -0.0482 -0.1456 -0.4617
 2171SOL    HW115082   9.162   5.342   0.935 -4.3600 -1.3330  0.4864
 2171SOL    HW215083   9.163   5.198   1.012  2.1235 -1.0071  1.3088
 2172SOL     OW15084   1.315   5.714   0.678 -0.0747 -0.1721 -0.2578
 2172SOL    HW115085   1.310   5.702   0.579  1.0238 -0.8583 -0.2352
 2172SOL    HW215086   1.337   5.810   0.699 -2.7436  0.5467 -0.5970
 2173SOL     OW15087   4.020   9.846   1.270  0.9251  0.5957  0.4280
 2173SOL    HW115088   4.096   9.877   1.214  1.0332 -0.0454  0.2209
 2173SOL    HW215089   4.055   9.804   1.354  0.8108 -0.1350  0.1084
 2175SOL     OW15090   3.652   4.286   0.496 -0.5883 -0.3161  0.7798
 2175SOL    HW115091   3.705   4.203   0.509 -1.1689 -0.7448  0.4607
 2175SOL    HW215092   3.706   4.366   0.521  0.6883 -0.6484 -0.8335
 2176SOL     OW15093  10.010   4.740   1.440  0.0691 -0.3142 -0.2338
 2176SOL    HW115094  10.085   4.796   1.404 -0.0379  0.3143  0.5174
 2176SOL    HW215095   9.970   4.687   1.365  3.6795 -3.5040 -0.0585
 2177SOL     OW15096   1.568   3.331   1.630 -0.2064  0.0737 -0.3005
 2177SOL    HW115097   1.507   3.403   1.661 -0.4676 -0.3897  0.2754
 2177SOL    HW215098   1.517   3.245   1.620 -0.2150  0.2900 -2.3787
 2178SOL     OW15099   1.581   3.810   0.847 -0.5898  0.0799 -0.6682
 2178SOL    HW115100   1.669   3.802   0.800  1.0181  0.4392  2.1747
 2178SOL    HW215101   1.537   3.720   0.850  0.6984 -0.5499 -0.2367
 2180SOL     OW15102   1.960   6.550   1.827 -0.8466 -0.0880  0.5255
 2180SOL    HW115103   1.975   6.603   1.743 -2.3620  1.5929  1.2829
 2180SOL    HW215104   1.960   6.453   1.805 -0.2470  0.2890 -1.2595
 2181SOL     OW15105   1.756   5.494   0.818 -0.3994 -0.9344 -0.0308
 2181SOL    HW115106   1.710   5.575   0.854 -0.1810 -0.6377 -0.4222
 2181SOL    HW215107   1.775   5.507   0.720  0.5905 -1.0260  0.1496
 2183SOL     OW15108   3.512   4.971   0.802  0.1442  0.3939 -0.4143
 2183SOL    HW115109   3.531   5.045   0.866  0.5299 -0.4476  0.4565
 2183SOL    HW215110   3.532   4.883   0.845 -1.7854 -0.3146 -0.8999
 2184SOL     OW15111   3.989   0.952   0.961  0.1970 -0.4950  0.2776
 2184SOL    HW115112   4.062   0.927   0.898 -1.1342 -0.3591 -1.3614
 2184SOL    HW215113   3.985   1.051   0.970 -0.4267 -0.4515 -0.4325
 2185SOL     OW15114   1.549   4.320   2.155  0.5657  0.1580  0.1660
 2185SOL    HW115115   1.637   4.289   2.192  0.3545 -1.0348 -0.3422
 2185SOL    HW215116   1.515   4.254   2.089  0.5247  1.8570 -1.5515
 2186SOL     OW15117   2.535   3.044   1.241  0.4074 -0.2421  0.3915
 2186SOL    HW115118   2.470   3.105   1.196 -0.7049 -1.5088  0.2482
 2186SOL    HW215119   2.534   2.954   1.196  0.8585 -0.8517  1.5702
 2188SOL     OW15120   2.655   0.467   2.137 -0.5618  0.0077 -0.4826
 2188SOL    HW115121   2.705   0.437   2.056 -0.6787 -1.1455 -0.1374
 2188SOL    HW215122   2.667   0.400   2.211 -1.2392  0.5591  0.1371
 2190SOL     OW15123   1.278   3.254   2.370 -0.1816  0.0781 -0.3639
 2190SOL    HW115124   1.256   3.269   2.466 -1.1626 -1.2001 -0.3646
 2190SOL    HW215125   1.197   3.275   2.314 -0.2072 -0.9950 -0.7336
 2191SOL     OW15126   3.326   8.143   0.782  0.1287  0.2028  0.1256
 2191SOL    HW115127   3.382   8.105   0.708  0.9996  2.1907 -0.2653
 2191SOL    HW215128   3.363   8.113   0.870 -0.7935 -2.0128 -0.1928
 2193SOL     OW15129   3.629   9.594   0.817 -0.5039 -0.1914  0.1648
 2193SOL    HW115130   3.557   9.639   0.765  0.5260  2.3090  0.8586
 2193SOL    HW215131   3.705   9.571   0.757 -1.4897 -2.1499 -0.4151
 2194SOL     OW15132   3.181   0.710   0.561  0.3153  1.0473 -0.6002
 2194SOL    HW115133   3.189   0.806   0.586  1.5573  0.8868 -0.3509
 2194SOL    HW215134   3.270   0.666   0.569 -0.4713 -0.4120  0.4671
 2195SOL     OW15135   0.593   5.677   0.981  0.6796  0.1698 -0.2166
 2195SOL    HW115136   0.588   5.579   0.962 -1.3613  0.2482 -0.1467
 2195SOL    HW215137   0.593   5.727   0.894 -1.6685  0.2328 -0.2050
 2196SOL     OW15138   2.689   4.498   1.967  0.5639 -0.2640 -0.0167
 2196SOL    HW115139   2.726   4.560   2.036  1.7460 -1.6233  0.5772
 2196SOL    HW215140   2.724   4.524   1.876  0.5436  0.3149  0.1371
 2197SOL     OW15141   1.589   5.419   1.160  0.0555 -0.2324  0.0909
 2197SOL    HW115142   1.589   5.421   1.060 -0.2025 -0.6987  0.0799
 2197SOL    HW215143   1.495   5.430   1.193  0.1105 -0.3122  0.2755
 2199SOL     OW15144   2.300   3.877   1.915  0.0646  0.0776 -0.0945
 2199SOL    HW115145   2.268   3.796   1.865  1.7812 -0.9832  0.4846
 2199SOL    HW215146   2.295   3.957   1.856  0.3335 -0.8301 -1.3702
 2200SOL     OW15147   1.560   4.439   1.902 -0.0027 -0.1140 -0.0683
 2200SOL    HW115148   1.628   4.386   1.853  1.9027  1.6212  0.6184
 2200SOL    HW215149   1.540   4.396   1.989  0.6053 -0.3558 -0.0473
 2201SOL     OW15150   3.299   2.693   2.235  0.1902 -0.0825  0.2194
 2201SOL    HW115151   3.223   2.737   2.187  0.1815  0.6713  0.9164
 2201SOL    HW215152   3.263   2.643   2.315  0.2544 -0.9761 -0.2983
 2202SOL     OW15153   2.603  -0.049   1.410  0.0630 -0.3010  0.6280
 2202SOL    HW115154   2.555  -0.014   1.330  2.3564  0.0996 -0.6227
 2202SOL    HW215155   2.539  -0.097   1.469 -1.7457 -0.2881 -1.2650
 2205SOL     OW15156   1.207   5.749   2.286  0.0932  0.1940  0.1862
 2205SOL    HW115157   1.225   5.842   2.254  1.4746 -0.1353 -0.0208
 2205SOL    HW215158   1.256   5.733   2.371  1.4337 -0.9562 -0.7729
 2206SOL     OW15159   1.542   3.676   1.758  0.1822  0.2067 -0.4691
 2206SOL    HW115160   1.466   3.651   1.699 -1.8523  0.1112  2.1175
 2206SOL    HW215161   1.515   3.753   1.817  1.2930 -1.2710  2.0522
 2207SOL     OW15162   2.148   4.111   1.759  0.8298  0.7110  0.1431
 2207SOL    HW115163   2.100   4.054   1.826  0.6490  0.2918 -0.3445
 2207SOL    HW215164   2.145   4.207   1.789 -0.7491  0.7623 -0.1499
 2208SOL     OW15165   3.147   1.970   1.192 -0.0636 -0.1427  0.1620
 2208SOL    HW115166   3.186   1.985   1.101  0.2466  1.2918  0.5075
 2208SOL    HW215167   3.047   1.978   1.187 -0.0201  0.3293  0.0141
 2209SOL     OW15168   4.249   2.428   0.442  0.2824 -0.2981  0.8572
 2209SOL    HW115169   4.342   2.433   0.406  0.2370  0.9322  0.8937
 2209SOL    HW215170   4.253   2.407   0.540  0.5433  0.2005  0.9570
 2210SOL     OW15171   2.550   7.247   1.428 -0.4462  0.3494 -0.3604
 2210SOL    HW115172   2.511   7.174   1.372 -0.6950 -0.4644  0.8672
 2210SOL    HW215173   2.619   7.209   1.490  2.3322  1.7491 -2.4468
 2211SOL     OW15174   3.734   5.101   0.663  0.8106  0.2652  0.0616
 2211SOL    HW115175   3.707   5.186   0.617  0.0653 -1.0768 -2.0742
 2211SOL    HW215176   3.658   5.068   0.719  1.4275  1.4711  1.6428
 2212SOL     OW15177   3.117   9.067   2.316 -0.2385 -0.2681  0.3413
 2212SOL    HW115178   3.073   9.129   2.250 -1.7439 -0.5787  1.0218
 2212SOL    HW215179   3.115   9.109   2.407  0.4037 -0.5307  0.4767
 2213SOL     OW15180   3.333   7.005   0.401  0.3233  0.6076 -0.4949
 2213SOL    HW115181   3.236   6.999   0.381  0.5559  0.3294 -1.5827
 2213SOL    HW215182   3.369   7.093   0.370  0.5012  0.5502 -0.4573
 2214SOL     OW15183   2.140   6.699   0.530  0.1105  0.0091 -0.2352
 2214SOL    HW115184   2.222   6.663   0.486 -0.7052 -2.1130 -0.0807
 2214SOL    HW215185   2.074   6.727   0.460  0.8358  1.4556 -0.3564
 2215SOL     OW15186   0.905   4.538   1.929  0.5582 -0.4217 -0.5138
 2215SOL    HW115187   1.001   4.563   1.915  0.3333 -0.5364 -2.4545
 2215SOL    HW215188   0.848   4.594   1.869 -0.8009  1.2345  2.2801
 2217SOL     OW15189   4.528   0.228   2.291 -0.0707  0.2251 -0.1957
 2217SOL    HW115190   4.599   0.162   2.270  1.2326  1.3404  0.6555
 2217SOL    HW215191   4.495   0.269   2.206  0.5819 -0.0007 -0.5578
 2218SOL     OW15192   3.752   3.871   0.959  0.4250 -0.8322 -0.3910
 2218SOL    HW115193   3.829   3.902   1.015  0.8286 -0.0072 -1.3662
 2218SOL    HW215194   3.768   3.776   0.930  0.8237 -0.8429 -0.1439
 2219SOL     OW15195   2.978   7.587   1.106  0.4560 -0.3215  0.0005
 2219SOL    HW115196   2.899   7.620   1.054 -0.3982 -0.4872  1.1833
 2219SOL    HW215197   2.947   7.527   1.180  1.7730 -1.3588 -0.2542
 2220SOL     OW15198   3.479   5.395   1.201 -0.3039 -1.1446 -0.1109
 2220SOL    HW115199   3.495   5.322   1.267  0.1866  0.5845  1.7399
 2220SOL    HW215200   3.566   5.436   1.175 -0.5738 -1.2141 -1.1412
 2221SOL     OW15201   4.391   4.206   1.522  0.9535 -0.1602 -0.3335
 2221SOL    HW115202   4.418   4.255   1.439 -2.8806  0.8263 -1.0604
 2221SOL    HW215203   4.306   4.157   1.506  0.2104 -0.0681  3.0030
 2222SOL     OW15204   3.453   4.533   0.701 -0.1333  0.1194  0.3363
 2222SOL    HW115205   3.382   4.593   0.739 -0.1774 -0.1761  0.7233
 2222SOL    HW215206   3.418   4.488   0.619 -0.3121  0.1581  0.3908
 2223SOL     OW15207   3.382   3.250   1.732 -0.1492  0.1257  0.4105
 2223SOL    HW115208   3.311   3.278   1.668  1.3939  2.0177 -0.5534
 2223SOL    HW215209   3.348   3.257   1.826 -0.6999  2.6613  0.0519
 2225SOL     OW15210   1.607   5.755   2.270 -0.3630  0.2749  0.1741
 2225SOL    HW115211   1.550   5.834   2.290  0.2595  0.8643 -0.3460
 2225SOL    HW215212   1.701   5.773   2.300 -0.9432 -1.7220  3.5621
 2226SOL     OW15213   1.988   4.816   0.804 -0.0994 -0.5835  0.3861
 2226SOL    HW115214   2.016   4.882   0.734  1.5156  0.6529  2.1466
 2226SOL    HW215215   2.021   4.725   0.779  3.5568  0.4431  1.1988
 2227SOL     OW15216   1.113   5.138   0.479  0.5957 -0.2424 -0.4104
 2227SOL    HW115217   1.158   5.130   0.568  0.7046 -2.6155 -0.6513
 2227SOL    HW215218   1.151   5.216   0.430  0.5243  1.1189  1.6047
 2229SOL     OW15219   0.213   4.194   0.892 -0.0520  0.4915 -0.4418
 2229SOL    HW115220   0.173   4.264   0.832 -0.4013 -1.0601 -2.0366
 2229SOL    HW215221   0.265   4.129   0.837  0.6128 -0.2856  1.0898
 2230SOL     OW15222   1.249   3.819   1.749  0.0806 -0.1829 -0.0971
 2230SOL    HW115223   1.188   3.822   1.828  1.7475 -1.1246  1.2696
 2230SOL    HW215224   1.207   3.766   1.676 -1.1135 -0.0369  0.4747
 2232SOL     OW15225   1.826   7.245   0.692  0.1063  0.4795  0.3971
 2232SOL    HW115226   1.836   7.266   0.789 -0.4488 -0.1505  0.5945
 2232SOL    HW215227   1.795   7.327   0.644  2.6723  1.4551  0.3454
 2233SOL     OW15228   3.820   0.198   1.404 -0.0535  0.3087 -0.5738
 2233SOL    HW115229   3.792   0.282   1.450 -1.5304 -0.5600  0.1850
 2233SOL    HW215230   3.739   0.147   1.375  0.8278 -0.4791 -1.7229
 2234SOL     OW15231   2.653   3.565   0.606 -0.0070  0.0246  0.1630
 2234SOL    HW115232   2.749   3.553   0.582  0.2751  3.3003 -0.5044
 2234SOL    HW215233   2.646   3.597   0.701 -0.4736 -0.4728  0.3027
 2236SOL     OW15234   1.491   4.178   1.514  0.3573 -0.2721 -0.5532
 2236SOL    HW115235   1.406   4.135   1.544  0.0611 -0.5387 -1.7346
 2236SOL    HW215236   1.469   4.260   1.461  0.8552  0.0072 -0.3239
 2237SOL     OW15237   2.531   3.481   2.082  0.1980  0.2896 -0.4699
 2237SOL    HW115238   2.554   3.402   2.138 -0.3403  0.2895 -0.2398
 2237SOL    HW215239   2.465   3.538   2.132  0.5428  0.8530 -0.6546
 2238SOL     OW15240   2.095   7.478   0.431 -0.1869  0.0050  0.0068
 2238SOL    HW115241   2.187   7.509   0.455  0.6993 -1.7762 -0.9630
 2238SOL    HW215242   2.074   7.505   0.338  1.4147 -3.8807 -1.6051
 2239SOL     OW15243   3.546   1.646   1.225  0.3197 -0.2343  0.2945
 2239SOL    HW115244   3.638   1.620   1.256  0.2481  1.4926  2.0254
 2239SOL    HW215245   3.483   1.570   1.240  0.9616 -0.5584  1.4482
 2240SOL     OW15246   4.092   9.399   1.074  0.2635 -0.1120  0.2924
 2240SOL    HW115247   4.156   9.402   0.997  0.1599  0.2339  0.2200
 2240SOL    HW215248   4.035   9.481   1.073 -0.7979 -0.8480 -0.1671
 2241SOL     OW15249   2.689   5.255   1.333  0.0725 -0.2699 -0.2554
 2241SOL    HW115250   2.678   5.353   1.321  0.4864 -0.1667  0.1798
 2241SOL    HW215251   2.785   5.235   1.354  0.6751 -1.0918 -3.5025
 2242SOL     OW15252   3.705   5.204   2.067  0.2488 -0.7107 -0.1245
 2242SOL    HW115253   3.755   5.151   2.136  0.8006  2.0127  1.6686
 2242SOL    HW215254   3.749   5.192   1.978  4.2877  1.6167  1.3836
 2243SOL     OW15255   1.988   5.638   1.983  0.1953  0.8978 -0.0140
 2243SOL    HW115256   1.921   5.674   1.918  1.1236  0.1705 -1.3955
 2243SOL    HW215257   2.017   5.547   1.954  1.6775  1.1520  0.6243
 2244SOL     OW15258   2.276   6.921   0.655 -0.5586 -0.7454  0.2822
 2244SOL    HW115259   2.226   7.002   0.623  1.4809 -0.1333 -1.5280
 2244SOL    HW215260   2.229   6.839   0.623 -1.4038 -0.2241  0.1628
 2245SOL     OW15261   3.721   1.911   2.002 -0.9054  0.2281 -0.0143
 2245SOL    HW115262   3.678   1.965   2.074  0.2972  1.2689 -0.0543
 2245SOL    HW215263   3.807   1.873   2.035 -0.1960  0.9709 -0.9911
 2246SOL     OW15264   3.169   8.429   2.248  0.6664 -0.5571 -0.1484
 2246SOL    HW115265   3.238   8.412   2.317  0.7775 -1.3001 -0.4350
 2246SOL    HW215266   3.208   8.484   2.174  0.5692  0.1666  0.3304
 2247SOL     OW15267   4.007   4.431   0.700 -0.5295 -0.3791 -0.3266
 2247SOL    HW115268   3.926   4.478   0.666 -0.6462 -0.0872  0.3304
 2247SOL    HW215269   3.982   4.339   0.732 -0.2586 -0.9885 -1.8263
 2248SOL     OW15270   4.028   8.718   1.831 -0.0887  0.0108 -0.4672
 2248SOL    HW115271   4.047   8.801   1.777 -1.6363  1.2336  0.8183
 2248SOL    HW215272   4.114   8.677   1.859  0.7227  2.4248  0.7250
 2249SOL     OW15273   4.449   2.897   0.951  0.6659 -0.4937 -0.1005
 2249SOL    HW115274   4.438   2.818   1.012 -0.0757  0.6967  1.3173
 2249SOL    HW215275   4.410   2.875   0.861 -0.8798 -1.2165  0.7280
 2250SOL     OW15276   2.164   7.207   0.616 -0.1247 -0.4757 -0.1570
 2250SOL    HW115277   2.170   7.213   0.516 -0.0977  1.1412 -0.0590
 2250SOL    HW215278   2.068   7.216   0.644  0.0119  0.3061  0.0511
 2251SOL     OW15279   2.932   8.389   0.417  0.1869  0.6352 -0.4077
 2251SOL    HW115280   3.008   8.385   0.352  1.2779  0.7025  0.8604
 2251SOL    HW215281   2.967   8.397   0.510 -1.3832  1.1560  0.1569
 2252SOL     OW15282   1.869   6.505   0.979 -0.1502  0.3582 -0.2456
 2252SOL    HW115283   1.888   6.407   0.990  0.0258  0.4223  0.0299
 2252SOL    HW215284   1.955   6.555   0.972 -0.2374  0.1408 -3.7767
 2255SOL     OW15285   3.516   1.857   1.407  0.8528 -0.5878 -0.2285
 2255SOL    HW115286   3.534   1.786   1.339 -0.4939 -0.7190 -0.4568
 2255SOL    HW215287   3.535   1.822   1.499  0.4228 -1.1719 -0.3606
 2256SOL     OW15288   3.211   2.630   0.733 -0.6410 -0.1865  0.2353
 2256SOL    HW115289   3.294   2.679   0.705 -0.7527 -0.3342 -0.3707
 2256SOL    HW215290   3.232   2.534   0.748 -1.1806 -0.7404 -2.3355
 2258SOL     OW15291   0.923   5.675   1.947 -0.0352 -0.0543 -0.7933
 2258SOL    HW115292   1.013   5.642   1.976 -0.2201 -0.2501 -0.4287
 2258SOL    HW215293   0.924   5.774   1.939  0.2546 -0.0690 -0.9293
 2259SOL     OW15294   2.466   2.407   2.083  0.6981  0.0502 -0.0127
 2259SOL    HW115295   2.374   2.388   2.051  0.8140  2.8206 -2.2217
 2259SOL    HW215296   2.532   2.355   2.029  0.6388  1.5703 -1.6187
 2260SOL     OW15297   3.020   7.765   2.014 -0.5672 -0.4512 -0.4086
 2260SOL    HW115298   2.956   7.740   1.943 -2.0053 -1.4933  1.2227
 2260SOL    HW215299   3.084   7.690   2.030  0.3373  0.1315 -1.2083
 2261SOL     OW15300   1.604   3.321   1.145  0.4051 -0.1940 -0.3549
 2261SOL    HW115301   1.573   3.391   1.209 -2.5142 -0.6359 -1.2215
 2261SOL    HW215302   1.654   3.365   1.070 -0.0767  0.7916 -0.1086
 2262SOL     OW15303   4.879   2.050   0.364  0.0486  0.4237  0.7909
 2262SOL    HW115304   4.849   1.982   0.297  0.3131 -0.2103  1.3130
 2262SOL    HW215305   4.843   2.026   0.454 -2.6365  2.7808  0.4219
 2263SOL     OW15306   3.601   4.564   0.971 -0.1715 -0.3058 -0.2826
 2263SOL    HW115307   3.665   4.492   0.998  2.8301  1.7614 -1.5739
 2263SOL    HW215308   3.568   4.546   0.879 -0.6475 -0.8530 -0.0047
 2264SOL     OW15309   4.507   0.393   1.799 -0.1072 -0.2270  0.4252
 2264SOL    HW115310   4.553   0.470   1.754  0.7901 -0.0226  1.6537
 2264SOL    HW215311   4.506   0.314   1.737  0.2965  0.3192 -0.2892
 2265SOL     OW15312   2.826   5.847   0.908  0.4099  0.0030 -0.1490
 2265SOL    HW115313   2.760   5.854   0.983 -0.7208  0.4598 -1.1715
 2265SOL    HW215314   2.905   5.905   0.928  0.2226 -0.0509  0.7921
 2269SOL     OW15315   2.797   0.576   0.622 -0.0825 -0.0159 -0.0580
 2269SOL    HW115316   2.766   0.482   0.606  0.8059 -0.1967 -0.7595
 2269SOL    HW215317   2.796   0.627   0.536  0.8297  0.1817  0.0339
 2270SOL     OW15318   3.350   8.432   0.714 -0.5519  0.0226  0.0137
 2270SOL    HW115319   3.433   8.457   0.664  1.2022  0.6558  3.0701
 2270SOL    HW215320   3.344   8.332   0.720 -0.8381 -0.0648 -1.4791
 2271SOL     OW15321   3.349   8.284   1.543 -0.1458 -1.0215  0.6660
 2271SOL    HW115322   3.268   8.290   1.602 -0.6896 -1.1642 -0.0666
 2271SOL    HW215323   3.408   8.211   1.575  0.4238  0.0368  2.1043
 2272SOL     OW15324   0.568   4.957   1.791  0.3606  0.1120  0.0169
 2272SOL    HW115325   0.499   5.015   1.746  1.1212 -0.3106 -1.7373
 2272SOL    HW215326   0.634   5.015   1.838 -0.4703  0.5709  0.6229
 2273SOL     OW15327   0.463   5.556   2.034 -0.4429  0.6598 -0.0103
 2273SOL    HW115328   0.378   5.504   2.041 -0.1953  0.2066 -0.2794
 2273SOL    HW215329   0.481   5.577   1.938 -0.4700  1.1181  0.0876
 2274SOL     OW15330   3.653   0.761   1.053  0.0877 -0.0938  0.0971
 2274SOL    HW115331   3.640   0.853   1.091  1.9362  0.7167 -1.1378
 2274SOL    HW215332   3.694   0.702   1.122 -0.6427  0.1403  0.7426
 2277SOL     OW15333   2.400   6.671   1.454  0.0920 -0.5862 -1.1208
 2277SOL    HW115334   2.433   6.684   1.360 -0.7657  1.9180 -1.1184
 2277SOL    HW215335   2.460   6.607   1.502  2.0349  0.0853 -2.5935
 2279SOL     OW15336   3.681   0.537   0.349 -0.1928 -0.1212 -0.3782
 2279SOL    HW115337   3.651   0.442   0.358 -1.2907  0.2665  0.1846
 2279SOL    HW215338   3.604   0.598   0.368  0.6811  0.8966 -0.0491
 2280SOL     OW15339   1.830   6.029   0.632  0.0162  0.5011  0.1569
 2280SOL    HW115340   1.831   6.121   0.594 -2.0598  1.3612  2.1145
 2280SOL    HW215341   1.741   5.987   0.617  0.0531 -0.1614  1.7142
 2282SOL     OW15342   2.704   3.340   1.877 -0.3613  0.0090 -0.4241
 2282SOL    HW115343   2.641   3.370   1.948 -0.0664  2.6970 -1.2541
 2282SOL    HW215344   2.677   3.380   1.789  1.1991 -0.6158 -1.2030
 2283SOL     OW15345   4.870   2.188   0.978  0.3475  0.1484  0.0013
 2283SOL    HW115346   4.909   2.230   0.896 -0.6113  0.6073 -0.2387
 2283SOL    HW215347   4.925   2.210   1.057  0.4153  1.0252 -0.2851
 2285SOL     OW15348   4.640   2.674   2.214  0.1798  0.4350  0.1221
 2285SOL    HW115349   4.684   2.601   2.267 -1.7072 -0.6866  0.1897
 2285SOL    HW215350   4.707   2.715   2.153  1.1376 -1.7621 -0.3712
 2286SOL     OW15351   5.076   2.810   1.173  0.3037  0.3001 -0.2287
 2286SOL    HW115352   5.174   2.828   1.178  0.2569  0.5678 -0.2433
 2286SOL    HW215353   5.033   2.836   1.260  0.4166 -0.8947  0.2005
 2287SOL     OW15354   4.323   4.336   1.256  0.1376  0.1621 -0.5970
 2287SOL    HW115355   4.279   4.258   1.211 -1.5838  0.5391  0.3714
 2287SOL    HW215356   4.254   4.388   1.305  1.4487  1.7200 -0.3846
 2288SOL     OW15357   3.278   2.582   1.072  0.1954  0.1172  0.1374
 2288SOL    HW115358   3.328   2.622   0.995  1.1999 -0.7970  0.3079
 2288SOL    HW215359   3.343   2.558   1.145 -0.2236 -2.8906 -0.4129
 2289SOL     OW15360   2.696   6.678   2.074 -0.1092  0.5976  0.2555
 2289SOL    HW115361   2.735   6.589   2.050 -0.6785  0.8271 -1.5764
 2289SOL    HW215362   2.614   6.665   2.130  1.7340  0.0816  2.9578
 2290SOL     OW15363   2.627   7.338   0.411  0.3983 -0.5505  0.6841
 2290SOL    HW115364   2.585   7.248   0.424  0.5320 -0.7812 -0.4511
 2290SOL    HW215365   2.621   7.364   0.315  1.2304  0.2344  0.8395
 2291SOL     OW15366   4.412   4.382   0.478 -0.4592 -0.3429  0.1793
 2291SOL    HW115367   4.375   4.295   0.512  0.3140 -0.9635 -0.5357
 2291SOL    HW215368   4.512   4.376   0.475 -0.4792 -0.0104 -1.4397
 2294SOL     OW15369   3.421   3.307   1.348 -0.6140  0.4617  0.0440
 2294SOL    HW115370   3.456   3.348   1.264  0.5477  0.8179  0.6935
 2294SOL    HW215371   3.473   3.341   1.426 -1.5021 -0.0805  0.8830
 2295SOL     OW15372   4.309   4.123   0.553  0.0365 -0.8417  0.2016
 2295SOL    HW115373   4.264   4.084   0.634 -0.5734 -3.2296 -1.2184
 2295SOL    HW215374   4.270   4.081   0.471  0.3404  1.8580 -1.3644
 2296SOL     OW15375   3.154   3.154   1.003 -0.4826  0.4266  0.5998
 2296SOL    HW115376   3.130   3.110   0.916  0.3765 -0.4253  0.7854
 2296SOL    HW215377   3.102   3.111   1.077 -0.4031  0.4199  0.6515
 2297SOL     OW15378   2.135   4.248   2.106 -0.1669 -0.4743  0.4737
 2297SOL    HW115379   2.183   4.167   2.141  1.3378  0.3240  0.3119
 2297SOL    HW215380   2.142   4.249   2.006  0.9440  0.5234  0.5492
 2298SOL     OW15381   2.587   9.267   1.840 -0.0916  0.4670 -0.3349
 2298SOL    HW115382   2.542   9.206   1.774  0.2947 -0.1955  0.0153
 2298SOL    HW215383   2.527   9.346   1.858 -0.6389  0.1414 -0.7060
 2299SOL     OW15384   4.065   1.988   1.791 -0.2623 -0.0320  0.5409
 2299SOL    HW115385   4.027   2.018   1.703 -0.0825 -1.9131 -0.1895
 2299SOL    HW215386   4.020   1.904   1.821  3.1760 -2.2731 -0.3016
 2300SOL     OW15387   1.199   6.515   1.830  0.1284  0.0089 -0.0049
 2300SOL    HW115388   1.193   6.417   1.808 -1.7977 -0.1660  1.1063
 2300SOL    HW215389   1.165   6.568   1.752  0.1591 -0.2697 -0.2121
 2301SOL     OW15390   2.738   9.804   0.801 -0.7283 -0.6979 -0.0873
 2301SOL    HW115391   2.792   9.886   0.778  0.0833 -1.0216  0.6425
 2301SOL    HW215392   2.769   9.728   0.745 -0.5096 -0.8563  0.2495
 2302SOL     OW15393   1.852   2.650   1.279 -1.2456 -0.0224 -0.2407
 2302SOL    HW115394   1.871   2.664   1.376  1.7028 -0.2876 -0.7496
 2302SOL    HW215395   1.845   2.738   1.234  0.0756  0.0659 -0.2780
 2303SOL     OW15396   3.461   8.389   1.152  0.2721  0.3806 -0.1549
 2303SOL    HW115397   3.492   8.350   1.239 -0.0230 -0.9512 -0.6397
 2303SOL    HW215398   3.534   8.446   1.113  1.2670 -0.8542 -0.1507
 2305SOL     OW15399   4.301   1.556   2.142 -0.5539 -0.0659  0.2424
 2305SOL    HW115400   4.320   1.470   2.094  0.1811  0.0888  0.2460
 2305SOL    HW215401   4.204   1.559   2.167 -0.7840 -0.4879 -0.5536
 2306SOL     OW15402   1.921   3.525   1.542 -0.4952  0.0390  0.6080
 2306SOL    HW115403   1.860   3.458   1.501 -1.5603  0.7455  0.9849
 2306SOL    HW215404   1.867   3.588   1.599  0.2522  2.0854 -0.8660
 2308SOL     OW15405   4.455   1.593   0.671 -0.5363  0.0254  0.0663
 2308SOL    HW115406   4.461   1.646   0.756 -0.4625  1.7398 -0.9709
 2308SOL    HW215407   4.546   1.569   0.640 -0.4065  1.5953 -0.8350
 2309SOL     OW15408   2.779   8.106   1.342 -0.2035  0.3884 -0.1992
 2309SOL    HW115409   2.816   8.158   1.419  1.6355 -2.0003  0.5826
 2309SOL    HW215410   2.806   8.149   1.256  2.2454  0.1332  0.4193
 2310SOL     OW15411   4.223   0.872   0.802  0.1451  0.0813  0.7763
 2310SOL    HW115412   4.273   0.900   0.721  1.6464  0.0067  1.6430
 2310SOL    HW215413   4.194   0.777   0.792  3.2700 -1.0343  1.6554
 2311SOL     OW15414   2.324   1.863   0.997  0.3473  0.1968  0.2523
 2311SOL    HW115415   2.237   1.859   1.046  1.0729 -1.6616  1.4494
 2311SOL    HW215416   2.381   1.935   1.038  0.0025  0.3152  0.5302
 2312SOL     OW15417   9.295   5.064   0.710  0.3800  0.3323 -0.2037
 2312SOL    HW115418   9.347   5.147   0.691  0.9137 -0.2506 -1.3620
 2312SOL    HW215419   9.352   4.984   0.693 -0.5393 -0.3015 -0.3941
 2313SOL     OW15420   2.734   9.584   1.242  0.0199 -0.7004  0.2615
 2313SOL    HW115421   2.691   9.503   1.201 -0.9802 -0.1529  0.2173
 2313SOL    HW215422   2.684   9.666   1.214  2.9213  0.2696 -2.3512
 2314SOL     OW15423   5.387   2.623   0.863 -0.1094 -0.0709  0.1866
 2314SOL    HW115424   5.354   2.688   0.795 -0.8346 -0.7225 -0.0851
 2314SOL    HW215425   5.384   2.531   0.825 -2.7373 -0.7207  1.8987
 2317SOL     OW15426   2.525   4.374   0.577  0.4422  0.0760 -0.4395
 2317SOL    HW115427   2.448   4.321   0.614  1.1909 -1.0436 -0.4435
 2317SOL    HW215428   2.574   4.418   0.652  0.5440 -0.2552 -0.3068
 2318SOL     OW15429   5.161   2.735   1.634  0.4675  0.4838  0.2735
 2318SOL    HW115430   5.206   2.790   1.704  1.2471  1.2174 -0.7827
 2318SOL    HW215431   5.219   2.656   1.612  0.3154  0.3606  0.3148
 2319SOL     OW15432   1.852   4.315   2.213  0.1052  0.3714 -0.2467
 2319SOL    HW115433   1.922   4.263   2.164 -0.8801 -0.4162 -0.8463
 2319SOL    HW215434   1.856   4.411   2.186  0.2130  0.1218 -1.1314
 2321SOL     OW15435   2.765   9.201   2.049 -0.7965 -0.2713  0.4339
 2321SOL    HW115436   2.714   9.226   1.966 -0.8505  0.7677  0.7725
 2321SOL    HW215437   2.776   9.282   2.107 -0.3756 -0.8980  1.2376
 2323SOL     OW15438   1.721   3.491   0.995  0.1781 -0.3046 -0.3173
 2323SOL    HW115439   1.807   3.497   0.944  1.2009  0.2085  1.4100
 2323SOL    HW215440   1.736   3.524   1.088 -2.1149  0.5431 -0.2408
 2324SOL     OW15441   3.636   1.163   1.678 -0.1890 -0.2531  0.1592
 2324SOL    HW115442   3.654   1.231   1.607 -0.5276 -1.5395 -1.1916
 2324SOL    HW215443   3.708   1.094   1.677 -2.4012 -2.6387 -1.8681
 2325SOL     OW15444   0.299   4.099   0.496 -0.6037  0.0418 -0.4779
 2325SOL    HW115445   0.310   4.020   0.556  1.7804  0.3479 -0.4436
 2325SOL    HW215446   0.216   4.148   0.521 -0.7181 -0.9846  1.2578
 2326SOL     OW15447   3.274   3.952   0.561  0.0097  0.1409 -0.0284
 2326SOL    HW115448   3.201   3.934   0.627 -0.2792  1.8263  0.1260
 2326SOL    HW215449   3.252   3.907   0.475 -0.9731  0.2222  0.1712
 2328SOL     OW15450   2.106   5.164   1.446  0.0319  0.4770  0.2356
 2328SOL    HW115451   2.203   5.189   1.446  0.4079 -0.8320  2.3757
 2328SOL    HW215452   2.092   5.083   1.503 -2.2577  0.3330 -0.4604
 2329SOL     OW15453   3.821   8.193   0.678  0.0603 -0.2704  0.0717
 2329SOL    HW115454   3.861   8.285   0.681  1.6203 -0.9129 -0.3037
 2329SOL    HW215455   3.792   8.167   0.770 -0.0488  0.4491  0.2481
 2330SOL     OW15456   9.449   4.766   1.558 -0.1662  0.1710 -0.3511
 2330SOL    HW115457   9.364   4.751   1.508  0.0151 -1.3744 -0.2391
 2330SOL    HW215458   9.496   4.846   1.522 -1.9626  1.4030 -0.0078
 2331SOL     OW15459   2.614   9.358   1.105 -0.5987  0.5155 -0.0610
 2331SOL    HW115460   2.700   9.334   1.059 -2.3710 -0.6402 -2.9453
 2331SOL    HW215461   2.564   9.274   1.129 -1.9132  1.1742 -0.4219
 2332SOL     OW15462   2.789   1.492   0.934 -0.2896 -0.0987 -0.3560
 2332SOL    HW115463   2.758   1.410   0.888 -1.3938 -0.2046  0.5533
 2332SOL    HW215464   2.764   1.487   1.031 -4.1009  3.0894 -1.0267
 2333SOL     OW15465   2.812   6.039   2.207 -0.9191  0.5800  0.4517
 2333SOL    HW115466   2.725   6.060   2.163 -1.7259 -0.2126  1.6611
 2333SOL    HW215467   2.838   5.944   2.185 -0.6623  0.6155  0.5946
 2334SOL     OW15468   3.161   3.382   1.628 -0.3018  0.0470 -0.2906
 2334SOL    HW115469   3.190   3.477   1.620  0.7235 -0.3019 -0.8438
 2334SOL    HW215470   3.075   3.377   1.679 -1.4064  1.4391 -1.9765
 2335SOL     OW15471   4.658   4.445   2.230  0.0734  0.1024 -0.5261
 2335SOL    HW115472   4.608   4.515   2.282 -0.2836  0.5115 -1.4226
 2335SOL    HW215473   4.624   4.443   2.136  1.0746 -0.3028 -0.8766
 2336SOL     OW15474   4.220   4.650   1.130  0.2366 -0.4307 -0.4336
 2336SOL    HW115475   4.138   4.702   1.155  0.3760 -1.3797  2.1841
 2336SOL    HW215476   4.212   4.618   1.036 -1.5566  1.0538 -0.8241
 2337SOL     OW15477   4.419   0.947   0.980  0.2638  0.2069 -0.3448
 2337SOL    HW115478   4.353   0.923   0.909  1.2290  0.8847 -1.4916
 2337SOL    HW215479   4.499   0.888   0.972  1.8528  2.5069 -2.0089
 2339SOL     OW15480   3.138   1.735   0.777  0.0502 -0.3568  0.6827
 2339SOL    HW115481   3.205   1.726   0.703  0.1940  1.0114  0.6272
 2339SOL    HW215482   3.047   1.750   0.738 -0.2637 -1.9318  0.7636
 2340SOL     OW15483   3.194   3.674   0.716  0.1146  0.2573  0.0053
 2340SOL    HW115484   3.151   3.586   0.699  0.2891  0.6712 -2.8685
 2340SOL    HW215485   3.128   3.747   0.702  0.2232  0.6628  1.4514
 2342SOL     OW15486   1.159   6.035   2.292 -0.0155 -0.4373 -0.0907
 2342SOL    HW115487   1.150   6.085   2.379 -1.4816  1.4846 -1.3030
 2342SOL    HW215488   1.070   5.995   2.268  0.1105 -0.0654 -1.2115
 2343SOL     OW15489   2.255   2.788   0.968  0.3142  0.0579 -0.1597
 2343SOL    HW115490   2.214   2.796   0.877  2.2865  1.6038 -0.9536
 2343SOL    HW215491   2.182   2.776   1.036 -1.3740  1.4716 -1.6472
 2344SOL     OW15492   1.214   4.590   1.988 -0.1754  0.6106 -0.1991
 2344SOL    HW115493   1.229   4.501   2.032 -2.3487  0.2528 -0.1319
 2344SOL    HW215494   1.283   4.604   1.917 -0.9039 -1.9253 -1.4408
 2346SOL     OW15495   1.625   4.759   0.416 -0.3846  0.1585 -0.1681
 2346SOL    HW115496   1.666   4.789   0.329 -1.0289 -1.3309 -1.0206
 2346SOL    HW215497   1.685   4.690   0.458 -0.0205  0.9574  0.6428
 2348SOL     OW15498   3.406   4.491   2.244 -0.1316 -0.4592  0.0615
 2348SOL    HW115499   3.313   4.526   2.249  0.4596  1.1473 -0.1529
 2348SOL    HW215500   3.470   4.565   2.225  1.5824 -0.9763  3.3689
 2349SOL     OW15501   2.953   2.600   0.612 -0.0541 -0.3872  0.2945
 2349SOL    HW115502   3.047   2.590   0.643  0.6740 -1.4857 -2.1424
 2349SOL    HW215503   2.900   2.519   0.639  0.1866 -0.6482 -0.0202
 2351SOL     OW15504   3.661   5.334   0.540  0.1359 -0.3965 -0.5921
 2351SOL    HW115505   3.748   5.344   0.491  0.5168 -1.6245 -0.1779
 2351SOL    HW215506   3.585   5.353   0.478  0.6957  0.7693 -0.9358
 2352SOL     OW15507   2.098   9.436   0.592  0.4398 -0.1887 -0.0858
 2352SOL    HW115508   2.009   9.482   0.597  0.8852  0.7213 -0.3487
 2352SOL    HW215509   2.170   9.502   0.614  1.2967 -0.0759 -3.0290
 2354SOL     OW15510   5.299   1.970   0.377  0.2441 -0.0412 -0.5679
 2354SOL    HW115511   5.384   2.018   0.397  0.3007 -0.4997  0.3028
 2354SOL    HW215512   5.222   2.017   0.420  0.2470 -0.4909 -0.0669
 2355SOL     OW15513   1.226   3.786   0.727  0.4629  0.2452 -0.2290
 2355SOL    HW115514   1.264   3.701   0.691  0.7725  0.5812 -0.7021
 2355SOL    HW215515   1.127   3.778   0.734  0.3794  0.2466 -1.3333
 2356SOL     OW15516   2.922   2.805   1.586  0.1698 -0.1214 -0.4704
 2356SOL    HW115517   2.986   2.870   1.544 -1.3462  1.1515 -0.8619
 2356SOL    HW215518   2.859   2.771   1.517 -0.4656 -0.2997  0.1934
 2357SOL     OW15519   2.853   7.830   1.733  0.1904 -0.7804  0.0018
 2357SOL    HW115520   2.861   7.921   1.774  0.9505 -1.8625  2.3362
 2357SOL    HW215521   2.801   7.836   1.648 -1.2778  1.5623  1.0218
 2358SOL     OW15522   3.377   4.987   1.186  0.8990  0.2533 -1.0083
 2358SOL    HW115523   3.342   4.902   1.147 -0.4275  0.6822 -0.7881
 2358SOL    HW215524   3.340   5.065   1.134 -0.2595  0.7972  0.5805
 2359SOL     OW15525   1.080   5.550   0.466 -0.3975 -0.5874 -0.7739
 2359SOL    HW115526   0.997   5.494   0.466 -0.9269  0.1760  0.7650
 2359SOL    HW215527   1.068   5.628   0.527  2.0622 -1.3866  0.8040
 2360SOL     OW15528   1.646   5.174   0.630 -0.2387 -0.2903  0.5927
 2360SOL    HW115529   1.627   5.077   0.640 -0.5471 -0.4405 -1.2325
 2360SOL    HW215530   1.743   5.187   0.609 -0.1855 -0.1932  0.8916
 2362SOL     OW15531   2.348   7.867   0.965  0.5398 -0.2384 -0.4056
 2362SOL    HW115532   2.297   7.782   0.966  1.5562 -0.8461  0.6590
 2362SOL    HW215533   2.407   7.872   1.045 -2.2961  3.2058  1.5977
 2365SOL     OW15534   4.348   2.188   1.466 -0.0471 -0.2704 -0.4081
 2365SOL    HW115535   4.422   2.133   1.506  0.5771  0.6029 -0.3376
 2365SOL    HW215536   4.272   2.128   1.440  0.8493 -1.2319 -0.8631
 2366SOL     OW15537   3.862   4.785   1.441  0.5258 -0.4823 -0.4068
 2366SOL    HW115538   3.828   4.692   1.424  0.3329 -0.1987 -1.6467
 2366SOL    HW215539   3.847   4.809   1.537  0.3610 -1.6393 -0.1307
 2369SOL     OW15540   3.669   4.947   2.246 -0.3124 -0.0793 -0.0171
 2369SOL    HW115541   3.570   4.942   2.238 -0.2911 -1.9279  0.6614
 2369SOL    HW215542   3.696   4.930   2.341  0.6128  1.2363 -0.0256
 2370SOL     OW15543   1.903   2.720   1.541 -0.3212  0.6120  0.2033
 2370SOL    HW115544   1.966   2.791   1.509 -0.1612  1.3161  2.0230
 2370SOL    HW215545   1.867   2.746   1.631 -1.7653 -0.6868  0.0155
 2371SOL     OW15546   4.426   4.442   1.650  0.1519  0.0429  0.0878
 2371SOL    HW115547   4.422   4.348   1.618 -0.7852 -0.9402  2.9009
 2371SOL    HW215548   4.341   4.489   1.624 -0.2409 -0.4947  0.3738
 2372SOL     OW15549   3.266   7.209   1.353 -0.0730 -0.3304 -0.1400
 2372SOL    HW115550   3.314   7.212   1.265  0.5694  0.9784  0.2245
 2372SOL    HW215551   3.307   7.277   1.414 -0.3566 -1.3927  1.2490
 2373SOL     OW15552   0.791   5.421   0.385  0.2572  0.4968 -0.3015
 2373SOL    HW115553   0.857   5.358   0.344 -0.7175 -1.7143  1.4691
 2373SOL    HW215554   0.698   5.390   0.366 -0.3515  3.2215 -2.1959
 2374SOL     OW15555   1.709   6.534   1.447 -0.0137 -0.3772 -0.1589
 2374SOL    HW115556   1.738   6.623   1.483  2.4506 -1.2662  0.1726
 2374SOL    HW215557   1.711   6.536   1.347 -1.9946  0.5517 -0.2064
 2375SOL     OW15558   3.931   2.364   0.582 -0.2056  0.4249 -0.3605
 2375SOL    HW115559   4.007   2.303   0.604 -0.2834  0.7212  0.7842
 2375SOL    HW215560   3.881   2.329   0.503  0.4734 -0.3461 -0.4507
 2377SOL     OW15561   2.813   2.034   2.167  0.4824 -0.4460 -0.1723
 2377SOL    HW115562   2.743   1.971   2.135 -1.1897  1.7833 -1.0412
 2377SOL    HW215563   2.868   2.065   2.090  2.0465 -1.6748  0.4143
 2379SOL     OW15564   3.767   1.409   0.507 -0.4343 -0.2469 -0.6461
 2379SOL    HW115565   3.833   1.339   0.536  1.2053  1.7203  0.4990
 2379SOL    HW215566   3.682   1.395   0.557  0.1529 -0.9361  0.2044
 2380SOL     OW15567   3.215   4.363   0.913  0.1240 -0.6693  0.9764
 2380SOL    HW115568   3.265   4.422   0.976 -2.1893  2.0322  0.4004
 2380SOL    HW215569   3.193   4.415   0.830  1.5153 -3.6070 -1.2947
 2381SOL     OW15570   0.063   4.420   1.647 -0.0653 -0.1063 -0.2742
 2381SOL    HW115571   0.070   4.350   1.718  0.7269 -0.2852 -0.5294
 2381SOL    HW215572   0.142   4.481   1.653 -0.9876  1.0459  0.2450
 2382SOL     OW15573   2.580   8.333   2.184  0.2493 -0.4012  0.3126
 2382SOL    HW115574   2.623   8.343   2.274 -0.4063  0.0125  0.5784
 2382SOL    HW215575   2.602   8.243   2.147  0.1859 -0.7337  1.0697
 2383SOL     OW15576   0.158   5.531   1.679 -0.1828  0.4746  0.4737
 2383SOL    HW115577   0.218   5.471   1.627 -0.0484  0.3931  0.7190
 2383SOL    HW215578   0.185   5.626   1.665 -1.3538  0.5901 -1.1303
 2384SOL     OW15579   3.394   1.583   0.860  0.1174 -0.0434 -0.3486
 2384SOL    HW115580   3.431   1.495   0.889 -0.1190 -0.1498 -0.3671
 2384SOL    HW215581   3.296   1.573   0.843  0.4529 -0.2771 -2.3003
 2386SOL     OW15582   0.561   5.688   1.819  0.5383 -0.9838 -0.4531
 2386SOL    HW115583   0.506   5.709   1.737 -0.8603  1.7553  1.1135
 2386SOL    HW215584   0.629   5.759   1.833 -1.4790  0.4670  2.6116
 2387SOL     OW15585   0.813   3.888   1.772 -0.2883  0.2067 -0.2414
 2387SOL    HW115586   0.817   3.948   1.693  0.0059  0.0734 -0.3300
 2387SOL    HW215587   0.733   3.829   1.766  0.3443 -0.5869 -1.0112
 2388SOL     OW15588   2.864  -0.083   1.161  0.2540 -0.0469 -0.4248
 2388SOL    HW115589   2.916  -0.167   1.177  1.4360  0.6067 -0.7589
 2388SOL    HW215590   2.926  -0.005   1.164 -1.0112  0.9187  0.9335
 2389SOL     OW15591   0.628   3.679   1.722 -0.1217  0.5477 -0.1796
 2389SOL    HW115592   0.650   3.617   1.797 -0.4590 -0.5590 -0.9721
 2389SOL    HW215593   0.528   3.687   1.715 -0.0755  1.2533 -0.0251
 2390SOL     OW15594   2.375   7.712   2.185  0.1015  0.3643  0.0743
 2390SOL    HW115595   2.351   7.791   2.128  0.0595 -0.7524 -1.4789
 2390SOL    HW215596   2.463   7.728   2.229 -0.3859  1.7087  0.5969
 2391SOL     OW15597   2.631   6.415   0.651 -0.4249 -0.1726  0.1360
 2391SOL    HW115598   2.705   6.411   0.584 -1.0305  0.3695 -0.5802
 2391SOL    HW215599   2.578   6.498   0.636 -1.1192 -0.5099  0.7150
 2392SOL     OW15600   1.415   2.864   1.803 -0.0381 -0.3247  0.0836
 2392SOL    HW115601   1.416   2.767   1.778 -0.1308 -0.6047  1.1460
 2392SOL    HW215602   1.328   2.887   1.845  0.4008 -0.0406  0.8452
 2393SOL     OW15603   9.817   5.608   0.729 -0.1901 -0.0486 -0.1454
 2393SOL    HW115604   9.829   5.616   0.828 -1.3889  0.1609 -0.0122
 2393SOL    HW215605   9.808   5.699   0.688 -2.2794 -0.2187 -0.1059
 2394SOL     OW15606   0.967   4.637   0.667 -0.1948  0.2472 -0.2723
 2394SOL    HW115607   1.022   4.715   0.634 -2.6200  1.4347 -1.6432
 2394SOL    HW215608   0.931   4.587   0.589 -2.3271  0.4224  0.5742
 2395SOL     OW15609   1.459   3.749   1.388 -0.0257 -0.0495  0.4977
 2395SOL    HW115610   1.539   3.807   1.373 -0.1662 -0.2808 -1.3065
 2395SOL    HW215611   1.390   3.800   1.440  0.6471  0.6995  0.6654
 2396SOL     OW15612   1.589   2.972   0.363  0.3273 -0.1418  0.5321
 2396SOL    HW115613   1.543   2.932   0.284 -1.4836  1.8723  0.5175
 2396SOL    HW215614   1.664   2.913   0.392  2.3854  0.0952 -3.9660
 2398SOL     OW15615   1.569   3.901   2.363  0.2827 -0.0024  0.0620
 2398SOL    HW115616   1.516   3.934   2.440  1.0124 -1.4397  1.2024
 2398SOL    HW215617   1.530   3.936   2.278 -1.8585 -0.1939  0.9349
 2399SOL     OW15618   1.778   2.889   1.154 -0.2287 -0.3577  0.5307
 2399SOL    HW115619   1.726   2.852   1.077  2.2399 -2.0156 -0.3787
 2399SOL    HW215620   1.737   2.976   1.183 -1.7922 -0.2225 -1.9634
 2401SOL     OW15621   1.746   3.645   2.063  0.1876  0.3798 -0.3870
 2401SOL    HW115622   1.669   3.588   2.035  1.8072 -0.4745 -3.2449
 2401SOL    HW215623   1.724   3.742   2.047  0.0440  0.0788 -2.1199
 2403SOL     OW15624   0.792   5.201   1.987  0.3797 -0.3169  0.0511
 2403SOL    HW115625   0.801   5.296   2.019  3.5513 -0.6947  0.3527
 2403SOL    HW215626   0.711   5.160   2.030 -0.2834  1.8262  0.9431
 2404SOL     OW15627   2.594   1.824   0.352  0.3305  0.5340 -0.3235
 2404SOL    HW115628   2.647   1.861   0.428  1.5490 -5.0712  1.8331
 2404SOL    HW215629   2.500   1.859   0.357  1.4698  3.5958  1.1254
 2405SOL     OW15630   4.590   2.879   1.905 -0.2833 -0.5872 -0.2074
 2405SOL    HW115631   4.647   2.936   1.846 -1.9293  1.6801  0.3368
 2405SOL    HW215632   4.580   2.921   1.995  0.0159 -2.6970  0.8569
 2407SOL     OW15633   2.436   7.053   1.289 -0.3404  0.3627 -0.6480
 2407SOL    HW115634   2.478   6.996   1.218 -0.2136 -1.5103  0.8826
 2407SOL    HW215635   2.381   6.995   1.349 -0.1444  1.8544  1.0007
 2409SOL     OW15636   1.460   6.940   0.355  0.1069 -0.5889  0.4778
 2409SOL    HW115637   1.396   6.871   0.390  1.7372 -1.9557  0.8420
 2409SOL    HW215638   1.419   6.987   0.277 -1.1653 -1.7469  0.4239
 2411SOL     OW15639   4.835   5.034   0.754  0.2648 -0.4933  0.3381
 2411SOL    HW115640   4.866   4.952   0.705 -1.8844 -2.3327  1.9227
 2411SOL    HW215641   4.783   5.092   0.691  0.2164 -1.2528 -0.3376
  10.00000  10.00000   2.84200
