chitosan Film  in water:acetic acid 2%
18931
    1CHTO  H203    1   5.552   6.724   2.235
    1CHTO   O82    2   5.558   6.635   2.265
    1CHTO  C123    3   5.676   6.618   2.346
    1CHTO  H227    4   5.668   6.685   2.433
    1CHTO   O77    5   5.667   6.479   2.389
    1CHTO  C118    6   5.773   6.436   2.476
    1CHTO  H222    7   5.778   6.503   2.563
    1CHTO  C125    8   5.741   6.290   2.527
    1CHTO   O84    9   5.731   6.195   2.420
    1CHTO  H205   10   5.815   6.183   2.380
    1CHTO  C114   11   5.906   6.443   2.399
    1CHTO  H218   12   5.899   6.380   2.310
    1CHTO  C116   13   5.932   6.589   2.351
    1CHTO  H220   14   5.946   6.654   2.440
    1CHTO   O79   15   6.055   6.593   2.276
    1CHTO  H201   16   6.128   6.575   2.333
    1CHTO  C120   17   5.809   6.643   2.266
    1CHTO  H224   18   5.808   6.584   2.171
    1CHTO   N21   19   5.826   6.786   2.227
    1CHTO  H211   20   5.730   6.833   2.215
    1CHTO  H212   21   5.885   6.838   2.301
    1CHTO   O75   22   6.008   6.394   2.488
    1CHTO  C112   23   6.112   6.288   2.414
    1CHTO  H216   24   6.117   6.312   2.306
    1CHTO   O73   25   6.061   6.155   2.436
    1CHTO  C113   26   6.135   6.052   2.369
    1CHTO  H217   27   6.137   6.074   2.261
    1CHTO  C124   28   6.058   5.921   2.388
    1CHTO   O83   29   6.108   5.814   2.307
    1CHTO  H204   30   6.193   5.789   2.337
    1CHTO  C109   31   6.280   6.046   2.424
    1CHTO  H213   32   6.273   6.013   2.529
    1CHTO  C110   33   6.348   6.186   2.415
    1CHTO  H214   34   6.368   6.208   2.310
    1CHTO   O78   35   6.475   6.181   2.483
    1CHTO  H200   36   6.534   6.124   2.438
    1CHTO  C111   37   6.257   6.298   2.475
    1CHTO  H215   38   6.249   6.282   2.584
    1CHTO   N19   39   6.312   6.435   2.456
    1CHTO  H207   40   6.246   6.508   2.501
    1CHTO  H208   41   6.409   6.442   2.502
    1CHTO   O74   42   6.359   5.947   2.349
    1CHTO  C115   43   6.440   5.841   2.438
    1CHTO  H219   44   6.414   5.849   2.544
    1CHTO   O76   45   6.402   5.692   2.400
    1CHTO  C122   46   6.424   5.662   2.261
    1CHTO  H226   47   6.340   5.703   2.205
    1CHTO  C126   48   6.415   5.506   2.242
    1CHTO   O85   49   6.514   5.434   2.317
    1CHTO  H206   50   6.503   5.342   2.302
    1CHTO  C121   51   6.561   5.719   2.203
    1CHTO  H225   52   6.611   5.640   2.143
    1CHTO   O81   53   6.535   5.829   2.115
    1CHTO  H202   54   6.484   5.800   2.041
    1CHTO  C119   55   6.657   5.763   2.317
    1CHTO  H223   56   6.676   5.671   2.373
    1CHTO  C117   57   6.594   5.868   2.416
    1CHTO  H221   58   6.599   5.971   2.381
    1CHTO   N20   59   6.668   5.870   2.547
    1CHTO  H209   60   6.660   5.774   2.596
    1CHTO  H210   61   6.772   5.894   2.530
    1CHTO   O80   62   6.802   5.799   2.266
    1CHTO  C103   63   6.922   5.716   2.314
    1CHTO  H190   64   6.913   5.694   2.420
    1CHTO  C101   65   6.946   5.581   2.236
    1CHTO  H188   66   6.940   5.603   2.129
    1CHTO   O68   67   6.833   5.481   2.272
    1CHTO  H168   68   6.839   5.405   2.217
    1CHTO   C99   69   7.091   5.520   2.264
    1CHTO  H186   70   7.093   5.480   2.366
    1CHTO   N17   71   7.124   5.405   2.173
    1CHTO  H174   72   7.133   5.439   2.071
    1CHTO  H175   73   7.215   5.356   2.206
    1CHTO   C97   74   7.201   5.630   2.260
    1CHTO  H184   75   7.219   5.661   2.156
    1CHTO   O64   76   7.164   5.741   2.343
    1CHTO  C104   77   7.047   5.810   2.297
    1CHTO  H191   78   7.055   5.841   2.193
    1CHTO  C108   79   7.031   5.940   2.378
    1CHTO   O71   80   7.142   6.028   2.359
    1CHTO  H171   81   7.129   6.106   2.410
    1CHTO   O62   82   7.323   5.588   2.325
    1CHTO   C91   83   7.433   5.551   2.239
    1CHTO  H178   84   7.399   5.555   2.135
    1CHTO   C92   85   7.468   5.400   2.270
    1CHTO  H179   86   7.381   5.349   2.313
    1CHTO   O66   87   7.493   5.333   2.145
    1CHTO  H166   88   7.414   5.329   2.094
    1CHTO   C93   89   7.594   5.381   2.360
    1CHTO  H180   90   7.617   5.273   2.359
    1CHTO   N16   91   7.574   5.413   2.504
    1CHTO  H172   92   7.544   5.516   2.515
    1CHTO  H173   93   7.499   5.347   2.546
    1CHTO   C94   94   7.717   5.458   2.297
    1CHTO  H181   95   7.786   5.495   2.372
    1CHTO   O61   96   7.680   5.572   2.214
    1CHTO   C95   97   7.561   5.643   2.253
    1CHTO  H182   98   7.571   5.676   2.356
    1CHTO  C106   99   7.550   5.773   2.165
    1CHTO   O69  100   7.440   5.855   2.207
    1CHTO  H169  101   7.458   5.892   2.292
    1CHTO   O63  102   7.786   5.359   2.205
    1CHTO   C96  103   7.922   5.312   2.252
    1CHTO  H183  104   7.925   5.320   2.361
    1CHTO   C98  105   8.039   5.396   2.193
    1CHTO  H185  106   8.021   5.503   2.210
    1CHTO   O67  107   8.160   5.366   2.264
    1CHTO  H167  108   8.229   5.422   2.236
    1CHTO  C102  109   8.061   5.367   2.037
    1CHTO  H189  110   8.159   5.411   2.013
    1CHTO   N18  111   7.965   5.432   1.945
    1CHTO  H176  112   8.017   5.497   1.876
    1CHTO  H177  113   7.891   5.489   2.000
    1CHTO  C105  114   8.070   5.214   2.013
    1CHTO  H192  115   8.060   5.194   1.906
    1CHTO   O65  116   7.969   5.133   2.078
    1CHTO  C100  117   7.932   5.158   2.215
    1CHTO  H187  118   7.831   5.116   2.227
    1CHTO  C107  119   8.024   5.080   2.313
    1CHTO   O70  120   8.008   4.939   2.295
    1CHTO  H170  121   8.063   4.893   2.355
    1CHTO   O57  122   8.219   5.176   2.056
    1CHTO   C85  123   8.272   5.056   1.999
    1CHTO  H157  124   8.186   5.000   1.961
    1CHTO   C83  125   8.331   4.964   2.110
    1CHTO  H155  126   8.251   4.942   2.181
    1CHTO   O56  127   8.432   5.036   2.184
    1CHTO  H135  128   8.462   4.985   2.257
    1CHTO   C81  129   8.379   4.832   2.045
    1CHTO  H153  130   8.296   4.788   1.990
    1CHTO   N14  131   8.415   4.727   2.144
    1CHTO  H141  132   8.333   4.708   2.209
    1CHTO  H142  133   8.500   4.759   2.202
    1CHTO   C79  134   8.494   4.863   1.942
    1CHTO  H151  135   8.520   4.769   1.893
    1CHTO   O52  136   8.444   4.953   1.838
    1CHTO   C86  137   8.383   5.077   1.886
    1CHTO  H158  138   8.468   5.137   1.924
    1CHTO   C90  139   8.329   5.152   1.762
    1CHTO   O60  140   8.287   5.286   1.793
    1CHTO  H138  141   8.256   5.327   1.714
    1CHTO   O50  142   8.612   4.919   2.001
    1CHTO   C73  143   8.755   4.914   1.987
    1CHTO  H145  144   8.783   4.906   1.881
    1CHTO   C74  145   8.813   4.791   2.064
    1CHTO  H146  146   8.765   4.701   2.023
    1CHTO   O54  147   8.953   4.780   2.033
    1CHTO  H133  148   9.000   4.854   2.066
    1CHTO   C75  149   8.783   4.808   2.219
    1CHTO  H147  150   8.674   4.807   2.233
    1CHTO   N13  151   8.834   4.696   2.302
    1CHTO  H139  152   8.808   4.713   2.406
    1CHTO  H140  153   8.941   4.690   2.294
    1CHTO   C76  154   8.835   4.951   2.270
    1CHTO  H148  155   8.944   4.951   2.264
    1CHTO   O49  156   8.783   5.059   2.185
    1CHTO   C77  157   8.817   5.044   2.046
    1CHTO  H149  158   8.926   5.040   2.034
    1CHTO   C88  159   8.772   5.168   1.967
    1CHTO   O58  160   8.846   5.288   2.012
    1CHTO  H136  161   8.819   5.362   1.960
    1CHTO   O51  162   8.783   4.977   2.425
    1CHTO   C78  163   8.681   5.099   2.456
    1CHTO  H150  164   8.620   5.125   2.367
    1CHTO   C80  165   8.764   5.224   2.498
    1CHTO  H152  166   8.844   5.190   2.568
    1CHTO   O55  167   8.827   5.276   2.380
    1CHTO  H134  168   8.893   5.216   2.349
    1CHTO   C84  169   8.677   5.334   2.571
    1CHTO  H156  170   8.608   5.377   2.498
    1CHTO   N15  171   8.761   5.447   2.623
    1CHTO  H143  172   8.699   5.521   2.670
    1CHTO  H144  173   8.831   5.411   2.696
    1CHTO   C87  174   8.595   5.266   2.683
    1CHTO  H159  175   8.664   5.218   2.753
    1CHTO   O53  176   8.507   5.162   2.617
    1CHTO   C82  177   8.584   5.052   2.567
    1CHTO  H154  178   8.638   5.004   2.648
    1CHTO   C89  179   8.483   4.948   2.513
    1CHTO   O59  180   8.544   4.823   2.477
    1CHTO  H137  181   8.576   4.781   2.555
    1CHTO   O45  182   8.498   5.369   2.775
    1CHTO   C67  183   8.407   5.459   2.710
    1CHTO  H124  184   8.460   5.511   2.629
    1CHTO   C65  185   8.283   5.384   2.650
    1CHTO  H122  186   8.280   5.286   2.699
    1CHTO   O44  187   8.310   5.364   2.510
    1CHTO  H102  188   8.384   5.308   2.498
    1CHTO   C63  189   8.146   5.451   2.688
    1CHTO  H120  190   8.127   5.434   2.794
    1CHTO   N11  191   8.023   5.390   2.627
    1CHTO  H108  192   8.022   5.285   2.644
    1CHTO  H109  193   7.935   5.434   2.669
    1CHTO   C61  194   8.157   5.607   2.670
    1CHTO  H118  195   8.064   5.651   2.709
    1CHTO   O40  196   8.266   5.665   2.747
    1CHTO   C68  197   8.362   5.574   2.810
    1CHTO  H125  198   8.314   5.529   0.072
    1CHTO   C72  199   8.480   5.660   0.032
    1CHTO   O48  200   8.573   5.589   0.115
    1CHTO  H105  201   8.617   5.524   0.064
    1CHTO   O38  202   8.177   5.646   2.532
    1CHTO   C55  203   8.133   5.778   2.495
    1CHTO  H112  204   8.112   5.839   2.585
    1CHTO   C56  205   8.007   5.768   2.400
    1CHTO  H113  206   8.037   5.699   2.320
    1CHTO   O42  207   7.897   5.704   2.466
    1CHTO  H100  208   7.871   5.752   2.542
    1CHTO   C57  209   7.962   5.909   2.343
    1CHTO  H114  210   7.872   5.937   2.398
    1CHTO   N10  211   7.919   5.898   2.201
    1CHTO  H106  212   7.845   5.973   2.178
    1CHTO  H107  213   8.004   5.911   2.135
    1CHTO   C58  214   8.069   6.020   2.364
    1CHTO  H115  215   8.055   6.100   2.287
    1CHTO   O37  216   8.205   5.974   2.353
    1CHTO   C59  217   8.247   5.852   2.418
    1CHTO  H116  218   8.287   5.786   2.341
    1CHTO   C70  219   8.364   5.885   2.511
    1CHTO   O46  220   8.331   5.974   2.618
    1CHTO  H103  221   8.272   5.933   2.677
    1CHTO   O39  222   8.046   6.089   2.512
    1CHTO   C60  223   7.967   6.210   2.508
    1CHTO  H117  224   7.960   6.246   2.406
    1CHTO   C62  225   7.822   6.185   2.557
    1CHTO  H119  226   7.780   6.107   2.490
    1CHTO   O43  227   7.824   6.134   2.692
    1CHTO  H101  228   7.737   6.113   2.720
    1CHTO   C66  229   7.735   6.319   2.540
    1CHTO  H123  230   7.742   6.353   2.437
    1CHTO   N12  231   7.590   6.298   2.567
    1CHTO  H110  232   7.532   6.321   2.479
    1CHTO  H111  233   7.571   6.198   2.602
    1CHTO   C69  234   7.795   6.432   2.628
    1CHTO  H126  235   7.790   6.404   2.736
    1CHTO   O41  236   7.945   6.453   2.586
    1CHTO   C64  237   8.034   6.324   2.591
    1CHTO  H121  238   8.047   6.291   2.696
    1CHTO   C71  239   8.172   6.364   2.534
    1CHTO   O47  240   8.270   6.261   2.551
    1CHTO  H104  241   8.352   6.289   2.514
    1CHTO   O34  242   7.714   6.574   2.608
    1CHTO   C49  243   7.756   6.708   2.679
    1CHTO   H91  244   7.854   6.690   2.723
    1CHTO   C47  245   7.654   6.742   2.790
    1CHTO   H89  246   7.696   6.828   0.018
    1CHTO   O33  247   7.645   6.629   0.051
    1CHTO   H70  248   7.726   6.618   0.098
    1CHTO   C45  249   7.513   6.782   2.723
    1CHTO   H87  250   7.480   6.697   2.661
    1CHTO    N8  251   7.408   6.808   2.825
    1CHTO   H75  252   7.314   6.825   2.777
    1CHTO   H76  253   7.399   6.722   0.063
    1CHTO   C43  254   7.531   6.905   2.620
    1CHTO   H85  255   7.436   6.911   2.566
    1CHTO   O29  256   7.641   6.879   2.529
    1CHTO   C50  257   7.765   6.825   2.578
    1CHTO   H92  258   7.820   6.787   2.491
    1CHTO   C54  259   7.859   6.937   2.632
    1CHTO   O36  260   7.899   7.025   2.526
    1CHTO   H72  261   7.956   7.091   2.561
    1CHTO   O27  262   7.548   7.033   2.684
    1CHTO   C37  263   7.485   7.160   2.656
    1CHTO   H79  264   7.484   7.179   2.547
    1CHTO   C38  265   7.336   7.165   2.704
    1CHTO   H80  266   7.333   7.134   2.810
    1CHTO   O31  267   7.262   7.069   2.626
    1CHTO   H68  268   7.174   7.062   2.659
    1CHTO   C39  269   7.271   7.309   2.690
    1CHTO   H81  270   7.259   7.329   2.584
    1CHTO    N7  271   7.135   7.318   2.753
    1CHTO   H73  272   7.068   7.247   2.706
    1CHTO   H74  273   7.095   7.418   2.741
    1CHTO   C40  274   7.367   7.421   2.747
    1CHTO   H82  275   7.368   7.415   0.028
    1CHTO   O26  276   7.499   7.403   2.693
    1CHTO   C41  277   7.562   7.276   2.725
    1CHTO   H83  278   7.561   7.260   0.006
    1CHTO   C52  279   7.709   7.283   2.680
    1CHTO   O35  280   7.786   7.387   2.753
    1CHTO   H71  281   7.794   7.364   0.015
    1CHTO   O28  282   7.322   7.555   2.716
    1CHTO   C42  283   7.356   7.629   2.593
    1CHTO   H84  284   7.388   7.554   2.522
    1CHTO   C44  285   7.474   7.732   2.605
    1CHTO   H86  286   7.443   7.813   2.670
    1CHTO   O32  287   7.587   7.665   2.665
    1CHTO   H69  288   7.568   7.645   2.755
    1CHTO   C48  289   7.512   7.793   2.463
    1CHTO   H90  290   7.555   7.712   2.403
    1CHTO    N9  291   7.620   7.898   2.473
    1CHTO   H77  292   7.643   7.935   2.374
    1CHTO   H78  293   7.708   7.855   2.518
    1CHTO   C51  294   7.385   7.847   2.387
    1CHTO   H93  295   7.354   7.942   2.434
    1CHTO   O30  296   7.278   7.751   2.389
    1CHTO   C46  297   7.236   7.706   2.529
    1CHTO   H88  298   7.215   7.795   2.588
    1CHTO   C53  299   7.107   7.622   2.516
    1CHTO   O72  300   7.121   7.509   2.429
    1CHTO  H199  301   7.133   7.539   2.341
    1CHTO   O22  302   7.417   7.868   2.248
    1CHTO   C31  303   7.324   7.926   2.150
    1CHTO   H59  304   7.223   7.925   2.198
    1CHTO   C29  305   7.355   8.072   2.110
    1CHTO   H57  306   7.460   8.074   2.076
    1CHTO   O21  307   7.348   8.153   2.229
    1CHTO   H37  308   7.416   8.129   2.289
    1CHTO   C27  309   7.261   8.126   1.994
    1CHTO   H55  310   7.159   8.136   2.034
    1CHTO    N5  311   7.305   8.259   1.943
    1CHTO   H43  312   7.402   8.251   1.897
    1CHTO   H44  313   7.232   8.296   1.872
    1CHTO   C25  314   7.254   8.021   1.878
    1CHTO   H53  315   7.353   8.012   1.830
    1CHTO   O17  316   7.216   7.891   1.932
    1CHTO   C32  317   7.312   7.836   2.023
    1CHTO   H60  318   7.410   7.831   1.975
    1CHTO   C36  319   7.269   7.691   2.056
    1CHTO   O25  320   7.141   7.685   2.121
    1CHTO   H40  321   7.074   7.712   2.062
    1CHTO   O15  322   7.145   8.061   1.766
    1CHTO   C19  323   7.095   7.983   1.653
    1CHTO   H47  324   7.018   8.048   1.609
    1CHTO   C20  325   7.201   7.951   1.542
    1CHTO   H48  326   7.287   7.895   1.583
    1CHTO   O19  327   7.249   8.078   1.494
    1CHTO   H35  328   7.319   8.065   1.433
    1CHTO   C21  329   7.138   7.865   1.424
    1CHTO   H49  330   7.062   7.925   1.375
    1CHTO    N4  331   7.237   7.828   1.320
    1CHTO   H41  332   7.318   7.772   1.364
    1CHTO   H42  333   7.277   7.918   1.274
    1CHTO   C22  334   7.068   7.741   1.486
    1CHTO   H50  335   7.143   7.679   1.535
    1CHTO   O14  336   6.969   7.784   1.581
    1CHTO   C23  337   7.023   7.852   1.696
    1CHTO   H51  338   7.092   7.781   1.745
    1CHTO   C34  339   6.909   7.878   1.795
    1CHTO   O23  340   6.802   7.953   1.737
    1CHTO   H38  341   6.830   8.041   1.719
    1CHTO   O16  342   6.988   7.664   1.394
    1CHTO   C24  343   7.054   7.522   1.348
    1CHTO   H52  344   7.162   7.521   1.362
    1CHTO   C26  345   7.021   7.502   1.199
    1CHTO   H54  346   6.911   7.507   1.186
    1CHTO   O20  347   7.080   7.610   1.124
    1CHTO   H36  348   7.053   7.605   1.034
    1CHTO   C30  349   7.070   7.363   1.148
    1CHTO   H58  350   7.180   7.361   1.145
    1CHTO    N6  351   7.026   7.336   1.008
    1CHTO   H45  352   7.066   7.410   0.942
    1CHTO   H46  353   6.918   7.338   1.003
    1CHTO   C33  354   7.029   7.248   1.245
    1CHTO   H61  355   6.921   7.229   1.239
    1CHTO   O18  356   7.061   7.284   1.381
    1CHTO   C28  357   6.996   7.402   1.430
    1CHTO   H56  358   6.889   7.397   1.414
    1CHTO   C35  359   7.027   7.410   1.581
    1CHTO   O24  360   6.940   7.500   1.651
    1CHTO   H39  361   6.965   7.503   1.742
    1CHTO    O9  362   7.093   7.124   1.207
    1CHTO   C13  363   7.047   6.997   1.289
    1CHTO   H26  364   6.954   7.022   1.345
    1CHTO   C11  365   7.165   6.955   1.388
    1CHTO   H24  366   7.165   7.026   1.472
    1CHTO    O8  367   7.291   6.964   1.320
    1CHTO    H3  368   7.362   6.949   1.380
    1CHTO    C9  369   7.136   6.811   1.440
    1CHTO   H22  370   7.035   6.816   1.484
    1CHTO    N2  371   7.224   6.774   1.554
    1CHTO   H10  372   7.190   6.680   1.597
    1CHTO   H11  373   7.326   6.765   1.521
    1CHTO    C7  374   7.133   6.709   1.319
    1CHTO   H20  375   7.048   6.641   1.344
    1CHTO    O4  376   7.108   6.773   1.192
    1CHTO   C14  377   7.007   6.876   1.193
    1CHTO   H27  378   6.912   6.831   1.229
    1CHTO   C18  379   6.984   6.918   1.046
    1CHTO   O13  380   6.875   7.009   1.033
    1CHTO    H7  381   6.864   7.033   0.943
    1CHTO    O2  382   7.270   6.620   1.305
    1CHTO    C1  383   7.284   6.537   1.188
    1CHTO   H14  384   7.241   6.589   1.100
    1CHTO    C2  385   7.214   6.395   1.201
    1CHTO   H15  386   7.247   6.354   1.298
    1CHTO    O6  387   7.072   6.414   1.203
    1CHTO    H1  388   7.029   6.333   1.221
    1CHTO    C3  389   7.260   6.297   1.081
    1CHTO   H16  390   7.217   6.334   0.987
    1CHTO    N1  391   7.208   6.158   1.102
    1CHTO    H8  392   7.238   6.095   1.019
    1CHTO    H9  393   7.247   6.117   1.194
    1CHTO    C4  394   7.416   6.302   1.063
    1CHTO   H17  395   7.464   6.258   1.150
    1CHTO    O1  396   7.459   6.439   1.046
    1CHTO    C5  397   7.436   6.521   1.161
    1CHTO   H18  398   7.481   6.475   1.249
    1CHTO   C16  399   7.502   6.659   1.137
    1CHTO   O11  400   7.645   6.648   1.128
    1CHTO    H5  401   7.669   6.603   1.050
    1CHTO    O3  402   7.462   6.239   0.941
    1CHTO    C6  403   7.556   6.126   0.954
    1CHTO   H19  404   7.552   6.078   1.052
    1CHTO    C8  405   7.520   6.018   0.846
    1CHTO   H21  406   7.513   6.068   0.749
    1CHTO    O7  407   7.392   5.964   0.882
    1CHTO    H2  408   7.363   5.904   0.816
    1CHTO   C12  409   7.631   5.905   0.838
    1CHTO   H25  410   7.625   5.847   0.933
    1CHTO    N3  411   7.603   5.809   0.726
    1CHTO   H12  412   7.599   5.861   0.632
    1CHTO   H13  413   7.510   5.757   0.745
    1CHTO   C15  414   7.774   5.970   0.828
    1CHTO   H28  415   7.790   6.020   0.733
    1CHTO   O10  416   7.888   5.869   0.851
    1CHTO    H4  417   7.888   5.806   0.782
    1CHTO    O5  418   7.794   6.062   0.936
    1CHTO   C10  419   7.703   6.173   0.933
    1CHTO   H23  420   7.712   6.222   0.836
    1CHTO   C17  421   7.750   6.273   1.040
    1CHTO   O12  422   7.874   6.336   1.003
    1CHTO    H6  423   7.943   6.273   1.008
    2CHTO  H203  424   6.925   4.272   2.571
    2CHTO   O82  425   6.878   4.332   2.625
    2CHTO  C123  426   6.774   4.396   2.549
    2CHTO  H227  427   6.815   4.427   2.452
    2CHTO   O77  428   6.676   4.289   2.529
    2CHTO  C118  429   6.564   4.325   2.446
    2CHTO  H222  430   6.601   4.359   2.348
    2CHTO  C125  431   6.480   4.193   2.424
    2CHTO   O84  432   6.431   4.137   2.547
    2CHTO  H205  433   6.503   4.104   2.598
    2CHTO  C114  434   6.484   4.438   2.513
    2CHTO  H218  435   6.445   4.402   2.608
    2CHTO  C116  436   6.576   4.560   2.544
    2CHTO  H220  437   6.606   4.609   2.448
    2CHTO   O79  438   6.498   4.657   2.617
    2CHTO  H201  439   6.549   4.735   2.631
    2CHTO  C120  440   6.705   4.515   2.625
    2CHTO  H224  441   6.669   4.481   2.725
    2CHTO   N21  442   6.799   4.628   2.647
    2CHTO  H211  443   6.855   4.612   2.738
    2CHTO  H212  444   6.745   4.722   2.654
    2CHTO   O75  445   6.377   4.471   2.422
    2CHTO  C112  446   6.225   4.425   2.474
    2CHTO  H216  447   6.231   4.390   2.578
    2CHTO   O73  448   6.180   4.321   2.385
    2CHTO  C113  449   6.055   4.261   2.423
    2CHTO  H217  450   6.064   4.221   2.526
    2CHTO  C124  451   6.028   4.143   2.329
    2CHTO   O83  452   6.128   4.042   2.339
    2CHTO  H204  453   6.122   3.999   2.423
    2CHTO  C109  454   5.942   4.367   2.417
    2CHTO  H213  455   5.931   4.397   2.312
    2CHTO  C110  456   5.979   4.491   2.504
    2CHTO  H214  457   5.977   4.461   2.610
    2CHTO   O78  458   5.878   4.591   2.487
    2CHTO  H200  459   5.893   4.663   2.545
    2CHTO  C111  460   6.121   4.544   2.467
    2CHTO  H215  461   6.119   4.580   2.363
    2CHTO   N19  462   6.166   4.658   2.551
    2CHTO  H207  463   6.168   4.629   2.655
    2CHTO  H208  464   6.099   4.742   2.538
    2CHTO   O74  465   5.816   4.307   2.463
    2CHTO  C115  466   5.694   4.327   2.362
    2CHTO  H219  467   5.715   4.404   2.288
    2CHTO   O76  468   5.668   4.195   2.276
    2CHTO  C122  469   5.602   4.092   2.351
    2CHTO  H226  470   5.667   4.064   2.434
    2CHTO  C126  471   5.590   3.963   2.261
    2CHTO   O85  472   5.717   3.911   2.222
    2CHTO  H206  473   5.761   3.876   2.297
    2CHTO  C121  474   5.460   4.138   2.405
    2CHTO  H225  475   5.380   4.088   2.346
    2CHTO   O81  476   5.446   4.096   2.542
    2CHTO  H202  477   5.358   4.110   2.571
    2CHTO  C119  478   5.441   4.293   2.393
    2CHTO  H223  479   5.437   4.311   2.285
    2CHTO  C117  480   5.567   4.369   2.448
    2CHTO  H221  481   5.593   4.347   2.551
    2CHTO   N20  482   5.549   4.517   2.444
    2CHTO  H209  483   5.462   4.545   2.502
    2CHTO  H210  484   5.636   4.567   2.483
    2CHTO   O80  485   5.295   4.343   2.439
    2CHTO  C103  486   5.202   4.411   2.334
    2CHTO  H190  487   5.261   4.474   2.267
    2CHTO  C101  488   5.114   4.315   2.247
    2CHTO  H188  489   5.054   4.252   2.313
    2CHTO   O68  490   5.206   4.223   2.164
    2CHTO  H168  491   5.256   4.274   2.103
    2CHTO   C99  492   5.013   4.399   2.154
    2CHTO  H186  493   5.074   4.455   2.079
    2CHTO   N17  494   4.916   4.314   2.076
    2CHTO  H174  495   4.923   4.210   2.107
    2CHTO  H175  496   4.935   4.323   1.970
    2CHTO   C97  497   4.938   4.507   2.236
    2CHTO  H184  498   4.861   4.458   2.298
    2CHTO   O64  499   5.030   4.583   2.317
    2CHTO  C104  500   5.106   4.507   2.412
    2CHTO  H191  501   5.041   4.448   2.477
    2CHTO  C108  502   5.182   4.603   2.505
    2CHTO   O71  503   5.092   4.681   2.584
    2CHTO  H171  504   5.141   4.738   2.640
    2CHTO   O62  505   4.876   4.605   2.149
    2CHTO   C91  506   4.791   4.704   2.212
    2CHTO  H178  507   4.795   4.689   2.320
    2CHTO   C92  508   4.642   4.678   2.170
    2CHTO  H179  509   4.618   4.570   2.180
    2CHTO   O66  510   4.557   4.744   2.266
    2CHTO  H166  511   4.564   4.703   2.350
    2CHTO   C93  512   4.605   4.734   2.027
    2CHTO  H180  513   4.496   4.744   2.025
    2CHTO   N16  514   4.638   4.640   1.917
    2CHTO  H172  515   4.743   4.618   1.917
    2CHTO  H173  516   4.580   4.549   1.928
    2CHTO   C94  517   4.669   4.877   2.003
    2CHTO  H181  518   4.753   4.873   1.932
    2CHTO   O61  519   4.724   4.931   2.125
    2CHTO   C95  520   4.833   4.854   2.178
    2CHTO  H182  521   4.915   4.853   2.105
    2CHTO  C106  522   4.887   4.931   2.304
    2CHTO   O69  523   5.010   4.876   2.352
    2CHTO  H169  524   5.078   4.891   2.290
    2CHTO   O63  525   4.555   4.975   1.942
    2CHTO   C96  526   4.544   5.122   2.006
    2CHTO  H183  527   4.638   5.146   2.057
    2CHTO   C98  528   4.429   5.136   2.109
    2CHTO  H185  529   4.336   5.096   2.065
    2CHTO   O67  530   4.458   5.050   2.221
    2CHTO  H167  531   4.535   5.080   2.266
    2CHTO  C102  532   4.406   5.288   2.157
    2CHTO  H189  533   4.495   5.314   2.217
    2CHTO   N18  534   4.289   5.310   2.246
    2CHTO  H176  535   4.321   5.351   2.341
    2CHTO  H177  536   4.236   5.217   2.263
    2CHTO  C105  537   4.403   5.381   2.033
    2CHTO  H192  538   4.312   5.362   1.976
    2CHTO   O65  539   4.516   5.360   1.945
    2CHTO  C100  540   4.526   5.227   1.891
    2CHTO  H187  541   4.434   5.204   1.835
    2CHTO  C107  542   4.646   5.223   1.792
    2CHTO   O70  543   4.625   5.309   1.680
    2CHTO  H170  544   4.629   5.399   1.708
    2CHTO   O57  545   4.405   5.537   2.086
    2CHTO   C85  546   4.342   5.638   2.005
    2CHTO  H157  547   4.250   5.591   1.963
    2CHTO   C83  548   4.433   5.672   1.883
    2CHTO  H155  549   4.447   5.581   1.824
    2CHTO   O56  550   4.564   5.710   1.930
    2CHTO  H135  551   4.559   5.790   1.978
    2CHTO   C81  552   4.363   5.778   1.793
    2CHTO  H153  553   4.267   5.738   1.763
    2CHTO   N14  554   4.435   5.804   1.665
    2CHTO  H141  555   4.530   5.756   1.664
    2CHTO  H142  556   4.377   5.770   1.582
    2CHTO   C79  557   4.337   5.909   1.877
    2CHTO  H151  558   4.278   5.976   1.814
    2CHTO   O52  559   4.255   5.879   1.995
    2CHTO   C86  560   4.308   5.773   2.081
    2CHTO  H158  561   4.399   5.817   2.127
    2CHTO   C90  562   4.208   5.751   2.197
    2CHTO   O60  563   4.260   5.667   2.301
    2CHTO  H138  564   4.269   5.579   2.269
    2CHTO   O50  565   4.457   5.978   1.916
    2CHTO   C73  566   4.494   6.110   1.959
    2CHTO  H145  567   4.413   6.155   2.018
    2CHTO   C74  568   4.526   6.203   1.837
    2CHTO  H146  569   4.435   6.206   1.775
    2CHTO   O54  570   4.546   6.337   1.886
    2CHTO  H133  571   4.465   6.372   1.920
    2CHTO   C75  572   4.650   6.145   1.759
    2CHTO  H147  573   4.621   6.048   1.715
    2CHTO   N13  574   4.693   6.227   1.643
    2CHTO  H139  575   4.776   6.180   1.592
    2CHTO  H140  576   4.724   6.325   1.676
    2CHTO   C76  577   4.773   6.116   1.859
    2CHTO  H148  578   4.814   6.212   1.891
    2CHTO   O49  579   4.728   6.040   1.976
    2CHTO   C77  580   4.621   6.100   2.049
    2CHTO  H149  581   4.650   6.201   2.081
    2CHTO   C88  582   4.598   6.020   2.178
    2CHTO   O58  583   4.491   6.081   2.263
    2CHTO  H136  584   4.519   6.165   2.294
    2CHTO   O51  585   4.885   6.022   1.781
    2CHTO   C78  586   4.985   5.943   1.878
    2CHTO  H150  587   4.940   5.928   1.979
    2CHTO   C80  588   5.119   6.017   1.893
    2CHTO  H152  589   5.167   6.024   1.793
    2CHTO   O55  590   5.088   6.150   1.940
    2CHTO  H134  591   5.166   6.202   1.941
    2CHTO   C84  592   5.213   5.939   1.993
    2CHTO  H156  593   5.165   5.941   2.091
    2CHTO   N15  594   5.347   6.005   2.011
    2CHTO  H143  595   5.399   6.008   1.917
    2CHTO  H144  596   5.406   5.951   2.082
    2CHTO   C87  597   5.228   5.791   1.951
    2CHTO  H159  598   5.296   5.783   1.865
    2CHTO   O53  599   5.088   5.727   1.913
    2CHTO   C82  600   5.009   5.802   1.820
    2CHTO  H154  601   5.059   5.808   1.723
    2CHTO   C89  602   4.874   5.730   1.797
    2CHTO   O59  603   4.894   5.598   1.744
    2CHTO  H137  604   4.811   5.556   1.734
    2CHTO   O45  605   5.295   5.702   2.078
    2CHTO   C67  606   5.201   5.629   2.158
    2CHTO  H124  607   5.103   5.675   2.151
    2CHTO   C65  608   5.190   5.479   2.109
    2CHTO  H122  609   5.270   5.466   2.035
    2CHTO   O44  610   5.063   5.466   2.043
    2CHTO  H102  611   4.993   5.467   2.105
    2CHTO   C63  612   5.221   5.375   2.222
    2CHTO  H120  613   5.325   5.388   2.254
    2CHTO   N11  614   5.220   5.230   2.181
    2CHTO  H108  615   5.318   5.188   2.185
    2CHTO  H109  616   5.154   5.173   2.244
    2CHTO   C61  617   5.131   5.411   2.346
    2CHTO  H118  618   5.164   5.347   2.430
    2CHTO   O40  619   5.148   5.550   2.390
    2CHTO   C68  620   5.238   5.635   2.312
    2CHTO  H125  621   5.343   5.602   2.328
    2CHTO   C72  622   5.229   5.781   2.365
    2CHTO   O48  623   5.269   5.793   2.502
    2CHTO  H105  624   5.207   5.749   2.557
    2CHTO   O38  625   4.992   5.386   2.316
    2CHTO   C55  626   4.894   5.405   2.421
    2CHTO  H112  627   4.929   5.481   2.493
    2CHTO   C56  628   4.861   5.268   2.492
    2CHTO  H113  629   4.832   5.197   2.412
    2CHTO   O42  630   4.979   5.215   2.554
    2CHTO  H100  631   4.962   5.130   2.590
    2CHTO   C57  632   4.743   5.285   2.596
    2CHTO  H114  633   4.783   5.344   2.678
    2CHTO   N10  634   4.695   5.156   2.654
    2CHTO  H106  635   4.775   5.085   2.660
    2CHTO  H107  636   4.655   5.173   2.753
    2CHTO   C58  637   4.625   5.363   2.532
    2CHTO  H115  638   4.572   5.297   2.458
    2CHTO   O37  639   4.669   5.482   2.466
    2CHTO   C59  640   4.763   5.462   2.360
    2CHTO  H116  641   4.722   5.392   2.286
    2CHTO   C70  642   4.788   5.596   2.289
    2CHTO   O46  643   4.671   5.647   2.224
    2CHTO  H103  644   4.607   5.671   2.288
    2CHTO   O39  645   4.521   5.412   2.648
    2CHTO   C60  646   4.399   5.469   2.600
    2CHTO  H117  647   4.404   5.484   2.492
    2CHTO   C62  648   4.277   5.376   2.631
    2CHTO  H119  649   4.295   5.282   2.574
    2CHTO   O43  650   4.273   5.346   2.772
    2CHTO  H101  651   4.348   5.294   2.796
    2CHTO   C66  652   4.142   5.445   2.577
    2CHTO  H123  653   4.152   5.463   2.470
    2CHTO   N12  654   4.022   5.358   2.592
    2CHTO  H110  655   4.037   5.265   2.538
    2CHTO  H111  656   3.934   5.409   2.557
    2CHTO   C69  657   4.124   5.583   2.646
    2CHTO  H126  658   4.112   5.570   2.756
    2CHTO   O41  659   4.253   5.669   2.615
    2CHTO   C64  660   4.378   5.610   2.663
    2CHTO  H121  661   4.373   5.598   2.774
    2CHTO   C71  662   4.494   5.708   2.632
    2CHTO   O47  663   4.504   5.738   2.493
    2CHTO  H104  664   4.530   5.662   2.445
    2CHTO   O34  665   3.996   5.662   2.590
    2CHTO   C49  666   3.992   5.815   2.609
    2CHTO   H91  667   4.092   5.848   2.636
    2CHTO   C47  668   3.897   5.849   2.725
    2CHTO   H89  669   3.913   5.957   2.747
    2CHTO   O33  670   3.936   5.773   0.013
    2CHTO   H70  671   3.920   5.682   2.828
    2CHTO   C45  672   3.744   5.826   2.680
    2CHTO   H87  673   3.734   5.722   2.645
    2CHTO    N8  674   3.648   5.848   2.791
    2CHTO   H75  675   3.670   5.782   0.045
    2CHTO   H76  676   3.652   5.951   2.824
    2CHTO   C43  677   3.714   5.918   2.552
    2CHTO   H85  678   3.612   5.896   2.522
    2CHTO   O29  679   3.808   5.889   2.447
    2CHTO   C50  680   3.949   5.887   2.477
    2CHTO   H92  681   3.997   5.831   2.394
    2CHTO   C54  682   4.010   6.029   2.462
    2CHTO   O36  683   4.153   6.027   2.469
    2CHTO   H72  684   4.186   6.115   2.460
    2CHTO   O27  685   3.717   6.059   2.584
    2CHTO   C37  686   3.687   6.187   2.528
    2CHTO   H79  687   3.751   6.205   2.440
    2CHTO   C38  688   3.538   6.195   2.480
    2CHTO   H80  689   3.474   6.160   2.562
    2CHTO   O31  690   3.523   6.105   2.368
    2CHTO   H68  691   3.531   6.016   2.397
    2CHTO   C39  692   3.496   6.342   2.439
    2CHTO   H81  693   3.549   6.368   2.348
    2CHTO    N7  694   3.349   6.355   2.410
    2CHTO   H73  695   3.326   6.457   2.381
    2CHTO   H74  696   3.321   6.288   2.330
    2CHTO   C40  697   3.541   6.445   2.550
    2CHTO   H82  698   3.483   6.429   2.641
    2CHTO   O26  699   3.682   6.427   2.573
    2CHTO   C41  700   3.715   6.299   2.633
    2CHTO   H83  701   3.653   6.282   2.723
    2CHTO   C52  702   3.863   6.309   2.677
    2CHTO   O35  703   3.904   6.203   2.767
    2CHTO   H71  704   3.861   6.212   0.021
    2CHTO   O28  705   3.528   6.583   2.510
    2CHTO   C42  706   3.538   6.692   2.607
    2CHTO   H84  707   3.533   6.782   2.546
    2CHTO   C44  708   3.672   6.703   2.688
    2CHTO   H86  709   3.684   6.613   2.748
    2CHTO   O32  710   3.779   6.707   2.592
    2CHTO   H69  711   3.775   6.785   2.540
    2CHTO   C48  712   3.673   6.827   2.787
    2CHTO   H90  713   3.664   6.918   2.727
    2CHTO    N9  714   3.801   6.840   0.037
    2CHTO   H77  715   3.848   6.935   0.016
    2CHTO   H78  716   3.869   6.759   0.014
    2CHTO   C51  717   3.548   6.815   0.052
    2CHTO   H93  718   3.556   6.720   0.107
    2CHTO   O30  719   3.430   6.819   2.798
    2CHTO   C46  720   3.417   6.697   2.706
    2CHTO   H88  721   3.417   6.607   2.767
    2CHTO   C53  722   3.284   6.710   2.629
    2CHTO   O72  723   3.173   6.704   2.719
    2CHTO  H199  724   3.093   6.711   2.671
    2CHTO   O22  725   3.530   6.925   0.144
    2CHTO   C31  726   3.468   6.907   0.278
    2CHTO   H59  727   3.424   7.006   0.304
    2CHTO   C29  728   3.353   6.804   0.284
    2CHTO   H57  729   3.390   6.710   0.240
    2CHTO   O21  730   3.247   6.851   0.198
    2CHTO   H37  731   3.276   6.854   0.109
    2CHTO   C27  732   3.302   6.774   0.431
    2CHTO   H55  733   3.251   6.864   0.469
    2CHTO    N5  734   3.206   6.661   0.434
    2CHTO   H43  735   3.239   6.583   0.502
    2CHTO   H44  736   3.108   6.696   0.462
    2CHTO   C25  737   3.425   6.750   0.525
    2CHTO   H53  738   3.479   6.661   0.489
    2CHTO   O17  739   3.515   6.864   0.517
    2CHTO   C32  740   3.576   6.879   0.387
    2CHTO   H60  741   3.631   6.789   0.361
    2CHTO   C36  742   3.676   6.998   0.395
    2CHTO   O25  743   3.780   6.973   0.490
    2CHTO   H40  744   3.837   6.905   0.459
    2CHTO   O15  745   3.381   6.728   0.681
    2CHTO   C19  746   3.364   6.612   0.768
    2CHTO   H47  747   3.266   6.572   0.739
    2CHTO   C20  748   3.472   6.501   0.745
    2CHTO   H48  749   3.574   6.543   0.743
    2CHTO   O19  750   3.444   6.446   0.615
    2CHTO   H35  751   3.512   6.387   0.590
    2CHTO   C21  752   3.469   6.385   0.853
    2CHTO   H49  753   3.381   6.323   0.833
    2CHTO    N4  754   3.587   6.295   0.844
    2CHTO   H41  755   3.678   6.351   0.858
    2CHTO   H42  756   3.590   6.247   0.747
    2CHTO   C22  757   3.449   6.442   0.995
    2CHTO   H50  758   3.540   6.493   1.028
    2CHTO   O14  759   3.337   6.532   0.999
    2CHTO   C23  760   3.353   6.650   0.918
    2CHTO   H51  761   3.442   6.704   0.954
    2CHTO   C34  762   3.231   6.740   0.942
    2CHTO   O23  763   3.221   6.782   1.079
    2CHTO   H38  764   3.199   6.709   1.133
    2CHTO   O16  765   3.413   6.336   1.086
    2CHTO   C24  766   3.441   6.364   1.240
    2CHTO   H52  767   3.448   6.471   1.261
    2CHTO   C26  768   3.571   6.294   1.280
    2CHTO   H54  769   3.566   6.187   1.247
    2CHTO   O20  770   3.679   6.357   1.208
    2CHTO   H36  771   3.759   6.310   1.221
    2CHTO   C30  772   3.592   6.296   1.434
    2CHTO   H58  773   3.605   6.400   1.468
    2CHTO    N6  774   3.716   6.223   1.474
    2CHTO   H45  775   3.783   6.289   1.528
    2CHTO   H46  776   3.693   6.137   1.535
    2CHTO   C33  777   3.464   6.242   1.506
    2CHTO   H61  778   3.450   6.136   1.479
    2CHTO   O18  779   3.349   6.316   1.461
    2CHTO   C28  780   3.320   6.310   1.321
    2CHTO   H56  781   3.299   6.208   1.291
    2CHTO   C35  782   3.193   6.396   1.299
    2CHTO   O24  783   3.142   6.391   1.166
    2CHTO   H39  784   3.202   6.433   1.107
    2CHTO    O9  785   3.476   6.243   1.650
    2CHTO   C13  786   3.390   6.357   1.735
    2CHTO   H26  787   3.283   6.341   1.712
    2CHTO   C11  788   3.437   6.502   1.694
    2CHTO   H24  789   3.415   6.517   1.587
    2CHTO    O8  790   3.579   6.516   1.711
    2CHTO    H3  791   3.608   6.599   1.678
    2CHTO    C9  792   3.353   6.601   1.778
    2CHTO   H22  793   3.249   6.568   1.768
    2CHTO    N2  794   3.353   6.740   1.724
    2CHTO   H10  795   3.322   6.738   1.620
    2CHTO   H11  796   3.286   6.802   1.781
    2CHTO    C7  797   3.396   6.588   1.930
    2CHTO   H20  798   3.303   6.611   1.985
    2CHTO    O4  799   3.441   6.456   1.967
    2CHTO   C14  800   3.403   6.338   1.893
    2CHTO   H27  801   3.304   6.306   1.932
    2CHTO   C18  802   3.504   6.227   1.933
    2CHTO   O13  803   3.638   6.263   1.899
    2CHTO    H7  804   3.697   6.193   1.922
    2CHTO    O2  805   3.513   6.691   1.968
    2CHTO    C1  806   3.513   6.736   2.105
    2CHTO   H14  807   3.479   6.653   2.171
    2CHTO    C2  808   3.419   6.862   2.127
    2CHTO   H15  809   3.439   6.931   2.043
    2CHTO    O6  810   3.282   6.820   2.122
    2CHTO    H1  811   3.259   6.793   2.035
    2CHTO    C3  812   3.453   6.936   2.266
    2CHTO   H16  813   3.431   6.868   2.350
    2CHTO    N1  814   3.371   7.060   2.286
    2CHTO    H8  815   3.390   7.130   2.205
    2CHTO    H9  816   3.266   7.035   2.288
    2CHTO    C4  817   3.608   6.960   2.270
    2CHTO   H17  818   3.637   7.017   2.181
    2CHTO    O1  819   3.673   6.832   2.269
    2CHTO    C5  820   3.662   6.764   2.143
    2CHTO   H18  821   3.707   6.827   2.066
    2CHTO   C16  822   3.746   6.634   2.156
    2CHTO   O11  823   3.760   6.565   2.032
    2CHTO    H5  824   3.677   6.533   2.003
    2CHTO    O3  825   3.656   7.028   2.389
    2CHTO    C6  826   3.752   7.138   2.365
    2CHTO   H19  827   3.791   7.139   2.263
    2CHTO    C8  828   3.679   7.275   2.386
    2CHTO   H21  829   3.620   7.269   2.478
    2CHTO    O7  830   3.590   7.295   2.274
    2CHTO    H2  831   3.639   7.303   2.194
    2CHTO   C12  832   3.780   7.397   2.400
    2CHTO   H25  833   3.823   7.413   2.299
    2CHTO    N3  834   3.708   7.523   2.437
    2CHTO   H12  835   3.634   7.547   2.362
    2CHTO   H13  836   3.779   7.604   2.447
    2CHTO   C15  837   3.895   7.360   2.499
    2CHTO   H28  838   3.859   7.350   2.602
    2CHTO   O10  839   4.014   7.461   2.494
    2CHTO    H4  840   4.043   7.474   2.406
    2CHTO    O5  841   3.958   7.238   2.457
    2CHTO   C10  842   3.874   7.122   2.460
    2CHTO   H23  843   3.842   7.104   2.563
    2CHTO   C17  844   3.969   7.007   2.421
    2CHTO   O12  845   3.907   6.879   2.418
    2CHTO    H6  846   3.846   6.874   2.348
    3CHTO  H203  847   8.309   0.927   1.127
    3CHTO   O82  848   8.265   0.987   1.185
    3CHTO  C123  849   8.172   0.915   1.267
    3CHTO  H227  850   8.226   0.838   1.324
    3CHTO   O77  851   8.122   1.018   1.357
    3CHTO  C118  852   8.031   0.970   1.457
    3CHTO  H222  853   8.078   0.890   1.516
    3CHTO  C125  854   7.997   1.090   1.553
    3CHTO   O84  855   8.113   1.130   1.627
    3CHTO  H205  856   8.090   1.200   1.685
    3CHTO  C114  857   7.904   0.916   1.389
    3CHTO  H218  858   7.856   0.997   1.335
    3CHTO  C116  859   7.939   0.804   1.286
    3CHTO  H220  860   7.974   0.714   1.341
    3CHTO   O79  861   7.819   0.765   1.216
    3CHTO  H201  862   7.760   0.722   1.275
    3CHTO  C120  863   8.052   0.853   1.186
    3CHTO  H224  864   8.005   0.931   1.122
    3CHTO   N21  865   8.096   0.743   1.095
    3CHTO  H211  866   8.130   0.784   1.001
    3CHTO  H212  867   8.174   0.685   1.141
    3CHTO   O75  868   7.820   0.871   1.497
    3CHTO  C112  869   7.661   0.894   1.468
    3CHTO  H216  870   7.639   0.866   1.364
    3CHTO   O73  871   7.633   1.032   1.493
    3CHTO  C113  872   7.500   1.069   1.456
    3CHTO  H217  873   7.485   1.046   1.348
    3CHTO  C124  874   7.486   1.221   1.471
    3CHTO   O83  875   7.573   1.296   1.386
    3CHTO  H204  876   7.547   1.286   1.297
    3CHTO  C109  877   7.394   0.994   1.541
    3CHTO  H213  878   7.399   1.036   1.643
    3CHTO  C110  879   7.422   0.840   1.544
    3CHTO  H214  880   7.387   0.798   1.449
    3CHTO   O78  881   7.343   0.780   1.648
    3CHTO  H200  882   7.251   0.785   1.627
    3CHTO  C111  883   7.573   0.806   1.565
    3CHTO  H215  884   7.600   0.831   1.668
    3CHTO   N19  885   7.603   0.662   1.545
    3CHTO  H207  886   7.545   0.603   1.615
    3CHTO  H208  887   7.708   0.643   1.562
    3CHTO   O74  888   7.262   1.023   1.485
    3CHTO  C115  889   7.136   1.014   1.585
    3CHTO  H219  890   7.160   0.957   1.675
    3CHTO   O76  891   7.092   1.159   1.636
    3CHTO  C122  892   6.973   1.163   1.715
    3CHTO  H226  893   6.948   1.268   1.731
    3CHTO  C126  894   7.005   1.105   1.858
    3CHTO   O85  895   6.892   1.104   1.946
    3CHTO  H206  896   6.917   1.068   2.028
    3CHTO  C121  897   6.851   1.091   1.645
    3CHTO  H225  898   6.767   1.086   1.717
    3CHTO   O81  899   6.808   1.171   1.534
    3CHTO  H202  900   6.726   1.139   1.500
    3CHTO  C119  901   6.886   0.946   1.598
    3CHTO  H223  902   6.906   0.889   1.689
    3CHTO  C117  903   7.017   0.943   1.510
    3CHTO  H221  904   7.010   0.995   1.414
    3CHTO   N20  905   7.053   0.801   1.475
    3CHTO  H209  906   6.972   0.755   1.421
    3CHTO  H210  907   7.074   0.745   1.565
    3CHTO   O80  908   6.759   0.865   1.536
    3CHTO  C103  909   6.630   0.842   1.623
    3CHTO  H190  910   6.646   0.874   1.727
    3CHTO  C101  911   6.500   0.912   1.568
    3CHTO  H188  912   6.493   0.893   1.461
    3CHTO   O68  913   6.513   1.067   1.590
    3CHTO  H168  914   6.585   1.100   1.539
    3CHTO   C99  915   6.368   0.854   1.638
    3CHTO  H186  916   6.371   0.877   1.746
    3CHTO   N17  917   6.240   0.912   1.584
    3CHTO  H174  918   6.243   1.020   1.592
    3CHTO  H175  919   6.156   0.871   1.638
    3CHTO   C97  920   6.369   0.699   1.628
    3CHTO  H184  921   6.363   0.670   1.521
    3CHTO   O64  922   6.488   0.647   1.690
    3CHTO  C104  923   6.611   0.685   1.625
    3CHTO  H191  924   6.614   0.648   1.523
    3CHTO  C108  925   6.728   0.618   1.699
    3CHTO   O71  926   6.719   0.475   1.695
    3CHTO  H171  927   6.734   0.445   1.607
    3CHTO   O62  928   6.263   0.637   1.704
    3CHTO   C91  929   6.210   0.511   1.659
    3CHTO  H178  930   6.261   0.481   1.568
    3CHTO   C92  931   6.060   0.533   1.620
    3CHTO  H179  932   6.010   0.588   1.702
    3CHTO   O66  933   6.059   0.621   1.506
    3CHTO  H166  934   5.971   0.644   1.483
    3CHTO   C93  935   5.985   0.398   1.590
    3CHTO  H180  936   6.030   0.357   1.498
    3CHTO   N16  937   5.841   0.418   1.557
    3CHTO  H172  938   5.795   0.323   1.533
    3CHTO  H173  939   5.790   0.464   1.641
    3CHTO   C94  940   6.003   0.293   1.707
    3CHTO  H181  941   5.912   0.279   1.765
    3CHTO   O61  942   6.100   0.333   1.806
    3CHTO   C95  943   6.224   0.395   1.766
    3CHTO  H182  944   6.270   0.439   1.855
    3CHTO  C106  945   6.327   0.286   1.719
    3CHTO   O69  946   6.362   0.198   1.826
    3CHTO  H169  947   6.424   0.135   1.796
    3CHTO   O63  948   6.047   0.153   1.641
    3CHTO   C96  949   5.944   0.029   1.661
    3CHTO  H183  950   5.979   9.948   1.597
    3CHTO   C98  951   5.795   0.055   1.625
    3CHTO  H185  952   5.756   0.141   1.681
    3CHTO   O67  953   5.789   0.092   1.486
    3CHTO  H167  954   5.830   0.175   1.473
    3CHTO  C102  955   5.702   9.926   1.651
    3CHTO  H189  956   5.731   9.854   1.573
    3CHTO   N18  957   5.557   9.949   1.633
    3CHTO  H176  958   5.523   0.026   1.701
    3CHTO  H177  959   5.536   9.979   1.531
    3CHTO  C105  960   5.734   9.862   1.789
    3CHTO  H192  961   5.687   9.920   1.868
    3CHTO   O65  962   5.875   9.852   1.818
    3CHTO  C100  963   5.949   9.975   1.809
    3CHTO  H187  964   5.904   0.049   1.877
    3CHTO  C107  965   6.094   9.949   1.855
    3CHTO   O70  966   6.099   9.908   1.992
    3CHTO  H170  967   6.076   9.980   2.048
    3CHTO   O57  968   5.669   9.707   1.781
    3CHTO   C85  969   5.618   9.637   1.896
    3CHTO  H157  970   5.612   9.531   1.863
    3CHTO   C83  971   5.469   9.679   1.922
    3CHTO  H155  972   5.410   9.649   1.835
    3CHTO   O56  973   5.458   9.822   1.931
    3CHTO  H135  974   5.483   9.862   1.850
    3CHTO   C81  975   5.417   9.604   2.048
    3CHTO  H153  976   5.428   9.497   2.031
    3CHTO   N14  977   5.271   9.622   2.069
    3CHTO  H141  978   5.249   9.724   2.092
    3CHTO  H142  979   5.238   9.561   2.151
    3CHTO   C79  980   5.504   9.644   2.172
    3CHTO  H151  981   5.465   9.588   2.258
    3CHTO   O52  982   5.642   9.600   2.151
    3CHTO   C86  983   5.704   9.652   2.029
    3CHTO  H158  984   5.724   9.759   2.051
    3CHTO   C90  985   5.843   9.585   2.011
    3CHTO   O60  986   5.932   9.621   2.117
    3CHTO  H138  987   5.904   9.582   2.197
    3CHTO   O50  988   5.503   9.784   2.202
    3CHTO   C73  989   5.501   9.866   2.320
    3CHTO  H145  990   5.557   9.817   2.401
    3CHTO   C74  991   5.354   9.889   2.366
    3CHTO  H146  992   5.309   9.790   2.381
    3CHTO   O54  993   5.358   9.951   2.495
    3CHTO  H133  994   5.391   9.892   2.560
    3CHTO   C75  995   5.277   9.974   2.257
    3CHTO  H147  996   5.269   9.913   2.166
    3CHTO   N13  997   5.137   0.007   2.295
    3CHTO  H139  998   5.081   9.917   2.312
    3CHTO  H140  999   5.090   0.062   2.215
    3CHTO   C76 1000   5.360   0.105   2.218
    3CHTO  H148 1001   5.359   0.173   2.304
    3CHTO   O49 1002   5.499   0.073   2.184
    3CHTO   C77 1003   5.569   0.003   2.289
    3CHTO  H149 1004   5.570   0.064   2.379
    3CHTO   C88 1005   5.716   9.989   2.245
    3CHTO   O58 1006   5.798   9.928   2.351
    3CHTO  H136 1007   5.887   9.920   2.321
    3CHTO   O51 1008   5.300   0.170   2.085
    3CHTO   C78 1009   5.342   0.318   2.067
    3CHTO  H150 1010   5.437   0.340   2.121
    3CHTO   C80 1011   5.232   0.413   2.120
    3CHTO  H152 1012   5.137   0.391   2.066
    3CHTO   O55 1013   5.214   0.384   2.260
    3CHTO  H134 1014   5.174   0.300   2.271
    3CHTO   C84 1015   5.273   0.564   2.097
    3CHTO  H156 1016   5.361   0.584   2.157
    3CHTO   N15 1017   5.166   0.660   2.142
    3CHTO  H143 1018   5.076   0.644   2.087
    3CHTO  H144 1019   5.199   0.761   2.127
    3CHTO   C87 1020   5.310   0.588   1.948
    3CHTO  H159 1021   5.220   0.586   1.887
    3CHTO   O53 1022   5.408   0.480   1.898
    3CHTO   C82 1023   5.367   0.344   1.917
    3CHTO  H154 1024   5.278   0.323   1.858
    3CHTO   C89 1025   5.480   0.253   1.864
    3CHTO   O59 1026   5.502   0.275   1.724
    3CHTO  H137 1027   5.570   0.219   1.694
    3CHTO   O45 1028   5.385   0.738   1.929
    3CHTO   C67 1029   5.528   0.736   1.945
    3CHTO  H124 1030   5.558   0.645   1.997
    3CHTO   C65 1031   5.600   0.738   1.804
    3CHTO  H122 1032   5.528   0.784   1.735
    3CHTO   O44 1033   5.622   0.602   1.766
    3CHTO  H102 1034   5.690   0.564   1.817
    3CHTO   C63 1035   5.725   0.834   1.800
    3CHTO  H120 1036   5.689   0.937   1.801
    3CHTO   N11 1037   5.806   0.832   1.674
    3CHTO  H108 1038   5.856   0.737   1.665
    3CHTO  H109 1039   5.879   0.910   1.676
    3CHTO   C61 1040   5.806   0.816   1.933
    3CHTO  H118 1041   5.887   0.891   1.931
    3CHTO   O40 1042   5.726   0.844   2.052
    3CHTO   C68 1043   5.581   0.854   2.036
    3CHTO  H125 1044   5.556   0.952   1.989
    3CHTO   C72 1045   5.515   0.853   2.176
    3CHTO   O48 1046   5.552   0.966   2.256
    3CHTO  H105 1047   5.515   1.044   2.219
    3CHTO   O38 1048   5.862   0.683   1.942
    3CHTO   C55 1049   5.956   0.656   2.047
    3CHTO  H112 1050   5.932   0.716   2.136
    3CHTO   C56 1051   6.104   0.683   1.996
    3CHTO  H113 1052   6.114   0.630   1.901
    3CHTO   O42 1053   6.121   0.823   1.967
    3CHTO  H100 1054   6.205   0.838   1.929
    3CHTO   C57 1055   6.212   0.631   2.100
    3CHTO  H114 1056   6.206   0.695   2.187
    3CHTO   N10 1057   6.351   0.640   2.048
    3CHTO  H106 1058   6.378   0.551   1.994
    3CHTO  H107 1059   6.420   0.654   2.130
    3CHTO   C58 1060   6.176   0.486   2.143
    3CHTO  H115 1061   6.185   0.418   2.055
    3CHTO   O37 1062   6.041   0.480   2.193
    3CHTO   C59 1063   5.943   0.508   2.091
    3CHTO  H116 1064   5.958   0.441   2.006
    3CHTO   C70 1065   5.803   0.480   2.146
    3CHTO   O46 1066   5.784   0.343   2.182
    3CHTO  H103 1067   5.697   0.331   2.215
    3CHTO   O39 1068   6.273   0.433   2.267
    3CHTO   C60 1069   6.369   0.334   2.224
    3CHTO  H117 1070   6.367   0.326   2.115
    3CHTO   C62 1071   6.514   0.373   2.265
    3CHTO  H119 1072   6.531   0.476   2.225
    3CHTO   O43 1073   6.526   0.379   2.409
    3CHTO  H101 1074   6.476   0.450   2.443
    3CHTO   C66 1075   6.615   0.272   2.194
    3CHTO  H123 1076   6.598   0.276   2.087
    3CHTO   N12 1077   6.758   0.311   2.213
    3CHTO  H110 1078   6.822   0.242   2.160
    3CHTO  H111 1079   6.782   0.314   2.318
    3CHTO   C69 1080   6.587   0.126   2.239
    3CHTO  H126 1081   6.620   0.109   2.344
    3CHTO   O41 1082   6.432   0.091   2.226
    3CHTO   C64 1083   6.335   0.193   2.280
    3CHTO  H121 1084   6.341   0.196   2.391
    3CHTO   C71 1085   6.192   0.149   2.240
    3CHTO   O47 1086   6.156   0.025   2.303
    3CHTO  H104 1087   6.209   9.956   2.269
    3CHTO   O34 1088   6.661   0.029   2.148
    3CHTO   C49 1089   6.708   9.908   2.078
    3CHTO   H91 1090   6.767   9.946   1.995
    3CHTO   C47 1091   6.587   9.829   2.022
    3CHTO   H89 1092   6.552   9.889   1.934
    3CHTO   O33 1093   6.480   9.821   2.117
    3CHTO   H70 1094   6.447   9.906   2.137
    3CHTO   C45 1095   6.628   9.678   1.980
    3CHTO   H87 1096   6.602   9.612   2.064
    3CHTO    N8 1097   6.549   9.634   1.862
    3CHTO   H75 1098   6.579   9.691   1.775
    3CHTO   H76 1099   6.565   9.529   1.845
    3CHTO   C43 1100   6.787   9.661   1.966
    3CHTO   H85 1101   6.805   9.557   1.941
    3CHTO   O29 1102   6.850   9.699   2.090
    3CHTO   C50 1103   6.797   9.813   2.162
    3CHTO   H92 1104   6.738   9.777   2.248
    3CHTO   C54 1105   6.913   9.891   2.227
    3CHTO   O36 1106   6.984   9.812   2.323
    3CHTO   H72 1107   7.055   9.861   2.358
    3CHTO   O27 1108   6.839   9.739   1.857
    3CHTO   C37 1109   6.958   9.808   1.817
    3CHTO   H79 1110   6.989   9.878   1.895
    3CHTO   C38 1111   7.077   9.708   1.796
    3CHTO   H80 1112   7.044   9.629   1.726
    3CHTO   O31 1113   7.107   9.648   1.923
    3CHTO   H68 1114   7.038   9.591   1.949
    3CHTO   C39 1115   7.204   9.781   1.735
    3CHTO   H81 1116   7.243   9.847   1.813
    3CHTO    N7 1117   7.316   9.686   1.701
    3CHTO   H73 1118   7.290   9.584   1.725
    3CHTO   H74 1119   7.343   9.693   1.596
    3CHTO   C40 1120   7.164   9.872   1.613
    3CHTO   H82 1121   7.138   9.808   1.528
    3CHTO   O26 1122   7.055   9.957   1.651
    3CHTO   C41 1123   6.933   9.887   1.686
    3CHTO   H83 1124   6.905   9.818   1.605
    3CHTO   C52 1125   6.822   9.994   1.698
    3CHTO   O35 1126   6.689   9.937   1.706
    3CHTO   H71 1127   6.626   0.006   1.713
    3CHTO   O28 1128   7.275   9.955   1.570
    3CHTO   C42 1129   7.264   0.089   1.509
    3CHTO   H84 1130   7.364   0.107   1.471
    3CHTO   C44 1131   7.235   0.205   1.612
    3CHTO   H86 1132   7.148   0.178   1.671
    3CHTO   O32 1133   7.349   0.210   1.700
    3CHTO   H69 1134   7.334   0.271   1.769
    3CHTO   C48 1135   7.207   0.345   1.544
    3CHTO   H90 1136   7.300   0.381   1.500
    3CHTO    N9 1137   7.165   0.448   1.645
    3CHTO   H77 1138   7.066   0.485   1.625
    3CHTO   H78 1139   7.236   0.530   1.647
    3CHTO   C51 1140   7.102   0.325   1.429
    3CHTO   H93 1141   7.009   0.287   1.473
    3CHTO   O30 1142   7.158   0.233   1.334
    3CHTO   C46 1143   7.167   0.094   1.386
    3CHTO   H88 1144   7.067   0.060   1.416
    3CHTO   C53 1145   7.218   0.009   1.267
    3CHTO   O72 1146   7.214   9.868   1.293
    3CHTO  H199 1147   7.278   9.846   1.358
    3CHTO   O22 1148   7.078   0.446   1.355
    3CHTO   C31 1149   6.975   0.450   1.249
    3CHTO   H59 1150   6.961   0.345   1.214
    3CHTO   C29 1151   6.836   0.499   1.298
    3CHTO   H57 1152   6.849   0.601   1.338
    3CHTO   O21 1153   6.795   0.416   1.408
    3CHTO   H37 1154   6.718   0.452   1.448
    3CHTO   C27 1155   6.730   0.502   1.181
    3CHTO   H55 1156   6.710   0.399   1.149
    3CHTO    N5 1157   6.601   0.564   1.223
    3CHTO   H43 1158   6.559   0.509   1.306
    3CHTO   H44 1159   6.617   0.667   1.251
    3CHTO   C25 1160   6.791   0.577   1.057
    3CHTO   H53 1161   6.806   0.683   1.082
    3CHTO   O17 1162   6.921   0.521   1.022
    3CHTO   C32 1163   7.020   0.532   1.125
    3CHTO   H60 1164   7.032   0.637   1.154
    3CHTO   C36 1165   7.153   0.481   1.064
    3CHTO   O25 1166   7.265   0.504   1.149
    3CHTO   H40 1167   7.283   0.596   1.153
    3CHTO   O15 1168   6.700   0.565   0.931
    3CHTO   C19 1169   6.675   0.669   0.831
    3CHTO   H47 1170   6.611   0.619   0.757
    3CHTO   C20 1171   6.599   0.793   0.887
    3CHTO   H48 1172   6.657   0.844   0.966
    3CHTO   O19 1173   6.477   0.745   0.946
    3CHTO   H35 1174   6.421   0.708   0.881
    3CHTO   C21 1175   6.571   0.899   0.772
    3CHTO   H49 1176   6.504   0.854   0.699
    3CHTO    N4 1177   6.505   1.023   0.821
    3CHTO   H41 1178   6.566   1.070   0.896
    3CHTO   H42 1179   6.409   0.998   0.864
    3CHTO   C22 1180   6.704   0.929   0.697
    3CHTO   H50 1181   6.771   0.983   0.765
    3CHTO   O14 1182   6.767   0.808   0.652
    3CHTO   C23 1183   6.803   0.715   0.755
    3CHTO   H51 1184   6.874   0.766   0.823
    3CHTO   C34 1185   6.875   0.597   0.690
    3CHTO   O23 1186   6.999   0.637   0.630
    3CHTO   H38 1187   7.041   0.563   0.591
    3CHTO   O16 1188   6.682   1.003   0.575
    3CHTO   C24 1189   6.796   1.113   0.545
    3CHTO   H52 1190   6.877   1.109   0.617
    3CHTO   C26 1191   6.731   1.253   0.549
    3CHTO   H54 1192   6.643   1.253   0.480
    3CHTO   O20 1193   6.681   1.277   0.682
    3CHTO   H36 1194   6.752   1.280   0.744
    3CHTO   C30 1195   6.830   1.364   0.503
    3CHTO   H58 1196   6.907   1.377   0.581
    3CHTO    N6 1197   6.761   1.496   0.490
    3CHTO   H45 1198   6.809   1.569   0.554
    3CHTO   H46 1199   6.763   1.531   0.388
    3CHTO   C33 1200   6.905   1.323   0.372
    3CHTO   H61 1201   6.834   1.325   0.287
    3CHTO   O18 1202   6.957   1.189   0.382
    3CHTO   C28 1203   6.858   1.088   0.405
    3CHTO   H56 1204   6.780   1.094   0.330
    3CHTO   C35 1205   6.923   0.948   0.393
    3CHTO   O24 1206   7.029   0.925   0.486
    3CHTO   H39 1207   7.064   0.839   0.474
    3CHTO    O9 1208   7.009   1.417   0.337
    3CHTO   C13 1209   7.139   1.415   0.437
    3CHTO   H26 1210   7.116   1.352   0.525
    3CHTO   C11 1211   7.173   1.564   0.481
    3CHTO   H24 1212   7.086   1.604   0.535
    3CHTO    O8 1213   7.194   1.644   0.363
    3CHTO    H3 1214   7.114   1.651   0.314
    3CHTO    C9 1215   7.295   1.559   0.578
    3CHTO   H22 1216   7.259   1.506   0.667
    3CHTO    N2 1217   7.332   1.693   0.630
    3CHTO   H10 1218   7.407   1.683   0.707
    3CHTO   H11 1219   7.244   1.742   0.671
    3CHTO    C7 1220   7.414   1.474   0.515
    3CHTO   H20 1221   7.421   1.385   0.582
    3CHTO    O4 1222   7.384   1.430   0.381
    3CHTO   C14 1223   7.267   1.348   0.369
    3CHTO   H27 1224   7.287   1.251   0.420
    3CHTO   C18 1225   7.247   1.316   0.219
    3CHTO   O13 1226   7.356   1.240   0.166
    3CHTO    H7 1227   7.355   1.153   0.203
    3CHTO    O2 1228   7.565   1.547   0.514
    3CHTO    C1 1229   7.667   1.463   0.459
    3CHTO   H14 1230   7.621   1.378   0.403
    3CHTO    C2 1231   7.766   1.403   0.567
    3CHTO   H15 1232   7.813   1.489   0.617
    3CHTO    O6 1233   7.688   1.327   0.662
    3CHTO    H1 1234   7.743   1.298   0.732
    3CHTO    C3 1235   7.877   1.314   0.494
    3CHTO   H16 1236   7.826   1.230   0.443
    3CHTO    N1 1237   7.976   1.254   0.589
    3CHTO    H8 1238   7.925   1.190   0.660
    3CHTO    H9 1239   8.028   1.332   0.642
    3CHTO    C4 1240   7.945   1.398   0.379
    3CHTO   H17 1241   8.007   1.476   0.425
    3CHTO    O1 1242   7.847   1.456   0.292
    3CHTO    C5 1243   7.750   1.542   0.353
    3CHTO   H18 1244   7.799   1.626   0.402
    3CHTO   C16 1245   7.664   1.597   0.236
    3CHTO   O11 1246   7.570   1.696   0.277
    3CHTO    H5 1247   7.522   1.726   0.203
    3CHTO    O3 1248   8.026   1.314   0.294
    3CHTO    C6 1249   8.116   1.386   0.203
    3CHTO   H19 1250   8.092   1.492   0.195
    3CHTO    C8 1251   8.265   1.374   0.251
    3CHTO   H21 1252   8.290   1.268   0.258
    3CHTO    O7 1253   8.275   1.433   0.381
    3CHTO    H2 1254   8.256   1.525   0.377
    3CHTO   C12 1255   8.361   1.442   0.145
    3CHTO   H25 1256   8.337   1.551   0.147
    3CHTO    N3 1257   8.506   1.429   0.184
    3CHTO   H12 1258   8.550   1.527   0.195
    3CHTO   H13 1259   8.518   1.372   0.274
    3CHTO   C15 1260   8.331   1.386   0.001
    3CHTO   H28 1261   8.364   1.283   2.819
    3CHTO   O10 1262   8.396   1.473   2.717
    3CHTO    H4 1263   8.387   1.430   2.634
    3CHTO    O5 1264   8.191   1.397   2.798
    3CHTO   C10 1265   8.105   1.326   0.060
    3CHTO   H23 1266   8.135   1.221   0.062
    3CHTO   C17 1267   7.962   1.332   0.005
    3CHTO   O12 1268   7.950   1.261   2.709
    3CHTO    H6 1269   8.000   1.304   2.642
    4CHTO  H203 1270   6.453   7.135   2.171
    4CHTO   O82 1271   6.402   7.135   2.250
    4CHTO  C123 1272   6.388   7.269   2.301
    4CHTO  H227 1273   6.326   7.265   2.392
    4CHTO   O77 1274   6.525   7.309   2.337
    4CHTO  C118 1275   6.533   7.435   2.404
    4CHTO  H222 1276   6.472   7.433   2.496
    4CHTO  C125 1277   6.683   7.462   2.444
    4CHTO   O84 1278   6.733   7.359   2.530
    4CHTO  H205 1279   6.822   7.378   2.552
    4CHTO  C114 1280   6.482   7.547   2.311
    4CHTO  H218 1281   6.548   7.553   2.225
    4CHTO  C116 1282   6.338   7.516   2.257
    4CHTO  H220 1283   6.265   7.526   2.341
    4CHTO   O79 1284   6.303   7.617   2.161
    4CHTO  H201 1285   6.214   7.605   2.133
    4CHTO  C120 1286   6.330   7.371   2.196
    4CHTO  H224 1287   6.394   7.371   2.105
    4CHTO   N21 1288   6.192   7.334   2.155
    4CHTO  H211 1289   6.138   7.421   2.122
    4CHTO  H212 1290   6.196   7.261   2.075
    4CHTO   O75 1291   6.490   7.669   2.388
    4CHTO  C112 1292   6.530   7.801   2.298
    4CHTO  H216 1293   6.500   7.785   2.193
    4CHTO   O73 1294   6.672   7.820   2.309
    4CHTO  C113 1295   6.724   7.926   2.227
    4CHTO  H217 1296   6.696   7.906   2.121
    4CHTO  C124 1297   6.877   7.919   2.236
    4CHTO   O83 1298   6.943   7.998   2.136
    4CHTO  H204 1299   7.035   7.990   2.146
    4CHTO  C109 1300   6.665   8.063   2.273
    4CHTO  H213 1301   6.702   8.081   2.375
    4CHTO  C110 1302   6.508   8.056   2.273
    4CHTO  H214 1303   6.474   8.051   2.170
    4CHTO   O78 1304   6.455   8.177   2.330
    4CHTO  H200 1305   6.361   8.178   2.321
    4CHTO  C111 1306   6.457   7.930   2.351
    4CHTO  H215 1307   6.483   7.942   2.457
    4CHTO   N19 1308   6.309   7.913   2.345
    4CHTO  H207 1309   6.278   7.900   2.242
    4CHTO  H208 1310   6.279   7.828   2.404
    4CHTO   O74 1311   6.715   8.170   2.186
    4CHTO  C115 1312   6.715   8.320   2.250
    4CHTO  H219 1313   6.635   8.333   2.322
    4CHTO   O76 1314   6.845   8.348   2.330
    4CHTO  C122 1315   6.964   8.341   2.251
    4CHTO  H226 1316   6.981   8.236   2.226
    4CHTO  C126 1317   7.087   8.383   2.340
    4CHTO   O85 1318   7.108   8.293   2.449
    4CHTO  H206 1319   7.038   8.301   2.511
    4CHTO  C121 1320   6.957   8.429   2.119
    4CHTO  H225 1321   7.042   8.500   2.117
    4CHTO   O81 1322   6.972   8.343   2.005
    4CHTO  H202 1323   7.056   8.302   2.006
    4CHTO  C119 1324   6.824   8.511   2.109
    4CHTO  H223 1325   6.829   8.582   2.191
    4CHTO  C117 1326   6.696   8.421   2.129
    4CHTO  H221 1327   6.672   8.358   2.043
    4CHTO   N20 1328   6.574   8.506   2.149
    4CHTO  H209 1329   6.563   8.574   2.065
    4CHTO  H210 1330   6.486   8.444   2.158
    4CHTO   O80 1331   6.820   8.608   1.980
    4CHTO  C103 1332   6.837   8.763   1.999
    4CHTO  H190 1333   6.788   8.796   2.091
    4CHTO  C101 1334   6.985   8.816   1.998
    4CHTO  H188 1335   7.037   8.773   1.912
    4CHTO   O68 1336   7.056   8.766   2.127
    4CHTO  H168 1337   7.147   8.789   2.124
    4CHTO   C99 1338   6.990   8.976   1.985
    4CHTO  H186 1339   6.943   9.021   2.075
    4CHTO   N17 1340   7.128   9.032   1.975
    4CHTO  H174 1341   7.177   8.996   1.886
    4CHTO  H175 1342   7.185   9.006   2.064
    4CHTO   C97 1343   6.902   9.021   1.865
    4CHTO  H184 1344   6.949   8.984   1.773
    4CHTO   O64 1345   6.768   8.969   1.881
    4CHTO  C104 1346   6.757   8.826   1.878
    4CHTO  H191 1347   6.794   8.784   1.785
    4CHTO  C108 1348   6.608   8.789   1.886
    4CHTO   O71 1349   6.534   8.842   1.776
    4CHTO  H171 1350   6.529   8.936   1.782
    4CHTO   O62 1351   6.883   9.164   1.857
    4CHTO   C91 1352   6.846   9.216   1.728
    4CHTO  H178 1353   6.826   9.133   1.660
    4CHTO   C92 1354   6.966   9.296   1.667
    4CHTO  H179 1355   6.998   9.372   1.740
    4CHTO   O66 1356   7.077   9.206   1.652
    4CHTO  H166 1357   7.109   9.178   1.736
    4CHTO   C93 1358   6.929   9.364   1.529
    4CHTO  H180 1359   6.918   9.283   1.456
    4CHTO   N16 1360   7.036   9.453   1.476
    4CHTO  H172 1361   7.127   9.396   1.463
    4CHTO  H173 1362   7.005   9.496   1.382
    4CHTO   C94 1363   6.792   9.442   1.541
    4CHTO  H181 1364   6.800   9.527   1.609
    4CHTO   O61 1365   6.691   9.355   1.595
    4CHTO   C95 1366   6.718   9.309   1.728
    4CHTO  H182 1367   6.735   9.395   1.793
    4CHTO  C106 1368   6.590   9.235   1.779
    4CHTO   O69 1369   6.596   9.208   1.919
    4CHTO  H169 1370   6.592   9.288   1.967
    4CHTO   O63 1371   6.736   9.497   1.393
    4CHTO   C96 1372   6.747   9.400   1.261
    4CHTO  H183 1373   6.840   9.343   1.265
    4CHTO   C98 1374   6.748   9.483   1.129
    4CHTO  H185 1375   6.660   9.548   1.127
    4CHTO   O67 1376   6.861   9.572   1.133
    4CHTO  H167 1377   6.860   9.630   1.060
    4CHTO  C102 1378   6.754   9.392   0.997
    4CHTO  H189 1379   6.861   9.369   0.982
    4CHTO   N18 1380   6.712   9.460   0.872
    4CHTO  H176 1381   6.774   9.547   0.855
    4CHTO  H177 1382   6.721   9.393   0.788
    4CHTO  C105 1383   6.680   9.257   1.021
    4CHTO  H192 1384   6.628   9.226   0.929
    4CHTO   O65 1385   6.580   9.263   1.125
    4CHTO  C100 1386   6.625   9.298   1.257
    4CHTO  H187 1387   6.541   9.346   1.308
    4CHTO  C107 1388   6.655   9.168   1.336
    4CHTO   O70 1389   6.538   9.088   1.352
    4CHTO  H170 1390   6.477   9.131   1.410
    4CHTO   O57 1391   6.800   9.152   1.050
    4CHTO   C85 1392   6.807   9.030   0.976
    4CHTO  H157 1393   6.739   9.041   0.889
    4CHTO   C83 1394   6.749   8.912   1.061
    4CHTO  H155 1395   6.644   8.935   1.082
    4CHTO   O56 1396   6.818   8.908   1.188
    4CHTO  H135 1397   6.778   8.844   1.244
    4CHTO   C81 1398   6.757   8.780   0.980
    4CHTO  H153 1399   6.703   8.795   0.887
    4CHTO   N14 1400   6.688   8.666   1.045
    4CHTO  H141 1401   6.736   8.641   1.137
    4CHTO  H142 1402   6.586   8.691   1.064
    4CHTO   C79 1403   6.907   8.749   0.943
    4CHTO  H151 1404   6.906   8.662   0.877
    4CHTO   O52 1405   6.963   8.860   0.867
    4CHTO   C86 1406   6.953   8.991   0.931
    4CHTO  H158 1407   7.022   8.985   1.018
    4CHTO   C90 1408   7.012   9.100   0.838
    4CHTO   O60 1409   7.150   9.076   0.810
    4CHTO  H138 1410   7.201   9.089   0.887
    4CHTO   O50 1411   6.990   8.718   1.057
    4CHTO   C73 1412   7.106   8.669   1.126
    4CHTO  H145 1413   7.092   8.682   1.235
    4CHTO   C74 1414   7.234   8.747   1.083
    4CHTO  H146 1415   7.215   8.854   1.104
    4CHTO   O54 1416   7.342   8.709   1.171
    4CHTO  H133 1417   7.363   8.618   1.159
    4CHTO   C75 1418   7.264   8.721   0.930
    4CHTO  H147 1419   7.181   8.761   0.871
    4CHTO   N13 1420   7.384   8.791   0.879
    4CHTO  H139 1421   7.372   8.898   0.890
    4CHTO  H140 1422   7.472   8.761   0.935
    4CHTO   C76 1423   7.270   8.564   0.902
    4CHTO  H148 1424   7.361   8.524   0.948
    4CHTO   O49 1425   7.153   8.495   0.957
    4CHTO   C77 1426   7.126   8.517   1.096
    4CHTO  H149 1427   7.210   8.480   1.156
    4CHTO   C88 1428   7.005   8.430   1.132
    4CHTO   O58 1429   6.974   8.435   1.269
    4CHTO  H136 1430   6.899   8.381   1.286
    4CHTO   O51 1431   7.256   8.532   0.747
    4CHTO   C78 1432   7.388   8.483   0.675
    4CHTO  H150 1433   7.480   8.521   0.726
    4CHTO   C80 1434   7.386   8.536   0.529
    4CHTO  H152 1435   7.288   8.511   0.484
    4CHTO   O55 1436   7.396   8.679   0.536
    4CHTO  H134 1437   7.387   8.716   0.451
    4CHTO   C84 1438   7.502   8.473   0.440
    4CHTO  H156 1439   7.597   8.510   0.479
    4CHTO   N15 1440   7.494   8.515   0.296
    4CHTO  H143 1441   7.583   8.566   0.267
    4CHTO  H144 1442   7.410   8.579   0.279
    4CHTO   C87 1443   7.500   8.319   0.454
    4CHTO  H159 1444   7.407   8.279   0.414
    4CHTO   O53 1445   7.511   8.287   0.602
    4CHTO   C82 1446   7.395   8.329   0.674
    4CHTO  H154 1447   7.305   8.288   0.628
    4CHTO   C89 1448   7.403   8.269   0.816
    4CHTO   O59 1449   7.395   8.126   0.813
    4CHTO  H137 1450   7.401   8.092   0.900
    4CHTO   O45 1451   7.629   8.247   0.371
    4CHTO   C67 1452   7.679   8.119   0.417
    4CHTO  H124 1453   7.737   8.077   0.335
    4CHTO   C65 1454   7.774   8.137   0.541
    4CHTO  H122 1455   7.765   8.242   0.571
    4CHTO   O44 1456   7.909   8.115   0.495
    4CHTO  H102 1457   7.970   8.138   0.563
    4CHTO   C63 1458   7.728   8.054   0.666
    4CHTO  H120 1459   7.630   8.092   0.698
    4CHTO   N11 1460   7.809   8.071   0.791
    4CHTO  H108 1461   7.755   8.127   0.865
    4CHTO  H109 1462   7.901   8.121   0.770
    4CHTO   C61 1463   7.704   7.905   0.623
    4CHTO  H118 1464   7.651   7.857   0.706
    4CHTO   O40 1465   7.618   7.891   0.506
    4CHTO   C68 1466   7.563   8.013   0.445
    4CHTO  H125 1467   7.486   8.053   0.513
    4CHTO   C72 1468   7.491   7.968   0.316
    4CHTO   O48 1469   7.416   8.073   0.253
    4CHTO  H105 1470   7.344   8.098   0.307
    4CHTO   O38 1471   7.826   7.835   0.592
    4CHTO   C55 1472   7.829   7.695   0.627
    4CHTO  H112 1473   7.727   7.658   0.646
    4CHTO   C56 1474   7.925   7.673   0.752
    4CHTO  H113 1475   8.022   7.719   0.727
    4CHTO   O42 1476   7.874   7.745   0.866
    4CHTO  H100 1477   7.877   7.837   0.850
    4CHTO   C57 1478   7.942   7.519   0.782
    4CHTO  H114 1479   7.845   7.480   0.813
    4CHTO   N10 1480   8.040   7.491   0.891
    4CHTO  H106 1481   8.040   7.571   0.963
    4CHTO  H107 1482   8.014   7.399   0.941
    4CHTO   C58 1483   7.985   7.447   0.651
    4CHTO  H115 1484   8.084   7.486   0.619
    4CHTO   O37 1485   7.890   7.473   0.546
    4CHTO   C59 1486   7.883   7.611   0.507
    4CHTO  H116 1487   7.982   7.646   0.477
    4CHTO   C70 1488   7.792   7.622   0.384
    4CHTO   O46 1489   7.659   7.575   0.405
    4CHTO  H103 1490   7.609   7.585   0.327
    4CHTO   O39 1491   7.998   7.281   0.670
    4CHTO   C60 1492   7.878   7.202   0.687
    4CHTO  H117 1493   7.808   7.257   0.749
    4CHTO   C62 1494   7.809   7.169   0.551
    4CHTO  H119 1495   7.772   7.264   0.510
    4CHTO   O43 1496   7.907   7.115   0.459
    4CHTO  H101 1497   7.941   7.034   0.491
    4CHTO   C66 1498   7.684   7.070   0.574
    4CHTO  H123 1499   7.614   7.118   0.643
    4CHTO   N12 1500   7.608   7.044   0.450
    4CHTO  H110 1501   7.567   7.136   0.412
    4CHTO  H111 1502   7.671   6.996   0.376
    4CHTO   C69 1503   7.735   6.940   0.642
    4CHTO  H126 1504   7.813   6.892   0.579
    4CHTO   O41 1505   7.796   6.980   0.778
    4CHTO   C64 1506   7.916   7.072   0.764
    4CHTO  H121 1507   7.996   7.019   0.707
    4CHTO   C71 1508   7.970   7.104   0.905
    4CHTO   O47 1509   8.019   6.985   0.969
    4CHTO  H104 1510   8.055   7.007   1.052
    4CHTO   O34 1511   7.621   6.834   0.668
    4CHTO   C49 1512   7.627   6.680   0.644
    4CHTO   H91 1513   7.697   6.666   0.562
    4CHTO   C47 1514   7.487   6.629   0.600
    4CHTO   H89 1515   7.480   6.654   0.491
    4CHTO   O33 1516   7.382   6.698   0.670
    4CHTO   H70 1517   7.384   6.789   0.650
    4CHTO   C45 1518   7.468   6.471   0.626
    4CHTO   H87 1519   7.426   6.459   0.727
    4CHTO    N8 1520   7.372   6.413   0.529
    4CHTO   H75 1521   7.283   6.380   0.580
    4CHTO   H76 1522   7.416   6.331   0.476
    4CHTO   C43 1523   7.609   6.395   0.636
    4CHTO   H85 1524   7.586   6.291   0.657
    4CHTO   O29 1525   7.691   6.454   0.739
    4CHTO   C50 1526   7.677   6.595   0.765
    4CHTO   H92 1527   7.605   6.608   0.847
    4CHTO   C54 1528   7.809   6.648   0.825
    4CHTO   O36 1529   7.919   6.635   0.734
    4CHTO   H72 1530   7.997   6.667   0.775
    4CHTO   O27 1531   7.680   6.396   0.510
    4CHTO   C37 1532   7.786   6.320   0.450
    4CHTO   H79 1533   7.796   6.348   0.344
    4CHTO   C38 1534   7.923   6.351   0.518
    4CHTO   H80 1535   7.909   6.344   0.628
    4CHTO   O31 1536   7.958   6.486   0.485
    4CHTO   H68 1537   7.900   6.547   0.527
    4CHTO   C39 1538   8.037   6.251   0.474
    4CHTO   H81 1539   8.060   6.273   0.370
    4CHTO    N7 1540   8.165   6.269   0.552
    4CHTO   H73 1541   8.239   6.199   0.517
    4CHTO   H74 1542   8.201   6.370   0.540
    4CHTO   C40 1543   7.986   6.102   0.481
    4CHTO   H82 1544   7.972   6.072   0.585
    4CHTO   O26 1545   7.865   6.091   0.404
    4CHTO   C41 1546   7.754   6.168   0.458
    4CHTO   H83 1547   7.737   6.140   0.563
    4CHTO   C52 1548   7.627   6.131   0.377
    4CHTO   O35 1549   7.590   5.988   0.393
    4CHTO   H71 1550   7.565   5.971   0.482
    4CHTO   O28 1551   8.077   6.010   0.417
    4CHTO   C42 1552   8.072   5.865   0.442
    4CHTO   H84 1553   8.140   5.824   0.367
    4CHTO   C44 1554   7.934   5.795   0.418
    4CHTO   H86 1555   7.860   5.840   0.485
    4CHTO   O32 1556   7.896   5.823   0.282
    4CHTO   H69 1557   7.876   5.914   0.272
    4CHTO   C48 1558   7.938   5.640   0.447
    4CHTO   H90 1559   8.000   5.593   0.370
    4CHTO    N9 1560   7.802   5.577   0.434
    4CHTO   H77 1561   7.803   5.499   0.360
    4CHTO   H78 1562   7.766   5.540   0.529
    4CHTO   C51 1563   8.005   5.611   0.587
    4CHTO   H93 1564   7.938   5.649   0.665
    4CHTO   O30 1565   8.134   5.674   0.592
    4CHTO   C46 1566   8.128   5.825   0.582
    4CHTO   H88 1567   8.061   5.862   0.659
    4CHTO   C53 1568   8.271   5.879   0.606
    4CHTO   O72 1569   8.366   5.826   0.513
    4CHTO  H199 1570   8.451   5.860   0.533
    4CHTO   O22 1571   8.030   5.470   0.607
    4CHTO   C31 1572   8.088   5.423   0.734
    4CHTO   H59 1573   8.132   5.513   0.783
    4CHTO   C29 1574   7.988   5.362   0.834
    4CHTO   H57 1575   7.951   5.266   0.792
    4CHTO   O21 1576   7.873   5.448   0.846
    4CHTO   H37 1577   7.898   5.530   0.885
    4CHTO   C27 1578   8.058   5.335   0.973
    4CHTO   H55 1579   8.081   5.433   1.018
    4CHTO    N5 1580   7.971   5.261   1.069
    4CHTO   H43 1581   8.022   5.174   1.110
    4CHTO   H44 1582   7.879   5.230   1.022
    4CHTO   C25 1583   8.197   5.263   0.956
    4CHTO   H53 1584   8.182   5.154   0.946
    4CHTO   O17 1585   8.275   5.305   0.840
    4CHTO   C32 1586   8.205   5.322   0.716
    4CHTO   H60 1587   8.164   5.226   0.685
    4CHTO   C36 1588   8.307   5.367   0.608
    4CHTO   O25 1589   8.374   5.489   0.643
    4CHTO   H40 1590   8.430   5.474   0.717
    4CHTO   O15 1591   8.289   5.291   1.090
    4CHTO   C19 1592   8.333   5.420   1.142
    4CHTO   H47 1593   8.428   5.395   1.192
    4CHTO   C20 1594   8.363   5.528   1.033
    4CHTO   H48 1595   8.278   5.541   0.964
    4CHTO   O19 1596   8.474   5.477   0.956
    4CHTO   H35 1597   8.491   5.534   0.883
    4CHTO   C21 1598   8.395   5.670   1.094
    4CHTO   H49 1599   8.487   5.663   1.153
    4CHTO    N4 1600   8.418   5.773   0.990
    4CHTO   H41 1601   8.503   5.745   0.928
    4CHTO   H42 1602   8.331   5.783   0.927
    4CHTO   C22 1603   8.280   5.706   1.192
    4CHTO   H50 1604   8.186   5.706   1.137
    4CHTO   O14 1605   8.277   5.608   1.297
    4CHTO   C23 1606   8.239   5.476   1.254
    4CHTO   H51 1607   8.134   5.484   1.220
    4CHTO   C34 1608   8.236   5.384   1.377
    4CHTO   O23 1609   8.363   5.377   1.444
    4CHTO   H38 1610   8.426   5.335   1.389
    4CHTO   O16 1611   8.299   5.832   1.262
    4CHTO   C24 1612   8.175   5.941   1.245
    4CHTO   H52 1613   8.099   5.906   1.175
    4CHTO   C26 1614   8.233   6.075   1.195
    4CHTO   H54 1615   8.321   6.101   1.259
    4CHTO   O20 1616   8.283   6.055   1.061
    4CHTO   H36 1617   8.212   6.034   1.002
    4CHTO   C30 1618   8.130   6.191   1.201
    4CHTO   H58 1619   8.051   6.174   1.125
    4CHTO    N6 1620   8.193   6.322   1.166
    4CHTO   H45 1621   8.187   6.392   1.248
    4CHTO   H46 1622   8.146   6.365   1.079
    4CHTO   C33 1623   8.057   6.194   1.339
    4CHTO   H61 1624   8.129   6.222   1.418
    4CHTO   O18 1625   8.004   6.063   1.369
    4CHTO   C28 1626   8.105   5.961   1.382
    4CHTO   H56 1627   8.180   5.990   1.456
    4CHTO   C35 1628   8.038   5.829   1.427
    4CHTO   O24 1629   7.976   5.839   1.556
    4CHTO   H39 1630   7.938   5.756   1.578
    4CHTO    O9 1631   7.954   6.295   1.342
    4CHTO   C13 1632   7.878   6.319   1.483
    4CHTO   H26 1633   7.891   6.229   1.546
    4CHTO   C11 1634   7.725   6.346   1.451
    4CHTO   H24 1635   7.681   6.252   1.416
    4CHTO    O8 1636   7.714   6.442   1.343
    4CHTO    H3 1637   7.751   6.524   1.369
    4CHTO    C9 1638   7.653   6.392   1.580
    4CHTO   H22 1639   7.673   6.313   1.654
    4CHTO    N2 1640   7.505   6.393   1.568
    4CHTO   H10 1641   7.470   6.296   1.534
    4CHTO   H11 1642   7.460   6.417   1.664
    4CHTO    C7 1643   7.718   6.528   1.633
    4CHTO   H20 1644   7.728   6.511   1.742
    4CHTO    O4 1645   7.848   6.553   1.576
    4CHTO   C14 1646   7.938   6.441   1.569
    4CHTO   H27 1647   7.956   6.405   1.672
    4CHTO   C18 1648   8.073   6.495   1.515
    4CHTO   O13 1649   8.133   6.586   1.608
    4CHTO    H7 1650   8.215   6.615   1.575
    4CHTO    O2 1651   7.621   6.665   1.606
    4CHTO    C1 1652   7.653   6.790   1.672
    4CHTO   H14 1653   7.568   6.859   1.654
    4CHTO    C2 1654   7.785   6.860   1.623
    4CHTO   H15 1655   7.869   6.792   1.644
    4CHTO    O6 1656   7.775   6.881   1.481
    4CHTO    H1 1657   7.855   6.915   1.447
    4CHTO    C3 1658   7.806   6.999   1.702
    4CHTO   H16 1659   7.724   7.067   1.674
    4CHTO    N1 1660   7.934   7.068   1.665
    4CHTO    H8 1661   8.018   7.004   1.688
    4CHTO    H9 1662   7.934   7.091   1.560
    4CHTO    C4 1663   7.792   6.976   1.858
    4CHTO   H17 1664   7.882   6.924   1.894
    4CHTO    O1 1665   7.674   6.901   1.891
    4CHTO    C5 1666   7.661   6.773   1.826
    4CHTO   H18 1667   7.749   6.713   1.850
    4CHTO   C16 1668   7.536   6.702   1.885
    4CHTO   O11 1669   7.417   6.779   1.866
    4CHTO    H5 1670   7.344   6.733   1.903
    4CHTO    O3 1671   7.773   7.102   1.927
    4CHTO    C6 1672   7.843   7.119   2.055
    4CHTO   H19 1673   7.898   7.030   2.086
    4CHTO    C8 1674   7.945   7.237   2.043
    4CHTO   H21 1675   7.893   7.323   2.000
    4CHTO    O7 1676   8.050   7.193   1.955
    4CHTO    H2 1677   8.018   7.185   1.868
    4CHTO   C12 1678   8.002   7.280   2.185
    4CHTO   H25 1679   8.064   7.195   2.221
    4CHTO    N3 1680   8.092   7.399   2.174
    4CHTO   H12 1681   8.177   7.376   2.112
    4CHTO   H13 1682   8.038   7.483   2.134
    4CHTO   C15 1683   7.883   7.300   2.285
    4CHTO   H28 1684   7.822   7.387   2.259
    4CHTO   O10 1685   7.932   7.315   2.432
    4CHTO    H4 1686   7.860   7.338   2.487
    4CHTO    O5 1687   7.801   7.183   2.292
    4CHTO   C10 1688   7.738   7.148   2.167
    4CHTO   H23 1689   7.674   7.231   2.137
    4CHTO   C17 1690   7.645   7.029   2.194
    4CHTO   O12 1691   7.717   6.913   2.240
    4CHTO    H6 1692   7.770   6.879   2.170
    5CHTO  H203 1693   8.807   3.426   0.917
    5CHTO   O82 1694   8.802   3.451   1.008
    5CHTO  C123 1695   8.764   3.337   1.088
    5CHTO  H227 1696   8.839   3.258   1.074
    5CHTO   O77 1697   8.770   3.389   1.224
    5CHTO  C118 1698   8.749   3.290   1.326
    5CHTO  H222 1699   8.821   3.208   1.315
    5CHTO  C125 1700   8.774   3.363   1.464
    5CHTO   O84 1701   8.780   3.271   1.573
    5CHTO  H205 1702   8.795   3.319   1.653
    5CHTO  C114 1703   8.605   3.236   1.313
    5CHTO  H218 1704   8.535   3.318   1.332
    5CHTO  C116 1705   8.576   3.181   1.170
    5CHTO  H220 1706   8.634   3.087   1.155
    5CHTO   O79 1707   8.437   3.144   1.160
    5CHTO  H201 1708   8.382   3.220   1.170
    5CHTO  C120 1709   8.618   3.286   1.058
    5CHTO  H224 1710   8.546   3.371   1.066
    5CHTO   N21 1711   8.606   3.231   0.921
    5CHTO  H211 1712   8.625   3.124   0.921
    5CHTO  H212 1713   8.507   3.251   0.881
    5CHTO   O75 1714   8.593   3.135   1.416
    5CHTO  C112 1715   8.445   3.129   1.485
    5CHTO  H216 1716   8.368   3.130   1.407
    5CHTO   O73 1717   8.433   3.243   1.572
    5CHTO  C113 1718   8.303   3.256   1.633
    5CHTO  H217 1719   8.226   3.260   1.553
    5CHTO  C124 1720   8.297   3.389   1.708
    5CHTO   O83 1721   8.309   3.503   1.622
    5CHTO  H204 1722   8.232   3.511   1.568
    5CHTO  C109 1723   8.274   3.135   1.726
    5CHTO  H213 1724   8.344   3.142   1.810
    5CHTO  C110 1725   8.294   3.001   1.648
    5CHTO  H214 1726   8.211   2.991   1.577
    5CHTO   O78 1727   8.281   2.891   1.741
    5CHTO  H200 1728   8.349   2.894   1.805
    5CHTO  C111 1729   8.429   2.998   1.571
    5CHTO  H215 1730   8.511   2.996   1.644
    5CHTO   N19 1731   8.445   2.878   1.485
    5CHTO  H207 1732   8.366   2.873   1.412
    5CHTO  H208 1733   8.444   2.788   1.546
    5CHTO   O74 1734   8.137   3.143   1.776
    5CHTO  C115 1735   8.122   3.132   1.935
    5CHTO  H219 1736   8.210   3.087   1.980
    5CHTO   O76 1737   8.110   3.276   2.002
    5CHTO  C122 1738   8.001   3.352   1.946
    5CHTO  H226 1739   8.033   3.387   1.848
    5CHTO  C126 1740   7.979   3.481   2.032
    5CHTO   O85 1741   8.092   3.568   2.031
    5CHTO  H206 1742   8.074   3.644   2.083
    5CHTO  C121 1743   7.867   3.267   1.933
    5CHTO  H225 1744   7.781   3.327   1.969
    5CHTO   O81 1745   7.843   3.236   1.795
    5CHTO  H202 1746   7.828   3.314   1.746
    5CHTO  C119 1747   7.876   3.136   2.017
    5CHTO  H223 1748   7.903   3.170   2.117
    5CHTO  C117 1749   7.993   3.045   1.964
    5CHTO  H221 1750   7.972   2.994   1.870
    5CHTO   N20 1751   8.022   2.934   2.060
    5CHTO  H209 1752   8.099   2.869   2.021
    5CHTO  H210 1753   7.932   2.876   2.078
    5CHTO   O80 1754   7.733   3.062   2.046
    5CHTO  C103 1755   7.615   3.067   1.939
    5CHTO  H190 1756   7.621   3.157   1.878
    5CHTO  C101 1757   7.607   2.942   1.845
    5CHTO  H188 1758   7.620   2.852   1.905
    5CHTO   O68 1759   7.724   2.949   1.744
    5CHTO  H168 1760   7.713   3.023   1.687
    5CHTO   C99 1761   7.465   2.932   1.770
    5CHTO  H186 1762   7.455   3.017   1.700
    5CHTO   N17 1763   7.448   2.807   1.689
    5CHTO  H174 1764   7.527   2.800   1.615
    5CHTO  H175 1765   7.448   2.720   1.753
    5CHTO   C97 1766   7.351   2.948   1.874
    5CHTO  H184 1767   7.353   2.862   1.943
    5CHTO   O64 1768   7.367   3.073   1.944
    5CHTO  C104 1769   7.484   3.079   2.027
    5CHTO  H191 1770   7.484   3.001   2.103
    5CHTO  C108 1771   7.476   3.213   2.103
    5CHTO   O71 1772   7.573   3.225   2.207
    5CHTO  H171 1773   7.553   3.165   2.276
    5CHTO   O62 1774   7.221   2.959   1.812
    5CHTO   C91 1775   7.105   2.923   1.891
    5CHTO  H178 1776   7.132   2.927   1.996
    5CHTO   C92 1777   7.064   2.774   1.860
    5CHTO  H179 1778   7.056   2.762   1.751
    5CHTO   O66 1779   7.172   2.688   1.902
    5CHTO  H166 1780   7.248   2.702   1.849
    5CHTO   C93 1781   6.929   2.734   1.931
    5CHTO  H180 1782   6.947   2.736   2.039
    5CHTO   N16 1783   6.882   2.596   1.899
    5CHTO  H172 1784   6.875   2.537   1.989
    5CHTO  H173 1785   6.947   2.548   1.828
    5CHTO   C94 1786   6.819   2.841   1.895
    5CHTO  H181 1787   6.804   2.849   1.787
    5CHTO   O61 1788   6.865   2.970   1.940
    5CHTO   C95 1789   6.981   3.017   1.869
    5CHTO  H182 1790   6.958   3.022   1.763
    5CHTO  C106 1791   7.012   3.163   1.916
    5CHTO   O69 1792   6.907   3.253   1.880
    5CHTO  H169 1793   6.830   3.233   1.930
    5CHTO   O63 1794   6.675   2.812   1.970
    5CHTO   C96 1795   6.556   2.803   1.863
    5CHTO  H183 1796   6.595   2.755   1.774
    5CHTO   C98 1797   6.492   2.938   1.820
    5CHTO  H185 1798   6.455   2.990   1.910
    5CHTO   O67 1799   6.594   3.022   1.766
    5CHTO  H167 1800   6.630   2.985   1.688
    5CHTO  C102 1801   6.372   2.917   1.714
    5CHTO  H189 1802   6.422   2.897   1.618
    5CHTO   N18 1803   6.289   3.038   1.690
    5CHTO  H176 1804   6.350   3.118   1.651
    5CHTO  H177 1805   6.242   3.069   1.782
    5CHTO  C105 1806   6.284   2.793   1.745
    5CHTO  H192 1807   6.203   2.821   1.813
    5CHTO   O65 1808   6.353   2.681   1.805
    5CHTO  C100 1809   6.439   2.713   1.916
    5CHTO  H187 1810   6.381   2.769   1.991
    5CHTO  C107 1811   6.489   2.582   1.982
    5CHTO   O70 1812   6.380   2.506   2.034
    5CHTO  H170 1813   6.412   2.425   2.070
    5CHTO   O57 1814   6.224   2.748   1.596
    5CHTO   C85 1815   6.110   2.662   1.580
    5CHTO  H157 1816   6.028   2.708   1.638
    5CHTO   C83 1817   6.136   2.522   1.645
    5CHTO  H155 1818   6.145   2.537   1.753
    5CHTO   O56 1819   6.263   2.471   1.600
    5CHTO  H135 1820   6.283   2.391   1.645
    5CHTO   C81 1821   6.015   2.429   1.618
    5CHTO  H153 1822   5.925   2.478   1.654
    5CHTO   N14 1823   6.020   2.302   1.695
    5CHTO  H141 1824   5.931   2.245   1.678
    5CHTO  H142 1825   6.030   2.323   1.799
    5CHTO   C79 1826   6.000   2.407   1.463
    5CHTO  H151 1827   5.911   2.345   1.447
    5CHTO   O52 1828   5.972   2.536   1.399
    5CHTO   C86 1829   6.070   2.642   1.427
    5CHTO  H158 1830   6.158   2.612   1.367
    5CHTO   C90 1831   6.020   2.775   1.367
    5CHTO   O60 1832   6.007   2.768   1.225
    5CHTO  H138 1833   6.091   2.761   1.185
    5CHTO   O50 1834   6.112   2.343   1.400
    5CHTO   C73 1835   6.141   2.264   1.283
    5CHTO  H145 1836   6.080   2.299   1.198
    5CHTO   C74 1837   6.108   2.114   1.308
    5CHTO  H146 1838   6.002   2.107   1.335
    5CHTO   O54 1839   6.123   2.043   1.183
    5CHTO  H133 1840   6.056   2.070   1.123
    5CHTO   C75 1841   6.202   2.058   1.423
    5CHTO  H147 1842   6.179   2.113   1.515
    5CHTO   N13 1843   6.182   1.915   1.455
    5CHTO  H139 1844   6.105   1.872   1.393
    5CHTO  H140 1845   6.155   1.903   1.558
    5CHTO   C76 1846   6.356   2.089   1.388
    5CHTO  H148 1847   6.385   2.027   1.303
    5CHTO   O49 1848   6.374   2.230   1.354
    5CHTO   C77 1849   6.292   2.277   1.246
    5CHTO  H149 1850   6.312   2.218   1.156
    5CHTO   C88 1851   6.333   2.421   1.213
    5CHTO   O58 1852   6.259   2.474   1.095
    5CHTO  H136 1853   6.167   2.482   1.116
    5CHTO   O51 1854   6.452   2.063   1.521
    5CHTO   C78 1855   6.604   2.100   1.492
    5CHTO  H150 1856   6.613   2.151   1.394
    5CHTO   C80 1857   6.693   1.975   1.490
    5CHTO  H152 1858   6.690   1.927   1.590
    5CHTO   O55 1859   6.638   1.883   1.394
    5CHTO  H134 1860   6.556   1.848   1.426
    5CHTO   C84 1861   6.842   2.014   1.453
    5CHTO  H156 1862   6.841   2.053   1.352
    5CHTO   N15 1863   6.937   1.898   1.453
    5CHTO  H143 1864   6.938   1.851   1.550
    5CHTO  H144 1865   6.906   1.826   1.380
    5CHTO   C87 1866   6.894   2.127   1.546
    5CHTO  H159 1867   6.917   2.087   1.646
    5CHTO   O53 1868   6.788   2.242   1.559
    5CHTO   C82 1869   6.658   2.197   1.598
    5CHTO  H154 1870   6.663   2.148   1.696
    5CHTO   C89 1871   6.564   2.319   1.614
    5CHTO   O59 1872   6.607   2.404   1.721
    5CHTO  H137 1873   6.593   2.361   1.803
    5CHTO   O45 1874   7.026   2.196   1.481
    5CHTO   C67 1875   7.132   2.226   1.573
    5CHTO  H124 1876   7.090   2.238   1.673
    5CHTO   C65 1877   7.238   2.109   1.576
    5CHTO  H122 1878   7.227   2.056   1.482
    5CHTO   O44 1879   7.199   2.022   1.684
    5CHTO  H102 1880   7.251   1.944   1.683
    5CHTO   C63 1881   7.387   2.162   1.575
    5CHTO  H120 1882   7.410   2.196   1.474
    5CHTO   N11 1883   7.493   2.058   1.595
    5CHTO  H108 1884   7.488   2.020   1.695
    5CHTO  H109 1885   7.479   1.977   1.526
    5CHTO   C61 1886   7.400   2.287   1.669
    5CHTO  H118 1887   7.503   2.324   1.658
    5CHTO   O40 1888   7.312   2.395   1.626
    5CHTO   C68 1889   7.199   2.364   1.538
    5CHTO  H125 1890   7.235   2.363   1.433
    5CHTO   C72 1891   7.097   2.480   1.550
    5CHTO   O48 1892   7.153   2.607   1.513
    5CHTO  H105 1893   7.218   2.632   1.576
    5CHTO   O38 1894   7.376   2.252   1.807
    5CHTO   C55 1895   7.344   2.356   1.903
    5CHTO  H112 1896   7.271   2.426   1.860
    5CHTO   C56 1897   7.475   2.431   1.954
    5CHTO  H113 1898   7.546   2.353   1.987
    5CHTO   O42 1899   7.537   2.499   1.843
    5CHTO  H100 1900   7.619   2.535   1.870
    5CHTO   C57 1901   7.440   2.531   2.071
    5CHTO  H114 1902   7.380   2.611   2.029
    5CHTO   N10 1903   7.561   2.593   2.132
    5CHTO  H106 1904   7.545   2.618   2.236
    5CHTO  H107 1905   7.588   2.682   2.078
    5CHTO   C58 1906   7.356   2.457   2.179
    5CHTO  H115 1907   7.419   2.380   2.229
    5CHTO   O37 1908   7.241   2.392   2.121
    5CHTO   C59 1909   7.272   2.291   2.024
    5CHTO  H116 1910   7.336   2.214   2.068
    5CHTO   C70 1911   7.141   2.224   1.980
    5CHTO   O46 1912   7.077   2.154   2.088
    5CHTO  H103 1913   6.997   2.117   2.057
    5CHTO   O39 1914   7.299   2.566   2.296
    5CHTO   C60 1915   7.169   2.623   2.271
    5CHTO  H117 1916   7.149   2.622   2.164
    5CHTO   C62 1917   7.057   2.541   2.343
    5CHTO  H119 1918   7.061   2.438   2.300
    5CHTO   O43 1919   7.087   2.532   2.483
    5CHTO  H101 1920   7.024   2.479   2.527
    5CHTO   C66 1921   6.913   2.606   2.312
    5CHTO  H123 1922   6.896   2.603   2.204
    5CHTO   N12 1923   6.799   2.531   2.371
    5CHTO  H110 1924   6.834   2.445   2.426
    5CHTO  H111 1925   6.729   2.502   2.295
    5CHTO   C69 1926   6.912   2.756   2.353
    5CHTO  H126 1927   6.924   2.764   2.464
    5CHTO   O41 1928   7.031   2.828   2.282
    5CHTO   C64 1929   7.164   2.771   2.317
    5CHTO  H121 1930   7.179   2.775   2.428
    5CHTO   C71 1931   7.275   2.855   2.250
    5CHTO   O47 1932   7.273   2.990   2.297
    5CHTO  H104 1933   7.300   2.993   2.387
    5CHTO   O34 1934   6.778   2.829   2.312
    5CHTO   C49 1935   6.738   2.982   2.300
    5CHTO   H91 1936   6.792   3.021   2.213
    5CHTO   C47 1937   6.780   3.058   2.427
    5CHTO   H89 1938   6.755   3.165   2.411
    5CHTO   O33 1939   6.923   3.047   2.443
    5CHTO   H70 1940   6.951   3.099   2.516
    5CHTO   C45 1941   6.695   2.999   2.550
    5CHTO   H87 1942   6.704   2.890   2.549
    5CHTO    N8 1943   6.741   3.047   2.683
    5CHTO   H75 1944   6.820   3.121   2.672
    5CHTO   H76 1945   6.660   3.089   2.740
    5CHTO   C43 1946   6.538   3.029   2.522
    5CHTO   H85 1947   6.483   2.980   2.602
    5CHTO   O29 1948   6.500   2.978   2.392
    5CHTO   C50 1949   6.586   3.000   2.277
    5CHTO   H92 1950   6.556   2.925   2.202
    5CHTO   C54 1951   6.555   3.134   2.206
    5CHTO   O36 1952   6.426   3.133   2.144
    5CHTO   H72 1953   6.427   3.075   2.070
    5CHTO   O27 1954   6.505   3.169   2.533
    5CHTO   C37 1955   6.399   3.258   2.572
    5CHTO   H79 1956   6.416   3.357   2.528
    5CHTO   C38 1957   6.261   3.209   2.520
    5CHTO   H80 1958   6.245   3.106   2.556
    5CHTO   O31 1959   6.265   3.208   2.377
    5CHTO   H68 1960   6.278   3.294   2.343
    5CHTO   C39 1961   6.144   3.301   2.573
    5CHTO   H81 1962   6.158   3.400   2.528
    5CHTO    N7 1963   6.007   3.254   2.533
    5CHTO   H73 1964   5.932   3.322   2.570
    5CHTO   H74 1965   6.001   3.248   2.425
    5CHTO   C40 1966   6.153   3.320   2.729
    5CHTO   H82 1967   6.125   3.227   2.780
    5CHTO   O26 1968   6.285   3.363   2.766
    5CHTO   C41 1969   6.393   3.273   2.727
    5CHTO   H83 1970   6.377   3.174   2.773
    5CHTO   C52 1971   6.524   3.332   2.785
    5CHTO   O35 1972   6.523   3.335   0.105
    5CHTO   H71 1973   6.605   3.369   0.136
    5CHTO   O28 1974   6.067   3.427   2.773
    5CHTO   C42 1975   6.011   3.439   0.079
    5CHTO   H84 1976   5.944   3.524   0.066
    5CHTO   C44 1977   6.113   3.481   0.191
    5CHTO   H86 1978   6.212   3.487   0.146
    5CHTO   O32 1979   6.081   3.614   0.234
    5CHTO   H69 1980   6.145   3.646   0.294
    5CHTO   C48 1981   6.123   3.380   0.314
    5CHTO   H90 1982   6.035   3.393   0.377
    5CHTO    N9 1983   6.241   3.413   0.402
    5CHTO   H77 1984   6.245   3.343   0.484
    5CHTO   H78 1985   6.232   3.514   0.439
    5CHTO   C51 1986   6.125   3.233   0.259
    5CHTO   H93 1987   6.211   3.224   0.192
    5CHTO   O30 1988   6.002   3.201   0.191
    5CHTO   C46 1989   5.921   3.317   0.119
    5CHTO   H88 1990   5.881   3.274   0.027
    5CHTO   C53 1991   5.802   3.362   0.208
    5CHTO   O72 1992   5.706   3.257   0.225
    5CHTO  H199 1993   5.744   3.188   0.275
    5CHTO   O22 1994   6.134   3.136   0.366
    5CHTO   C31 1995   6.175   2.995   0.347
    5CHTO   H59 1996   6.192   2.955   0.450
    5CHTO   C29 1997   6.066   2.907   0.283
    5CHTO   H57 1998   6.036   2.954   0.188
    5CHTO   O21 1999   5.951   2.909   0.370
    5CHTO   H37 2000   5.912   2.995   0.371
    5CHTO   C27 2001   6.113   2.759   0.253
    5CHTO   H55 2002   6.131   2.708   0.349
    5CHTO    N5 2003   6.013   2.680   0.176
    5CHTO   H43 2004   6.055   2.641   0.085
    5CHTO   H44 2005   5.925   2.739   0.154
    5CHTO   C25 2006   6.251   2.764   0.179
    5CHTO   H53 2007   6.239   2.814   0.082
    5CHTO   O17 2008   6.347   2.841   0.259
    5CHTO   C32 2009   6.312   2.979   0.273
    5CHTO   H60 2010   6.304   3.025   0.174
    5CHTO   C36 2011   6.425   3.049   0.352
    5CHTO   O25 2012   6.549   3.046   0.280
    5CHTO   H40 2013   6.616   3.084   0.333
    5CHTO   O15 2014   6.310   2.620   0.156
    5CHTO   C19 2015   6.441   2.559   0.173
    5CHTO   H47 2016   6.494   2.627   0.242
    5CHTO   C20 2017   6.436   2.417   0.237
    5CHTO   H48 2018   6.379   2.346   0.175
    5CHTO   O19 2019   6.367   2.430   0.364
    5CHTO   H35 2020   6.276   2.448   0.350
    5CHTO   C21 2021   6.581   2.358   0.258
    5CHTO   H49 2022   6.630   2.416   0.337
    5CHTO    N4 2023   6.581   2.217   0.305
    5CHTO   H41 2024   6.529   2.210   0.400
    5CHTO   H42 2025   6.531   2.154   0.233
    5CHTO   C22 2026   6.667   2.376   0.130
    5CHTO   H50 2027   6.636   2.303   0.055
    5CHTO   O14 2028   6.657   2.509   0.075
    5CHTO   C23 2029   6.525   2.554   0.043
    5CHTO   H51 2030   6.482   2.484   2.797
    5CHTO   C34 2031   6.536   2.692   2.804
    5CHTO   O23 2032   6.606   2.685   2.680
    5CHTO   H38 2033   6.697   2.668   2.696
    5CHTO   O16 2034   6.807   2.364   0.162
    5CHTO   C24 2035   6.900   2.312   0.044
    5CHTO   H52 2036   6.851   2.321   2.775
    5CHTO   C26 2037   6.934   2.165   0.074
    5CHTO   H54 2038   6.962   2.156   0.182
    5CHTO   O20 2039   6.814   2.087   0.054
    5CHTO   H36 2040   6.829   1.998   0.079
    5CHTO   C30 2041   7.053   2.112   2.816
    5CHTO   H58 2042   7.021   2.100   2.711
    5CHTO    N6 2043   7.096   1.977   0.033
    5CHTO   H45 2044   7.131   1.981   0.135
    5CHTO   H46 2045   7.176   1.940   2.798
    5CHTO   C33 2046   7.170   2.215   2.815
    5CHTO   H61 2047   7.209   2.226   0.090
    5CHTO   O18 2048   7.119   2.343   2.773
    5CHTO   C28 2049   7.027   2.401   0.039
    5CHTO   H56 2050   7.072   2.406   0.139
    5CHTO   C35 2051   6.996   2.545   2.818
    5CHTO   O24 2052   6.927   2.623   0.087
    5CHTO   H39 2053   6.908   2.708   0.052
    5CHTO    O9 2054   7.284   2.175   2.736
    5CHTO   C13 2055   7.260   2.163   2.574
    5CHTO   H26 2056   7.160   2.205   2.550
    5CHTO   C11 2057   7.271   2.010   2.533
    5CHTO   H24 2058   7.178   1.960   2.563
    5CHTO    O8 2059   7.381   1.947   2.602
    5CHTO    H3 2060   7.365   1.947   2.695
    5CHTO    C9 2061   7.287   2.002   2.378
    5CHTO   H22 2062   7.205   2.062   2.337
    5CHTO    N2 2063   7.264   1.866   2.323
    5CHTO   H10 2064   7.168   1.829   2.356
    5CHTO   H11 2065   7.343   1.800   2.355
    5CHTO    C7 2066   7.424   2.071   2.337
    5CHTO   H20 2067   7.401   2.117   2.240
    5CHTO    O4 2068   7.467   2.173   2.429
    5CHTO   C14 2069   7.364   2.252   2.492
    5CHTO   H27 2070   7.307   2.305   2.412
    5CHTO   C18 2071   7.431   2.362   2.579
    5CHTO   O13 2072   7.506   2.454   2.499
    5CHTO    H7 2073   7.582   2.411   2.463
    5CHTO    O2 2074   7.549   1.965   2.319
    5CHTO    C1 2075   7.624   1.979   2.197
    5CHTO   H14 2076   7.624   2.086   2.167
    5CHTO    C2 2077   7.566   1.893   2.077
    5CHTO   H15 2078   7.550   1.792   2.118
    5CHTO    O6 2079   7.440   1.949   2.036
    5CHTO    H1 2080   7.399   1.894   1.973
    5CHTO    C3 2081   7.669   1.887   1.954
    5CHTO   H16 2082   7.673   1.986   1.906
    5CHTO    N1 2083   7.624   1.789   1.849
    5CHTO    H8 2084   7.618   1.690   1.891
    5CHTO    H9 2085   7.692   1.790   1.766
    5CHTO    C4 2086   7.815   1.857   2.004
    5CHTO   H17 2087   7.821   1.754   2.039
    5CHTO    O1 2088   7.854   1.948   2.108
    5CHTO    C5 2089   7.772   1.941   2.226
    5CHTO   H18 2090   7.773   1.838   2.264
    5CHTO   C16 2091   7.835   2.033   2.334
    5CHTO   O11 2092   7.843   2.170   2.291
    5CHTO    H5 2093   7.883   2.221   2.358
    5CHTO    O3 2094   7.910   1.881   1.898
    5CHTO    C6 2095   8.027   1.792   1.894
    5CHTO   H19 2096   8.051   1.749   1.991
    5CHTO    C8 2097   8.003   1.677   1.791
    5CHTO   H21 2098   7.972   1.721   1.696
    5CHTO    O7 2099   7.897   1.593   1.841
    5CHTO    H2 2100   7.815   1.640   1.840
    5CHTO   C12 2101   8.135   1.593   1.765
    5CHTO   H25 2102   8.157   1.539   1.860
    5CHTO    N3 2103   8.115   1.489   1.659
    5CHTO   H12 2104   8.206   1.433   1.645
    5CHTO   H13 2105   8.085   1.536   1.566
    5CHTO   C15 2106   8.254   1.691   1.735
    5CHTO   H28 2107   8.241   1.741   1.638
    5CHTO   O10 2108   8.392   1.621   1.738
    5CHTO    H4 2109   8.458   1.679   1.704
    5CHTO    O5 2110   8.266   1.790   1.838
    5CHTO   C10 2111   8.151   1.875   1.850
    5CHTO   H23 2112   8.132   1.921   1.753
    5CHTO   C17 2113   8.182   1.988   1.950
    5CHTO   O12 2114   8.287   2.073   1.901
    5CHTO    H6 2115   8.368   2.026   1.898
    6CHTO  H203 2116   7.639   4.468   0.330
    6CHTO   O82 2117   7.601   4.491   0.413
    6CHTO  C123 2118   7.511   4.602   0.398
    6CHTO  H227 2119   7.559   4.679   0.336
    6CHTO   O77 2120   7.398   4.544   0.325
    6CHTO  C118 2121   7.297   4.640   0.290
    6CHTO  H222 2122   7.342   4.724   0.236
    6CHTO  C125 2123   7.192   4.569   0.197
    6CHTO   O84 2124   7.252   4.527   0.074
    6CHTO  H205 2125   7.313   4.457   0.089
    6CHTO  C114 2126   7.231   4.692   0.420
    6CHTO  H218 2127   7.186   4.607   0.472
    6CHTO  C116 2128   7.338   4.755   0.515
    6CHTO  H220 2129   7.371   4.852   0.471
    6CHTO   O79 2130   7.274   4.788   0.640
    6CHTO  H201 2131   7.211   4.857   0.628
    6CHTO  C120 2132   7.462   4.660   0.536
    6CHTO  H224 2133   7.428   4.577   0.602
    6CHTO   N21 2134   7.572   4.731   0.607
    6CHTO  H211 2135   7.559   4.720   0.714
    6CHTO  H212 2136   7.668   4.693   0.577
    6CHTO   O75 2137   7.131   4.786   0.378
    6CHTO  C112 2138   6.989   4.769   0.456
    6CHTO  H216 2139   7.009   4.754   0.564
    6CHTO   O73 2140   6.922   4.655   0.399
    6CHTO  C113 2141   6.793   4.626   0.455
    6CHTO  H217 2142   6.806   4.610   0.564
    6CHTO  C124 2143   6.742   4.495   0.394
    6CHTO   O83 2144   6.823   4.383   0.431
    6CHTO  H204 2145   6.788   4.305   0.392
    6CHTO  C109 2146   6.696   4.745   0.427
    6CHTO  H213 2147   6.692   4.758   0.318
    6CHTO  C110 2148   6.757   4.874   0.491
    6CHTO  H214 2149   6.759   4.863   0.599
    6CHTO   O78 2150   6.669   4.984   0.459
    6CHTO  H200 2151   6.698   5.062   0.502
    6CHTO  C111 2152   6.901   4.899   0.436
    6CHTO  H215 2153   6.895   4.919   0.328
    6CHTO   N19 2154   6.968   5.016   0.498
    6CHTO  H207 2155   6.910   5.105   0.479
    6CHTO  H208 2156   7.066   5.029   0.455
    6CHTO   O74 2157   6.560   4.720   0.475
    6CHTO  C115 2158   6.537   4.678   0.631
    6CHTO  H219 2159   6.623   4.621   0.670
    6CHTO   O76 2160   6.526   4.803   0.725
    6CHTO  C122 2161   6.414   4.886   0.691
    6CHTO  H226 2162   6.434   4.930   0.593
    6CHTO  C126 2163   6.408   5.007   0.791
    6CHTO   O85 2164   6.389   4.966   0.927
    6CHTO  H206 2165   6.388   5.042   0.983
    6CHTO  C121 2166   6.276   4.807   0.688
    6CHTO  H225 2167   6.208   4.851   0.763
    6CHTO   O81 2168   6.215   4.824   0.559
    6CHTO  H202 2169   6.127   4.791   0.560
    6CHTO  C119 2170   6.294   4.655   0.721
    6CHTO  H223 2171   6.327   4.653   0.825
    6CHTO  C117 2172   6.407   4.588   0.634
    6CHTO  H221 2173   6.380   4.575   0.529
    6CHTO   N20 2174   6.437   4.449   0.682
    6CHTO  H209 2175   6.346   4.390   0.682
    6CHTO  H210 2176   6.511   4.403   0.619
    6CHTO   O80 2177   6.154   4.577   0.730
    6CHTO  C103 2178   6.107   4.518   0.867
    6CHTO  H190 2179   6.190   4.470   0.918
    6CHTO  C101 2180   6.037   4.619   0.966
    6CHTO  H188 2181   5.958   4.672   0.912
    6CHTO   O68 2182   6.144   4.723   1.013
    6CHTO  H168 2183   6.102   4.789   1.066
    6CHTO   C99 2184   5.972   4.540   1.088
    6CHTO  H186 2185   6.052   4.488   1.145
    6CHTO   N17 2186   5.899   4.628   1.186
    6CHTO  H174 2187   5.865   4.569   1.270
    6CHTO  H175 2188   5.964   4.708   1.218
    6CHTO   C97 2189   5.879   4.426   1.034
    6CHTO  H184 2190   5.793   4.473   0.984
    6CHTO   O64 2191   5.953   4.340   0.946
    6CHTO  C104 2192   6.005   4.404   0.828
    6CHTO  H191 2193   5.925   4.447   0.768
    6CHTO  C108 2194   6.073   4.298   0.740
    6CHTO   O71 2195   5.978   4.204   0.687
    6CHTO  H171 2196   5.924   4.246   0.624
    6CHTO   O62 2197   5.836   4.337   1.140
    6CHTO   C91 2198   5.697   4.303   1.144
    6CHTO  H178 2199   5.640   4.385   1.100
    6CHTO   C92 2200   5.652   4.296   1.294
    6CHTO  H179 2201   5.680   4.390   1.344
    6CHTO   O66 2202   5.508   4.294   1.299
    6CHTO  H166 2203   5.474   4.218   1.256
    6CHTO   C93 2204   5.706   4.169   1.370
    6CHTO  H180 2205   5.635   4.145   1.451
    6CHTO   N16 2206   5.836   4.193   1.438
    6CHTO  H172 2207   5.911   4.222   1.366
    6CHTO  H173 2208   5.824   4.269   1.514
    6CHTO   C94 2209   5.715   4.044   1.273
    6CHTO  H181 2210   5.815   4.033   1.230
    6CHTO   O61 2211   5.625   4.060   1.162
    6CHTO   C95 2212   5.660   4.166   1.071
    6CHTO  H182 2213   5.745   4.134   1.011
    6CHTO  C106 2214   5.540   4.189   0.971
    6CHTO   O69 2215   5.512   4.070   0.897
    6CHTO  H169 2216   5.440   4.086   0.839
    6CHTO   O63 2217   5.675   3.912   1.353
    6CHTO   C96 2218   5.723   3.782   1.277
    6CHTO  H183 2219   5.774   3.813   1.186
    6CHTO   C98 2220   5.610   3.683   1.237
    6CHTO  H185 2221   5.556   3.651   1.328
    6CHTO   O67 2222   5.512   3.752   1.158
    6CHTO  H167 2223   5.550   3.785   1.078
    6CHTO  C102 2224   5.666   3.556   1.155
    6CHTO  H189 2225   5.661   3.584   1.049
    6CHTO   N18 2226   5.584   3.433   1.167
    6CHTO  H176 2227   5.579   3.401   1.270
    6CHTO  H177 2228   5.625   3.354   1.106
    6CHTO  C105 2229   5.817   3.531   1.188
    6CHTO  H192 2230   5.842   3.426   1.172
    6CHTO   O65 2231   5.853   3.566   1.324
    6CHTO  C100 2232   5.826   3.702   1.367
    6CHTO  H187 2233   5.783   3.693   1.467
    6CHTO  C107 2234   5.958   3.781   1.382
    6CHTO   O70 2235   6.041   3.725   1.485
    6CHTO  H170 2236   6.072   3.640   1.459
    6CHTO   O57 2237   5.893   3.621   1.084
    6CHTO   C85 2238   6.005   3.579   1.003
    6CHTO  H157 2239   5.963   3.506   0.930
    6CHTO   C83 2240   6.111   3.498   1.086
    6CHTO  H155 2241   6.066   3.403   1.116
    6CHTO   O56 2242   6.140   3.568   1.209
    6CHTO  H135 2243   6.183   3.650   1.191
    6CHTO   C81 2244   6.236   3.469   0.999
    6CHTO  H153 2245   6.204   3.411   0.912
    6CHTO   N14 2246   6.335   3.381   1.065
    6CHTO  H141 2247   6.379   3.430   1.149
    6CHTO  H142 2248   6.413   3.354   0.996
    6CHTO   C79 2249   6.299   3.604   0.946
    6CHTO  H151 2250   6.382   3.578   0.880
    6CHTO   O52 2251   6.200   3.671   0.863
    6CHTO   C86 2252   6.074   3.702   0.932
    6CHTO  H158 2253   6.102   3.781   1.005
    6CHTO   C90 2254   5.979   3.770   0.829
    6CHTO   O60 2255   5.863   3.826   0.892
    6CHTO  H138 2256   5.807   3.863   0.826
    6CHTO   O50 2257   6.348   3.695   1.047
    6CHTO   C73 2258   6.404   3.732   1.174
    6CHTO  H145 2259   6.402   3.646   1.242
    6CHTO   C74 2260   6.318   3.847   1.236
    6CHTO  H146 2261   6.214   3.811   1.239
    6CHTO   O54 2262   6.358   3.864   1.374
    6CHTO  H133 2263   6.335   3.789   1.425
    6CHTO   C75 2264   6.334   3.978   1.150
    6CHTO  H147 2265   6.300   3.956   1.047
    6CHTO   N13 2266   6.249   4.091   1.196
    6CHTO  H139 2267   6.274   4.116   1.298
    6CHTO  H140 2268   6.145   4.063   1.192
    6CHTO   C76 2269   6.489   4.016   1.143
    6CHTO  H148 2270   6.523   4.034   1.245
    6CHTO   O49 2271   6.564   3.904   1.086
    6CHTO   C77 2272   6.552   3.782   1.161
    6CHTO  H149 2273   6.592   3.800   1.261
    6CHTO   C88 2274   6.646   3.676   1.101
    6CHTO   O58 2275   6.626   3.657   0.953
    6CHTO  H136 2276   6.651   3.734   0.907
    6CHTO   O51 2277   6.520   4.139   1.046
    6CHTO   C78 2278   6.579   4.269   1.123
    6CHTO  H150 2279   6.554   4.266   1.232
    6CHTO   C80 2280   6.517   4.396   1.062
    6CHTO  H152 2281   6.533   4.393   0.952
    6CHTO   O55 2282   6.375   4.392   1.087
    6CHTO  H134 2283   6.335   4.324   1.036
    6CHTO   C84 2284   6.581   4.529   1.120
    6CHTO  H156 2285   6.552   4.537   1.225
    6CHTO   N15 2286   6.531   4.652   1.050
    6CHTO  H143 2287   6.425   4.659   1.061
    6CHTO  H144 2288   6.576   4.739   1.093
    6CHTO   C87 2289   6.736   4.520   1.114
    6CHTO  H159 2290   6.769   4.525   1.010
    6CHTO   O53 2291   6.783   4.389   1.178
    6CHTO   C82 2292   6.733   4.274   1.110
    6CHTO  H154 2293   6.761   4.278   1.004
    6CHTO   C89 2294   6.801   4.148   1.169
    6CHTO   O59 2295   6.776   4.131   1.309
    6CHTO  H137 2296   6.819   4.199   1.357
    6CHTO   O45 2297   6.804   4.643   1.199
    6CHTO   C67 2298   6.934   4.681   1.151
    6CHTO  H124 2299   6.994   4.591   1.137
    6CHTO   C65 2300   6.925   4.758   1.014
    6CHTO  H122 2301   6.819   4.775   0.995
    6CHTO   O44 2302   6.977   4.671   0.912
    6CHTO  H102 2303   6.961   4.708   0.827
    6CHTO   C63 2304   6.987   4.902   1.021
    6CHTO  H120 2305   6.929   4.962   1.092
    6CHTO   N11 2306   6.979   4.985   0.897
    6CHTO  H108 2307   6.910   5.066   0.909
    6CHTO  H109 2308   6.950   4.925   0.813
    6CHTO   C61 2309   7.132   4.891   1.083
    6CHTO  H118 2310   7.164   4.994   1.104
    6CHTO   O40 2311   7.136   4.819   1.209
    6CHTO   C68 2312   7.010   4.766   1.261
    6CHTO  H125 2313   6.946   4.851   1.293
    6CHTO   C72 2314   7.040   4.681   1.387
    6CHTO   O48 2315   7.099   4.758   1.493
    6CHTO  H105 2316   7.036   4.820   1.526
    6CHTO   O38 2317   7.225   4.827   0.993
    6CHTO   C55 2318   7.364   4.852   1.023
    6CHTO  H112 2319   7.376   4.881   1.129
    6CHTO   C56 2320   7.423   4.961   0.925
    6CHTO  H113 2321   7.414   4.922   0.822
    6CHTO   O42 2322   7.344   5.081   0.931
    6CHTO  H100 2323   7.257   5.065   0.898
    6CHTO   C57 2324   7.574   4.988   0.961
    6CHTO  H114 2325   7.575   5.032   1.061
    6CHTO   N10 2326   7.641   5.085   0.870
    6CHTO  H106 2327   7.599   5.079   0.771
    6CHTO  H107 2328   7.628   5.185   0.908
    6CHTO   C58 2329   7.652   4.854   0.965
    6CHTO  H115 2330   7.662   4.814   0.862
    6CHTO   O37 2331   7.586   4.755   1.047
    6CHTO   C59 2332   7.451   4.723   1.007
    6CHTO  H116 2333   7.450   4.687   0.904
    6CHTO   C70 2334   7.401   4.610   1.098
    6CHTO   O46 2335   7.277   4.551   1.055
    6CHTO  H103 2336   7.290   4.505   0.974
    6CHTO   O39 2337   7.797   4.877   1.031
    6CHTO   C60 2338   7.907   4.806   0.970
    6CHTO  H117 2339   7.875   4.704   0.948
    6CHTO   C62 2340   7.954   4.871   0.836
    6CHTO  H119 2341   7.872   4.853   0.762
    6CHTO   O43 2342   7.970   5.013   0.853
    6CHTO  H101 2343   7.887   5.053   0.869
    6CHTO   C66 2344   8.088   4.801   0.783
    6CHTO  H123 2345   8.070   4.694   0.773
    6CHTO   N12 2346   8.129   4.847   0.648
    6CHTO  H110 2347   8.148   4.954   0.650
    6CHTO  H111 2348   8.216   4.793   0.614
    6CHTO   C69 2349   8.198   4.822   0.891
    6CHTO  H126 2350   8.207   4.930   0.915
    6CHTO   O41 2351   8.153   4.746   1.015
    6CHTO   C64 2352   8.022   4.796   1.076
    6CHTO  H121 2353   8.038   4.896   1.122
    6CHTO   C71 2354   7.985   4.696   1.188
    6CHTO   O47 2355   7.876   4.743   1.269
    6CHTO  H104 2356   7.858   4.680   1.336
    6CHTO   O34 2357   8.341   4.768   0.847
    6CHTO   C49 2358   8.484   4.838   0.842
    6CHTO   H91 2359   8.527   4.813   0.745
    6CHTO   C47 2360   8.571   4.778   0.955
    6CHTO   H89 2361   8.673   4.818   0.940
    6CHTO   O33 2362   8.575   4.635   0.938
    6CHTO   H70 2363   8.490   4.597   0.954
    6CHTO   C45 2364   8.513   4.826   1.097
    6CHTO   H87 2365   8.407   4.797   1.103
    6CHTO    N8 2366   8.584   4.762   1.211
    6CHTO   H75 2367   8.688   4.792   1.211
    6CHTO   H76 2368   8.577   4.654   1.203
    6CHTO   C43 2369   8.512   4.987   1.105
    6CHTO   H85 2370   8.459   5.012   1.197
    6CHTO   O29 2371   8.447   5.044   0.990
    6CHTO   C50 2372   8.476   4.992   0.858
    6CHTO   H92 2373   8.395   5.027   0.792
    6CHTO   C54 2374   8.602   5.061   0.798
    6CHTO   O36 2375   8.581   5.202   0.783
    6CHTO   H72 2376   8.657   5.241   0.745
    6CHTO   O27 2377   8.644   5.044   1.123
    6CHTO   C37 2378   8.715   5.150   1.189
    6CHTO   H79 2379   8.819   5.118   1.209
    6CHTO   C38 2380   8.724   5.277   1.099
    6CHTO   H80 2381   8.623   5.301   1.062
    6CHTO   O31 2382   8.808   5.242   0.988
    6CHTO   H68 2383   8.808   5.312   0.924
    6CHTO   C39 2384   8.783   5.402   1.177
    6CHTO   H81 2385   8.888   5.380   1.199
    6CHTO    N7 2386   8.782   5.529   1.095
    6CHTO   H73 2387   8.843   5.516   1.007
    6CHTO   H74 2388   8.681   5.554   1.068
    6CHTO   C40 2389   8.710   5.423   1.315
    6CHTO   H82 2390   8.608   5.458   1.300
    6CHTO   O26 2391   8.715   5.300   1.389
    6CHTO   C41 2392   8.648   5.186   1.325
    6CHTO   H83 2393   8.542   5.210   1.309
    6CHTO   C52 2394   8.656   5.069   1.426
    6CHTO   O35 2395   8.586   5.098   1.552
    6CHTO   H71 2396   8.494   5.104   1.536
    6CHTO   O28 2397   8.780   5.517   1.399
    6CHTO   C42 2398   8.722   5.581   1.518
    6CHTO   H84 2399   8.807   5.633   1.562
    6CHTO   C44 2400   8.665   5.488   1.630
    6CHTO   H86 2401   8.580   5.433   1.590
    6CHTO   O32 2402   8.770   5.394   1.663
    6CHTO   H69 2403   8.784   5.335   1.591
    6CHTO   C48 2404   8.618   5.569   1.757
    6CHTO   H90 2405   8.707   5.613   1.802
    6CHTO    N9 2406   8.558   5.481   1.863
    6CHTO   H77 2407   8.530   5.540   1.949
    6CHTO   H78 2408   8.472   5.429   1.823
    6CHTO   C51 2409   8.521   5.687   1.717
    6CHTO   H93 2410   8.426   5.644   1.684
    6CHTO   O30 2411   8.581   5.768   1.614
    6CHTO   C46 2412   8.616   5.691   1.485
    6CHTO   H88 2413   8.525   5.643   1.446
    6CHTO   C53 2414   8.671   5.793   1.383
    6CHTO   O72 2415   8.572   5.892   1.351
    6CHTO  H199 2416   8.608   5.953   1.289
    6CHTO   O22 2417   8.501   5.775   1.829
    6CHTO   C31 2418   8.399   5.882   1.841
    6CHTO   H59 2419   8.413   5.925   1.943
    6CHTO   C29 2420   8.414   5.998   1.741
    6CHTO   H57 2421   8.401   5.957   1.639
    6CHTO   O21 2422   8.549   6.047   1.748
    6CHTO   H37 2423   8.565   6.087   1.831
    6CHTO   C27 2424   8.306   6.111   1.765
    6CHTO   H55 2425   8.324   6.155   1.865
    6CHTO    N5 2426   8.313   6.219   1.663
    6CHTO   H43 2427   8.339   6.313   1.711
    6CHTO   H44 2428   8.221   6.229   1.609
    6CHTO   C25 2429   8.163   6.045   1.770
    6CHTO   H53 2430   8.139   6.004   1.671
    6CHTO   O17 2431   8.159   5.935   1.866
    6CHTO   C32 2432   8.252   5.829   1.838
    6CHTO   H60 2433   8.231   5.788   1.739
    6CHTO   C36 2434   8.229   5.715   1.941
    6CHTO   O25 2435   8.247   5.760   2.076
    6CHTO   H40 2436   8.233   5.688   2.135
    6CHTO   O15 2437   8.051   6.151   1.809
    6CHTO   C19 2438   7.968   6.183   1.924
    6CHTO   H47 2439   7.979   6.096   1.990
    6CHTO   C20 2440   8.013   6.310   2.002
    6CHTO   H48 2441   8.016   6.399   1.936
    6CHTO   O19 2442   8.147   6.285   2.048
    6CHTO   H35 2443   8.207   6.283   1.976
    6CHTO   C21 2444   7.917   6.343   2.124
    6CHTO   H49 2445   7.928   6.264   2.198
    6CHTO    N4 2446   7.951   6.471   2.192
    6CHTO   H41 2447   8.051   6.465   2.233
    6CHTO   H42 2448   7.946   6.553   2.122
    6CHTO   C22 2449   7.769   6.339   2.077
    6CHTO   H50 2450   7.751   6.423   2.010
    6CHTO   O14 2451   7.741   6.215   2.010
    6CHTO   C23 2452   7.816   6.193   1.890
    6CHTO   H51 2453   7.795   6.277   1.822
    6CHTO   C34 2454   7.760   6.064   1.828
    6CHTO   O23 2455   7.812   6.042   1.697
    6CHTO   H38 2456   7.775   5.963   1.662
    6CHTO   O16 2457   7.676   6.340   2.188
    6CHTO   C24 2458   7.539   6.421   2.157
    6CHTO   H52 2459   7.533   6.454   2.053
    6CHTO   C26 2460   7.531   6.544   2.249
    6CHTO   H54 2461   7.536   6.509   2.355
    6CHTO   O20 2462   7.645   6.628   2.224
    6CHTO   H36 2463   7.724   6.586   2.253
    6CHTO   C30 2464   7.397   6.621   2.229
    6CHTO   H58 2465   7.397   6.669   2.130
    6CHTO    N6 2466   7.380   6.732   2.326
    6CHTO   H45 2467   7.382   6.694   2.427
    6CHTO   H46 2468   7.460   6.804   2.314
    6CHTO   C33 2469   7.273   6.525   2.230
    6CHTO   H61 2470   7.251   6.493   2.333
    6CHTO   O18 2471   7.298   6.407   2.151
    6CHTO   C28 2472   7.415   6.331   2.182
    6CHTO   H56 2473   7.414   6.301   2.287
    6CHTO   C35 2474   7.417   6.203   2.095
    6CHTO   O24 2475   7.418   6.228   1.954
    6CHTO   H39 2476   7.499   6.269   1.930
    6CHTO    O9 2477   7.156   6.595   2.184
    6CHTO   C13 2478   7.015   6.566   2.258
    6CHTO   H26 2479   7.023   6.605   2.362
    6CHTO   C11 2480   6.981   6.411   2.257
    6CHTO   H24 2481   7.051   6.360   2.325
    6CHTO    O8 2482   7.000   6.356   2.125
    6CHTO    H3 2483   7.090   6.362   2.101
    6CHTO    C9 2484   6.837   6.393   2.313
    6CHTO   H22 2485   6.837   6.441   2.411
    6CHTO    N2 2486   6.801   6.251   2.340
    6CHTO   H10 2487   6.789   6.236   2.446
    6CHTO   H11 2488   6.711   6.223   2.288
    6CHTO    C7 2489   6.735   6.470   2.221
    6CHTO   H20 2490   6.637   6.457   2.271
    6CHTO    O4 2491   6.767   6.611   2.217
    6CHTO   C14 2492   6.902   6.653   2.188
    6CHTO   H27 2493   6.911   6.756   2.227
    6CHTO   C18 2494   6.923   6.662   2.034
    6CHTO   O13 2495   6.842   6.763   1.974
    6CHTO    H7 2496   6.858   6.766   1.882
    6CHTO    O2 2497   6.729   6.411   2.064
    6CHTO    C1 2498   6.599   6.397   2.002
    6CHTO   H14 2499   6.617   6.379   1.894
    6CHTO    C2 2500   6.501   6.521   2.017
    6CHTO   H15 2501   6.491   6.542   2.124
    6CHTO    O6 2502   6.563   6.633   1.951
    6CHTO    H1 2503   6.512   6.711   1.965
    6CHTO    C3 2504   6.357   6.487   1.953
    6CHTO   H16 2505   6.369   6.475   1.844
    6CHTO    N1 2506   6.258   6.598   1.975
    6CHTO    H8 2507   6.293   6.688   1.927
    6CHTO    H9 2508   6.245   6.615   2.080
    6CHTO    C4 2509   6.304   6.349   2.006
    6CHTO   H17 2510   6.277   6.360   2.111
    6CHTO    O1 2511   6.403   6.247   1.991
    6CHTO    C5 2512   6.530   6.269   2.055
    6CHTO   H18 2513   6.513   6.281   2.162
    6CHTO   C16 2514   6.615   6.141   2.033
    6CHTO   O11 2515   6.633   6.114   1.893
    6CHTO    H5 2516   6.684   6.035   1.883
    6CHTO    O3 2517   6.193   6.300   1.928
    6CHTO    C6 2518   6.093   6.222   2.003
    6CHTO   H19 2519   6.120   6.209   2.107
    6CHTO    C8 2520   5.954   6.291   1.998
    6CHTO   H21 2521   5.924   6.301   1.893
    6CHTO    O7 2522   5.970   6.421   2.056
    6CHTO    H2 2523   5.890   6.471   2.047
    6CHTO   C12 2524   5.846   6.204   2.074
    6CHTO   H25 2525   5.877   6.201   2.180
    6CHTO    N3 2526   5.709   6.266   2.070
    6CHTO   H12 2527   5.710   6.360   2.016
    6CHTO   H13 2528   5.636   6.199   2.026
    6CHTO   C15 2529   5.849   6.056   2.018
    6CHTO   H28 2530   5.807   6.051   1.917
    6CHTO   O10 2531   5.773   5.957   2.110
    6CHTO    H4 2532   5.766   5.873   2.069
    6CHTO    O5 2533   5.982   6.003   2.019
    6CHTO   C10 2534   6.077   6.079   1.943
    6CHTO   H23 2535   6.041   6.086   1.840
    6CHTO   C17 2536   6.208   6.000   1.937
    6CHTO   O12 2537   6.265   5.974   2.066
    6CHTO    H6 2538   6.294   6.054   2.105
    7CHTO  H203 2539   5.328   2.027   2.179
    7CHTO   O82 2540   5.399   1.998   2.124
    7CHTO  C123 2541   5.518   2.072   2.155
    7CHTO  H227 2542   5.493   2.179   2.165
    7CHTO   O77 2543   5.559   2.018   2.285
    7CHTO  C118 2544   5.673   2.084   2.341
    7CHTO  H222 2545   5.654   2.193   2.347
    7CHTO  C125 2546   5.695   2.029   2.487
    7CHTO   O84 2547   5.584   2.061   2.571
    7CHTO  H205 2548   5.598   2.024   2.657
    7CHTO  C114 2549   5.796   2.058   2.252
    7CHTO  H218 2550   5.816   1.951   2.251
    7CHTO  C116 2551   5.770   2.104   2.105
    7CHTO  H220 2552   5.771   2.216   2.103
    7CHTO   O79 2553   5.881   2.062   2.024
    7CHTO  H201 2554   5.872   2.096   1.936
    7CHTO  C120 2555   5.633   2.049   2.049
    7CHTO  H224 2556   5.647   1.940   2.033
    7CHTO   N21 2557   5.598   2.110   1.918
    7CHTO  H211 2558   5.637   2.210   1.911
    7CHTO  H212 2559   5.638   2.049   1.838
    7CHTO   O75 2560   5.904   2.128   2.317
    7CHTO  C112 2561   6.049   2.057   2.299
    7CHTO  H216 2562   6.049   1.996   2.207
    7CHTO   O73 2563   6.071   1.976   2.416
    7CHTO  C113 2564   6.196   1.904   2.416
    7CHTO  H217 2565   6.199   1.838   2.326
    7CHTO  C124 2566   6.201   1.813   2.540
    7CHTO   O83 2567   6.100   1.711   2.536
    7CHTO  H204 2568   6.109   1.656   2.611
    7CHTO  C109 2569   6.315   2.003   2.412
    7CHTO  H213 2570   6.308   2.064   2.504
    7CHTO  C110 2571   6.302   2.094   2.286
    7CHTO  H214 2572   6.310   2.031   2.197
    7CHTO   O78 2573   6.412   2.187   2.281
    7CHTO  H200 2574   6.410   2.243   2.356
    7CHTO  C111 2575   6.163   2.165   2.288
    7CHTO  H215 2576   6.158   2.229   2.378
    7CHTO   N19 2577   6.139   2.254   2.171
    7CHTO  H207 2578   6.145   2.197   2.079
    7CHTO  H208 2579   6.212   2.334   2.170
    7CHTO   O74 2580   6.442   1.931   2.413
    7CHTO  C115 2581   6.556   2.007   2.493
    7CHTO  H219 2582   6.550   2.115   2.478
    7CHTO   O76 2583   6.542   1.985   2.654
    7CHTO  C122 2584   6.568   1.850   2.695
    7CHTO  H226 2585   6.493   1.785   2.649
    7CHTO  C126 2586   6.546   1.839   0.022
    7CHTO   O85 2587   6.411   1.864   0.061
    7CHTO  H206 2588   6.389   1.954   0.044
    7CHTO  C121 2589   6.713   1.807   2.651
    7CHTO  H225 2590   6.787   1.877   2.694
    7CHTO   O81 2591   6.745   1.675   2.698
    7CHTO  H202 2592   6.747   1.673   2.791
    7CHTO  C119 2593   6.720   1.813   2.495
    7CHTO  H223 2594   6.822   1.783   2.468
    7CHTO  C117 2595   6.695   1.958   2.437
    7CHTO  H221 2596   6.683   1.962   2.329
    7CHTO   N20 2597   6.805   2.055   2.468
    7CHTO  H209 2598   6.815   2.067   2.575
    7CHTO  H210 2599   6.785   2.150   2.422
    7CHTO   O80 2600   6.636   1.704   2.426
    7CHTO  C103 2601   6.676   1.650   2.284
    7CHTO  H190 2602   6.678   1.731   2.210
    7CHTO  C101 2603   6.813   1.570   2.276
    7CHTO  H188 2604   6.823   1.510   2.367
    7CHTO   O68 2605   6.931   1.672   2.273
    7CHTO  H168 2606   6.928   1.723   2.194
    7CHTO   C99 2607   6.820   1.470   2.150
    7CHTO  H186 2608   6.829   1.529   2.057
    7CHTO   N17 2609   6.940   1.379   2.152
    7CHTO  H174 2610   6.933   1.311   2.236
    7CHTO  H175 2611   6.947   1.325   2.059
    7CHTO   C97 2612   6.687   1.391   2.137
    7CHTO  H184 2613   6.676   1.331   2.229
    7CHTO   O64 2614   6.581   1.487   2.124
    7CHTO  C104 2615   6.555   1.556   2.247
    7CHTO  H191 2616   6.538   1.486   2.329
    7CHTO  C108 2617   6.425   1.636   2.233
    7CHTO   O71 2618   6.313   1.550   2.209
    7CHTO  H171 2619   6.235   1.602   2.201
    7CHTO   O62 2620   6.678   1.308   2.019
    7CHTO   C91 2621   6.586   1.196   2.020
    7CHTO  H178 2622   6.617   1.134   1.935
    7CHTO   C92 2623   6.440   1.243   1.987
    7CHTO  H179 2624   6.419   1.337   2.040
    7CHTO   O66 2625   6.438   1.275   1.847
    7CHTO  H166 2626   6.354   1.310   1.823
    7CHTO   C93 2627   6.332   1.136   2.027
    7CHTO  H180 2628   6.355   1.044   1.971
    7CHTO   N16 2629   6.193   1.172   1.990
    7CHTO  H172 2630   6.125   1.092   2.018
    7CHTO  H173 2631   6.187   1.189   1.883
    7CHTO   C94 2632   6.343   1.106   2.182
    7CHTO  H181 2633   6.284   1.176   2.241
    7CHTO   O61 2634   6.477   1.118   2.235
    7CHTO   C95 2635   6.591   1.100   2.148
    7CHTO  H182 2636   6.681   1.123   2.205
    7CHTO  C106 2637   6.607   0.948   2.107
    7CHTO   O69 2638   6.626   0.865   2.222
    7CHTO  H169 2639   6.709   0.883   2.261
    7CHTO   O63 2640   6.293   0.960   2.208
    7CHTO   C96 2641   6.233   0.935   2.351
    7CHTO  H183 2642   6.243   1.027   2.410
    7CHTO   C98 2643   6.308   0.821   2.427
    7CHTO  H185 2644   6.342   0.746   2.354
    7CHTO   O67 2645   6.429   0.878   2.480
    7CHTO  H167 2646   6.482   0.812   2.520
    7CHTO  C102 2647   6.221   0.749   2.541
    7CHTO  H189 2648   6.207   0.824   2.620
    7CHTO   N18 2649   6.287   0.633   2.607
    7CHTO  H176 2650   6.309   0.556   2.534
    7CHTO  H177 2651   6.223   0.593   2.684
    7CHTO  C105 2652   6.083   0.715   2.479
    7CHTO  H192 2653   6.099   0.655   2.389
    7CHTO   O65 2654   6.017   0.837   2.442
    7CHTO  C100 2655   6.078   0.907   2.332
    7CHTO  H187 2656   6.065   0.846   2.242
    7CHTO  C107 2657   6.000   1.038   2.309
    7CHTO   O70 2658   5.866   1.012   2.267
    7CHTO  H170 2659   5.821   1.093   2.252
    7CHTO   O57 2660   5.989   0.632   2.583
    7CHTO   C85 2661   5.878   0.561   2.526
    7CHTO  H157 2662   5.885   0.574   2.416
    7CHTO   C83 2663   5.743   0.628   2.567
    7CHTO  H155 2664   5.745   0.731   2.531
    7CHTO   O56 2665   5.735   0.636   2.711
    7CHTO  H135 2666   5.659   0.684   2.736
    7CHTO   C81 2667   5.626   0.553   2.498
    7CHTO  H153 2668   5.641   0.557   2.391
    7CHTO   N14 2669   5.495   0.621   2.519
    7CHTO  H141 2670   5.422   0.553   2.558
    7CHTO  H142 2671   5.458   0.662   2.427
    7CHTO   C79 2672   5.626   0.401   2.541
    7CHTO  H151 2673   5.551   0.350   2.480
    7CHTO   O52 2674   5.755   0.339   2.509
    7CHTO   C86 2675   5.871   0.408   2.565
    7CHTO  H158 2676   5.860   0.395   2.676
    7CHTO   C90 2677   6.001   0.335   2.526
    7CHTO   O60 2678   6.005   0.202   2.578
    7CHTO  H138 2679   6.013   0.204   2.671
    7CHTO   O50 2680   5.594   0.378   2.680
    7CHTO   C73 2681   5.573   0.254   2.748
    7CHTO  H145 2682   5.659   0.187   2.731
    7CHTO   C74 2683   5.444   0.183   2.696
    7CHTO  H146 2684   5.457   0.168   2.588
    7CHTO   O54 2685   5.438   0.052   2.755
    7CHTO  H133 2686   5.365   0.005   2.722
    7CHTO   C75 2687   5.319   0.273   2.729
    7CHTO  H147 2688   5.332   0.370   2.678
    7CHTO   N13 2689   5.191   0.218   2.679
    7CHTO  H139 2690   5.110   0.286   2.702
    7CHTO  H140 2691   5.170   0.123   2.726
    7CHTO   C76 2692   5.317   0.302   0.059
    7CHTO  H148 2693   5.302   0.207   0.110
    7CHTO   O49 2694   5.444   0.361   0.102
    7CHTO   C77 2695   5.559   0.279   0.073
    7CHTO  H149 2696   5.548   0.183   0.124
    7CHTO   C88 2697   5.685   0.343   0.132
    7CHTO   O58 2698   5.674   0.358   0.280
    7CHTO  H136 2699   5.672   0.273   0.320
    7CHTO   O51 2700   5.209   0.408   0.095
    7CHTO   C78 2701   5.178   0.420   0.249
    7CHTO  H150 2702   5.266   0.389   0.310
    7CHTO   C80 2703   5.058   0.329   0.284
    7CHTO  H152 2704   4.977   0.349   0.211
    7CHTO   O55 2705   5.102   0.193   0.267
    7CHTO  H134 2706   5.114   0.174   0.176
    7CHTO   C84 2707   5.005   0.355   0.430
    7CHTO  H156 2708   5.086   0.331   0.500
    7CHTO   N15 2709   4.888   0.267   0.468
    7CHTO  H143 2710   4.863   0.200   0.388
    7CHTO  H144 2711   4.802   0.325   0.494
    7CHTO   C87 2712   4.971   0.505   0.445
    7CHTO  H159 2713   4.890   0.532   0.376
    7CHTO   O53 2714   5.100   0.588   0.411
    7CHTO   C82 2715   5.151   0.569   0.278
    7CHTO  H154 2716   5.082   0.611   0.206
    7CHTO   C89 2717   5.281   0.653   0.270
    7CHTO   O59 2718   5.338   0.656   0.139
    7CHTO  H137 2719   5.283   0.705   0.081
    7CHTO   O45 2720   4.917   0.543   0.606
    7CHTO   C67 2721   5.015   0.607   0.689
    7CHTO  H124 2722   5.111   0.608   0.639
    7CHTO   C65 2723   4.974   0.756   0.719
    7CHTO  H122 2724   4.866   0.755   0.734
    7CHTO   O44 2725   5.005   0.831   0.600
    7CHTO  H102 2726   4.948   0.805   0.530
    7CHTO   C63 2727   5.033   0.808   0.857
    7CHTO  H120 2728   4.968   0.774   0.937
    7CHTO   N11 2729   5.032   0.956   0.879
    7CHTO  H108 2730   5.100   1.004   0.812
    7CHTO  H109 2731   4.933   0.994   0.863
    7CHTO   C61 2732   5.172   0.738   0.882
    7CHTO  H118 2733   5.210   0.775   0.978
    7CHTO   O40 2734   5.158   0.593   0.894
    7CHTO   C68 2735   5.042   0.533   0.826
    7CHTO  H125 2736   4.953   0.542   0.892
    7CHTO   C72 2737   5.068   0.382   0.806
    7CHTO   O48 2738   5.081   0.312   0.931
    7CHTO  H105 2739   5.098   0.221   0.914
    7CHTO   O38 2740   5.265   0.767   0.775
    7CHTO   C55 2741   5.405   0.770   0.809
    7CHTO  H112 2742   5.424   0.714   0.901
    7CHTO   C56 2743   5.452   0.922   0.821
    7CHTO  H113 2744   5.413   0.974   0.732
    7CHTO   O42 2745   5.388   0.982   0.934
    7CHTO  H100 2746   5.406   1.074   0.937
    7CHTO   C57 2747   5.610   0.935   0.828
    7CHTO  H114 2748   5.641   0.894   0.924
    7CHTO   N10 2749   5.657   1.076   0.820
    7CHTO  H106 2750   5.585   1.143   0.864
    7CHTO  H107 2751   5.751   1.086   0.873
    7CHTO   C58 2752   5.672   0.850   0.715
    7CHTO  H115 2753   5.639   0.890   0.617
    7CHTO   O37 2754   5.627   0.714   0.728
    7CHTO   C59 2755   5.488   0.698   0.697
    7CHTO  H116 2756   5.466   0.740   0.599
    7CHTO   C70 2757   5.461   0.547   0.692
    7CHTO   O46 2758   5.339   0.514   0.626
    7CHTO  H103 2759   5.345   0.533   0.535
    7CHTO   O39 2760   5.837   0.848   0.721
    7CHTO   C60 2761   5.901   0.755   0.632
    7CHTO  H117 2762   5.880   0.653   0.667
    7CHTO   C62 2763   5.853   0.767   0.484
    7CHTO  H119 2764   5.744   0.748   0.483
    7CHTO   O43 2765   5.878   0.901   0.439
    7CHTO  H101 2766   5.844   0.913   0.352
    7CHTO   C66 2767   5.925   0.655   0.394
    7CHTO  H123 2768   5.902   0.557   0.436
    7CHTO   N12 2769   5.872   0.652   0.255
    7CHTO  H110 2770   5.890   0.747   0.207
    7CHTO  H111 2771   5.917   0.571   0.200
    7CHTO   C69 2772   6.079   0.674   0.400
    7CHTO  H126 2773   6.108   0.771   0.354
    7CHTO   O41 2774   6.126   0.671   0.550
    7CHTO   C64 2775   6.055   0.774   0.639
    7CHTO  H121 2776   6.079   0.876   0.604
    7CHTO   C71 2777   6.105   0.760   0.784
    7CHTO   O47 2778   6.244   0.791   0.790
    7CHTO  H104 2779   6.274   0.784   0.879
    7CHTO   O34 2780   6.149   0.564   0.326
    7CHTO   C49 2781   6.264   0.513   0.259
    7CHTO   H91 2782   6.277   0.574   0.169
    7CHTO   C47 2783   6.235   0.367   0.219
    7CHTO   H89 2784   6.321   0.333   0.157
    7CHTO   O33 2785   6.116   0.363   0.138
    7CHTO   H70 2786   6.131   0.405   0.056
    7CHTO   C45 2787   6.227   0.280   0.354
    7CHTO   H87 2788   6.155   0.328   0.423
    7CHTO    N8 2789   6.180   0.141   0.331
    7CHTO   H75 2790   6.252   0.088   0.269
    7CHTO   H76 2791   6.168   0.089   0.425
    7CHTO   C43 2792   6.369   0.286   0.429
    7CHTO   H85 2793   6.357   0.231   0.523
    7CHTO   O29 2794   6.405   0.424   0.453
    7CHTO   C50 2795   6.392   0.521   0.347
    7CHTO   H92 2796   6.392   0.620   0.395
    7CHTO   C54 2797   6.522   0.526   0.262
    7CHTO   O36 2798   6.519   0.634   0.168
    7CHTO   H72 2799   6.596   0.631   0.115
    7CHTO   O27 2800   6.474   0.218   0.357
    7CHTO   C37 2801   6.573   0.121   0.397
    7CHTO   H79 2802   6.571   0.108   0.506
    7CHTO   C38 2803   6.543   9.981   0.334
    7CHTO   H80 2804   6.525   9.995   0.226
    7CHTO   O31 2805   6.424   9.932   0.397
    7CHTO   H68 2806   6.396   9.853   0.355
    7CHTO   C39 2807   6.662   9.879   0.354
    7CHTO   H81 2808   6.667   9.856   0.460
    7CHTO    N7 2809   6.641   9.747   0.283
    7CHTO   H73 2810   6.717   9.731   0.207
    7CHTO   H74 2811   6.543   9.743   0.238
    7CHTO   C40 2812   6.800   9.945   0.316
    7CHTO   H82 2813   6.808   9.957   0.208
    7CHTO   O26 2814   6.815   0.069   0.386
    7CHTO   C41 2815   6.714   0.169   0.354
    7CHTO   H83 2816   6.715   0.190   0.246
    7CHTO   C52 2817   6.753   0.298   0.429
    7CHTO   O35 2818   6.872   0.354   0.380
    7CHTO   H71 2819   6.858   0.387   0.293
    7CHTO   O28 2820   6.911   9.866   0.363
    7CHTO   C42 2821   7.046   9.874   0.306
    7CHTO   H84 2822   7.107   9.821   0.379
    7CHTO   C44 2823   7.109   0.017   0.294
    7CHTO   H86 2824   7.048   0.076   0.225
    7CHTO   O32 2825   7.105   0.077   0.424
    7CHTO   H69 2826   7.017   0.097   0.448
    7CHTO   C48 2827   7.257   0.012   0.236
    7CHTO   H90 2828   7.319   9.958   0.308
    7CHTO    N9 2829   7.318   0.148   0.220
    7CHTO   H77 2830   7.250   0.226   0.252
    7CHTO   H78 2831   7.411   0.154   0.276
    7CHTO   C51 2832   7.258   9.930   0.101
    7CHTO   H93 2833   7.198   9.985   0.028
    7CHTO   O30 2834   7.205   9.799   0.125
    7CHTO   C46 2835   7.060   9.797   0.171
    7CHTO   H88 2836   6.998   9.846   0.096
    7CHTO   C53 2837   7.017   9.649   0.187
    7CHTO   O72 2838   7.023   9.580   0.062
    7CHTO  H199 2839   7.113   9.567   0.038
    7CHTO   O22 2840   7.391   9.907   0.050
    7CHTO   C31 2841   7.418   9.891   2.734
    7CHTO   H59 2842   7.525   9.860   2.727
    7CHTO   C29 2843   7.335   9.782   2.662
    7CHTO   H57 2844   7.228   9.810   2.671
    7CHTO   O21 2845   7.352   9.659   2.734
    7CHTO   H37 2846   7.294   9.593   2.700
    7CHTO   C27 2847   7.373   9.769   2.509
    7CHTO   H55 2848   7.477   9.734   2.502
    7CHTO    N5 2849   7.286   9.673   2.436
    7CHTO   H43 2850   7.322   9.662   2.334
    7CHTO   H44 2851   7.184   9.708   2.436
    7CHTO   C25 2852   7.369   9.911   2.442
    7CHTO   H53 2853   7.265   9.947   2.438
    7CHTO   O17 2854   7.448   0.007   2.518
    7CHTO   C32 2855   7.409   0.025   2.655
    7CHTO   H60 2856   7.306   0.061   2.658
    7CHTO   C36 2857   7.502   0.133   2.715
    7CHTO   O25 2858   7.485   0.260   2.650
    7CHTO   H40 2859   7.519   0.255   2.563
    7CHTO   O15 2860   7.430   9.907   2.292
    7CHTO   C19 2861   7.416   0.004   2.184
    7CHTO   H47 2862   7.474   9.959   2.102
    7CHTO   C20 2863   7.268   0.022   2.137
    7CHTO   H48 2864   7.201   0.048   2.221
    7CHTO   O19 2865   7.227   9.893   2.087
    7CHTO   H35 2866   7.136   9.895   2.063
    7CHTO   C21 2867   7.254   0.134   2.026
    7CHTO   H49 2868   7.306   0.101   1.936
    7CHTO    N4 2869   7.112   0.158   1.987
    7CHTO   H41 2870   7.055   0.192   2.072
    7CHTO   H42 2871   7.108   0.232   1.909
    7CHTO   C22 2872   7.325   0.262   2.077
    7CHTO   H50 2873   7.274   0.296   2.167
    7CHTO   O14 2874   7.462   0.233   2.106
    7CHTO   C23 2875   7.483   0.142   2.215
    7CHTO   H51 2876   7.442   0.188   2.306
    7CHTO   C34 2877   7.636   0.131   2.231
    7CHTO   O23 2878   7.675   0.055   2.345
    7CHTO   H38 2879   7.654   9.964   2.332
    7CHTO   O16 2880   7.329   0.367   1.978
    7CHTO   C24 2881   7.333   0.515   2.044
    7CHTO   H52 2882   7.370   0.513   2.147
    7CHTO   C26 2883   7.191   0.575   2.042
    7CHTO   H54 2884   7.153   0.573   1.937
    7CHTO   O20 2885   7.105   0.493   2.123
    7CHTO   H36 2886   7.093   0.409   2.083
    7CHTO   C30 2887   7.192   0.723   2.091
    7CHTO   H58 2888   7.216   0.726   2.199
    7CHTO    N6 2889   7.057   0.786   2.078
    7CHTO   H45 2890   7.027   0.788   1.974
    7CHTO   H46 2891   7.059   0.887   2.116
    7CHTO   C33 2892   7.303   0.806   2.019
    7CHTO   H61 2893   7.276   0.822   1.914
    7CHTO   O18 2894   7.429   0.736   2.024
    7CHTO   C28 2895   7.429   0.606   1.964
    7CHTO   H56 2896   7.396   0.610   1.860
    7CHTO   C35 2897   7.573   0.549   1.968
    7CHTO   O24 2898   7.666   0.630   1.895
    7CHTO   H39 2899   7.648   0.625   1.803
    7CHTO    O9 2900   7.315   0.938   2.077
    7CHTO   C13 2901   7.378   1.054   1.981
    7CHTO   H26 2902   7.318   1.056   1.887
    7CHTO   C11 2903   7.531   1.026   1.953
    7CHTO   H24 2904   7.537   0.936   1.890
    7CHTO    O8 2905   7.601   0.998   2.075
    7CHTO    H3 2906   7.568   0.919   2.114
    7CHTO    C9 2907   7.588   1.146   1.873
    7CHTO   H22 2908   7.524   1.156   1.784
    7CHTO    N2 2909   7.724   1.120   1.818
    7CHTO   H10 2910   7.792   1.198   1.847
    7CHTO   H11 2911   7.720   1.110   1.711
    7CHTO    C7 2912   7.575   1.278   1.957
    7CHTO   H20 2913   7.607   1.358   1.887
    7CHTO    O4 2914   7.438   1.303   1.994
    7CHTO   C14 2915   7.356   1.197   2.049
    7CHTO   H27 2916   7.251   1.227   2.029
    7CHTO   C18 2917   7.372   1.192   2.204
    7CHTO   O13 2918   7.319   1.309   2.266
    7CHTO    H7 2919   7.375   1.383   2.247
    7CHTO    O2 2920   7.671   1.280   2.095
    7CHTO    C1 2921   7.761   1.392   2.106
    7CHTO   H14 2922   7.744   1.463   2.022
    7CHTO    C2 2923   7.914   1.349   2.105
    7CHTO   H15 2924   7.923   1.269   2.181
    7CHTO    O6 2925   7.947   1.296   1.976
    7CHTO    H1 2926   8.034   1.260   1.977
    7CHTO    C3 2927   8.012   1.472   2.142
    7CHTO   H16 2928   8.013   1.542   2.057
    7CHTO    N1 2929   8.154   1.426   2.162
    7CHTO    H8 2930   8.220   1.475   2.091
    7CHTO    H9 2931   8.163   1.319   2.151
    7CHTO    C4 2932   7.958   1.554   2.265
    7CHTO   H17 2933   7.973   1.496   2.356
    7CHTO    O1 2934   7.819   1.584   2.248
    7CHTO    C5 2935   7.731   1.471   2.236
    7CHTO   H18 2936   7.746   1.404   2.321
    7CHTO   C16 2937   7.586   1.524   2.239
    7CHTO   O11 2938   7.557   1.588   2.364
    7CHTO    H5 2939   7.468   1.617   2.364
    7CHTO    O3 2940   8.015   1.686   2.275
    7CHTO    C6 2941   8.128   1.707   2.367
    7CHTO   H19 2942   8.179   1.614   2.393
    7CHTO    C8 2943   8.231   1.802   2.298
    7CHTO   H21 2944   8.178   1.892   2.266
    7CHTO    O7 2945   8.283   1.735   2.181
    7CHTO    H2 2946   8.332   1.658   2.206
    7CHTO   C12 2947   8.346   1.844   2.398
    7CHTO   H25 2948   8.405   1.752   2.418
    7CHTO    N3 2949   8.440   1.943   2.335
    7CHTO   H12 2950   8.520   1.968   2.404
    7CHTO   H13 2951   8.387   2.033   2.307
    7CHTO   C15 2952   8.284   1.894   2.533
    7CHTO   H28 2953   8.234   1.991   2.522
    7CHTO   O10 2954   8.388   1.904   2.647
    7CHTO    H4 2955   8.451   1.971   2.626
    7CHTO    O5 2956   8.193   1.797   2.586
    7CHTO   C10 2957   8.080   1.771   2.501
    7CHTO   H23 2958   8.029   1.865   2.480
    7CHTO   C17 2959   7.982   1.682   2.579
    7CHTO   O12 2960   7.929   1.749   2.694
    7CHTO    H6 2961   7.873   1.819   2.667
    8CHTO  H203 2962   7.485   8.765   1.479
    8CHTO   O82 2963   7.451   8.684   1.447
    8CHTO  C123 2964   7.345   8.636   1.532
    8CHTO  H227 2965   7.378   8.644   1.637
    8CHTO   O77 2966   7.236   8.730   1.507
    8CHTO  C118 2967   7.122   8.711   1.592
    8CHTO  H222 2968   7.152   8.720   1.697
    8CHTO  C125 2969   7.019   8.826   1.560
    8CHTO   O84 2970   6.973   8.823   1.424
    8CHTO  H205 2971   6.921   8.746   1.409
    8CHTO  C114 2972   7.061   8.572   1.567
    8CHTO  H218 2973   7.024   8.568   1.465
    8CHTO  C116 2974   7.167   8.458   1.581
    8CHTO  H220 2975   7.194   8.447   1.689
    8CHTO   O79 2976   7.106   8.334   1.541
    8CHTO  H201 2977   7.039   8.309   1.602
    8CHTO  C120 2978   7.297   8.490   1.497
    8CHTO  H224 2979   7.268   8.485   1.390
    8CHTO   N21 2980   7.404   8.389   1.518
    8CHTO  H211 2981   7.502   8.433   1.503
    8CHTO  H212 2982   7.397   8.347   1.618
    8CHTO   O75 2983   6.952   8.560   1.661
    8CHTO  C112 2984   6.815   8.504   1.594
    8CHTO  H216 2985   6.839   8.443   1.505
    8CHTO   O73 2986   6.735   8.619   1.559
    8CHTO  C113 2987   6.607   8.589   1.502
    8CHTO  H217 2988   6.621   8.527   1.411
    8CHTO  C124 2989   6.540   8.720   1.460
    8CHTO   O83 2990   6.613   8.790   1.359
    8CHTO  H204 2991   6.568   8.869   1.337
    8CHTO  C109 2992   6.521   8.513   1.606
    8CHTO  H213 2993   6.511   8.580   1.693
    8CHTO  C110 2994   6.594   8.382   1.649
    8CHTO  H214 2995   6.598   8.315   1.562
    8CHTO   O78 2996   6.516   8.315   1.750
    8CHTO  H200 2997   6.509   8.369   1.827
    8CHTO  C111 2998   6.738   8.414   1.698
    8CHTO  H215 2999   6.731   8.470   1.792
    8CHTO   N19 3000   6.817   8.292   1.728
    8CHTO  H207 3001   6.915   8.319   1.765
    8CHTO  H208 3002   6.827   8.231   1.639
    8CHTO   O74 3003   6.388   8.485   1.552
    8CHTO  C115 3004   6.268   8.478   1.660
    8CHTO  H219 3005   6.242   8.375   1.686
    8CHTO   O76 3006   6.311   8.549   1.807
    8CHTO  C122 3007   6.205   8.589   1.896
    8CHTO  H226 3008   6.249   8.663   1.963
    8CHTO  C126 3009   6.165   8.468   1.988
    8CHTO   O85 3010   6.119   8.353   1.917
    8CHTO  H206 3011   6.096   8.285   1.977
    8CHTO  C121 3012   6.080   8.654   1.823
    8CHTO  H225 3013   5.993   8.585   1.830
    8CHTO   O81 3014   6.042   8.775   1.888
    8CHTO  H202 3015   6.016   8.758   1.976
    8CHTO  C119 3016   6.112   8.679   1.672
    8CHTO  H223 3017   6.022   8.724   1.628
    8CHTO  C117 3018   6.143   8.548   1.592
    8CHTO  H221 3019   6.175   8.566   1.489
    8CHTO   N20 3020   6.025   8.456   1.579
    8CHTO  H209 3021   6.050   8.371   1.519
    8CHTO  H210 3022   5.992   8.424   1.677
    8CHTO   O80 3023   6.220   8.795   1.646
    8CHTO  C103 3024   6.171   8.939   1.603
    8CHTO  H190 3025   6.063   8.941   1.601
    8CHTO  C101 3026   6.222   9.059   1.692
    8CHTO  H188 3027   6.331   9.056   1.697
    8CHTO   O68 3028   6.164   9.043   1.835
    8CHTO  H168 3029   6.199   8.965   1.875
    8CHTO   C99 3030   6.178   9.199   1.626
    8CHTO  H186 3031   6.067   9.205   1.624
    8CHTO   N17 3032   6.224   9.320   1.703
    8CHTO  H174 3033   6.292   9.292   1.782
    8CHTO  H175 3034   6.269   9.394   1.637
    8CHTO   C97 3035   6.222   9.204   1.477
    8CHTO  H184 3036   6.332   9.212   1.473
    8CHTO   O64 3037   6.174   9.088   1.406
    8CHTO  C104 3038   6.221   8.962   1.455
    8CHTO  H191 3039   6.330   8.956   1.453
    8CHTO  C108 3040   6.170   8.852   1.361
    8CHTO   O71 3041   6.224   8.868   1.229
    8CHTO  H171 3042   6.188   8.944   1.188
    8CHTO   O62 3043   6.162   9.314   1.405
    8CHTO   C91 3044   6.231   9.363   1.288
    8CHTO  H178 3045   6.316   9.298   1.267
    8CHTO   C92 3046   6.289   9.505   1.317
    8CHTO  H179 3047   6.207   9.570   1.351
    8CHTO   O66 3048   6.379   9.496   1.429
    8CHTO  H166 3049   6.453   9.442   1.407
    8CHTO   C93 3050   6.360   9.569   1.190
    8CHTO  H180 3051   6.452   9.511   1.173
    8CHTO   N16 3052   6.403   9.709   1.211
    8CHTO  H172 3053   6.475   9.714   1.292
    8CHTO  H173 3054   6.318   9.772   1.232
    8CHTO   C94 3055   6.269   9.556   1.062
    8CHTO  H181 3056   6.179   9.619   1.070
    8CHTO   O61 3057   6.223   9.421   1.046
    8CHTO   C95 3058   6.144   9.372   1.157
    8CHTO  H182 3059   6.061   9.441   1.173
    8CHTO  C106 3060   6.082   9.233   1.120
    8CHTO   O69 3061   5.986   9.244   1.014
    8CHTO  H169 3062   5.910   9.289   1.045
    8CHTO   O63 3063   6.357   9.598   0.925
    8CHTO   C96 3064   6.266   9.617   0.795
    8CHTO  H183 3065   6.168   9.574   0.817
    8CHTO   C98 3066   6.321   9.550   0.666
    8CHTO  H185 3067   6.423   9.586   0.647
    8CHTO   O67 3068   6.335   9.409   0.692
    8CHTO  H167 3069   6.402   9.393   0.756
    8CHTO  C102 3070   6.227   9.574   0.537
    8CHTO  H189 3071   6.143   9.504   0.549
    8CHTO   N18 3072   6.290   9.539   0.407
    8CHTO  H176 3073   6.316   9.434   0.406
    8CHTO  H177 3074   6.378   9.599   0.392
    8CHTO  C105 3075   6.166   9.718   0.534
    8CHTO  H192 3076   6.233   9.785   0.480
    8CHTO   O65 3077   6.139   9.777   0.662
    8CHTO  C100 3078   6.245   9.768   0.758
    8CHTO  H187 3079   6.338   9.808   0.713
    8CHTO  C107 3080   6.211   9.857   0.880
    8CHTO   O70 3081   6.202   9.995   0.843
    8CHTO  H170 3082   6.126   0.009   0.789
    8CHTO   O57 3083   6.024   9.698   0.452
    8CHTO   C85 3084   5.958   9.808   0.389
    8CHTO  H157 3085   6.036   9.863   0.333
    8CHTO   C83 3086   5.905   9.909   0.497
    8CHTO  H155 3087   5.992   9.952   0.547
    8CHTO   O56 3088   5.832   9.837   0.599
    8CHTO  H135 3089   5.808   9.895   0.669
    8CHTO   C81 3090   5.825   0.023   0.429
    8CHTO  H153 3091   5.889   0.069   0.354
    8CHTO   N14 3092   5.790   0.134   0.521
    8CHTO  H141 3093   5.841   0.224   0.492
    8CHTO  H142 3094   5.815   0.111   0.622
    8CHTO   C79 3095   5.700   9.961   0.355
    8CHTO  H151 3096   5.649   0.043   0.305
    8CHTO   O52 3097   5.746   9.870   0.251
    8CHTO   C86 3098   5.837   9.763   0.295
    8CHTO  H158 3099   5.771   9.690   0.346
    8CHTO   C90 3100   5.889   9.693   0.167
    8CHTO   O60 3101   5.969   9.577   0.196
    8CHTO  H138 3102   5.997   9.538   0.116
    8CHTO   O50 3103   5.606   9.895   0.441
    8CHTO   C73 3104   5.469   9.856   0.458
    8CHTO  H145 3105   5.429   9.817   0.363
    8CHTO   C74 3106   5.382   9.978   0.502
    8CHTO  H146 3107   5.392   0.056   0.424
    8CHTO   O54 3108   5.244   9.938   0.501
    8CHTO  H133 3109   5.189   0.010   0.524
    8CHTO   C75 3110   5.433   0.029   0.642
    8CHTO  H147 3111   5.536   0.066   0.630
    8CHTO   N13 3112   5.358   0.146   0.695
    8CHTO  H139 3113   5.366   0.229   0.627
    8CHTO  H140 3114   5.253   0.120   0.706
    8CHTO   C76 3115   5.439   9.908   0.747
    8CHTO  H148 3116   5.336   9.879   0.771
    8CHTO   O49 3117   5.510   9.792   0.692
    8CHTO   C77 3118   5.459   9.745   0.567
    8CHTO  H149 3119   5.355   9.715   0.578
    8CHTO   C88 3120   5.536   9.618   0.528
    8CHTO   O58 3121   5.484   9.560   0.403
    8CHTO  H136 3122   5.533   9.482   0.382
    8CHTO   O51 3123   5.523   9.954   0.874
    8CHTO   C78 3124   5.532   9.851   0.992
    8CHTO  H150 3125   5.531   9.747   0.954
    8CHTO   C80 3126   5.414   9.871   1.090
    8CHTO  H152 3127   5.408   9.979   1.117
    8CHTO   O55 3128   5.293   9.836   1.020
    8CHTO  H134 3129   5.292   9.745   0.998
    8CHTO   C84 3130   5.432   9.785   1.222
    8CHTO  H156 3131   5.425   9.681   1.193
    8CHTO   N15 3132   5.323   9.810   1.322
    8CHTO  H143 3133   5.272   9.719   1.346
    8CHTO  H144 3134   5.361   9.853   1.413
    8CHTO   C87 3135   5.573   9.809   1.281
    8CHTO  H159 3136   5.581   9.911   1.318
    8CHTO   O53 3137   5.679   9.784   1.173
    8CHTO   C82 3138   5.667   9.874   1.063
    8CHTO  H154 3139   5.675   9.977   1.098
    8CHTO   C89 3140   5.785   9.850   0.965
    8CHTO   O59 3141   5.909   9.881   1.028
    8CHTO  H137 3142   5.980   9.863   0.969
    8CHTO   O45 3143   5.603   9.708   1.406
    8CHTO   C67 3144   5.634   9.573   1.368
    8CHTO  H124 3145   5.601   9.552   1.267
    8CHTO   C65 3146   5.789   9.552   1.377
    8CHTO  H122 3147   5.834   9.638   1.327
    8CHTO   O44 3148   5.826   9.432   1.306
    8CHTO  H102 3149   5.919   9.424   1.303
    8CHTO   C63 3150   5.832   9.560   1.527
    8CHTO  H120 3151   5.793   9.652   1.570
    8CHTO   N11 3152   5.979   9.576   1.551
    8CHTO  H108 3153   5.998   9.592   1.656
    8CHTO  H109 3154   6.017   9.659   1.495
    8CHTO   C61 3155   5.765   9.441   1.605
    8CHTO  H118 3156   5.787   9.460   1.711
    8CHTO   O40 3157   5.619   9.445   1.592
    8CHTO   C68 3158   5.555   9.474   1.463
    8CHTO  H125 3159   5.459   9.525   1.488
    8CHTO   C72 3160   5.517   9.343   1.389
    8CHTO   O48 3161   5.421   9.265   1.460
    8CHTO  H105 3162   5.459   9.232   1.539
    8CHTO   O38 3163   5.820   9.313   1.569
    8CHTO   C55 3164   5.755   9.191   1.613
    8CHTO  H112 3165   5.648   9.198   1.593
    8CHTO   C56 3166   5.785   9.157   1.765
    8CHTO  H113 3167   5.894   9.151   1.778
    8CHTO   O42 3168   5.739   9.263   1.851
    8CHTO  H100 3169   5.789   9.341   1.835
    8CHTO   C57 3170   5.716   9.020   1.804
    8CHTO  H114 3171   5.610   9.040   1.802
    8CHTO   N10 3172   5.749   8.972   1.941
    8CHTO  H106 3173   5.668   8.912   1.980
    8CHTO  H107 3174   5.840   8.913   1.940
    8CHTO   C58 3175   5.748   8.909   1.698
    8CHTO  H115 3176   5.852   8.874   1.712
    8CHTO   O37 3177   5.733   8.954   1.563
    8CHTO   C59 3178   5.806   9.072   1.527
    8CHTO  H116 3179   5.912   9.057   1.543
    8CHTO   C70 3180   5.787   9.096   1.377
    8CHTO   O46 3181   5.846   8.993   1.298
    8CHTO  H103 3182   5.832   9.011   1.207
    8CHTO   O39 3183   5.642   8.779   1.713
    8CHTO   C60 3184   5.500   8.806   1.718
    8CHTO  H117 3185   5.481   8.872   1.803
    8CHTO   C62 3186   5.444   8.876   1.590
    8CHTO  H119 3187   5.491   8.976   1.585
    8CHTO   O43 3188   5.482   8.800   1.474
    8CHTO  H101 3189   5.442   8.715   1.475
    8CHTO   C66 3190   5.284   8.897   1.602
    8CHTO  H123 3191   5.264   8.956   1.691
    8CHTO   N12 3192   5.227   8.973   1.488
    8CHTO  H110 3193   5.304   9.001   1.417
    8CHTO  H111 3194   5.174   9.060   1.523
    8CHTO   C69 3195   5.217   8.758   1.622
    8CHTO  H126 3196   5.242   8.692   1.536
    8CHTO   O41 3197   5.273   8.697   1.751
    8CHTO   C64 3198   5.424   8.674   1.746
    8CHTO  H121 3199   5.448   8.601   1.666
    8CHTO   C71 3200   5.469   8.613   1.881
    8CHTO   O47 3201   5.408   8.486   1.903
    8CHTO  H104 3202   5.437   8.451   1.985
    8CHTO   O34 3203   5.060   8.766   1.633
    8CHTO   C49 3204   4.943   8.804   1.723
    8CHTO   H91 3205   4.937   8.727   1.800
    8CHTO   C47 3206   4.815   8.805   1.637
    8CHTO   H89 3207   4.731   8.823   1.707
    8CHTO   O33 3208   4.798   8.675   1.578
    8CHTO   H70 3209   4.717   8.672   1.531
    8CHTO   C45 3210   4.825   8.924   1.529
    8CHTO   H87 3211   4.913   8.903   1.466
    8CHTO    N8 3212   4.705   8.930   1.441
    8CHTO   H75 3213   4.628   8.863   1.476
    8CHTO   H76 3214   4.732   8.903   1.340
    8CHTO   C43 3215   4.859   9.067   1.599
    8CHTO   H85 3216   4.889   9.132   1.517
    8CHTO   O29 3217   4.964   9.054   1.698
    8CHTO   C50 3218   4.963   8.942   1.789
    8CHTO   H92 3219   5.061   8.940   1.838
    8CHTO   C54 3220   4.864   8.961   1.907
    8CHTO   O36 3221   4.904   9.069   1.993
    8CHTO   H72 3222   4.842   9.078   2.063
    8CHTO   O27 3223   4.746   9.131   1.661
    8CHTO   C37 3224   4.712   9.270   1.678
    8CHTO   H79 3225   4.638   9.278   1.758
    8CHTO   C38 3226   4.835   9.357   1.721
    8CHTO   H80 3227   4.918   9.336   1.651
    8CHTO   O31 3228   4.877   9.314   1.852
    8CHTO   H68 3229   4.809   9.330   1.915
    8CHTO   C39 3230   4.804   9.512   1.720
    8CHTO   H81 3231   4.735   9.531   1.802
    8CHTO    N7 3232   4.926   9.598   1.743
    8CHTO   H73 3233   5.014   9.537   1.756
    8CHTO   H74 3234   4.911   9.661   1.830
    8CHTO   C40 3235   4.731   9.553   1.587
    8CHTO   H82 3236   4.800   9.545   1.503
    8CHTO   O26 3237   4.616   9.468   1.569
    8CHTO   C41 3238   4.650   9.328   1.548
    8CHTO   H83 3239   4.723   9.320   1.467
    8CHTO   C52 3240   4.521   9.254   1.505
    8CHTO   O35 3241   4.470   9.303   1.377
    8CHTO   H71 3242   4.393   9.255   1.355
    8CHTO   O28 3243   4.680   9.688   1.591
    8CHTO   C42 3244   4.637   9.758   1.470
    8CHTO   H84 3245   4.598   9.853   1.508
    8CHTO   C44 3246   4.519   9.692   1.391
    8CHTO   H86 3247   4.551   9.594   1.356
    8CHTO   O32 3248   4.411   9.674   1.484
    8CHTO   H69 3249   4.377   9.757   1.512
    8CHTO   C48 3250   4.476   9.776   1.264
    8CHTO   H90 3251   4.432   9.869   1.299
    8CHTO    N9 3252   4.369   9.706   1.185
    8CHTO   H77 3253   4.342   9.766   1.099
    8CHTO   H78 3254   4.283   9.689   1.247
    8CHTO   C51 3255   4.603   9.811   1.176
    8CHTO   H93 3256   4.642   9.718   1.135
    8CHTO   O30 3257   4.700   9.879   1.257
    8CHTO   C46 3258   4.753   9.792   1.372
    8CHTO   H88 3259   4.795   9.700   1.331
    8CHTO   C53 3260   4.864   9.872   1.445
    8CHTO   O72 3261   4.973   9.901   1.357
    8CHTO  H199 3262   5.039   9.949   1.403
    8CHTO   O22 3263   4.570   9.904   1.071
    8CHTO   C31 3264   4.645   9.909   0.943
    8CHTO   H59 3265   4.601   9.995   0.886
    8CHTO   C29 3266   4.796   9.938   0.959
    8CHTO   H57 3267   4.840   9.858   1.020
    8CHTO   O21 3268   4.812   0.061   1.032
    8CHTO   H37 3269   4.781   0.050   1.120
    8CHTO   C27 3270   4.870   9.943   0.819
    8CHTO   H55 3271   4.833   0.029   0.762
    8CHTO    N5 3272   5.018   9.955   0.831
    8CHTO   H43 3273   5.049   9.950   0.935
    8CHTO   H44 3274   5.052   0.047   0.787
    8CHTO   C25 3275   4.833   9.815   0.735
    8CHTO   H53 3276   4.875   9.725   0.784
    8CHTO   O17 3277   4.688   9.799   0.727
    8CHTO   C32 3278   4.623   9.783   0.854
    8CHTO   H60 3279   4.664   9.696   0.905
    8CHTO   C36 3280   4.473   9.759   0.827
    8CHTO   O25 3281   4.451   9.631   0.766
    8CHTO   H40 3282   4.485   9.631   0.678
    8CHTO   O15 3283   4.888   9.824   0.588
    8CHTO   C19 3284   4.917   9.760   0.461
    8CHTO   H47 3285   4.825   9.704   0.438
    8CHTO   C20 3286   4.943   9.863   0.346
    8CHTO   H48 3287   5.023   9.934   0.373
    8CHTO   O19 3288   4.822   9.938   0.327
    8CHTO   H35 3289   4.807   9.995   0.400
    8CHTO   C21 3290   4.986   9.793   0.210
    8CHTO   H49 3291   4.899   9.740   0.170
    8CHTO    N4 3292   5.028   9.890   0.105
    8CHTO   H41 3293   5.053   9.838   0.014
    8CHTO   H42 3294   5.114   9.946   0.139
    8CHTO   C22 3295   5.095   9.685   0.238
    8CHTO   H50 3296   5.187   9.735   0.269
    8CHTO   O14 3297   5.051   9.594   0.340
    8CHTO   C23 3298   5.032   9.656   0.469
    8CHTO   H51 3299   5.128   9.702   0.498
    8CHTO   C34 3300   5.001   9.546   0.571
    8CHTO   O23 3301   5.111   9.455   0.586
    8CHTO   H38 3302   5.183   9.499   0.628
    8CHTO   O16 3303   5.118   9.603   0.122
    8CHTO   C24 3304   5.254   9.517   0.126
    8CHTO   H52 3305   5.289   9.501   0.228
    8CHTO   C26 3306   5.362   9.590   0.044
    8CHTO   H54 3307   5.318   9.619   2.774
    8CHTO   O20 3308   5.397   9.711   0.115
    8CHTO   H36 3309   5.457   9.762   0.063
    8CHTO   C30 3310   5.487   9.499   0.018
    8CHTO   H58 3311   5.540   9.480   0.112
    8CHTO    N6 3312   5.584   9.566   2.755
    8CHTO   H45 3313   5.669   9.501   2.738
    8CHTO   H46 3314   5.619   9.658   2.800
    8CHTO   C33 3315   5.441   9.360   2.791
    8CHTO   H61 3316   5.391   9.374   2.693
    8CHTO   O18 3317   5.346   9.303   0.055
    8CHTO   C28 3318   5.224   9.377   0.066
    8CHTO   H56 3319   5.177   9.390   2.797
    8CHTO   C35 3320   5.127   9.299   0.158
    8CHTO   O24 3321   5.089   9.173   0.103
    8CHTO   H39 3322   5.035   9.186   0.028
    8CHTO    O9 3323   5.550   9.270   2.766
    8CHTO   C13 3324   5.511   9.141   2.671
    8CHTO   H26 3325   5.424   9.170   2.608
    8CHTO   C11 3326   5.478   9.014   2.762
    8CHTO   H24 3327   5.371   9.019   2.791
    8CHTO    O8 3328   5.556   9.017   0.055
    8CHTO    H3 3329   5.648   9.014   0.035
    8CHTO    C9 3330   5.503   8.885   2.680
    8CHTO   H22 3331   5.448   8.898   2.585
    8CHTO    N2 3332   5.446   8.762   2.740
    8CHTO   H10 3333   5.367   8.722   2.677
    8CHTO   H11 3334   5.522   8.688   2.757
    8CHTO    C7 3335   5.658   8.878   2.646
    8CHTO   H20 3336   5.663   8.818   2.552
    8CHTO    O4 3337   5.717   9.008   2.623
    8CHTO   C14 3338   5.628   9.108   2.569
    8CHTO   H27 3339   5.583   9.069   2.475
    8CHTO   C18 3340   5.709   9.235   2.530
    8CHTO   O13 3341   5.803   9.206   2.425
    8CHTO    H7 3342   5.872   9.152   2.458
    8CHTO    O2 3343   5.748   8.799   2.767
    8CHTO    C1 3344   5.889   8.826   2.772
    8CHTO   H14 3345   5.905   8.936   2.769
    8CHTO    C2 3346   5.972   8.759   2.655
    8CHTO   H15 3347   5.947   8.652   2.657
    8CHTO    O6 3348   5.931   8.815   2.529
    8CHTO    H1 3349   5.949   8.908   2.526
    8CHTO    C3 3350   6.130   8.779   2.678
    8CHTO   H16 3351   6.154   8.886   2.668
    8CHTO    N1 3352   6.212   8.706   2.575
    8CHTO    H8 3353   6.190   8.744   2.477
    8CHTO    H9 3354   6.192   8.600   2.580
    8CHTO    C4 3355   6.169   8.740   2.825
    8CHTO   H17 3356   6.159   8.632   0.009
    8CHTO    O1 3357   6.086   8.809   0.092
    8CHTO    C5 3358   5.945   8.779   0.082
    8CHTO   H18 3359   5.930   8.672   0.091
    8CHTO   C16 3360   5.879   8.849   0.204
    8CHTO   O11 3361   5.741   8.815   0.220
    8CHTO    H5 3362   5.707   8.859   0.295
    8CHTO    O3 3363   6.303   8.783   0.029
    8CHTO    C6 3364   6.378   8.695   0.120
    8CHTO   H19 3365   6.314   8.626   0.174
    8CHTO    C8 3366   6.483   8.612   0.039
    8CHTO   H21 3367   6.539   8.680   2.804
    8CHTO    O7 3368   6.410   8.519   2.784
    8CHTO    H2 3369   6.362   8.458   0.009
    8CHTO   C12 3370   6.584   8.537   0.135
    8CHTO   H25 3371   6.527   8.454   0.182
    8CHTO    N3 3372   6.695   8.472   0.056
    8CHTO   H12 3373   6.751   8.547   0.002
    8CHTO   H13 3374   6.760   8.417   0.122
    8CHTO   C15 3375   6.636   8.632   0.248
    8CHTO   H28 3376   6.708   8.705   0.210
    8CHTO   O10 3377   6.699   8.554   0.364
    8CHTO    H4 3378   6.777   8.511   0.334
    8CHTO    O5 3379   6.528   8.699   0.315
    8CHTO   C10 3380   6.450   8.782   0.227
    8CHTO   H23 3381   6.518   8.853   0.178
    8CHTO   C17 3382   6.353   8.865   0.312
    8CHTO   O12 3383   6.259   8.785   0.383
    8CHTO    H6 3384   6.200   8.743   0.323
    9CHTO  H203 3385   8.546   3.554   1.095
    9CHTO   O82 3386   8.537   3.638   1.138
    9CHTO  C123 3387   8.568   3.745   1.047
    9CHTO  H227 3388   8.552   3.841   1.098
    9CHTO   O77 3389   8.710   3.727   1.020
    9CHTO  C118 3390   8.769   3.825   0.933
    9CHTO  H222 3391   8.754   3.926   0.975
    9CHTO  C125 3392   8.923   3.796   0.923
    9CHTO   O84 3393   8.987   3.813   1.049
    9CHTO  H205 3394   9.079   3.797   1.040
    9CHTO  C114 3395   8.702   3.818   0.794
    9CHTO  H218 3396   8.717   3.718   0.753
    9CHTO  C116 3397   8.548   3.840   0.807
    9CHTO  H220 3398   8.528   3.944   0.840
    9CHTO   O79 3399   8.489   3.826   0.677
    9CHTO  H201 3400   8.397   3.844   0.681
    9CHTO  C120 3401   8.486   3.738   0.912
    9CHTO  H224 3402   8.496   3.637   0.867
    9CHTO   N21 3403   8.340   3.760   0.934
    9CHTO  H211 3404   8.293   3.797   0.843
    9CHTO  H212 3405   8.324   3.830   1.015
    9CHTO   O75 3406   8.770   3.917   0.714
    9CHTO  C112 3407   8.787   3.875   0.555
    9CHTO  H216 3408   8.687   3.859   0.511
    9CHTO   O73 3409   8.866   3.755   0.549
    9CHTO  C113 3410   8.880   3.700   0.417
    9CHTO  H217 3411   8.780   3.679   0.375
    9CHTO  C124 3412   8.955   3.566   0.428
    9CHTO   O83 3413   8.880   3.467   0.499
    9CHTO  H204 3414   8.870   3.492   0.588
    9CHTO  C109 3415   8.954   3.800   0.324
    9CHTO  H213 3416   9.057   3.808   0.360
    9CHTO  C110 3417   8.884   3.940   0.327
    9CHTO  H214 3418   8.788   3.932   0.276
    9CHTO   O78 3419   8.965   4.033   0.253
    9CHTO  H200 3420   8.965   4.011   0.161
    9CHTO  C111 3421   8.861   3.988   0.474
    9CHTO  H215 3422   8.959   4.005   0.521
    9CHTO   N19 3423   8.787   4.116   0.483
    9CHTO  H207 3424   8.689   4.106   0.439
    9CHTO  H208 3425   8.777   4.146   0.587
    9CHTO   O74 3426   8.955   3.749   0.187
    9CHTO  C115 3427   9.097   3.715   0.127
    9CHTO  H219 3428   9.178   3.756   0.188
    9CHTO   O76 3429   9.124   3.556   0.121
    9CHTO  C122 3430   9.030   3.489   0.035
    9CHTO  H226 3431   8.930   3.504   0.075
    9CHTO  C126 3432   9.057   3.335   0.041
    9CHTO   O85 3433   9.032   3.280   0.171
    9CHTO  H206 3434   9.049   3.188   0.170
    9CHTO  C121 3435   9.038   3.545   2.716
    9CHTO  H225 3436   9.140   3.528   2.676
    9CHTO   O81 3437   8.947   3.476   2.628
    9CHTO  H202 3438   8.858   3.488   2.657
    9CHTO  C119 3439   9.009   3.699   2.717
    9CHTO  H223 3440   9.026   3.734   2.614
    9CHTO  C117 3441   9.106   3.780   2.812
    9CHTO  H221 3442   9.078   3.884   0.000
    9CHTO   N20 3443   9.247   3.786   2.762
    9CHTO  H209 3444   9.308   3.846   0.000
    9CHTO  H210 3445   9.288   3.687   2.754
    9CHTO   O80 3446   8.857   3.735   2.738
    9CHTO  C103 3447   8.790   3.855   2.653
    9CHTO  H190 3448   8.698   3.888   2.702
    9CHTO  C101 3449   8.880   3.982   2.626
    9CHTO  H188 3450   8.977   3.949   2.590
    9CHTO   O68 3451   8.901   4.057   2.761
    9CHTO  H168 3452   8.818   4.090   2.793
    9CHTO   C99 3453   8.815   4.077   2.515
    9CHTO  H186 3454   8.723   4.122   2.556
    9CHTO   N17 3455   8.904   4.192   2.475
    9CHTO  H174 3456   8.994   4.154   2.428
    9CHTO  H175 3457   8.928   4.252   2.562
    9CHTO   C97 3458   8.770   3.994   2.391
    9CHTO  H184 3459   8.860   3.956   2.339
    9CHTO   O64 3460   8.683   3.887   2.433
    9CHTO  C104 3461   8.747   3.789   2.517
    9CHTO  H191 3462   8.835   3.745   2.468
    9CHTO  C108 3463   8.649   3.672   2.541
    9CHTO   O71 3464   8.619   3.604   2.419
    9CHTO  H171 3465   8.560   3.534   2.436
    9CHTO   O62 3466   8.690   4.074   2.301
    9CHTO   C91 3467   8.666   4.021   2.169
    9CHTO  H178 3468   8.746   3.951   2.145
    9CHTO   C92 3469   8.678   4.138   2.066
    9CHTO  H179 3470   8.775   4.188   2.078
    9CHTO   O66 3471   8.679   4.083   1.934
    9CHTO  H166 3472   8.757   4.033   1.920
    9CHTO   C93 3473   8.557   4.240   2.075
    9CHTO  H180 3474   8.546   4.286   1.976
    9CHTO   N16 3475   8.585   4.353   2.168
    9CHTO  H172 3476   8.575   4.448   2.116
    9CHTO  H173 3477   8.521   4.350   2.255
    9CHTO   C94 3478   8.423   4.165   2.112
    9CHTO  H181 3479   8.402   4.168   2.219
    9CHTO   O61 3480   8.429   4.026   2.076
    9CHTO   C95 3481   8.524   3.950   2.154
    9CHTO  H182 3482   8.482   3.935   2.254
    9CHTO  C106 3483   8.539   3.807   2.091
    9CHTO   O69 3484   8.414   3.736   2.094
    9CHTO  H169 3485   8.426   3.651   2.055
    9CHTO   O63 3486   8.306   4.232   2.033
    9CHTO   C96 3487   8.164   4.209   2.098
    9CHTO  H183 3488   8.176   4.152   2.191
    9CHTO   C98 3489   8.066   4.130   2.007
    9CHTO  H185 3490   8.071   4.170   1.904
    9CHTO   O67 3491   8.117   3.995   1.998
    9CHTO  H167 3492   8.065   3.945   1.937
    9CHTO  C102 3493   7.914   4.132   2.060
    9CHTO  H189 3494   7.914   4.076   2.155
    9CHTO   N18 3495   7.815   4.064   1.973
    9CHTO  H176 3496   7.843   3.960   1.960
    9CHTO  H177 3497   7.717   4.069   2.017
    9CHTO  C105 3498   7.876   4.279   2.090
    9CHTO  H192 3499   7.881   4.337   1.997
    9CHTO   O65 3500   7.968   4.337   2.184
    9CHTO  C100 3501   8.102   4.349   2.136
    9CHTO  H187 3502   8.102   4.414   2.047
    9CHTO  C107 3503   8.185   4.420   2.246
    9CHTO   O70 3504   8.135   4.552   2.274
    9CHTO  H170 3505   8.151   4.608   2.201
    9CHTO   O57 3506   7.725   4.287   2.153
    9CHTO   C85 3507   7.642   4.400   2.122
    9CHTO  H157 3508   7.629   4.398   2.012
    9CHTO   C83 3509   7.716   4.535   2.153
    9CHTO  H155 3510   7.802   4.543   2.087
    9CHTO   O56 3511   7.768   4.533   2.288
    9CHTO  H135 3512   7.833   4.465   2.296
    9CHTO   C81 3513   7.620   4.654   2.125
    9CHTO  H153 3514   7.584   4.645   2.022
    9CHTO   N14 3515   7.687   4.787   2.130
    9CHTO  H141 3516   7.769   4.788   2.062
    9CHTO  H142 3517   7.617   4.863   2.102
    9CHTO   C79 3518   7.495   4.644   2.221
    9CHTO  H151 3519   7.428   4.727   2.196
    9CHTO   O52 3520   7.423   4.520   2.191
    9CHTO   C86 3521   7.502   4.397   2.197
    9CHTO  H158 3522   7.516   4.378   2.305
    9CHTO   C90 3523   7.417   4.279   2.143
    9CHTO   O60 3524   7.302   4.257   2.225
    9CHTO  H138 3525   7.252   4.186   2.190
    9CHTO   O50 3526   7.528   4.652   2.361
    9CHTO   C73 3527   7.489   4.687   2.494
    9CHTO  H145 3528   7.384   4.659   2.512
    9CHTO   C74 3529   7.503   4.841   2.517
    9CHTO  H146 3530   7.441   4.892   2.441
    9CHTO   O54 3531   7.444   4.874   2.645
    9CHTO  H133 3532   7.351   4.860   2.643
    9CHTO   C75 3533   7.655   4.883   2.507
    9CHTO  H147 3534   7.690   4.862   2.404
    9CHTO   N13 3535   7.682   5.027   2.529
    9CHTO  H139 3536   7.728   5.071   2.441
    9CHTO  H140 3537   7.591   5.081   2.550
    9CHTO   C76 3538   7.745   4.792   2.604
    9CHTO  H148 3539   7.721   4.818   2.707
    9CHTO   O49 3540   7.717   4.650   2.582
    9CHTO   C77 3541   7.579   4.613   2.597
    9CHTO  H149 3542   7.546   4.637   2.698
    9CHTO   C88 3543   7.567   4.461   2.585
    9CHTO   O58 3544   7.643   4.390   2.692
    9CHTO  H136 3545   7.735   4.403   2.680
    9CHTO   O51 3546   7.902   4.808   2.569
    9CHTO   C78 3547   7.996   4.791   2.696
    9CHTO  H150 3548   7.937   4.769   2.787
    9CHTO   C80 3549   8.078   4.920   2.719
    9CHTO  H152 3550   8.133   4.945   2.625
    9CHTO   O55 3551   7.984   5.025   2.746
    9CHTO  H134 3552   8.028   5.107   2.752
    9CHTO   C84 3553   8.182   4.902   0.009
    9CHTO  H156 3554   8.125   4.886   0.101
    9CHTO   N15 3555   8.268   5.023   0.031
    9CHTO  H143 3556   8.323   5.045   2.770
    9CHTO  H144 3557   8.207   5.107   0.056
    9CHTO   C87 3558   8.268   4.775   2.813
    9CHTO  H159 3559   8.334   4.789   2.727
    9CHTO   O53 3560   8.175   4.655   2.789
    9CHTO   C82 3561   8.091   4.672   2.674
    9CHTO  H154 3562   8.153   4.688   2.585
    9CHTO   C89 3563   8.015   4.539   2.650
    9CHTO   O59 3564   7.933   4.502   2.762
    9CHTO  H137 3565   7.987   4.482   0.008
    9CHTO   O45 3566   8.360   4.739   0.116
    9CHTO   C67 3567   8.437   4.618   0.102
    9CHTO  H124 3568   8.389   4.552   0.030
    9CHTO   C65 3569   8.582   4.649   0.053
    9CHTO  H122 3570   8.609   4.746   0.095
    9CHTO   O44 3571   8.575   4.661   2.738
    9CHTO  H102 3572   8.524   4.737   2.714
    9CHTO   C63 3573   8.690   4.549   0.112
    9CHTO  H120 3574   8.716   4.583   0.213
    9CHTO   N11 3575   8.825   4.550   0.046
    9CHTO  H108 3576   8.817   4.509   2.776
    9CHTO  H109 3577   8.894   4.493   0.104
    9CHTO   C61 3578   8.626   4.406   0.131
    9CHTO  H118 3579   8.703   4.345   0.181
    9CHTO   O40 3580   8.512   4.411   0.222
    9CHTO   C68 3581   8.440   4.538   0.238
    9CHTO  H125 3582   8.490   4.598   0.316
    9CHTO   C72 3583   8.297   4.507   0.289
    9CHTO   O48 3584   8.296   4.445   0.418
    9CHTO  H105 3585   8.327   4.506   0.482
    9CHTO   O38 3586   8.593   4.343   0.005
    9CHTO   C55 3587   8.493   4.239   0.001
    9CHTO  H112 3588   8.402   4.275   0.051
    9CHTO   C56 3589   8.545   4.101   0.063
    9CHTO  H113 3590   8.638   4.075   0.010
    9CHTO   O42 3591   8.579   4.120   0.201
    9CHTO  H100 3592   8.619   4.042   0.235
    9CHTO   C57 3593   8.437   3.987   0.046
    9CHTO  H114 3594   8.354   4.014   0.112
    9CHTO   N10 3595   8.485   3.853   0.090
    9CHTO  H106 3596   8.402   3.793   0.125
    9CHTO  H107 3597   8.534   3.802   0.009
    9CHTO   C58 3598   8.384   3.983   2.728
    9CHTO  H115 3599   8.463   3.941   2.661
    9CHTO   O37 3600   8.345   4.114   2.682
    9CHTO   C59 3601   8.449   4.212   2.681
    9CHTO  H116 3602   8.533   4.177   2.621
    9CHTO   C70 3603   8.391   4.338   2.615
    9CHTO   O46 3604   8.490   4.433   2.576
    9CHTO  H103 3605   8.529   4.471   2.652
    9CHTO   O39 3606   8.247   3.900   2.718
    9CHTO   C60 3607   8.254   3.769   2.659
    9CHTO  H117 3608   8.358   3.738   2.647
    9CHTO   C62 3609   8.181   3.666   2.750
    9CHTO  H119 3610   8.234   3.668   0.020
    9CHTO   O43 3611   8.045   3.708   2.773
    9CHTO  H101 3612   7.997   3.709   2.692
    9CHTO   C66 3613   8.193   3.519   2.685
    9CHTO  H123 3614   8.299   3.495   2.673
    9CHTO   N12 3615   8.138   3.414   2.774
    9CHTO  H110 3616   8.192   3.412   0.040
    9CHTO  H111 3617   8.032   3.431   2.791
    9CHTO   C69 3618   8.129   3.519   2.544
    9CHTO  H126 3619   8.020   3.540   2.552
    9CHTO   O41 3620   8.197   3.630   2.456
    9CHTO   C64 3621   8.191   3.769   2.516
    9CHTO  H121 3622   8.085   3.802   2.524
    9CHTO   C71 3623   8.264   3.866   2.421
    9CHTO   O47 3624   8.197   3.877   2.295
    9CHTO  H104 3625   8.205   3.797   2.248
    9CHTO   O34 3626   8.148   3.382   2.473
    9CHTO   C49 3627   8.216   3.335   2.342
    9CHTO   H91 3628   8.170   3.391   2.261
    9CHTO   C47 3629   8.188   3.184   2.327
    9CHTO   H89 3630   8.224   3.159   2.225
    9CHTO   O33 3631   8.046   3.158   2.330
    9CHTO   H70 3632   8.011   3.181   2.414
    9CHTO   C45 3633   8.264   3.097   2.440
    9CHTO   H87 3634   8.194   3.080   2.523
    9CHTO    N8 3635   8.301   2.966   2.382
    9CHTO   H75 3636   8.247   2.887   2.431
    9CHTO   H76 3637   8.408   2.948   2.392
    9CHTO   C43 3638   8.384   3.183   2.506
    9CHTO   H85 3639   8.335   3.250   2.577
    9CHTO   O29 3640   8.454   3.256   2.404
    9CHTO   C50 3641   8.371   3.357   2.341
    9CHTO   H92 3642   8.391   3.452   2.393
    9CHTO   C54 3643   8.425   3.385   2.198
    9CHTO   O36 3644   8.427   3.267   2.115
    9CHTO   H72 3645   8.491   3.207   2.148
    9CHTO   O27 3646   8.473   3.104   2.587
    9CHTO   C37 3647   8.514   3.118   2.725
    9CHTO   H79 3648   8.589   3.041   2.749
    9CHTO   C38 3649   8.582   3.256   2.748
    9CHTO   H80 3650   8.517   3.335   2.706
    9CHTO   O31 3651   8.706   3.256   2.675
    9CHTO   H68 3652   8.747   3.340   2.680
    9CHTO   C39 3653   8.605   3.286   0.074
    9CHTO   H81 3654   8.682   3.217   0.109
    9CHTO    N7 3655   8.656   3.425   0.099
    9CHTO   H73 3656   8.585   3.497   0.061
    9CHTO   H74 3657   8.752   3.438   0.053
    9CHTO   C40 3658   8.474   3.256   0.156
    9CHTO   H82 3659   8.398   3.330   0.129
    9CHTO   O26 3660   8.430   3.122   0.130
    9CHTO   C41 3661   8.391   3.100   2.819
    9CHTO   H83 3662   8.313   3.173   2.791
    9CHTO   C52 3663   8.330   2.959   2.808
    9CHTO   O35 3664   8.203   2.946   0.057
    9CHTO   H71 3665   8.137   2.999   0.018
    9CHTO   O28 3666   8.494   3.258   0.299
    9CHTO   C42 3667   8.391   3.316   0.386
    9CHTO   H84 3668   8.422   3.285   0.486
    9CHTO   C44 3669   8.246   3.259   0.366
    9CHTO   H86 3670   8.219   3.266   0.260
    9CHTO   O32 3671   8.250   3.118   0.399
    9CHTO   H69 3672   8.266   3.107   0.491
    9CHTO   C48 3673   8.136   3.338   0.449
    9CHTO   H90 3674   8.154   3.321   0.555
    9CHTO    N9 3675   7.997   3.288   0.422
    9CHTO   H77 3676   7.973   3.301   0.317
    9CHTO   H78 3677   7.926   3.342   0.483
    9CHTO   C51 3678   8.155   3.491   0.418
    9CHTO   H93 3679   8.146   3.505   0.310
    9CHTO   O30 3680   8.285   3.529   0.466
    9CHTO   C46 3681   8.393   3.472   0.383
    9CHTO   H88 3682   8.381   3.507   0.280
    9CHTO   C53 3683   8.526   3.526   0.441
    9CHTO   O72 3684   8.532   3.668   0.426
    9CHTO  H199 3685   8.471   3.710   0.484
    9CHTO   O22 3686   8.064   3.578   0.489
    9CHTO   C31 3687   8.032   3.714   0.440
    9CHTO   H59 3688   7.951   3.751   0.507
    9CHTO   C29 3689   8.147   3.817   0.446
    9CHTO   H57 3690   8.228   3.781   0.380
    9CHTO   O21 3691   8.200   3.818   0.580
    9CHTO   H37 3692   8.136   3.852   0.640
    9CHTO   C27 3693   8.100   3.960   0.398
    9CHTO   H55 3694   8.027   3.999   0.470
    9CHTO    N5 3695   8.212   4.057   0.388
    9CHTO   H43 3696   8.284   4.024   0.315
    9CHTO   H44 3697   8.259   4.069   0.484
    9CHTO   C25 3698   8.024   3.949   0.260
    9CHTO   H53 3699   8.095   3.920   0.181
    9CHTO   O17 3700   7.920   3.847   0.267
    9CHTO   C32 3701   7.971   3.716   0.296
    9CHTO   H60 3702   8.049   3.691   0.224
    9CHTO   C36 3703   7.857   3.613   0.279
    9CHTO   O25 3704   7.762   3.618   0.386
    9CHTO   H40 3705   7.713   3.698   0.381
    9CHTO   O15 3706   7.954   4.089   0.220
    9CHTO   C19 3707   7.900   4.128   0.090
    9CHTO   H47 3708   7.870   4.233   0.104
    9CHTO   C20 3709   8.003   4.121   2.801
    9CHTO   H48 3710   8.047   4.021   2.792
    9CHTO   O19 3711   8.109   4.213   0.006
    9CHTO   H35 3712   8.158   4.182   0.079
    9CHTO   C21 3713   7.937   4.157   2.662
    9CHTO   H49 3714   7.902   4.260   2.665
    9CHTO    N4 3715   8.031   4.146   2.546
    9CHTO   H41 3716   8.040   4.242   2.497
    9CHTO   H42 3717   8.128   4.113   2.578
    9CHTO   C22 3718   7.811   4.068   2.643
    9CHTO   H50 3719   7.843   3.964   2.641
    9CHTO   O14 3720   7.720   4.090   2.752
    9CHTO   C23 3721   7.769   4.050   0.053
    9CHTO   H51 3722   7.785   3.942   0.050
    9CHTO   C34 3723   7.658   4.075   0.157
    9CHTO   O23 3724   7.616   4.212   0.161
    9CHTO   H38 3725   7.547   4.222   0.224
    9CHTO   O16 3726   7.737   4.102   2.524
    9CHTO   C24 3727   7.641   3.985   2.475
    9CHTO   H52 3728   7.628   3.908   2.552
    9CHTO   C26 3729   7.698   3.921   2.347
    9CHTO   H54 3730   7.716   4.002   2.272
    9CHTO   O20 3731   7.825   3.861   2.380
    9CHTO   H36 3732   7.866   3.827   2.303
    9CHTO   C30 3733   7.598   3.818   2.286
    9CHTO   H58 3734   7.588   3.732   2.354
    9CHTO    N6 3735   7.646   3.762   2.157
    9CHTO   H45 3736   7.739   3.710   2.171
    9CHTO   H46 3737   7.661   3.841   2.085
    9CHTO   C33 3738   7.455   3.880   2.274
    9CHTO   H61 3739   7.455   3.960   2.197
    9CHTO   O18 3740   7.419   3.938   2.400
    9CHTO   C28 3741   7.502   4.044   2.447
    9CHTO   H56 3742   7.511   4.123   2.372
    9CHTO   C35 3743   7.437   4.103   2.575
    9CHTO   O24 3744   7.311   4.166   2.547
    9CHTO   H39 3745   7.277   4.203   2.626
    9CHTO    O9 3746   7.357   3.784   2.230
    9CHTO   C13 3747   7.208   3.846   2.183
    9CHTO   H26 3748   7.225   3.906   2.091
    9CHTO   C11 3749   7.143   3.933   2.299
    9CHTO   H24 3750   7.200   4.026   2.307
    9CHTO    O8 3751   7.154   3.865   2.426
    9CHTO    H3 3752   7.105   3.785   2.425
    9CHTO    C9 3753   6.997   3.969   2.260
    9CHTO   H22 3754   7.004   4.015   2.160
    9CHTO    N2 3755   6.934   4.073   2.344
    9CHTO   H10 3756   6.839   4.039   2.383
    9CHTO   H11 3757   6.999   4.102   2.425
    9CHTO    C7 3758   6.916   3.835   2.246
    9CHTO   H20 3759   6.814   3.866   2.219
    9CHTO    O4 3760   6.971   3.755   2.140
    9CHTO   C14 3761   7.113   3.725   2.138
    9CHTO   H27 3762   7.137   3.703   2.032
    9CHTO   C18 3763   7.139   3.595   2.218
    9CHTO   O13 3764   7.074   3.483   2.157
    9CHTO    H7 3765   7.093   3.405   2.206
    9CHTO    O2 3766   6.914   3.745   2.386
    9CHTO    C1 3767   6.789   3.690   2.431
    9CHTO   H14 3768   6.813   3.612   2.507
    9CHTO    C2 3769   6.697   3.625   2.320
    9CHTO   H15 3770   6.678   3.702   2.243
    9CHTO    O6 3771   6.768   3.515   2.262
    9CHTO    H1 3772   6.720   3.480   2.189
    9CHTO    C3 3773   6.557   3.576   2.383
    9CHTO   H16 3774   6.578   3.492   2.451
    9CHTO    N1 3775   6.460   3.528   2.279
    9CHTO    H8 3776   6.435   3.424   2.297
    9CHTO    H9 3777   6.500   3.539   2.180
    9CHTO    C4 3778   6.494   3.689   2.474
    9CHTO   H17 3779   6.456   3.769   2.410
    9CHTO    O1 3780   6.591   3.742   2.566
    9CHTO    C5 3781   6.708   3.799   2.508
    9CHTO   H18 3782   6.681   3.878   2.438
    9CHTO   C16 3783   6.791   3.861   2.624
    9CHTO   O11 3784   6.722   3.972   2.684
    9CHTO    H5 3785   6.719   4.044   2.624
    9CHTO    O3 3786   6.389   3.636   2.558
    9CHTO    C6 3787   6.299   3.738   2.615
    9CHTO   H19 3788   6.335   3.840   2.600
    9CHTO    C8 3789   6.158   3.726   2.549
    9CHTO   H21 3790   6.122   3.624   2.563
    9CHTO    O7 3791   6.175   3.753   2.408
    9CHTO    H2 3792   6.093   3.740   2.363
    9CHTO   C12 3793   6.057   3.827   2.618
    9CHTO   H25 3794   6.093   3.929   2.593
    9CHTO    N3 3795   5.919   3.813   2.561
    9CHTO   H12 3796   5.848   3.782   2.637
    9CHTO   H13 3797   5.888   3.906   2.516
    9CHTO   C15 3798   6.063   3.809   2.774
    9CHTO   H28 3799   6.017   3.715   2.806
    9CHTO   O10 3800   5.996   3.925   0.022
    9CHTO    H4 3801   5.904   3.927   0.003
    9CHTO    O5 3802   6.197   3.817   2.823
    9CHTO   C10 3803   6.285   3.717   2.768
    9CHTO   H23 3804   6.243   3.619   2.788
    9CHTO   C17 3805   6.419   3.725   0.014
    9CHTO   O12 3806   6.405   3.688   0.151
    9CHTO    H6 3807   6.489   3.690   0.193
   10CHTO  H203 3808   5.419   6.211   2.425
   10CHTO   O82 3809   5.352   6.164   2.470
   10CHTO  C123 3810   5.222   6.206   2.425
   10CHTO  H227 3811   5.214   6.185   2.317
   10CHTO   O77 3812   5.132   6.119   2.500
   10CHTO  C118 3813   4.992   6.140   2.474
   10CHTO  H222 3814   4.972   6.130   2.367
   10CHTO  C125 3815   4.912   6.029   2.552
   10CHTO   O84 3816   4.935   5.899   2.497
   10CHTO  H205 3817   5.024   5.873   2.512
   10CHTO  C114 3818   4.955   6.282   2.520
   10CHTO  H218 3819   4.983   6.294   2.625
   10CHTO  C116 3820   5.038   6.385   2.437
   10CHTO  H220 3821   5.011   6.375   2.329
   10CHTO   O79 3822   4.999   6.519   2.475
   10CHTO  H201 3823   5.020   6.535   2.565
   10CHTO  C120 3824   5.192   6.358   2.457
   10CHTO  H224 3825   5.214   6.378   2.565
   10CHTO   N21 3826   5.278   6.449   2.377
   10CHTO  H211 3827   5.228   6.477   2.285
   10CHTO  H212 3828   5.302   6.537   2.434
   10CHTO   O75 3829   4.812   6.297   2.503
   10CHTO  C112 3830   4.734   6.333   2.646
   10CHTO  H216 3831   4.803   6.389   2.711
   10CHTO   O73 3832   4.695   6.208   2.705
   10CHTO  C113 3833   4.633   6.219   0.005
   10CHTO  H217 3834   4.703   6.270   0.075
   10CHTO  C124 3835   4.609   6.077   0.059
   10CHTO   O83 3836   4.730   6.002   0.079
   10CHTO  H204 3837   4.770   5.984   2.825
   10CHTO  C109 3838   4.501   6.299   2.822
   10CHTO  H213 3839   4.433   6.239   2.759
   10CHTO  C110 3840   4.527   6.437   2.755
   10CHTO  H214 3841   4.585   6.499   2.824
   10CHTO   O78 3842   4.400   6.502   2.736
   10CHTO  H200 3843   4.413   6.590   2.704
   10CHTO  C111 3844   4.605   6.420   2.621
   10CHTO  H215 3845   4.540   6.365   2.550
   10CHTO   N19 3846   4.641   6.549   2.556
   10CHTO  H207 3847   4.701   6.608   2.622
   10CHTO  H208 3848   4.551   6.603   2.530
   10CHTO   O74 3849   4.442   6.315   0.127
   10CHTO  C115 3850   4.286   6.287   0.131
   10CHTO  H219 3851   4.238   6.310   0.035
   10CHTO   O76 3852   4.255   6.133   0.154
   10CHTO  C122 3853   4.300   6.088   0.282
   10CHTO  H226 3854   4.408   6.098   0.285
   10CHTO  C126 3855   4.271   5.934   0.293
   10CHTO   O85 3856   4.323   5.876   0.413
   10CHTO  H206 3857   4.276   5.909   0.487
   10CHTO  C121 3858   4.233   6.169   0.401
   10CHTO  H225 3859   4.169   6.101   0.460
   10CHTO   O81 3860   4.336   6.218   0.489
   10CHTO  H202 3861   4.382   6.146   0.528
   10CHTO  C119 3862   4.147   6.289   0.350
   10CHTO  H223 3863   4.062   6.243   0.298
   10CHTO  C117 3864   4.225   6.378   0.246
   10CHTO  H221 3865   4.311   6.430   0.288
   10CHTO   N20 3866   4.139   6.486   0.187
   10CHTO  H209 3867   4.175   6.583   0.217
   10CHTO  H210 3868   4.035   6.474   0.216
   10CHTO   O80 3869   4.074   6.366   0.469
   10CHTO  C103 3870   3.915   6.353   0.492
   10CHTO  H190 3871   3.885   6.419   0.573
   10CHTO  C101 3872   3.823   6.385   0.368
   10CHTO  H188 3873   3.859   6.330   0.281
   10CHTO   O68 3874   3.835   6.540   0.336
   10CHTO  H168 3875   3.803   6.590   0.409
   10CHTO   C99 3876   3.672   6.342   0.396
   10CHTO  H186 3877   3.634   6.405   0.479
   10CHTO   N17 3878   3.580   6.363   0.279
   10CHTO  H174 3879   3.507   6.439   0.302
   10CHTO  H175 3880   3.532   6.271   0.249
   10CHTO   C97 3881   3.668   6.196   0.449
   10CHTO  H184 3882   3.701   6.129   0.368
   10CHTO   O64 3883   3.751   6.184   0.565
   10CHTO  C104 3884   3.891   6.205   0.541
   10CHTO  H191 3885   3.930   6.136   0.466
   10CHTO  C108 3886   3.968   6.177   0.671
   10CHTO   O71 3887   3.949   6.042   0.711
   10CHTO  H171 3888   3.998   6.026   0.790
   10CHTO   O62 3889   3.537   6.157   0.498
   10CHTO   C91 3890   3.506   6.016   0.487
   10CHTO  H178 3891   3.543   5.982   0.390
   10CHTO   C92 3892   3.351   5.999   0.481
   10CHTO  H179 3893   3.308   6.073   0.412
   10CHTO   O66 3894   3.322   5.872   0.420
   10CHTO  H166 3895   3.357   5.802   0.471
   10CHTO   C93 3896   3.279   6.003   0.622
   10CHTO  H180 3897   3.184   5.948   0.611
   10CHTO   N16 3898   3.237   6.139   0.664
   10CHTO  H172 3899   3.287   6.170   0.754
   10CHTO  H173 3900   3.252   6.211   0.585
   10CHTO   C94 3901   3.365   5.930   0.734
   10CHTO  H181 3902   3.416   6.002   0.799
   10CHTO   O61 3903   3.469   5.849   0.675
   10CHTO   C95 3904   3.568   5.924   0.603
   10CHTO  H182 3905   3.623   5.986   0.674
   10CHTO  C106 3906   3.671   5.819   0.547
   10CHTO   O69 3907   3.783   5.882   0.484
   10CHTO  H169 3908   3.835   5.926   0.549
   10CHTO   O63 3909   3.269   5.837   0.820
   10CHTO   C96 3910   3.341   5.765   0.944
   10CHTO  H183 3911   3.442   5.806   0.954
   10CHTO   C98 3912   3.355   5.611   0.927
   10CHTO  H185 3913   3.256   5.567   0.906
   10CHTO   O67 3914   3.434   5.585   0.810
   10CHTO  H167 3915   3.389   5.612   0.733
   10CHTO  C102 3916   3.422   5.541   1.055
   10CHTO  H189 3917   3.529   5.565   1.048
   10CHTO   N18 3918   3.417   5.392   1.053
   10CHTO  H176 3919   3.516   5.350   1.059
   10CHTO  H177 3920   3.356   5.354   1.134
   10CHTO  C105 3921   3.368   5.603   1.187
   10CHTO  H192 3922   3.334   5.523   1.254
   10CHTO   O65 3923   3.254   5.690   1.172
   10CHTO  C100 3924   3.261   5.798   1.076
   10CHTO  H187 3925   3.157   5.818   1.046
   10CHTO  C107 3926   3.314   5.926   1.144
   10CHTO   O70 3927   3.228   5.966   1.251
   10CHTO  H170 3928   3.263   6.043   1.292
   10CHTO   O57 3929   3.499   5.676   1.256
   10CHTO   C85 3930   3.518   5.660   1.397
   10CHTO  H157 3931   3.441   5.587   1.431
   10CHTO   C83 3932   3.485   5.792   1.472
   10CHTO  H155 3933   3.384   5.822   1.444
   10CHTO   O56 3934   3.572   5.898   1.426
   10CHTO  H135 3935   3.661   5.880   1.450
   10CHTO   C81 3936   3.488   5.765   1.625
   10CHTO  H153 3937   3.414   5.688   1.647
   10CHTO   N14 3938   3.442   5.882   1.704
   10CHTO  H141 3939   3.346   5.913   1.671
   10CHTO  H142 3940   3.437   5.856   1.808
   10CHTO   C79 3941   3.630   5.710   1.671
   10CHTO  H151 3942   3.616   5.669   1.771
   10CHTO   O52 3943   3.673   5.597   1.587
   10CHTO   C86 3944   3.663   5.617   1.443
   10CHTO  H158 3945   3.738   5.696   1.420
   10CHTO   C90 3946   3.710   5.491   1.368
   10CHTO   O60 3947   3.849   5.465   1.394
   10CHTO  H138 3948   3.876   5.389   1.345
   10CHTO   O50 3949   3.735   5.809   1.679
   10CHTO   C73 3950   3.857   5.780   1.749
   10CHTO  H145 3951   3.887   5.676   1.728
   10CHTO   C74 3952   3.839   5.793   1.903
   10CHTO  H146 3953   3.753   5.730   1.932
   10CHTO   O54 3954   3.954   5.734   1.966
   10CHTO  H133 3955   3.944   5.735   2.060
   10CHTO   C75 3956   3.816   5.945   1.942
   10CHTO  H147 3957   3.726   5.981   1.890
   10CHTO   N13 3958   3.791   5.966   2.086
   10CHTO  H139 3959   3.774   6.071   2.106
   10CHTO  H140 3960   3.877   5.934   2.144
   10CHTO   C76 3961   3.940   6.030   1.887
   10CHTO  H148 3962   4.030   5.992   1.935
   10CHTO   O49 3963   3.952   6.012   1.742
   10CHTO   C77 3964   3.973   5.875   1.703
   10CHTO  H149 3965   4.066   5.841   1.749
   10CHTO   C88 3966   3.999   5.869   1.552
   10CHTO   O58 3967   3.890   5.926   1.472
   10CHTO  H136 3968   3.885   6.019   1.486
   10CHTO   O51 3969   3.922   6.185   1.909
   10CHTO   C78 3970   4.060   6.261   1.939
   10CHTO  H150 3971   4.146   6.205   1.896
   10CHTO   C80 3972   4.080   6.275   2.092
   10CHTO  H152 3973   3.987   6.318   2.136
   10CHTO   O55 3974   4.097   6.142   2.144
   10CHTO  H134 3975   4.100   6.144   2.238
   10CHTO   C84 3976   4.204   6.366   2.128
   10CHTO  H156 3977   4.294   6.314   2.097
   10CHTO   N15 3978   4.218   6.391   2.275
   10CHTO  H143 3979   4.232   6.298   2.327
   10CHTO  H144 3980   4.130   6.439   2.313
   10CHTO   C87 3981   4.198   6.499   2.048
   10CHTO  H159 3982   4.117   6.563   2.085
   10CHTO   O53 3983   4.178   6.469   1.898
   10CHTO   C82 3984   4.056   6.399   1.872
   10CHTO  H154 3985   3.971   6.457   1.908
   10CHTO   C89 3986   4.038   6.384   1.719
   10CHTO   O59 3987   4.024   6.511   1.655
   10CHTO  H137 3988   4.105   6.558   1.659
   10CHTO   O45 3989   4.339   6.579   2.060
   10CHTO   C67 3990   4.329   6.719   2.031
   10CHTO  H124 3991   4.250   6.736   1.958
   10CHTO   C65 3992   4.298   6.802   2.161
   10CHTO  H122 3993   4.299   6.731   2.243
   10CHTO   O44 3994   4.164   6.855   2.148
   10CHTO  H102 3995   4.163   6.925   2.085
   10CHTO   C63 3996   4.412   6.906   2.194
   10CHTO  H120 3997   4.503   6.851   2.215
   10CHTO   N11 3998   4.395   6.983   2.322
   10CHTO  H108 3999   4.484   7.039   2.343
   10CHTO  H109 4000   4.312   7.051   2.313
   10CHTO   C61 4001   4.440   6.994   2.066
   10CHTO  H118 4002   4.532   7.050   2.088
   10CHTO   O40 4003   4.466   6.914   1.947
   10CHTO   C68 4004   4.462   6.768   1.960
   10CHTO  H125 4005   4.550   6.735   2.020
   10CHTO   C72 4006   4.477   6.705   1.820
   10CHTO   O48 4007   4.603   6.736   1.759
   10CHTO  H105 4008   4.605   6.827   1.735
   10CHTO   O38 4009   4.330   7.082   2.033
   10CHTO   C55 4010   4.346   7.215   1.977
   10CHTO  H112 4011   4.265   7.223   1.903
   10CHTO   C56 4012   4.489   7.247   1.913
   10CHTO  H113 4013   4.566   7.225   1.989
   10CHTO   O42 4014   4.513   7.160   1.802
   10CHTO  H100 4015   4.522   7.071   1.831
   10CHTO   C57 4016   4.501   7.399   1.870
   10CHTO  H114 4017   4.437   7.412   1.783
   10CHTO   N10 4018   4.638   7.438   1.827
   10CHTO  H106 4019   4.697   7.470   1.911
   10CHTO  H107 4020   4.688   7.355   1.779
   10CHTO   C58 4021   4.451   7.491   1.983
   10CHTO  H115 4022   4.522   7.487   2.069
   10CHTO   O37 4023   4.320   7.453   2.027
   10CHTO   C59 4024   4.312   7.322   2.086
   10CHTO  H116 4025   4.380   7.315   2.171
   10CHTO   C70 4026   4.168   7.309   2.137
   10CHTO   O46 4027   4.143   7.191   2.213
   10CHTO  H103 4028   4.152   7.115   2.159
   10CHTO   O39 4029   4.435   7.645   1.929
   10CHTO   C60 4030   4.443   7.749   2.029
   10CHTO  H117 4031   4.373   7.726   2.109
   10CHTO   C62 4032   4.586   7.761   2.090
   10CHTO  H119 4033   4.605   7.668   2.147
   10CHTO   O43 4034   4.681   7.770   1.982
   10CHTO  H101 4035   4.686   7.689   1.935
   10CHTO   C66 4036   4.594   7.886   2.191
   10CHTO  H123 4037   4.520   7.872   2.270
   10CHTO   N12 4038   4.725   7.896   2.260
   10CHTO  H110 4039   4.804   7.910   2.187
   10CHTO  H111 4040   4.723   7.977   2.332
   10CHTO   C69 4041   4.556   8.016   2.114
   10CHTO  H126 4042   4.625   8.031   2.029
   10CHTO   O41 4043   4.412   7.999   2.062
   10CHTO   C64 4044   4.397   7.884   1.965
   10CHTO  H121 4045   4.460   7.904   1.876
   10CHTO   C71 4046   4.250   7.875   1.919
   10CHTO   O47 4047   4.210   7.993   1.847
   10CHTO  H104 4048   4.205   8.066   1.906
   10CHTO   O34 4049   4.559   8.142   2.205
   10CHTO   C49 4050   4.628   8.279   2.201
   10CHTO   H91 4051   4.725   8.268   2.249
   10CHTO   C47 4052   4.540   8.377   2.282
   10CHTO   H89 4053   4.596   8.473   2.288
   10CHTO   O33 4054   4.522   8.325   2.415
   10CHTO   H70 4055   4.603   8.327   2.462
   10CHTO   C45 4056   4.401   8.400   2.202
   10CHTO   H87 4057   4.355   8.302   2.184
   10CHTO    N8 4058   4.304   8.483   2.279
   10CHTO   H75 4059   4.216   8.425   2.303
   10CHTO   H76 4060   4.276   8.571   2.223
   10CHTO   C43 4061   4.435   8.459   2.056
   10CHTO   H85 4062   4.340   8.466   2.003
   10CHTO   O29 4063   4.528   8.374   1.987
   10CHTO   C50 4064   4.648   8.332   2.056
   10CHTO   H92 4065   4.691   8.249   1.998
   10CHTO   C54 4066   4.760   8.440   2.050
   10CHTO   O36 4067   4.794   8.472   1.914
   10CHTO   H72 4068   4.863   8.536   1.914
   10CHTO   O27 4069   4.485   8.593   2.064
   10CHTO   C37 4070   4.522   8.720   2.008
   10CHTO   H79 4071   4.629   8.720   1.980
   10CHTO   C38 4072   4.440   8.749   1.880
   10CHTO   H80 4073   4.334   8.730   1.902
   10CHTO   O31 4074   4.483   8.655   1.779
   10CHTO   H68 4075   4.428   8.662   1.703
   10CHTO   C39 4076   4.457   8.898   1.830
   10CHTO   H81 4077   4.558   8.908   1.793
   10CHTO    N7 4078   4.364   8.935   1.717
   10CHTO   H73 4079   4.301   8.851   1.690
   10CHTO   H74 4080   4.421   8.968   1.632
   10CHTO   C40 4081   4.443   9.000   1.950
   10CHTO   H82 4082   4.338   9.010   1.980
   10CHTO   O26 4083   4.527   8.962   2.060
   10CHTO   C41 4084   4.499   8.830   2.115
   10CHTO   H83 4085   4.394   8.826   2.148
   10CHTO   C52 4086   4.588   8.810   2.240
   10CHTO   O35 4087   4.734   8.814   2.209
   10CHTO   H71 4088   4.783   8.799   2.288
   10CHTO   O28 4089   4.497   9.128   1.915
   10CHTO   C42 4090   4.438   9.254   1.960
   10CHTO   H84 4091   4.371   9.227   2.042
   10CHTO   C44 4092   4.348   9.325   1.853
   10CHTO   H86 4093   4.406   9.332   1.760
   10CHTO   O32 4094   4.235   9.239   1.828
   10CHTO   H69 4095   4.184   9.273   1.757
   10CHTO   C48 4096   4.304   9.471   1.894
   10CHTO   H90 4097   4.232   9.464   1.975
   10CHTO    N9 4098   4.233   9.544   1.782
   10CHTO   H77 4099   4.225   9.482   1.694
   10CHTO   H78 4100   4.135   9.576   1.815
   10CHTO   C51 4101   4.430   9.550   1.945
   10CHTO   H93 4102   4.502   9.556   1.864
   10CHTO   O30 4103   4.483   9.477   2.057
   10CHTO   C46 4104   4.545   9.350   2.019
   10CHTO   H88 4105   4.621   9.371   1.944
   10CHTO   C53 4106   4.612   9.289   2.144
   10CHTO   O72 4107   4.721   9.370   2.190
   10CHTO  H199 4108   4.687   9.450   2.226
   10CHTO   O22 4109   4.400   9.681   1.997
   10CHTO   C31 4110   4.503   9.786   2.002
   10CHTO   H59 4111   4.462   9.866   2.067
   10CHTO   C29 4112   4.637   9.743   2.065
   10CHTO   H57 4113   4.675   9.657   2.007
   10CHTO   O21 4114   4.612   9.694   2.198
   10CHTO   H37 4115   4.585   9.764   2.255
   10CHTO   C27 4116   4.747   9.857   2.065
   10CHTO   H55 4117   4.717   9.934   2.138
   10CHTO    N5 4118   4.882   9.806   2.102
   10CHTO   H43 4119   4.882   9.699   2.112
   10CHTO   H44 4120   4.915   9.852   2.194
   10CHTO   C25 4121   4.751   9.928   1.925
   10CHTO   H53 4122   4.795   9.861   1.850
   10CHTO   O17 4123   4.618   9.965   1.880
   10CHTO   C32 4124   4.529   9.854   1.864
   10CHTO   H60 4125   4.573   9.780   1.797
   10CHTO   C36 4126   4.397   9.905   1.800
   10CHTO   O25 4127   4.419   9.958   1.669
   10CHTO   H40 4128   4.441   9.888   1.610
   10CHTO   O15 4129   4.839   0.060   1.933
   10CHTO   C19 4130   4.880   0.148   1.825
   10CHTO   H47 4131   4.840   0.100   1.734
   10CHTO   C20 4132   4.824   0.293   1.835
   10CHTO   H48 4133   4.859   0.344   1.927
   10CHTO   O19 4134   4.681   0.282   1.842
   10CHTO   H35 4135   4.654   0.246   1.924
   10CHTO   C21 4136   4.869   0.380   1.711
   10CHTO   H49 4137   4.821   0.339   1.622
   10CHTO    N4 4138   4.825   0.522   1.721
   10CHTO   H41 4139   4.909   0.590   1.723
   10CHTO   H42 4140   4.761   0.548   1.637
   10CHTO   C22 4141   5.022   0.367   1.689
   10CHTO   H50 4142   5.075   0.421   1.767
   10CHTO   O14 4143   5.064   0.229   1.687
   10CHTO   C23 4144   5.034   0.154   1.806
   10CHTO   H51 4145   5.084   0.203   1.891
   10CHTO   C34 4146   5.094   0.013   1.791
   10CHTO   O23 4147   5.237   0.018   1.785
   10CHTO   H38 4148   5.271   9.931   1.774
   10CHTO   O16 4149   5.059   0.416   1.558
   10CHTO   C24 4150   5.216   0.450   1.541
   10CHTO   H52 4151   5.275   0.413   1.625
   10CHTO   C26 4152   5.234   0.602   1.527
   10CHTO   H54 4153   5.167   0.638   1.444
   10CHTO   O20 4154   5.189   0.665   1.648
   10CHTO   H36 4155   5.244   0.641   1.720
   10CHTO   C30 4156   5.381   0.640   1.490
   10CHTO   H58 4157   5.446   0.619   1.576
   10CHTO    N6 4158   5.395   0.786   1.462
   10CHTO   H45 4159   5.334   0.813   1.377
   10CHTO   H46 4160   5.498   0.810   1.441
   10CHTO   C33 4161   5.434   0.552   1.373
   10CHTO   H61 4162   5.382   0.580   1.280
   10CHTO   O18 4163   5.409   0.413   1.400
   10CHTO   C28 4164   5.270   0.379   1.414
   10CHTO   H56 4165   5.213   0.414   1.327
   10CHTO   C35 4166   5.257   0.226   1.423
   10CHTO   O24 4167   5.297   0.161   1.302
   10CHTO   H39 4168   5.235   0.178   1.234
   10CHTO    O9 4169   5.574   0.576   1.347
   10CHTO   C13 4170   5.620   0.554   1.191
   10CHTO   H26 4171   5.552   0.616   1.128
   10CHTO   C11 4172   5.612   0.400   1.151
   10CHTO   H24 4173   5.506   0.375   1.133
   10CHTO    O8 4174   5.660   0.318   1.259
   10CHTO    H3 4175   5.647   0.227   1.238
   10CHTO    C9 4176   5.693   0.381   1.020
   10CHTO   H22 4177   5.654   0.456   0.949
   10CHTO    N2 4178   5.668   0.251   0.952
   10CHTO   H10 4179   5.719   0.249   0.857
   10CHTO   H11 4180   5.562   0.237   0.937
   10CHTO    C7 4181   5.846   0.413   1.048
   10CHTO   H20 4182   5.880   0.460   0.953
   10CHTO    O4 4183   5.864   0.506   1.157
   10CHTO   C14 4184   5.767   0.612   1.164
   10CHTO   H27 4185   5.766   0.665   1.066
   10CHTO   C18 4186   5.814   0.714   1.270
   10CHTO   O13 4187   5.729   0.829   1.273
   10CHTO    H7 4188   5.759   0.889   1.338
   10CHTO    O2 4189   5.940   0.275   1.078
   10CHTO    C1 4190   6.080   0.297   1.105
   10CHTO   H14 4191   6.091   0.376   1.182
   10CHTO    C2 4192   6.166   0.338   0.977
   10CHTO   H15 4193   6.143   0.264   0.899
   10CHTO    O6 4194   6.124   0.469   0.933
   10CHTO    H1 4195   6.168   0.491   0.853
   10CHTO    C3 4196   6.324   0.338   1.010
   10CHTO   H16 4197   6.344   0.422   1.078
   10CHTO    N1 4198   6.408   0.358   0.887
   10CHTO    H8 4199   6.469   0.447   0.897
   10CHTO    H9 4200   6.347   0.367   0.798
   10CHTO    C4 4201   6.364   0.208   1.089
   10CHTO   H17 4202   6.361   0.123   1.021
   10CHTO    O1 4203   6.277   0.186   1.201
   10CHTO    C5 4204   6.139   0.167   1.166
   10CHTO   H18 4205   6.131   0.088   1.091
   10CHTO   C16 4206   6.063   0.123   1.293
   10CHTO   O11 4207   6.108   9.995   1.338
   10CHTO    H5 4208   6.060   9.970   1.414
   10CHTO    O3 4209   6.496   0.222   1.146
   10CHTO    C6 4210   6.566   0.097   1.177
   10CHTO   H19 4211   6.499   0.011   1.180
   10CHTO    C8 4212   6.676   0.069   1.070
   10CHTO   H21 4213   6.738   0.158   1.060
   10CHTO    O7 4214   6.608   0.044   0.945
   10CHTO    H2 4215   6.670   0.036   0.875
   10CHTO   C12 4216   6.767   9.947   1.113
   10CHTO   H25 4217   6.702   9.856   1.109
   10CHTO    N3 4218   6.879   9.924   1.015
   10CHTO   H12 4219   6.938   9.839   1.045
   10CHTO   H13 4220   6.941   0.012   1.009
   10CHTO   C15 4221   6.817   9.966   1.261
   10CHTO   H28 4222   6.888   0.049   1.269
   10CHTO   O10 4223   6.881   9.837   1.322
   10CHTO    H4 4224   6.823   9.764   1.313
   10CHTO    O5 4225   6.706   9.989   1.349
   10CHTO   C10 4226   6.631   0.108   1.317
   10CHTO   H23 4227   6.700   0.193   1.319
   10CHTO   C17 4228   6.528   0.133   1.429
   10CHTO   O12 4229   6.436   0.024   1.442
   10CHTO    H6 4230   6.377   0.042   1.513
   11CHTO  H203 4231   7.712   4.851   0.251
   11CHTO   O82 4232   7.736   4.886   0.335
   11CHTO  C123 4233   7.693   5.023   0.347
   11CHTO  H227 4234   7.721   5.077   0.255
   11CHTO   O77 4235   7.547   5.012   0.355
   11CHTO  C118 4236   7.479   5.139   0.357
   11CHTO  H222 4237   7.511   5.199   0.270
   11CHTO  C125 4238   7.325   5.112   0.346
   11CHTO   O84 4239   7.291   5.047   0.223
   11CHTO  H205 4240   7.327   4.960   0.221
   11CHTO  C114 4241   7.516   5.214   0.487
   11CHTO  H218 4242   7.484   5.154   0.572
   11CHTO  C116 4243   7.672   5.232   0.494
   11CHTO  H220 4244   7.703   5.303   0.414
   11CHTO   O79 4245   7.705   5.296   0.619
   11CHTO  H201 4246   7.672   5.383   0.621
   11CHTO  C120 4247   7.748   5.095   0.475
   11CHTO  H224 4248   7.726   5.034   0.565
   11CHTO   N21 4249   7.896   5.114   0.470
   11CHTO  H211 4250   7.928   5.133   0.369
   11CHTO  H212 4251   7.926   5.193   0.536
   11CHTO   O75 4252   7.448   5.340   0.483
   11CHTO  C112 4253   7.317   5.362   0.585
   11CHTO  H216 4254   7.301   5.270   0.644
   11CHTO   O73 4255   7.204   5.390   0.500
   11CHTO  C113 4256   7.083   5.427   0.567
   11CHTO  H217 4257   7.056   5.348   0.641
   11CHTO  C124 4258   6.972   5.432   0.461
   11CHTO   O83 4259   6.840   5.443   0.517
   11CHTO  H204 4260   6.830   5.526   0.558
   11CHTO  C109 4261   7.107   5.563   0.638
   11CHTO  H213 4262   7.141   5.634   0.560
   11CHTO  C110 4263   7.219   5.543   0.744
   11CHTO  H214 4264   7.181   5.476   0.822
   11CHTO   O78 4265   7.246   5.670   0.808
   11CHTO  H200 4266   7.278   5.732   0.745
   11CHTO  C111 4267   7.348   5.484   0.680
   11CHTO  H215 4268   7.394   5.562   0.618
   11CHTO   N19 4269   7.450   5.444   0.781
   11CHTO  H207 4270   7.409   5.370   0.848
   11CHTO  H208 4271   7.482   5.531   0.837
   11CHTO   O74 4272   6.985   5.615   0.700
   11CHTO  C115 4273   6.943   5.762   0.646
   11CHTO  H219 4274   7.017   5.804   0.578
   11CHTO   O76 4275   6.809   5.757   0.560
   11CHTO  C122 4276   6.692   5.730   0.638
   11CHTO  H226 4277   6.702   5.629   0.677
   11CHTO  C126 4278   6.567   5.727   0.542
   11CHTO   O85 4279   6.547   5.851   0.473
   11CHTO  H206 4280   6.473   5.843   0.416
   11CHTO  C121 4281   6.671   5.834   0.757
   11CHTO  H225 4282   6.579   5.891   0.738
   11CHTO   O81 4283   6.652   5.761   0.878
   11CHTO  H202 4284   6.627   5.819   0.948
   11CHTO  C119 4285   6.791   5.934   0.767
   11CHTO  H223 4286   6.790   5.987   0.671
   11CHTO  C117 4287   6.928   5.857   0.773
   11CHTO  H221 4288   6.941   5.792   0.859
   11CHTO   N20 4289   7.043   5.954   0.780
   11CHTO  H209 4290   7.034   6.016   0.868
   11CHTO  H210 4291   7.046   6.016   0.691
   11CHTO   O80 4292   6.766   6.057   0.871
   11CHTO  C103 4293   6.726   6.030   1.022
   11CHTO  H190 4294   6.637   5.966   1.028
   11CHTO  C101 4295   6.838   5.972   1.118
   11CHTO  H188 4296   6.933   6.022   1.094
   11CHTO   O68 4297   6.855   5.820   1.091
   11CHTO  H168 4298   6.882   5.806   1.002
   11CHTO   C99 4299   6.805   5.998   1.273
   11CHTO  H186 4300   6.716   5.938   1.300
   11CHTO   N17 4301   6.916   5.958   1.366
   11CHTO  H174 4302   6.883   5.969   1.468
   11CHTO  H175 4303   7.004   6.018   1.347
   11CHTO   C97 4304   6.764   6.147   1.293
   11CHTO  H184 4305   6.850   6.210   1.267
   11CHTO   O64 4306   6.650   6.173   1.210
   11CHTO  C104 4307   6.682   6.174   1.070
   11CHTO  H191 4308   6.762   6.245   1.048
   11CHTO  C108 4309   6.559   6.223   0.994
   11CHTO   O71 4310   6.522   6.357   1.030
   11CHTO  H171 4311   6.489   6.358   1.118
   11CHTO   O62 4312   6.717   6.178   1.427
   11CHTO   C91 4313   6.705   6.320   1.453
   11CHTO  H178 4314   6.712   6.375   1.359
   11CHTO   C92 4315   6.822   6.371   1.542
   11CHTO  H179 4316   6.818   6.319   1.639
   11CHTO   O66 4317   6.947   6.333   1.481
   11CHTO  H166 4318   7.018   6.354   1.538
   11CHTO   C93 4319   6.814   6.528   1.561
   11CHTO  H180 4320   6.849   6.573   1.467
   11CHTO   N16 4321   6.909   6.577   1.665
   11CHTO  H172 4322   6.886   6.531   1.760
   11CHTO  H173 4323   7.010   6.555   1.635
   11CHTO   C94 4324   6.668   6.581   1.591
   11CHTO  H181 4325   6.642   6.574   1.697
   11CHTO   O61 4326   6.565   6.510   1.520
   11CHTO   C95 4327   6.573   6.366   1.525
   11CHTO  H182 4328   6.574   6.334   1.629
   11CHTO  C106 4329   6.444   6.305   1.459
   11CHTO   O69 4330   6.426   6.349   1.324
   11CHTO  H169 4331   6.494   6.314   1.270
   11CHTO   O63 4332   6.658   6.735   1.539
   11CHTO   C96 4333   6.627   6.840   1.651
   11CHTO  H183 4334   6.671   6.805   1.745
   11CHTO   C98 4335   6.476   6.867   1.677
   11CHTO  H185 4336   6.429   6.905   1.584
   11CHTO   O67 4337   6.410   6.743   1.705
   11CHTO  H167 4338   6.412   6.687   1.629
   11CHTO  C102 4339   6.456   6.971   1.798
   11CHTO  H189 4340   6.474   6.912   1.889
   11CHTO   N18 4341   6.318   7.025   1.812
   11CHTO  H176 4342   6.291   7.080   1.723
   11CHTO  H177 4343   6.312   7.089   1.898
   11CHTO  C105 4344   6.565   7.083   1.792
   11CHTO  H192 4345   6.519   7.181   1.812
   11CHTO   O65 4346   6.632   7.094   1.664
   11CHTO  C100 4347   6.697   6.976   1.612
   11CHTO  H187 4348   6.693   6.985   1.502
   11CHTO  C107 4349   6.846   6.975   1.652
   11CHTO   O70 4350   6.915   7.088   1.598
   11CHTO  H170 4351   7.005   7.085   1.624
   11CHTO   O57 4352   6.665   7.048   1.909
   11CHTO   C85 4353   6.690   7.141   2.016
   11CHTO  H157 4354   6.590   7.181   2.047
   11CHTO   C83 4355   6.771   7.265   1.964
   11CHTO  H155 4356   6.707   7.322   1.897
   11CHTO   O56 4357   6.882   7.219   1.885
   11CHTO  H135 4358   6.925   7.292   1.844
   11CHTO   C81 4359   6.813   7.356   2.083
   11CHTO  H153 4360   6.722   7.389   2.134
   11CHTO   N14 4361   6.879   7.482   2.040
   11CHTO  H141 4362   6.815   7.535   1.972
   11CHTO  H142 4363   6.972   7.460   1.992
   11CHTO   C79 4364   6.899   7.274   2.187
   11CHTO  H151 4365   6.921   7.341   2.270
   11CHTO   O52 4366   6.818   7.165   2.239
   11CHTO   C86 4367   6.765   7.073   2.138
   11CHTO  H158 4368   6.854   7.017   2.104
   11CHTO   C90 4369   6.676   6.971   2.212
   11CHTO   O60 4370   6.618   6.872   2.127
   11CHTO  H138 4371   6.685   6.816   2.093
   11CHTO   O50 4372   7.024   7.222   2.136
   11CHTO   C73 4373   7.127   7.131   2.178
   11CHTO  H145 4374   7.082   7.044   2.228
   11CHTO   C74 4375   7.227   7.199   2.276
   11CHTO  H146 4376   7.169   7.234   2.363
   11CHTO   O54 4377   7.316   7.098   2.327
   11CHTO  H133 4378   7.370   7.064   2.258
   11CHTO   C75 4379   7.300   7.318   2.203
   11CHTO  H147 4380   7.226   7.396   2.180
   11CHTO   N13 4381   7.404   7.386   2.285
   11CHTO  H139 4382   7.359   7.426   2.374
   11CHTO  H140 4383   7.448   7.467   2.229
   11CHTO   C76 4384   7.360   7.269   2.062
   11CHTO  H148 4385   7.448   7.207   2.081
   11CHTO   O49 4386   7.263   7.193   1.984
   11CHTO   C77 4387   7.205   7.081   2.053
   11CHTO  H149 4388   7.283   7.012   2.086
   11CHTO   C88 4389   7.115   7.002   1.958
   11CHTO   O58 4390   7.186   6.958   1.842
   11CHTO  H136 4391   7.128   6.910   1.786
   11CHTO   O51 4392   7.390   7.392   1.972
   11CHTO   C78 4393   7.520   7.384   1.888
   11CHTO  H150 4394   7.574   7.288   1.904
   11CHTO   C80 4395   7.613   7.500   1.928
   11CHTO  H152 4396   7.553   7.594   1.929
   11CHTO   O55 4397   7.657   7.475   2.063
   11CHTO  H134 4398   7.707   7.547   2.095
   11CHTO   C84 4399   7.734   7.518   1.828
   11CHTO  H156 4400   7.796   7.429   1.834
   11CHTO   N15 4401   7.821   7.635   1.863
   11CHTO  H143 4402   7.902   7.643   1.793
   11CHTO  H144 4403   7.861   7.623   1.961
   11CHTO   C87 4404   7.677   7.528   1.685
   11CHTO  H159 4405   7.611   7.615   1.680
   11CHTO   O53 4406   7.598   7.399   1.656
   11CHTO   C82 4407   7.481   7.391   1.738
   11CHTO  H154 4408   7.417   7.478   1.720
   11CHTO   C89 4409   7.400   7.266   1.693
   11CHTO   O59 4410   7.472   7.144   1.711
   11CHTO  H137 4411   7.419   7.072   1.682
   11CHTO   O45 4412   7.792   7.541   1.572
   11CHTO   C67 4413   7.739   7.561   1.440
   11CHTO  H124 4414   7.663   7.485   1.421
   11CHTO   C65 4415   7.674   7.703   1.422
   11CHTO  H122 4416   7.718   7.767   1.499
   11CHTO   O44 4417   7.533   7.688   1.450
   11CHTO  H102 4418   7.491   7.643   1.379
   11CHTO   C63 4419   7.713   7.773   1.286
   11CHTO  H120 4420   7.817   7.806   1.293
   11CHTO   N11 4421   7.644   7.902   1.255
   11CHTO  H108 4422   7.540   7.884   1.237
   11CHTO  H109 4423   7.687   7.948   1.169
   11CHTO   C61 4424   7.708   7.665   1.172
   11CHTO  H118 4425   7.743   7.716   1.080
   11CHTO   O40 4426   7.800   7.555   1.196
   11CHTO   C68 4427   7.851   7.535   1.332
   11CHTO  H125 4428   7.936   7.605   1.348
   11CHTO   C72 4429   7.908   7.392   1.343
   11CHTO   O48 4430   8.018   7.368   1.254
   11CHTO  H105 4431   7.988   7.370   1.165
   11CHTO   O38 4432   7.574   7.614   1.152
   11CHTO   C55 4433   7.558   7.519   1.045
   11CHTO  H112 4434   7.652   7.466   1.024
   11CHTO   C56 4435   7.500   7.589   0.915
   11CHTO  H113 4436   7.404   7.635   0.942
   11CHTO   O42 4437   7.586   7.697   0.876
   11CHTO  H100 4438   7.672   7.665   0.853
   11CHTO   C57 4439   7.481   7.482   0.800
   11CHTO  H114 4440   7.580   7.445   0.774
   11CHTO   N10 4441   7.421   7.537   0.676
   11CHTO  H106 4442   7.366   7.460   0.622
   11CHTO  H107 4443   7.354   7.618   0.699
   11CHTO   C58 4444   7.397   7.363   0.855
   11CHTO  H115 4445   7.291   7.397   0.869
   11CHTO   O37 4446   7.448   7.313   0.980
   11CHTO   C59 4447   7.456   7.410   1.086
   11CHTO  H116 4448   7.359   7.454   1.104
   11CHTO   C70 4449   7.501   7.338   1.215
   11CHTO   O46 4450   7.402   7.246   1.262
   11CHTO  H103 4451   7.432   7.206   1.341
   11CHTO   O39 4452   7.404   7.238   0.755
   11CHTO   C60 4453   7.285   7.158   0.755
   11CHTO  H117 4454   7.223   7.183   0.841
   11CHTO   C62 4455   7.201   7.184   0.626
   11CHTO  H119 4456   7.176   7.292   0.628
   11CHTO   O43 4457   7.282   7.157   0.510
   11CHTO  H101 4458   7.351   7.220   0.503
   11CHTO   C66 4459   7.066   7.097   0.632
   11CHTO  H123 4460   7.011   7.125   0.722
   11CHTO   N12 4461   6.976   7.127   0.518
   11CHTO  H110 4462   7.024   7.104   0.424
   11CHTO  H111 4463   6.883   7.073   0.529
   11CHTO   C69 4464   7.100   6.946   0.643
   11CHTO  H126 4465   7.151   6.911   0.551
   11CHTO   O41 4466   7.195   6.921   0.768
   11CHTO   C64 4467   7.321   7.007   0.768
   11CHTO  H121 4468   7.385   6.978   0.682
   11CHTO   C71 4469   7.401   6.978   0.898
   11CHTO   O47 4470   7.326   7.008   1.016
   11CHTO  H104 4471   7.377   6.988   1.092
   11CHTO   O34 4472   6.971   6.863   0.663
   11CHTO   C49 4473   6.926   6.720   0.655
   11CHTO   H91 4474   7.015   6.658   0.651
   11CHTO   C47 4475   6.843   6.702   0.525
   11CHTO   H89 4476   6.820   6.594   0.517
   11CHTO   O33 4477   6.924   6.741   0.413
   11CHTO   H70 4478   6.994   6.680   0.400
   11CHTO   C45 4479   6.707   6.787   0.539
   11CHTO   H87 4480   6.733   6.892   0.561
   11CHTO    N8 4481   6.625   6.785   0.415
   11CHTO   H75 4482   6.539   6.849   0.427
   11CHTO   H76 4483   6.685   6.820   0.331
   11CHTO   C43 4484   6.625   6.736   0.668
   11CHTO   H85 4485   6.540   6.804   0.678
   11CHTO   O29 4486   6.708   6.737   0.786
   11CHTO   C50 4487   6.841   6.680   0.779
   11CHTO   H92 4488   6.896   6.718   0.866
   11CHTO   C54 4489   6.841   6.527   0.802
   11CHTO   O36 4490   6.794   6.494   0.933
   11CHTO   H72 4491   6.702   6.515   0.940
   11CHTO   O27 4492   6.567   6.605   0.649
   11CHTO   C37 4493   6.475   6.520   0.718
   11CHTO   H79 4494   6.515   6.494   0.817
   11CHTO   C38 4495   6.337   6.589   0.741
   11CHTO   H80 4496   6.303   6.630   0.645
   11CHTO   O31 4497   6.357   6.699   0.833
   11CHTO   H68 4498   6.408   6.766   0.793
   11CHTO   C39 4499   6.228   6.490   0.798
   11CHTO   H81 4500   6.255   6.469   0.902
   11CHTO    N7 4501   6.090   6.549   0.800
   11CHTO   H73 4502   6.058   6.573   0.699
   11CHTO   H74 4503   6.020   6.480   0.845
   11CHTO   C40 4504   6.229   6.352   0.722
   11CHTO   H82 4505   6.180   6.361   0.624
   11CHTO   O26 4506   6.363   6.301   0.709
   11CHTO   C41 4507   6.454   6.389   0.637
   11CHTO   H83 4508   6.413   6.413   0.538
   11CHTO   C52 4509   6.587   6.313   0.615
   11CHTO   O35 4510   6.570   6.190   0.537
   11CHTO   H71 4511   6.654   6.149   0.524
   11CHTO   O28 4512   6.161   6.251   0.799
   11CHTO   C42 4513   6.112   6.128   0.738
   11CHTO   H84 4514   6.158   6.125   0.639
   11CHTO   C44 4515   5.958   6.123   0.714
   11CHTO   H86 4516   5.907   6.134   0.810
   11CHTO   O32 4517   5.924   6.235   0.631
   11CHTO   H69 4518   5.831   6.241   0.620
   11CHTO   C48 4519   5.912   5.985   0.650
   11CHTO   H90 4520   5.954   5.978   0.549
   11CHTO    N9 4521   5.763   5.976   0.632
   11CHTO   H77 4522   5.729   6.054   0.566
   11CHTO   H78 4523   5.714   5.984   0.728
   11CHTO   C51 4524   5.969   5.866   0.735
   11CHTO   H93 4525   5.923   5.870   0.834
   11CHTO   O30 4526   6.112   5.877   0.742
   11CHTO   C46 4527   6.159   6.001   0.815
   11CHTO   H88 4528   6.117   6.002   0.915
   11CHTO   C53 4529   6.313   5.996   0.822
   11CHTO   O72 4530   6.358   5.889   0.905
   11CHTO  H199 4531   6.452   5.888   0.906
   11CHTO   O22 4532   5.947   5.737   0.674
   11CHTO   C31 4533   5.943   5.617   0.761
   11CHTO   H59 4534   5.993   5.645   0.856
   11CHTO   C29 4535   5.799   5.571   0.796
   11CHTO   H57 4536   5.750   5.545   0.701
   11CHTO   O21 4537   5.727   5.682   0.853
   11CHTO   H37 4538   5.717   5.750   0.790
   11CHTO   C27 4539   5.799   5.444   0.890
   11CHTO   H55 4540   5.837   5.474   0.989
   11CHTO    N5 4541   5.662   5.389   0.908
   11CHTO   H43 4542   5.625   5.351   0.814
   11CHTO   H44 4543   5.664   5.310   0.982
   11CHTO   C25 4544   5.899   5.334   0.837
   11CHTO   H53 4545   5.857   5.289   0.745
   11CHTO   O17 4546   6.028   5.392   0.804
   11CHTO   C32 4547   6.022   5.496   0.704
   11CHTO   H60 4548   5.971   5.458   0.615
   11CHTO   C36 4549   6.166   5.536   0.664
   11CHTO   O25 4550   6.236   5.426   0.604
   11CHTO   H40 4551   6.322   5.452   0.580
   11CHTO   O15 4552   5.924   5.216   0.949
   11CHTO   C19 4553   5.870   5.085   0.985
   11CHTO   H47 4554   5.958   5.032   1.025
   11CHTO   C20 4555   5.761   5.090   1.098
   11CHTO   H48 4556   5.686   5.168   1.079
   11CHTO   O19 4557   5.831   5.126   1.218
   11CHTO   H35 4558   5.771   5.140   1.288
   11CHTO   C21 4559   5.682   4.954   1.117
   11CHTO   H49 4560   5.750   4.880   1.160
   11CHTO    N4 4561   5.567   4.965   1.211
   11CHTO   H41 4562   5.559   5.065   1.251
   11CHTO   H42 4563   5.474   4.938   1.163
   11CHTO   C22 4564   5.641   4.901   0.977
   11CHTO   H50 4565   5.578   4.977   0.930
   11CHTO   O14 4566   5.760   4.881   0.899
   11CHTO   C23 4567   5.824   5.004   0.860
   11CHTO   H51 4568   5.753   5.060   0.797
   11CHTO   C34 4569   5.946   4.968   0.774
   11CHTO   O23 4570   5.914   4.878   0.667
   11CHTO   H38 4571   5.992   4.860   0.618
   11CHTO   O16 4572   5.575   4.773   0.977
   11CHTO   C24 4573   5.474   4.759   0.849
   11CHTO   H52 4574   5.489   4.839   0.776
   11CHTO   C26 4575   5.329   4.761   0.898
   11CHTO   H54 4576   5.314   4.676   0.969
   11CHTO   O20 4577   5.307   4.884   0.970
   11CHTO   H36 4578   5.221   4.885   1.008
   11CHTO   C30 4579   5.229   4.744   0.779
   11CHTO   H58 4580   5.233   4.835   0.718
   11CHTO    N6 4581   5.087   4.734   0.825
   11CHTO   H45 4582   5.080   4.742   0.933
   11CHTO   H46 4583   5.042   4.641   0.794
   11CHTO   C33 4584   5.270   4.625   0.686
   11CHTO   H61 4585   5.243   4.530   0.735
   11CHTO   O18 4586   5.412   4.623   0.660
   11CHTO   C28 4587   5.499   4.625   0.774
   11CHTO   H56 4588   5.476   4.542   0.841
   11CHTO   C35 4589   5.645   4.614   0.727
   11CHTO   O24 4590   5.673   4.487   0.667
   11CHTO   H39 4591   5.763   4.484   0.640
   11CHTO    O9 4592   5.193   4.626   0.563
   11CHTO   C13 4593   5.236   4.749   0.461
   11CHTO   H26 4594   5.310   4.814   0.512
   11CHTO   C11 4595   5.107   4.830   0.417
   11CHTO   H24 4596   5.057   4.868   0.508
   11CHTO    O8 4597   5.015   4.739   0.353
   11CHTO    H3 4598   4.935   4.783   0.331
   11CHTO    C9 4599   5.152   4.953   0.331
   11CHTO   H22 4600   5.191   5.025   0.404
   11CHTO    N2 4601   5.040   5.028   0.268
   11CHTO   H10 4602   5.061   5.047   0.164
   11CHTO   H11 4603   4.947   4.973   0.278
   11CHTO    C7 4604   5.274   4.913   0.237
   11CHTO   H20 4605   5.361   4.943   0.299
   11CHTO    O4 4606   5.279   4.772   0.213
   11CHTO   C14 4607   5.311   4.694   0.330
   11CHTO   H27 4608   5.420   4.700   0.347
   11CHTO   C18 4609   5.278   4.546   0.299
   11CHTO   O13 4610   5.353   4.497   0.188
   11CHTO    H7 4611   5.325   4.539   0.109
   11CHTO    O2 4612   5.283   4.992   0.092
   11CHTO    C1 4613   5.402   5.071   0.081
   11CHTO   H14 4614   5.477   5.039   0.156
   11CHTO    C2 4615   5.376   5.226   0.100
   11CHTO   H15 4616   5.302   5.255   0.025
   11CHTO    O6 4617   5.322   5.246   0.232
   11CHTO    H1 4618   5.236   5.209   0.238
   11CHTO    C3 4619   5.512   5.308   0.080
   11CHTO   H16 4620   5.581   5.283   0.161
   11CHTO    N1 4621   5.490   5.457   0.085
   11CHTO    H8 4622   5.584   5.508   0.071
   11CHTO    H9 4623   5.448   5.484   0.180
   11CHTO    C4 4624   5.584   5.262   2.775
   11CHTO   H17 4625   5.527   5.299   2.689
   11CHTO    O1 4626   5.596   5.119   2.767
   11CHTO    C5 4627   5.470   5.048   2.771
   11CHTO   H18 4628   5.404   5.088   2.694
   11CHTO   C16 4629   5.497   4.898   2.741
   11CHTO   O11 4630   5.585   4.838   0.009
   11CHTO    H5 4631   5.672   4.873   2.827
   11CHTO    O3 4632   5.719   5.312   2.770
   11CHTO    C6 4633   5.779   5.315   2.636
   11CHTO   H19 4634   5.730   5.246   2.567
   11CHTO    C8 4635   5.769   5.459   2.575
   11CHTO   H21 4636   5.815   5.529   2.645
   11CHTO    O7 4637   5.629   5.490   2.559
   11CHTO    H2 4638   5.589   5.502   2.643
   11CHTO   C12 4639   5.847   5.465   2.438
   11CHTO   H25 4640   5.794   5.396   2.368
   11CHTO    N3 4641   5.841   5.602   2.376
   11CHTO   H12 4642   5.738   5.630   2.359
   11CHTO   H13 4643   5.897   5.603   2.284
   11CHTO   C15 4644   5.993   5.412   2.459
   11CHTO   H28 4645   6.052   5.479   2.521
   11CHTO   O10 4646   6.068   5.386   2.326
   11CHTO    H4 4647   6.081   5.467   2.281
   11CHTO    O5 4648   5.991   5.280   2.516
   11CHTO   C10 4649   5.928   5.273   2.645
   11CHTO   H23 4650   5.981   5.338   2.714
   11CHTO   C17 4651   5.942   5.129   2.698
   11CHTO   O12 4652   6.080   5.094   2.718
   11CHTO    H6 4653   6.123   5.085   2.635
   12CHTO  H203 4654   5.678   1.806   2.334
   12CHTO   O82 4655   5.690   1.715   2.312
   12CHTO  C123 4656   5.666   1.632   2.427
   12CHTO  H227 4657   5.719   1.675   2.514
   12CHTO   O77 4658   5.521   1.643   2.448
   12CHTO  C118 4659   5.471   1.574   2.563
   12CHTO  H222 4660   5.521   1.610   2.654
   12CHTO  C125 4661   5.317   1.610   2.571
   12CHTO   O84 4662   5.256   1.567   2.693
   12CHTO  H205 4663   5.290   1.616   2.765
   12CHTO  C114 4664   5.496   1.423   2.545
   12CHTO  H218 4665   5.442   1.389   2.456
   12CHTO  C116 4666   5.648   1.394   2.522
   12CHTO  H220 4667   5.703   1.415   2.616
   12CHTO   O79 4668   5.663   1.253   2.496
   12CHTO  H201 4669   5.754   1.230   2.491
   12CHTO  C120 4670   5.705   1.482   2.404
   12CHTO  H224 4671   5.658   1.445   2.310
   12CHTO   N21 4672   5.852   1.463   2.389
   12CHTO  H211 4673   5.872   1.381   2.322
   12CHTO  H212 4674   5.898   1.554   2.351
   12CHTO   O75 4675   5.445   1.359   2.663
   12CHTO  C112 4676   5.358   1.225   2.629
   12CHTO  H216 4677   5.397   1.178   2.538
   12CHTO   O73 4678   5.221   1.266   2.613
   12CHTO  C113 4679   5.133   1.158   2.578
   12CHTO  H217 4680   5.173   1.107   2.488
   12CHTO  C124 4681   4.996   1.215   2.540
   12CHTO   O83 4682   4.929   1.281   2.648
   12CHTO  H204 4683   4.976   1.358   2.672
   12CHTO  C109 4684   5.125   1.056   2.695
   12CHTO  H213 4685   5.083   1.110   2.781
   12CHTO  C110 4686   5.269   1.005   2.730
   12CHTO  H214 4687   5.302   0.939   2.649
   12CHTO   O78 4688   5.262   0.925   0.022
   12CHTO  H200 4689   5.212   0.846   0.006
   12CHTO  C111 4690   5.370   1.122   2.749
   12CHTO  H215 4691   5.344   1.176   0.013
   12CHTO   N19 4692   5.510   1.075   2.764
   12CHTO  H207 4693   5.552   1.109   0.030
   12CHTO  H208 4694   5.573   1.107   2.682
   12CHTO   O74 4695   5.036   0.947   2.659
   12CHTO  C115 4696   4.955   0.886   2.784
   12CHTO  H219 4697   5.012   0.893   0.049
   12CHTO   O76 4698   4.820   0.966   2.812
   12CHTO  C122 4699   4.740   0.917   0.092
   12CHTO  H226 4700   4.644   0.969   0.087
   12CHTO  C126 4701   4.803   0.956   0.231
   12CHTO   O85 4702   4.813   1.098   0.249
   12CHTO  H206 4703   4.728   1.135   0.260
   12CHTO  C121 4704   4.713   0.761   0.082
   12CHTO  H225 4705   4.668   0.728   0.178
   12CHTO   O81 4706   4.617   0.737   2.807
   12CHTO  H202 4707   4.588   0.648   2.810
   12CHTO  C119 4708   4.846   0.681   0.059
   12CHTO  H223 4709   4.908   0.708   0.145
   12CHTO  C117 4710   4.923   0.733   2.760
   12CHTO  H221 4711   4.868   0.730   2.666
   12CHTO   N20 4712   5.049   0.655   2.734
   12CHTO  H209 4713   5.137   0.717   2.742
   12CHTO  H210 4714   5.057   0.570   2.801
   12CHTO   O80 4715   4.832   0.522   0.080
   12CHTO  C103 4716   4.733   0.436   2.820
   12CHTO  H190 4717   4.643   0.491   2.795
   12CHTO  C101 4718   4.794   0.373   2.688
   12CHTO  H188 4719   4.896   0.341   2.709
   12CHTO   O68 4720   4.798   0.483   2.579
   12CHTO  H168 4721   4.841   0.450   2.502
   12CHTO   C99 4722   4.711   0.244   2.638
   12CHTO  H186 4723   4.610   0.277   2.605
   12CHTO   N17 4724   4.774   0.173   2.522
   12CHTO  H174 4725   4.709   0.094   2.487
   12CHTO  H175 4726   4.871   0.135   2.550
   12CHTO   C97 4727   4.687   0.149   2.758
   12CHTO  H184 4728   4.784   0.113   2.794
   12CHTO   O64 4729   4.615   0.220   0.032
   12CHTO  C104 4730   4.691   0.323   0.095
   12CHTO  H191 4731   4.781   0.282   0.141
   12CHTO  C108 4732   4.609   0.384   0.209
   12CHTO   O71 4733   4.582   0.286   0.310
   12CHTO  H171 4734   4.529   0.324   0.377
   12CHTO   O62 4735   4.600   0.037   2.727
   12CHTO   C91 4736   4.612   9.920   2.811
   12CHTO  H178 4737   4.690   9.937   0.057
   12CHTO   C92 4738   4.661   9.801   2.721
   12CHTO  H179 4739   4.598   9.798   2.631
   12CHTO   O66 4740   4.793   9.832   2.673
   12CHTO  H166 4741   4.854   9.837   2.745
   12CHTO   C93 4742   4.658   9.660   2.795
   12CHTO  H180 4743   4.740   9.659   0.041
   12CHTO   N16 4744   4.684   9.547   2.703
   12CHTO  H172 4745   4.781   9.559   2.656
   12CHTO  H173 4746   4.681   9.454   2.758
   12CHTO   C94 4747   4.521   9.643   0.042
   12CHTO  H181 4748   4.437   9.642   2.801
   12CHTO   O61 4749   4.501   9.755   0.129
   12CHTO   C95 4750   4.481   9.879   0.059
   12CHTO  H182 4751   4.400   9.866   2.815
   12CHTO  C106 4752   4.435   9.987   0.163
   12CHTO   O69 4753   4.309   9.952   0.221
   12CHTO  H169 4754   4.283   0.019   0.281
   12CHTO   O63 4755   4.513   9.505   0.136
   12CHTO   C96 4756   4.621   9.479   0.252
   12CHTO  H183 4757   4.698   9.556   0.247
   12CHTO   C98 4758   4.688   9.339   0.235
   12CHTO  H185 4759   4.610   9.266   0.207
   12CHTO   O67 4760   4.776   9.347   0.121
   12CHTO  H167 4761   4.810   9.262   0.101
   12CHTO  C102 4762   4.768   9.286   0.364
   12CHTO  H189 4763   4.857   9.350   0.373
   12CHTO   N18 4764   4.818   9.146   0.355
   12CHTO  H176 4765   4.791   9.102   0.261
   12CHTO  H177 4766   4.925   9.144   0.368
   12CHTO  C105 4767   4.679   9.310   0.489
   12CHTO  H192 4768   4.590   9.247   0.482
   12CHTO   O65 4769   4.639   9.447   0.498
   12CHTO  C100 4770   4.550   9.488   0.394
   12CHTO  H187 4771   4.462   9.421   0.394
   12CHTO  C107 4772   4.503   9.630   0.430
   12CHTO   O70 4773   4.380   9.664   0.365
   12CHTO  H170 4774   4.356   9.751   0.387
   12CHTO   O57 4775   4.764   9.270   0.622
   12CHTO   C85 4776   4.694   9.209   0.731
   12CHTO  H157 4777   4.611   9.150   0.686
   12CHTO   C83 4778   4.624   9.319   0.818
   12CHTO  H155 4779   4.549   9.368   0.756
   12CHTO   O56 4780   4.720   9.421   0.852
   12CHTO  H135 4781   4.786   9.386   0.909
   12CHTO   C81 4782   4.553   9.252   0.939
   12CHTO  H153 4783   4.479   9.182   0.901
   12CHTO   N14 4784   4.473   9.348   1.020
   12CHTO  H141 4785   4.403   9.399   0.957
   12CHTO  H142 4786   4.420   9.296   1.097
   12CHTO   C79 4787   4.657   9.171   1.026
   12CHTO  H151 4788   4.601   9.119   1.103
   12CHTO   O52 4789   4.720   9.068   0.943
   12CHTO   C86 4790   4.786   9.120   0.823
   12CHTO  H158 4791   4.873   9.178   0.861
   12CHTO   C90 4792   4.845   9.003   0.741
   12CHTO   O60 4793   4.945   8.932   0.816
   12CHTO  H138 4794   5.021   8.985   0.827
   12CHTO   O50 4795   4.758   9.251   1.090
   12CHTO   C73 4796   4.848   9.260   1.202
   12CHTO  H145 4797   4.798   9.223   1.292
   12CHTO   C74 4798   4.888   9.410   1.224
   12CHTO  H146 4799   4.795   9.467   1.239
   12CHTO   O54 4800   4.961   9.420   1.348
   12CHTO  H133 4801   5.042   9.373   1.342
   12CHTO   C75 4802   4.969   9.461   1.098
   12CHTO  H147 4803   4.904   9.455   1.010
   12CHTO   N13 4804   5.013   9.603   1.106
   12CHTO  H139 4805   4.970   9.660   1.024
   12CHTO  H140 4806   4.982   9.648   1.199
   12CHTO   C76 4807   5.092   9.362   1.072
   12CHTO  H148 4808   5.161   9.371   1.157
   12CHTO   O49 4809   5.047   9.224   1.061
   12CHTO   C77 4810   4.978   9.178   1.178
   12CHTO  H149 4811   5.043   9.189   1.265
   12CHTO   C88 4812   4.952   9.027   1.166
   12CHTO   O58 4813   5.079   8.951   1.160
   12CHTO  H136 4814   5.124   8.958   1.242
   12CHTO   O51 4815   5.163   9.391   0.933
   12CHTO   C78 4816   5.305   9.320   0.927
   12CHTO  H150 4817   5.309   9.233   0.996
   12CHTO   C80 4818   5.416   9.419   0.967
   12CHTO  H152 4819   5.408   9.510   0.902
   12CHTO   O55 4820   5.389   9.459   1.103
   12CHTO  H134 4821   5.450   9.525   1.130
   12CHTO   C84 4822   5.559   9.355   0.952
   12CHTO  H156 4823   5.565   9.271   1.022
   12CHTO   N15 4824   5.671   9.449   0.986
   12CHTO  H143 4825   5.730   9.409   1.066
   12CHTO  H144 4826   5.633   9.545   1.016
   12CHTO   C87 4827   5.574   9.298   0.809
   12CHTO  H159 4828   5.570   9.380   0.737
   12CHTO   O53 4829   5.457   9.200   0.782
   12CHTO   C82 4830   5.330   9.266   0.785
   12CHTO  H154 4831   5.327   9.347   0.712
   12CHTO   C89 4832   5.220   9.166   0.745
   12CHTO   O59 4833   5.236   9.120   0.610
   12CHTO  H137 4834   5.220   9.190   0.550
   12CHTO   O45 4835   5.715   9.212   0.792
   12CHTO   C67 4836   5.778   9.213   0.663
   12CHTO  H124 4837   5.871   9.156   0.673
   12CHTO   C65 4838   5.690   9.145   0.551
   12CHTO  H122 4839   5.594   9.120   0.597
   12CHTO   O44 4840   5.755   9.022   0.513
   12CHTO  H102 4841   5.757   8.962   0.584
   12CHTO   C63 4842   5.658   9.244   0.434
   12CHTO  H120 4843   5.601   9.328   0.475
   12CHTO   N11 4844   5.564   9.193   0.329
   12CHTO  H108 4845   5.540   9.272   0.261
   12CHTO  H109 4846   5.609   9.112   0.276
   12CHTO   C61 4847   5.795   9.300   0.380
   12CHTO  H118 4848   5.771   9.377   0.305
   12CHTO   O40 4849   5.874   9.365   0.484
   12CHTO   C68 4850   5.823   9.359   0.621
   12CHTO  H125 4851   5.737   9.428   0.626
   12CHTO   C72 4852   5.930   9.415   0.717
   12CHTO   O48 4853   5.936   9.558   0.711
   12CHTO  H105 4854   6.001   9.589   0.771
   12CHTO   O38 4855   5.875   9.195   0.322
   12CHTO   C55 4856   5.987   9.237   0.243
   12CHTO  H112 4857   6.013   9.341   0.264
   12CHTO   C56 4858   5.955   9.213   0.090
   12CHTO  H113 4859   5.922   9.109   0.080
   12CHTO   O42 4860   5.842   9.294   0.051
   12CHTO  H100 4861   5.862   9.385   0.061
   12CHTO   C57 4862   6.080   9.241   2.826
   12CHTO  H114 4863   6.093   9.349   2.825
   12CHTO   N10 4864   6.061   9.197   2.686
   12CHTO  H106 4865   6.155   9.170   2.640
   12CHTO  H107 4866   6.015   9.276   2.628
   12CHTO   C58 4867   6.208   9.177   0.059
   12CHTO  H115 4868   6.205   9.066   0.044
   12CHTO   O37 4869   6.222   9.205   0.200
   12CHTO   C59 4870   6.115   9.155   0.280
   12CHTO  H116 4871   6.100   9.048   0.260
   12CHTO   C70 4872   6.155   9.172   0.427
   12CHTO   O46 4873   6.071   9.099   0.517
   12CHTO  H103 4874   6.085   9.007   0.506
   12CHTO   O39 4875   6.337   9.240   2.818
   12CHTO   C60 4876   6.455   9.157   2.826
   12CHTO  H117 4877   6.448   9.093   0.086
   12CHTO   C62 4878   6.468   9.067   2.700
   12CHTO  H119 4879   6.377   9.003   2.698
   12CHTO   O43 4880   6.467   9.150   2.582
   12CHTO  H101 4881   6.542   9.207   2.580
   12CHTO   C66 4882   6.599   8.975   2.712
   12CHTO  H123 4883   6.590   8.913   2.801
   12CHTO   N12 4884   6.615   8.881   2.598
   12CHTO  H110 4885   6.535   8.891   2.527
   12CHTO  H111 4886   6.622   8.779   2.634
   12CHTO   C69 4887   6.724   9.065   2.732
   12CHTO  H126 4888   6.741   9.129   2.642
   12CHTO   O41 4889   6.700   9.157   0.030
   12CHTO   C64 4890   6.582   9.245   0.017
   12CHTO  H121 4891   6.594   9.312   2.756
   12CHTO   C71 4892   6.576   9.333   0.144
   12CHTO   O47 4893   6.482   9.441   0.129
   12CHTO  H104 4894   6.480   9.492   0.208
   12CHTO   O34 4895   6.852   8.980   2.757
   12CHTO   C49 4896   6.999   9.021   2.762
   12CHTO   H91 4897   7.027   9.054   2.662
   12CHTO   C47 4898   7.081   8.896   2.802
   12CHTO   H89 4899   7.187   8.929   2.796
   12CHTO   O33 4900   7.060   8.790   2.707
   12CHTO   H70 4901   7.120   8.720   2.724
   12CHTO   C45 4902   7.043   8.848   0.124
   12CHTO   H87 4903   6.961   8.774   0.117
   12CHTO    N8 4904   7.161   8.780   0.183
   12CHTO   H75 4905   7.188   8.824   0.277
   12CHTO   H76 4906   7.141   8.674   0.197
   12CHTO   C43 4907   6.980   8.970   0.209
   12CHTO   H85 4908   6.875   8.973   0.183
   12CHTO   O29 4909   7.047   9.093   0.175
   12CHTO   C50 4910   7.029   9.135   0.038
   12CHTO   H92 4911   6.947   9.208   0.035
   12CHTO   C54 4912   7.154   9.219   2.828
   12CHTO   O36 4913   7.139   9.283   2.701
   12CHTO   H72 4914   7.074   9.351   2.707
   12CHTO   O27 4915   6.981   8.949   0.351
   12CHTO   C37 4916   6.902   8.977   0.467
   12CHTO   H79 4917   6.966   9.015   0.548
   12CHTO   C38 4918   6.794   9.086   0.440
   12CHTO   H80 4919   6.738   9.058   0.349
   12CHTO   O31 4920   6.863   9.210   0.414
   12CHTO   H68 4921   6.909   9.205   0.333
   12CHTO   C39 4922   6.693   9.101   0.560
   12CHTO   H81 4923   6.749   9.141   0.645
   12CHTO    N7 4924   6.579   9.195   0.533
   12CHTO   H73 4925   6.587   9.238   0.434
   12CHTO   H74 4926   6.577   9.274   0.608
   12CHTO   C40 4927   6.640   8.959   0.604
   12CHTO   H82 4928   6.575   8.919   0.526
   12CHTO   O26 4929   6.751   8.872   0.631
   12CHTO   C41 4930   6.835   8.845   0.515
   12CHTO   H83 4931   6.773   8.804   0.434
   12CHTO   C52 4932   6.941   8.739   0.553
   12CHTO   O35 4933   6.881   8.612   0.599
   12CHTO   H71 4934   6.835   8.571   0.528
   12CHTO   O28 4935   6.570   8.962   0.729
   12CHTO   C42 4936   6.459   8.873   0.763
   12CHTO   H84 4937   6.475   8.851   0.868
   12CHTO   C44 4938   6.450   8.734   0.690
   12CHTO   H86 4939   6.438   8.751   0.583
   12CHTO   O32 4940   6.575   8.665   0.709
   12CHTO   H69 4941   6.589   8.647   0.800
   12CHTO   C48 4942   6.328   8.648   0.741
   12CHTO   H90 4943   6.350   8.618   0.844
   12CHTO    N9 4944   6.314   8.519   0.663
   12CHTO   H77 4945   6.318   8.434   0.730
   12CHTO   H78 4946   6.222   8.518   0.606
   12CHTO   C51 4947   6.195   8.733   0.742
   12CHTO   H93 4948   6.164   8.751   0.639
   12CHTO   O30 4949   6.214   8.856   0.814
   12CHTO   C46 4950   6.321   8.944   0.753
   12CHTO   H88 4951   6.297   8.962   0.648
   12CHTO   C53 4952   6.321   9.079   0.829
   12CHTO   O72 4953   6.199   9.150   0.806
   12CHTO  H199 4954   6.201   9.231   0.852
   12CHTO   O22 4955   6.094   8.661   0.814
   12CHTO   C31 4956   5.949   8.689   0.816
   12CHTO   H59 4957   5.902   8.601   0.865
   12CHTO   C29 4958   5.907   8.814   0.897
   12CHTO   H57 4959   5.942   8.904   0.844
   12CHTO   O21 4960   5.974   8.811   1.025
   12CHTO   H37 4961   5.957   8.890   1.072
   12CHTO   C27 4962   5.750   8.819   0.911
   12CHTO   H55 4963   5.718   8.731   0.969
   12CHTO    N5 4964   5.700   8.940   0.981
   12CHTO   H43 4965   5.744   8.946   1.080
   12CHTO   H44 4966   5.726   9.028   0.924
   12CHTO   C25 4967   5.683   8.805   0.769
   12CHTO   H53 4968   5.700   8.898   0.713
   12CHTO   O17 4969   5.740   8.695   0.691
   12CHTO   C32 4970   5.883   8.699   0.675
   12CHTO   H60 4971   5.913   8.792   0.628
   12CHTO   C36 4972   5.924   8.581   0.583
   12CHTO   O25 4973   5.868   8.595   0.452
   12CHTO   H40 4974   5.894   8.523   0.399
   12CHTO   O15 4975   5.532   8.779   0.780
   12CHTO   C19 4976   5.417   8.799   0.693
   12CHTO   H47 4977   5.406   8.909   0.689
   12CHTO   C20 4978   5.433   8.745   0.547
   12CHTO   H48 4979   5.451   8.636   0.546
   12CHTO   O19 4980   5.548   8.807   0.488
   12CHTO   H35 4981   5.536   8.900   0.481
   12CHTO   C21 4982   5.304   8.774   0.459
   12CHTO   H49 4983   5.297   8.881   0.442
   12CHTO    N4 4984   5.309   8.709   0.325
   12CHTO   H41 4985   5.400   8.653   0.312
   12CHTO   H42 4986   5.302   8.783   0.247
   12CHTO   C22 4987   5.175   8.734   0.537
   12CHTO   H50 4988   5.167   8.625   0.541
   12CHTO   O14 4989   5.175   8.787   0.671
   12CHTO   C23 4990   5.285   8.743   0.752
   12CHTO   H51 4991   5.284   8.633   0.753
   12CHTO   C34 4992   5.263   8.790   0.896
   12CHTO   O23 4993   5.148   8.727   0.954
   12CHTO   H38 4994   5.136   8.758   1.042
   12CHTO   O16 4995   5.056   8.794   0.481
   12CHTO   C24 4996   4.954   8.688   0.410
   12CHTO   H52 4997   5.002   8.591   0.393
   12CHTO   C26 4998   4.906   8.745   0.275
   12CHTO   H54 4999   4.849   8.839   0.294
   12CHTO   O20 5000   5.020   8.780   0.193
   12CHTO   H36 5001   5.071   8.703   0.173
   12CHTO   C30 5002   4.812   8.643   0.204
   12CHTO   H58 5003   4.871   8.554   0.176
   12CHTO    N6 5004   4.756   8.696   0.077
   12CHTO   H45 5005   4.836   8.719   0.008
   12CHTO   H46 5006   4.699   8.786   0.096
   12CHTO   C33 5007   4.699   8.592   0.300
   12CHTO   H61 5008   4.620   8.669   0.306
   12CHTO   O18 5009   4.746   8.566   0.434
   12CHTO   C28 5010   4.830   8.664   0.498
   12CHTO   H56 5011   4.775   8.758   0.510
   12CHTO   C35 5012   4.866   8.610   0.639
   12CHTO   O24 5013   4.933   8.484   0.635
   12CHTO   H39 5014   4.951   8.456   0.723
   12CHTO    O9 5015   4.635   8.476   0.243
   12CHTO   C13 5016   4.717   8.334   0.272
   12CHTO   H26 5017   4.818   8.358   0.310
   12CHTO   C11 5018   4.724   8.248   0.140
   12CHTO   H24 5019   4.789   8.302   0.069
   12CHTO    O8 5020   4.594   8.238   0.079
   12CHTO    H3 5021   4.600   8.193   2.824
   12CHTO    C9 5022   4.790   8.112   0.174
   12CHTO   H22 5023   4.886   8.137   0.223
   12CHTO    N2 5024   4.829   8.031   0.056
   12CHTO   H10 5025   4.792   8.075   2.793
   12CHTO   H11 5026   4.936   8.019   0.052
   12CHTO    C7 5027   4.701   8.036   0.279
   12CHTO   H20 5028   4.760   7.945   0.305
   12CHTO    O4 5029   4.682   8.114   0.398
   12CHTO   C14 5030   4.646   8.254   0.390
   12CHTO   H27 5031   4.682   8.299   0.485
   12CHTO   C18 5032   4.492   8.270   0.388
   12CHTO   O13 5033   4.434   8.234   0.514
   12CHTO    H7 5034   4.458   8.297   0.579
   12CHTO    O2 5035   4.553   7.992   0.220
   12CHTO    C1 5036   4.519   7.852   0.235
   12CHTO   H14 5037   4.594   7.801   0.298
   12CHTO    C2 5038   4.510   7.777   0.095
   12CHTO   H15 5039   4.453   7.844   0.029
   12CHTO    O6 5040   4.643   7.761   0.043
   12CHTO    H1 5041   4.680   7.845   0.023
   12CHTO    C3 5042   4.437   7.634   0.106
   12CHTO   H16 5043   4.504   7.565   0.158
   12CHTO    N1 5044   4.410   7.576   2.798
   12CHTO    H8 5045   4.345   7.642   2.742
   12CHTO    H9 5046   4.364   7.479   2.808
   12CHTO    C4 5047   4.308   7.644   0.196
   12CHTO   H17 5048   4.234   7.706   0.145
   12CHTO    O1 5049   4.342   7.704   0.323
   12CHTO    C5 5050   4.383   7.841   0.311
   12CHTO   H18 5051   4.308   7.896   0.254
   12CHTO   C16 5052   4.389   7.901   0.454
   12CHTO   O11 5053   4.490   7.839   0.535
   12CHTO    H5 5054   4.489   7.877   0.620
   12CHTO    O3 5055   4.250   7.513   0.216
   12CHTO    C6 5056   4.194   7.466   0.342
   12CHTO   H19 5057   4.250   7.500   0.429
   12CHTO    C8 5058   4.045   7.512   0.358
   12CHTO   H21 5059   3.991   7.486   0.267
   12CHTO    O7 5060   4.047   7.655   0.373
   12CHTO    H2 5061   4.070   7.697   0.293
   12CHTO   C12 5062   3.976   7.440   0.481
   12CHTO   H25 5063   4.028   7.476   0.572
   12CHTO    N3 5064   3.832   7.480   0.495
   12CHTO   H12 5065   3.788   7.432   0.581
   12CHTO   H13 5066   3.777   7.453   0.405
   12CHTO   C15 5067   3.998   7.286   0.469
   12CHTO   H28 5068   3.944   7.244   0.383
   12CHTO   O10 5069   3.958   7.208   0.595
   12CHTO    H4 5070   3.866   7.217   0.610
   12CHTO    O5 5071   4.138   7.255   0.459
   12CHTO   C10 5072   4.202   7.310   0.342
   12CHTO   H23 5073   4.153   7.270   0.254
   12CHTO   C17 5074   4.346   7.258   0.343
   12CHTO   O12 5075   4.416   7.285   0.221
   12CHTO    H6 5076   4.429   7.377   0.211
   13CHTO  H203 5077   8.693   4.365   1.849
   13CHTO   O82 5078   8.699   4.333   1.761
   13CHTO  C123 5079   8.622   4.415   1.671
   13CHTO  H227 5080   8.636   4.377   1.569
   13CHTO   O77 5081   8.484   4.394   1.714
   13CHTO  C118 5082   8.386   4.458   1.630
   13CHTO  H222 5083   8.397   4.419   1.527
   13CHTO  C125 5084   8.244   4.419   1.683
   13CHTO   O84 5085   8.223   4.461   1.818
   13CHTO  H205 5086   8.136   4.437   1.846
   13CHTO  C114 5087   8.406   4.611   1.629
   13CHTO  H218 5088   8.388   4.649   1.730
   13CHTO  C116 5089   8.553   4.649   1.592
   13CHTO  H220 5090   8.570   4.628   1.484
   13CHTO   O79 5091   8.566   4.792   1.609
   13CHTO  H201 5092   8.652   4.819   1.582
   13CHTO  C120 5093   8.657   4.569   1.680
   13CHTO  H224 5094   8.646   4.604   1.785
   13CHTO   N21 5095   8.798   4.597   1.640
   13CHTO  H211 5096   8.804   4.619   1.534
   13CHTO  H212 5097   8.863   4.516   1.666
   13CHTO   O75 5098   8.309   4.662   1.536
   13CHTO  C112 5099   8.225   4.790   1.595
   13CHTO  H216 5100   8.295   4.855   1.649
   13CHTO   O73 5101   8.122   4.738   1.681
   13CHTO  C113 5102   8.053   4.842   1.750
   13CHTO  H217 5103   8.127   4.906   1.799
   13CHTO  C124 5104   7.965   4.780   1.859
   13CHTO   O83 5105   8.040   4.710   1.959
   13CHTO  H204 5106   8.079   4.634   1.922
   13CHTO  C109 5107   7.971   4.929   1.651
   13CHTO  H213 5108   7.892   4.865   1.610
   13CHTO  C110 5109   8.064   4.983   1.537
   13CHTO  H214 5110   8.124   5.064   1.578
   13CHTO   O78 5111   7.982   5.041   1.434
   13CHTO  H200 5112   7.939   5.118   1.465
   13CHTO  C111 5113   8.157   4.872   1.479
   13CHTO  H215 5114   8.095   4.802   1.421
   13CHTO   N19 5115   8.260   4.925   1.386
   13CHTO  H207 5116   8.253   5.032   1.376
   13CHTO  H208 5117   8.250   4.879   1.289
   13CHTO   O74 5118   7.910   5.040   1.725
   13CHTO  C115 5119   7.758   5.092   1.684
   13CHTO  H219 5120   7.753   5.201   1.675
   13CHTO   O76 5121   7.712   5.038   1.541
   13CHTO  C122 5122   7.626   4.924   1.538
   13CHTO  H226 5123   7.685   4.837   1.566
   13CHTO  C126 5124   7.587   4.903   1.388
   13CHTO   O85 5125   7.499   4.792   1.367
   13CHTO  H206 5126   7.478   4.785   1.276
   13CHTO  C121 5127   7.498   4.936   1.633
   13CHTO  H225 5128   7.409   4.960   1.571
   13CHTO   O81 5129   7.477   4.808   1.695
   13CHTO  H202 5130   7.455   4.744   1.630
   13CHTO  C119 5131   7.513   5.045   1.743
   13CHTO  H223 5132   7.496   5.141   1.694
   13CHTO  C117 5133   7.660   5.048   1.799
   13CHTO  H221 5134   7.698   4.953   1.836
   13CHTO   N20 5135   7.672   5.143   1.915
   13CHTO  H209 5136   7.605   5.113   1.994
   13CHTO  H210 5137   7.774   5.144   1.951
   13CHTO   O80 5138   7.392   5.043   1.856
   13CHTO  C103 5139   7.244   5.090   1.817
   13CHTO  H190 5140   7.194   5.129   1.906
   13CHTO  C101 5141   7.228   5.198   1.703
   13CHTO  H188 5142   7.279   5.163   1.613
   13CHTO   O68 5143   7.296   5.331   1.750
   13CHTO  H168 5144   7.251   5.365   1.825
   13CHTO   C99 5145   7.073   5.218   1.667
   13CHTO  H186 5146   7.021   5.257   1.757
   13CHTO   N17 5147   7.048   5.317   1.557
   13CHTO  H174 5148   7.090   5.280   1.464
   13CHTO  H175 5149   6.942   5.335   1.547
   13CHTO   C97 5150   7.008   5.080   1.637
   13CHTO  H184 5151   7.051   5.041   1.543
   13CHTO   O64 5152   7.029   4.989   1.747
   13CHTO  C104 5153   7.167   4.959   1.776
   13CHTO  H191 5154   7.216   4.913   1.690
   13CHTO  C108 5155   7.172   4.854   1.888
   13CHTO   O71 5156   7.112   4.731   1.848
   13CHTO  H171 5157   7.118   4.669   1.918
   13CHTO   O62 5158   6.864   5.088   1.629
   13CHTO   C91 5159   6.799   4.989   1.547
   13CHTO  H178 5160   6.872   4.917   1.512
   13CHTO   C92 5161   6.743   5.061   1.420
   13CHTO  H179 5162   6.687   5.151   1.451
   13CHTO   O66 5163   6.855   5.109   1.342
   13CHTO  H166 5164   6.899   5.178   1.388
   13CHTO   C93 5165   6.650   4.967   1.332
   13CHTO  H180 5166   6.715   4.891   1.286
   13CHTO   N16 5167   6.584   5.038   1.219
   13CHTO  H172 5168   6.659   5.079   1.153
   13CHTO  H173 5169   6.520   5.117   1.257
   13CHTO   C94 5170   6.545   4.896   1.424
   13CHTO  H181 5171   6.480   4.968   1.474
   13CHTO   O61 5172   6.614   4.824   1.527
   13CHTO   C95 5173   6.683   4.910   1.620
   13CHTO  H182 5174   6.612   4.981   1.662
   13CHTO  C106 5175   6.736   4.824   1.740
   13CHTO   O69 5176   6.827   4.722   1.697
   13CHTO  H169 5177   6.857   4.673   1.771
   13CHTO   O63 5178   6.456   4.786   1.339
   13CHTO   C96 5179   6.311   4.755   1.398
   13CHTO  H183 5180   6.262   4.688   1.327
   13CHTO   C98 5181   6.220   4.881   1.414
   13CHTO  H185 5182   6.277   4.963   1.459
   13CHTO   O67 5183   6.186   4.925   1.281
   13CHTO  H167 5184   6.137   5.005   1.285
   13CHTO  C102 5185   6.088   4.854   1.502
   13CHTO  H189 5186   6.025   4.787   1.441
   13CHTO   N18 5187   6.007   4.975   1.529
   13CHTO  H176 5188   5.972   5.017   1.436
   13CHTO  H177 5189   6.066   5.048   1.583
   13CHTO  C105 5190   6.131   4.778   1.631
   13CHTO  H192 5191   6.199   4.841   1.688
   13CHTO   O65 5192   6.200   4.656   1.599
   13CHTO  C100 5193   6.326   4.676   1.534
   13CHTO  H187 5194   6.390   4.735   1.602
   13CHTO  C107 5195   6.395   4.539   1.512
   13CHTO   O70 5196   6.317   4.450   1.431
   13CHTO  H170 5197   6.313   4.483   1.343
   13CHTO   O57 5198   5.998   4.745   1.724
   13CHTO   C85 5199   5.908   4.639   1.690
   13CHTO  H157 5200   5.960   4.574   1.617
   13CHTO   C83 5201   5.785   4.698   1.614
   13CHTO  H155 5202   5.820   4.742   1.521
   13CHTO   O56 5203   5.727   4.806   1.691
   13CHTO  H135 5204   5.691   4.773   1.771
   13CHTO   C81 5205   5.687   4.582   1.580
   13CHTO  H153 5206   5.741   4.508   1.522
   13CHTO   N14 5207   5.576   4.626   1.492
   13CHTO  H141 5208   5.515   4.542   1.465
   13CHTO  H142 5209   5.615   4.669   1.402
   13CHTO   C79 5210   5.637   4.514   1.713
   13CHTO  H151 5211   5.575   4.429   1.684
   13CHTO   O52 5212   5.752   4.459   1.786
   13CHTO   C86 5213   5.857   4.557   1.815
   13CHTO  H158 5214   5.811   4.624   1.891
   13CHTO   C90 5215   5.975   4.487   1.888
   13CHTO   O60 5216   6.031   4.382   1.808
   13CHTO  H138 5217   6.076   4.418   1.734
   13CHTO   O50 5218   5.561   4.601   1.798
   13CHTO   C73 5219   5.429   4.593   1.853
   13CHTO  H145 5220   5.375   4.508   1.810
   13CHTO   C74 5221   5.351   4.724   1.821
   13CHTO  H146 5222   5.350   4.735   1.711
   13CHTO   O54 5223   5.214   4.703   1.861
   13CHTO  H133 5224   5.162   4.778   1.838
   13CHTO   C75 5225   5.421   4.846   1.893
   13CHTO  H147 5226   5.524   4.855   1.853
   13CHTO   N13 5227   5.355   4.976   1.865
   13CHTO  H139 5228   5.254   4.974   1.902
   13CHTO  H140 5229   5.409   5.056   1.914
   13CHTO   C76 5230   5.432   4.814   2.049
   13CHTO  H148 5231   5.330   4.804   2.086
   13CHTO   O49 5232   5.501   4.687   2.070
   13CHTO   C77 5233   5.438   4.574   2.008
   13CHTO  H149 5234   5.337   4.562   2.047
   13CHTO   C88 5235   5.515   4.447   2.046
   13CHTO   O58 5236   5.448   4.324   1.995
   13CHTO  H136 5237   5.365   4.313   2.038
   13CHTO   O51 5238   5.517   4.933   2.138
   13CHTO   C78 5239   5.677   4.984   2.105
   13CHTO  H150 5240   5.716   5.037   2.194
   13CHTO   C80 5241   5.683   5.080   1.984
   13CHTO  H152 5242   5.648   5.026   1.894
   13CHTO   O55 5243   5.593   5.188   2.014
   13CHTO  H134 5244   5.587   5.246   1.940
   13CHTO   C84 5245   5.831   5.131   1.961
   13CHTO  H156 5246   5.861   5.187   2.049
   13CHTO   N15 5247   5.843   5.226   1.844
   13CHTO  H143 5248   5.784   5.313   1.861
   13CHTO  H144 5249   5.810   5.178   1.754
   13CHTO   C87 5250   5.927   5.011   1.946
   13CHTO  H159 5251   5.912   4.961   1.850
   13CHTO   O53 5252   5.906   4.911   2.063
   13CHTO   C82 5253   5.771   4.864   2.082
   13CHTO  H154 5254   5.738   4.804   1.997
   13CHTO   C89 5255   5.771   4.772   2.206
   13CHTO   O59 5256   5.847   4.653   2.181
   13CHTO  H137 5257   5.846   4.598   2.258
   13CHTO   O45 5258   6.084   5.065   1.954
   13CHTO   C67 5259   6.183   4.961   1.964
   13CHTO  H124 5260   6.144   4.866   1.926
   13CHTO   C65 5261   6.310   5.000   1.881
   13CHTO  H122 5262   6.272   5.035   1.785
   13CHTO   O44 5263   6.393   4.885   1.860
   13CHTO  H102 5264   6.430   4.856   1.941
   13CHTO   C63 5265   6.380   5.125   1.948
   13CHTO  H120 5266   6.307   5.206   1.955
   13CHTO   N11 5267   6.488   5.187   1.866
   13CHTO  H108 5268   6.521   5.279   1.912
   13CHTO  H109 5269   6.571   5.120   1.857
   13CHTO   C61 5270   6.422   5.089   2.095
   13CHTO  H118 5271   6.452   5.184   2.141
   13CHTO   O40 5272   6.308   5.040   2.172
   13CHTO   C68 5273   6.219   4.937   2.117
   13CHTO  H125 5274   6.125   4.945   2.175
   13CHTO   C72 5275   6.276   4.795   2.145
   13CHTO   O48 5276   6.186   4.690   2.109
   13CHTO  H105 5277   6.111   4.691   2.166
   13CHTO   O38 5278   6.530   4.993   2.104
   13CHTO   C55 5279   6.627   5.002   2.211
   13CHTO  H112 5280   6.685   4.909   2.203
   13CHTO   C56 5281   6.563   5.020   2.356
   13CHTO  H113 5282   6.498   5.109   2.353
   13CHTO   O42 5283   6.478   4.907   2.383
   13CHTO  H100 5284   6.431   4.920   2.464
   13CHTO   C57 5285   6.675   5.035   2.466
   13CHTO  H114 5286   6.724   4.938   2.475
   13CHTO   N10 5287   6.621   5.068   2.601
   13CHTO  H106 5288   6.686   5.028   2.677
   13CHTO  H107 5289   6.522   5.026   2.614
   13CHTO   C58 5290   6.780   5.140   2.423
   13CHTO  H115 5291   6.734   5.242   2.427
   13CHTO   O37 5292   6.829   5.115   2.290
   13CHTO   C59 5293   6.731   5.115   2.185
   13CHTO  H116 5294   6.682   5.213   2.181
   13CHTO   C70 5295   6.804   5.092   2.052
   13CHTO   O46 5296   6.891   5.199   2.015
   13CHTO  H103 5297   6.963   5.204   2.075
   13CHTO   O39 5298   6.912   5.131   2.522
   13CHTO   C60 5299   6.983   5.255   2.532
   13CHTO  H117 5300   6.979   5.306   2.436
   13CHTO   C62 5301   6.920   5.347   2.640
   13CHTO  H119 5302   6.813   5.361   2.610
   13CHTO   O43 5303   6.923   5.280   2.768
   13CHTO  H101 5304   6.879   5.333   0.004
   13CHTO   C66 5305   6.994   5.489   2.639
   13CHTO  H123 5306   6.984   5.533   2.540
   13CHTO   N12 5307   6.930   5.587   2.732
   13CHTO  H110 5308   6.934   5.550   0.005
   13CHTO  H111 5309   6.978   5.683   2.723
   13CHTO   C69 5310   7.146   5.471   2.666
   13CHTO  H126 5311   7.162   5.436   2.770
   13CHTO   O41 5312   7.207   5.366   2.565
   13CHTO   C64 5313   7.134   5.232   2.563
   13CHTO  H121 5314   7.144   5.183   2.663
   13CHTO   C71 5315   7.205   5.142   2.458
   13CHTO   O47 5316   7.164   5.005   2.469
   13CHTO  H104 5317   7.208   4.955   2.403
   13CHTO   O34 5318   7.222   5.607   2.646
   13CHTO   C49 5319   7.348   5.679   2.693
   13CHTO   H91 5320   7.431   5.608   2.682
   13CHTO   C47 5321   7.332   5.720   0.013
   13CHTO   H89 5322   7.432   5.761   0.042
   13CHTO   O33 5323   7.306   5.605   0.096
   13CHTO   H70 5324   7.379   5.546   0.094
   13CHTO   C45 5325   7.215   5.830   0.031
   13CHTO   H87 5326   7.122   5.778   0.057
   13CHTO    N8 5327   7.251   5.919   0.144
   13CHTO   H75 5328   7.169   5.986   0.166
   13CHTO   H76 5329   7.339   5.977   0.119
   13CHTO   C43 5330   7.183   5.903   2.718
   13CHTO   H85 5331   7.118   5.834   2.664
   13CHTO   O29 5332   7.305   5.928   2.646
   13CHTO   C50 5333   7.378   5.808   2.610
   13CHTO   H92 5334   7.357   5.786   2.505
   13CHTO   C54 5335   7.530   5.840   2.610
   13CHTO   O36 5336   7.564   5.936   2.508
   13CHTO   H72 5337   7.554   5.897   2.423
   13CHTO   O27 5338   7.102   6.021   2.729
   13CHTO   C37 5339   7.083   6.160   2.763
   13CHTO   H79 5340   7.092   6.174   0.044
   13CHTO   C38 5341   7.191   6.248   2.695
   13CHTO   H80 5342   7.195   6.223   2.588
   13CHTO   O31 5343   7.318   6.214   2.755
   13CHTO   H68 5344   7.344   6.128   2.729
   13CHTO   C39 5345   7.161   6.402   2.712
   13CHTO   H81 5346   7.175   6.426   2.818
   13CHTO    N7 5347   7.256   6.491   2.636
   13CHTO   H73 5348   7.330   6.432   2.584
   13CHTO   H74 5349   7.203   6.554   2.565
   13CHTO   C40 5350   7.011   6.435   2.677
   13CHTO   H82 5351   6.995   6.430   2.569
   13CHTO   O26 5352   6.923   6.347   2.748
   13CHTO   C41 5353   6.942   6.205   2.719
   13CHTO   H83 5354   6.930   6.188   2.611
   13CHTO   C52 5355   6.831   6.126   2.793
   13CHTO   O35 5356   6.694   6.164   2.746
   13CHTO   H71 5357   6.676   6.252   2.771
   13CHTO   O28 5358   6.971   6.564   2.727
   13CHTO   C42 5359   6.893   6.660   2.649
   13CHTO   H84 5360   6.882   6.616   2.550
   13CHTO   C44 5361   6.961   6.799   2.629
   13CHTO   H86 5362   6.984   6.841   2.727
   13CHTO   O32 5363   7.086   6.775   2.561
   13CHTO   H69 5364   7.135   6.855   2.556
   13CHTO   C48 5365   6.870   6.902   2.551
   13CHTO   H90 5366   6.860   6.866   2.448
   13CHTO    N9 5367   6.932   7.039   2.540
   13CHTO   H77 5368   7.029   7.042   2.589
   13CHTO   H78 5369   6.941   7.068   2.437
   13CHTO   C51 5370   6.727   6.907   2.616
   13CHTO   H93 5371   6.737   6.946   2.717
   13CHTO   O30 5372   6.672   6.774   2.615
   13CHTO   C46 5373   6.748   6.680   2.705
   13CHTO   H88 5374   6.755   6.725   2.805
   13CHTO   C53 5375   6.667   6.548   2.715
   13CHTO   O72 5376   6.648   6.486   2.587
   13CHTO  H199 5377   6.592   6.539   2.534
   13CHTO   O22 5378   6.636   6.989   2.539
   13CHTO   C31 5379   6.493   7.013   2.570
   13CHTO   H59 5380   6.463   7.097   2.505
   13CHTO   C29 5381   6.400   6.894   2.537
   13CHTO   H57 5382   6.428   6.810   2.602
   13CHTO   O21 5383   6.426   6.852   2.401
   13CHTO   H37 5384   6.400   6.918   2.341
   13CHTO   C27 5385   6.248   6.930   2.561
   13CHTO   H55 5386   6.219   7.008   2.490
   13CHTO    N5 5387   6.158   6.813   2.543
   13CHTO   H43 5388   6.099   6.793   2.631
   13CHTO   H44 5389   6.214   6.725   2.514
   13CHTO   C25 5390   6.231   6.993   2.705
   13CHTO   H53 5391   6.249   6.915   2.781
   13CHTO   O17 5392   6.327   7.100   2.727
   13CHTO   C32 5393   6.464   7.060   2.716
   13CHTO   H60 5394   6.484   6.977   2.784
   13CHTO   C36 5395   6.553   7.180   2.758
   13CHTO   O25 5396   6.537   7.207   0.069
   13CHTO   H40 5397   6.591   7.279   0.094
   13CHTO   O15 5398   6.087   7.052   2.725
   13CHTO   C19 5399   5.970   7.122   2.673
   13CHTO   H47 5400   5.932   7.177   2.760
   13CHTO   C20 5401   5.998   7.223   2.558
   13CHTO   H48 5402   6.042   7.173   2.470
   13CHTO   O19 5403   6.095   7.316   2.609
   13CHTO   H35 5404   6.122   7.375   2.541
   13CHTO   C21 5405   5.865   7.296   2.512
   13CHTO   H49 5406   5.830   7.358   2.594
   13CHTO    N4 5407   5.887   7.388   2.396
   13CHTO   H41 5408   5.922   7.332   2.311
   13CHTO   H42 5409   5.794   7.438   2.371
   13CHTO   C22 5410   5.754   7.190   2.484
   13CHTO   H50 5411   5.783   7.131   2.397
   13CHTO   O14 5412   5.739   7.104   2.598
   13CHTO   C23 5413   5.855   7.026   2.630
   13CHTO   H51 5414   5.882   6.968   2.540
   13CHTO   C34 5415   5.819   6.926   2.741
   13CHTO   O23 5416   5.728   6.827   2.692
   13CHTO   H38 5417   5.772   6.771   2.631
   13CHTO   O16 5418   5.626   7.254   2.459
   13CHTO   C24 5419   5.487   7.170   2.490
   13CHTO   H52 5420   5.491   7.118   2.586
   13CHTO   C26 5421   5.456   7.069   2.378
   13CHTO   H54 5422   5.456   7.124   2.280
   13CHTO   O20 5423   5.561   6.971   2.375
   13CHTO   H36 5424   5.642   7.010   2.346
   13CHTO   C30 5425   5.316   7.003   2.398
   13CHTO   H58 5426   5.319   6.937   2.485
   13CHTO    N6 5427   5.279   6.917   2.282
   13CHTO   H45 5428   5.276   6.975   2.191
   13CHTO   H46 5429   5.351   6.837   2.271
   13CHTO   C33 5430   5.206   7.110   2.427
   13CHTO   H61 5431   5.186   7.168   2.336
   13CHTO   O18 5432   5.250   7.202   2.529
   13CHTO   C28 5433   5.372   7.273   2.502
   13CHTO   H56 5434   5.364   7.328   2.408
   13CHTO   C35 5435   5.399   7.373   2.616
   13CHTO   O24 5436   5.297   7.472   2.627
   13CHTO   H39 5437   5.318   7.531   2.698
   13CHTO    O9 5438   5.079   7.050   2.462
   13CHTO   C13 5439   5.072   6.991   2.619
   13CHTO   H26 5440   5.171   7.004   2.666
   13CHTO   C11 5441   5.029   6.838   2.615
   13CHTO   H24 5442   5.113   6.781   2.573
   13CHTO    O8 5443   4.915   6.820   2.528
   13CHTO    H3 5444   4.841   6.868   2.560
   13CHTO    C9 5445   5.003   6.793   2.761
   13CHTO   H22 5446   5.095   6.818   2.816
   13CHTO    N2 5447   4.991   6.646   2.777
   13CHTO   H10 5448   5.078   6.597   2.734
   13CHTO   H11 5449   4.901   6.611   2.730
   13CHTO    C7 5450   4.884   6.878   2.824
   13CHTO   H20 5451   4.924   6.907   0.096
   13CHTO    O4 5452   4.855   6.998   2.750
   13CHTO   C14 5453   4.970   7.075   2.710
   13CHTO   H27 5454   5.024   7.106   2.802
   13CHTO   C18 5455   4.921   7.205   2.642
   13CHTO   O13 5456   4.849   7.289   2.733
   13CHTO    H7 5457   4.908   7.324   2.797
   13CHTO    O2 5458   4.743   6.794   0.015
   13CHTO    C1 5459   4.675   6.824   0.138
   13CHTO   H14 5460   4.690   6.931   0.164
   13CHTO    C2 5461   4.722   6.735   0.261
   13CHTO   H15 5462   4.712   6.630   0.229
   13CHTO    O6 5463   4.861   6.763   0.290
   13CHTO    H1 5464   4.915   6.733   0.219
   13CHTO    C3 5465   4.630   6.764   0.389
   13CHTO   H16 5466   4.649   6.866   0.424
   13CHTO    N1 5467   4.663   6.672   0.504
   13CHTO    H8 5468   4.648   6.569   0.475
   13CHTO    H9 5469   4.765   6.687   0.535
   13CHTO    C4 5470   4.477   6.759   0.351
   13CHTO   H17 5471   4.449   6.655   0.331
   13CHTO    O1 5472   4.450   6.840   0.235
   13CHTO    C5 5473   4.522   6.804   0.117
   13CHTO   H18 5474   4.505   6.699   0.094
   13CHTO   C16 5475   4.469   6.890   2.827
   13CHTO   O11 5476   4.332   6.859   2.799
   13CHTO    H5 5477   4.302   6.912   2.728
   13CHTO    O3 5478   4.395   6.817   0.454
   13CHTO    C6 5479   4.265   6.753   0.478
   13CHTO   H19 5480   4.243   6.673   0.408
   13CHTO    C8 5481   4.263   6.692   0.622
   13CHTO   H21 5482   4.297   6.768   0.693
   13CHTO    O7 5483   4.354   6.581   0.622
   13CHTO    H2 5484   4.443   6.611   0.613
   13CHTO   C12 5485   4.117   6.646   0.663
   13CHTO   H25 5486   4.092   6.563   0.596
   13CHTO    N3 5487   4.111   6.591   0.803
   13CHTO   H12 5488   4.076   6.489   0.801
   13CHTO   H13 5489   4.207   6.597   0.852
   13CHTO   C15 5490   4.016   6.763   0.637
   13CHTO   H28 5491   4.034   6.848   0.703
   13CHTO   O10 5492   3.865   6.719   0.650
   13CHTO    H4 5493   3.849   6.644   0.595
   13CHTO    O5 5494   4.024   6.804   0.500
   13CHTO   C10 5495   4.151   6.859   0.462
   13CHTO   H23 5496   4.172   6.947   0.523
   13CHTO   C17 5497   4.140   6.906   0.316
   13CHTO   O12 5498   4.041   7.007   0.300
   13CHTO    H6 5499   4.037   7.034   0.210
   14CHTO  H203 5500   7.257   4.561   2.292
   14CHTO   O82 5501   7.171   4.581   2.324
   14CHTO  C123 5502   7.079   4.592   2.214
   14CHTO  H227 5503   7.124   4.656   2.136
   14CHTO   O77 5504   7.066   4.455   2.166
   14CHTO  C118 5505   6.980   4.441   2.052
   14CHTO  H222 5506   7.011   4.509   1.971
   14CHTO  C125 5507   6.996   4.293   2.003
   14CHTO   O84 5508   6.939   4.272   1.873
   14CHTO  H205 5509   6.988   4.320   1.809
   14CHTO  C114 5510   6.836   4.475   2.097
   14CHTO  H218 5511   6.808   4.408   2.179
   14CHTO  C116 5512   6.829   4.621   2.149
   14CHTO  H220 5513   6.844   4.691   2.064
   14CHTO   O79 5514   6.696   4.645   2.198
   14CHTO  H201 5515   6.686   4.735   2.224
   14CHTO  C120 5516   6.939   4.647   2.261
   14CHTO  H224 5517   6.905   4.592   2.351
   14CHTO   N21 5518   6.945   4.791   2.298
   14CHTO  H211 5519   6.978   4.801   2.401
   14CHTO  H212 5520   7.011   4.845   2.232
   14CHTO   O75 5521   6.751   4.453   1.982
   14CHTO  C112 5522   6.618   4.363   2.015
   14CHTO  H216 5523   6.575   4.396   2.111
   14CHTO   O73 5524   6.660   4.225   2.020
   14CHTO  C113 5525   6.554   4.133   2.049
   14CHTO  H217 5526   6.502   4.164   2.142
   14CHTO  C124 5527   6.618   3.996   2.074
   14CHTO   O83 5528   6.528   3.900   2.131
   14CHTO  H204 5529   6.573   3.819   2.142
   14CHTO  C109 5530   6.453   4.132   1.931
   14CHTO  H213 5531   6.509   4.100   1.841
   14CHTO  C110 5532   6.397   4.277   1.911
   14CHTO  H214 5533   6.332   4.300   1.996
   14CHTO   O78 5534   6.315   4.278   1.792
   14CHTO  H200 5535   6.271   4.361   1.784
   14CHTO  C111 5536   6.512   4.382   1.900
   14CHTO  H215 5537   6.564   4.367   1.804
   14CHTO   N19 5538   6.463   4.523   1.900
   14CHTO  H207 5539   6.399   4.539   1.815
   14CHTO  H208 5540   6.408   4.543   1.991
   14CHTO   O74 5541   6.346   4.036   1.956
   14CHTO  C115 5542   6.288   3.966   1.824
   14CHTO  H219 5543   6.334   4.006   1.734
   14CHTO   O76 5544   6.320   3.812   1.821
   14CHTO  C122 5545   6.271   3.740   1.935
   14CHTO  H226 5546   6.343   3.754   2.016
   14CHTO  C126 5547   6.277   3.587   1.899
   14CHTO   O85 5548   6.240   3.501   2.007
   14CHTO  H206 5549   6.304   3.507   2.076
   14CHTO  C121 5550   6.126   3.784   1.982
   14CHTO  H225 5551   6.066   3.693   2.004
   14CHTO   O81 5552   6.136   3.858   2.104
   14CHTO  H202 5553   6.050   3.873   2.141
   14CHTO  C119 5554   6.051   3.866   1.872
   14CHTO  H223 5555   6.041   3.797   1.788
   14CHTO  C117 5556   6.132   3.993   1.823
   14CHTO  H221 5557   6.119   4.081   1.886
   14CHTO   N20 5558   6.086   4.037   1.687
   14CHTO  H209 5559   6.106   3.959   1.614
   14CHTO  H210 5560   5.981   4.060   1.689
   14CHTO   O80 5561   5.897   3.893   1.910
   14CHTO  C103 5562   5.786   3.881   1.801
   14CHTO  H190 5563   5.823   3.917   1.704
   14CHTO  C101 5564   5.725   3.737   1.780
   14CHTO  H188 5565   5.691   3.700   1.877
   14CHTO   O68 5566   5.837   3.642   1.727
   14CHTO  H168 5567   5.905   3.633   1.791
   14CHTO   C99 5568   5.600   3.744   1.681
   14CHTO  H186 5569   5.635   3.777   1.582
   14CHTO   N17 5570   5.532   3.611   1.661
   14CHTO  H174 5571   5.455   3.620   1.585
   14CHTO  H175 5572   5.490   3.576   1.754
   14CHTO   C97 5573   5.500   3.853   1.728
   14CHTO  H184 5574   5.452   3.819   1.821
   14CHTO   O64 5575   5.567   3.979   1.746
   14CHTO  C104 5576   5.670   3.979   1.846
   14CHTO  H191 5577   5.633   3.949   1.943
   14CHTO  C108 5578   5.717   4.125   1.861
   14CHTO   O71 5579   5.798   4.146   1.978
   14CHTO  H171 5580   5.746   4.134   2.055
   14CHTO   O62 5581   5.403   3.883   1.626
   14CHTO   C91 5582   5.267   3.903   1.670
   14CHTO  H178 5583   5.243   3.821   1.738
   14CHTO   C92 5584   5.173   3.885   1.545
   14CHTO  H179 5585   5.200   3.794   1.490
   14CHTO   O66 5586   5.040   3.863   1.593
   14CHTO  H166 5587   5.033   3.780   1.636
   14CHTO   C93 5588   5.170   4.011   1.451
   14CHTO  H180 5589   5.081   4.000   1.387
   14CHTO   N16 5590   5.283   4.019   1.356
   14CHTO  H172 5591   5.377   4.023   1.410
   14CHTO  H173 5592   5.282   3.933   1.290
   14CHTO   C94 5593   5.155   4.145   1.536
   14CHTO  H181 5594   5.243   4.209   1.528
   14CHTO   O61 5595   5.135   4.120   1.676
   14CHTO   C95 5596   5.240   4.044   1.740
   14CHTO  H182 5597   5.331   4.103   1.740
   14CHTO  C106 5598   5.197   4.027   1.890
   14CHTO   O69 5599   5.300   3.965   1.969
   14CHTO  H169 5600   5.308   3.875   1.944
   14CHTO   O63 5601   5.026   4.220   1.484
   14CHTO   C96 5602   5.041   4.378   1.466
   14CHTO  H183 5603   4.944   4.414   1.430
   14CHTO   C98 5604   5.148   4.424   1.363
   14CHTO  H185 5605   5.246   4.379   1.387
   14CHTO   O67 5606   5.111   4.370   1.235
   14CHTO  H167 5607   5.121   4.277   1.235
   14CHTO  C102 5608   5.161   4.584   1.358
   14CHTO  H189 5609   5.064   4.621   1.320
   14CHTO   N18 5610   5.263   4.636   1.264
   14CHTO  H176 5611   5.263   4.744   1.266
   14CHTO  H177 5612   5.361   4.600   1.293
   14CHTO  C105 5613   5.179   4.636   1.504
   14CHTO  H192 5614   5.274   4.598   1.543
   14CHTO   O65 5615   5.074   4.590   1.591
   14CHTO  C100 5616   5.068   4.447   1.605
   14CHTO  H187 5617   5.164   4.412   1.645
   14CHTO  C107 5618   4.959   4.413   1.710
   14CHTO   O70 5619   4.829   4.458   1.670
   14CHTO  H170 5620   4.766   4.435   1.736
   14CHTO   O57 5621   5.182   4.802   1.504
   14CHTO   C85 5622   5.064   4.879   1.479
   14CHTO  H157 5623   4.983   4.808   1.453
   14CHTO   C83 5624   5.088   4.967   1.352
   14CHTO  H155 5625   5.101   4.900   1.267
   14CHTO   O56 5626   5.212   5.040   1.365
   14CHTO  H135 5627   5.206   5.102   1.436
   14CHTO   C81 5628   4.963   5.057   1.327
   14CHTO  H153 5629   4.876   4.992   1.317
   14CHTO   N14 5630   4.970   5.129   1.197
   14CHTO  H141 5631   4.958   5.235   1.211
   14CHTO  H142 5632   4.893   5.094   1.130
   14CHTO   C79 5633   4.940   5.151   1.451
   14CHTO  H151 5634   4.848   5.207   1.433
   14CHTO   O52 5635   4.917   5.070   1.571
   14CHTO   C86 5636   5.022   4.973   1.600
   14CHTO  H158 5637   5.109   5.035   1.633
   14CHTO   C90 5638   4.980   4.890   1.723
   14CHTO   O60 5639   4.973   4.972   1.841
   14CHTO  H138 5640   4.900   5.031   1.834
   14CHTO   O50 5641   5.047   5.244   1.475
   14CHTO   C73 5642   5.048   5.378   1.525
   14CHTO  H145 5643   4.960   5.395   1.589
   14CHTO   C74 5644   5.044   5.480   1.407
   14CHTO  H146 5645   4.951   5.460   1.351
   14CHTO   O54 5646   5.032   5.613   1.461
   14CHTO  H133 5647   4.949   5.624   1.504
   14CHTO   C75 5648   5.172   5.459   1.319
   14CHTO  H147 5649   5.171   5.355   1.281
   14CHTO   N13 5650   5.179   5.545   1.198
   14CHTO  H139 5651   5.181   5.485   1.109
   14CHTO  H140 5652   5.093   5.611   1.193
   14CHTO   C76 5653   5.303   5.473   1.410
   14CHTO  H148 5654   5.315   5.577   1.438
   14CHTO   O49 5655   5.296   5.389   1.530
   14CHTO   C77 5656   5.177   5.402   1.610
   14CHTO  H149 5657   5.172   5.502   1.654
   14CHTO   C88 5658   5.190   5.305   1.728
   14CHTO   O58 5659   5.068   5.300   1.809
   14CHTO  H136 5660   5.081   5.240   1.880
   14CHTO   O51 5661   5.427   5.415   1.331
   14CHTO   C78 5662   5.565   5.467   1.378
   14CHTO  H150 5663   5.558   5.518   1.477
   14CHTO   C80 5664   5.620   5.568   1.274
   14CHTO  H152 5665   5.610   5.523   1.172
   14CHTO   O55 5666   5.535   5.684   1.279
   14CHTO  H134 5667   5.559   5.745   1.212
   14CHTO   C84 5668   5.772   5.603   1.300
   14CHTO  H156 5669   5.776   5.656   1.395
   14CHTO   N15 5670   5.830   5.695   1.196
   14CHTO  H143 5671   5.823   5.650   1.099
   14CHTO  H144 5672   5.776   5.788   1.196
   14CHTO   C87 5673   5.853   5.472   1.313
   14CHTO  H159 5674   5.852   5.417   1.219
   14CHTO   O53 5675   5.792   5.387   1.425
   14CHTO   C82 5676   5.658   5.346   1.394
   14CHTO  H154 5677   5.657   5.286   1.303
   14CHTO   C89 5678   5.607   5.254   1.508
   14CHTO   O59 5679   5.684   5.134   1.518
   14CHTO  H137 5680   5.652   5.082   1.589
   14CHTO   O45 5681   6.006   5.500   1.358
   14CHTO   C67 5682   6.097   5.395   1.322
   14CHTO  H124 5683   6.049   5.297   1.327
   14CHTO   C65 5684   6.152   5.418   1.177
   14CHTO  H122 5685   6.064   5.439   1.116
   14CHTO   O44 5686   6.215   5.299   1.127
   14CHTO  H102 5687   6.294   5.281   1.176
   14CHTO   C63 5688   6.239   5.549   1.176
   14CHTO  H120 5689   6.177   5.631   1.214
   14CHTO   N11 5690   6.275   5.600   1.041
   14CHTO  H108 5691   6.321   5.696   1.048
   14CHTO  H109 5692   6.342   5.531   0.993
   14CHTO   C61 5693   6.360   5.535   1.277
   14CHTO  H118 5694   6.404   5.635   1.284
   14CHTO   O40 5695   6.312   5.500   1.410
   14CHTO   C68 5696   6.215   5.391   1.428
   14CHTO  H125 5697   6.169   5.407   1.527
   14CHTO   C72 5698   6.286   5.254   1.433
   14CHTO   O48 5699   6.374   5.241   1.545
   14CHTO  H105 5700   6.414   5.156   1.544
   14CHTO   O38 5701   6.461   5.438   1.239
   14CHTO   C55 5702   6.591   5.488   1.197
   14CHTO  H112 5703   6.588   5.597   1.184
   14CHTO   C56 5704   6.636   5.413   1.063
   14CHTO  H113 5705   6.632   5.305   1.084
   14CHTO   O42 5706   6.540   5.436   0.958
   14CHTO  H100 5707   6.535   5.527   0.938
   14CHTO   C57 5708   6.782   5.456   1.019
   14CHTO  H114 5709   6.775   5.559   0.985
   14CHTO   N10 5710   6.834   5.376   0.905
   14CHTO  H106 5711   6.904   5.435   0.847
   14CHTO  H107 5712   6.884   5.287   0.940
   14CHTO   C58 5713   6.878   5.450   1.140
   14CHTO  H115 5714   6.897   5.343   1.167
   14CHTO   O37 5715   6.824   5.519   1.254
   14CHTO   C59 5716   6.702   5.461   1.304
   14CHTO  H116 5717   6.715   5.354   1.321
   14CHTO   C70 5718   6.675   5.530   1.438
   14CHTO   O46 5719   6.580   5.459   1.518
   14CHTO  H103 5720   6.567   5.504   1.599
   14CHTO   O39 5721   7.019   5.525   1.103
   14CHTO   C60 5722   7.131   5.494   1.188
   14CHTO  H117 5723   7.102   5.512   1.292
   14CHTO   C62 5724   7.178   5.346   1.174
   14CHTO  H119 5725   7.096   5.282   1.214
   14CHTO   O43 5726   7.197   5.315   1.035
   14CHTO  H101 5727   7.220   5.225   1.025
   14CHTO   C66 5728   7.310   5.322   1.264
   14CHTO  H123 5729   7.287   5.348   1.367
   14CHTO   N12 5730   7.351   5.179   1.267
   14CHTO  H110 5731   7.374   5.145   1.167
   14CHTO  H111 5732   7.435   5.166   1.333
   14CHTO   C69 5733   7.421   5.417   1.214
   14CHTO  H126 5734   7.440   5.401   1.105
   14CHTO   O41 5735   7.371   5.560   1.236
   14CHTO   C64 5736   7.247   5.593   1.156
   14CHTO  H121 5737   7.271   5.586   1.048
   14CHTO   C71 5738   7.206   5.738   1.187
   14CHTO   O47 5739   7.311   5.829   1.152
   14CHTO  H104 5740   7.285   5.917   1.174
   14CHTO   O34 5741   7.553   5.400   1.289
   14CHTO   C49 5742   7.691   5.455   1.248
   14CHTO   H91 5743   7.714   5.414   1.149
   14CHTO   C47 5744   7.794   5.405   1.352
   14CHTO   H89 5745   7.893   5.437   1.312
   14CHTO   O33 5746   7.792   5.262   1.360
   14CHTO   H70 5747   7.821   5.225   1.279
   14CHTO   C45 5748   7.765   5.469   1.498
   14CHTO   H87 5749   7.702   5.399   1.554
   14CHTO    N8 5750   7.895   5.484   1.568
   14CHTO   H75 5751   7.897   5.421   1.656
   14CHTO   H76 5752   7.911   5.587   1.598
   14CHTO   C43 5753   7.674   5.603   1.485
   14CHTO   H85 5754   7.572   5.567   1.474
   14CHTO   O29 5755   7.715   5.680   1.370
   14CHTO   C50 5756   7.699   5.612   1.244
   14CHTO   H92 5757   7.607   5.649   1.196
   14CHTO   C54 5758   7.811   5.659   1.148
   14CHTO   O36 5759   7.808   5.801   1.131
   14CHTO   H72 5760   7.878   5.827   1.073
   14CHTO   O27 5761   7.672   5.683   1.604
   14CHTO   C37 5762   7.570   5.761   1.668
   14CHTO   H79 5763   7.615   5.824   1.746
   14CHTO   C38 5764   7.499   5.857   1.568
   14CHTO   H80 5765   7.458   5.796   1.484
   14CHTO   O31 5766   7.597   5.948   1.515
   14CHTO   H68 5767   7.658   5.902   1.460
   14CHTO   C39 5768   7.380   5.935   1.637
   14CHTO   H81 5769   7.425   6.002   1.711
   14CHTO    N7 5770   7.301   6.020   1.543
   14CHTO   H73 5771   7.224   6.073   1.596
   14CHTO   H74 5772   7.257   5.959   1.465
   14CHTO   C40 5773   7.287   5.834   1.715
   14CHTO   H82 5774   7.227   5.776   1.645
   14CHTO   O26 5775   7.365   5.750   1.802
   14CHTO   C41 5776   7.464   5.668   1.735
   14CHTO   H83 5777   7.415   5.605   1.658
   14CHTO   C52 5778   7.524   5.574   1.843
   14CHTO   O35 5779   7.605   5.470   1.789
   14CHTO   H71 5780   7.640   5.418   1.860
   14CHTO   O28 5781   7.202   5.902   1.810
   14CHTO   C42 5782   7.064   5.859   1.839
   14CHTO   H84 5783   7.053   5.882   1.945
   14CHTO   C44 5784   7.028   5.707   1.823
   14CHTO   H86 5785   7.044   5.678   1.719
   14CHTO   O32 5786   7.120   5.632   1.905
   14CHTO   H69 5787   7.107   5.652   1.996
   14CHTO   C48 5788   6.877   5.677   1.860
   14CHTO   H90 5789   6.864   5.695   1.966
   14CHTO    N9 5790   6.840   5.533   1.837
   14CHTO   H77 5791   6.854   5.507   1.733
   14CHTO   H78 5792   6.900   5.469   1.900
   14CHTO   C51 5793   6.781   5.776   1.785
   14CHTO   H93 5794   6.781   5.752   1.679
   14CHTO   O30 5795   6.821   5.911   1.810
   14CHTO   C46 5796   6.959   5.945   1.763
   14CHTO   H88 5797   6.966   5.923   1.656
   14CHTO   C53 5798   6.981   6.097   1.785
   14CHTO   O72 5799   6.968   6.135   1.923
   14CHTO  H199 5800   6.879   6.124   1.950
   14CHTO   O22 5801   6.647   5.771   1.840
   14CHTO   C31 5802   6.531   5.724   1.763
   14CHTO   H59 5803   6.571   5.662   1.680
   14CHTO   C29 5804   6.435   5.634   1.845
   14CHTO   H57 5805   6.399   5.694   1.930
   14CHTO   O21 5806   6.512   5.525   1.899
   14CHTO   H37 5807   6.459   5.476   1.960
   14CHTO   C27 5808   6.311   5.586   1.759
   14CHTO   H55 5809   6.348   5.522   1.677
   14CHTO    N5 5810   6.212   5.508   1.838
   14CHTO   H43 5811   6.204   5.407   1.800
   14CHTO   H44 5812   6.238   5.506   1.943
   14CHTO   C25 5813   6.244   5.711   1.694
   14CHTO   H53 5814   6.204   5.776   1.774
   14CHTO   O17 5815   6.342   5.787   1.618
   14CHTO   C32 5816   6.450   5.840   1.696
   14CHTO   H60 5817   6.411   5.904   1.774
   14CHTO   C36 5818   6.535   5.929   1.603
   14CHTO   O25 5819   6.587   5.856   1.491
   14CHTO   H40 5820   6.517   5.833   1.433
   14CHTO   O15 5821   6.128   5.676   1.597
   14CHTO   C19 5822   6.003   5.749   1.577
   14CHTO   H47 5823   5.963   5.705   1.485
   14CHTO   C20 5824   5.899   5.730   1.692
   14CHTO   H48 5825   5.938   5.766   1.788
   14CHTO   O19 5826   5.876   5.588   1.704
   14CHTO   H35 5827   5.952   5.545   1.738
   14CHTO   C21 5828   5.763   5.805   1.661
   14CHTO   H49 5829   5.715   5.756   1.577
   14CHTO    N4 5830   5.666   5.800   1.774
   14CHTO   H41 5831   5.705   5.744   1.857
   14CHTO   H42 5832   5.573   5.754   1.741
   14CHTO   C22 5833   5.792   5.951   1.616
   14CHTO   H50 5834   5.824   6.010   1.702
   14CHTO   O14 5835   5.892   5.957   1.513
   14CHTO   C23 5836   6.020   5.901   1.548
   14CHTO   H51 5837   6.058   5.955   1.636
   14CHTO   C34 5838   6.117   5.926   1.432
   14CHTO   O23 5839   6.146   6.065   1.417
   14CHTO   H38 5840   6.070   6.111   1.385
   14CHTO   O16 5841   5.675   6.007   1.553
   14CHTO   C24 5842   5.638   6.172   1.562
   14CHTO   H52 5843   5.626   6.216   1.464
   14CHTO   C26 5844   5.743   6.255   1.638
   14CHTO   H54 5845   5.756   6.214   1.741
   14CHTO   O20 5846   5.868   6.244   1.567
   14CHTO   H36 5847   5.937   6.286   1.615
   14CHTO   C30 5848   5.696   6.404   1.651
   14CHTO   H58 5849   5.685   6.447   1.550
   14CHTO    N6 5850   5.794   6.491   1.722
   14CHTO   H45 5851   5.882   6.435   1.752
   14CHTO   H46 5852   5.825   6.573   1.658
   14CHTO   C33 5853   5.555   6.407   1.717
   14CHTO   H61 5854   5.562   6.367   1.819
   14CHTO   O18 5855   5.465   6.323   1.641
   14CHTO   C28 5856   5.501   6.184   1.634
   14CHTO   H56 5857   5.508   6.141   1.734
   14CHTO   C35 5858   5.388   6.113   1.555
   14CHTO   O24 5859   5.395   5.971   1.562
   14CHTO   H39 5860   5.325   5.934   1.511
   14CHTO    O9 5861   5.502   6.541   1.731
   14CHTO   C13 5862   5.386   6.556   1.845
   14CHTO   H26 5863   5.411   6.487   1.929
   14CHTO   C11 5864   5.244   6.524   1.783
   14CHTO   H24 5865   5.237   6.414   1.768
   14CHTO    O8 5866   5.231   6.587   1.654
   14CHTO    H3 5867   5.150   6.562   1.613
   14CHTO    C9 5868   5.135   6.569   1.884
   14CHTO   H22 5869   5.160   6.520   1.979
   14CHTO    N2 5870   4.999   6.518   1.852
   14CHTO   H10 5871   5.002   6.410   1.841
   14CHTO   H11 5872   4.930   6.546   1.930
   14CHTO    C7 5873   5.145   6.727   1.906
   14CHTO   H20 5874   5.132   6.738   2.016
   14CHTO    O4 5875   5.274   6.779   1.868
   14CHTO   C14 5876   5.386   6.702   1.911
   14CHTO   H27 5877   5.380   6.691   2.022
   14CHTO   C18 5878   5.514   6.785   1.881
   14CHTO   O13 5879   5.630   6.722   1.936
   14CHTO    H7 5880   5.649   6.643   1.888
   14CHTO    O2 5881   5.025   6.816   1.828
   14CHTO    C1 5882   5.001   6.951   1.871
   14CHTO   H14 5883   4.919   6.991   1.808
   14CHTO    C2 5884   5.125   7.049   1.860
   14CHTO   H15 5885   5.203   7.010   1.926
   14CHTO    O6 5886   5.171   7.050   1.724
   14CHTO    H1 5887   5.105   7.083   1.667
   14CHTO    C3 5888   5.083   7.196   1.909
   14CHTO   H16 5889   5.007   7.236   1.839
   14CHTO    N1 5890   5.198   7.293   1.908
   14CHTO    H8 5891   5.177   7.376   1.841
   14CHTO    H9 5892   5.290   7.245   1.878
   14CHTO    C4 5893   5.013   7.189   2.050
   14CHTO   H17 5894   5.088   7.165   2.125
   14CHTO    O1 5895   4.908   7.090   2.051
   14CHTO    C5 5896   4.948   6.956   2.018
   14CHTO   H18 5897   5.028   6.924   2.085
   14CHTO   C16 5898   4.825   6.863   2.038
   14CHTO   O11 5899   4.784   6.860   2.175
   14CHTO    H5 5900   4.849   6.816   2.227
   14CHTO    O3 5901   4.945   7.312   2.081
   14CHTO    C6 5902   4.943   7.351   2.222
   14CHTO   H19 5903   4.981   7.273   2.288
   14CHTO    C8 5904   5.030   7.479   2.243
   14CHTO   H21 5905   4.999   7.554   2.170
   14CHTO    O7 5906   5.167   7.441   2.218
   14CHTO    H2 5907   5.222   7.517   2.218
   14CHTO   C12 5908   5.011   7.538   2.389
   14CHTO   H25 5909   5.058   7.465   2.459
   14CHTO    N3 5910   5.086   7.668   2.405
   14CHTO   H12 5911   5.191   7.652   2.387
   14CHTO   H13 5912   5.070   7.707   2.504
   14CHTO   C15 5913   4.858   7.550   2.423
   14CHTO   H28 5914   4.810   7.628   2.365
   14CHTO   O10 5915   4.833   7.574   2.573
   14CHTO    H4 5916   4.868   7.657   2.598
   14CHTO    O5 5917   4.792   7.424   2.402
   14CHTO   C10 5918   4.796   7.379   2.266
   14CHTO   H23 5919   4.753   7.457   2.202
   14CHTO   C17 5920   4.705   7.256   2.254
   14CHTO   O12 5921   4.750   7.145   2.333
   14CHTO    H6 5922   4.743   7.166   2.424
   15CHTO  H203 5923   7.768   4.604   1.817
   15CHTO   O82 5924   7.773   4.510   1.820
   15CHTO  C123 5925   7.699   4.451   1.712
   15CHTO  H227 5926   7.711   4.342   1.717
   15CHTO   O77 5927   7.560   4.487   1.743
   15CHTO  C118 5928   7.463   4.430   1.654
   15CHTO  H222 5929   7.473   4.320   1.656
   15CHTO  C125 5930   7.320   4.469   1.705
   15CHTO   O84 5931   7.294   4.413   1.835
   15CHTO  H205 5932   7.348   4.454   1.899
   15CHTO  C114 5933   7.487   4.482   1.510
   15CHTO  H218 5934   7.477   4.590   1.512
   15CHTO  C116 5935   7.634   4.454   1.464
   15CHTO  H220 5936   7.649   4.345   1.450
   15CHTO   O79 5937   7.653   4.515   1.335
   15CHTO  H201 5938   7.601   4.471   1.270
   15CHTO  C120 5939   7.738   4.508   1.571
   15CHTO  H224 5940   7.729   4.619   1.570
   15CHTO   N21 5941   7.878   4.474   1.534
   15CHTO  H211 5942   7.882   4.381   1.480
   15CHTO  H212 5943   7.921   4.554   1.475
   15CHTO   O75 5944   7.384   4.428   1.424
   15CHTO  C112 5945   7.361   4.259   1.416
   15CHTO  H216 5946   7.337   4.222   1.517
   15CHTO   O73 5947   7.480   4.200   1.364
   15CHTO  C113 5948   7.478   4.056   1.369
   15CHTO  H217 5949   7.457   4.024   1.473
   15CHTO  C124 5950   7.616   4.002   1.331
   15CHTO   O83 5951   7.718   4.044   1.422
   15CHTO  H204 5952   7.733   4.136   1.413
   15CHTO  C109 5953   7.367   4.001   1.276
   15CHTO  H213 5954   7.398   4.022   1.173
   15CHTO  C110 5955   7.229   4.068   1.307
   15CHTO  H214 5956   7.191   4.027   1.400
   15CHTO   O78 5957   7.136   4.033   1.203
   15CHTO  H200 5958   7.117   3.941   1.205
   15CHTO  C111 5959   7.242   4.223   1.320
   15CHTO  H215 5960   7.266   4.265   1.221
   15CHTO   N19 5961   7.117   4.290   1.365
   15CHTO  H207 5962   7.038   4.273   1.294
   15CHTO  H208 5963   7.087   4.250   1.462
   15CHTO   O74 5964   7.360   3.856   1.294
   15CHTO  C115 5965   7.311   3.774   1.169
   15CHTO  H219 5966   7.264   3.839   1.094
   15CHTO   O76 5967   7.431   3.706   1.094
   15CHTO  C122 5968   7.503   3.616   1.179
   15CHTO  H226 5969   7.550   3.675   1.257
   15CHTO  C126 5970   7.620   3.552   1.097
   15CHTO   O85 5971   7.717   3.649   1.055
   15CHTO  H206 5972   7.785   3.606   1.008
   15CHTO  C121 5973   7.409   3.504   1.243
   15CHTO  H225 5974   7.445   3.404   1.210
   15CHTO   O81 5975   7.421   3.510   1.386
   15CHTO  H202 5976   7.508   3.488   1.412
   15CHTO  C119 5977   7.260   3.520   1.201
   15CHTO  H223 5978   7.257   3.499   1.094
   15CHTO  C117 5979   7.207   3.667   1.223
   15CHTO  H221 5980   7.192   3.693   1.328
   15CHTO   N20 5981   7.072   3.686   1.160
   15CHTO  H209 5982   7.079   3.676   1.053
   15CHTO  H210 5983   7.033   3.784   1.185
   15CHTO   O80 5984   7.165   3.401   1.261
   15CHTO  C103 5985   7.102   3.289   1.162
   15CHTO  H190 5986   7.039   3.222   1.220
   15CHTO  C101 5987   7.016   3.343   1.042
   15CHTO  H188 5988   7.073   3.419   0.988
   15CHTO   O68 5989   6.887   3.409   1.102
   15CHTO  H168 5990   6.837   3.448   1.033
   15CHTO   C99 5991   6.981   3.225   0.941
   15CHTO  H186 5992   6.918   3.150   0.995
   15CHTO   N17 5993   6.901   3.269   0.822
   15CHTO  H174 5994   6.871   3.183   0.763
   15CHTO  H175 5995   6.959   3.338   0.763
   15CHTO   C97 5996   7.111   3.149   0.901
   15CHTO  H184 5997   7.174   3.217   0.842
   15CHTO   O64 5998   7.179   3.101   1.019
   15CHTO  C104 5999   7.224   3.204   1.110
   15CHTO  H191 6000   7.297   3.270   1.063
   15CHTO  C108 6001   7.296   3.137   1.228
   15CHTO   O71 6002   7.413   3.067   1.186
   15CHTO  H171 6003   7.454   3.027   1.260
   15CHTO   O62 6004   7.081   3.030   0.826
   15CHTO   C91 6005   7.189   2.962   0.759
   15CHTO  H178 6006   7.281   3.020   0.773
   15CHTO   C92 6007   7.159   2.963   0.605
   15CHTO  H179 6008   7.142   3.067   0.572
   15CHTO   O66 6009   7.277   2.920   0.536
   15CHTO  H166 6010   7.267   2.930   0.443
   15CHTO   C93 6011   7.040   2.867   0.566
   15CHTO  H180 6012   7.058   2.835   0.462
   15CHTO   N16 6013   6.908   2.935   0.564
   15CHTO  H172 6014   6.862   2.925   0.467
   15CHTO  H173 6015   6.843   2.898   0.641
   15CHTO   C94 6016   7.039   2.738   0.658
   15CHTO  H181 6017   6.970   2.749   0.742
   15CHTO   O61 6018   7.169   2.713   0.714
   15CHTO   C95 6019   7.212   2.812   0.810
   15CHTO  H182 6020   7.156   2.798   0.902
   15CHTO  C106 6021   7.362   2.782   0.844
   15CHTO   O69 6022   7.408   2.866   0.951
   15CHTO  H169 6023   7.498   2.847   0.968
   15CHTO   O63 6024   6.998   2.617   0.572
   15CHTO   C96 6025   6.943   2.494   0.655
   15CHTO  H183 6026   6.946   2.519   0.761
   15CHTO   C98 6027   7.027   2.365   0.632
   15CHTO  H185 6028   7.049   2.355   0.524
   15CHTO   O67 6029   7.154   2.387   0.695
   15CHTO  H167 6030   7.211   2.314   0.679
   15CHTO  C102 6031   6.955   2.232   0.687
   15CHTO  H189 6032   6.953   2.241   0.797
   15CHTO   N18 6033   7.027   2.106   0.658
   15CHTO  H176 6034   6.973   2.022   0.700
   15CHTO  H177 6035   7.126   2.110   0.700
   15CHTO  C105 6036   6.808   2.231   0.634
   15CHTO  H192 6037   6.810   2.227   0.525
   15CHTO   O65 6038   6.740   2.351   0.674
   15CHTO  C100 6039   6.793   2.471   0.615
   15CHTO  H187 6040   6.787   2.461   0.505
   15CHTO  C107 6041   6.703   2.590   0.657
   15CHTO   O70 6042   6.570   2.575   0.606
   15CHTO  H170 6043   6.570   2.586   0.512
   15CHTO   O57 6044   6.726   2.098   0.692
   15CHTO   C85 6045   6.694   2.083   0.832
   15CHTO  H157 6046   6.746   2.164   0.886
   15CHTO   C83 6047   6.757   1.949   0.882
   15CHTO  H155 6048   6.865   1.956   0.870
   15CHTO   O56 6049   6.713   1.839   0.799
   15CHTO  H135 6050   6.744   1.850   0.712
   15CHTO   C81 6051   6.725   1.931   1.033
   15CHTO  H153 6052   6.765   2.017   1.087
   15CHTO   N14 6053   6.797   1.816   1.093
   15CHTO  H141 6054   6.782   1.814   1.199
   15CHTO  H142 6055   6.762   1.724   1.051
   15CHTO   C79 6056   6.569   1.927   1.056
   15CHTO  H151 6057   6.552   1.928   1.163
   15CHTO   O52 6058   6.507   2.050   1.004
   15CHTO   C86 6059   6.539   2.080   0.864
   15CHTO  H158 6060   6.487   2.000   0.806
   15CHTO   C90 6061   6.471   2.213   0.824
   15CHTO   O60 6062   6.328   2.203   0.833
   15CHTO  H138 6063   6.290   2.284   0.806
   15CHTO   O50 6064   6.504   1.812   1.000
   15CHTO   C73 6065   6.386   1.731   1.019
   15CHTO  H145 6066   6.298   1.783   0.980
   15CHTO   C74 6067   6.364   1.699   1.170
   15CHTO  H146 6068   6.352   1.795   1.222
   15CHTO   O54 6069   6.237   1.630   1.182
   15CHTO  H133 6070   6.218   1.615   1.273
   15CHTO   C75 6071   6.486   1.617   1.226
   15CHTO  H147 6072   6.574   1.682   1.226
   15CHTO   N13 6073   6.472   1.574   1.367
   15CHTO  H139 6074   6.386   1.509   1.378
   15CHTO  H140 6075   6.560   1.520   1.399
   15CHTO   C76 6076   6.522   1.493   1.129
   15CHTO  H148 6077   6.449   1.413   1.146
   15CHTO   O49 6078   6.523   1.530   0.988
   15CHTO   C77 6079   6.404   1.596   0.942
   15CHTO  H149 6080   6.317   1.533   0.960
   15CHTO   C88 6081   6.414   1.615   0.790
   15CHTO   O58 6082   6.287   1.660   0.736
   15CHTO  H136 6083   6.295   1.670   0.643
   15CHTO   O51 6084   6.671   1.448   1.159
   15CHTO   C78 6085   6.721   1.326   1.076
   15CHTO  H150 6086   6.653   1.304   0.990
   15CHTO   C80 6087   6.726   1.201   1.167
   15CHTO  H152 6088   6.780   1.228   1.261
   15CHTO   O55 6089   6.590   1.167   1.202
   15CHTO  H134 6090   6.554   1.232   1.259
   15CHTO   C84 6091   6.800   1.080   1.097
   15CHTO  H156 6092   6.741   1.050   1.011
   15CHTO   N15 6093   6.814   0.961   1.187
   15CHTO  H143 6094   6.864   0.882   1.136
   15CHTO  H144 6095   6.717   0.927   1.217
   15CHTO   C87 6096   6.938   1.131   1.047
   15CHTO  H159 6097   6.997   1.164   1.133
   15CHTO   O53 6098   6.914   1.245   0.952
   15CHTO   C82 6099   6.859   1.360   1.018
   15CHTO  H154 6100   6.927   1.394   1.096
   15CHTO   C89 6101   6.849   1.475   0.915
   15CHTO   O59 6102   6.978   1.513   0.865
   15CHTO  H137 6103   7.026   1.556   0.932
   15CHTO   O45 6104   7.020   1.020   0.964
   15CHTO   C67 6105   7.162   1.044   0.971
   15CHTO  H124 6106   7.180   1.148   1.002
   15CHTO   C65 6107   7.228   0.949   1.077
   15CHTO  H122 6108   7.164   0.861   1.083
   15CHTO   O44 6109   7.223   1.019   1.202
   15CHTO  H102 6110   7.134   1.031   1.230
   15CHTO   C63 6111   7.368   0.893   1.030
   15CHTO  H120 6112   7.351   0.816   0.955
   15CHTO   N11 6113   7.446   0.817   1.134
   15CHTO  H108 6114   7.449   0.713   1.110
   15CHTO  H109 6115   7.545   0.855   1.142
   15CHTO   C61 6116   7.447   1.008   0.957
   15CHTO  H118 6117   7.540   0.962   0.918
   15CHTO   O40 6118   7.375   1.061   0.841
   15CHTO   C68 6119   7.231   1.030   0.830
   15CHTO  H125 6120   7.220   0.926   0.793
   15CHTO   C72 6121   7.168   1.124   0.724
   15CHTO   O48 6122   7.174   1.263   0.759
   15CHTO  H105 6123   7.119   1.279   0.833
   15CHTO   O38 6124   7.479   1.117   1.046
   15CHTO   C55 6125   7.588   1.202   1.004
   15CHTO  H112 6126   7.604   1.194   0.896
   15CHTO   C56 6127   7.719   1.167   1.087
   15CHTO  H113 6128   7.692   1.168   1.193
   15CHTO   O42 6129   7.759   1.032   1.056
   15CHTO  H100 6130   7.832   1.007   1.109
   15CHTO   C57 6131   7.834   1.272   1.057
   15CHTO  H114 6132   7.865   1.257   0.954
   15CHTO   N10 6133   7.954   1.251   1.143
   15CHTO  H106 6134   8.043   1.285   1.091
   15CHTO  H107 6135   7.945   1.305   1.236
   15CHTO   C58 6136   7.780   1.416   1.072
   15CHTO  H115 6137   7.753   1.434   1.179
   15CHTO   O37 6138   7.662   1.434   0.992
   15CHTO   C59 6139   7.551   1.352   1.029
   15CHTO  H116 6140   7.525   1.369   1.133
   15CHTO   C70 6141   7.431   1.391   0.942
   15CHTO   O46 6142   7.390   1.527   0.960
   15CHTO  H103 6143   7.456   1.585   0.927
   15CHTO   O39 6144   7.900   1.531   1.024
   15CHTO   C60 6145   7.877   1.598   0.899
   15CHTO  H117 6146   7.830   1.527   0.830
   15CHTO   C62 6147   7.782   1.720   0.918
   15CHTO  H119 6148   7.689   1.682   0.965
   15CHTO   O43 6149   7.843   1.813   1.010
   15CHTO  H101 6150   7.923   1.848   0.974
   15CHTO   C66 6151   7.748   1.785   0.775
   15CHTO  H123 6152   7.704   1.708   0.712
   15CHTO   N12 6153   7.647   1.894   0.785
   15CHTO  H110 6154   7.559   1.869   0.727
   15CHTO  H111 6155   7.622   1.915   0.888
   15CHTO   C69 6156   7.879   1.831   0.706
   15CHTO  H126 6157   7.926   1.913   0.766
   15CHTO   O41 6158   7.979   1.709   0.696
   15CHTO   C64 6159   8.010   1.644   0.833
   15CHTO  H121 6160   8.059   1.719   0.900
   15CHTO   C71 6161   8.108   1.527   0.814
   15CHTO   O47 6162   8.233   1.571   0.760
   15CHTO  H104 6163   8.221   1.598   0.671
   15CHTO   O34 6164   7.851   1.887   0.564
   15CHTO   C49 6165   7.868   1.963   0.436
   15CHTO   H91 6166   7.921   1.899   0.366
   15CHTO   C47 6167   7.950   2.091   0.465
   15CHTO   H89 6168   7.968   2.140   0.366
   15CHTO   O33 6169   8.077   2.052   0.520
   15CHTO   H70 6170   8.131   2.127   0.533
   15CHTO   C45 6171   7.865   2.188   0.561
   15CHTO   H87 6172   7.844   2.133   0.654
   15CHTO    N8 6173   7.942   2.310   0.597
   15CHTO   H75 6174   7.956   2.371   0.509
   15CHTO   H76 6175   7.889   2.366   0.672
   15CHTO   C43 6176   7.719   2.220   0.498
   15CHTO   H85 6177   7.663   2.267   0.579
   15CHTO   O29 6178   7.655   2.099   0.452
   15CHTO   C50 6179   7.730   2.002   0.377
   15CHTO   H92 6180   7.670   1.910   0.375
   15CHTO   C54 6181   7.741   2.040   0.226
   15CHTO   O36 6182   7.612   2.046   0.164
   15CHTO   H72 6183   7.576   1.960   0.157
   15CHTO   O27 6184   7.722   2.317   0.392
   15CHTO   C37 6185   7.626   2.382   0.307
   15CHTO   H79 6186   7.583   2.310   0.236
   15CHTO   C38 6187   7.506   2.443   0.388
   15CHTO   H80 6188   7.548   2.509   0.466
   15CHTO   O31 6189   7.436   2.335   0.453
   15CHTO   H68 6190   7.399   2.276   0.389
   15CHTO   C39 6191   7.408   2.526   0.296
   15CHTO   H81 6192   7.358   2.453   0.232
   15CHTO    N7 6193   7.300   2.598   0.372
   15CHTO   H73 6194   7.309   2.705   0.360
   15CHTO   H74 6195   7.303   2.572   0.477
   15CHTO   C40 6196   7.487   2.624   0.199
   15CHTO   H82 6197   7.520   2.713   0.253
   15CHTO   O26 6198   7.597   2.556   0.136
   15CHTO   C41 6199   7.694   2.496   0.227
   15CHTO   H83 6200   7.732   2.572   0.297
   15CHTO   C52 6201   7.814   2.444   0.144
   15CHTO   O35 6202   7.885   2.554   0.076
   15CHTO   H71 6203   7.958   2.519   0.029
   15CHTO   O28 6204   7.404   2.662   0.088
   15CHTO   C42 6205   7.418   2.787   0.012
   15CHTO   H84 6206   7.367   2.765   2.746
   15CHTO   C44 6207   7.562   2.834   2.800
   15CHTO   H86 6208   7.618   2.854   0.064
   15CHTO   O32 6209   7.625   2.724   2.732
   15CHTO   H69 6210   7.581   2.705   2.651
   15CHTO   C48 6211   7.561   2.965   2.711
   15CHTO   H90 6212   7.521   2.938   2.614
   15CHTO    N9 6213   7.700   3.017   2.685
   15CHTO   H77 6214   7.695   3.104   2.621
   15CHTO   H78 6215   7.749   3.040   2.778
   15CHTO   C51 6216   7.467   3.077   2.772
   15CHTO   H93 6217   7.516   3.119   0.032
   15CHTO   O30 6218   7.339   3.022   2.804
   15CHTO   C46 6219   7.343   2.907   0.077
   15CHTO   H88 6220   7.396   2.939   0.166
   15CHTO   C53 6221   7.197   2.870   0.112
   15CHTO   O72 6222   7.132   2.977   0.181
   15CHTO  H199 6223   7.120   3.050   0.123
   15CHTO   O22 6224   7.442   3.180   2.674
   15CHTO   C31 6225   7.382   3.313   2.700
   15CHTO   H59 6226   7.384   3.366   2.603
   15CHTO   C29 6227   7.234   3.309   2.747
   15CHTO   H57 6228   7.229   3.251   0.012
   15CHTO   O21 6229   7.158   3.236   2.648
   15CHTO   H37 6230   7.155   3.284   2.567
   15CHTO   C27 6231   7.177   3.454   2.775
   15CHTO   H55 6232   7.179   3.512   2.681
   15CHTO    N5 6233   7.037   3.454   2.826
   15CHTO   H43 6234   7.001   3.353   0.012
   15CHTO   H44 6235   7.028   3.510   0.089
   15CHTO   C25 6236   7.275   3.526   0.046
   15CHTO   H53 6237   7.279   3.466   0.139
   15CHTO   O17 6238   7.408   3.530   2.815
   15CHTO   C32 6239   7.468   3.400   2.797
   15CHTO   H60 6240   7.475   3.350   0.066
   15CHTO   C36 6241   7.611   3.420   2.741
   15CHTO   O25 6242   7.694   3.490   0.006
   15CHTO   H40 6243   7.780   3.500   2.797
   15CHTO   O15 6244   7.230   3.678   0.086
   15CHTO   C19 6245   7.263   3.791   0.173
   15CHTO   H47 6246   7.334   3.850   0.113
   15CHTO   C20 6247   7.141   3.881   0.209
   15CHTO   H48 6248   7.061   3.823   0.258
   15CHTO   O19 6249   7.088   3.931   0.085
   15CHTO   H35 6250   7.047   3.862   0.036
   15CHTO   C21 6251   7.181   4.001   0.305
   15CHTO   H49 6252   7.248   4.067   0.252
   15CHTO    N4 6253   7.065   4.084   0.348
   15CHTO   H41 6254   6.973   4.048   0.305
   15CHTO   H42 6255   7.055   4.086   0.456
   15CHTO   C22 6256   7.261   3.944   0.426
   15CHTO   H50 6257   7.194   3.881   0.485
   15CHTO   O14 6258   7.373   3.867   0.380
   15CHTO   C23 6259   7.338   3.751   0.304
   15CHTO   H51 6260   7.278   3.686   0.368
   15CHTO   C34 6261   7.469   3.676   0.276
   15CHTO   O23 6262   7.559   3.750   0.191
   15CHTO   H38 6263   7.591   3.825   0.237
   15CHTO   O16 6264   7.320   4.048   0.507
   15CHTO   C24 6265   7.330   4.008   0.664
   15CHTO   H52 6266   7.297   3.905   0.682
   15CHTO   C26 6267   7.240   4.104   0.744
   15CHTO   H54 6268   7.138   4.104   0.700
   15CHTO   O20 6269   7.228   4.054   0.878
   15CHTO   H36 6270   7.163   4.102   0.926
   15CHTO   C30 6271   7.296   4.250   0.751
   15CHTO   H58 6272   7.263   4.296   0.846
   15CHTO    N6 6273   7.241   4.340   0.646
   15CHTO   H45 6274   7.265   4.301   0.548
   15CHTO   H46 6275   7.134   4.347   0.656
   15CHTO   C33 6276   7.452   4.253   0.754
   15CHTO   H61 6277   7.494   4.272   0.654
   15CHTO   O18 6278   7.503   4.126   0.801
   15CHTO   C28 6279   7.480   4.017   0.709
   15CHTO   H56 6280   7.543   4.030   0.621
   15CHTO   C35 6281   7.524   3.886   0.779
   15CHTO   O24 6282   7.663   3.885   0.813
   15CHTO   H39 6283   7.680   3.946   0.882
   15CHTO    O9 6284   7.496   4.362   0.837
   15CHTO   C13 6285   7.653   4.420   0.831
   15CHTO   H26 6286   7.644   4.527   0.804
   15CHTO   C11 6287   7.752   4.343   0.732
   15CHTO   H24 6288   7.708   4.349   0.631
   15CHTO    O8 6289   7.766   4.204   0.765
   15CHTO    H3 6290   7.683   4.160   0.757
   15CHTO    C9 6291   7.886   4.421   0.733
   15CHTO   H22 6292   7.860   4.525   0.708
   15CHTO    N2 6293   7.981   4.381   0.625
   15CHTO   H10 6294   8.078   4.358   0.666
   15CHTO   H11 6295   7.943   4.296   0.570
   15CHTO    C7 6296   7.948   4.418   0.878
   15CHTO   H20 6297   8.028   4.495   0.872
   15CHTO    O4 6298   7.854   4.459   0.980
   15CHTO   C14 6299   7.715   4.424   0.977
   15CHTO   H27 6300   7.664   4.505   1.033
   15CHTO   C18 6301   7.695   4.295   1.060
   15CHTO   O13 6302   7.557   4.267   1.089
   15CHTO    H7 6303   7.512   4.244   1.010
   15CHTO    O2 6304   8.016   4.270   0.919
   15CHTO    C1 6305   8.078   4.268   1.049
   15CHTO   H14 6306   8.013   4.322   1.122
   15CHTO    C2 6307   8.225   4.329   1.056
   15CHTO   H15 6308   8.287   4.269   0.987
   15CHTO    O6 6309   8.224   4.466   1.013
   15CHTO    H1 6310   8.202   4.471   0.922
   15CHTO    C3 6311   8.282   4.318   1.206
   15CHTO   H16 6312   8.224   4.388   1.269
   15CHTO    N1 6313   8.427   4.360   1.218
   15CHTO    H8 6314   8.436   4.444   1.285
   15CHTO    H9 6315   8.467   4.386   1.121
   15CHTO    C4 6316   8.258   4.175   1.267
   15CHTO   H17 6317   8.332   4.105   1.226
   15CHTO    O1 6318   8.125   4.126   1.241
   15CHTO    C5 6319   8.088   4.121   1.102
   15CHTO   H18 6320   8.165   4.069   1.045
   15CHTO   C16 6321   7.957   4.039   1.095
   15CHTO   O11 6322   7.922   4.005   0.961
   15CHTO    H5 6323   7.843   3.956   0.960
   15CHTO    O3 6324   8.269   4.179   1.411
   15CHTO    C6 6325   8.270   4.050   1.480
   15CHTO   H19 6326   8.237   3.968   1.417
   15CHTO    C8 6327   8.413   4.017   1.533
   15CHTO   H21 6328   8.448   4.102   1.592
   15CHTO    O7 6329   8.498   4.001   1.417
   15CHTO    H2 6330   8.471   3.926   1.367
   15CHTO   C12 6331   8.410   3.888   1.624
   15CHTO   H25 6332   8.383   3.803   1.558
   15CHTO    N3 6333   8.545   3.858   1.681
   15CHTO   H12 6334   8.579   3.940   1.743
   15CHTO   H13 6335   8.542   3.767   1.739
   15CHTO   C15 6336   8.298   3.903   1.734
   15CHTO   H28 6337   8.323   3.980   1.808
   15CHTO   O10 6338   8.267   3.771   1.807
   15CHTO    H4 6339   8.342   3.743   1.856
   15CHTO    O5 6340   8.171   3.933   1.673
   15CHTO   C10 6341   8.170   4.056   1.600
   15CHTO   H23 6342   8.199   4.136   1.668
   15CHTO   C17 6343   8.027   4.085   1.553
   15CHTO   O12 6344   7.938   4.110   1.663
   15CHTO    H6 6345   7.959   4.193   1.702
   16CHTO  H203 6346   6.176   4.190   0.256
   16CHTO   O82 6347   6.185   4.117   0.314
   16CHTO  C123 6348   6.297   4.138   0.402
   16CHTO  H227 6349   6.279   4.230   0.461
   16CHTO   O77 6350   6.291   4.021   0.489
   16CHTO  C118 6351   6.390   4.019   0.593
   16CHTO  H222 6352   6.384   4.111   0.654
   16CHTO  C125 6353   6.357   3.895   0.683
   16CHTO   O84 6354   6.429   3.896   0.807
   16CHTO  H205 6355   6.397   3.965   0.861
   16CHTO  C114 6356   6.530   4.010   0.527
   16CHTO  H218 6357   6.534   3.918   0.468
   16CHTO  C116 6358   6.553   4.130   0.430
   16CHTO  H220 6359   6.563   4.224   0.489
   16CHTO   O79 6360   6.680   4.111   0.364
   16CHTO  H201 6361   6.701   4.186   0.312
   16CHTO  C120 6362   6.435   4.142   0.326
   16CHTO  H224 6363   6.443   4.054   0.258
   16CHTO   N21 6364   6.448   4.264   0.241
   16CHTO  H211 6365   6.507   4.242   0.153
   16CHTO  H212 6366   6.351   4.301   0.212
   16CHTO   O75 6367   6.623   4.003   0.637
   16CHTO  C112 6368   6.769   3.933   0.603
   16CHTO  H216 6369   6.828   4.003   0.541
   16CHTO   O73 6370   6.746   3.809   0.535
   16CHTO  C113 6371   6.867   3.746   0.489
   16CHTO  H217 6372   6.921   3.819   0.425
   16CHTO  C124 6373   6.830   3.627   0.400
   16CHTO   O83 6374   6.754   3.527   0.468
   16CHTO  H204 6375   6.734   3.457   0.409
   16CHTO  C109 6376   6.957   3.706   0.609
   16CHTO  H213 6377   6.902   3.629   0.666
   16CHTO  C110 6378   6.982   3.830   0.701
   16CHTO  H214 6379   7.049   3.898   0.648
   16CHTO   O78 6380   7.052   3.784   0.819
   16CHTO  H200 6381   7.076   3.858   0.872
   16CHTO  C111 6382   6.849   3.903   0.736
   16CHTO  H215 6383   6.787   3.836   0.798
   16CHTO   N19 6384   6.869   4.028   0.815
   16CHTO  H207 6385   6.832   4.115   0.763
   16CHTO  H208 6386   6.972   4.042   0.842
   16CHTO   O74 6387   7.083   3.650   0.561
   16CHTO  C115 6388   7.120   3.511   0.628
   16CHTO  H219 6389   7.080   3.502   0.729
   16CHTO   O76 6390   7.055   3.391   0.549
   16CHTO  C122 6391   7.122   3.363   0.426
   16CHTO  H226 6392   7.119   3.453   0.365
   16CHTO  C126 6393   7.041   3.254   0.347
   16CHTO   O85 6394   6.908   3.296   0.312
   16CHTO  H206 6395   6.856   3.304   0.390
   16CHTO  C121 6396   7.271   3.316   0.450
   16CHTO  H225 6397   7.275   3.205   0.439
   16CHTO   O81 6398   7.355   3.372   0.349
   16CHTO  H202 6399   7.356   3.465   0.355
   16CHTO  C119 6400   7.323   3.354   0.592
   16CHTO  H223 6401   7.273   3.285   0.660
   16CHTO  C117 6402   7.279   3.499   0.633
   16CHTO  H221 6403   7.316   3.579   0.569
   16CHTO   N20 6404   7.328   3.534   0.770
   16CHTO  H209 6405   7.436   3.527   0.773
   16CHTO  H210 6406   7.298   3.634   0.797
   16CHTO   O80 6407   7.477   3.313   0.613
   16CHTO  C103 6408   7.516   3.162   0.617
   16CHTO  H190 6409   7.426   3.102   0.630
   16CHTO  C101 6410   7.597   3.105   0.495
   16CHTO  H188 6411   7.686   3.165   0.480
   16CHTO   O68 6412   7.510   3.113   0.366
   16CHTO  H168 6413   7.433   3.060   0.375
   16CHTO   C99 6414   7.642   2.953   0.525
   16CHTO  H186 6415   7.550   2.890   0.533
   16CHTO   N17 6416   7.728   2.892   0.418
   16CHTO  H174 6417   7.674   2.812   0.368
   16CHTO  H175 6418   7.761   2.967   0.347
   16CHTO   C97 6419   7.711   2.944   0.664
   16CHTO  H184 6420   7.810   2.991   0.657
   16CHTO   O64 6421   7.629   3.004   0.766
   16CHTO  C104 6422   7.602   3.144   0.747
   16CHTO  H191 6423   7.694   3.202   0.737
   16CHTO  C108 6424   7.531   3.198   0.872
   16CHTO   O71 6425   7.614   3.191   0.988
   16CHTO  H171 6426   7.685   3.252   0.981
   16CHTO   O62 6427   7.723   2.806   0.707
   16CHTO   C91 6428   7.826   2.778   0.804
   16CHTO  H178 6429   7.916   2.832   0.773
   16CHTO   C92 6430   7.862   2.626   0.793
   16CHTO  H179 6431   7.881   2.600   0.688
   16CHTO   O66 6432   7.988   2.603   0.859
   16CHTO  H166 6433   7.983   2.627   0.950
   16CHTO   C93 6434   7.754   2.531   0.860
   16CHTO  H180 6435   7.803   2.435   0.879
   16CHTO   N16 6436   7.642   2.500   0.768
   16CHTO  H172 6437   7.573   2.433   0.816
   16CHTO  H173 6438   7.592   2.591   0.738
   16CHTO   C94 6439   7.703   2.592   0.997
   16CHTO  H181 6440   7.603   2.634   0.989
   16CHTO   O61 6441   7.788   2.699   1.043
   16CHTO   C95 6442   7.789   2.814   0.955
   16CHTO  H182 6443   7.690   2.860   0.958
   16CHTO  C106 6444   7.888   2.919   1.015
   16CHTO   O69 6445   7.888   3.041   0.940
   16CHTO  H169 6446   7.926   3.026   0.855
   16CHTO   O63 6447   7.708   2.478   1.111
   16CHTO   C96 6448   7.563   2.428   1.167
   16CHTO  H183 6449   7.583   2.358   1.248
   16CHTO   C98 6450   7.477   2.354   1.061
   16CHTO  H185 6451   7.473   2.412   0.969
   16CHTO   O67 6452   7.548   2.233   1.028
   16CHTO  H167 6453   7.504   2.187   0.960
   16CHTO  C102 6454   7.328   2.324   1.113
   16CHTO  H189 6455   7.339   2.261   1.203
   16CHTO   N18 6456   7.242   2.248   1.019
   16CHTO  H176 6457   7.288   2.152   0.998
   16CHTO  H177 6458   7.145   2.232   1.063
   16CHTO  C105 6459   7.269   2.461   1.155
   16CHTO  H192 6460   7.273   2.530   1.070
   16CHTO   O65 6461   7.347   2.517   1.263
   16CHTO  C100 6462   7.483   2.551   1.230
   16CHTO  H187 6463   7.480   2.635   1.159
   16CHTO  C107 6464   7.548   2.601   1.361
   16CHTO   O70 6465   7.680   2.653   1.339
   16CHTO  H170 6466   7.716   2.682   1.420
   16CHTO   O57 6467   7.114   2.443   1.206
   16CHTO   C85 6468   7.008   2.499   1.126
   16CHTO  H157 6469   7.032   2.474   1.021
   16CHTO   C83 6470   7.010   2.655   1.134
   16CHTO  H155 6471   7.105   2.690   1.092
   16CHTO   O56 6472   7.010   2.697   1.272
   16CHTO  H135 6473   6.929   2.673   1.313
   16CHTO   C81 6474   6.894   2.713   1.048
   16CHTO  H153 6475   6.907   2.678   0.946
   16CHTO   N14 6476   6.896   2.861   1.039
   16CHTO  H141 6477   6.991   2.894   1.002
   16CHTO  H142 6478   6.819   2.895   0.972
   16CHTO   C79 6479   6.756   2.658   1.101
   16CHTO  H151 6480   6.679   2.694   1.032
   16CHTO   O52 6481   6.754   2.512   1.095
   16CHTO   C86 6482   6.864   2.448   1.167
   16CHTO  H158 6483   6.843   2.468   1.275
   16CHTO   C90 6484   6.855   2.295   1.149
   16CHTO   O60 6485   6.729   2.246   1.196
   16CHTO  H138 6486   6.725   2.153   1.185
   16CHTO   O50 6487   6.724   2.704   1.234
   16CHTO   C73 6488   6.613   2.701   1.324
   16CHTO  H145 6489   6.590   2.598   1.353
   16CHTO   C74 6490   6.487   2.763   1.257
   16CHTO  H146 6491   6.465   2.704   1.166
   16CHTO   O54 6492   6.374   2.744   1.345
   16CHTO  H133 6493   6.353   2.653   1.351
   16CHTO   C75 6494   6.514   2.915   1.223
   16CHTO  H147 6495   6.599   2.921   1.154
   16CHTO   N13 6496   6.402   2.982   1.151
   16CHTO  H139 6497   6.362   3.064   1.210
   16CHTO  H140 6498   6.322   2.913   1.130
   16CHTO   C76 6499   6.556   2.990   1.358
   16CHTO  H148 6500   6.470   2.992   1.424
   16CHTO   O49 6501   6.668   2.922   1.424
   16CHTO   C77 6502   6.649   2.783   1.452
   16CHTO  H149 6503   6.570   2.770   1.526
   16CHTO   C88 6504   6.778   2.733   1.519
   16CHTO   O58 6505   6.770   2.592   1.554
   16CHTO  H136 6506   6.770   2.540   1.476
   16CHTO   O51 6507   6.611   3.135   1.327
   16CHTO   C78 6508   6.594   3.233   1.449
   16CHTO  H150 6509   6.575   3.177   1.543
   16CHTO   C80 6510   6.475   3.328   1.422
   16CHTO  H152 6511   6.492   3.378   1.324
   16CHTO   O55 6512   6.357   3.246   1.412
   16CHTO  H134 6513   6.359   3.195   1.334
   16CHTO   C84 6514   6.462   3.437   1.535
   16CHTO  H156 6515   6.440   3.386   1.629
   16CHTO   N15 6516   6.348   3.533   1.511
   16CHTO  H143 6517   6.256   3.480   1.509
   16CHTO  H144 6518   6.362   3.583   1.417
   16CHTO   C87 6519   6.597   3.511   1.549
   16CHTO  H159 6520   6.620   3.567   1.458
   16CHTO   O53 6521   6.708   3.406   1.577
   16CHTO   C82 6522   6.725   3.312   1.469
   16CHTO  H154 6523   6.754   3.365   1.378
   16CHTO   C89 6524   6.844   3.221   1.509
   16CHTO   O59 6525   6.884   3.134   1.402
   16CHTO  H137 6526   6.955   3.080   1.431
   16CHTO   O45 6527   6.595   3.613   1.676
   16CHTO   C67 6528   6.716   3.689   1.691
   16CHTO  H124 6529   6.799   3.634   1.646
   16CHTO   C65 6530   6.705   3.829   1.620
   16CHTO  H122 6531   6.598   3.850   1.611
   16CHTO   O44 6532   6.759   3.812   1.487
   16CHTO  H102 6533   6.852   3.804   1.491
   16CHTO   C63 6534   6.762   3.947   1.708
   16CHTO  H120 6535   6.692   3.965   1.790
   16CHTO   N11 6536   6.765   4.082   1.641
   16CHTO  H108 6537   6.693   4.147   1.685
   16CHTO  H109 6538   6.862   4.126   1.649
   16CHTO   C61 6539   6.897   3.901   1.775
   16CHTO  H118 6540   6.926   3.982   1.844
   16CHTO   O40 6541   6.879   3.781   1.857
   16CHTO   C68 6542   6.755   3.705   1.844
   16CHTO  H125 6543   6.674   3.758   1.898
   16CHTO   C72 6544   6.777   3.569   1.915
   16CHTO   O48 6545   6.657   3.492   1.928
   16CHTO  H105 6546   6.677   3.411   1.971
   16CHTO   O38 6547   7.001   3.879   1.678
   16CHTO   C55 6548   7.132   3.844   1.728
   16CHTO  H112 6549   7.123   3.799   1.828
   16CHTO   C56 6550   7.229   3.969   1.728
   16CHTO  H113 6551   7.230   4.010   1.626
   16CHTO   O42 6552   7.174   4.072   1.813
   16CHTO  H100 6553   7.226   4.150   1.807
   16CHTO   C57 6554   7.374   3.927   1.774
   16CHTO  H114 6555   7.367   3.896   1.878
   16CHTO   N10 6556   7.474   4.036   1.767
   16CHTO  H106 6557   7.427   4.132   1.785
   16CHTO  H107 6558   7.552   4.020   1.841
   16CHTO   C58 6559   7.421   3.804   1.690
   16CHTO  H115 6560   7.438   3.836   1.585
   16CHTO   O37 6561   7.324   3.698   1.693
   16CHTO   C59 6562   7.195   3.733   1.639
   16CHTO  H116 6563   7.206   3.768   1.537
   16CHTO   C70 6564   7.107   3.608   1.639
   16CHTO   O46 6565   7.156   3.505   1.552
   16CHTO  H103 6566   7.237   3.470   1.586
   16CHTO   O39 6567   7.558   3.740   1.753
   16CHTO   C60 6568   7.630   3.656   1.662
   16CHTO  H117 6569   7.569   3.636   1.573
   16CHTO   C62 6570   7.763   3.723   1.614
   16CHTO  H119 6571   7.733   3.815   1.560
   16CHTO   O43 6572   7.841   3.762   1.729
   16CHTO  H101 6573   7.868   3.686   1.778
   16CHTO   C66 6574   7.841   3.624   1.513
   16CHTO  H123 6575   7.775   3.602   1.429
   16CHTO   N12 6576   7.962   3.687   1.456
   16CHTO  H110 6577   8.052   3.633   1.482
   16CHTO  H111 6578   7.953   3.696   1.348
   16CHTO   C69 6579   7.870   3.490   1.586
   16CHTO  H126 6580   7.934   3.508   1.674
   16CHTO   O41 6581   7.734   3.430   1.632
   16CHTO   C64 6582   7.660   3.518   1.728
   16CHTO  H121 6583   7.723   3.535   1.818
   16CHTO   C71 6584   7.532   3.445   1.776
   16CHTO   O47 6585   7.447   3.407   1.667
   16CHTO  H104 6586   7.371   3.364   1.700
   16CHTO   O34 6587   7.943   3.382   1.491
   16CHTO   C49 6588   7.929   3.336   1.345
   16CHTO   H91 6589   7.913   3.426   1.286
   16CHTO   C47 6590   7.807   3.243   1.331
   16CHTO   H89 6591   7.799   3.223   1.221
   16CHTO   O33 6592   7.687   3.310   1.374
   16CHTO   H70 6593   7.669   3.384   1.318
   16CHTO   C45 6594   7.830   3.104   1.412
   16CHTO   H87 6595   7.808   3.122   1.518
   16CHTO    N8 6596   7.733   3.004   1.361
   16CHTO   H75 6597   7.632   3.041   1.372
   16CHTO   H76 6598   7.743   2.911   1.416
   16CHTO   C43 6599   7.987   3.061   1.406
   16CHTO   H85 6600   8.030   3.101   1.498
   16CHTO   O29 6601   8.049   3.116   1.289
   16CHTO   C50 6602   8.056   3.260   1.293
   16CHTO   H92 6603   8.140   3.288   1.358
   16CHTO   C54 6604   8.102   3.313   1.155
   16CHTO   O36 6605   8.007   3.284   1.052
   16CHTO   H72 6606   8.039   3.315   0.969
   16CHTO   O27 6607   8.012   2.919   1.413
   16CHTO   C37 6608   8.047   2.787   1.459
   16CHTO   H79 6609   8.149   2.788   1.499
   16CHTO   C38 6610   7.953   2.742   1.575
   16CHTO   H80 6611   7.849   2.758   1.543
   16CHTO   O31 6612   7.981   2.827   1.687
   16CHTO   H68 6613   7.951   2.914   1.671
   16CHTO   C39 6614   7.974   2.590   1.613
   16CHTO   H81 6615   8.071   2.582   1.662
   16CHTO    N7 6616   7.872   2.541   1.712
   16CHTO   H73 6617   7.893   2.439   1.739
   16CHTO   H74 6618   7.773   2.549   1.670
   16CHTO   C40 6619   7.978   2.499   1.484
   16CHTO   H82 6620   7.877   2.490   1.442
   16CHTO   O26 6621   8.072   2.552   1.390
   16CHTO   C41 6622   8.040   2.686   1.342
   16CHTO   H83 6623   7.940   2.687   1.297
   16CHTO   C52 6624   8.142   2.722   1.231
   16CHTO   O35 6625   8.135   2.631   1.116
   16CHTO   H71 6626   8.052   2.642   1.072
   16CHTO   O28 6627   8.031   2.367   1.511
   16CHTO   C42 6628   7.990   2.248   1.435
   16CHTO   H84 6629   8.078   2.183   1.443
   16CHTO   C44 6630   7.965   2.268   1.281
   16CHTO   H86 6631   7.889   2.345   1.268
   16CHTO   O32 6632   8.089   2.315   1.225
   16CHTO   H69 6633   8.077   2.337   1.135
   16CHTO   C48 6634   7.914   2.136   1.209
   16CHTO   H90 6635   7.995   2.064   1.210
   16CHTO    N9 6636   7.882   2.160   1.064
   16CHTO   H77 6637   7.804   2.234   1.055
   16CHTO   H78 6638   7.853   2.067   1.017
   16CHTO   C51 6639   7.792   2.076   1.289
   16CHTO   H93 6640   7.709   2.146   1.286
   16CHTO   O30 6641   7.835   2.050   1.423
   16CHTO   C46 6642   7.872   2.172   1.503
   16CHTO   H88 6643   7.785   2.237   1.510
   16CHTO   C53 6644   7.909   2.116   1.643
   16CHTO   O72 6645   7.937   2.217   1.740
   16CHTO  H199 6646   8.017   2.261   1.718
   16CHTO   O22 6647   7.752   1.947   1.237
   16CHTO   C31 6648   7.643   1.866   1.294
   16CHTO   H59 6649   7.627   1.903   1.397
   16CHTO   C29 6650   7.508   1.878   1.220
   16CHTO   H57 6651   7.527   1.851   1.115
   16CHTO   O21 6652   7.469   2.017   1.221
   16CHTO   H37 6653   7.396   2.030   1.165
   16CHTO   C27 6654   7.396   1.783   1.280
   16CHTO   H55 6655   7.370   1.819   1.380
   16CHTO    N5 6656   7.273   1.781   1.197
   16CHTO   H43 6657   7.190   1.824   1.252
   16CHTO   H44 6658   7.287   1.833   1.103
   16CHTO   C25 6659   7.454   1.638   1.298
   16CHTO   H53 6660   7.476   1.595   1.199
   16CHTO   O17 6661   7.578   1.642   1.374
   16CHTO   C32 6662   7.682   1.716   1.309
   16CHTO   H60 6663   7.700   1.674   1.210
   16CHTO   C36 6664   7.812   1.697   1.392
   16CHTO   O25 6665   7.797   1.748   1.525
   16CHTO   H40 6666   7.878   1.738   1.572
   16CHTO   O15 6667   7.352   1.540   1.375
   16CHTO   C19 6668   7.268   1.518   1.492
   16CHTO   H47 6669   7.272   1.409   1.507
   16CHTO   C20 6670   7.321   1.586   1.623
   16CHTO   H48 6671   7.334   1.695   1.610
   16CHTO   O19 6672   7.451   1.530   1.651
   16CHTO   H35 6673   7.444   1.439   1.670
   16CHTO   C21 6674   7.221   1.563   1.745
   16CHTO   H49 6675   7.217   1.457   1.767
   16CHTO    N4 6676   7.264   1.632   1.869
   16CHTO   H41 6677   7.193   1.613   1.948
   16CHTO   H42 6678   7.361   1.597   1.900
   16CHTO   C22 6679   7.079   1.606   1.699
   16CHTO   H50 6680   7.083   1.712   1.673
   16CHTO   O14 6681   7.040   1.529   1.584
   16CHTO   C23 6682   7.119   1.553   1.467
   16CHTO   H51 6683   7.105   1.658   1.439
   16CHTO   C34 6684   7.059   1.470   1.351
   16CHTO   O23 6685   7.058   1.329   1.377
   16CHTO   H38 6686   7.146   1.296   1.380
   16CHTO   O16 6687   6.976   1.582   1.797
   16CHTO   C24 6688   6.849   1.680   1.777
   16CHTO   H52 6689   6.853   1.732   1.681
   16CHTO   C26 6690   6.847   1.784   1.891
   16CHTO   H54 6691   6.850   1.731   1.988
   16CHTO   O20 6692   6.966   1.865   1.881
   16CHTO   H36 6693   7.042   1.814   1.902
   16CHTO   C30 6694   6.718   1.872   1.886
   16CHTO   H58 6695   6.724   1.940   1.800
   16CHTO    N6 6696   6.706   1.960   2.005
   16CHTO   H45 6697   6.703   1.900   2.095
   16CHTO   H46 6698   6.790   2.027   2.011
   16CHTO   C33 6699   6.590   1.785   1.863
   16CHTO   H61 6700   6.565   1.731   1.956
   16CHTO   O18 6701   6.609   1.689   1.758
   16CHTO   C28 6702   6.719   1.598   1.778
   16CHTO   H56 6703   6.710   1.546   1.873
   16CHTO   C35 6704   6.721   1.494   1.663
   16CHTO   O24 6705   6.604   1.412   1.658
   16CHTO   H39 6706   6.602   1.355   1.733
   16CHTO    O9 6707   6.476   1.870   1.836
   16CHTO   C13 6708   6.335   1.822   1.901
   16CHTO   H26 6709   6.352   1.804   2.009
   16CHTO   C11 6710   6.282   1.691   1.827
   16CHTO   H24 6711   6.346   1.607   1.859
   16CHTO    O8 6712   6.298   1.706   1.684
   16CHTO    H3 6713   6.389   1.712   1.662
   16CHTO    C9 6714   6.136   1.665   1.870
   16CHTO   H22 6715   6.139   1.657   1.980
   16CHTO    N2 6716   6.087   1.532   1.826
   16CHTO   H10 6717   6.072   1.466   1.910
   16CHTO   H11 6718   5.995   1.541   1.769
   16CHTO    C7 6719   6.043   1.790   1.834
   16CHTO   H20 6720   5.985   1.806   1.927
   16CHTO    O4 6721   6.118   1.909   1.804
   16CHTO   C14 6722   6.226   1.939   1.894
   16CHTO   H27 6723   6.183   1.954   1.995
   16CHTO   C18 6724   6.285   2.076   1.850
   16CHTO   O13 6725   6.382   2.124   1.943
   16CHTO    H7 6726   6.415   2.207   1.914
   16CHTO    O2 6727   5.937   1.764   1.708
   16CHTO    C1 6728   5.799   1.796   1.736
   16CHTO   H14 6729   5.794   1.869   1.820
   16CHTO    C2 6730   5.714   1.668   1.775
   16CHTO   H15 6731   5.732   1.594   1.696
   16CHTO    O6 6732   5.761   1.617   1.901
   16CHTO    H1 6733   5.720   1.536   1.920
   16CHTO    C3 6734   5.557   1.703   1.783
   16CHTO   H16 6735   5.539   1.766   1.871
   16CHTO    N1 6736   5.473   1.579   1.799
   16CHTO    H8 6737   5.501   1.527   1.889
   16CHTO    H9 6738   5.369   1.605   1.803
   16CHTO    C4 6739   5.512   1.789   1.659
   16CHTO   H17 6740   5.510   1.726   1.570
   16CHTO    O1 6741   5.599   1.901   1.639
   16CHTO    C5 6742   5.735   1.866   1.613
   16CHTO   H18 6743   5.739   1.797   1.529
   16CHTO   C16 6744   5.811   1.995   1.574
   16CHTO   O11 6745   5.761   2.051   1.452
   16CHTO    H5 6746   5.783   1.996   1.380
   16CHTO    O3 6747   5.381   1.847   1.681
   16CHTO    C6 6748   5.304   1.879   1.561
   16CHTO   H19 6749   5.365   1.883   1.470
   16CHTO    C8 6750   5.193   1.771   1.539
   16CHTO   H21 6751   5.139   1.758   1.633
   16CHTO    O7 6752   5.258   1.647   1.504
   16CHTO    H2 6753   5.307   1.614   1.577
   16CHTO   C12 6754   5.090   1.815   1.427
   16CHTO   H25 6755   5.144   1.810   1.330
   16CHTO    N3 6756   4.975   1.719   1.418
   16CHTO   H12 6757   5.010   1.621   1.391
   16CHTO   H13 6758   4.922   1.715   1.513
   16CHTO   C15 6759   5.043   1.963   1.451
   16CHTO   H28 6760   4.979   1.970   1.539
   16CHTO   O10 6761   4.968   2.022   1.328
   16CHTO    H4 6762   5.021   2.016   1.251
   16CHTO    O5 6763   5.156   2.051   1.464
   16CHTO   C10 6764   5.239   2.019   1.577
   16CHTO   H23 6765   5.177   2.021   1.667
   16CHTO   C17 6766   5.343   2.132   1.594
   16CHTO   O12 6767   5.429   2.144   1.480
   16CHTO    H6 6768   5.486   2.070   1.474
   17CHTO  H203 6769   5.960   4.109   0.308
   17CHTO   O82 6770   5.898   4.157   0.256
   17CHTO  C123 6771   5.864   4.281   0.320
   17CHTO  H227 6772   5.837   4.260   0.425
   17CHTO   O77 6773   5.988   4.359   0.315
   17CHTO  C118 6774   5.980   4.486   0.382
   17CHTO  H222 6775   5.950   4.470   0.487
   17CHTO  C125 6776   6.124   4.549   0.380
   17CHTO   O84 6777   6.172   4.572   0.247
   17CHTO  H205 6778   6.257   4.611   0.250
   17CHTO  C114 6779   5.876   4.576   0.313
   17CHTO  H218 6780   5.909   4.595   0.211
   17CHTO  C116 6781   5.737   4.505   0.305
   17CHTO  H220 6782   5.692   4.501   0.407
   17CHTO   O79 6783   5.650   4.588   0.226
   17CHTO  H201 6784   5.563   4.553   0.225
   17CHTO  C120 6785   5.749   4.359   0.245
   17CHTO  H224 6786   5.776   4.370   0.138
   17CHTO   N21 6787   5.619   4.286   0.252
   17CHTO  H211 6788   5.562   4.306   0.162
   17CHTO  H212 6789   5.635   4.180   0.263
   17CHTO   O75 6790   5.873   4.698   0.390
   17CHTO  C112 6791   5.890   4.835   0.299
   17CHTO  H216 6792   5.860   4.814   0.195
   17CHTO   O73 6793   6.028   4.876   0.308
   17CHTO  C113 6794   6.061   4.993   0.232
   17CHTO  H217 6795   6.037   4.974   0.125
   17CHTO  C124 6796   6.212   5.017   0.242
   17CHTO   O83 6797   6.289   4.908   0.188
   17CHTO  H204 6798   6.380   4.926   0.199
   17CHTO  C109 6799   5.981   5.116   0.283
   17CHTO  H213 6800   6.013   5.133   0.387
   17CHTO  C110 6801   5.828   5.084   0.279
   17CHTO  H214 6802   5.796   5.075   0.175
   17CHTO   O78 6803   5.757   5.195   0.336
   17CHTO  H200 6804   5.780   5.208   0.426
   17CHTO  C111 6805   5.798   4.951   0.355
   17CHTO  H215 6806   5.824   4.966   0.461
   17CHTO   N19 6807   5.655   4.911   0.352
   17CHTO  H207 6808   5.641   4.820   0.408
   17CHTO  H208 6809   5.624   4.896   0.250
   17CHTO   O74 6810   6.011   5.234   0.203
   17CHTO  C115 6811   6.041   5.365   0.293
   17CHTO  H219 6812   6.007   5.352   0.396
   17CHTO   O76 6813   6.196   5.393   0.306
   17CHTO  C122 6814   6.255   5.437   0.183
   17CHTO  H226 6815   6.244   5.357   0.110
   17CHTO  C126 6816   6.409   5.455   0.205
   17CHTO   O85 6817   6.475   5.333   0.240
   17CHTO  H206 6818   6.449   5.307   0.327
   17CHTO  C121 6819   6.189   5.571   0.129
   17CHTO  H225 6820   6.263   5.654   0.135
   17CHTO   O81 6821   6.155   5.555   2.818
   17CHTO  H202 6822   6.232   5.542   2.767
   17CHTO  C119 6823   6.063   5.611   0.211
   17CHTO  H223 6824   6.099   5.636   0.311
   17CHTO  C117 6825   5.965   5.488   0.227
   17CHTO  H221 6826   5.924   5.450   0.133
   17CHTO   N20 6827   5.844   5.527   0.308
   17CHTO  H209 6828   5.874   5.554   0.408
   17CHTO  H210 6829   5.774   5.445   0.310
   17CHTO   O80 6830   5.999   5.752   0.163
   17CHTO  C103 6831   6.010   5.878   0.258
   17CHTO  H190 6832   5.980   5.852   0.359
   17CHTO  C101 6833   6.153   5.946   0.263
   17CHTO  H188 6834   6.189   5.959   0.161
   17CHTO   O68 6835   6.251   5.850   0.338
   17CHTO  H168 6836   6.338   5.884   0.334
   17CHTO   C99 6837   6.147   6.090   0.333
   17CHTO  H186 6838   6.120   6.076   0.440
   17CHTO   N17 6839   6.278   6.163   0.331
   17CHTO  H174 6840   6.355   6.101   0.373
   17CHTO  H175 6841   6.269   6.256   0.385
   17CHTO   C97 6842   6.032   6.175   0.272
   17CHTO  H184 6843   6.057   6.198   0.168
   17CHTO   O64 6844   5.908   6.101   0.282
   17CHTO  C104 6845   5.904   5.982   0.203
   17CHTO  H191 6846   5.925   6.002   0.097
   17CHTO  C108 6847   5.760   5.928   0.209
   17CHTO   O71 6848   5.734   5.827   0.112
   17CHTO  H171 6849   5.645   5.799   0.118
   17CHTO   O62 6850   6.007   6.297   0.346
   17CHTO   C91 6851   5.930   6.398   0.278
   17CHTO  H178 6852   5.868   6.348   0.204
   17CHTO   C92 6853   6.026   6.494   0.198
   17CHTO  H179 6854   6.098   6.434   0.140
   17CHTO   O66 6855   5.946   6.562   0.100
   17CHTO  H166 6856   6.000   6.611   0.042
   17CHTO   C93 6857   6.096   6.602   0.288
   17CHTO  H180 6858   6.128   6.683   0.221
   17CHTO   N16 6859   6.222   6.555   0.351
   17CHTO  H172 6860   6.202   6.469   0.414
   17CHTO  H173 6861   6.294   6.529   0.275
   17CHTO   C94 6862   5.997   6.663   0.396
   17CHTO  H181 6863   6.019   6.627   0.497
   17CHTO   O61 6864   5.860   6.626   0.369
   17CHTO   C95 6865   5.835   6.484   0.374
   17CHTO  H182 6866   5.848   6.449   0.477
   17CHTO  C106 6867   5.684   6.458   0.338
   17CHTO   O69 6868   5.596   6.523   0.429
   17CHTO  H169 6869   5.507   6.505   0.405
   17CHTO   O63 6870   6.009   6.821   0.390
   17CHTO   C96 6871   5.974   6.895   0.526
   17CHTO  H183 6872   5.962   6.820   0.605
   17CHTO   C98 6873   5.844   6.980   0.521
   17CHTO  H185 6874   5.848   7.047   0.433
   17CHTO   O67 6875   5.734   6.891   0.497
   17CHTO  H167 6876   5.740   6.854   0.411
   17CHTO  C102 6877   5.819   7.065   0.655
   17CHTO  H189 6878   5.787   6.993   0.731
   17CHTO   N18 6879   5.709   7.165   0.646
   17CHTO  H176 6880   5.697   7.216   0.740
   17CHTO  H177 6881   5.617   7.115   0.620
   17CHTO  C105 6882   5.951   7.131   0.706
   17CHTO  H192 6883   5.971   7.222   0.648
   17CHTO   O65 6884   6.067   7.046   0.697
   17CHTO  C100 6885   6.092   6.990   0.567
   17CHTO  H187 6886   6.100   7.072   0.494
   17CHTO  C107 6887   6.228   6.916   0.571
   17CHTO   O70 6888   6.336   7.006   0.598
   17CHTO  H170 6889   6.417   6.959   0.600
   17CHTO   O57 6890   5.925   7.166   0.864
   17CHTO   C85 6891   5.975   7.284   0.929
   17CHTO  H157 6892   5.918   7.369   0.886
   17CHTO   C83 6893   6.125   7.312   0.893
   17CHTO  H155 6894   6.132   7.331   0.786
   17CHTO   O56 6895   6.204   7.194   0.918
   17CHTO  H135 6896   6.177   7.124   0.861
   17CHTO   C81 6897   6.174   7.438   0.970
   17CHTO  H153 6898   6.109   7.521   0.942
   17CHTO   N14 6899   6.309   7.483   0.930
   17CHTO  H141 6900   6.382   7.409   0.956
   17CHTO  H142 6901   6.313   7.501   0.825
   17CHTO   C79 6902   6.161   7.416   1.125
   17CHTO  H151 6903   6.187   7.510   1.174
   17CHTO   O52 6904   6.021   7.389   1.160
   17CHTO   C86 6905   5.962   7.277   1.086
   17CHTO  H158 6906   6.014   7.188   1.127
   17CHTO   C90 6907   5.813   7.261   1.127
   17CHTO   O60 6908   5.801   7.229   1.266
   17CHTO  H138 6909   5.711   7.219   1.288
   17CHTO   O50 6910   6.248   7.314   1.178
   17CHTO   C73 6911   6.330   7.279   1.291
   17CHTO  H145 6912   6.358   7.369   1.346
   17CHTO   C74 6913   6.459   7.206   1.243
   17CHTO  H146 6914   6.512   7.274   1.175
   17CHTO   O54 6915   6.546   7.188   1.357
   17CHTO  H133 6916   6.628   7.151   1.330
   17CHTO   C75 6917   6.420   7.070   1.172
   17CHTO  H147 6918   6.363   7.094   1.082
   17CHTO   N13 6919   6.536   6.992   1.123
   17CHTO  H139 6920   6.600   6.964   1.206
   17CHTO  H140 6921   6.502   6.902   1.074
   17CHTO   C76 6922   6.324   6.984   1.267
   17CHTO  H148 6923   6.383   6.948   1.352
   17CHTO   O49 6924   6.212   7.065   1.317
   17CHTO   C77 6925   6.251   7.184   1.386
   17CHTO  H149 6926   6.315   7.158   1.471
   17CHTO   C88 6927   6.126   7.249   1.447
   17CHTO   O58 6928   6.160   7.369   1.530
   17CHTO  H136 6929   6.210   7.342   1.605
   17CHTO   O51 6930   6.260   6.864   1.180
   17CHTO   C78 6931   6.135   6.792   1.241
   17CHTO  H150 6932   6.080   6.858   1.312
   17CHTO   C80 6933   6.177   6.664   1.315
   17CHTO  H152 6934   6.244   6.604   1.248
   17CHTO   O55 6935   6.254   6.703   1.431
   17CHTO  H134 6936   6.336   6.739   1.405
   17CHTO   C84 6937   6.051   6.576   1.355
   17CHTO  H156 6938   5.993   6.632   1.428
   17CHTO   N15 6939   6.089   6.446   1.419
   17CHTO  H143 6940   6.146   6.465   1.508
   17CHTO  H144 6941   6.001   6.391   1.445
   17CHTO   C87 6942   5.963   6.554   1.229
   17CHTO  H159 6943   6.018   6.497   1.154
   17CHTO   O53 6944   5.925   6.691   1.176
   17CHTO   C82 6945   6.039   6.761   1.125
   17CHTO  H154 6946   6.090   6.701   1.050
   17CHTO   C89 6947   5.993   6.891   1.055
   17CHTO   O59 6948   5.913   6.861   0.940
   17CHTO  H137 6949   5.886   6.941   0.899
   17CHTO   O45 6950   5.822   6.476   1.263
   17CHTO   C67 6951   5.753   6.408   1.156
   17CHTO  H124 6952   5.657   6.377   1.197
   17CHTO   C65 6953   5.725   6.498   1.029
   17CHTO  H122 6954   5.813   6.561   1.015
   17CHTO   O44 6955   5.614   6.581   1.066
   17CHTO  H102 6956   5.601   6.648   1.001
   17CHTO   C63 6957   5.716   6.416   0.894
   17CHTO  H120 6958   5.818   6.398   0.858
   17CHTO   N11 6959   5.657   6.488   0.777
   17CHTO  H108 6960   5.705   6.583   0.764
   17CHTO  H109 6961   5.552   6.503   0.793
   17CHTO   C61 6962   5.656   6.274   0.923
   17CHTO  H118 6963   5.660   6.219   0.827
   17CHTO   O40 6964   5.741   6.200   1.016
   17CHTO   C68 6965   5.824   6.275   1.111
   17CHTO  H125 6966   5.922   6.297   1.063
   17CHTO   C72 6967   5.853   6.181   1.230
   17CHTO   O48 6968   5.923   6.062   1.191
   17CHTO  H105 6969   5.866   6.008   1.139
   17CHTO   O38 6970   5.519   6.282   0.967
   17CHTO   C55 6971   5.460   6.179   1.049
   17CHTO  H112 6972   5.519   6.170   1.142
   17CHTO   C56 6973   5.446   6.040   0.973
   17CHTO  H113 6974   5.403   6.062   0.875
   17CHTO   O42 6975   5.575   5.983   0.948
   17CHTO  H100 6976   5.620   5.966   1.029
   17CHTO   C57 6977   5.353   5.938   1.052
   17CHTO  H114 6978   5.408   5.907   1.141
   17CHTO   N10 6979   5.323   5.816   0.973
   17CHTO  H106 6980   5.306   5.732   1.039
   17CHTO  H107 6981   5.235   5.831   0.912
   17CHTO   C58 6982   5.223   6.010   1.098
   17CHTO  H115 6983   5.163   6.038   1.008
   17CHTO   O37 6984   5.255   6.127   1.174
   17CHTO   C59 6985   5.319   6.229   1.095
   17CHTO  H116 6986   5.257   6.252   1.009
   17CHTO   C70 6987   5.332   6.356   1.179
   17CHTO   O46 6988   5.205   6.412   1.216
   17CHTO  H103 6989   5.161   6.356   1.276
   17CHTO   O39 6990   5.132   5.916   1.197
   17CHTO   C60 6991   4.996   5.962   1.207
   17CHTO  H117 6992   4.992   6.069   1.185
   17CHTO   C62 6993   4.904   5.890   1.104
   17CHTO  H119 6994   4.946   5.914   1.003
   17CHTO   O43 6995   4.912   5.748   1.125
   17CHTO  H101 6996   4.861   5.703   1.059
   17CHTO   C66 6997   4.755   5.949   1.115
   17CHTO  H123 6998   4.759   6.057   1.097
   17CHTO   N12 6999   4.666   5.893   1.011
   17CHTO  H110 7000   4.705   5.916   0.913
   17CHTO  H111 7001   4.566   5.933   1.023
   17CHTO   C69 7002   4.699   5.929   1.259
   17CHTO  H126 7003   4.691   5.820   1.281
   17CHTO   O41 7004   4.798   5.995   1.362
   17CHTO   C64 7005   4.941   5.943   1.351
   17CHTO  H121 7006   4.942   5.835   1.375
   17CHTO   C71 7007   5.029   6.015   1.456
   17CHTO   O47 7008   5.031   6.158   1.438
   17CHTO  H104 7009   4.947   6.194   1.457
   17CHTO   O34 7010   4.554   5.996   1.278
   17CHTO   C49 7011   4.508   6.147   1.273
   17CHTO   H91 7012   4.591   6.207   1.310
   17CHTO   C47 7013   4.384   6.164   1.364
   17CHTO   H89 7014   4.370   6.274   1.371
   17CHTO   O33 7015   4.410   6.114   1.497
   17CHTO   H70 7016   4.480   6.163   1.537
   17CHTO   C45 7017   4.253   6.090   1.304
   17CHTO   H87 7018   4.240   5.994   1.356
   17CHTO    N8 7019   4.134   6.175   1.334
   17CHTO   H75 7020   4.068   6.123   1.402
   17CHTO   H76 7021   4.080   6.199   1.243
   17CHTO   C43 7022   4.275   6.051   1.149
   17CHTO   H85 7023   4.339   5.962   1.152
   17CHTO   O29 7024   4.338   6.160   1.079
   17CHTO   C50 7025   4.469   6.194   1.128
   17CHTO   H92 7026   4.541   6.149   1.059
   17CHTO   C54 7027   4.492   6.346   1.107
   17CHTO   O36 7028   4.391   6.427   1.168
   17CHTO   H72 7029   4.309   6.414   1.124
   17CHTO   O27 7030   4.155   6.008   1.083
   17CHTO   C37 7031   4.102   5.881   1.042
   17CHTO   H79 7032   4.130   5.802   1.114
   17CHTO   C38 7033   3.946   5.887   1.039
   17CHTO   H80 7034   3.916   5.972   0.977
   17CHTO   O31 7035   3.900   5.910   1.173
   17CHTO   H68 7036   3.922   5.838   1.229
   17CHTO   C39 7037   3.883   5.754   0.979
   17CHTO   H81 7038   3.904   5.674   1.050
   17CHTO    N7 7039   3.733   5.760   0.965
   17CHTO   H73 7040   3.695   5.855   1.001
   17CHTO   H74 7041   3.703   5.746   0.862
   17CHTO   C40 7042   3.952   5.715   0.842
   17CHTO   H82 7043   3.918   5.783   0.764
   17CHTO   O26 7044   4.095   5.719   0.856
   17CHTO   C41 7045   4.155   5.843   0.901
   17CHTO   H83 7046   4.132   5.923   0.830
   17CHTO   C52 7047   4.308   5.820   0.898
   17CHTO   O35 7048   4.353   5.710   0.989
   17CHTO   H71 7049   4.447   5.702   0.985
   17CHTO   O28 7050   3.915   5.582   0.798
   17CHTO   C42 7051   3.998   5.461   0.812
   17CHTO   H84 7052   3.929   5.381   0.784
   17CHTO   C44 7053   4.045   5.428   0.959
   17CHTO   H86 7054   4.085   5.519   1.003
   17CHTO   O32 7055   3.926   5.393   1.033
   17CHTO   H69 7056   3.948   5.379   1.123
   17CHTO   C48 7057   4.157   5.316   0.967
   17CHTO   H90 7058   4.111   5.221   0.939
   17CHTO    N9 7059   4.209   5.297   1.107
   17CHTO   H77 7060   4.314   5.319   1.113
   17CHTO   H78 7061   4.154   5.357   1.178
   17CHTO   C51 7062   4.268   5.353   0.862
   17CHTO   H93 7063   4.299   5.456   0.884
   17CHTO   O30 7064   4.205   5.342   0.734
   17CHTO   C46 7065   4.116   5.458   0.708
   17CHTO   H88 7066   4.175   5.549   0.714
   17CHTO   C53 7067   4.064   5.442   0.563
   17CHTO   O72 7068   3.994   5.559   0.518
   17CHTO  H199 7069   3.914   5.568   0.566
   17CHTO   O22 7070   4.382   5.265   0.860
   17CHTO   C31 7071   4.510   5.308   0.797
   17CHTO   H59 7072   4.583   5.228   0.820
   17CHTO   C29 7073   4.503   5.320   0.643
   17CHTO   H57 7074   4.422   5.389   0.619
   17CHTO   O21 7075   4.463   5.191   0.591
   17CHTO   H37 7076   4.532   5.128   0.603
   17CHTO   C27 7077   4.638   5.374   0.579
   17CHTO   H55 7078   4.718   5.302   0.599
   17CHTO    N5 7079   4.628   5.394   0.432
   17CHTO   H43 7080   4.649   5.497   0.404
   17CHTO   H44 7081   4.532   5.364   0.394
   17CHTO   C25 7082   4.675   5.507   0.654
   17CHTO   H53 7083   4.592   5.579   0.642
   17CHTO   O17 7084   4.692   5.478   0.796
   17CHTO   C32 7085   4.569   5.439   0.860
   17CHTO   H60 7086   4.497   5.520   0.848
   17CHTO   C36 7087   4.598   5.421   1.011
   17CHTO   O25 7088   4.636   5.544   1.073
   17CHTO   H40 7089   4.563   5.603   1.075
   17CHTO   O15 7090   4.809   5.574   0.600
   17CHTO   C19 7091   4.846   5.714   0.593
   17CHTO   H47 7092   4.916   5.718   0.508
   17CHTO   C20 7093   4.727   5.811   0.563
   17CHTO   H48 7094   4.650   5.806   0.641
   17CHTO   O19 7095   4.667   5.768   0.439
   17CHTO   H35 7096   4.624   5.685   0.451
   17CHTO   C21 7097   4.775   5.961   0.551
   17CHTO   H49 7098   4.833   5.972   0.459
   17CHTO    N4 7099   4.661   6.056   0.539
   17CHTO   H41 7100   4.698   6.157   0.528
   17CHTO   H42 7101   4.599   6.051   0.627
   17CHTO   C22 7102   4.870   5.997   0.669
   17CHTO   H50 7103   4.811   6.004   0.760
   17CHTO   O14 7104   4.974   5.899   0.685
   17CHTO   C23 7105   4.925   5.768   0.716
   17CHTO   H51 7106   4.861   5.775   0.806
   17CHTO   C34 7107   5.046   5.681   0.751
   17CHTO   O23 7108   5.008   5.556   0.810
   17CHTO   H38 7109   4.966   5.502   0.746
   17CHTO   O16 7110   4.937   6.122   0.641
   17CHTO   C24 7111   5.003   6.199   0.766
   17CHTO   H52 7112   5.044   6.130   0.840
   17CHTO   C26 7113   4.897   6.290   0.834
   17CHTO   H54 7114   4.847   6.350   0.755
   17CHTO   O20 7115   4.798   6.206   0.896
   17CHTO   H36 7116   4.748   6.161   0.831
   17CHTO   C30 7117   4.964   6.388   0.935
   17CHTO   H58 7118   5.012   6.332   1.017
   17CHTO    N6 7119   4.863   6.477   0.999
   17CHTO   H45 7120   4.884   6.581   0.979
   17CHTO   H46 7121   4.862   6.462   1.106
   17CHTO   C33 7122   5.077   6.466   0.861
   17CHTO   H61 7123   5.033   6.520   0.776
   17CHTO   O18 7124   5.172   6.371   0.812
   17CHTO   C28 7125   5.121   6.283   0.711
   17CHTO   H56 7126   5.087   6.340   0.624
   17CHTO   C35 7127   5.235   6.188   0.665
   17CHTO   O24 7128   5.348   6.258   0.612
   17CHTO   H39 7129   5.391   6.306   0.680
   17CHTO    O9 7130   5.141   6.567   0.942
   17CHTO   C13 7131   5.216   6.680   0.853
   17CHTO   H26 7132   5.249   6.632   0.758
   17CHTO   C11 7133   5.338   6.739   0.934
   17CHTO   H24 7134   5.412   6.657   0.943
   17CHTO    O8 7135   5.299   6.775   1.068
   17CHTO    H3 7136   5.236   6.845   1.065
   17CHTO    C9 7137   5.400   6.853   0.850
   17CHTO   H22 7138   5.421   6.809   0.751
   17CHTO    N2 7139   5.532   6.899   0.899
   17CHTO   H10 7140   5.575   6.969   0.829
   17CHTO   H11 7141   5.522   6.944   0.996
   17CHTO    C7 7142   5.294   6.968   0.832
   17CHTO   H20 7143   5.343   7.042   0.765
   17CHTO    O4 7144   5.175   6.919   0.766
   17CHTO   C14 7145   5.114   6.795   0.809
   17CHTO   H27 7146   5.059   6.757   0.720
   17CHTO   C18 7147   5.007   6.825   0.917
   17CHTO   O13 7148   4.898   6.899   0.861
   17CHTO    H7 7149   4.926   6.986   0.839
   17CHTO    O2 7150   5.251   7.040   0.977
   17CHTO    C1 7151   5.238   7.183   0.974
   17CHTO   H14 7152   5.192   7.213   0.877
   17CHTO    C2 7153   5.376   7.261   0.991
   17CHTO   H15 7154   5.427   7.215   1.076
   17CHTO    O6 7155   5.454   7.242   0.872
   17CHTO    H1 7156   5.540   7.279   0.883
   17CHTO    C3 7157   5.352   7.418   1.019
   17CHTO   H16 7158   5.310   7.465   0.929
   17CHTO    N1 7159   5.481   7.490   1.050
   17CHTO    H8 7160   5.548   7.483   0.965
   17CHTO    H9 7161   5.527   7.447   1.137
   17CHTO    C4 7162   5.245   7.436   1.132
   17CHTO   H17 7163   5.285   7.396   1.225
   17CHTO    O1 7164   5.125   7.368   1.094
   17CHTO    C5 7165   5.138   7.225   1.086
   17CHTO   H18 7166   5.174   7.187   1.181
   17CHTO   C16 7167   4.996   7.168   1.060
   17CHTO   O11 7168   4.908   7.197   1.169
   17CHTO    H5 7169   4.823   7.164   1.150
   17CHTO    O3 7170   5.203   7.573   1.149
   17CHTO    C6 7171   5.157   7.621   1.281
   17CHTO   H19 7172   5.091   7.707   1.268
   17CHTO    C8 7173   5.071   7.518   1.363
   17CHTO   H21 7174   5.127   7.425   1.371
   17CHTO    O7 7175   4.949   7.496   1.290
   17CHTO    H2 7176   4.967   7.449   1.210
   17CHTO   C12 7177   5.044   7.572   1.510
   17CHTO   H25 7178   4.979   7.662   1.498
   17CHTO    N3 7179   4.966   7.471   1.591
   17CHTO   H12 7180   4.873   7.514   1.624
   17CHTO   H13 7181   5.024   7.437   1.675
   17CHTO   C15 7182   5.179   7.615   1.575
   17CHTO   H28 7183   5.246   7.530   1.590
   17CHTO   O10 7184   5.162   7.690   1.707
   17CHTO    H4 7185   5.122   7.634   1.771
   17CHTO    O5 7186   5.244   7.715   1.495
   17CHTO   C10 7187   5.280   7.671   1.363
   17CHTO   H23 7188   5.353   7.591   1.372
   17CHTO   C17 7189   5.350   7.788   1.293
   17CHTO   O12 7190   5.269   7.906   1.284
   17CHTO    H6 7191   5.198   7.891   1.225
   18CHTO  H203 7192   6.577   7.709   2.057
   18CHTO   O82 7193   6.564   7.639   1.996
   18CHTO  C123 7194   6.581   7.688   1.862
   18CHTO  H227 7195   6.683   7.728   1.852
   18CHTO   O77 7196   6.568   7.566   1.783
   18CHTO  C118 7197   6.586   7.585   1.642
   18CHTO  H222 7198   6.684   7.632   1.624
   18CHTO  C125 7199   6.585   7.443   1.574
   18CHTO   O84 7200   6.464   7.370   1.602
   18CHTO  H205 7201   6.462   7.347   1.693
   18CHTO  C114 7202   6.474   7.678   1.588
   18CHTO  H218 7203   6.377   7.633   1.613
   18CHTO  C116 7204   6.477   7.815   1.663
   18CHTO  H220 7205   6.569   7.870   1.636
   18CHTO   O79 7206   6.366   7.895   1.617
   18CHTO  H201 7207   6.285   7.854   1.639
   18CHTO  C120 7208   6.472   7.794   1.820
   18CHTO  H224 7209   6.371   7.754   1.844
   18CHTO   N21 7210   6.487   7.923   1.893
   18CHTO  H211 7211   6.390   7.967   1.908
   18CHTO  H212 7212   6.535   7.907   1.989
   18CHTO   O75 7213   6.485   7.685   1.445
   18CHTO  C112 7214   6.628   7.743   1.373
   18CHTO  H216 7215   6.715   7.689   1.416
   18CHTO   O73 7216   6.636   7.884   1.397
   18CHTO  C113 7217   6.757   7.943   1.346
   18CHTO  H217 7218   6.844   7.888   1.387
   18CHTO  C124 7219   6.765   8.087   1.398
   18CHTO   O83 7220   6.892   8.149   1.376
   18CHTO  H204 7221   6.958   8.108   1.428
   18CHTO  C109 7222   6.758   7.934   1.191
   18CHTO  H213 7223   6.672   7.993   1.155
   18CHTO  C110 7224   6.743   7.785   1.146
   18CHTO  H214 7225   6.836   7.733   1.170
   18CHTO   O78 7226   6.726   7.780   1.004
   18CHTO  H200 7227   6.804   7.809   0.960
   18CHTO  C111 7228   6.623   7.716   1.218
   18CHTO  H215 7229   6.530   7.761   1.180
   18CHTO   N19 7230   6.614   7.570   1.191
   18CHTO  H207 7231   6.528   7.528   1.240
   18CHTO  H208 7232   6.704   7.520   1.226
   18CHTO   O74 7233   6.881   7.993   1.137
   18CHTO  C115 7234   6.860   8.060   0.989
   18CHTO  H219 7235   6.806   7.993   0.921
   18CHTO   O76 7236   6.774   8.190   0.995
   18CHTO  C122 7237   6.742   8.249   0.869
   18CHTO  H226 7238   6.701   8.348   0.890
   18CHTO  C126 7239   6.624   8.169   0.802
   18CHTO   O85 7240   6.576   8.230   0.682
   18CHTO  H206 7241   6.506   8.178   0.646
   18CHTO  C121 7242   6.867   8.265   0.772
   18CHTO  H225 7243   6.829   8.277   0.669
   18CHTO   O81 7244   6.933   8.388   0.804
   18CHTO  H202 7245   6.971   8.384   0.890
   18CHTO  C119 7246   6.967   8.145   0.775
   18CHTO  H223 7247   6.917   8.064   0.722
   18CHTO  C117 7248   6.997   8.094   0.921
   18CHTO  H221 7249   7.046   8.164   0.987
   18CHTO   N20 7250   7.087   7.973   0.919
   18CHTO  H209 7251   7.040   7.892   0.864
   18CHTO  H210 7252   7.109   7.942   1.020
   18CHTO   O80 7253   7.098   8.172   0.678
   18CHTO  C103 7254   7.117   8.088   0.541
   18CHTO  H190 7255   7.205   8.125   0.487
   18CHTO  C101 7256   7.134   7.931   0.557
   18CHTO  H188 7257   7.058   7.895   0.626
   18CHTO   O68 7258   7.276   7.903   0.619
   18CHTO  H168 7259   7.282   7.943   0.704
   18CHTO   C99 7260   7.114   7.856   0.417
   18CHTO  H186 7261   7.192   7.890   0.345
   18CHTO   N17 7262   7.124   7.706   0.427
   18CHTO  H174 7263   7.045   7.668   0.489
   18CHTO  H175 7264   7.120   7.663   0.328
   18CHTO   C97 7265   6.978   7.902   0.358
   18CHTO  H184 7266   6.901   7.878   0.433
   18CHTO   O64 7267   6.986   8.044   0.333
   18CHTO  C104 7268   6.990   8.123   0.452
   18CHTO  H191 7269   6.900   8.106   0.511
   18CHTO  C108 7270   6.989   8.272   0.414
   18CHTO   O71 7271   7.101   8.309   0.334
   18CHTO  H171 7272   7.096   8.400   0.312
   18CHTO   O62 7273   6.944   7.846   0.229
   18CHTO   C91 7274   6.802   7.834   0.207
   18CHTO  H178 7275   6.748   7.878   0.291
   18CHTO   C92 7276   6.757   7.685   0.200
   18CHTO  H179 7277   6.799   7.639   0.110
   18CHTO   O66 7278   6.812   7.612   0.311
   18CHTO  H166 7279   6.906   7.608   0.304
   18CHTO   C93 7280   6.599   7.674   0.201
   18CHTO  H180 7281   6.569   7.684   0.307
   18CHTO   N16 7282   6.550   7.540   0.162
   18CHTO  H172 7283   6.580   7.518   0.061
   18CHTO  H173 7284   6.442   7.536   0.171
   18CHTO   C94 7285   6.525   7.788   0.119
   18CHTO  H181 7286   6.492   7.754   0.021
   18CHTO   O61 7287   6.601   7.909   0.094
   18CHTO   C95 7288   6.743   7.898   0.077
   18CHTO  H182 7289   6.764   7.836   2.818
   18CHTO  C106 7290   6.802   8.040   0.045
   18CHTO   O69 7291   6.772   8.135   0.148
   18CHTO  H169 7292   6.809   8.218   0.126
   18CHTO   O63 7293   6.394   7.829   0.210
   18CHTO   C96 7294   6.326   7.965   0.170
   18CHTO  H183 7295   6.363   7.995   0.072
   18CHTO   C98 7296   6.352   8.083   0.269
   18CHTO  H185 7297   6.318   8.054   0.370
   18CHTO   O67 7298   6.494   8.102   0.279
   18CHTO  H167 7299   6.512   8.169   0.342
   18CHTO  C102 7300   6.278   8.217   0.219
   18CHTO  H189 7301   6.333   8.249   0.129
   18CHTO   N18 7302   6.285   8.331   0.314
   18CHTO  H176 7303   6.333   8.416   0.267
   18CHTO  H177 7304   6.339   8.304   0.403
   18CHTO  C105 7305   6.131   8.187   0.176
   18CHTO  H192 7306   6.068   8.182   0.265
   18CHTO   O65 7307   6.112   8.065   0.102
   18CHTO  C100 7308   6.171   7.947   0.160
   18CHTO  H187 7309   6.130   7.932   0.261
   18CHTO  C107 7310   6.134   7.823   0.075
   18CHTO   O70 7311   5.994   7.794   0.084
   18CHTO  H170 7312   5.944   7.861   0.043
   18CHTO   O57 7313   6.090   8.318   0.080
   18CHTO   C85 7314   5.960   8.349   0.029
   18CHTO  H157 7315   5.976   8.444   2.802
   18CHTO   C83 7316   5.859   8.386   0.143
   18CHTO  H155 7317   5.903   8.467   0.202
   18CHTO   O56 7318   5.841   8.275   0.233
   18CHTO  H135 7319   5.922   8.255   0.276
   18CHTO   C81 7320   5.727   8.436   0.078
   18CHTO  H153 7321   5.752   8.521   0.013
   18CHTO   N14 7322   5.632   8.492   0.177
   18CHTO  H141 7323   5.547   8.534   0.127
   18CHTO  H142 7324   5.680   8.569   0.234
   18CHTO   C79 7325   5.664   8.323   2.815
   18CHTO  H151 7326   5.581   8.368   2.761
   18CHTO   O52 7327   5.760   8.277   2.714
   18CHTO   C86 7328   5.892   8.239   2.766
   18CHTO  H158 7329   5.874   8.145   2.822
   18CHTO   C90 7330   5.984   8.200   2.647
   18CHTO   O60 7331   6.003   8.309   2.556
   18CHTO  H138 7332   6.060   8.283   2.487
   18CHTO   O50 7333   5.612   8.211   0.060
   18CHTO   C73 7334   5.522   8.099   0.057
   18CHTO  H145 7335   5.552   8.028   2.806
   18CHTO   C74 7336   5.375   8.144   0.030
   18CHTO  H146 7337   5.374   8.193   2.759
   18CHTO   O54 7338   5.292   8.027   0.018
   18CHTO  H133 7339   5.290   7.979   0.098
   18CHTO   C75 7340   5.330   8.243   0.144
   18CHTO  H147 7341   5.393   8.333   0.138
   18CHTO   N13 7342   5.192   8.294   0.132
   18CHTO  H139 7343   5.180   8.347   0.039
   18CHTO  H140 7344   5.122   8.211   0.133
   18CHTO   C76 7345   5.357   8.178   0.289
   18CHTO  H148 7346   5.279   8.105   0.309
   18CHTO   O49 7347   5.489   8.114   0.300
   18CHTO   C77 7348   5.528   8.026   0.194
   18CHTO  H149 7349   5.462   7.939   0.191
   18CHTO   C88 7350   5.669   7.973   0.225
   18CHTO   O58 7351   5.712   7.872   0.126
   18CHTO  H136 7352   5.661   7.794   0.137
   18CHTO   O51 7353   5.362   8.297   0.398
   18CHTO   C78 7354   5.369   8.249   0.546
   18CHTO  H150 7355   5.373   8.138   0.553
   18CHTO   C80 7356   5.244   8.298   0.622
   18CHTO  H152 7357   5.234   8.409   0.607
   18CHTO   O55 7358   5.130   8.235   0.562
   18CHTO  H134 7359   5.050   8.269   0.599
   18CHTO   C84 7360   5.254   8.268   0.778
   18CHTO  H156 7361   5.255   8.159   0.790
   18CHTO   N15 7362   5.137   8.321   0.856
   18CHTO  H143 7363   5.047   8.277   0.820
   18CHTO  H144 7364   5.149   8.296   0.959
   18CHTO   C87 7365   5.388   8.323   0.831
   18CHTO  H159 7366   5.390   8.432   0.823
   18CHTO   O53 7367   5.501   8.262   0.748
   18CHTO   C82 7368   5.496   8.305   0.612
   18CHTO  H154 7369   5.498   8.414   0.606
   18CHTO   C89 7370   5.624   8.255   0.541
   18CHTO   O59 7371   5.742   8.311   0.598
   18CHTO  H137 7372   5.747   8.403   0.577
   18CHTO   O45 7373   5.415   8.281   0.985
   18CHTO   C67 7374   5.545   8.320   1.034
   18CHTO  H124 7375   5.616   8.320   0.952
   18CHTO   C65 7376   5.541   8.464   1.096
   18CHTO  H122 7377   5.442   8.474   1.142
   18CHTO   O44 7378   5.550   8.554   0.985
   18CHTO  H102 7379   5.535   8.642   1.014
   18CHTO   C63 7380   5.642   8.482   1.217
   18CHTO  H120 7381   5.595   8.443   1.307
   18CHTO   N11 7382   5.671   8.623   1.258
   18CHTO  H108 7383   5.726   8.624   1.350
   18CHTO  H109 7384   5.727   8.673   1.182
   18CHTO   C61 7385   5.769   8.393   1.194
   18CHTO  H118 7386   5.829   8.402   1.287
   18CHTO   O40 7387   5.736   8.252   1.180
   18CHTO   C68 7388   5.601   8.215   1.137
   18CHTO  H125 7389   5.535   8.210   1.226
   18CHTO   C72 7390   5.610   8.072   1.079
   18CHTO   O48 7391   5.483   8.014   1.047
   18CHTO  H105 7392   5.444   8.060   0.975
   18CHTO   O38 7393   5.848   8.435   1.081
   18CHTO   C55 7394   5.983   8.384   1.083
   18CHTO  H112 7395   5.989   8.295   1.149
   18CHTO   C56 7396   6.085   8.496   1.127
   18CHTO  H113 7397   6.085   8.574   1.050
   18CHTO   O42 7398   6.041   8.559   1.248
   18CHTO  H100 7399   6.037   8.497   1.319
   18CHTO   C57 7400   6.228   8.432   1.142
   18CHTO  H114 7401   6.221   8.370   1.231
   18CHTO   N10 7402   6.337   8.529   1.170
   18CHTO  H106 7403   6.415   8.482   1.227
   18CHTO  H107 7404   6.378   8.568   1.078
   18CHTO   C58 7405   6.265   8.341   1.021
   18CHTO  H115 7406   6.317   8.401   0.943
   18CHTO   O37 7407   6.156   8.271   0.958
   18CHTO   C59 7408   6.029   8.335   0.944
   18CHTO  H116 7409   6.037   8.417   0.873
   18CHTO   C70 7410   5.930   8.232   0.887
   18CHTO   O46 7411   5.966   8.188   0.756
   18CHTO  H103 7412   6.044   8.137   0.759
   18CHTO   O39 7413   6.369   8.219   1.077
   18CHTO   C60 7414   6.299   8.115   1.149
   18CHTO  H117 7415   6.205   8.155   1.188
   18CHTO   C62 7416   6.264   7.995   1.058
   18CHTO  H119 7417   6.210   8.036   0.970
   18CHTO   O43 7418   6.383   7.930   1.008
   18CHTO  H101 7419   6.433   7.894   1.079
   18CHTO   C66 7420   6.166   7.899   1.140
   18CHTO  H123 7421   6.084   7.959   1.180
   18CHTO   N12 7422   6.102   7.797   1.054
   18CHTO  H110 7423   6.034   7.737   1.112
   18CHTO  H111 7424   6.177   7.736   1.007
   18CHTO   C69 7425   6.242   7.838   1.261
   18CHTO  H126 7426   6.317   7.764   1.224
   18CHTO   O41 7427   6.314   7.949   1.345
   18CHTO   C64 7428   6.382   8.067   1.271
   18CHTO  H121 7429   6.481   8.035   1.236
   18CHTO   C71 7430   6.403   8.181   1.374
   18CHTO   O47 7431   6.280   8.219   1.438
   18CHTO  H104 7432   6.297   8.288   1.498
   18CHTO   O34 7433   6.144   7.762   1.355
   18CHTO   C49 7434   6.058   7.785   1.485
   18CHTO   H91 7435   6.113   7.739   1.567
   18CHTO   C47 7436   5.923   7.712   1.465
   18CHTO   H89 7437   5.870   7.716   1.562
   18CHTO   O33 7438   5.950   7.574   1.434
   18CHTO   H70 7439   5.870   7.526   1.427
   18CHTO   C45 7440   5.839   7.790   1.352
   18CHTO   H87 7441   5.902   7.800   1.262
   18CHTO    N8 7442   5.715   7.719   1.312
   18CHTO   H75 7443   5.739   7.620   1.278
   18CHTO   H76 7444   5.648   7.713   1.397
   18CHTO   C43 7445   5.812   7.941   1.401
   18CHTO   H85 7446   5.761   7.991   1.318
   18CHTO   O29 7447   5.938   8.005   1.432
   18CHTO   C50 7448   6.032   7.936   1.516
   18CHTO   H92 7449   6.129   7.987   1.504
   18CHTO   C54 7450   6.001   7.958   1.667
   18CHTO   O36 7451   6.010   8.096   1.703
   18CHTO   H72 7452   6.100   8.124   1.699
   18CHTO   O27 7453   5.721   7.948   1.512
   18CHTO   C37 7454   5.647   8.035   1.599
   18CHTO   H79 7455   5.711   8.073   1.679
   18CHTO   C38 7456   5.593   8.159   1.520
   18CHTO   H80 7457   5.543   8.123   1.429
   18CHTO   O31 7458   5.707   8.238   1.481
   18CHTO   H68 7459   5.757   8.193   1.416
   18CHTO   C39 7460   5.493   8.247   1.605
   18CHTO   H81 7461   5.551   8.300   1.680
   18CHTO    N7 7462   5.422   8.351   1.522
   18CHTO   H73 7463   5.495   8.417   1.476
   18CHTO   H74 7464   5.355   8.409   1.584
   18CHTO   C40 7465   5.388   8.158   1.682
   18CHTO   H82 7466   5.311   8.121   1.614
   18CHTO   O26 7467   5.455   8.051   1.751
   18CHTO   C41 7468   5.526   7.960   1.662
   18CHTO   H83 7469   5.458   7.925   1.583
   18CHTO   C52 7470   5.567   7.839   1.748
   18CHTO   O35 7471   5.626   7.735   1.674
   18CHTO   H71 7472   5.648   7.664   1.732
   18CHTO   O28 7473   5.326   8.232   1.790
   18CHTO   C42 7474   5.189   8.203   1.834
   18CHTO   H84 7475   5.180   8.260   1.926
   18CHTO   C44 7476   5.159   8.054   1.873
   18CHTO   H86 7477   5.186   7.990   1.788
   18CHTO   O32 7478   5.245   8.020   1.983
   18CHTO   H69 7479   5.223   8.070   2.059
   18CHTO   C48 7480   5.005   8.028   1.905
   18CHTO   H90 7481   4.980   8.079   1.998
   18CHTO    N9 7482   4.979   7.882   1.929
   18CHTO   H77 7483   4.874   7.867   1.950
   18CHTO   H78 7484   5.039   7.847   2.012
   18CHTO   C51 7485   4.919   8.087   1.788
   18CHTO   H93 7486   4.953   8.039   1.696
   18CHTO   O30 7487   4.944   8.228   1.786
   18CHTO   C46 7488   5.082   8.259   1.735
   18CHTO   H88 7489   5.095   8.212   1.638
   18CHTO   C53 7490   5.093   8.412   1.721
   18CHTO   O72 7491   5.004   8.460   1.620
   18CHTO  H199 7492   5.034   8.433   1.535
   18CHTO   O22 7493   4.776   8.072   1.803
   18CHTO   C31 7494   4.687   8.081   1.684
   18CHTO   H59 7495   4.584   8.064   1.723
   18CHTO   C29 7496   4.685   8.220   1.615
   18CHTO   H57 7497   4.790   8.250   1.602
   18CHTO   O21 7498   4.629   8.315   1.707
   18CHTO   H37 7499   4.537   8.300   1.718
   18CHTO   C27 7500   4.615   8.222   1.473
   18CHTO   H55 7501   4.508   8.203   1.487
   18CHTO    N5 7502   4.631   8.352   1.402
   18CHTO   H43 7503   4.585   8.431   1.459
   18CHTO   H44 7504   4.736   8.373   1.387
   18CHTO   C25 7505   4.676   8.104   1.391
   18CHTO   H53 7506   4.786   8.116   1.391
   18CHTO   O17 7507   4.640   7.981   1.459
   18CHTO   C32 7508   4.713   7.964   1.582
   18CHTO   H60 7509   4.819   7.962   1.557
   18CHTO   C36 7510   4.678   7.825   1.640
   18CHTO   O25 7511   4.537   7.807   1.657
   18CHTO   H40 7512   4.520   7.722   1.694
   18CHTO   O15 7513   4.630   8.092   1.240
   18CHTO   C19 7514   4.675   8.019   1.121
   18CHTO   H47 7515   4.614   7.927   1.123
   18CHTO   C20 7516   4.646   8.097   0.989
   18CHTO   H48 7517   4.692   8.197   0.989
   18CHTO   O19 7518   4.503   8.115   0.981
   18CHTO   H35 7519   4.475   8.176   1.046
   18CHTO   C21 7520   4.699   8.020   0.860
   18CHTO   H49 7521   4.641   7.928   0.848
   18CHTO    N4 7522   4.683   8.098   0.735
   18CHTO   H41 7523   4.740   8.189   0.740
   18CHTO   H42 7524   4.717   8.040   0.650
   18CHTO   C22 7525   4.846   7.977   0.883
   18CHTO   H50 7526   4.911   8.065   0.889
   18CHTO   O14 7527   4.854   7.900   1.004
   18CHTO   C23 7528   4.825   7.973   1.124
   18CHTO   H51 7529   4.894   8.059   1.128
   18CHTO   C34 7530   4.862   7.880   1.240
   18CHTO   O23 7531   4.786   7.759   1.241
   18CHTO   H38 7532   4.811   7.707   1.315
   18CHTO   O16 7533   4.894   7.883   0.784
   18CHTO   C24 7534   5.039   7.914   0.714
   18CHTO   H52 7535   5.073   8.016   0.734
   18CHTO   C26 7536   5.020   7.895   0.562
   18CHTO   H54 7537   4.958   7.804   0.546
   18CHTO   O20 7538   4.942   8.006   0.513
   18CHTO   H36 7539   4.921   7.993   0.423
   18CHTO   C30 7540   5.154   7.878   0.483
   18CHTO   H58 7541   5.207   7.974   0.480
   18CHTO    N6 7542   5.129   7.839   0.341
   18CHTO   H45 7543   5.172   7.742   0.319
   18CHTO   H46 7544   5.171   7.913   0.274
   18CHTO   C33 7545   5.248   7.779   0.557
   18CHTO   H61 7546   5.203   7.679   0.562
   18CHTO   O18 7547   5.265   7.829   0.691
   18CHTO   C28 7548   5.147   7.818   0.772
   18CHTO   H56 7549   5.109   7.716   0.773
   18CHTO   C35 7550   5.194   7.859   0.913
   18CHTO   O24 7551   5.110   7.811   1.017
   18CHTO   H39 7552   5.117   7.717   1.023
   18CHTO    O9 7553   5.376   7.760   0.492
   18CHTO   C13 7554   5.488   7.680   0.585
   18CHTO   H26 7555   5.433   7.618   0.659
   18CHTO   C11 7556   5.580   7.789   0.655
   18CHTO   H24 7557   5.518   7.842   0.728
   18CHTO    O8 7558   5.624   7.886   0.558
   18CHTO    H3 7559   5.679   7.846   0.494
   18CHTO    C9 7560   5.694   7.716   0.730
   18CHTO   H22 7561   5.644   7.646   0.799
   18CHTO    N2 7562   5.773   7.805   0.819
   18CHTO   H10 7563   5.828   7.877   0.760
   18CHTO   H11 7564   5.841   7.747   0.879
   18CHTO    C7 7565   5.780   7.634   0.628
   18CHTO   H20 7566   5.855   7.581   0.691
   18CHTO    O4 7567   5.698   7.537   0.560
   18CHTO   C14 7568   5.573   7.575   0.498
   18CHTO   H27 7569   5.513   7.482   0.491
   18CHTO   C18 7570   5.603   7.620   0.353
   18CHTO   O13 7571   5.485   7.630   0.272
   18CHTO    H7 7572   5.431   7.699   0.303
   18CHTO    O2 7573   5.857   7.730   0.514
   18CHTO    C1 7574   5.991   7.694   0.475
   18CHTO   H14 7575   6.013   7.750   0.381
   18CHTO    C2 7576   6.016   7.540   0.449
   18CHTO   H15 7577   5.986   7.486   0.540
   18CHTO    O6 7578   5.933   7.499   0.339
   18CHTO    H1 7579   5.939   7.406   0.327
   18CHTO    C3 7580   6.172   7.512   0.418
   18CHTO   H16 7581   6.199   7.562   0.323
   18CHTO    N1 7582   6.203   7.366   0.403
   18CHTO    H8 7583   6.243   7.346   0.304
   18CHTO    H9 7584   6.115   7.305   0.420
   18CHTO    C4 7585   6.260   7.581   0.528
   18CHTO   H17 7586   6.243   7.530   0.624
   18CHTO    O1 7587   6.228   7.720   0.540
   18CHTO    C5 7588   6.093   7.748   0.580
   18CHTO   H18 7589   6.072   7.700   0.676
   18CHTO   C16 7590   6.081   7.902   0.598
   18CHTO   O11 7591   6.164   7.949   0.704
   18CHTO    H5 7592   6.131   7.919   0.786
   18CHTO    O3 7593   6.401   7.580   0.495
   18CHTO    C6 7594   6.491   7.579   0.611
   18CHTO   H19 7595   6.440   7.604   0.704
   18CHTO    C8 7596   6.554   7.437   0.628
   18CHTO   H21 7597   6.604   7.410   0.534
   18CHTO    O7 7598   6.447   7.345   0.654
   18CHTO    H2 7599   6.479   7.257   0.659
   18CHTO   C12 7600   6.662   7.439   0.744
   18CHTO   H25 7601   6.607   7.463   0.837
   18CHTO    N3 7602   6.725   7.304   0.765
   18CHTO   H12 7603   6.684   7.231   0.697
   18CHTO   H13 7604   6.832   7.309   0.755
   18CHTO   C15 7605   6.765   7.555   0.715
   18CHTO   H28 7606   6.824   7.534   0.626
   18CHTO   O10 7607   6.860   7.582   0.834
   18CHTO    H4 7608   6.927   7.643   0.808
   18CHTO    O5 7609   6.697   7.681   0.702
   18CHTO   C10 7610   6.604   7.684   0.592
   18CHTO   H23 7611   6.659   7.663   0.501
   18CHTO   C17 7612   6.550   7.828   0.578
   18CHTO   O12 7613   6.478   7.869   0.695
   18CHTO    H6 7614   6.448   7.957   0.683
   19CHTO  H203 7615   5.082   9.318   2.351
   19CHTO   O82 7616   5.150   9.268   2.309
   19CHTO  C123 7617   5.104   9.133   2.286
   19CHTO  H227 7618   5.013   9.137   2.223
   19CHTO   O77 7619   5.214   9.074   2.211
   19CHTO  C118 7620   5.191   8.939   2.168
   19CHTO  H222 7621   5.098   8.935   2.109
   19CHTO  C125 7622   5.311   8.896   2.078
   19CHTO   O84 7623   5.309   8.967   1.954
   19CHTO  H205 7624   5.382   8.941   1.902
   19CHTO  C114 7625   5.177   8.848   2.291
   19CHTO  H218 7626   5.270   8.850   2.347
   19CHTO  C116 7627   5.062   8.898   2.384
   19CHTO  H220 7628   4.964   8.881   2.333
   19CHTO   O79 7629   5.061   8.815   2.502
   19CHTO  H201 7630   4.987   8.837   2.556
   19CHTO  C120 7631   5.079   9.051   2.418
   19CHTO  H224 7632   5.168   9.059   2.484
   19CHTO   N21 7633   4.963   9.103   2.495
   19CHTO  H211 7634   4.994   9.185   2.559
   19CHTO  H212 7635   4.884   9.135   2.428
   19CHTO   O75 7636   5.153   8.716   2.237
   19CHTO  C112 7637   5.243   8.597   2.303
   19CHTO  H216 7638   5.243   8.608   2.413
   19CHTO   O73 7639   5.376   8.608   2.249
   19CHTO  C113 7640   5.468   8.508   2.294
   19CHTO  H217 7641   5.470   8.508   2.406
   19CHTO  C124 7642   5.608   8.548   2.245
   19CHTO   O83 7643   5.713   8.469   2.301
   19CHTO  H204 7644   5.795   8.497   2.268
   19CHTO  C109 7645   5.421   8.369   2.241
   19CHTO  H213 7646   5.418   8.377   2.132
   19CHTO  C110 7647   5.278   8.340   2.297
   19CHTO  H214 7648   5.285   8.327   2.405
   19CHTO   O78 7649   5.229   8.217   2.241
   19CHTO  H200 7650   5.280   8.144   2.273
   19CHTO  C111 7651   5.180   8.457   2.264
   19CHTO  H215 7652   5.163   8.459   2.155
   19CHTO   N19 7653   5.046   8.441   2.328
   19CHTO  H207 7654   4.968   8.443   2.253
   19CHTO  H208 7655   5.027   8.518   2.402
   19CHTO   O74 7656   5.515   8.264   2.279
   19CHTO  C115 7657   5.530   8.148   2.168
   19CHTO  H219 7658   5.434   8.104   2.141
   19CHTO   O76 7659   5.588   8.207   2.028
   19CHTO  C122 7660   5.731   8.214   2.026
   19CHTO  H226 7661   5.762   8.282   2.106
   19CHTO  C126 7662   5.778   8.282   1.892
   19CHTO   O85 7663   5.740   8.420   1.884
   19CHTO  H206 7664   5.771   8.456   1.803
   19CHTO  C121 7665   5.800   8.073   2.044
   19CHTO  H225 7666   5.830   8.034   1.944
   19CHTO   O81 7667   5.918   8.090   2.122
   19CHTO  H202 7668   5.969   8.011   2.123
   19CHTO  C119 7669   5.705   7.969   2.111
   19CHTO  H223 7670   5.632   7.941   2.034
   19CHTO  C117 7671   5.623   8.035   2.228
   19CHTO  H221 7672   5.683   8.084   2.305
   19CHTO   N20 7673   5.540   7.934   2.302
   19CHTO  H209 7674   5.603   7.857   2.343
   19CHTO  H210 7675   5.485   7.983   2.381
   19CHTO   O80 7676   5.778   7.825   2.138
   19CHTO  C103 7677   5.823   7.739   2.015
   19CHTO  H190 7678   5.789   7.786   1.923
   19CHTO  C101 7679   5.976   7.709   2.000
   19CHTO  H188 7680   6.012   7.657   2.089
   19CHTO   O68 7681   6.054   7.843   1.986
   19CHTO  H168 7682   6.044   7.894   2.065
   19CHTO   C99 7683   5.999   7.614   1.872
   19CHTO  H186 7684   5.966   7.668   1.781
   19CHTO   N17 7685   6.142   7.575   1.848
   19CHTO  H174 7686   6.203   7.664   1.838
   19CHTO  H175 7687   6.178   7.514   1.929
   19CHTO   C97 7688   5.907   7.488   1.881
   19CHTO  H184 7689   5.945   7.423   1.961
   19CHTO   O64 7690   5.770   7.528   1.905
   19CHTO  C104 7691   5.749   7.600   2.027
   19CHTO  H191 7692   5.788   7.546   2.113
   19CHTO  C108 7693   5.598   7.615   2.051
   19CHTO   O71 7694   5.535   7.488   2.070
   19CHTO  H171 7695   5.561   7.451   2.152
   19CHTO   O62 7696   5.907   7.416   1.756
   19CHTO   C91 7697   5.821   7.301   1.742
   19CHTO  H178 7698   5.746   7.302   1.821
   19CHTO   C92 7699   5.901   7.168   1.761
   19CHTO  H179 7700   5.988   7.170   1.694
   19CHTO   O66 7701   5.955   7.167   1.894
   19CHTO  H166 7702   6.011   7.093   1.906
   19CHTO   C93 7703   5.812   7.039   1.734
   19CHTO  H180 7704   5.742   7.031   1.818
   19CHTO   N16 7705   5.892   6.913   1.734
   19CHTO  H172 7706   5.854   6.845   1.808
   19CHTO  H173 7707   5.893   6.867   1.636
   19CHTO   C94 7708   5.729   7.056   1.601
   19CHTO  H181 7709   5.793   7.053   1.512
   19CHTO   O61 7710   5.660   7.181   1.599
   19CHTO   C95 7711   5.745   7.296   1.605
   19CHTO  H182 7712   5.818   7.290   1.523
   19CHTO  C106 7713   5.658   7.423   1.582
   19CHTO   O69 7714   5.600   7.423   1.451
   19CHTO  H169 7715   5.549   7.501   1.439
   19CHTO   O63 7716   5.616   6.947   1.591
   19CHTO   C96 7717   5.586   6.904   1.446
   19CHTO  H183 7718   5.681   6.870   1.404
   19CHTO   C98 7719   5.530   7.016   1.351
   19CHTO  H185 7720   5.594   7.105   1.356
   19CHTO   O67 7721   5.541   6.968   1.217
   19CHTO  H167 7722   5.488   6.891   1.204
   19CHTO  C102 7723   5.376   7.053   1.379
   19CHTO  H189 7724   5.334   7.079   1.280
   19CHTO   N18 7725   5.353   7.173   1.464
   19CHTO  H176 7726   5.396   7.260   1.417
   19CHTO  H177 7727   5.398   7.158   1.561
   19CHTO  C105 7728   5.299   6.929   1.432
   19CHTO  H192 7729   5.299   6.930   1.541
   19CHTO   O65 7730   5.359   6.805   1.390
   19CHTO  C100 7731   5.486   6.780   1.453
   19CHTO  H187 7732   5.466   6.757   1.559
   19CHTO  C107 7733   5.549   6.654   1.390
   19CHTO   O70 7734   5.470   6.538   1.417
   19CHTO  H170 7735   5.389   6.543   1.370
   19CHTO   O57 7736   5.152   6.943   1.377
   19CHTO   C85 7737   5.048   6.871   1.446
   19CHTO  H157 7738   5.081   6.859   1.551
   19CHTO   C83 7739   5.036   6.727   1.388
   19CHTO  H155 7740   5.132   6.676   1.404
   19CHTO   O56 7741   5.016   6.732   1.245
   19CHTO  H135 7742   5.091   6.770   1.203
   19CHTO   C81 7743   4.926   6.650   1.465
   19CHTO  H153 7744   4.952   6.650   1.571
   19CHTO   N14 7745   4.919   6.506   1.430
   19CHTO  H141 7746   5.015   6.460   1.444
   19CHTO  H142 7747   4.847   6.457   1.492
   19CHTO   C79 7748   4.787   6.724   1.450
   19CHTO  H151 7749   4.717   6.674   1.517
   19CHTO   O52 7750   4.797   6.862   1.498
   19CHTO   C86 7751   4.906   6.940   1.437
   19CHTO  H158 7752   4.876   6.954   1.332
   19CHTO   C90 7753   4.911   7.081   1.500
   19CHTO   O60 7754   4.791   7.155   1.471
   19CHTO  H138 7755   4.798   7.241   1.507
   19CHTO   O50 7756   4.732   6.723   1.317
   19CHTO   C73 7757   4.616   6.702   1.235
   19CHTO  H145 7758   4.606   6.596   1.210
   19CHTO   C74 7759   4.627   6.783   1.102
   19CHTO  H146 7760   4.720   6.751   1.052
   19CHTO   O54 7761   4.519   6.743   1.016
   19CHTO  H133 7762   4.526   6.786   0.933
   19CHTO   C75 7763   4.629   6.938   1.135
   19CHTO  H147 7764   4.724   6.961   1.187
   19CHTO   N13 7765   4.630   7.026   1.015
   19CHTO  H139 7766   4.716   7.004   0.954
   19CHTO  H140 7767   4.634   7.129   1.045
   19CHTO   C76 7768   4.510   6.978   1.236
   19CHTO  H148 7769   4.417   6.978   1.180
   19CHTO   O49 7770   4.499   6.885   1.349
   19CHTO   C77 7771   4.485   6.748   1.308
   19CHTO  H149 7772   4.401   6.738   1.239
   19CHTO   C88 7773   4.449   6.659   1.428
   19CHTO   O58 7774   4.316   6.697   1.484
   19CHTO  H136 7775   4.248   6.677   1.423
   19CHTO   O51 7776   4.541   7.117   1.307
   19CHTO   C78 7777   4.436   7.230   1.272
   19CHTO  H150 7778   4.375   7.202   1.183
   19CHTO   C80 7779   4.511   7.362   1.242
   19CHTO  H152 7780   4.573   7.388   1.331
   19CHTO   O55 7781   4.599   7.337   1.131
   19CHTO  H134 7782   4.652   7.413   1.115
   19CHTO   C84 7783   4.410   7.479   1.211
   19CHTO  H156 7784   4.363   7.457   1.115
   19CHTO   N15 7785   4.480   7.612   1.196
   19CHTO  H143 7786   4.551   7.607   1.116
   19CHTO  H144 7787   4.408   7.688   1.173
   19CHTO   C87 7788   4.299   7.487   1.318
   19CHTO  H159 7789   4.339   7.531   1.410
   19CHTO   O53 7790   4.240   7.346   1.349
   19CHTO   C82 7791   4.340   7.253   1.390
   19CHTO  H154 7792   4.395   7.292   1.476
   19CHTO   C89 7793   4.272   7.122   1.436
   19CHTO   O59 7794   4.196   7.142   1.556
   19CHTO  H137 7795   4.160   7.060   1.584
   19CHTO   O45 7796   4.176   7.578   1.264
   19CHTO   C67 7797   4.100   7.635   1.371
   19CHTO  H124 7798   4.120   7.579   1.462
   19CHTO   C65 7799   4.139   7.784   1.396
   19CHTO  H122 7800   4.164   7.825   1.298
   19CHTO   O44 7801   4.258   7.782   1.477
   19CHTO  H102 7802   4.236   7.758   1.565
   19CHTO   C63 7803   4.017   7.872   1.445
   19CHTO  H120 7804   3.956   7.898   1.359
   19CHTO   N11 7805   4.051   8.008   1.499
   19CHTO  H108 7806   4.104   7.998   1.591
   19CHTO  H109 7807   3.962   8.065   1.514
   19CHTO   C61 7808   3.925   7.785   1.538
   19CHTO  H118 7809   3.839   7.848   1.565
   19CHTO   O40 7810   3.871   7.670   1.465
   19CHTO   C68 7811   3.944   7.620   1.348
   19CHTO  H125 7812   3.913   7.679   1.259
   19CHTO   C72 7813   3.904   7.473   1.323
   19CHTO   O48 7814   3.765   7.458   1.292
   19CHTO  H105 7815   3.713   7.476   1.369
   19CHTO   O38 7816   3.994   7.744   1.659
   19CHTO   C55 7817   3.930   7.646   1.744
   19CHTO  H112 7818   3.875   7.573   1.683
   19CHTO   C56 7819   3.838   7.712   1.854
   19CHTO  H113 7820   3.902   7.775   1.918
   19CHTO   O42 7821   3.741   7.800   1.793
   19CHTO  H100 7822   3.784   7.872   1.751
   19CHTO   C57 7823   3.768   7.598   1.938
   19CHTO  H114 7824   3.700   7.548   1.870
   19CHTO   N10 7825   3.686   7.648   2.052
   19CHTO  H106 7826   3.585   7.667   2.019
   19CHTO  H107 7827   3.728   7.739   2.092
   19CHTO   C58 7828   3.872   7.494   1.990
   19CHTO  H115 7829   3.924   7.535   2.080
   19CHTO   O37 7830   3.972   7.457   1.893
   19CHTO   C59 7831   4.037   7.562   1.820
   19CHTO  H116 7832   4.093   7.625   1.890
   19CHTO   C70 7833   4.139   7.496   1.726
   19CHTO   O46 7834   4.081   7.400   1.637
   19CHTO  H103 7835   4.052   7.326   1.686
   19CHTO   O39 7836   3.791   7.350   2.030
   19CHTO   C60 7837   3.769   7.261   1.918
   19CHTO  H117 7838   3.772   7.318   1.825
   19CHTO   C62 7839   3.878   7.150   1.911
   19CHTO  H119 7840   3.976   7.203   1.900
   19CHTO   O43 7841   3.881   7.076   2.035
   19CHTO  H101 7842   3.911   7.132   2.105
   19CHTO   C66 7843   3.853   7.058   1.783
   19CHTO  H123 7844   3.854   7.121   1.694
   19CHTO   N12 7845   3.963   6.959   1.763
   19CHTO  H110 7846   3.945   6.901   1.673
   19CHTO  H111 7847   3.971   6.895   1.849
   19CHTO   C69 7848   3.713   6.991   1.792
   19CHTO  H126 7849   3.709   6.925   1.881
   19CHTO   O41 7850   3.604   7.103   1.807
   19CHTO   C64 7851   3.628   7.197   1.926
   19CHTO  H121 7852   3.620   7.140   2.020
   19CHTO   C71 7853   3.517   7.305   1.928
   19CHTO   O47 7854   3.391   7.246   1.959
   19CHTO  H104 7855   3.361   7.195   1.886
   19CHTO   O34 7856   3.679   6.903   1.665
   19CHTO   C49 7857   3.627   6.931   1.522
   19CHTO   H91 7858   3.518   6.937   1.529
   19CHTO   C47 7859   3.667   6.812   1.431
   19CHTO   H89 7860   3.623   6.832   1.331
   19CHTO   O33 7861   3.608   6.692   1.483
   19CHTO   H70 7862   3.626   6.620   1.427
   19CHTO   C45 7863   3.827   6.808   1.422
   19CHTO   H87 7864   3.867   6.806   1.524
   19CHTO    N8 7865   3.878   6.688   1.350
   19CHTO   H75 7866   3.986   6.685   1.355
   19CHTO   H76 7867   3.846   6.691   1.247
   19CHTO   C43 7868   3.880   6.947   1.359
   19CHTO   H85 7869   3.988   6.944   1.369
   19CHTO   O29 7870   3.823   7.061   1.427
   19CHTO   C50 7871   3.683   7.063   1.463
   19CHTO   H92 7872   3.672   7.141   1.540
   19CHTO   C54 7873   3.598   7.119   1.346
   19CHTO   O36 7874   3.460   7.136   1.382
   19CHTO   H72 7875   3.412   7.168   1.307
   19CHTO   O27 7876   3.853   6.955   1.217
   19CHTO   C37 7877   3.897   7.016   1.095
   19CHTO   H79 7878   3.887   6.945   1.012
   19CHTO   C38 7879   3.808   7.140   1.061
   19CHTO   H80 7880   3.800   7.202   1.151
   19CHTO   O31 7881   3.678   7.089   1.027
   19CHTO   H68 7882   3.618   7.160   1.015
   19CHTO   C39 7883   3.867   7.227   0.944
   19CHTO   H81 7884   3.857   7.168   0.852
   19CHTO    N7 7885   3.792   7.355   0.921
   19CHTO   H73 7886   3.855   7.442   0.939
   19CHTO   H74 7887   3.704   7.360   0.983
   19CHTO   C40 7888   4.021   7.253   0.965
   19CHTO   H82 7889   4.037   7.324   1.047
   19CHTO   O26 7890   4.091   7.130   0.988
   19CHTO   C41 7891   4.047   7.058   1.107
   19CHTO   H83 7892   4.060   7.122   1.195
   19CHTO   C52 7893   4.141   6.936   1.124
   19CHTO   O35 7894   4.144   6.849   1.009
   19CHTO   H71 7895   4.202   6.777   1.026
   19CHTO   O28 7896   4.082   7.302   0.845
   19CHTO   C42 7897   4.206   7.378   0.850
   19CHTO   H84 7898   4.250   7.356   0.948
   19CHTO   C44 7899   4.188   7.533   0.844
   19CHTO   H86 7900   4.130   7.558   0.755
   19CHTO   O32 7901   4.111   7.570   0.960
   19CHTO   H69 7902   4.089   7.662   0.957
   19CHTO   C48 7903   4.326   7.611   0.838
   19CHTO   H90 7904   4.374   7.602   0.935
   19CHTO    N9 7905   4.307   7.758   0.816
   19CHTO   H77 7906   4.251   7.801   0.897
   19CHTO   H78 7907   4.257   7.775   0.722
   19CHTO   C51 7908   4.422   7.544   0.732
   19CHTO   H93 7909   4.380   7.561   0.632
   19CHTO   O30 7910   4.432   7.404   0.763
   19CHTO   C46 7911   4.308   7.331   0.743
   19CHTO   H88 7912   4.269   7.353   0.644
   19CHTO   C53 7913   4.337   7.179   0.757
   19CHTO   O72 7914   4.426   7.133   0.654
   19CHTO  H199 7915   4.383   7.136   0.571
   19CHTO   O22 7916   4.556   7.597   0.740
   19CHTO   C31 7917   4.671   7.531   0.675
   19CHTO   H59 7918   4.650   7.422   0.678
   19CHTO   C29 7919   4.694   7.569   0.527
   19CHTO   H57 7920   4.715   7.677   0.523
   19CHTO   O21 7921   4.573   7.546   0.454
   19CHTO   H37 7922   4.580   7.580   0.367
   19CHTO   C27 7923   4.817   7.490   0.466
   19CHTO   H55 7924   4.789   7.384   0.458
   19CHTO    N5 7925   4.853   7.539   0.330
   19CHTO   H43 7926   4.932   7.477   0.288
   19CHTO   H44 7927   4.766   7.536   0.266
   19CHTO   C25 7928   4.941   7.496   0.564
   19CHTO   H53 7929   4.983   7.597   0.563
   19CHTO   O17 7930   4.904   7.463   0.701
   19CHTO   C32 7931   4.803   7.551   0.754
   19CHTO   H60 7932   4.836   7.654   0.743
   19CHTO   C36 7933   4.787   7.522   0.905
   19CHTO   O25 7934   4.905   7.558   0.977
   19CHTO   H40 7935   4.893   7.539   1.068
   19CHTO   O15 7936   5.051   7.399   0.522
   19CHTO   C19 7937   5.104   7.283   0.453
   19CHTO   H47 7938   5.050   7.281   0.358
   19CHTO   C20 7939   5.257   7.292   0.425
   19CHTO   H48 7940   5.316   7.290   0.518
   19CHTO   O19 7941   5.281   7.418   0.359
   19CHTO   H35 7942   5.266   7.489   0.419
   19CHTO   C21 7943   5.304   7.173   0.334
   19CHTO   H49 7944   5.261   7.187   0.234
   19CHTO    N4 7945   5.452   7.168   0.314
   19CHTO   H41 7946   5.476   7.178   0.209
   19CHTO   H42 7947   5.501   7.246   0.369
   19CHTO   C22 7948   5.250   7.036   0.385
   19CHTO   H50 7949   5.314   6.996   0.464
   19CHTO   O14 7950   5.113   7.041   0.431
   19CHTO   C23 7951   5.077   7.146   0.522
   19CHTO   H51 7952   5.138   7.133   0.613
   19CHTO   C34 7953   4.930   7.126   0.563
   19CHTO   O23 7954   4.841   7.125   0.451
   19CHTO   H38 7955   4.836   7.210   0.413
   19CHTO   O16 7956   5.236   6.946   0.274
   19CHTO   C24 7957   5.328   6.816   0.268
   19CHTO   H52 7958   5.412   6.822   0.338
   19CHTO   C26 7959   5.381   6.804   0.123
   19CHTO   H54 7960   5.298   6.831   0.054
   19CHTO   O20 7961   5.483   6.903   0.104
   19CHTO   H36 7962   5.509   6.906   0.014
   19CHTO   C30 7963   5.431   6.661   0.086
   19CHTO   H58 7964   5.527   6.640   0.136
   19CHTO    N6 7965   5.457   6.648   2.768
   19CHTO   H45 7966   5.533   6.718   2.738
   19CHTO   H46 7967   5.367   6.667   2.712
   19CHTO   C33 7968   5.330   6.555   0.137
   19CHTO   H61 7969   5.233   6.573   0.088
   19CHTO   O18 7970   5.314   6.574   0.278
   19CHTO   C28 7971   5.242   6.694   0.311
   19CHTO   H56 7972   5.147   6.697   0.258
   19CHTO   C35 7973   5.215   6.695   0.462
   19CHTO   O24 7974   5.131   6.586   0.503
   19CHTO   H39 7975   5.120   6.588   0.597
   19CHTO    O9 7976   5.364   6.418   0.106
   19CHTO   C13 7977   5.232   6.325   0.081
   19CHTO   H26 7978   5.176   6.369   2.823
   19CHTO   C11 7979   5.144   6.319   0.212
   19CHTO   H24 7980   5.105   6.420   0.231
   19CHTO    O8 7981   5.225   6.282   0.325
   19CHTO    H3 7982   5.175   6.287   0.404
   19CHTO    C9 7983   5.023   6.225   0.185
   19CHTO   H22 7984   4.972   6.267   0.097
   19CHTO    N2 7985   4.921   6.229   0.293
   19CHTO   H10 7986   4.889   6.331   0.310
   19CHTO   H11 7987   4.836   6.168   0.265
   19CHTO    C7 7988   5.075   6.081   0.151
   19CHTO   H20 7989   4.984   6.027   0.120
   19CHTO    O4 7990   5.168   6.082   0.040
   19CHTO   C14 7991   5.274   6.180   0.032
   19CHTO   H27 7992   5.299   6.188   2.752
   19CHTO   C18 7993   5.401   6.127   0.104
   19CHTO   O13 7994   5.451   6.009   0.041
   19CHTO    H7 7995   5.528   5.980   0.085
   19CHTO    O2 7996   5.143   6.005   0.281
   19CHTO    C1 7997   5.179   5.867   0.267
   19CHTO   H14 7998   5.260   5.858   0.191
   19CHTO    C2 7999   5.061   5.768   0.226
   19CHTO   H15 8000   4.976   5.794   0.291
   19CHTO    O6 8001   5.024   5.790   0.089
   19CHTO    H1 8002   4.988   5.876   0.079
   19CHTO    C3 8003   5.100   5.613   0.247
   19CHTO   H16 8004   5.175   5.586   0.170
   19CHTO    N1 8005   4.983   5.520   0.228
   19CHTO    H8 8006   4.962   5.465   0.318
   19CHTO    H9 8007   4.895   5.574   0.196
   19CHTO    C4 8008   5.172   5.592   0.385
   19CHTO   H17 8009   5.100   5.607   0.465
   19CHTO    O1 8010   5.282   5.684   0.398
   19CHTO    C5 8011   5.242   5.822   0.402
   19CHTO   H18 8012   5.167   5.836   0.480
   19CHTO   C16 8013   5.368   5.905   0.438
   19CHTO   O11 8014   5.413   5.876   0.570
   19CHTO    H5 8015   5.490   5.926   0.589
   19CHTO    O3 8016   5.232   5.461   0.395
   19CHTO    C6 8017   5.250   5.412   0.532
   19CHTO   H19 8018   5.243   5.491   0.607
   19CHTO    C8 8019   5.143   5.304   0.566
   19CHTO   H21 8020   5.148   5.225   0.490
   19CHTO    O7 8021   5.015   5.368   0.561
   19CHTO    H2 8022   4.946   5.305   0.573
   19CHTO   C12 8023   5.173   5.240   0.708
   19CHTO   H25 8024   5.158   5.321   0.783
   19CHTO    N3 8025   5.074   5.132   0.741
   19CHTO   H12 8026   5.094   5.093   0.840
   19CHTO   H13 8027   5.079   5.053   0.668
   19CHTO   C15 8028   5.322   5.192   0.715
   19CHTO   H28 8029   5.340   5.105   0.651
   19CHTO   O10 8030   5.368   5.160   0.860
   19CHTO    H4 8031   5.453   5.121   0.859
   19CHTO    O5 8032   5.412   5.299   0.679
   19CHTO   C10 8033   5.392   5.349   0.546
   19CHTO   H23 8034   5.403   5.267   0.476
   19CHTO   C17 8035   5.505   5.449   0.515
   19CHTO   O12 8036   5.503   5.562   0.602
   19CHTO    H6 8037   5.573   5.620   0.580
   20CHTO  H203 8038   4.968   1.039   2.206
   20CHTO   O82 8039   4.994   0.982   2.136
   20CHTO  C123 8040   5.031   1.058   2.020
   20CHTO  H227 8041   4.953   1.134   2.002
   20CHTO   O77 8042   5.155   1.123   2.059
   20CHTO  C118 8043   5.207   1.215   1.961
   20CHTO  H222 8044   5.130   1.290   1.938
   20CHTO  C125 8045   5.332   1.288   2.024
   20CHTO   O84 8046   5.437   1.198   2.058
   20CHTO  H205 8047   5.509   1.245   2.094
   20CHTO  C114 8048   5.244   1.139   1.832
   20CHTO  H218 8049   5.323   1.067   1.856
   20CHTO  C116 8050   5.121   1.058   1.778
   20CHTO  H220 8051   5.047   1.130   1.738
   20CHTO   O79 8052   5.166   0.979   1.666
   20CHTO  H201 8053   5.093   0.936   1.626
   20CHTO  C120 8054   5.055   0.970   1.892
   20CHTO  H224 8055   5.128   0.889   1.915
   20CHTO   N21 8056   4.930   0.905   1.845
   20CHTO  H211 8057   4.915   0.812   1.899
   20CHTO  H212 8058   4.934   0.886   1.739
   20CHTO   O75 8059   5.291   1.239   1.741
   20CHTO  C112 8060   5.425   1.195   1.659
   20CHTO  H216 8061   5.423   1.086   1.644
   20CHTO   O73 8062   5.538   1.237   1.736
   20CHTO  C113 8063   5.665   1.202   1.679
   20CHTO  H217 8064   5.668   1.093   1.663
   20CHTO  C124 8065   5.772   1.237   1.784
   20CHTO   O83 8066   5.901   1.184   1.753
   20CHTO  H204 8067   5.936   1.227   1.677
   20CHTO  C109 8068   5.684   1.274   1.543
   20CHTO  H213 8069   5.684   1.382   1.563
   20CHTO  C110 8070   5.565   1.236   1.449
   20CHTO  H214 8071   5.572   1.130   1.425
   20CHTO   O78 8072   5.580   1.309   1.325
   20CHTO  H200 8073   5.515   1.281   1.263
   20CHTO  C111 8074   5.429   1.266   1.518
   20CHTO  H215 8075   5.421   1.375   1.534
   20CHTO   N19 8076   5.311   1.227   1.436
   20CHTO  H207 8077   5.313   1.279   1.341
   20CHTO  H208 8078   5.220   1.251   1.488
   20CHTO   O74 8079   5.811   1.237   1.479
   20CHTO  C115 8080   5.924   1.354   1.477
   20CHTO  H219 8081   5.933   1.403   1.574
   20CHTO   O76 8082   6.065   1.297   1.448
   20CHTO  C122 8083   6.071   1.219   1.327
   20CHTO  H226 8084   6.037   1.118   1.351
   20CHTO  C126 8085   6.223   1.204   1.290
   20CHTO   O85 8086   6.247   1.116   1.180
   20CHTO  H206 8087   6.226   1.028   1.204
   20CHTO  C121 8088   5.986   1.279   1.206
   20CHTO  H225 8089   6.047   1.270   1.114
   20CHTO   O81 8090   5.867   1.202   1.188
   20CHTO  H202 8091   5.824   1.227   1.108
   20CHTO  C119 8092   5.954   1.430   1.228
   20CHTO  H223 8093   6.052   1.479   1.227
   20CHTO  C117 8094   5.885   1.460   1.367
   20CHTO  H221 8095   5.776   1.457   1.364
   20CHTO   N20 8096   5.917   1.600   1.413
   20CHTO  H209 8097   6.023   1.610   1.430
   20CHTO  H210 8098   5.883   1.671   1.339
   20CHTO   O80 8099   5.881   1.503   1.108
   20CHTO  C103 8100   5.949   1.515   0.969
   20CHTO  H190 8101   6.058   1.504   0.977
   20CHTO  C101 8102   5.894   1.416   0.859
   20CHTO  H188 8103   5.785   1.413   0.866
   20CHTO   O68 8104   5.947   1.273   0.888
   20CHTO  H168 8105   5.918   1.244   0.972
   20CHTO   C99 8106   5.933   1.462   0.710
   20CHTO  H186 8107   6.043   1.451   0.696
   20CHTO   N17 8108   5.867   1.377   0.603
   20CHTO  H174 8109   5.942   1.322   0.548
   20CHTO  H175 8110   5.806   1.437   0.537
   20CHTO   C97 8111   5.903   1.613   0.691
   20CHTO  H184 8112   5.794   1.628   0.698
   20CHTO   O64 8113   5.974   1.686   0.793
   20CHTO  C104 8114   5.921   1.665   0.924
   20CHTO  H191 8115   5.813   1.683   0.927
   20CHTO  C108 8116   5.985   1.770   1.015
   20CHTO   O71 8117   5.913   1.788   1.137
   20CHTO  H171 8118   5.955   1.853   1.190
   20CHTO   O62 8119   5.951   1.665   0.565
   20CHTO   C91 8120   5.914   1.799   0.529
   20CHTO  H178 8121   5.882   1.852   0.619
   20CHTO   C92 8122   5.790   1.797   0.433
   20CHTO  H179 8123   5.810   1.725   0.352
   20CHTO   O66 8124   5.678   1.743   0.506
   20CHTO  H166 8125   5.605   1.731   0.449
   20CHTO   C93 8126   5.757   1.940   0.375
   20CHTO  H180 8127   5.727   2.004   0.459
   20CHTO   N16 8128   5.644   1.943   0.279
   20CHTO  H172 8129   5.554   1.909   0.328
   20CHTO  H173 8130   5.666   1.880   0.194
   20CHTO   C94 8131   5.888   1.999   0.310
   20CHTO  H181 8132   5.927   1.935   0.231
   20CHTO   O61 8133   5.989   2.008   0.412
   20CHTO   C95 8134   6.032   1.882   0.465
   20CHTO  H182 8135   6.077   1.824   0.385
   20CHTO  C106 8136   6.144   1.910   0.571
   20CHTO   O69 8137   6.259   1.972   0.512
   20CHTO  H169 8138   6.239   2.060   0.486
   20CHTO   O63 8139   5.869   2.150   0.257
   20CHTO   C96 8140   5.924   2.176   0.109
   20CHTO  H183 8141   5.880   2.101   0.043
   20CHTO   C98 8142   6.080   2.168   0.094
   20CHTO  H185 8143   6.127   2.224   0.176
   20CHTO   O67 8144   6.120   2.031   0.111
   20CHTO  H167 8145   6.104   2.004   0.200
   20CHTO  C102 8146   6.131   2.225   2.780
   20CHTO  H189 8147   6.090   2.157   2.704
   20CHTO   N18 8148   6.279   2.222   2.760
   20CHTO  H176 8149   6.303   2.260   2.661
   20CHTO  H177 8150   6.327   2.283   0.006
   20CHTO  C105 8151   6.069   2.365   2.760
   20CHTO  H192 8152   6.103   2.431   0.013
   20CHTO   O65 8153   5.926   2.358   2.764
   20CHTO  C100 8154   5.870   2.318   0.062
   20CHTO  H187 8155   5.897   2.393   0.138
   20CHTO  C107 8156   5.716   2.320   0.044
   20CHTO   O70 8157   5.647   2.300   0.167
   20CHTO  H170 8158   5.554   2.302   0.152
   20CHTO   O57 8159   6.116   2.427   2.615
   20CHTO   C85 8160   6.142   2.569   2.608
   20CHTO  H157 8161   6.202   2.593   2.698
   20CHTO   C83 8162   6.007   2.648   2.623
   20CHTO  H155 8163   5.965   2.624   2.721
   20CHTO   O56 8164   5.912   2.602   2.525
   20CHTO  H135 8165   5.890   2.511   2.540
   20CHTO   C81 8166   6.038   2.800   2.617
   20CHTO  H153 8167   6.111   2.823   2.694
   20CHTO   N14 8168   5.920   2.884   2.652
   20CHTO  H141 8169   5.882   2.856   2.748
   20CHTO  H142 8170   5.948   2.987   2.655
   20CHTO   C79 8171   6.101   2.836   2.477
   20CHTO  H151 8172   6.127   2.941   2.480
   20CHTO   O52 8173   6.225   2.761   2.459
   20CHTO   C86 8174   6.214   2.616   2.474
   20CHTO  H158 8175   6.159   2.582   2.384
   20CHTO   C90 8176   6.357   2.557   2.461
   20CHTO   O60 8177   6.358   2.414   2.462
   20CHTO  H138 8178   6.333   2.382   2.546
   20CHTO   O50 8179   6.013   2.814   2.366
   20CHTO   C73 8180   6.006   2.845   2.226
   20CHTO  H145 8181   6.105   2.831   2.179
   20CHTO   C74 8182   5.962   2.993   2.204
   20CHTO  H146 8183   6.035   3.057   2.256
   20CHTO   O54 8184   5.975   3.022   2.064
   20CHTO  H133 8185   5.955   3.113   2.048
   20CHTO   C75 8186   5.816   3.013   2.261
   20CHTO  H147 8187   5.819   3.000   2.370
   20CHTO   N13 8188   5.761   3.149   2.240
   20CHTO  H139 8189   5.758   3.172   2.134
   20CHTO  H140 8190   5.823   3.222   2.289
   20CHTO   C76 8191   5.717   2.901   2.203
   20CHTO  H148 8192   5.700   2.922   2.098
   20CHTO   O49 8193   5.774   2.767   2.216
   20CHTO   C77 8194   5.904   2.751   2.157
   20CHTO  H149 8195   5.900   2.774   2.051
   20CHTO   C88 8196   5.947   2.604   2.167
   20CHTO   O58 8197   5.855   2.516   2.090
   20CHTO  H136 8198   5.883   2.427   2.098
   20CHTO   O51 8199   5.572   2.897   2.289
   20CHTO   C78 8200   5.578   2.826   2.438
   20CHTO  H150 8201   5.683   2.816   2.473
   20CHTO   C80 8202   5.514   2.685   2.434
   20CHTO  H152 8203   5.411   2.695   2.391
   20CHTO   O55 8204   5.592   2.604   2.344
   20CHTO  H134 8205   5.551   2.521   2.332
   20CHTO   C84 8206   5.504   2.619   2.578
   20CHTO  H156 8207   5.606   2.604   2.613
   20CHTO   N15 8208   5.438   2.483   2.577
   20CHTO  H143 8209   5.410   2.455   2.477
   20CHTO  H144 8210   5.352   2.482   2.639
   20CHTO   C87 8211   5.434   2.717   2.675
   20CHTO  H159 8212   5.329   2.730   2.646
   20CHTO   O53 8213   5.508   2.854   2.669
   20CHTO   C82 8214   5.503   2.914   2.539
   20CHTO  H154 8215   5.399   2.927   2.508
   20CHTO   C89 8216   5.565   3.055   2.548
   20CHTO   O59 8217   5.489   3.140   2.636
   20CHTO  H137 8218   5.528   3.225   2.638
   20CHTO   O45 8219   5.437   2.656   0.005
   20CHTO   C67 8220   5.459   2.753   0.109
   20CHTO  H124 8221   5.417   2.850   0.082
   20CHTO   C65 8222   5.393   2.705   0.242
   20CHTO  H122 8223   5.292   2.675   0.216
   20CHTO   O44 8224   5.387   2.813   0.337
   20CHTO  H102 8225   5.339   2.786   0.413
   20CHTO   C63 8226   5.466   2.574   0.292
   20CHTO  H120 8227   5.463   2.501   0.211
   20CHTO   N11 8228   5.395   2.500   0.401
   20CHTO  H108 8229   5.443   2.405   0.417
   20CHTO  H109 8230   5.398   2.557   0.491
   20CHTO   C61 8231   5.619   2.605   0.317
   20CHTO  H118 8232   5.667   2.507   0.330
   20CHTO   O40 8233   5.682   2.667   0.201
   20CHTO   C68 8234   5.614   2.774   0.127
   20CHTO  H125 8235   5.658   2.772   0.025
   20CHTO   C72 8236   5.646   2.914   0.186
   20CHTO   O48 8237   5.775   2.961   0.146
   20CHTO  H105 8238   5.790   3.047   0.180
   20CHTO   O38 8239   5.651   2.690   0.430
   20CHTO   C55 8240   5.671   2.630   0.560
   20CHTO  H112 8241   5.627   2.529   0.562
   20CHTO   C56 8242   5.607   2.724   0.670
   20CHTO  H113 8243   5.653   2.824   0.659
   20CHTO   O42 8244   5.466   2.741   0.643
   20CHTO  H100 8245   5.429   2.805   0.701
   20CHTO   C57 8246   5.632   2.667   0.816
   20CHTO  H114 8247   5.576   2.574   0.822
   20CHTO   N10 8248   5.585   2.757   0.924
   20CHTO  H106 8249   5.557   2.698   1.011
   20CHTO  H107 8250   5.500   2.814   0.892
   20CHTO   C58 8251   5.783   2.635   0.834
   20CHTO  H115 8252   5.841   2.731   0.834
   20CHTO   O37 8253   5.832   2.553   0.727
   20CHTO   C59 8254   5.822   2.609   0.596
   20CHTO  H116 8255   5.875   2.704   0.592
   20CHTO   C70 8256   5.894   2.513   0.500
   20CHTO   O46 8257   5.839   2.381   0.497
   20CHTO  H103 8258   5.852   2.338   0.579
   20CHTO   O39 8259   5.815   2.552   0.981
   20CHTO   C60 8260   5.748   2.427   1.004
   20CHTO  H117 8261   5.645   2.435   0.970
   20CHTO   C62 8262   5.814   2.308   0.928
   20CHTO  H119 8263   5.808   2.332   0.820
   20CHTO   O43 8264   5.953   2.297   0.963
   20CHTO  H101 8265   5.962   2.275   1.054
   20CHTO   C66 8266   5.730   2.173   0.954
   20CHTO  H123 8267   5.626   2.192   0.926
   20CHTO   N12 8268   5.775   2.060   0.869
   20CHTO  H110 8269   5.763   2.085   0.765
   20CHTO  H111 8270   5.878   2.036   0.892
   20CHTO   C69 8271   5.732   2.140   1.106
   20CHTO  H126 8272   5.837   2.124   1.139
   20CHTO   O41 8273   5.671   2.262   1.184
   20CHTO   C64 8274   5.743   2.396   1.157
   20CHTO  H121 8275   5.846   2.392   1.196
   20CHTO   C71 8276   5.667   2.509   1.232
   20CHTO   O47 8277   5.667   2.486   1.374
   20CHTO  H104 8278   5.754   2.497   1.408
   20CHTO   O34 8279   5.647   2.010   1.142
   20CHTO   C49 8280   5.497   1.969   1.151
   20CHTO   H91 8281   5.451   2.033   1.227
   20CHTO   C47 8282   5.490   1.821   1.196
   20CHTO   H89 8283   5.382   1.797   1.212
   20CHTO   O33 8284   5.559   1.809   1.321
   20CHTO   H70 8285   5.550   1.722   1.355
   20CHTO   C45 8286   5.551   1.728   1.080
   20CHTO   H87 8287   5.655   1.760   1.064
   20CHTO    N8 8288   5.553   1.585   1.120
   20CHTO   H75 8289   5.604   1.574   1.214
   20CHTO   H76 8290   5.604   1.527   1.044
   20CHTO   C43 8291   5.479   1.754   0.937
   20CHTO   H85 8292   5.545   1.708   0.864
   20CHTO   O29 8293   5.463   1.896   0.911
   20CHTO   C50 8294   5.423   1.986   1.017
   20CHTO   H92 8295   5.446   2.088   0.982
   20CHTO   C54 8296   5.269   1.990   1.036
   20CHTO   O36 8297   5.206   2.053   0.924
   20CHTO   H72 8298   5.113   2.055   0.937
   20CHTO   O27 8299   5.352   1.688   0.922
   20CHTO   C37 8300   5.288   1.630   0.806
   20CHTO   H79 8301   5.186   1.598   0.832
   20CHTO   C38 8302   5.273   1.736   0.692
   20CHTO   H80 8303   5.369   1.787   0.679
   20CHTO   O31 8304   5.176   1.833   0.736
   20CHTO   H68 8305   5.091   1.793   0.747
   20CHTO   C39 8306   5.230   1.672   0.554
   20CHTO   H81 8307   5.130   1.631   0.566
   20CHTO    N7 8308   5.225   1.772   0.442
   20CHTO   H73 8309   5.126   1.774   0.398
   20CHTO   H74 8310   5.299   1.750   0.366
   20CHTO   C40 8311   5.325   1.550   0.522
   20CHTO   H82 8312   5.427   1.587   0.508
   20CHTO   O26 8313   5.316   1.455   0.629
   20CHTO   C41 8314   5.368   1.506   0.756
   20CHTO   H83 8315   5.474   1.533   0.743
   20CHTO   C52 8316   5.363   1.388   0.857
   20CHTO   O35 8317   5.226   1.334   0.877
   20CHTO   H71 8318   5.229   1.264   0.940
   20CHTO   O28 8319   5.286   1.479   0.403
   20CHTO   C42 8320   5.380   1.398   0.325
   20CHTO   H84 8321   5.319   1.357   0.245
   20CHTO   C44 8322   5.444   1.276   0.398
   20CHTO   H86 8323   5.500   1.312   0.485
   20CHTO   O32 8324   5.336   1.194   0.446
   20CHTO   H69 8325   5.288   1.157   0.374
   20CHTO   C48 8326   5.544   1.196   0.305
   20CHTO   H90 8327   5.486   1.154   0.222
   20CHTO    N9 8328   5.608   1.079   0.374
   20CHTO   H77 8329   5.573   1.070   0.476
   20CHTO   H78 8330   5.589   0.988   0.319
   20CHTO   C51 8331   5.650   1.296   0.246
   20CHTO   H93 8332   5.704   1.340   0.330
   20CHTO   O30 8333   5.580   1.396   0.171
   20CHTO   C46 8334   5.491   1.484   0.256
   20CHTO   H88 8335   5.553   1.533   0.332
   20CHTO   C53 8336   5.429   1.590   0.162
   20CHTO   O72 8337   5.530   1.669   0.099
   20CHTO  H199 8338   5.490   1.733   0.043
   20CHTO   O22 8339   5.739   1.239   0.148
   20CHTO   C31 8340   5.886   1.258   0.145
   20CHTO   H59 8341   5.913   1.265   0.037
   20CHTO   C29 8342   5.941   1.386   0.212
   20CHTO   H57 8343   5.905   1.387   0.316
   20CHTO   O21 8344   5.882   1.500   0.147
   20CHTO   H37 8345   5.789   1.502   0.161
   20CHTO   C27 8346   6.099   1.392   0.213
   20CHTO   H55 8347   6.135   1.400   0.109
   20CHTO    N5 8348   6.152   1.508   0.290
   20CHTO   H43 8349   6.113   1.600   0.249
   20CHTO   H44 8350   6.260   1.509   0.285
   20CHTO   C25 8351   6.154   1.257   0.272
   20CHTO   H53 8352   6.120   1.246   0.376
   20CHTO   O17 8353   6.103   1.145   0.194
   20CHTO   C32 8354   5.960   1.131   0.198
   20CHTO   H60 8355   5.929   1.113   0.301
   20CHTO   C36 8356   5.922   1.005   0.115
   20CHTO   O25 8357   5.967   1.012   2.807
   20CHTO   H40 8358   5.921   1.080   2.762
   20CHTO   O15 8359   6.315   1.248   0.269
   20CHTO   C19 8360   6.406   1.197   0.167
   20CHTO   H47 8361   6.340   1.153   0.091
   20CHTO   C20 8362   6.495   1.306   0.100
   20CHTO   H48 8363   6.560   1.356   0.173
   20CHTO   O19 8364   6.405   1.404   0.045
   20CHTO   H35 8365   6.454   1.477   0.011
   20CHTO   C21 8366   6.586   1.243   2.815
   20CHTO   H49 8367   6.522   1.204   2.736
   20CHTO    N4 8368   6.679   1.340   2.752
   20CHTO   H41 8369   6.659   1.348   2.646
   20CHTO   H42 8370   6.669   1.438   2.797
   20CHTO   C22 8371   6.663   1.120   0.045
   20CHTO   H50 8372   6.736   1.156   0.118
   20CHTO   O14 8373   6.573   1.027   0.109
   20CHTO   C23 8374   6.497   1.082   0.219
   20CHTO   H51 8375   6.569   1.117   0.294
   20CHTO   C34 8376   6.417   0.968   0.285
   20CHTO   O23 8377   6.326   0.904   0.195
   20CHTO   H38 8378   6.256   0.963   0.173
   20CHTO   O16 8379   6.726   1.044   2.768
   20CHTO   C24 8380   6.851   0.958   2.817
   20CHTO   H52 8381   6.847   0.937   0.096
   20CHTO   C26 8382   6.981   1.033   2.783
   20CHTO   H54 8383   6.978   1.061   2.675
   20CHTO   O20 8384   6.986   1.154   0.033
   20CHTO   H36 8385   6.920   1.214   0.004
   20CHTO   C30 8386   7.108   0.945   2.808
   20CHTO   H58 8387   7.124   0.935   0.088
   20CHTO    N6 8388   7.231   1.009   2.754
   20CHTO   H45 8389   7.247   1.104   2.803
   20CHTO   H46 8390   7.221   1.025   2.648
   20CHTO   C33 8391   7.090   0.799   2.753
   20CHTO   H61 8392   7.094   0.799   2.643
   20CHTO   O18 8393   6.962   0.747   2.794
   20CHTO   C28 8394   6.850   0.821   2.744
   20CHTO   H56 8395   6.859   0.838   2.637
   20CHTO   C35 8396   6.720   0.743   2.771
   20CHTO   O24 8397   6.717   0.617   2.703
   20CHTO   H39 8398   6.636   0.573   2.722
   20CHTO    O9 8399   7.199   0.715   2.796
   20CHTO   C13 8400   7.198   0.544   2.784
   20CHTO   H26 8401   7.304   0.515   2.798
   20CHTO   C11 8402   7.140   0.488   2.646
   20CHTO   H24 8403   7.214   0.511   2.567
   20CHTO    O8 8404   7.016   0.550   2.609
   20CHTO    H3 8405   7.028   0.642   2.596
   20CHTO    C9 8406   7.126   0.334   2.661
   20CHTO   H22 8407   7.224   0.299   2.697
   20CHTO    N2 8408   7.109   0.264   2.531
   20CHTO   H10 8409   7.110   0.158   2.547
   20CHTO   H11 8410   7.189   0.292   2.463
   20CHTO    C7 8411   7.018   0.302   2.772
   20CHTO   H20 8412   7.059   0.212   2.824
   20CHTO    O4 8413   7.002   0.408   0.042
   20CHTO   C14 8414   7.125   0.474   0.079
   20CHTO   H27 8415   7.193   0.395   0.117
   20CHTO   C18 8416   7.100   0.572   0.197
   20CHTO   O13 8417   7.099   0.505   0.324
   20CHTO    H7 8418   7.021   0.453   0.331
   20CHTO    O2 8419   6.866   0.266   2.709
   20CHTO    C1 8420   6.809   0.141   2.753
   20CHTO   H14 8421   6.825   0.130   0.035
   20CHTO    C2 8422   6.866   0.012   2.680
   20CHTO   H15 8423   6.854   0.031   2.572
   20CHTO    O6 8424   7.005   9.996   2.709
   20CHTO    H1 8425   7.018   9.983   2.801
   20CHTO    C3 8426   6.783   9.881   2.721
   20CHTO   H16 8427   6.800   9.859   2.828
   20CHTO    N1 8428   6.826   9.759   2.644
   20CHTO    H8 8429   6.931   9.740   2.662
   20CHTO    H9 8430   6.768   9.673   2.675
   20CHTO    C4 8431   6.628   9.908   2.708
   20CHTO   H17 8432   6.603   9.918   2.602
   20CHTO    O1 8433   6.591   0.027   2.780
   20CHTO    C5 8434   6.655   0.147   2.731
   20CHTO   H18 8435   6.637   0.156   2.624
   20CHTO   C16 8436   6.590   0.268   2.802
   20CHTO   O11 8437   6.453   0.283   2.765
   20CHTO    H5 8438   6.402   0.212   2.799
   20CHTO    O3 8439   6.551   9.803   2.770
   20CHTO    C6 8440   6.422   9.773   2.707
   20CHTO   H19 8441   6.389   9.853   2.639
   20CHTO    C8 8442   6.431   9.641   2.624
   20CHTO   H21 8443   6.472   9.563   2.689
   20CHTO    O7 8444   6.521   9.666   2.515
   20CHTO    H2 8445   6.537   9.586   2.468
   20CHTO   C12 8446   6.287   9.596   2.574
   20CHTO   H25 8447   6.254   9.673   2.502
   20CHTO    N3 8448   6.292   9.466   2.499
   20CHTO   H12 8449   6.231   9.391   2.547
   20CHTO   H13 8450   6.394   9.430   2.487
   20CHTO   C15 8451   6.188   9.596   2.696
   20CHTO   H28 8452   6.213   9.518   2.768
   20CHTO   O10 8453   6.040   9.581   2.653
   20CHTO    H4 8454   6.027   9.498   2.611
   20CHTO    O5 8455   6.186   9.724   2.760
   20CHTO   C10 8456   6.313   9.760   2.817
   20CHTO   H23 8457   6.343   9.683   0.061
   20CHTO   C17 8458   6.294   9.890   0.069
   20CHTO   O12 8459   6.253  10.000   2.815
   20CHTO    H6 8460   6.246   0.077   0.040
   21GLOH   H03 8461   4.106   5.051   2.637
   21GLOH    O1 8462   4.165   5.017   2.566
   21GLOH    C1 8463   4.227   4.895   2.610
   21GLOH   H02 8464   4.151   4.823   2.642
   21GLOH   H08 8465   4.291   4.914   2.696
   21GLOH    C2 8466   4.312   4.829   2.500
   21GLOH   H04 8467   4.394   4.897   2.474
   21GLOH    O2 8468   4.368   4.705   2.549
   21GLOH   H05 8469   4.428   4.665   2.484
   21GLOH    C3 8470   4.226   4.805   2.375
   21GLOH   H06 8471   4.147   4.734   2.399
   21GLOH   H07 8472   4.288   4.758   2.297
   21GLOH    O3 8473   4.171   4.929   2.328
   21GLOH   H01 8474   4.161   4.984   2.410
   22GLOH   H03 8475   3.618   9.570   0.699
   22GLOH    O1 8476   3.715   9.591   0.703
   22GLOH    C1 8477   3.782   9.542   0.586
   22GLOH   H02 8478   3.890   9.553   0.598
   22GLOH   H08 8479   3.755   9.602   0.499
   22GLOH    C2 8480   3.751   9.395   0.553
   22GLOH   H04 8481   3.645   9.388   0.524
   22GLOH    O2 8482   3.834   9.351   0.443
   22GLOH   H05 8483   3.826   9.252   0.431
   22GLOH    C3 8484   3.772   9.306   0.678
   22GLOH   H06 8485   3.722   9.351   0.763
   22GLOH   H07 8486   3.879   9.304   0.702
   22GLOH    O3 8487   3.723   9.173   0.658
   22GLOH   H01 8488   3.763   9.136   0.575
   23GLOH   H03 8489   3.622   4.885   0.654
   23GLOH    O1 8490   3.592   4.918   0.566
   23GLOH    C1 8491   3.603   4.810   0.471
   23GLOH   H02 8492   3.511   4.804   0.412
   23GLOH   H08 8493   3.612   4.714   0.523
   23GLOH    C2 8494   3.721   4.820   0.373
   23GLOH   H04 8495   3.721   4.729   0.312
   23GLOH    O2 8496   3.709   4.933   0.284
   23GLOH   H05 8497   3.792   4.934   0.231
   23GLOH    C3 8498   3.857   4.827   0.445
   23GLOH   H06 8499   3.865   4.742   0.513
   23GLOH   H07 8500   3.861   4.917   0.507
   23GLOH    O3 8501   3.966   4.826   0.351
   23GLOH   H01 8502   4.045   4.874   0.386
   24GLOH   H03 8503   0.397   3.047   1.782
   24GLOH    O1 8504   0.357   2.976   1.725
   24GLOH    C1 8505   0.311   2.868   1.809
   24GLOH   H02 8506   0.289   2.904   1.910
   24GLOH   H08 8507   0.389   2.793   1.820
   24GLOH    C2 8508   0.185   2.801   1.753
   24GLOH   H04 8509   0.202   2.781   1.646
   24GLOH    O2 8510   0.160   2.674   1.818
   24GLOH   H05 8511   0.222   2.607   1.780
   24GLOH    C3 8512   0.064   2.896   1.763
   24GLOH   H06 8513   9.978   2.848   1.717
   24GLOH   H07 8514   0.086   2.984   1.703
   24GLOH    O3 8515   0.033   2.936   1.898
   24GLOH   H01 8516   9.942   2.977   1.897
   25GLOH   H03 8517   2.165   6.962   0.515
   25GLOH    O1 8518   2.150   6.865   0.530
   25GLOH    C1 8519   2.112   6.803   0.406
   25GLOH   H02 8520   2.167   6.710   0.392
   25GLOH   H08 8521   2.136   6.868   0.321
   25GLOH    C2 8522   1.961   6.771   0.401
   25GLOH   H04 8523   1.905   6.866   0.406
   25GLOH    O2 8524   1.930   6.703   0.278
   25GLOH   H05 8525   1.833   6.703   0.264
   25GLOH    C3 8526   1.921   6.685   0.523
   25GLOH   H06 8527   1.972   6.589   0.516
   25GLOH   H07 8528   1.814   6.666   0.519
   25GLOH    O3 8529   1.956   6.752   0.646
   25GLOH   H01 8530   2.039   6.801   0.624
   26GLOH   H03 8531   9.944   3.396   1.878
   26GLOH    O1 8532   9.974   3.455   1.805
   26GLOH    C1 8533   0.043   3.374   1.707
   26GLOH   H02 8534   0.107   3.301   1.756
   26GLOH   H08 8535   0.108   3.437   1.646
   26GLOH    C2 8536   9.946   3.300   1.613
   26GLOH   H04 8537   0.007   3.226   1.557
   26GLOH    O2 8538   9.843   3.228   1.685
   26GLOH   H05 8539   9.780   3.294   1.725
   26GLOH    C3 8540   9.884   3.396   1.510
   26GLOH   H06 8541   9.855   3.487   1.562
   26GLOH   H07 8542   9.792   3.351   1.471
   26GLOH    O3 8543   9.974   3.426   1.402
   26GLOH   H01 8544   9.944   3.373   1.323
   27GLOH   H03 8545   2.416   7.570   0.951
   27GLOH    O1 8546   2.355   7.539   0.879
   27GLOH    C1 8547   2.432   7.512   0.761
   27GLOH   H02 8548   2.523   7.572   0.760
   27GLOH   H08 8549   2.376   7.540   0.672
   27GLOH    C2 8550   2.472   7.363   0.746
   27GLOH   H04 8551   2.382   7.307   0.717
   27GLOH    O2 8552   2.571   7.350   0.641
   27GLOH   H05 8553   2.544   7.406   0.562
   27GLOH    C3 8554   2.522   7.307   0.881
   27GLOH   H06 8555   2.435   7.300   0.947
   27GLOH   H07 8556   2.589   7.381   0.925
   27GLOH    O3 8557   2.587   7.180   0.873
   27GLOH   H01 8558   2.525   7.109   0.840
   28GLOH   H03 8559   2.204   2.535   0.238
   28GLOH    O1 8560   2.251   2.537   0.324
   28GLOH    C1 8561   2.281   2.403   0.368
   28GLOH   H02 8562   2.344   2.406   0.457
   28GLOH   H08 8563   2.338   2.350   0.292
   28GLOH    C2 8564   2.156   2.320   0.401
   28GLOH   H04 8565   2.094   2.312   0.310
   28GLOH    O2 8566   2.196   2.187   0.442
   28GLOH   H05 8567   2.119   2.125   0.425
   28GLOH    C3 8568   2.072   2.391   0.510
   28GLOH   H06 8569   2.045   2.489   0.473
   28GLOH   H07 8570   2.136   2.406   0.597
   28GLOH    O3 8571   1.954   2.318   0.549
   28GLOH   H01 8572   1.982   2.237   0.598
   29GLOH   H03 8573   1.580   6.082   2.348
   29GLOH    O1 8574   1.674   6.075   2.318
   29GLOH    C1 8575   1.746   6.020   2.431
   29GLOH   H02 8576   1.774   6.100   2.500
   29GLOH   H08 8577   1.839   5.973   2.398
   29GLOH    C2 8578   1.663   5.916   2.508
   29GLOH   H04 8579   1.640   5.833   2.440
   29GLOH    O2 8580   1.737   5.865   2.621
   29GLOH   H05 8581   1.810   5.808   2.590
   29GLOH    C3 8582   1.531   5.979   2.555
   29GLOH   H06 8583   1.553   6.055   2.630
   29GLOH   H07 8584   1.471   5.902   2.605
   29GLOH    O3 8585   1.457   6.037   2.446
   29GLOH   H01 8586   1.368   6.066   2.476
   30GLOH   H03 8587   3.463   8.233   1.026
   30GLOH    O1 8588   3.438   8.164   1.093
   30GLOH    C1 8589   3.456   8.224   1.223
   30GLOH   H02 8590   3.404   8.165   1.299
   30GLOH   H08 8591   3.411   8.323   1.225
   30GLOH    C2 8592   3.603   8.235   1.268
   30GLOH   H04 8593   3.661   8.281   1.186
   30GLOH    O2 8594   3.612   8.319   1.385
   30GLOH   H05 8595   3.620   8.416   1.359
   30GLOH    C3 8596   3.662   8.097   1.301
   30GLOH   H06 8597   3.606   8.055   1.384
   30GLOH   H07 8598   3.764   8.111   1.337
   30GLOH    O3 8599   3.664   8.003   1.191
   30GLOH   H01 8600   3.655   7.913   1.231
   31GLOH   H03 8601   0.596   1.553   0.850
   31GLOH    O1 8602   0.666   1.599   0.904
   31GLOH    C1 8603   0.695   1.723   0.837
   31GLOH   H02 8604   0.675   1.808   0.903
   31GLOH   H08 8605   0.631   1.737   0.749
   31GLOH    C2 8606   0.842   1.730   0.792
   31GLOH   H04 8607   0.863   1.642   0.730
   31GLOH    O2 8608   0.863   1.848   0.713
   31GLOH   H05 8609   0.847   1.823   0.617
   31GLOH    C3 8610   0.936   1.729   0.913
   31GLOH   H06 8611   0.909   1.814   0.977
   31GLOH   H07 8612   1.038   1.748   0.878
   31GLOH    O3 8613   0.930   1.606   0.988
   31GLOH   H01 8614   0.856   1.552   0.951
   32GLOH   H03 8615   1.205   1.618   0.354
   32GLOH    O1 8616   1.133   1.681   0.382
   32GLOH    C1 8617   1.047   1.614   0.476
   32GLOH   H02 8618   1.027   1.679   0.561
   32GLOH   H08 8619   1.097   1.525   0.515
   32GLOH    C2 8620   0.913   1.572   0.413
   32GLOH   H04 8621   0.936   1.515   0.321
   32GLOH    O2 8622   0.837   1.486   0.501
   32GLOH   H05 8623   0.894   1.462   0.581
   32GLOH    C3 8624   0.830   1.696   0.371
   32GLOH   H06 8625   0.741   1.661   0.319
   32GLOH   H07 8626   0.889   1.752   0.299
   32GLOH    O3 8627   0.793   1.781   0.482
   32GLOH   H01 8628   0.714   1.835   0.458
   33GLOH   H03 8629   1.282   7.932   1.723
   33GLOH    O1 8630   1.247   7.947   1.815
   33GLOH    C1 8631   1.172   7.829   1.852
   33GLOH   H02 8632   1.143   7.833   1.957
   33GLOH   H08 8633   1.234   7.740   1.841
   33GLOH    C2 8634   1.045   7.811   1.767
   33GLOH   H04 8635   1.078   7.794   1.663
   33GLOH    O2 8636   0.970   7.695   1.810
   33GLOH   H05 8637   0.997   7.615   1.755
   33GLOH    C3 8638   0.961   7.940   1.768
   33GLOH   H06 8639   0.880   7.929   1.696
   33GLOH   H07 8640   1.023   8.022   1.730
   33GLOH    O3 8641   0.908   7.975   1.897
   33GLOH   H01 8642   0.834   7.911   1.918
   34GLOH   H03 8643   1.448   0.732   1.480
   34GLOH    O1 8644   1.442   0.829   1.502
   34GLOH    C1 8645   1.551   0.856   1.594
   34GLOH   H02 8646   1.629   0.912   1.543
   34GLOH   H08 8647   1.597   0.763   1.627
   34GLOH    C2 8648   1.509   0.934   1.719
   34GLOH   H04 8649   1.594   0.930   1.790
   34GLOH    O2 8650   1.481   1.072   1.688
   34GLOH   H05 8651   1.388   1.094   1.718
   34GLOH    C3 8652   1.389   0.864   1.786
   34GLOH   H06 8653   1.407   0.756   1.786
   34GLOH   H07 8654   1.300   0.881   1.724
   34GLOH    O3 8655   1.366   0.911   1.920
   34GLOH   H01 8656   1.283   0.871   1.957
   35GLOH   H03 8657   0.979   0.249   1.897
   35GLOH    O1 8658   1.023   0.194   1.827
   35GLOH    C1 8659   1.022   0.058   1.874
   35GLOH   H02 8660   1.016   9.989   1.789
   35GLOH   H08 8661   0.933   0.039   1.934
   35GLOH    C2 8662   1.146   0.023   1.958
   35GLOH   H04 8663   1.235   0.049   1.899
   35GLOH    O2 8664   1.148   0.097   2.082
   35GLOH   H05 8665   1.244   0.096   2.114
   35GLOH    C3 8666   1.151   9.872   1.988
   35GLOH   H06 8667   1.071   9.847   2.058
   35GLOH   H07 8668   1.245   9.851   2.040
   35GLOH    O3 8669   1.142   9.792   1.869
   35GLOH   H01 8670   1.220   9.818   1.812
   36GLOH   H03 8671   9.764   2.986   2.214
   36GLOH    O1 8672   9.694   2.959   2.150
   36GLOH    C1 8673   9.629   2.837   2.192
   36GLOH   H02 8674   9.557   2.806   2.116
   36GLOH   H08 8675   9.571   2.856   2.283
   36GLOH    C2 8676   9.724   2.720   2.219
   36GLOH   H04 8677   9.798   2.753   2.293
   36GLOH    O2 8678   9.652   2.607   2.272
   36GLOH   H05 8679   9.670   2.598   2.368
   36GLOH    C3 8680   9.802   2.680   2.091
   36GLOH   H06 8681   9.865   2.594   2.114
   36GLOH   H07 8682   9.870   2.762   2.066
   36GLOH    O3 8683   9.718   2.650   1.978
   36GLOH   H01 8684   9.652   2.581   2.003
   37GLOH   H03 8685   2.890   4.716   2.073
   37GLOH    O1 8686   2.949   4.637   2.088
   37GLOH    C1 8687   2.957   4.610   2.229
   37GLOH   H02 8688   2.939   4.504   2.247
   37GLOH   H08 8689   2.879   4.664   2.283
   37GLOH    C2 8690   3.093   4.647   2.289
   37GLOH   H04 8691   3.108   4.756   2.278
   37GLOH    O2 8692   3.095   4.613   2.429
   37GLOH   H05 8693   3.124   4.691   2.483
   37GLOH    C3 8694   3.206   4.574   2.213
   37GLOH   H06 8695   3.200   4.467   2.235
   37GLOH   H07 8696   3.302   4.609   2.251
   37GLOH    O3 8697   3.196   4.596   2.071
   37GLOH   H01 8698   3.100   4.615   2.055
   38GLOH   H03 8699   1.044   6.746   2.605
   38GLOH    O1 8700   1.033   6.701   2.691
   38GLOH    C1 8701   0.970   6.796   2.780
   38GLOH   H02 8702   0.980   6.763   0.055
   38GLOH   H08 8703   0.863   6.803   2.759
   38GLOH    C2 8704   1.031   6.937   2.767
   38GLOH   H04 8705   1.136   6.932   2.802
   38GLOH    O2 8706   1.029   6.978   2.628
   38GLOH   H05 8707   1.039   7.076   2.620
   38GLOH    C3 8708   0.955   7.037   0.027
   38GLOH   H06 8709   0.853   7.046   2.817
   38GLOH   H07 8710   1.002   7.135   0.016
   38GLOH    O3 8711   0.954   6.998   0.165
   38GLOH   H01 8712   0.913   7.067   0.221
   39GLOH   H03 8713   2.632   6.300   2.469
   39GLOH    O1 8714   2.706   6.287   2.533
   39GLOH    C1 8715   2.823   6.351   2.478
   39GLOH   H02 8716   2.891   6.383   2.557
   39GLOH   H08 8717   2.796   6.441   2.422
   39GLOH    C2 8718   2.898   6.254   2.385
   39GLOH   H04 8719   2.824   6.208   2.317
   39GLOH    O2 8720   2.997   6.323   2.307
   39GLOH   H05 8721   3.018   6.266   2.228
   39GLOH    C3 8722   2.963   6.143   2.470
   39GLOH   H06 8723   3.049   6.185   2.523
   39GLOH   H07 8724   3.001   6.067   2.402
   39GLOH    O3 8725   2.870   6.086   2.563
   39GLOH   H01 8726   2.795   6.151   2.570
   40GLOH   H03 8727   4.737   3.334   1.483
   40GLOH    O1 8728   4.708   3.333   1.387
   40GLOH    C1 8729   4.564   3.348   1.382
   40GLOH   H02 8730   4.535   3.445   1.423
   40GLOH   H08 8731   4.516   3.272   1.444
   40GLOH    C2 8732   4.509   3.336   1.239
   40GLOH   H04 8733   4.532   3.235   1.202
   40GLOH    O2 8734   4.366   3.355   1.237
   40GLOH   H05 8735   4.335   3.345   1.141
   40GLOH    C3 8736   4.579   3.437   1.146
   40GLOH   H06 8737   4.548   3.538   1.173
   40GLOH   H07 8738   4.546   3.420   1.043
   40GLOH    O3 8739   4.721   3.424   1.155
   40GLOH   H01 8740   4.736   3.391   1.247
   41GLOH   H03 8741   1.328   6.867   2.364
   41GLOH    O1 8742   1.288   6.914   2.287
   41GLOH    C1 8743   1.224   6.818   2.202
   41GLOH   H02 8744   1.132   6.782   2.248
   41GLOH   H08 8745   1.288   6.731   2.189
   41GLOH    C2 8746   1.190   6.874   2.063
   41GLOH   H04 8747   1.283   6.912   2.017
   41GLOH    O2 8748   1.136   6.768   1.981
   41GLOH   H05 8749   1.181   6.772   1.891
   41GLOH    C3 8750   1.091   6.992   2.074
   41GLOH   H06 8751   1.127   7.062   2.149
   41GLOH   H07 8752   0.996   6.953   2.111
   41GLOH    O3 8753   1.071   7.060   1.948
   41GLOH   H01 8754   0.985   7.026   1.911
   42GLOH   H03 8755   3.630   7.968   0.300
   42GLOH    O1 8756   3.630   8.028   0.378
   42GLOH    C1 8757   3.768   8.060   0.407
   42GLOH   H02 8758   3.777   8.099   0.509
   42GLOH   H08 8759   3.804   8.138   0.341
   42GLOH    C2 8760   3.861   7.938   0.395
   42GLOH   H04 8761   3.828   7.861   0.466
   42GLOH    O2 8762   3.855   7.884   0.261
   42GLOH   H05 8763   3.882   7.790   0.261
   42GLOH    C3 8764   4.005   7.979   0.431
   42GLOH   H06 8765   4.068   7.890   0.438
   42GLOH   H07 8766   4.004   8.024   0.530
   42GLOH    O3 8767   4.059   8.071   0.334
   42GLOH   H01 8768   4.034   8.038   0.246
   43GLOH   H03 8769   5.035   3.222   1.397
   43GLOH    O1 8770   5.118   3.277   1.407
   43GLOH    C1 8771   5.086   3.417   1.404
   43GLOH   H02 8772   5.169   3.476   1.444
   43GLOH   H08 8773   5.000   3.437   1.468
   43GLOH    C2 8774   5.054   3.470   1.263
   43GLOH   H04 8775   4.960   3.423   1.231
   43GLOH    O2 8776   5.035   3.613   1.270
   43GLOH   H05 8777   5.073   3.659   1.190
   43GLOH    C3 8778   5.164   3.429   1.163
   43GLOH   H06 8779   5.173   3.320   1.165
   43GLOH   H07 8780   5.259   3.469   1.198
   43GLOH    O3 8781   5.138   3.472   1.028
   43GLOH   H01 8782   5.040   3.466   1.008
   44GLOH   H03 8783   3.560   4.930   2.193
   44GLOH    O1 8784   3.645   4.927   2.244
   44GLOH    C1 8785   3.628   5.017   2.356
   44GLOH   H02 8786   3.545   4.984   2.418
   44GLOH   H08 8787   3.601   5.116   2.320
   44GLOH    C2 8788   3.752   5.031   2.445
   44GLOH   H04 8789   3.735   5.115   2.515
   44GLOH    O2 8790   3.781   4.912   2.522
   44GLOH   H05 8791   3.696   4.872   2.556
   44GLOH    C3 8792   3.874   5.065   2.357
   44GLOH   H06 8793   3.896   4.979   2.294
   44GLOH   H07 8794   3.960   5.080   2.422
   44GLOH    O3 8795   3.851   5.183   2.278
   44GLOH   H01 8796   3.915   5.182   2.202
   45GLOH   H03 8797   1.860   5.770   2.173
   45GLOH    O1 8798   1.811   5.683   2.169
   45GLOH    C1 8799   1.679   5.706   2.116
   45GLOH   H02 8800   1.684   5.768   2.026
   45GLOH   H08 8801   1.618   5.760   2.188
   45GLOH    C2 8802   1.608   5.574   2.080
   45GLOH   H04 8803   1.595   5.515   2.172
   45GLOH    O2 8804   1.478   5.600   2.023
   45GLOH   H05 8805   1.408   5.605   2.095
   45GLOH    C3 8806   1.693   5.493   1.981
   45GLOH   H06 8807   1.701   5.549   1.888
   45GLOH   H07 8808   1.642   5.400   1.959
   45GLOH    O3 8809   1.824   5.468   2.035
   45GLOH   H01 8810   1.839   5.544   2.097
   46GLOH   H03 8811   1.792   7.350   0.970
   46GLOH    O1 8812   1.883   7.374   0.936
   46GLOH    C1 8813   1.948   7.256   0.886
   46GLOH   H02 8814   1.879   7.196   0.826
   46GLOH   H08 8815   1.981   7.193   0.970
   46GLOH    C2 8816   2.071   7.291   0.800
   46GLOH   H04 8817   2.142   7.348   0.861
   46GLOH    O2 8818   2.135   7.172   0.750
   46GLOH   H05 8819   2.132   7.099   0.818
   46GLOH    C3 8820   2.027   7.378   0.681
   46GLOH   H06 8821   1.963   7.318   0.617
   46GLOH   H07 8822   2.116   7.403   0.623
   46GLOH    O3 8823   1.959   7.498   0.722
   46GLOH   H01 8824   1.914   7.477   0.808
   47GLOH   H03 8825   3.613   9.874   2.648
   47GLOH    O1 8826   3.582   9.805   2.586
   47GLOH    C1 8827   3.682   9.703   2.573
   47GLOH   H02 8828   3.741   9.694   2.665
   47GLOH   H08 8829   3.752   9.729   2.493
   47GLOH    C2 8830   3.622   9.565   2.541
   47GLOH   H04 8831   3.574   9.571   2.442
   47GLOH    O2 8832   3.724   9.464   2.538
   47GLOH   H05 8833   3.682   9.380   2.569
   47GLOH    C3 8834   3.513   9.530   2.644
   47GLOH   H06 8835   3.429   9.599   2.631
   47GLOH   H07 8836   3.553   9.547   2.744
   47GLOH    O3 8837   3.466   9.394   2.631
   47GLOH   H01 8838   3.410   9.384   2.552
   48GLOH   H03 8839   3.647   3.067   1.917
   48GLOH    O1 8840   3.627   2.976   1.952
   48GLOH    C1 8841   3.484   2.959   1.957
   48GLOH   H02 8842   3.436   3.012   1.875
   48GLOH   H08 8843   3.445   3.004   2.049
   48GLOH    C2 8844   3.437   2.812   1.952
   48GLOH   H04 8845   3.328   2.812   1.969
   48GLOH    O2 8846   3.461   2.750   1.823
   48GLOH   H05 8847   3.553   2.771   1.792
   48GLOH    C3 8848   3.501   2.728   2.064
   48GLOH   H06 8849   3.610   2.733   2.053
   48GLOH   H07 8850   3.473   2.624   2.050
   48GLOH    O3 8851   3.461   2.773   2.195
   48GLOH   H01 8852   3.543   2.801   2.242
   49GLOH   H03 8853   0.682   1.626   1.053
   49GLOH    O1 8854   0.679   1.647   1.150
   49GLOH    C1 8855   0.540   1.656   1.187
   49GLOH   H02 8856   0.526   1.625   1.290
   49GLOH   H08 8857   0.481   1.589   1.125
   49GLOH    C2 8858   0.485   1.799   1.171
   49GLOH   H04 8859   0.494   1.829   1.065
   49GLOH    O2 8860   0.347   1.803   1.210
   49GLOH   H05 8861   0.308   1.711   1.205
   49GLOH    C3 8862   0.567   1.897   1.257
   49GLOH   H06 8863   0.552   1.871   1.362
   49GLOH   H07 8864   0.528   1.998   1.243
   49GLOH    O3 8865   0.706   1.893   1.224
   49GLOH   H01 8866   0.725   1.799   1.199
   50GLOH   H03 8867   3.485   9.745   1.213
   50GLOH    O1 8868   3.562   9.789   1.256
   50GLOH    C1 8869   3.539   9.783   1.398
   50GLOH   H02 8870   3.513   9.681   1.427
   50GLOH   H08 8871   3.453   9.846   1.425
   50GLOH    C2 8872   3.659   9.829   1.481
   50GLOH   H04 8873   3.748   9.775   1.445
   50GLOH    O2 8874   3.684   9.971   1.468
   50GLOH   H05 8875   3.610   0.023   1.512
   50GLOH    C3 8876   3.636   9.790   1.628
   50GLOH   H06 8877   3.537   9.824   1.657
   50GLOH   H07 8878   3.707   9.843   1.692
   50GLOH    O3 8879   3.649   9.648   1.648
   50GLOH   H01 8880   3.747   9.628   1.645
   51GLOH   H03 8881   3.795   9.156   1.545
   51GLOH    O1 8882   3.884   9.142   1.504
   51GLOH    C1 8883   3.986   9.129   1.606
   51GLOH   H02 8884   4.026   9.227   1.630
   51GLOH   H08 8885   4.069   9.070   1.567
   51GLOH    C2 8886   3.938   9.063   1.737
   51GLOH   H04 8887   4.027   9.050   1.801
   51GLOH    O2 8888   3.843   9.146   1.808
   51GLOH   H05 8889   3.891   9.215   1.862
   51GLOH    C3 8890   3.878   8.924   1.711
   51GLOH   H06 8891   3.800   8.933   1.635
   51GLOH   H07 8892   3.830   8.889   1.802
   51GLOH    O3 8893   3.978   8.829   1.668
   51GLOH   H01 8894   4.022   8.796   1.751
   52GLOH   H03 8895   1.685   7.570   1.646
   52GLOH    O1 8896   1.760   7.600   1.588
   52GLOH    C1 8897   1.872   7.515   1.620
   52GLOH   H02 8898   1.874   7.494   1.727
   52GLOH   H08 8899   1.966   7.566   1.597
   52GLOH    C2 8900   1.871   7.379   1.547
   52GLOH   H04 8901   1.957   7.321   1.585
   52GLOH    O2 8902   1.751   7.304   1.574
   52GLOH   H05 8903   1.754   7.274   1.669
   52GLOH    C3 8904   1.893   7.398   1.396
   52GLOH   H06 8905   1.811   7.458   1.356
   52GLOH   H07 8906   1.888   7.301   1.347
   52GLOH    O3 8907   2.020   7.461   1.368
   52GLOH   H01 8908   2.028   7.475   1.270
   53GLOH   H03 8909   9.226   4.504   0.884
   53GLOH    O1 8910   9.238   4.500   0.785
   53GLOH    C1 8911   9.341   4.403   0.756
   53GLOH   H02 8912   9.420   4.410   0.831
   53GLOH   H08 8913   9.387   4.426   0.660
   53GLOH    C2 8914   9.291   4.258   0.753
   53GLOH   H04 8915   9.375   4.194   0.723
   53GLOH    O2 8916   9.246   4.212   0.882
   53GLOH   H05 8917   9.153   4.245   0.900
   53GLOH    C3 8918   9.181   4.242   0.646
   53GLOH   H06 8919   9.098   4.308   0.670
   53GLOH   H07 8920   9.141   4.140   0.651
   53GLOH    O3 8921   9.231   4.269   0.513
   53GLOH   H01 8922   9.236   4.183   0.463
   54GLOH   H03 8923   3.500   2.125   2.307
   54GLOH    O1 8924   3.528   2.067   2.234
   54GLOH    C1 8925   3.664   2.099   2.197
   54GLOH   H02 8926   3.713   2.010   2.157
   54GLOH   H08 8927   3.721   2.130   2.284
   54GLOH    C2 8928   3.670   2.209   2.090
   54GLOH   H04 8929   3.616   2.173   2.001
   54GLOH    O2 8930   3.608   2.331   2.136
   54GLOH   H05 8931   3.508   2.324   2.129
   54GLOH    C3 8932   3.816   2.237   2.051
   54GLOH   H06 8933   3.871   2.266   2.141
   54GLOH   H07 8934   3.819   2.323   1.984
   54GLOH    O3 8935   3.879   2.123   1.989
   54GLOH   H01 8936   3.961   2.105   2.043
   55GLOH   H03 8937   1.065   9.282   1.663
   55GLOH    O1 8938   1.039   9.306   1.756
   55GLOH    C1 8939   1.130   9.238   1.845
   55GLOH   H02 8940   1.086   9.145   1.881
   55GLOH   H08 8941   1.149   9.300   1.932
   55GLOH    C2 8942   1.266   9.206   1.778
   55GLOH   H04 8943   1.314   9.302   1.753
   55GLOH    O2 8944   1.354   9.131   1.865
   55GLOH   H05 8945   1.443   9.126   1.818
   55GLOH    C3 8946   1.241   9.129   1.647
   55GLOH   H06 8947   1.189   9.036   1.670
   55GLOH   H07 8948   1.337   9.102   1.603
   55GLOH    O3 8949   1.165   9.208   1.555
   55GLOH   H01 8950   1.219   9.223   1.473
   56GLOH   H03 8951   9.493   4.529   2.103
   56GLOH    O1 8952   9.570   4.575   2.059
   56GLOH    C1 8953   9.564   4.552   1.917
   56GLOH   H02 8954   9.619   4.630   1.865
   56GLOH   H08 8955   9.462   4.557   1.881
   56GLOH    C2 8956   9.622   4.416   1.873
   56GLOH   H04 8957   9.596   4.400   1.767
   56GLOH    O2 8958   9.766   4.413   1.887
   56GLOH   H05 8959   9.810   4.469   1.816
   56GLOH    C3 8960   9.562   4.300   1.954
   56GLOH   H06 8961   9.605   4.302   2.054
   56GLOH   H07 8962   9.594   4.206   1.908
   56GLOH    O3 8963   9.418   4.303   1.961
   56GLOH   H01 8964   9.393   4.364   2.035
   57GLOH   H03 8965   3.008   7.032   1.551
   57GLOH    O1 8966   2.935   7.033   1.484
   57GLOH    C1 8967   2.808   7.020   1.551
   57GLOH   H02 8968   2.816   6.955   1.638
   57GLOH   H08 8969   2.736   6.972   1.484
   57GLOH    C2 8970   2.748   7.154   1.597
   57GLOH   H04 8971   2.730   7.217   1.508
   57GLOH    O2 8972   2.622   7.129   1.662
   57GLOH   H05 8973   2.568   7.215   1.660
   57GLOH    C3 8974   2.846   7.229   1.689
   57GLOH   H06 8975   2.939   7.245   1.634
   57GLOH   H07 8976   2.869   7.165   1.774
   57GLOH    O3 8977   2.796   7.356   1.736
   57GLOH   H01 8978   2.873   7.409   1.772
   58GLOH   H03 8979   0.495   7.203   2.439
   58GLOH    O1 8980   0.557   7.278   2.432
   58GLOH    C1 8981   0.591   7.299   2.293
   58GLOH   H02 8982   0.507   7.343   2.240
   58GLOH   H08 8983   0.612   7.203   2.244
   58GLOH    C2 8984   0.713   7.390   2.276
   58GLOH   H04 8985   0.721   7.417   2.170
   58GLOH    O2 8986   0.696   7.512   2.352
   58GLOH   H05 8987   0.650   7.485   2.435
   58GLOH    C3 8988   0.843   7.318   2.317
   58GLOH   H06 8989   0.835   7.290   2.422
   58GLOH   H07 8990   0.926   7.389   2.309
   58GLOH    O3 8991   0.870   7.202   2.236
   58GLOH   H01 8992   0.853   7.223   2.141
   59GLOH   H03 8993   3.310   4.608   0.076
   59GLOH    O1 8994   3.293   4.676   0.009
   59GLOH    C1 8995   3.325   4.626   2.706
   59GLOH   H02 8996   3.256   4.546   2.678
   59GLOH   H08 8997   3.426   4.583   2.704
   59GLOH    C2 8998   3.317   4.735   2.598
   59GLOH   H04 8999   3.336   4.687   2.501
   59GLOH    O2 9000   3.185   4.793   2.595
   59GLOH   H05 9001   3.160   4.813   2.688
   59GLOH    C3 9002   3.426   4.841   2.619
   59GLOH   H06 9003   3.426   4.871   2.724
   59GLOH   H07 9004   3.400   4.930   2.562
   59GLOH    O3 9005   3.557   4.793   2.582
   59GLOH   H01 9006   3.550   4.736   2.503
   60GLOH   H03 9007   4.996   3.298   0.715
   60GLOH    O1 9008   4.906   3.267   0.740
   60GLOH    C1 9009   4.910   3.125   0.758
   60GLOH   H02 9010   4.997   3.096   0.817
   60GLOH   H08 9011   4.919   3.075   0.662
   60GLOH    C2 9012   4.785   3.070   0.829
   60GLOH   H04 9013   4.697   3.098   0.768
   60GLOH    O2 9014   4.790   2.926   0.839
   60GLOH   H05 9015   4.737   2.900   0.917
   60GLOH    C3 9016   4.769   3.133   0.968
   60GLOH   H06 9017   4.760   3.241   0.956
   60GLOH   H07 9018   4.861   3.115   1.025
   60GLOH    O3 9019   4.655   3.082   1.039
   60GLOH   H01 9020   4.575   3.104   0.985
   61GLOH   H03 9021   3.282   5.216   1.732
   61GLOH    O1 9022   3.324   5.298   1.693
   61GLOH    C1 9023   3.382   5.270   1.564
   61GLOH   H02 9024   3.412   5.364   1.517
   61GLOH   H08 9025   3.308   5.225   1.498
   61GLOH    C2 9026   3.505   5.177   1.569
   61GLOH   H04 9027   3.470   5.079   1.603
   61GLOH    O2 9028   3.561   5.161   1.436
   61GLOH   H05 9029   3.651   5.119   1.444
   61GLOH    C3 9030   3.609   5.229   1.670
   61GLOH   H06 9031   3.560   5.243   1.767
   61GLOH   H07 9032   3.643   5.327   1.638
   61GLOH    O3 9033   3.722   5.140   1.685
   61GLOH   H01 9034   3.691   5.056   1.729
   62GLOH   H03 9035   3.516   2.743   0.591
   62GLOH    O1 9036   3.441   2.680   0.584
   62GLOH    C1 9037   3.320   2.747   0.625
   62GLOH   H02 9038   3.311   2.744   0.734
   62GLOH   H08 9039   3.233   2.695   0.585
   62GLOH    C2 9040   3.314   2.894   0.579
   62GLOH   H04 9041   3.328   2.897   0.470
   62GLOH    O2 9042   3.187   2.953   0.613
   62GLOH   H05 9043   3.116   2.900   0.564
   62GLOH    C3 9044   3.429   2.973   0.645
   62GLOH   H06 9045   3.413   2.975   0.753
   62GLOH   H07 9046   3.423   3.077   0.611
   62GLOH    O3 9047   3.557   2.917   0.613
   62GLOH   H01 9048   3.611   2.916   0.698
   63GLOH   H03 9049   9.509   5.131   1.527
   63GLOH    O1 9050   9.546   5.124   1.435
   63GLOH    C1 9051   9.507   5.241   1.361
   63GLOH   H02 9052   9.534   5.331   1.416
   63GLOH   H08 9053   9.398   5.244   1.349
   63GLOH    C2 9054   9.571   5.248   1.221
   63GLOH   H04 9055   9.535   5.161   1.164
   63GLOH    O2 9056   9.529   5.368   1.154
   63GLOH   H05 9057   9.603   5.434   1.155
   63GLOH    C3 9058   9.725   5.238   1.231
   63GLOH   H06 9059   9.765   5.232   1.130
   63GLOH   H07 9060   9.751   5.145   1.280
   63GLOH    O3 9061   9.784   5.350   1.300
   63GLOH   H01 9062   9.789   5.425   1.236
   64GLOH   H03 9063   8.789   2.802   0.187
   64GLOH    O1 9064   8.754   2.795   0.278
   64GLOH    C1 9065   8.816   2.682   0.344
   64GLOH   H02 9066   8.914   2.711   0.383
   64GLOH   H08 9067   8.833   2.601   0.273
   64GLOH    C2 9068   8.731   2.628   0.460
   64GLOH   H04 9069   8.716   2.709   0.533
   64GLOH    O2 9070   8.602   2.584   0.411
   64GLOH   H05 9071   8.569   2.655   0.353
   64GLOH    C3 9072   8.807   2.514   0.530
   64GLOH   H06 9073   8.830   2.436   0.457
   64GLOH   H07 9074   8.742   2.469   0.605
   64GLOH    O3 9075   8.928   2.563   0.592
   64GLOH   H01 9076   9.001   2.496   0.585
   65GLOH   H03 9077   1.305   9.696   2.730
   65GLOH    O1 9078   1.307   9.599   2.720
   65GLOH    C1 9079   1.442   9.555   2.697
   65GLOH   H02 9080   1.507   9.586   2.779
   65GLOH   H08 9081   1.482   9.600   2.606
   65GLOH    C2 9082   1.451   9.402   2.684
   65GLOH   H04 9083   1.417   9.356   2.778
   65GLOH    O2 9084   1.366   9.357   2.576
   65GLOH   H05 9085   1.279   9.397   2.590
   65GLOH    C3 9086   1.596   9.359   2.659
   65GLOH   H06 9087   1.629   9.399   2.563
   65GLOH   H07 9088   1.599   9.250   2.651
   65GLOH    O3 9089   1.684   9.403   2.764
   65GLOH   H01 9090   1.775   9.376   2.744
   66GLOH   H03 9091   3.955   0.366   2.784
   66GLOH    O1 9092   3.975   0.301   2.713
   66GLOH    C1 9093   4.117   0.294   2.697
   66GLOH   H02 9094   4.150   0.368   2.624
   66GLOH   H08 9095   4.146   0.196   2.658
   66GLOH    C2 9096   4.193   0.318   0.001
   66GLOH   H04 9097   4.166   0.238   0.072
   66GLOH    O2 9098   4.335   0.315   2.806
   66GLOH   H05 9099   4.380   0.280   0.057
   66GLOH    C3 9100   4.151   0.453   0.061
   66GLOH   H06 9101   4.180   0.532   2.820
   66GLOH   H07 9102   4.208   0.470   0.153
   66GLOH    O3 9103   4.009   0.461   0.088
   66GLOH   H01 9104   3.995   0.516   0.168
   67GLOH   H03 9105   9.455   4.074   2.270
   67GLOH    O1 9106   9.511   4.065   2.352
   67GLOH    C1 9107   9.599   4.179   2.364
   67GLOH   H02 9108   9.581   4.230   2.458
   67GLOH   H08 9109   9.579   4.251   2.284
   67GLOH    C2 9110   9.748   4.141   2.357
   67GLOH   H04 9111   9.768   4.096   2.259
   67GLOH    O2 9112   9.828   4.259   2.374
   67GLOH   H05 9113   9.800   4.328   2.308
   67GLOH    C3 9114   9.781   4.037   2.466
   67GLOH   H06 9115   9.771   4.084   2.564
   67GLOH   H07 9116   9.885   4.007   2.455
   67GLOH    O3 9117   9.695   3.922   2.457
   67GLOH   H01 9118   9.609   3.956   2.421
   68GLOH   H03 9119   9.766   1.625   1.542
   68GLOH    O1 9120   9.826   1.589   1.472
   68GLOH    C1 9121   9.776   1.459   1.436
   68GLOH   H02 9122   9.824   1.382   1.498
   68GLOH   H08 9123   9.802   1.436   1.333
   68GLOH    C2 9124   9.623   1.446   1.452
   68GLOH   H04 9125   9.576   1.514   1.379
   68GLOH    O2 9126   9.581   1.311   1.425
   68GLOH   H05 9127   9.550   1.304   1.330
   68GLOH    C3 9128   9.581   1.490   1.594
   68GLOH   H06 9129   9.626   1.422   1.666
   68GLOH   H07 9130   9.473   1.479   1.602
   68GLOH    O3 9131   9.620   1.626   1.622
   68GLOH   H01 9132   9.584   1.650   1.712
   69GLOH   H03 9133   4.861   3.655   1.807
   69GLOH    O1 9134   4.832   3.709   1.885
   69GLOH    C1 9135   4.885   3.643   2.002
   69GLOH   H02 9136   4.990   3.617   1.988
   69GLOH   H08 9137   4.831   3.550   2.017
   69GLOH    C2 9138   4.872   3.725   2.132
   69GLOH   H04 9139   4.765   3.735   2.156
   69GLOH    O2 9140   4.939   3.657   2.239
   69GLOH   H05 9141   4.915   3.560   2.237
   69GLOH    C3 9142   4.930   3.867   2.114
   69GLOH   H06 9143   5.038   3.858   2.099
   69GLOH   H07 9144   4.915   3.923   2.206
   69GLOH    O3 9145   4.869   3.934   2.003
   69GLOH   H01 9146   4.857   3.866   1.933
   70GLOH   H03 9147   5.506   3.610   0.332
   70GLOH    O1 9148   5.507   3.661   0.416
   70GLOH    C1 9149   5.379   3.647   0.481
   70GLOH   H02 9150   5.387   3.674   0.586
   70GLOH   H08 9151   5.346   3.543   0.477
   70GLOH    C2 9152   5.271   3.736   0.416
   70GLOH   H04 9153   5.263   3.709   0.310
   70GLOH    O2 9154   5.144   3.712   0.481
   70GLOH   H05 9155   5.111   3.620   0.460
   70GLOH    C3 9156   5.309   3.884   0.428
   70GLOH   H06 9157   5.409   3.898   0.386
   70GLOH   H07 9158   5.315   3.911   0.533
   70GLOH    O3 9159   5.216   3.970   0.360
   70GLOH   H01 9160   5.125   3.951   0.393
   71GLOH   H03 9161   8.948   3.970   1.614
   71GLOH    O1 9162   8.924   4.014   1.700
   71GLOH    C1 9163   8.912   3.909   1.798
   71GLOH   H02 9164   8.813   3.865   1.795
   71GLOH   H08 9165   8.926   3.949   1.898
   71GLOH    C2 9166   9.015   3.796   1.775
   71GLOH   H04 9167   9.116   3.839   1.784
   71GLOH    O2 9168   8.998   3.694   1.875
   71GLOH   H05 9169   9.067   3.621   1.860
   71GLOH    C3 9170   8.999   3.738   1.634
   71GLOH   H06 9171   8.903   3.686   1.629
   71GLOH   H07 9172   9.076   3.662   1.619
   71GLOH    O3 9173   9.006   3.839   1.532
   71GLOH   H01 9174   9.084   3.817   1.474
   72GLOH   H03 9175   8.581   2.158   0.883
   72GLOH    O1 9176   8.539   2.069   0.893
   72GLOH    C1 9177   8.560   2.025   1.029
   72GLOH   H02 9178   8.665   2.039   1.057
   72GLOH   H08 9179   8.541   1.918   1.036
   72GLOH    C2 9180   8.474   2.096   1.136
   72GLOH   H04 9181   8.513   2.063   1.233
   72GLOH    O2 9182   8.488   2.239   1.131
   72GLOH   H05 9183   8.427   2.276   1.062
   72GLOH    C3 9184   8.326   2.052   1.132
   72GLOH   H06 9185   8.272   2.107   1.209
   72GLOH   H07 9186   8.321   1.947   1.161
   72GLOH    O3 9187   8.261   2.070   1.005
   72GLOH   H01 9188   8.285   1.993   0.946
   73GLOH   H03 9189   3.074   5.147   1.061
   73GLOH    O1 9190   3.018   5.136   0.979
   73GLOH    C1 9191   3.078   5.209   0.870
   73GLOH   H02 9192   3.185   5.190   0.865
   73GLOH   H08 9193   3.065   5.316   0.884
   73GLOH    C2 9194   3.013   5.168   0.736
   73GLOH   H04 9195   2.905   5.185   0.746
   73GLOH    O2 9196   3.060   5.247   0.625
   73GLOH   H05 9197   3.006   5.222   0.545
   73GLOH    C3 9198   3.033   5.018   0.710
   73GLOH   H06 9199   2.989   4.995   0.614
   73GLOH   H07 9200   2.974   4.963   0.784
   73GLOH    O3 9201   3.170   4.971   0.713
   73GLOH   H01 9202   3.224   5.015   0.643
   74GLOH   H03 9203   9.262   4.851   1.735
   74GLOH    O1 9204   9.300   4.760   1.753
   74GLOH    C1 9205   9.317   4.693   1.627
   74GLOH   H02 9206   9.363   4.595   1.643
   74GLOH   H08 9207   9.386   4.749   1.563
   74GLOH    C2 9208   9.185   4.674   1.551
   74GLOH   H04 9209   9.114   4.622   1.618
   74GLOH    O2 9210   9.128   4.801   1.512
   74GLOH   H05 9211   9.184   4.841   1.438
   74GLOH    C3 9212   9.207   4.584   1.428
   74GLOH   H06 9213   9.276   4.635   1.359
   74GLOH   H07 9214   9.113   4.573   1.375
   74GLOH    O3 9215   9.259   4.455   1.463
   74GLOH   H01 9216   9.192   4.408   1.519
   75GLOH   H03 9217   0.074   3.578   2.360
   75GLOH    O1 9218   9.983   3.600   2.390
   75GLOH    C1 9219   9.935   3.702   2.301
   75GLOH   H02 9220   9.990   3.795   2.316
   75GLOH   H08 9221   9.830   3.724   2.320
   75GLOH    C2 9222   9.952   3.657   2.155
   75GLOH   H04 9223   9.903   3.559   2.145
   75GLOH    O2 9224   9.890   3.750   2.062
   75GLOH   H05 9225   9.939   3.838   2.069
   75GLOH    C3 9226   0.101   3.637   2.123
   75GLOH   H06 9227   0.152   3.734   2.127
   75GLOH   H07 9228   0.110   3.601   2.021
   75GLOH    O3 9229   0.163   3.544   2.214
   75GLOH   H01 9230   0.166   3.454   2.173
   76GLOH   H03 9231   1.494   0.327   0.628
   76GLOH    O1 9232   1.530   0.236   0.645
   76GLOH    C1 9233   1.537   0.230   0.789
   76GLOH   H02 9234   1.438   0.210   0.829
   76GLOH   H08 9235   1.568   0.328   0.828
   76GLOH    C2 9236   1.635   0.126   0.846
   76GLOH   H04 9237   1.732   0.138   0.794
   76GLOH    O2 9238   1.654   0.149   0.987
   76GLOH   H05 9239   1.584   0.213   1.019
   76GLOH    C3 9240   1.584   9.983   0.819
   76GLOH   H06 9241   1.660   9.913   0.854
   76GLOH   H07 9242   1.577   9.969   0.711
   76GLOH    O3 9243   1.457   9.954   0.880
   76GLOH   H01 9244   1.448   9.854   0.875
   77GLOH   H03 9245   2.450   1.836   1.805
   77GLOH    O1 9246   2.455   1.775   1.726
   77GLOH    C1 9247   2.357   1.821   1.633
   77GLOH   H02 9248   2.391   1.913   1.585
   77GLOH   H08 9249   2.264   1.846   1.684
   77GLOH    C2 9250   2.324   1.717   1.524
   77GLOH   H04 9251   2.419   1.680   1.483
   77GLOH    O2 9252   2.249   1.606   1.577
   77GLOH   H05 9253   2.299   1.566   1.654
   77GLOH    C3 9254   2.246   1.784   1.409
   77GLOH   H06 9255   2.156   1.828   1.450
   77GLOH   H07 9256   2.215   1.706   1.339
   77GLOH    O3 9257   2.325   1.883   1.342
   77GLOH   H01 9258   2.294   1.888   1.248
   78GLOH   H03 9259   4.246   4.350   1.655
   78GLOH    O1 9260   4.163   4.298   1.669
   78GLOH    C1 9261   4.180   4.164   1.622
   78GLOH   H02 9262   4.240   4.107   1.692
   78GLOH   H08 9263   4.233   4.163   1.527
   78GLOH    C2 9264   4.045   4.091   1.601
   78GLOH   H04 9265   3.983   4.108   1.690
   78GLOH    O2 9266   3.974   4.141   1.485
   78GLOH   H05 9267   3.974   4.241   1.489
   78GLOH    C3 9268   4.069   3.939   1.588
   78GLOH   H06 9269   4.130   3.922   1.500
   78GLOH   H07 9270   3.972   3.891   1.570
   78GLOH    O3 9271   4.131   3.883   1.705
   78GLOH   H01 9272   4.190   3.810   1.674
   79GLOH   H03 9273   4.926   1.552   0.238
   79GLOH    O1 9274   4.918   1.453   0.239
   79GLOH    C1 9275   4.823   1.420   0.136
   79GLOH   H02 9276   4.722   1.419   0.177
   79GLOH   H08 9277   4.843   1.321   0.096
   79GLOH    C2 9278   4.828   1.522   0.019
   79GLOH   H04 9279   4.929   1.521   2.805
   79GLOH    O2 9280   4.733   1.486   2.744
   79GLOH   H05 9281   4.755   1.536   2.662
   79GLOH    C3 9282   4.800   1.663   0.075
   79GLOH   H06 9283   4.697   1.666   0.112
   79GLOH   H07 9284   4.806   1.734   2.821
   79GLOH    O3 9285   4.892   1.698   0.179
   79GLOH   H01 9286   4.853   1.771   0.234
   80GLOH   H03 9287   2.883   3.699   1.987
   80GLOH    O1 9288   2.944   3.766   2.029
   80GLOH    C1 9289   3.034   3.698   2.119
   80GLOH   H02 9290   2.977   3.636   2.189
   80GLOH   H08 9291   3.088   3.770   2.179
   80GLOH    C2 9292   3.138   3.606   2.051
   80GLOH   H04 9293   3.208   3.573   2.130
   80GLOH    O2 9294   3.081   3.488   1.991
   80GLOH   H05 9295   3.151   3.418   1.990
   80GLOH    C3 9296   3.220   3.683   1.946
   80GLOH   H06 9297   3.151   3.732   1.877
   80GLOH   H07 9298   3.277   3.611   1.887
   80GLOH    O3 9299   3.308   3.779   2.006
   80GLOH   H01 9300   3.401   3.753   1.982
   81GLOH   H03 9301   0.120   3.429   1.349
   81GLOH    O1 9302   0.211   3.426   1.309
   81GLOH    C1 9303   0.301   3.491   1.401
   81GLOH   H02 9304   0.400   3.500   1.355
   81GLOH   H08 9305   0.313   3.429   1.490
   81GLOH    C2 9306   0.257   3.632   1.446
   81GLOH   H04 9307   0.157   3.624   1.492
   81GLOH    O2 9308   0.350   3.679   1.545
   81GLOH   H05 9309   0.340   3.779   1.558
   81GLOH    C3 9310   0.248   3.733   1.329
   81GLOH   H06 9311   0.348   3.743   1.286
   81GLOH   H07 9312   0.222   3.830   1.370
   81GLOH    O3 9313   0.153   3.696   1.228
   81GLOH   H01 9314   0.196   3.626   1.171
   82GLOH   H03 9315   0.437   1.268   1.071
   82GLOH    O1 9316   0.494   1.284   1.151
   82GLOH    C1 9317   0.410   1.310   1.266
   82GLOH   H02 9318   0.443   1.401   1.316
   82GLOH   H08 9319   0.422   1.230   1.339
   82GLOH    C2 9320   0.259   1.324   1.237
   82GLOH   H04 9321   0.227   1.234   1.181
   82GLOH    O2 9322   0.182   1.331   1.359
   82GLOH   H05 9323   0.224   1.398   1.420
   82GLOH    C3 9324   0.229   1.446   1.148
   82GLOH   H06 9325   0.126   1.437   1.111
   82GLOH   H07 9326   0.294   1.441   1.060
   82GLOH    O3 9327   0.247   1.572   1.213
   82GLOH   H01 9328   0.168   1.590   1.271
   83GLOH   H03 9329   3.372   9.020   0.593
   83GLOH    O1 9330   3.303   9.090   0.574
   83GLOH    C1 9331   3.367   9.190   0.493
   83GLOH   H02 9332   3.414   9.143   0.407
   83GLOH   H08 9333   3.447   9.239   0.549
   83GLOH    C2 9334   3.271   9.300   0.441
   83GLOH   H04 9335   3.181   9.251   0.401
   83GLOH    O2 9336   3.231   9.391   0.547
   83GLOH   H05 9337   3.173   9.463   0.509
   83GLOH    C3 9338   3.337   9.378   0.326
   83GLOH   H06 9339   3.427   9.427   0.365
   83GLOH   H07 9340   3.269   9.456   0.294
   83GLOH    O3 9341   3.371   9.292   0.217
   83GLOH   H01 9342   3.396   9.344   0.137
   84GLOH   H03 9343   9.227   3.439   0.904
   84GLOH    O1 9344   9.272   3.518   0.943
   84GLOH    C1 9345   9.414   3.495   0.940
   84GLOH   H02 9346   9.466   3.582   0.980
   84GLOH   H08 9347   9.448   3.482   0.837
   84GLOH    C2 9348   9.458   3.371   1.020
   84GLOH   H04 9349   9.431   3.387   1.125
   84GLOH    O2 9350   9.392   3.252   0.971
   84GLOH   H05 9351   9.458   3.177   0.958
   84GLOH    C3 9352   9.612   3.357   1.012
   84GLOH   H06 9353   9.639   3.340   0.908
   84GLOH   H07 9354   9.641   3.269   1.068
   84GLOH    O3 9355   9.680   3.473   1.063
   84GLOH   H01 9356   9.767   3.483   1.016
   85GLOH   H03 9357   4.545   3.880   1.798
   85GLOH    O1 9358   4.542   3.945   1.723
   85GLOH    C1 9359   4.537   4.077   1.779
   85GLOH   H02 9360   4.623   4.095   1.844
   85GLOH   H08 9361   4.447   4.088   1.840
   85GLOH    C2 9362   4.535   4.184   1.669
   85GLOH   H04 9363   4.447   4.167   1.605
   85GLOH    O2 9364   4.525   4.314   1.731
   85GLOH   H05 9365   4.471   4.373   1.671
   85GLOH    C3 9366   4.661   4.171   1.580
   85GLOH   H06 9367   4.675   4.066   1.555
   85GLOH   H07 9368   4.748   4.199   1.641
   85GLOH    O3 9369   4.656   4.250   1.460
   85GLOH   H01 9370   4.719   4.208   1.395
   86GLOH   H03 9371   2.931   7.099   1.345
   86GLOH    O1 9372   2.914   7.134   1.253
   86GLOH    C1 9373   3.013   7.233   1.218
   86GLOH   H02 9374   3.020   7.244   1.110
   86GLOH   H08 9375   3.112   7.202   1.252
   86GLOH    C2 9376   2.983   7.372   1.278
   86GLOH   H04 9377   3.004   7.366   1.386
   86GLOH    O2 9378   3.068   7.474   1.221
   86GLOH   H05 9379   3.165   7.450   1.226
   86GLOH    C3 9380   2.834   7.409   1.262
   86GLOH   H06 9381   2.820   7.507   1.308
   86GLOH   H07 9382   2.775   7.339   1.320
   86GLOH    O3 9383   2.788   7.413   1.125
   86GLOH   H01 9384   2.814   7.331   1.078
   87GLOH   H03 9385   0.228   0.545   2.117
   87GLOH    O1 9386   0.234   0.495   2.203
   87GLOH    C1 9387   0.344   0.403   2.194
   87GLOH   H02 9388   0.438   0.456   2.183
   87GLOH   H08 9389   0.332   0.339   2.106
   87GLOH    C2 9390   0.357   0.311   2.318
   87GLOH   H04 9391   0.266   0.249   2.324
   87GLOH    O2 9392   0.472   0.226   2.306
   87GLOH   H05 9393   0.477   0.185   2.215
   87GLOH    C3 9394   0.367   0.397   2.445
   87GLOH   H06 9395   0.459   0.454   2.442
   87GLOH   H07 9396   0.373   0.331   2.532
   87GLOH    O3 9397   0.254   0.485   2.457
   87GLOH   H01 9398   0.227   0.505   2.364
   88GLOH   H03 9399   3.755   4.048   0.747
   88GLOH    O1 9400   3.704   3.963   0.760
   88GLOH    C1 9401   3.592   3.961   0.668
   88GLOH   H02 9402   3.549   4.060   0.658
   88GLOH   H08 9403   3.514   3.896   0.707
   88GLOH    C2 9404   3.633   3.909   0.529
   88GLOH   H04 9405   3.699   3.823   0.542
   88GLOH    O2 9406   3.518   3.868   0.453
   88GLOH   H05 9407   3.535   3.779   0.413
   88GLOH    C3 9408   3.711   4.017   0.451
   88GLOH   H06 9409   3.648   4.106   0.444
   88GLOH   H07 9410   3.727   3.982   0.349
   88GLOH    O3 9411   3.836   4.051   0.512
   88GLOH   H01 9412   3.892   3.970   0.523
   89GLOH   H03 9413   0.287   6.091   1.748
   89GLOH    O1 9414   0.375   6.128   1.719
   89GLOH    C1 9415   0.380   6.267   1.758
   89GLOH   H02 9416   0.306   6.325   1.703
   89GLOH   H08 9417   0.477   6.310   1.731
   89GLOH    C2 9418   0.361   6.290   1.909
   89GLOH   H04 9419   0.269   6.237   1.939
   89GLOH    O2 9420   0.472   6.237   1.984
   89GLOH   H05 9421   0.496   6.146   1.947
   89GLOH    C3 9422   0.342   6.440   1.938
   89GLOH   H06 9423   0.427   6.494   1.897
   89GLOH   H07 9424   0.345   6.454   2.046
   89GLOH    O3 9425   0.219   6.493   1.885
   89GLOH   H01 9426   0.223   6.591   1.896
   90GLOH   H03 9427   3.038   6.049   1.791
   90GLOH    O1 9428   3.066   6.082   1.881
   90GLOH    C1 9429   3.184   6.010   1.920
   90GLOH   H02 9430   3.273   6.062   1.885
   90GLOH   H08 9431   3.186   5.911   1.873
   90GLOH    C2 9432   3.197   5.988   2.072
   90GLOH   H04 9433   3.121   5.914   2.102
   90GLOH    O2 9434   3.327   5.937   2.107
   90GLOH   H05 9435   3.327   5.914   2.204
   90GLOH    C3 9436   3.167   6.118   2.149
   90GLOH   H06 9437   3.243   6.192   2.123
   90GLOH   H07 9438   3.176   6.099   2.256
   90GLOH    O3 9439   3.036   6.165   2.115
   90GLOH   H01 9440   3.029   6.147   2.018
   91GLOH   H03 9441   4.626   0.944   0.676
   91GLOH    O1 9442   4.620   0.863   0.733
   91GLOH    C1 9443   4.619   0.746   0.649
   91GLOH   H02 9444   4.639   0.657   0.709
   91GLOH   H08 9445   4.698   0.752   0.574
   91GLOH    C2 9446   4.485   0.728   0.576
   91GLOH   H04 9447   4.469   0.816   0.512
   91GLOH    O2 9448   4.489   0.610   0.494
   91GLOH   H05 9449   4.398   0.589   0.466
   91GLOH    C3 9450   4.369   0.720   0.677
   91GLOH   H06 9451   4.372   0.810   0.740
   91GLOH   H07 9452   4.386   0.635   0.743
   91GLOH    O3 9453   4.240   0.711   0.613
   91GLOH   H01 9454   4.219   0.801   0.577
   92GLOH   H03 9455   2.938   5.978   2.648
   92GLOH    O1 9456   2.987   5.911   2.704
   92GLOH    C1 9457   2.895   5.859   2.802
   92GLOH   H02 9458   2.814   5.804   2.752
   92GLOH   H08 9459   2.848   5.940   0.030
   92GLOH    C2 9460   2.961   5.763   0.075
   92GLOH   H04 9461   2.880   5.711   0.128
   92GLOH    O2 9462   3.041   5.664   0.008
   92GLOH   H05 9463   3.057   5.696   2.745
   92GLOH    C3 9464   3.043   5.839   0.181
   92GLOH   H06 9465   3.104   5.914   0.130
   92GLOH   H07 9466   3.112   5.770   0.229
   92GLOH    O3 9467   2.959   5.902   0.280
   92GLOH   H01 9468   2.911   5.831   0.328
   93GLOH   H03 9469   0.042   6.001   0.949
   93GLOH    O1 9470   0.076   5.979   0.858
   93GLOH    C1 9471   0.213   5.936   0.868
   93GLOH   H02 9472   0.234   5.898   0.968
   93GLOH   H08 9473   0.280   6.019   0.850
   93GLOH    C2 9474   0.244   5.824   0.766
   93GLOH   H04 9475   0.220   5.861   0.666
   93GLOH    O2 9476   0.384   5.788   0.771
   93GLOH   H05 9477   0.410   5.766   0.866
   93GLOH    C3 9478   0.155   5.701   0.794
   93GLOH   H06 9479   0.185   5.658   0.890
   93GLOH   H07 9480   0.173   5.626   0.717
   93GLOH    O3 9481   0.016   5.738   0.797
   93GLOH   H01 9482   0.015   5.836   0.812
   94GLOH   H03 9483   1.211   7.392   2.320
   94GLOH    O1 9484   1.242   7.331   2.393
   94GLOH    C1 9485   1.221   7.398   2.519
   94GLOH   H02 9486   1.147   7.478   2.508
   94GLOH   H08 9487   1.313   7.445   2.552
   94GLOH    C2 9488   1.172   7.301   2.628
   94GLOH   H04 9489   1.139   7.362   2.714
   94GLOH    O2 9490   1.059   7.225   2.581
   94GLOH   H05 9491   1.064   7.226   2.482
   94GLOH    C3 9492   1.286   7.209   2.676
   94GLOH   H06 9493   1.323   7.153   2.590
   94GLOH   H07 9494   1.244   7.137   2.746
   94GLOH    O3 9495   1.392   7.283   2.738
   94GLOH   H01 9496   1.465   7.223   2.760
   95GLOH   H03 9497   8.954   2.668   0.697
   95GLOH    O1 9498   8.986   2.737   0.761
   95GLOH    C1 9499   9.088   2.815   0.695
   95GLOH   H02 9500   9.076   2.920   0.718
   95GLOH   H08 9501   9.078   2.805   0.587
   95GLOH    C2 9502   9.230   2.770   0.734
   95GLOH   H04 9503   9.241   2.663   0.710
   95GLOH    O2 9504   9.329   2.846   0.663
   95GLOH   H05 9505   9.303   2.852   0.566
   95GLOH    C3 9506   9.249   2.787   0.886
   95GLOH   H06 9507   9.250   2.894   0.910
   95GLOH   H07 9508   9.346   2.747   0.914
   95GLOH    O3 9509   9.145   2.720   0.958
   95GLOH   H01 9510   9.068   2.718   0.895
   96GLOH   H03 9511   4.100   8.426   0.495
   96GLOH    O1 9512   4.064   8.518   0.506
   96GLOH    C1 9513   3.927   8.515   0.464
   96GLOH   H02 9514   3.917   8.459   0.371
   96GLOH   H08 9515   3.893   8.617   0.443
   96GLOH    C2 9516   3.833   8.452   0.569
   96GLOH   H04 9517   3.733   8.447   0.523
   96GLOH    O2 9518   3.871   8.318   0.606
   96GLOH   H05 9519   3.965   8.302   0.575
   96GLOH    C3 9520   3.822   8.545   0.691
   96GLOH   H06 9521   3.922   8.572   0.724
   96GLOH   H07 9522   3.775   8.490   0.773
   96GLOH    O3 9523   3.745   8.663   0.661
   96GLOH   H01 9524   3.649   8.635   0.660
   97GLOH   H03 9525   4.391   3.924   0.741
   97GLOH    O1 9526   4.360   3.870   0.819
   97GLOH    C1 9527   4.436   3.907   0.936
   97GLOH   H02 9528   4.403   3.847   1.021
   97GLOH   H08 9529   4.415   4.011   0.962
   97GLOH    C2 9530   4.589   3.891   0.923
   97GLOH   H04 9531   4.621   3.942   0.831
   97GLOH    O2 9532   4.655   3.953   1.036
   97GLOH   H05 9533   4.754   3.941   1.027
   97GLOH    C3 9534   4.633   3.743   0.913
   97GLOH   H06 9535   4.600   3.691   1.003
   97GLOH   H07 9536   4.742   3.740   0.914
   97GLOH    O3 9537   4.585   3.676   0.795
   97GLOH   H01 9538   4.634   3.590   0.785
   98GLOH   H03 9539   0.223   4.697   0.646
   98GLOH    O1 9540   0.309   4.746   0.650
   98GLOH    C1 9541   0.307   4.834   0.764
   98GLOH   H02 9542   0.408   4.861   0.791
   98GLOH   H08 9543   0.264   4.783   0.850
   98GLOH    C2 9544   0.228   4.964   0.739
   98GLOH   H04 9545   0.222   5.019   0.834
   98GLOH    O2 9546   0.297   5.045   0.642
   98GLOH   H05 9547   0.277   5.010   0.550
   98GLOH    C3 9548   0.084   4.935   0.692
   98GLOH   H06 9549   0.088   4.901   0.588
   98GLOH   H07 9550   0.030   5.030   0.692
   98GLOH    O3 9551   0.016   4.838   0.773
   98GLOH   H01 9552   0.039   4.748   0.737
   99GLOH   H03 9553   8.628   2.450   1.827
   99GLOH    O1 9554   8.540   2.405   1.844
   99GLOH    C1 9555   8.509   2.324   1.730
   99GLOH   H02 9556   8.440   2.244   1.757
   99GLOH   H08 9557   8.599   2.276   1.692
   99GLOH    C2 9558   8.446   2.405   1.615
   99GLOH   H04 9559   8.518   2.484   1.585
   99GLOH    O2 9560   8.419   2.320   1.502
   99GLOH   H05 9561   8.414   2.377   1.419
   99GLOH    C3 9562   8.316   2.473   1.662
   99GLOH   H06 9563   8.241   2.396   1.679
   99GLOH   H07 9564   8.280   2.537   1.582
   99GLOH    O3 9565   8.338   2.549   1.782
   99GLOH   H01 9566   8.417   2.509   1.825
  100GLOH   H03 9567   3.195   7.928   2.593
  100GLOH    O1 9568   3.178   8.024   2.600
  100GLOH    C1 9569   3.305   8.089   2.617
  100GLOH   H02 9570   3.346   8.065   2.715
  100GLOH   H08 9571   3.293   8.197   2.613
  100GLOH    C2 9572   3.409   8.047   2.511
  100GLOH   H04 9573   3.504   8.096   2.535
  100GLOH    O2 9574   3.428   7.904   2.514
  100GLOH   H05 9575   3.421   7.864   2.422
  100GLOH    C3 9576   3.364   8.095   2.371
  100GLOH   H06 9577   3.268   8.051   2.348
  100GLOH   H07 9578   3.435   8.059   2.297
  100GLOH    O3 9579   3.357   8.239   2.365
  100GLOH   H01 9580   3.265   8.264   2.337
  101GLOH   H03 9581   2.900   6.724   1.616
  101GLOH    O1 9582   2.831   6.676   1.563
  101GLOH    C1 9583   2.892   6.631   1.440
  101GLOH   H02 9584   2.865   6.527   1.421
  101GLOH   H08 9585   3.001   6.632   1.449
  101GLOH    C2 9586   2.853   6.717   1.318
  101GLOH   H04 9587   2.749   6.751   1.334
  101GLOH    O2 9588   2.936   6.834   1.304
  101GLOH   H05 9589   2.927   6.893   1.383
  101GLOH    C3 9590   2.855   6.634   1.189
  101GLOH   H06 9591   2.955   6.595   1.175
  101GLOH   H07 9592   2.834   6.701   1.106
  101GLOH    O3 9593   2.758   6.527   1.192
  101GLOH   H01 9594   2.677   6.557   1.141
  102GLOH   H03 9595   4.163   2.294   0.544
  102GLOH    O1 9596   4.200   2.202   0.548
  102GLOH    C1 9597   4.151   2.141   0.669
  102GLOH   H02 9598   4.181   2.201   0.755
  102GLOH   H08 9599   4.195   2.042   0.683
  102GLOH    C2 9600   3.997   2.127   0.671
  102GLOH   H04 9601   3.953   2.228   0.673
  102GLOH    O2 9602   3.952   2.059   0.551
  102GLOH   H05 9603   3.987   2.112   0.476
  102GLOH    C3 9604   3.952   2.053   0.798
  102GLOH   H06 9605   3.990   1.950   0.794
  102GLOH   H07 9606   3.843   2.046   0.797
  102GLOH    O3 9607   3.998   2.119   0.917
  102GLOH   H01 9608   4.092   2.092   0.934
  103GLOH   H03 9609   3.578   2.176   0.207
  103GLOH    O1 9610   3.600   2.247   0.141
  103GLOH    C1 9611   3.544   2.372   0.186
  103GLOH   H02 9612   3.580   2.395   0.286
  103GLOH   H08 9613   3.436   2.365   0.193
  103GLOH    C2 9614   3.579   2.491   0.093
  103GLOH   H04 9615   3.507   2.572   0.112
  103GLOH    O2 9616   3.712   2.538   0.121
  103GLOH   H05 9617   3.771   2.461   0.129
  103GLOH    C3 9618   3.569   2.450   2.772
  103GLOH   H06 9619   3.668   2.421   2.736
  103GLOH   H07 9620   3.540   2.538   2.715
  103GLOH    O3 9621   3.476   2.344   2.751
  103GLOH   H01 9622   3.505   2.273   2.813
  104GLOH   H03 9623   2.768   8.031   1.680
  104GLOH    O1 9624   2.719   7.949   1.650
  104GLOH    C1 9625   2.816   7.857   1.596
  104GLOH   H02 9626   2.818   7.865   1.487
  104GLOH   H08 9627   2.787   7.755   1.619
  104GLOH    C2 9628   2.959   7.879   1.650
  104GLOH   H04 9629   2.959   7.851   1.757
  104GLOH    O2 9630   3.051   7.794   1.579
  104GLOH   H05 9631   3.035   7.805   1.480
  104GLOH    C3 9632   2.999   8.027   1.639
  104GLOH   H06 9633   3.003   8.054   1.533
  104GLOH   H07 9634   3.100   8.039   1.679
  104GLOH    O3 9635   2.907   8.114   1.709
  104GLOH   H01 9636   2.934   8.208   1.694
  105GLOH   H03 9637   3.356   7.786   1.962
  105GLOH    O1 9638   3.366   7.709   1.900
  105GLOH    C1 9639   3.304   7.746   1.775
  105GLOH   H02 9640   3.326   7.850   1.751
  105GLOH   H08 9641   3.196   7.738   1.785
  105GLOH    C2 9642   3.349   7.657   1.658
  105GLOH   H04 9643   3.325   7.553   1.684
  105GLOH    O2 9644   3.279   7.693   1.537
  105GLOH   H05 9645   3.184   7.717   1.560
  105GLOH    C3 9646   3.501   7.668   1.637
  105GLOH   H06 9647   3.551   7.628   1.725
  105GLOH   H07 9648   3.529   7.773   1.630
  105GLOH    O3 9649   3.544   7.597   1.519
  105GLOH   H01 9650   3.463   7.565   1.476
  106GLOH   H03 9651   1.625   7.223   1.526
  106GLOH    O1 9652   1.548   7.160   1.532
  106GLOH    C1 9653   1.591   7.049   1.613
  106GLOH   H02 9654   1.700   7.037   1.606
  106GLOH   H08 9655   1.547   6.956   1.576
  106GLOH    C2 9656   1.554   7.064   1.762
  106GLOH   H04 9657   1.444   7.061   1.768
  106GLOH    O2 9658   1.606   6.955   1.840
  106GLOH   H05 9659   1.590   6.976   1.937
  106GLOH    C3 9660   1.598   7.201   1.818
  106GLOH   H06 9661   1.561   7.209   1.921
  106GLOH   H07 9662   1.547   7.279   1.762
  106GLOH    O3 9663   1.740   7.223   1.816
  106GLOH   H01 9664   1.759   7.290   1.888
  107GLOH   H03 9665   3.525   1.974   1.584
  107GLOH    O1 9666   3.552   2.044   1.518
  107GLOH    C1 9667   3.618   2.147   1.594
  107GLOH   H02 9668   3.666   2.218   1.526
  107GLOH   H08 9669   3.698   2.104   1.655
  107GLOH    C2 9670   3.524   2.227   1.686
  107GLOH   H04 9671   3.459   2.288   1.622
  107GLOH    O2 9672   3.442   2.145   1.772
  107GLOH   H05 9673   3.367   2.204   1.804
  107GLOH    C3 9674   3.608   2.323   1.774
  107GLOH   H06 9675   3.688   2.264   1.818
  107GLOH   H07 9676   3.546   2.359   1.856
  107GLOH    O3 9677   3.665   2.434   1.703
  107GLOH   H01 9678   3.705   2.491   1.775
  108GLOH   H03 9679   1.879   0.082   0.173
  108GLOH    O1 9680   1.912   0.030   0.098
  108GLOH    C1 9681   1.921   0.113   2.808
  108GLOH   H02 9682   1.995   0.192   2.823
  108GLOH   H08 9683   1.826   0.162   2.788
  108GLOH    C2 9684   1.962   0.033   2.682
  108GLOH   H04 9685   1.885   9.957   2.663
  108GLOH    O2 9686   1.970   0.121   2.567
  108GLOH   H05 9687   1.998   0.071   2.486
  108GLOH    C3 9688   2.096   9.962   2.707
  108GLOH   H06 9689   2.174   0.037   2.722
  108GLOH   H07 9690   2.123   9.904   2.619
  108GLOH    O3 9691   2.087   9.877   2.823
  108GLOH   H01 9692   2.021   9.920   0.054
  109GLOH   H03 9693   4.610   3.882   1.175
  109GLOH    O1 9694   4.602   3.818   1.250
  109GLOH    C1 9695   4.734   3.800   1.307
  109GLOH   H02 9696   4.764   3.889   1.362
  109GLOH   H08 9697   4.807   3.784   1.228
  109GLOH    C2 9698   4.740   3.679   1.403
  109GLOH   H04 9699   4.714   3.589   1.346
  109GLOH    O2 9700   4.873   3.663   1.456
  109GLOH   H05 9701   4.937   3.648   1.380
  109GLOH    C3 9702   4.637   3.696   1.516
  109GLOH   H06 9703   4.663   3.785   1.574
  109GLOH   H07 9704   4.644   3.610   1.583
  109GLOH    O3 9705   4.505   3.708   1.461
  109GLOH   H01 9706   4.518   3.752   1.373
  110GLOH   H03 9707   1.267   0.971   0.234
  110GLOH    O1 9708   1.280   1.007   0.324
  110GLOH    C1 9709   1.163   0.978   0.403
  110GLOH   H02 9710   1.189   0.970   0.508
  110GLOH   H08 9711   1.120   0.881   0.375
  110GLOH    C2 9712   1.054   1.085   0.390
  110GLOH   H04 9713   1.029   1.097   0.283
  110GLOH    O2 9714   0.935   1.046   0.462
  110GLOH   H05 9715   0.864   1.116   0.449
  110GLOH    C3 9716   1.107   1.220   0.443
  110GLOH   H06 9717   1.125   1.211   0.550
  110GLOH   H07 9718   1.030   1.296   0.429
  110GLOH    O3 9719   1.227   1.258   0.374
  110GLOH   H01 9720   1.276   1.174   0.356
  111GLOH   H03 9721   8.681   3.092   2.020
  111GLOH    O1 9722   8.639   3.081   1.931
  111GLOH    C1 9723   8.576   2.951   1.932
  111GLOH   H02 9724   8.499   2.946   1.856
  111GLOH   H08 9725   8.526   2.935   2.028
  111GLOH    C2 9726   8.678   2.839   1.909
  111GLOH   H04 9727   8.761   2.853   1.980
  111GLOH    O2 9728   8.618   2.709   1.929
  111GLOH   H05 9729   8.679   2.640   1.890
  111GLOH    C3 9730   8.734   2.848   1.766
  111GLOH   H06 9731   8.657   2.817   1.695
  111GLOH   H07 9732   8.816   2.776   1.757
  111GLOH    O3 9733   8.783   2.979   1.735
  111GLOH   H01 9734   8.738   3.041   1.796
  112GLOH   H03 9735   3.909   4.918   0.766
  112GLOH    O1 9736   3.939   4.824   0.780
  112GLOH    C1 9737   4.072   4.808   0.727
  112GLOH   H02 9738   4.068   4.791   0.620
  112GLOH   H08 9739   4.119   4.720   0.770
  112GLOH    C2 9740   4.167   4.928   0.753
  112GLOH   H04 9741   4.266   4.901   0.713
  112GLOH    O2 9742   4.120   5.046   0.684
  112GLOH   H05 9743   4.027   5.069   0.714
  112GLOH    C3 9744   4.183   4.956   0.904
  112GLOH   H06 9745   4.087   4.987   0.944
  112GLOH   H07 9746   4.251   5.040   0.915
  112GLOH    O3 9747   4.234   4.843   0.979
  112GLOH   H01 9748   4.282   4.780   0.920
  113GLOH   H03 9749   4.413   2.125   1.327
  113GLOH    O1 9750   4.340   2.193   1.332
  113GLOH    C1 9751   4.335   2.242   1.467
  113GLOH   H02 9752   4.349   2.161   1.538
  113GLOH   H08 9753   4.236   2.283   1.487
  113GLOH    C2 9754   4.439   2.351   1.498
  113GLOH   H04 9755   4.442   2.364   1.607
  113GLOH    O2 9756   4.572   2.313   1.455
  113GLOH   H05 9757   4.599   2.230   1.505
  113GLOH    C3 9758   4.397   2.486   1.437
  113GLOH   H06 9759   4.373   2.472   1.332
  113GLOH   H07 9760   4.481   2.555   1.442
  113GLOH    O3 9761   4.284   2.542   1.507
  113GLOH   H01 9762   4.246   2.614   1.449
  114GLOH   H03 9763   8.674   2.755   1.265
  114GLOH    O1 9764   8.701   2.838   1.217
  114GLOH    C1 9765   8.841   2.863   1.239
  114GLOH   H02 9766   8.897   2.769   1.243
  114GLOH   H08 9767   8.856   2.913   1.335
  114GLOH    C2 9768   8.902   2.952   1.129
  114GLOH   H04 9769   8.855   3.051   1.136
  114GLOH    O2 9770   9.045   2.968   1.145
  114GLOH   H05 9771   9.079   3.033   1.076
  114GLOH    C3 9772   8.868   2.893   0.991
  114GLOH   H06 9773   8.908   2.792   0.987
  114GLOH   H07 9774   8.918   2.951   0.913
  114GLOH    O3 9775   8.726   2.890   0.972
  114GLOH   H01 9776   8.690   2.868   1.061
  115GLOH   H03 9777   3.343   5.787   2.377
  115GLOH    O1 9778   3.311   5.878   2.355
  115GLOH    C1 9779   3.244   5.928   2.473
  115GLOH   H02 9780   3.139   5.900   2.471
  115GLOH   H08 9781   3.249   6.037   2.476
  115GLOH    C2 9782   3.307   5.873   2.602
  115GLOH   H04 9783   3.411   5.907   2.606
  115GLOH    O2 9784   3.240   5.922   2.720
  115GLOH   H05 9785   3.140   5.917   2.711
  115GLOH    C3 9786   3.307   5.719   2.600
  115GLOH   H06 9787   3.204   5.684   2.604
  115GLOH   H07 9788   3.357   5.683   2.690
  115GLOH    O3 9789   3.373   5.665   2.483
  115GLOH   H01 9790   3.372   5.568   2.486
  116GLOH   H03 9791   3.989   3.471   2.343
  116GLOH    O1 9792   4.041   3.412   2.405
  116GLOH    C1 9793   4.026   3.274   2.365
  116GLOH   H02 9794   4.105   3.245   2.297
  116GLOH   H08 9795   3.932   3.260   2.312
  116GLOH    C2 9796   4.029   3.177   2.485
  116GLOH   H04 9797   4.054   3.077   2.446
  116GLOH    O2 9798   4.131   3.216   2.579
  116GLOH   H05 9799   4.141   3.313   2.569
  116GLOH    C3 9800   3.891   3.168   2.552
  116GLOH   H06 9801   3.861   3.268   2.583
  116GLOH   H07 9802   3.901   3.108   2.642
  116GLOH    O3 9803   3.792   3.111   2.465
  116GLOH   H01 9804   3.821   3.023   2.434
  117GLOH   H03 9805   1.882   7.016   2.575
  117GLOH    O1 9806   1.869   7.024   2.478
  117GLOH    C1 9807   1.807   6.901   2.435
  117GLOH   H02 9808   1.802   6.898   2.326
  117GLOH   H08 9809   1.704   6.895   2.471
  117GLOH    C2 9810   1.884   6.777   2.484
  117GLOH   H04 9811   1.981   6.775   2.432
  117GLOH    O2 9812   1.906   6.786   2.626
  117GLOH   H05 9813   1.975   6.723   2.654
  117GLOH    C3 9814   1.808   6.647   2.452
  117GLOH   H06 9815   1.709   6.653   2.496
  117GLOH   H07 9816   1.859   6.564   2.501
  117GLOH    O3 9817   1.798   6.620   2.311
  117GLOH   H01 9818   1.731   6.682   2.271
  118GLOH   H03 9819   4.270   0.996   1.568
  118GLOH    O1 9820   4.281   0.996   1.668
  118GLOH    C1 9821   4.325   1.127   1.706
  118GLOH   H02 9822   4.291   1.150   1.807
  118GLOH   H08 9823   4.281   1.203   1.641
  118GLOH    C2 9824   4.479   1.142   1.701
  118GLOH   H04 9825   4.514   1.096   1.608
  118GLOH    O2 9826   4.517   1.282   1.702
  118GLOH   H05 9827   4.477   1.326   1.782
  118GLOH    C3 9828   4.546   1.068   1.819
  118GLOH   H06 9829   4.654   1.072   1.804
  118GLOH   H07 9830   4.518   0.963   1.812
  118GLOH    O3 9831   4.512   1.120   1.949
  118GLOH   H01 9832   4.470   1.210   1.939
  119GLOH   H03 9833   4.131   8.666   1.826
  119GLOH    O1 9834   4.086   8.741   1.876
  119GLOH    C1 9835   4.070   8.697   2.012
  119GLOH   H02 9836   4.166   8.670   2.055
  119GLOH   H08 9837   4.007   8.608   2.016
  119GLOH    C2 9838   4.006   8.805   2.102
  119GLOH   H04 9839   3.905   8.826   2.065
  119GLOH    O2 9840   3.997   8.755   2.238
  119GLOH   H05 9841   4.069   8.795   2.294
  119GLOH    C3 9842   4.088   8.935   2.095
  119GLOH   H06 9843   4.087   8.970   1.992
  119GLOH   H07 9844   4.192   8.912   2.118
  119GLOH    O3 9845   4.041   9.040   2.182
  119GLOH   H01 9846   3.946   9.061   2.162
  120GLOH   H03 9847   2.279   1.083   0.538
  120GLOH    O1 9848   2.365   1.124   0.511
  120GLOH    C1 9849   2.343   1.203   0.392
  120GLOH   H02 9850   2.265   1.157   0.331
  120GLOH   H08 9851   2.433   1.203   0.330
  120GLOH    C2 9852   2.302   1.349   0.417
  120GLOH   H04 9853   2.293   1.397   0.319
  120GLOH    O2 9854   2.175   1.360   0.484
  120GLOH   H05 9855   2.185   1.327   0.579
  120GLOH    C3 9856   2.411   1.426   0.495
  120GLOH   H06 9857   2.438   1.368   0.583
  120GLOH   H07 9858   2.368   1.520   0.531
  120GLOH    O3 9859   2.528   1.452   0.416
  120GLOH   H01 9860   2.583   1.369   0.411
  121ACOH    H4 9861   4.473   0.287   0.974
  121ACOH    O2 9862   4.560   0.332   0.960
  121ACOH    C2 9863   4.574   0.426   1.056
  121ACOH    O1 9864   4.503   0.443   1.153
  121ACOH    C1 9865   4.701   0.500   1.038
  121ACOH    H1 9866   4.746   0.477   0.942
  121ACOH    H2 9867   4.771   0.474   1.117
  121ACOH    H3 9868   4.683   0.607   1.043
  122ACOH    H4 9869   3.357   7.163   0.051
  122ACOH    O2 9870   3.425   7.157   2.810
  122ACOH    C2 9871   3.537   7.211   0.033
  122ACOH    O1 9872   3.547   7.264   0.142
  122ACOH    C1 9873   3.649   7.206   2.765
  122ACOH    H1 9874   3.735   7.158   2.811
  122ACOH    H2 9875   3.676   7.307   2.736
  122ACOH    H3 9876   3.621   7.150   2.676
  123ACOH    H4 9877   4.093   9.702   0.511
  123ACOH    O2 9878   4.042   9.782   0.483
  123ACOH    C2 9879   4.114   9.891   0.512
  123ACOH    O1 9880   4.214   9.898   0.581
  123ACOH    C1 9881   4.046   0.012   0.459
  123ACOH    H1 9882   3.943   0.013   0.492
  123ACOH    H2 9883   4.049   0.009   0.350
  123ACOH    H3 9884   4.095   0.102   0.493
  124ACOH    H4 9885   8.520   2.460   0.443
  124ACOH    O2 9886   8.452   2.388   0.458
  124ACOH    C2 9887   8.511   2.271   0.430
  124ACOH    O1 9888   8.625   2.255   0.390
  124ACOH    C1 9889   8.415   2.159   0.447
  124ACOH    H1 9890   8.385   2.154   0.551
  124ACOH    H2 9891   8.461   2.065   0.418
  124ACOH    H3 9892   8.328   2.177   0.386
  125ACOH    H4 9893   9.046   5.564   0.794
  125ACOH    O2 9894   8.950   5.581   0.772
  125ACOH    C2 9895   8.895   5.464   0.734
  125ACOH    O1 9896   8.949   5.355   0.731
  125ACOH    C1 9897   8.755   5.485   0.692
  125ACOH    H1 9898   8.697   5.521   0.777
  125ACOH    H2 9899   8.711   5.392   0.656
  125ACOH    H3 9900   8.751   5.559   0.613
  126ACOH    H4 9901   8.613   3.221   1.878
  126ACOH    O2 9902   8.605   3.314   1.845
  126ACOH    C2 9903   8.712   3.381   1.891
  126ACOH    O1 9904   8.800   3.337   1.963
  126ACOH    C1 9905   8.712   3.521   1.843
  126ACOH    H1 9906   8.710   3.588   1.929
  126ACOH    H2 9907   8.626   3.541   1.780
  126ACOH    H3 9908   8.803   3.540   1.787
  127ACOH    H4 9909   3.528   0.064   0.441
  127ACOH    O2 9910   3.462   9.993   0.466
  127ACOH    C2 9911   3.487   9.888   0.385
  127ACOH    O1 9912   3.565   9.884   0.292
  127ACOH    C1 9913   3.401   9.773   0.422
  127ACOH    H1 9914   3.296   9.803   0.417
  127ACOH    H2 9915   3.424   9.743   0.523
  127ACOH    H3 9916   3.417   9.690   0.354
  128ACOH    H4 9917   4.268   9.240   2.365
  128ACOH    O2 9918   4.308   9.329   2.378
  128ACOH    C2 9919   4.242   9.415   2.298
  128ACOH    O1 9920   4.145   9.390   2.228
  128ACOH    C1 9921   4.300   9.550   2.311
  128ACOH    H1 9922   4.280   9.589   2.411
  128ACOH    H2 9923   4.257   9.618   2.238
  128ACOH    H3 9924   4.407   9.546   2.297
  129ACOH    H4 9925   9.945   3.593   1.760
  129ACOH    O2 9926   9.920   3.680   1.719
  129ACOH    C2 9927   0.027   3.761   1.730
  129ACOH    O1 9928   0.134   3.734   1.783
  129ACOH    C1 9929   0.000   3.892   1.667
  129ACOH    H1 9930   9.911   3.936   1.711
  129ACOH    H2 9931   9.984   3.878   1.560
  129ACOH    H3 9932   0.083   3.959   1.682
  130ACOH    H4 9933   5.448   9.142   1.829
  130ACOH    O2 9934   5.409   9.199   1.761
  130ACOH    C2 9935   5.317   9.275   1.823
  130ACOH    O1 9936   5.290   9.272   1.941
  130ACOH    C1 9937   5.251   9.367   1.728
  130ACOH    H1 9938   5.179   9.430   1.780
  130ACOH    H2 9939   5.199   9.309   1.652
  130ACOH    H3 9940   5.326   9.430   1.680
  131ACOH    H4 9941   4.429   0.722   1.853
  131ACOH    O2 9942   4.515   0.720   1.904
  131ACOH    C2 9943   4.519   0.603   1.971
  131ACOH    O1 9944   4.442   0.509   1.958
  131ACOH    C1 9945   4.636   0.599   2.061
  131ACOH    H1 9946   4.644   0.503   2.110
  131ACOH    H2 9947   4.627   0.678   2.135
  131ACOH    H3 9948   4.726   0.617   2.002
  132ACOH    H4 9949   9.284   3.842   1.415
  132ACOH    O2 9950   9.215   3.772   1.397
  132ACOH    C2 9951   9.274   3.681   1.317
  132ACOH    O1 9952   9.383   3.691   1.264
  132ACOH    C1 9953   9.183   3.567   1.288
  132ACOH    H1 9954   9.161   3.564   1.181
  132ACOH    H2 9955   9.090   3.577   1.343
  132ACOH    H3 9956   9.231   3.474   1.317
  133ACOH    H4 9957   0.720   7.275   1.193
  133ACOH    O2 9958   0.666   7.322   1.262
  133ACOH    C2 9959   0.540   7.323   1.214
  133ACOH    O1 9960   0.490   7.234   1.147
  133ACOH    C1 9961   0.459   7.425   1.285
  133ACOH    H1 9962   0.491   7.524   1.252
  133ACOH    H2 9963   0.474   7.417   1.392
  133ACOH    H3 9964   0.354   7.413   1.262
  134ACOH    H4 9965   5.927   3.128   1.174
  134ACOH    O2 9966   5.966   3.101   1.088
  134ACOH    C2 9967   5.865   3.071   1.005
  134ACOH    O1 9968   5.746   3.086   1.025
  134ACOH    C1 9969   5.918   3.021   0.875
  134ACOH    H1 9970   5.984   3.096   0.832
  134ACOH    H2 9971   5.837   3.000   0.806
  134ACOH    H3 9972   5.974   2.930   0.893
  135ACOH    H4 9973   8.670   2.901   0.837
  135ACOH    O2 9974   8.630   2.921   0.747
  135ACOH    C2 9975   8.535   2.828   0.726
  135ACOH    O1 9976   8.515   2.727   0.790
  135ACOH    C1 9977   8.458   2.861   0.604
  135ACOH    H1 9978   8.407   2.956   0.619
  135ACOH    H2 9979   8.385   2.784   0.583
  135ACOH    H3 9980   8.526   2.871   0.520
  136ACOH    H4 9981   5.220   2.177   2.329
  136ACOH    O2 9982   5.164   2.126   2.269
  136ACOH    C2 9983   5.129   2.207   2.168
  136ACOH    O1 9984   5.162   2.324   2.156
  136ACOH    C1 9985   5.042   2.139   2.070
  136ACOH    H1 9986   5.089   2.140   1.972
  136ACOH    H2 9987   4.947   2.191   2.063
  136ACOH    H3 9988   5.023   2.036   2.099
  137ACOH    H4 9989   1.130   3.755   0.766
  137ACOH    O2 9990   1.179   3.837   0.737
  137ACOH    C2 9991   1.108   3.892   0.637
  137ACOH    O1 9992   1.026   3.835   0.567
  137ACOH    C1 9993   1.158   4.028   0.606
  137ACOH    H1 9994   1.107   4.069   0.520
  137ACOH    H2 9995   1.265   4.024   0.586
  137ACOH    H3 9996   1.141   4.093   0.692
  138ACOH    H4 9997   3.793   2.606   0.636
  138ACOH    O2 9998   3.774   2.691   0.587
  138ACOH    C2 9999   3.879   2.772   0.608
  138ACOH    O110000   3.973   2.751   0.682
  138ACOH    C110001   3.864   2.899   0.534
  138ACOH    H110002   3.781   2.893   0.464
  138ACOH    H210003   3.955   2.921   0.479
  138ACOH    H310004   3.845   2.980   0.604
  139ACOH    H410005   8.397   2.173   1.480
  139ACOH    O210006   8.380   2.078   1.455
  139ACOH    C210007   8.481   2.004   1.504
  139ACOH    O110008   8.571   2.041   1.577
  139ACOH    C110009   8.466   1.863   1.460
  139ACOH    H110010   8.488   1.856   1.354
  139ACOH    H210011   8.364   1.831   1.477
  139ACOH    H310012   8.534   1.799   1.516
  140ACOH    H410013   3.178   0.504   1.210
  140ACOH    O210014   3.089   0.474   1.247
  140ACOH    C210015   2.998   0.516   1.158
  140ACOH    O110016   3.018   0.536   1.040
  140ACOH    C110017   2.860   0.504   1.213
  140ACOH    H110018   2.863   0.499   1.321
  140ACOH    H210019   2.814   0.413   1.174
  140ACOH    H310020   2.801   0.589   1.182
  141ACOH    H410021   5.672   3.047   1.398
  141ACOH    O210022   5.715   3.082   1.481
  141ACOH    C210023   5.821   3.156   1.444
  141ACOH    O110024   5.869   3.164   1.332
  141ACOH    C110025   5.881   3.221   1.562
  141ACOH    H110026   5.971   3.276   1.534
  141ACOH    H210027   5.907   3.146   1.636
  141ACOH    H310028   5.809   3.290   1.605
  142ACOH    H410029   4.979   1.364   0.338
  142ACOH    O210030   5.030   1.313   0.407
  142ACOH    C210031   4.945   1.282   0.506
  142ACOH    O110032   4.824   1.288   0.505
  142ACOH    C110033   5.018   1.220   0.620
  142ACOH    H110034   5.125   1.233   0.608
  142ACOH    H210035   4.995   1.114   0.622
  142ACOH    H310036   4.987   1.266   0.713
  143ACOH    H410037   3.774   5.306   2.308
  143ACOH    O210038   3.721   5.389   2.322
  143ACOH    C210039   3.764   5.478   2.231
  143ACOH    O110040   3.859   5.466   2.156
  143ACOH    C110041   3.685   5.603   2.241
  143ACOH    H110042   3.581   5.580   2.217
  143ACOH    H210043   3.722   5.677   2.171
  143ACOH    H310044   3.690   5.642   2.342
  144ACOH    H410045   5.103   3.027   1.089
  144ACOH    O210046   5.161   3.062   1.014
  144ACOH    C210047   5.286   3.070   1.063
  144ACOH    O110048   5.326   3.023   1.168
  144ACOH    C110049   5.379   3.130   0.964
  144ACOH    H110050   5.449   3.055   0.929
  144ACOH    H210051   5.435   3.210   1.011
  144ACOH    H310052   5.324   3.170   0.879
  145ACOH    H410053   0.136   1.248   1.824
  145ACOH    O210054   0.057   1.295   1.788
  145ACOH    C210055   0.048   1.411   1.854
  145ACOH    O110056   0.123   1.452   1.941
  145ACOH    C110057   9.932   1.491   1.808
  145ACOH    H110058   9.881   1.442   1.726
  145ACOH    H210059   9.965   1.589   1.775
  145ACOH    H310060   9.861   1.504   1.890
  146ACOH    H410061   3.402   2.535   0.573
  146ACOH    O210062   3.364   2.443   0.570
  146ACOH    C210063   3.429   2.370   0.662
  146ACOH    O110064   3.527   2.404   0.727
  146ACOH    C110065   3.369   2.235   0.673
  146ACOH    H110066   3.421   2.176   0.748
  146ACOH    H210067   3.376   2.185   0.578
  146ACOH    H310068   3.264   2.245   0.701
  147ACOH    H410069   4.152   9.386   0.806
  147ACOH    O210070   4.202   9.354   0.725
  147ACOH    C210071   4.227   9.223   0.746
  147ACOH    O110072   4.192   9.157   0.842
  147ACOH    C110073   4.306   9.167   0.634
  147ACOH    H110074   4.335   9.064   0.656
  147ACOH    H210075   4.395   9.227   0.619
  147ACOH    H310076   4.246   9.168   0.544
  148ACOH    H410077   9.981   5.865   0.520
  148ACOH    O210078   9.923   5.912   0.587
  148ACOH    C210079   9.815   5.835   0.608
  148ACOH    O110080   9.780   5.739   0.541
  148ACOH    C110081   9.734   5.890   0.718
  148ACOH    H110082   9.644   5.831   0.733
  148ACOH    H210083   9.705   5.992   0.694
  148ACOH    H310084   9.791   5.890   0.810
  149ACOH    H410085   4.476   8.800   0.591
  149ACOH    O210086   4.510   8.856   0.515
  149ACOH    C210087   4.410   8.867   0.425
  149ACOH    O110088   4.296   8.827   0.434
  149ACOH    C110089   4.456   8.949   0.310
  149ACOH    H110090   4.537   8.897   0.259
  149ACOH    H210091   4.492   9.045   0.346
  149ACOH    H310092   4.374   8.966   0.240
  150ACOH    H410093   4.993   1.547   2.058
  150ACOH    O210094   5.032   1.639   2.068
  150ACOH    C210095   5.103   1.662   1.956
  150ACOH    O110096   5.094   1.600   1.851
  150ACOH    C110097   5.177   1.790   1.964
  150ACOH    H110098   5.280   1.776   1.934
  150ACOH    H210099   5.175   1.828   2.066
  150ACOH    H310100   5.130   1.863   1.899
  151ACOH    H410101   3.621   7.890   0.737
  151ACOH    O210102   3.652   7.829   0.810
  151ACOH    C210103   3.786   7.841   0.811
  151ACOH    O110104   3.855   7.897   0.728
  151ACOH    C110105   3.844   7.763   0.923
  151ACOH    H110106   3.952   7.776   0.926
  151ACOH    H210107   3.822   7.658   0.909
  151ACOH    H310108   3.802   7.797   1.017
  152ACOH    H410109   9.980   5.036   1.459
  152ACOH    O210110   0.007   5.043   1.364
  152ACOH    C210111   0.072   5.160   1.351
  152ACOH    O110112   0.075   5.252   1.432
  152ACOH    C110113   0.136   5.172   1.218
  152ACOH    H110114   0.094   5.257   1.166
  152ACOH    H210115   0.119   5.083   1.159
  152ACOH    H310116   0.243   5.187   1.230
  153ACOH    H410117   9.315   3.498   0.635
  153ACOH    O210118   9.347   3.409   0.609
  153ACOH    C210119   9.276   3.317   0.676
  153ACOH    O110120   9.177   3.337   0.745
  153ACOH    C110121   9.330   3.181   0.652
  153ACOH    H110122   9.433   3.178   0.686
  153ACOH    H210123   9.329   3.160   0.545
  153ACOH    H310124   9.273   3.106   0.705
  154ACOH    H410125   9.025   4.845   0.373
  154ACOH    O210126   8.935   4.877   0.342
  154ACOH    C210127   8.886   4.958   0.438
  154ACOH    O110128   8.942   4.993   0.541
  154ACOH    C110129   8.750   5.006   0.404
  154ACOH    H110130   8.750   5.114   0.399
  154ACOH    H210131   8.680   4.974   0.480
  154ACOH    H310132   8.719   4.966   0.308
  155ACOH    H410133   4.645   4.645   0.524
  155ACOH    O210134   4.705   4.723   0.541
  155ACOH    C210135   4.628   4.834   0.533
  155ACOH    O110136   4.511   4.839   0.499
  155ACOH    C110137   4.705   4.955   0.570
  155ACOH    H110138   4.701   5.027   0.489
  155ACOH    H210139   4.809   4.931   0.589
  155ACOH    H310140   4.662   4.999   0.659
  156ACOH    H410141   1.043   1.214   2.242
  156ACOH    O210142   1.055   1.313   2.249
  156ACOH    C210143   1.152   1.347   2.162
  156ACOH    O110144   1.195   1.280   2.070
  156ACOH    C110145   1.192   1.488   2.185
  156ACOH    H110146   1.256   1.524   2.104
  156ACOH    H210147   1.247   1.495   2.278
  156ACOH    H310148   1.104   1.551   2.191
  157ACOH    H410149   2.881   2.274   0.137
  157ACOH    O210150   2.812   2.334   0.099
  157ACOH    C210151   2.878   2.437   0.042
  157ACOH    O110152   2.998   2.451   0.036
  157ACOH    C110153   2.782   2.533   2.810
  157ACOH    H110154   2.721   2.482   2.737
  157ACOH    H210155   2.835   2.615   2.762
  157ACOH    H310156   2.718   2.573   0.060
  158ACOH    H410157   0.605   8.812   2.164
  158ACOH    O210158   0.522   8.787   2.213
  158ACOH    C210159   0.528   8.655   2.238
  158ACOH    O110160   0.619   8.579   2.209
  158ACOH    C110161   0.408   8.612   2.314
  158ACOH    H110162   0.398   8.674   2.403
  158ACOH    H210163   0.416   8.508   2.343
  158ACOH    H310164   0.320   8.625   2.251
  159ACOH    H410165   8.763   2.936   2.368
  159ACOH    O210166   8.795   3.026   2.398
  159ACOH    C210167   8.782   3.110   2.294
  159ACOH    O110168   8.734   3.085   2.185
  159ACOH    C110169   8.834   3.244   2.329
  159ACOH    H110170   8.822   3.313   2.246
  159ACOH    H210171   8.939   3.236   2.354
  159ACOH    H310172   8.780   3.282   2.415
  160ACOH    H410173   4.238   8.408   0.837
  160ACOH    O210174   4.236   8.346   0.914
  160ACOH    C210175   4.204   8.224   0.867
  160ACOH    O110176   4.210   8.188   0.751
  160ACOH    C110177   4.173   8.129   0.976
  160ACOH    H110178   4.246   8.049   0.977
  160ACOH    H210179   4.074   8.087   0.961
  160ACOH    H310180   4.175   8.179   1.073
  161ACOH    H410181   5.391   2.832   1.480
  161ACOH    O210182   5.474   2.840   1.536
  161ACOH    C210183   5.474   2.739   1.624
  161ACOH    O110184   5.389   2.653   1.637
  161ACOH    C110185   5.592   2.744   1.713
  161ACOH    H110186   5.648   2.651   1.704
  161ACOH    H210187   5.560   2.758   1.815
  161ACOH    H310188   5.657   2.827   1.684
  162ACOH    H410189   0.453   9.358   1.928
  162ACOH    O210190   0.395   9.276   1.929
  162ACOH    C210191   0.316   9.284   1.821
  162ACOH    O110192   0.307   9.377   1.742
  162ACOH    C110193   0.234   9.161   1.807
  162ACOH    H110194   0.171   9.166   1.719
  162ACOH    H210195   0.173   9.149   1.896
  162ACOH    H310196   0.301   9.076   1.798
  163ACOH    H410197   4.666   0.814   1.349
  163ACOH    O210198   4.686   0.908   1.376
  163ACOH    C210199   4.628   0.988   1.284
  163ACOH    O110200   4.587   0.955   1.174
  163ACOH    C110201   4.636   1.130   1.325
  163ACOH    H110202   4.565   1.149   1.405
  163ACOH    H210203   4.614   1.196   1.242
  163ACOH    H310204   4.736   1.152   1.362
  164ACOH    H410205   8.227   2.176   0.903
  164ACOH    O210206   8.220   2.239   0.826
  164ACOH    C210207   8.271   2.356   0.868
  164ACOH    O110208   8.309   2.383   0.980
  164ACOH    C110209   8.276   2.454   0.757
  164ACOH    H110210   8.315   2.549   0.791
  164ACOH    H210211   8.177   2.468   0.715
  164ACOH    H310212   8.342   2.416   0.679
  165ACOH    H410213   3.497   9.856   0.850
  165ACOH    O210214   3.537   9.860   0.759
  165ACOH    C210215   3.670   9.876   0.773
  165ACOH    O110216   3.731   9.886   0.878
  165ACOH    C110217   3.737   9.895   0.643
  165ACOH    H110218   3.831   9.839   0.641
  165ACOH    H210219   3.757   0.000   0.627
  165ACOH    H310220   3.675   9.858   0.562
  166ACOH    H410221   1.319   2.826   1.821
  166ACOH    O210222   1.278   2.807   1.732
  166ACOH    C210223   1.286   2.922   1.661
  166ACOH    O110224   1.353   3.020   1.689
  166ACOH    C110225   1.220   2.909   1.530
  166ACOH    H110226   1.294   2.910   1.451
  166ACOH    H210227   1.152   2.993   1.515
  166ACOH    H310228   1.163   2.817   1.523
  167ACOH    H410229   5.056   2.380   1.150
  167ACOH    O210230   5.123   2.411   1.084
  167ACOH    C210231   5.244   2.379   1.134
  167ACOH    O110232   5.269   2.358   1.251
  167ACOH    C110233   5.349   2.393   1.031
  167ACOH    H110234   5.330   2.322   0.951
  167ACOH    H210235   5.447   2.373   1.073
  167ACOH    H310236   5.347   2.494   0.990
  168ACOH    H410237   4.618   1.402   2.794
  168ACOH    O210238   4.548   1.346   0.009
  168ACOH    C210239   4.455   1.432   0.054
  168ACOH    O110240   4.452   1.553   0.036
  168ACOH    C110241   4.350   1.360   0.129
  168ACOH    H110242   4.304   1.286   0.064
  168ACOH    H210243   4.274   1.430   0.164
  168ACOH    H310244   4.394   1.310   0.214
  169ACOH    H410245   5.237   3.275   1.494
  169ACOH    O210246   5.317   3.285   1.553
  169ACOH    C210247   5.329   3.167   1.617
  169ACOH    O110248   5.236   3.095   1.647
  169ACOH    C110249   5.463   3.154   1.680
  169ACOH    H110250   5.531   3.228   1.640
  169ACOH    H210251   5.503   3.055   1.660
  169ACOH    H310252   5.454   3.168   1.787
  170ACOH    H410253   4.570   1.018   2.047
  170ACOH    O210254   4.621   0.963   2.112
  170ACOH    C210255   4.590   1.009   2.235
  170ACOH    O110256   4.505   1.093   2.262
  170ACOH    C110257   4.672   0.941   2.338
  170ACOH    H110258   4.777   0.961   2.319
  170ACOH    H210259   4.655   0.834   2.333
  170ACOH    H310260   4.646   0.977   2.437
  171ACOH    H410261   9.285   5.403   2.057
  171ACOH    O210262   9.218   5.455   2.108
  171ACOH    C210263   9.170   5.550   2.025
  171ACOH    O110264   9.211   5.579   1.914
  171ACOH    C110265   9.060   5.623   2.091
  171ACOH    H110266   9.096   5.666   2.184
  171ACOH    H210267   8.979   5.554   2.113
  171ACOH    H310268   9.022   5.703   2.027
  172ACOH    H410269   3.895   8.276   1.028
  172ACOH    O210270   3.933   8.367   1.017
  172ACOH    C210271   3.992   8.400   1.133
  172ACOH    O110272   3.996   8.335   1.236
  172ACOH    C110273   4.051   8.536   1.123
  172ACOH    H110274   4.129   8.537   1.047
  172ACOH    H210275   4.094   8.567   1.218
  172ACOH    H310276   3.974   8.607   1.095
  173ACOH    H410277   8.770   1.888   1.230
  173ACOH    O210278   8.708   1.815   1.203
  173ACOH    C210279   8.782   1.718   1.147
  173ACOH    O110280   8.897   1.727   1.107
  173ACOH    C110281   8.701   1.596   1.126
  173ACOH    H110282   8.685   1.581   1.019
  173ACOH    H210283   8.605   1.604   1.175
  173ACOH    H310284   8.754   1.510   1.165
  174ACOH    H410285   0.329   2.509   1.572
  174ACOH    O210286   0.368   2.549   1.655
  174ACOH    C210287   0.500   2.520   1.651
  174ACOH    O110288   0.560   2.461   1.563
  174ACOH    C110289   0.568   2.567   1.774
  174ACOH    H110290   0.670   2.530   1.779
  174ACOH    H210291   0.513   2.532   1.861
  174ACOH    H310292   0.570   2.675   1.775
  175ACOH    H410293   4.011   9.270   0.141
  175ACOH    O210294   4.099   9.310   0.133
  175ACOH    C210295   4.154   9.262   0.021
  175ACOH    O110296   4.105   9.180   2.773
  175ACOH    C110297   4.289   9.320   2.827
  175ACOH    H110298   4.280   9.428   2.820
  175ACOH    H210299   4.333   9.282   2.736
  175ACOH    H310300   4.353   9.295   0.083
  176ACOH    H410301   4.332   5.526   1.443
  176ACOH    O210302   4.251   5.558   1.489
  176ACOH    C210303   4.236   5.482   1.599
  176ACOH    O110304   4.303   5.385   1.629
  176ACOH    C110305   4.114   5.519   1.675
  176ACOH    H110306   4.138   5.531   1.780
  176ACOH    H210307   4.039   5.441   1.665
  176ACOH    H310308   4.074   5.612   1.637
  177ACOH    H410309   3.294   7.584   1.941
  177ACOH    O210310   3.229   7.510   1.959
  177ACOH    C210311   3.234   7.487   2.092
  177ACOH    O110312   3.305   7.544   2.173
  177ACOH    C110313   3.137   7.383   2.133
  177ACOH    H110314   3.085   7.342   2.046
  177ACOH    H210315   3.063   7.427   2.199
  177ACOH    H310316   3.189   7.303   2.185
  178ACOH    H410317   5.015   1.772   1.010
  178ACOH    O210318   5.073   1.702   1.051
  178ACOH    C210319   4.992   1.601   1.087
  178ACOH    O110320   4.870   1.600   1.085
  178ACOH    C110321   5.070   1.486   1.140
  178ACOH    H110322   5.041   1.467   1.243
  178ACOH    H210323   5.176   1.507   1.136
  178ACOH    H310324   5.049   1.398   1.081
  179ACOH    H410325   8.752   2.910   0.376
  179ACOH    O210326   8.747   2.980   0.446
  179ACOH    C210327   8.873   3.013   0.479
  179ACOH    O110328   8.975   2.982   0.420
  179ACOH    C110329   8.874   3.106   0.595
  179ACOH    H110330   8.974   3.143   0.615
  179ACOH    H210331   8.837   3.053   0.683
  179ACOH    H310332   8.808   3.190   0.574
  180ACOH    H410333   5.473   3.466   0.818
  180ACOH    O210334   5.572   3.463   0.820
  180ACOH    C210335   5.611   3.351   0.757
  180ACOH    O110336   5.540   3.274   0.694
  180ACOH    C110337   5.758   3.337   0.765
  180ACOH    H110338   5.805   3.426   0.724
  180ACOH    H210339   5.791   3.250   0.710
  180ACOH    H310340   5.787   3.327   0.869
  181ACOH    H410341   2.803   2.865   1.979
  181ACOH    O210342   2.852   2.924   1.916
  181ACOH    C210343   2.983   2.893   1.926
  181ACOH    O110344   3.031   2.799   1.986
  181ACOH    C110345   3.064   2.986   1.844
  181ACOH    H110346   3.056   3.086   1.884
  181ACOH    H210347   3.028   2.986   1.742
  181ACOH    H310348   3.169   2.956   1.844
  182ACOH    H410349   3.145   3.288   2.299
  182ACOH    O210350   3.151   3.370   2.354
  182ACOH    C210351   3.281   3.393   2.377
  182ACOH    O110352   3.375   3.322   2.347
  182ACOH    C110353   3.298   3.521   2.449
  182ACOH    H110354   3.253   3.513   2.548
  182ACOH    H210355   3.248   3.601   2.395
  182ACOH    H310356   3.404   3.546   2.460
  183ACOH    H410357   8.759   1.796   0.794
  183ACOH    O210358   8.755   1.699   0.815
  183ACOH    C210359   8.850   1.639   0.741
  183ACOH    O110360   8.926   1.691   0.661
  183ACOH    C110361   8.856   1.493   0.768
  183ACOH    H110362   8.953   1.468   0.809
  183ACOH    H210363   8.841   1.439   0.675
  183ACOH    H310364   8.779   1.464   0.838
  184ACOH    H410365   4.387   4.764   1.533
  184ACOH    O210366   4.364   4.729   1.624
  184ACOH    C210367   4.336   4.836   1.702
  184ACOH    O110368   4.357   4.952   1.674
  184ACOH    C110369   4.275   4.795   1.831
  184ACOH    H110370   4.171   4.826   1.834
  184ACOH    H210371   4.328   4.842   1.913
  184ACOH    H310372   4.280   4.687   1.844
  185ACOH    H410373   3.566   5.324   2.011
  185ACOH    O210374   3.549   5.418   1.982
  185ACOH    C210375   3.420   5.445   2.007
  185ACOH    O110376   3.341   5.375   2.068
  185ACOH    C110377   3.385   5.581   1.959
  185ACOH    H110378   3.393   5.583   1.851
  185ACOH    H210379   3.453   5.654   2.002
  185ACOH    H310380   3.283   5.607   1.988
  186ACOH    H410381   5.606   3.766   0.462
  186ACOH    O210382   5.672   3.839   0.476
  186ACOH    C210383   5.640   3.901   0.590
  186ACOH    O110384   5.548   3.873   0.665
  186ACOH    C110385   5.728   4.018   0.616
  186ACOH    H110386   5.808   4.022   0.543
  186ACOH    H210387   5.771   4.010   0.715
  186ACOH    H310388   5.670   4.109   0.610
  187ACOH    H410389   8.443   1.834   0.563
  187ACOH    O210390   8.346   1.809   0.566
  187ACOH    C210391   8.315   1.770   0.441
  187ACOH    O110392   8.389   1.768   0.344
  187ACOH    C110393   8.174   1.726   0.434
  187ACOH    H110394   8.147   1.697   0.332
  187ACOH    H210395   8.109   1.807   0.465
  187ACOH    H310396   8.159   1.642   0.500
  188ACOH    H410397   3.447   7.205   0.750
  188ACOH    O210398   3.374   7.141   0.774
  188ACOH    C210399   3.324   7.179   0.892
  188ACOH    O110400   3.366   7.268   0.965
  188ACOH    C110401   3.202   7.103   0.926
  188ACOH    H110402   3.186   7.023   0.854
  188ACOH    H210403   3.116   7.169   0.923
  188ACOH    H310404   3.210   7.060   1.025
  189ACOH    H410405   4.194   9.846   2.175
  189ACOH    O210406   4.263   9.893   2.229
  189ACOH    C210407   4.280   0.013   2.171
  189ACOH    O110408   4.220   0.058   2.075
  189ACOH    C110409   4.387   0.090   2.240
  189ACOH    H110410   4.480   0.034   2.235
  189ACOH    H210411   4.359   0.104   2.344
  189ACOH    H310412   4.401   0.187   2.193
  190ACOH    H410413   4.311   0.028   0.646
  190ACOH    O210414   4.361   0.102   0.689
  190ACOH    C210415   4.390   0.191   0.591
  190ACOH    O110416   4.343   0.194   0.479
  190ACOH    C110417   4.480   0.297   0.643
  190ACOH    H110418   4.570   0.252   0.683
  190ACOH    H210419   4.430   0.352   0.722
  190ACOH    H310420   4.507   0.366   0.563
  191ACOH    H410421   5.271   3.282   1.979
  191ACOH    O210422   5.283   3.184   1.963
  191ACOH    C210423   5.188   3.119   2.031
  191ACOH    O110424   5.112   3.166   2.114
  191ACOH    C110425   5.195   2.974   2.001
  191ACOH    H110426   5.176   2.959   1.895
  191ACOH    H210427   5.120   2.919   2.058
  191ACOH    H310428   5.293   2.936   2.025
  192ACOH    H410429   9.267   3.661   0.910
  192ACOH    O210430   9.266   3.758   0.886
  192ACOH    C210431   9.291   3.767   0.754
  192ACOH    O110432   9.316   3.675   0.677
  192ACOH    C110433   9.288   3.907   0.708
  192ACOH    H110434   9.388   3.937   0.677
  192ACOH    H210435   9.255   3.973   0.789
  192ACOH    H310436   9.220   3.917   0.624
  193ACOH    H410437   3.727   8.251   2.348
  193ACOH    O210438   3.747   8.169   2.397
  193ACOH    C210439   3.719   8.067   2.314
  193ACOH    O110440   3.685   8.076   2.198
  193ACOH    C110441   3.742   7.937   2.382
  193ACOH    H110442   3.716   7.854   2.315
  193ACOH    H210443   3.680   7.931   2.471
  193ACOH    H310444   3.846   7.929   2.411
  194ACOH    H410445   3.962   5.414   2.026
  194ACOH    O210446   4.017   5.385   1.949
  194ACOH    C210447   4.029   5.251   1.956
  194ACOH    O110448   3.997   5.179   2.049
  194ACOH    C110449   4.100   5.197   1.837
  194ACOH    H110450   4.195   5.247   1.826
  194ACOH    H210451   4.039   5.215   1.749
  194ACOH    H310452   4.117   5.090   1.847
  195ACOH    H410453   8.929   4.557   1.004
  195ACOH    O210454   8.901   4.552   0.908
  195ACOH    C210455   8.909   4.678   0.861
  195ACOH    O110456   8.947   4.777   0.921
  195ACOH    C110457   8.861   4.683   0.721
  195ACOH    H110458   8.927   4.624   0.658
  195ACOH    H210459   8.860   4.786   0.685
  195ACOH    H310460   8.761   4.642   0.715
  196ACOH    H410461   0.437   4.725   0.589
  196ACOH    O210462   0.530   4.703   0.557
  196ACOH    C210463   0.515   4.672   0.426
  196ACOH    O110464   0.418   4.695   0.356
  196ACOH    C110465   0.642   4.617   0.373
  196ACOH    H110466   0.663   4.523   0.423
  196ACOH    H210467   0.723   4.687   0.392
  196ACOH    H310468   0.634   4.600   0.266
  197ACOH    H410469   4.647   1.307   1.630
  197ACOH    O210470   4.731   1.323   1.578
  197ACOH    C210471   4.833   1.325   1.665
  197ACOH    O110472   4.827   1.310   1.786
  197ACOH    C110473   4.960   1.352   1.594
  197ACOH    H110474   5.042   1.365   1.665
  197ACOH    H210475   4.950   1.443   1.535
  197ACOH    H310476   4.983   1.269   1.528
  198ACOH    H410477   3.136   5.374   0.630
  198ACOH    O210478   3.179   5.465   0.622
  198ACOH    C210479   3.292   5.444   0.552
  198ACOH    O110480   3.340   5.337   0.520
  198ACOH    C110481   3.356   5.572   0.514
  198ACOH    H110482   3.303   5.656   0.558
  198ACOH    H210483   3.355   5.582   0.405
  198ACOH    H310484   3.459   5.573   0.548
  199ACOH    H410485   1.784   2.007   1.813
  199ACOH    O210486   1.809   2.102   1.806
  199ACOH    C210487   1.823   2.150   1.931
  199ACOH    O110488   1.798   2.091   2.034
  199ACOH    C110489   1.863   2.292   1.926
  199ACOH    H110490   1.860   2.336   2.025
  199ACOH    H210491   1.795   2.348   1.861
  199ACOH    H310492   1.964   2.300   1.887
  200ACOH    H410493   1.012   0.120   2.137
  200ACOH    O210494   0.920   0.133   2.173
  200ACOH    C210495   0.887   0.260   2.145
  200ACOH    O110496   0.927   0.323   2.049
  200ACOH    C110497   0.771   0.307   2.225
  200ACOH    H110498   0.750   0.238   2.307
  200ACOH    H210499   0.683   0.314   2.162
  200ACOH    H310500   0.792   0.405   2.266
  201ACOH    H410501   3.091   7.131   1.886
  201ACOH    O210502   3.129   7.207   1.834
  201ACOH    C210503   3.178   7.155   1.720
  201ACOH    O110504   3.139   7.054   1.665
  201ACOH    C110505   3.261   7.255   1.647
  201ACOH    H110506   3.285   7.338   1.713
  201ACOH    H210507   3.206   7.293   1.561
  201ACOH    H310508   3.353   7.208   1.614
  202ACOH    H410509   4.605   5.275   1.318
  202ACOH    O210510   4.669   5.347   1.341
  202ACOH    C210511   4.598   5.456   1.375
  202ACOH    O110512   4.477   5.469   1.371
  202ACOH    C110513   4.689   5.565   1.418
  202ACOH    H110514   4.632   5.653   1.447
  202ACOH    H210515   4.755   5.591   1.336
  202ACOH    H310516   4.748   5.531   1.503
  203ACOH    H410517   8.951   2.234   0.806
  203ACOH    O210518   8.940   2.328   0.839
  203ACOH    C210519   8.809   2.347   0.862
  203ACOH    O110520   8.718   2.268   0.841
  203ACOH    C110521   8.784   2.484   0.912
  203ACOH    H110522   8.836   2.498   1.006
  203ACOH    H210523   8.677   2.501   0.928
  203ACOH    H310524   8.819   2.557   0.840
  204ACOH    H410525   4.178   8.777   0.245
  204ACOH    O210526   4.180   8.803   0.150
  204ACOH    C210527   4.061   8.771   0.097
  204ACOH    O110528   3.965   8.726   0.157
  204ACOH    C110529   4.055   8.810   2.782
  204ACOH    H110530   4.104   8.906   2.767
  204ACOH    H210531   3.952   8.819   2.748
  204ACOH    H310532   4.105   8.735   2.721
  205ACOH    H410533   9.113   4.144   1.341
  205ACOH    O210534   9.032   4.140   1.400
  205ACOH    C210535   8.928   4.181   1.325
  205ACOH    O110536   8.933   4.253   1.227
  205ACOH    C110537   8.801   4.151   1.395
  205ACOH    H110538   8.716   4.197   1.344
  205ACOH    H210539   8.805   4.188   1.497
  205ACOH    H310540   8.786   4.043   1.398
  206ACOH    H410541   4.142   9.067   2.283
  206ACOH    O210542   4.214   9.091   2.350
  206ACOH    C210543   4.242   8.977   2.417
  206ACOH    O110544   4.201   8.866   2.391
  206ACOH    C110545   4.342   9.001   2.523
  206ACOH    H110546   4.366   9.107   2.532
  206ACOH    H210547   4.433   8.946   2.501
  206ACOH    H310548   4.303   8.966   2.618
  207ACOH    H410549   5.494   3.556   2.271
  207ACOH    O210550   5.591   3.566   2.268
  207ACOH    C210551   5.629   3.549   2.140
  207ACOH    O110552   5.555   3.523   2.047
  207ACOH    C110553   5.775   3.564   2.126
  207ACOH    H110554   5.805   3.664   2.156
  207ACOH    H210555   5.806   3.548   2.023
  207ACOH    H310556   5.825   3.491   2.189
  208ACOH    H410557   3.274   9.368   0.687
  208ACOH    O210558   3.302   9.346   0.781
  208ACOH    C210559   3.414   9.414   0.806
  208ACOH    O110560   3.460   9.505   0.739
  208ACOH    C110561   3.469   9.377   0.939
  208ACOH    H110562   3.391   9.385   1.014
  208ACOH    H210563   3.551   9.443   0.967
  208ACOH    H310564   3.505   9.275   0.936
  209ACOH    H410565   1.455   0.181   0.517
  209ACOH    O210566   1.409   0.172   0.430
  209ACOH    C210567   1.277   0.173   0.454
  209ACOH    O110568   1.224   0.192   0.562
  209ACOH    C110569   1.198   0.159   0.330
  209ACOH    H110570   1.128   0.076   0.341
  209ACOH    H210571   1.263   0.139   0.245
  209ACOH    H310572   1.142   0.250   0.312
  210ACOH    H410573   3.651   5.069   0.329
  210ACOH    O210574   3.623   5.165   0.332
  210ACOH    C210575   3.710   5.229   0.412
  210ACOH    O110576   3.794   5.180   0.486
  210ACOH    C110577   3.687   5.375   0.406
  210ACOH    H110578   3.709   5.411   0.306
  210ACOH    H210579   3.749   5.427   0.478
  210ACOH    H310580   3.582   5.395   0.427
  211ACOH    H410581   5.095   4.313   0.528
  211ACOH    O210582   5.194   4.310   0.513
  211ACOH    C210583   5.251   4.257   0.622
  211ACOH    O110584   5.195   4.228   0.726
  211ACOH    C110585   5.398   4.245   0.607
  211ACOH    H110586   5.447   4.310   0.678
  211ACOH    H210587   5.428   4.273   0.506
  211ACOH    H310588   5.427   4.142   0.625
  212ACOH    H410589   5.211   2.332   0.698
  212ACOH    O210590   5.298   2.284   0.704
  212ACOH    C210591   5.287   2.175   0.626
  212ACOH    O110592   5.189   2.137   0.566
  212ACOH    C110593   5.416   2.100   0.625
  212ACOH    H110594   5.444   2.076   0.727
  212ACOH    H210595   5.493   2.162   0.581
  212ACOH    H310596   5.406   2.008   0.568
  213ACOH    H410597   4.416   0.122   1.321
  213ACOH    O210598   4.512   0.126   1.297
  213ACOH    C210599   4.573   0.207   1.386
  213ACOH    O110600   4.526   0.254   1.488
  213ACOH    C110601   4.714   0.228   1.346
  213ACOH    H110602   4.766   0.133   1.347
  213ACOH    H210603   4.764   0.297   1.413
  213ACOH    H310604   4.717   0.267   1.245
  214ACOH    H410605   4.446   8.712   1.234
  214ACOH    O210606   4.542   8.691   1.221
  214ACOH    C210607   4.580   8.742   1.103
  214ACOH    O110608   4.510   8.797   1.020
  214ACOH    C110609   4.725   8.720   1.083
  214ACOH    H110610   4.745   8.613   1.080
  214ACOH    H210611   4.780   8.763   1.166
  214ACOH    H310612   4.759   8.766   0.991
  215SOL     OW10613   1.890   1.187   1.445
  215SOL    HW110614   1.977   1.234   1.457
  215SOL    HW210615   1.841   1.184   1.533
  216SOL     OW10616   9.324   5.099   0.892
  216SOL    HW110617   9.239   5.094   0.839
  216SOL    HW210618   9.359   5.006   0.908
  217SOL     OW10619   2.016   1.534   1.479
  217SOL    HW110620   2.100   1.577   1.515
  217SOL    HW210621   1.967   1.490   1.554
  218SOL     OW10622   3.889   1.121   1.887
  218SOL    HW110623   3.792   1.126   1.865
  218SOL    HW210624   3.911   1.187   1.959
  219SOL     OW10625   0.916   9.779   1.286
  219SOL    HW110626   0.967   9.806   1.367
  219SOL    HW210627   0.915   9.854   1.220
  220SOL     OW10628   4.051   8.956   0.533
  220SOL    HW110629   4.132   8.903   0.508
  220SOL    HW210630   4.013   8.920   0.618
  221SOL     OW10631   9.734   1.829   0.558
  221SOL    HW110632   9.661   1.860   0.497
  221SOL    HW210633   9.696   1.809   0.648
  222SOL     OW10634   9.975   4.748   1.529
  222SOL    HW110635   9.959   4.843   1.556
  222SOL    HW210636   0.073   4.729   1.527
  223SOL     OW10637   0.766   5.108   2.354
  223SOL    HW110638   0.683   5.065   2.319
  223SOL    HW210639   0.744   5.158   2.438
  224SOL     OW10640   1.385   3.657   1.135
  224SOL    HW110641   1.346   3.580   1.083
  224SOL    HW210642   1.468   3.627   1.182
  225SOL     OW10643   2.983   9.560   1.713
  225SOL    HW110644   2.966   9.476   1.766
  225SOL    HW210645   3.081   9.568   1.696
  226SOL     OW10646   3.271   9.935   0.688
  226SOL    HW110647   3.370   9.950   0.682
  226SOL    HW210648   3.230   0.008   0.743
  227SOL     OW10649   3.256   4.294   1.669
  227SOL    HW110650   3.249   4.342   1.756
  227SOL    HW210651   3.239   4.197   1.683
  228SOL     OW10652   0.084   4.619   0.658
  228SOL    HW110653   0.111   4.531   0.696
  228SOL    HW210654   0.052   4.606   0.564
  229SOL     OW10655   9.528   1.533   0.745
  229SOL    HW110656   9.472   1.549   0.664
  229SOL    HW210657   9.538   1.434   0.760
  230SOL     OW10658   0.462   4.344   0.703
  230SOL    HW110659   0.466   4.270   0.770
  230SOL    HW210660   0.494   4.429   0.745
  231SOL     OW10661   9.690   4.369   0.688
  231SOL    HW110662   9.676   4.466   0.671
  231SOL    HW210663   9.630   4.316   0.628
  232SOL     OW10664   0.058   1.101   2.048
  232SOL    HW110665   0.139   1.111   1.991
  232SOL    HW210666   0.074   1.030   2.117
  233SOL     OW10667   1.855   0.504   2.096
  233SOL    HW110668   1.825   0.478   2.187
  233SOL    HW210669   1.924   0.439   2.063
  234SOL     OW10670   4.004   8.351   1.715
  234SOL    HW110671   3.947   8.330   1.795
  234SOL    HW210672   3.952   8.334   1.631
  235SOL     OW10673   0.979   5.088   0.868
  235SOL    HW110674   0.995   5.087   0.769
  235SOL    HW210675   1.040   5.154   0.911
  236SOL     OW10676   0.950   6.445   1.282
  236SOL    HW110677   0.900   6.447   1.369
  236SOL    HW210678   0.984   6.352   1.266
  237SOL     OW10679   1.244   3.172   0.932
  237SOL    HW110680   1.265   3.104   1.002
  237SOL    HW210681   1.307   3.162   0.855
  238SOL     OW10682   2.933   2.271   2.096
  238SOL    HW110683   2.973   2.363   2.097
  238SOL    HW210684   2.966   2.221   2.016
  239SOL     OW10685   2.677   2.709   0.449
  239SOL    HW110686   2.698   2.802   0.481
  239SOL    HW210687   2.578   2.695   0.450
  240SOL     OW10688   3.579   0.129   2.330
  240SOL    HW110689   3.542   0.176   2.411
  240SOL    HW210690   3.554   0.033   2.333
  241SOL     OW10691   9.693   4.948   0.902
  241SOL    HW110692   9.723   5.044   0.900
  241SOL    HW210693   9.713   4.906   0.814
  242SOL     OW10694   1.206   4.348   0.431
  242SOL    HW110695   1.278   4.310   0.489
  242SOL    HW210696   1.118   4.342   0.477
  243SOL     OW10697   4.094   2.098   2.129
  243SOL    HW110698   4.157   2.173   2.148
  243SOL    HW210699   4.132   2.013   2.167
  244SOL     OW10700   2.507   7.936   0.736
  244SOL    HW110701   2.413   7.915   0.712
  244SOL    HW210702   2.532   8.027   0.702
  245SOL     OW10703   1.570   7.469   0.790
  245SOL    HW110704   1.608   7.445   0.879
  245SOL    HW210705   1.569   7.568   0.780
  246SOL     OW10706   1.492   2.683   1.011
  246SOL    HW110707   1.556   2.658   0.938
  246SOL    HW210708   1.528   2.760   1.063
  247SOL     OW10709   4.278   3.023   1.970
  247SOL    HW110710   4.220   3.022   1.889
  247SOL    HW210711   4.330   2.938   1.975
  248SOL     OW10712   2.442   5.511   0.439
  248SOL    HW110713   2.512   5.440   0.427
  248SOL    HW210714   2.483   5.591   0.482
  249SOL     OW10715   0.725   2.917   0.566
  249SOL    HW110716   0.751   2.961   0.481
  249SOL    HW210717   0.780   2.834   0.579
  250SOL     OW10718   0.905   0.760   1.358
  250SOL    HW110719   0.878   0.669   1.389
  250SOL    HW210720   0.996   0.782   1.392
  251SOL     OW10721   1.991   5.541   0.999
  251SOL    HW110722   1.897   5.511   1.019
  251SOL    HW210723   2.056   5.476   1.039
  252SOL     OW10724   1.894   3.440   1.432
  252SOL    HW110725   1.841   3.481   1.358
  252SOL    HW210726   1.975   3.394   1.395
  253SOL     OW10727   2.336   4.177   1.458
  253SOL    HW110728   2.334   4.188   1.359
  253SOL    HW210729   2.319   4.082   1.483
  254SOL     OW10730   2.942   1.181   2.248
  254SOL    HW110731   2.846   1.198   2.268
  254SOL    HW210732   2.953   1.086   2.220
  255SOL     OW10733   2.700   1.321   1.794
  255SOL    HW110734   2.692   1.410   1.749
  255SOL    HW210735   2.784   1.276   1.766
  256SOL     OW10736   1.909   9.434   1.464
  256SOL    HW110737   1.974   9.361   1.488
  256SOL    HW210738   1.890   9.489   1.545
  257SOL     OW10739   8.343   1.896   0.835
  257SOL    HW110740   8.332   1.857   0.743
  257SOL    HW210741   8.425   1.953   0.837
  258SOL     OW10742   1.398   0.077   2.147
  258SOL    HW110743   1.429   9.982   2.136
  258SOL    HW210744   1.477   0.138   2.142
  259SOL     OW10745   4.115   3.380   1.751
  259SOL    HW110746   4.102   3.370   1.850
  259SOL    HW210747   4.213   3.378   1.729
  260SOL     OW10748   3.856   2.645   2.133
  260SOL    HW110749   3.843   2.743   2.145
  260SOL    HW210750   3.803   2.595   2.201
  261SOL     OW10751   4.580   4.833   0.883
  261SOL    HW110752   4.651   4.764   0.900
  261SOL    HW210753   4.495   4.788   0.855
  262SOL     OW10754   0.272   2.354   0.906
  262SOL    HW110755   0.361   2.318   0.880
  262SOL    HW210756   0.265   2.450   0.878
  263SOL     OW10757   2.353   1.493   1.793
  263SOL    HW110758   2.332   1.426   1.864
  263SOL    HW210759   2.452   1.505   1.786
  264SOL     OW10760   4.120   3.970   0.897
  264SOL    HW110761   4.115   4.056   0.847
  264SOL    HW210762   4.206   3.924   0.875
  265SOL     OW10763   0.823   7.561   0.631
  265SOL    HW110764   0.790   7.481   0.681
  265SOL    HW210765   0.745   7.615   0.601
  266SOL     OW10766   9.912   4.543   1.707
  266SOL    HW110767   9.977   4.575   1.776
  266SOL    HW210768   9.914   4.605   1.628
  267SOL     OW10769   0.049   2.928   0.866
  267SOL    HW110770   0.079   2.872   0.943
  267SOL    HW210771   0.068   2.881   0.781
  268SOL     OW10772   0.952   7.502   2.023
  268SOL    HW110773   0.959   7.562   1.944
  268SOL    HW210774   0.909   7.416   1.996
  269SOL     OW10775   2.534   3.675   0.583
  269SOL    HW110776   2.613   3.624   0.616
  269SOL    HW210777   2.564   3.743   0.516
  270SOL     OW10778   3.228   1.169   1.465
  270SOL    HW110779   3.194   1.234   1.533
  270SOL    HW210780   3.327   1.159   1.476
  271SOL     OW10781   1.496   6.781   0.394
  271SOL    HW110782   1.504   6.850   0.466
  271SOL    HW210783   1.521   6.691   0.431
  272SOL     OW10784   3.195   7.741   0.934
  272SOL    HW110785   3.269   7.802   0.963
  272SOL    HW210786   3.234   7.652   0.909
  273SOL     OW10787   0.376   6.125   1.456
  273SOL    HW110788   0.285   6.122   1.414
  273SOL    HW210789   0.366   6.121   1.556
  274SOL     OW10790   4.443   4.581   1.224
  274SOL    HW110791   4.438   4.528   1.139
  274SOL    HW210792   4.517   4.545   1.281
  275SOL     OW10793   9.515   4.248   0.513
  275SOL    HW110794   9.526   4.153   0.483
  275SOL    HW210795   9.419   4.276   0.502
  276SOL     OW10796   1.690   7.637   1.144
  276SOL    HW110797   1.740   7.651   1.058
  276SOL    HW210798   1.745   7.669   1.221
  277SOL     OW10799   3.621   3.582   1.246
  277SOL    HW110800   3.637   3.646   1.321
  277SOL    HW210801   3.537   3.609   1.197
  278SOL     OW10802   4.205   1.022   0.867
  278SOL    HW110803   4.270   1.063   0.931
  278SOL    HW210804   4.201   1.079   0.784
  279SOL     OW10805   2.005   6.039   1.538
  279SOL    HW110806   1.999   6.063   1.441
  279SOL    HW210807   2.101   6.032   1.564
  280SOL     OW10808   2.251   5.662   2.208
  280SOL    HW110809   2.186   5.715   2.264
  280SOL    HW210810   2.250   5.696   2.114
  281SOL     OW10811   0.581   7.915   0.908
  281SOL    HW110812   0.676   7.923   0.878
  281SOL    HW210813   0.565   7.975   0.986
  282SOL     OW10814   2.394   4.426   1.917
  282SOL    HW110815   2.306   4.381   1.903
  282SOL    HW210816   2.386   4.523   1.897
  283SOL     OW10817   0.648   0.338   1.372
  283SOL    HW110818   0.549   0.346   1.381
  283SOL    HW210819   0.683   0.276   1.443
  284SOL     OW10820   9.895   2.481   1.544
  284SOL    HW110821   9.884   2.536   1.627
  284SOL    HW210822   9.912   2.386   1.569
  285SOL     OW10823   0.682   6.613   0.956
  285SOL    HW110824   0.747   6.684   0.927
  285SOL    HW210825   0.605   6.612   0.892
  286SOL     OW10826   1.681   8.110   1.528
  286SOL    HW110827   1.706   8.193   1.579
  286SOL    HW210828   1.705   8.029   1.581
  287SOL     OW10829   0.836   5.766   2.164
  287SOL    HW110830   0.903   5.691   2.170
  287SOL    HW210831   0.751   5.738   2.209
  288SOL     OW10832   9.862   2.701   1.079
  288SOL    HW110833   9.818   2.674   1.165
  288SOL    HW210834   9.961   2.691   1.088
  289SOL     OW10835   3.461   1.381   0.474
  289SOL    HW110836   3.365   1.362   0.496
  289SOL    HW210837   3.471   1.389   0.375
  290SOL     OW10838   2.674   1.693   1.314
  290SOL    HW110839   2.637   1.688   1.221
  290SOL    HW210840   2.650   1.781   1.355
  291SOL     OW10841   2.122   1.620   1.882
  291SOL    HW110842   2.082   1.545   1.935
  291SOL    HW210843   2.210   1.591   1.843
  292SOL     OW10844   1.340   7.079   1.376
  292SOL    HW110845   1.429   7.102   1.415
  292SOL    HW210846   1.303   7.157   1.326
  293SOL     OW10847   4.106   1.455   1.264
  293SOL    HW110848   4.006   1.457   1.275
  293SOL    HW210849   4.135   1.362   1.242
  294SOL     OW10850   1.190   0.428   1.869
  294SOL    HW110851   1.234   0.443   1.781
  294SOL    HW210852   1.155   0.334   1.872
  295SOL     OW10853   2.894   8.821   0.768
  295SOL    HW110854   2.904   8.918   0.745
  295SOL    HW210855   2.982   8.775   0.759
  296SOL     OW10856   1.819   9.100   2.108
  296SOL    HW110857   1.826   9.087   2.009
  296SOL    HW210858   1.804   9.012   2.153
  297SOL     OW10859   4.524   1.934   1.760
  297SOL    HW110860   4.428   1.957   1.773
  297SOL    HW210861   4.531   1.842   1.720
  298SOL     OW10862   0.905   3.453   1.610
  298SOL    HW110863   0.870   3.529   1.664
  298SOL    HW210864   0.989   3.481   1.563
  299SOL     OW10865   1.212   2.216   0.457
  299SOL    HW110866   1.201   2.162   0.540
  299SOL    HW210867   1.309   2.238   0.444
  300SOL     OW10868   3.649   0.846   1.811
  300SOL    HW110869   3.575   0.819   1.873
  300SOL    HW210870   3.657   0.946   1.810
  301SOL     OW10871   1.393   3.208   0.419
  301SOL    HW110872   1.447   3.124   0.417
  301SOL    HW210873   1.335   3.213   0.337
  302SOL     OW10874   0.653   7.495   0.997
  302SOL    HW110875   0.715   7.528   1.068
  302SOL    HW210876   0.577   7.560   0.986
  303SOL     OW10877   3.898   9.530   2.343
  303SOL    HW110878   3.971   9.464   2.324
  303SOL    HW210879   3.844   9.498   2.421
  304SOL     OW10880   2.750   9.501   2.314
  304SOL    HW110881   2.760   9.547   2.402
  304SOL    HW210882   2.653   9.482   2.298
  305SOL     OW10883   1.854   2.575   1.444
  305SOL    HW110884   1.770   2.543   1.486
  305SOL    HW210885   1.903   2.498   1.404
  306SOL     OW10886   2.950   8.396   0.510
  306SOL    HW110887   3.031   8.455   0.518
  306SOL    HW210888   2.872   8.450   0.480
  307SOL     OW10889   9.503   3.183   1.861
  307SOL    HW110890   9.563   3.256   1.828
  307SOL    HW210891   9.407   3.210   1.848
  308SOL     OW10892   1.342   5.292   2.066
  308SOL    HW110893   1.355   5.276   1.968
  308SOL    HW210894   1.425   5.268   2.115
  309SOL     OW10895   1.670   4.377   2.204
  309SOL    HW110896   1.679   4.292   2.255
  309SOL    HW210897   1.621   4.445   2.260
  310SOL     OW10898   1.679   5.139   0.762
  310SOL    HW110899   1.745   5.213   0.763
  310SOL    HW210900   1.662   5.111   0.667
  311SOL     OW10901   4.053   4.905   2.096
  311SOL    HW110902   4.103   4.907   2.183
  311SOL    HW210903   4.039   4.998   2.063
  312SOL     OW10904   0.769   5.398   1.046
  312SOL    HW110905   0.670   5.396   1.033
  312SOL    HW210906   0.789   5.395   1.144
  313SOL     OW10907   4.770   4.096   0.596
  313SOL    HW110908   4.734   4.002   0.596
  313SOL    HW210909   4.698   4.158   0.627
  314SOL     OW10910   0.544   3.896   0.621
  314SOL    HW110911   0.585   3.916   0.709
  314SOL    HW210912   0.615   3.886   0.552
  315SOL     OW10913   0.243   1.005   1.453
  315SOL    HW110914   0.184   0.997   1.373
  315SOL    HW210915   0.194   0.977   1.535
  316SOL     OW10916   1.671   8.499   1.242
  316SOL    HW110917   1.671   8.524   1.145
  316SOL    HW210918   1.729   8.562   1.293
  317SOL     OW10919   1.912   9.305   1.850
  317SOL    HW110920   1.878   9.212   1.835
  317SOL    HW210921   1.835   9.369   1.847
  318SOL     OW10922   3.153   8.268   0.672
  318SOL    HW110923   3.197   8.280   0.583
  318SOL    HW210924   3.054   8.278   0.663
  319SOL     OW10925   1.311   3.799   1.390
  319SOL    HW110926   1.339   3.895   1.391
  319SOL    HW210927   1.331   3.760   1.301
  320SOL     OW10928   2.576   0.967   0.444
  320SOL    HW110929   2.500   1.022   0.479
  320SOL    HW210930   2.541   0.893   0.386
  321SOL     OW10931   0.711   9.546   0.968
  321SOL    HW110932   0.747   9.490   0.894
  321SOL    HW210933   0.787   9.584   1.022
  322SOL     OW10934   2.991   3.467   0.621
  322SOL    HW110935   3.012   3.374   0.653
  322SOL    HW210936   3.059   3.494   0.553
  323SOL     OW10937   9.082   3.814   2.097
  323SOL    HW110938   9.037   3.763   2.024
  323SOL    HW210939   9.118   3.750   2.165
  324SOL     OW10940   2.494   5.701   1.500
  324SOL    HW110941   2.556   5.764   1.547
  324SOL    HW210942   2.543   5.653   1.428
  325SOL     OW10943   0.728   9.616   0.440
  325SOL    HW110944   0.822   9.633   0.411
  325SOL    HW210945   0.688   9.699   0.477
  326SOL     OW10946   3.578   1.379   1.208
  326SOL    HW110947   3.610   1.418   1.121
  326SOL    HW210948   3.507   1.438   1.246
  327SOL     OW10949   0.615   0.070   0.446
  327SOL    HW110950   0.600   9.980   0.488
  327SOL    HW210951   0.537   0.129   0.467
  328SOL     OW10952   2.876   6.320   1.064
  328SOL    HW110953   2.888   6.367   0.977
  328SOL    HW210954   2.833   6.382   1.130
  329SOL     OW10955   1.289   9.773   0.546
  329SOL    HW110956   1.262   9.682   0.578
  329SOL    HW210957   1.253   9.842   0.609
  330SOL     OW10958   0.782   4.252   0.325
  330SOL    HW110959   0.757   4.259   0.228
  330SOL    HW210960   0.874   4.288   0.338
  331SOL     OW10961   4.634   2.083   1.560
  331SOL    HW110962   4.599   2.035   1.641
  331SOL    HW210963   4.601   2.038   1.477
  332SOL     OW10964   0.950   9.566   1.102
  332SOL    HW110965   0.961   9.643   1.165
  332SOL    HW210966   1.019   9.573   1.029
  333SOL     OW10967   4.909   3.398   2.204
  333SOL    HW110968   4.910   3.371   2.108
  333SOL    HW210969   4.875   3.323   2.260
  334SOL     OW10970   0.818   5.501   0.587
  334SOL    HW110971   0.900   5.452   0.615
  334SOL    HW210972   0.768   5.531   0.668
  335SOL     OW10973   0.364   9.115   1.092
  335SOL    HW110974   0.345   9.041   1.028
  335SOL    HW210975   0.336   9.202   1.053
  336SOL     OW10976   3.510   0.119   1.591
  336SOL    HW110977   3.535   0.207   1.551
  336SOL    HW210978   3.534   0.118   1.688
  337SOL     OW10979   4.912   1.414   2.040
  337SOL    HW110980   4.907   1.377   1.948
  337SOL    HW210981   4.836   1.379   2.095
  338SOL     OW10982   1.563   2.017   1.487
  338SOL    HW110983   1.512   2.100   1.511
  338SOL    HW210984   1.498   1.943   1.469
  339SOL     OW10985   2.903   8.199   1.074
  339SOL    HW110986   2.848   8.278   1.047
  339SOL    HW210987   2.983   8.231   1.126
  340SOL     OW10988   9.785   1.181   1.105
  340SOL    HW110989   9.803   1.096   1.057
  340SOL    HW210990   9.848   1.191   1.182
  341SOL     OW10991   1.111   2.914   2.005
  341SOL    HW110992   1.209   2.896   1.992
  341SOL    HW210993   1.078   2.864   2.085
  342SOL     OW10994   9.958   4.226   1.043
  342SOL    HW110995   9.871   4.271   1.022
  342SOL    HW210996   0.032   4.294   1.040
  343SOL     OW10997   3.507   8.345   0.918
  343SOL    HW110998   3.576   8.299   0.862
  343SOL    HW210999   3.532   8.441   0.931
  344SOL     OW11000   2.646   4.039   1.152
  344SOL    HW111001   2.642   4.019   1.250
  344SOL    HW211002   2.630   4.137   1.137
  345SOL     OW11003   1.702   7.997   1.038
  345SOL    HW111004   1.694   7.976   1.135
  345SOL    HW211005   1.619   7.966   0.991
  346SOL     OW11006   2.676   7.860   1.907
  346SOL    HW111007   2.738   7.786   1.934
  346SOL    HW211008   2.677   7.870   1.808
  347SOL     OW11009   3.831   2.883   1.304
  347SOL    HW111010   3.734   2.861   1.302
  347SOL    HW211011   3.885   2.800   1.289
  348SOL     OW11012   2.357   0.634   0.657
  348SOL    HW111013   2.395   0.562   0.600
  348SOL    HW211014   2.412   0.643   0.740
  349SOL     OW11015   0.290   2.222   2.222
  349SOL    HW111016   0.378   2.266   2.203
  349SOL    HW211017   0.220   2.292   2.230
  350SOL     OW11018   3.888   0.750   2.181
  350SOL    HW111019   3.851   0.767   2.272
  350SOL    HW211020   3.851   0.664   2.145
  351SOL     OW11021   4.830   4.528   0.702
  351SOL    HW111022   4.811   4.602   0.638
  351SOL    HW211023   4.776   4.541   0.785
  352SOL     OW11024   0.864   2.989   1.518
  352SOL    HW111025   0.910   2.978   1.606
  352SOL    HW211026   0.849   3.086   1.499
  353SOL     OW11027   0.012   2.160   2.219
  353SOL    HW111028   0.107   2.132   2.226
  353SOL    HW211029   0.005   2.258   2.239
  354SOL     OW11030   1.576   0.524   0.382
  354SOL    HW111031   1.624   0.509   0.469
  354SOL    HW211032   1.594   0.447   0.320
  355SOL     OW11033   1.522   2.968   0.427
  355SOL    HW111034   1.620   2.963   0.441
  355SOL    HW211035   1.476   2.895   0.480
  356SOL     OW11036   2.746   9.138   1.740
  356SOL    HW111037   2.680   9.063   1.744
  356SOL    HW211038   2.735   9.188   1.655
  357SOL     OW11039   9.833   3.330   2.267
  357SOL    HW111040   9.736   3.348   2.254
  357SOL    HW211041   9.874   3.404   2.321
  358SOL     OW11042   3.587   0.228   0.765
  358SOL    HW111043   3.686   0.234   0.782
  358SOL    HW211044   3.566   0.268   0.676
  359SOL     OW11045   9.335   1.258   0.982
  359SOL    HW111046   9.402   1.265   1.056
  359SOL    HW211047   9.260   1.198   1.010
  360SOL     OW11048   0.756   0.678   0.741
  360SOL    HW111049   0.835   0.710   0.688
  360SOL    HW211050   0.740   0.581   0.723
  361SOL     OW11051   4.183   2.725   1.355
  361SOL    HW111052   4.245   2.785   1.304
  361SOL    HW211053   4.107   2.697   1.295
  362SOL     OW11054   1.006   3.794   2.104
  362SOL    HW111055   1.078   3.756   2.162
  362SOL    HW211056   1.029   3.777   2.008
  363SOL     OW11057   1.160   0.803   2.049
  363SOL    HW111058   1.072   0.803   2.097
  363SOL    HW211059   1.203   0.713   2.060
  364SOL     OW11060   0.560   3.178   1.428
  364SOL    HW111061   0.658   3.195   1.422
  364SOL    HW211062   0.531   3.120   1.352
  365SOL     OW11063   3.091   3.203   0.655
  365SOL    HW111064   3.103   3.222   0.753
  365SOL    HW211065   3.137   3.117   0.632
  366SOL     OW11066   3.789   0.517   2.077
  366SOL    HW111067   3.796   0.523   1.978
  366SOL    HW211068   3.792   0.422   2.105
  367SOL     OW11069   1.330   8.858   1.885
  367SOL    HW111070   1.311   8.825   1.977
  367SOL    HW211071   1.333   8.958   1.885
  368SOL     OW11072   1.049   8.831   0.557
  368SOL    HW111073   0.987   8.899   0.596
  368SOL    HW211074   1.137   8.836   0.605
  369SOL     OW11075   8.716   2.788   2.328
  369SOL    HW111076   8.629   2.783   2.279
  369SOL    HW211077   8.767   2.703   2.316
  370SOL     OW11078   0.383   2.980   2.158
  370SOL    HW111079   0.428   3.067   2.179
  370SOL    HW211080   0.284   2.994   2.155
  371SOL     OW11081   1.829   1.735   2.051
  371SOL    HW111082   1.759   1.779   2.108
  371SOL    HW211083   1.918   1.773   2.073
  372SOL     OW11084   4.824   2.441   2.099
  372SOL    HW111085   4.813   2.401   2.008
  372SOL    HW211086   4.911   2.491   2.102
  373SOL     OW11087   2.467   6.602   0.804
  373SOL    HW111088   2.494   6.521   0.753
  373SOL    HW211089   2.508   6.599   0.895
  374SOL     OW11090   9.045   2.659   1.452
  374SOL    HW111091   9.131   2.645   1.501
  374SOL    HW211092   9.059   2.644   1.354
  375SOL     OW11093   1.151   2.434   0.837
  375SOL    HW111094   1.091   2.377   0.893
  375SOL    HW211095   1.247   2.409   0.855
  376SOL     OW11096   0.775   3.123   2.141
  376SOL    HW111097   0.804   3.058   2.212
  376SOL    HW211098   0.724   3.075   2.070
  377SOL     OW11099   2.572   5.062   1.618
  377SOL    HW111100   2.651   5.004   1.637
  377SOL    HW211101   2.595   5.158   1.634
  378SOL     OW11102   0.787   0.279   0.506
  378SOL    HW111103   0.778   0.359   0.447
  378SOL    HW211104   0.728   0.206   0.473
  379SOL     OW11105   3.643   3.325   0.672
  379SOL    HW111106   3.691   3.254   0.724
  379SOL    HW211107   3.587   3.379   0.734
  380SOL     OW11108   0.759   1.234   0.433
  380SOL    HW111109   0.659   1.232   0.427
  380SOL    HW211110   0.789   1.327   0.453
  381SOL     OW11111   3.809   1.363   0.806
  381SOL    HW111112   3.750   1.305   0.750
  381SOL    HW211113   3.754   1.408   0.877
  382SOL     OW11114   1.471   7.705   0.459
  382SOL    HW111115   1.371   7.715   0.456
  382SOL    HW211116   1.497   7.614   0.427
  383SOL     OW11117   1.454   7.533   1.216
  383SOL    HW111118   1.461   7.434   1.223
  383SOL    HW211119   1.541   7.570   1.183
  384SOL     OW11120   4.087   1.901   1.125
  384SOL    HW111121   4.106   1.804   1.109
  384SOL    HW211122   4.147   1.957   1.067
  385SOL     OW11123   1.421   1.119   0.958
  385SOL    HW111124   1.398   1.123   0.861
  385SOL    HW211125   1.519   1.102   0.968
  386SOL     OW11126   1.959   4.276   0.884
  386SOL    HW111127   1.878   4.240   0.836
  386SOL    HW211128   1.951   4.375   0.893
  387SOL     OW11129   3.137   0.111   0.848
  387SOL    HW111130   3.102   0.203   0.830
  387SOL    HW211131   3.174   0.108   0.941
  388SOL     OW11132   0.875   9.773   1.900
  388SOL    HW111133   0.831   9.755   1.812
  388SOL    HW211134   0.974   9.774   1.888
  389SOL     OW11135   2.437   6.754   0.512
  389SOL    HW111136   2.517   6.758   0.572
  389SOL    HW211137   2.425   6.843   0.467
  390SOL     OW11138   3.165   8.541   2.185
  390SOL    HW111139   3.073   8.580   2.183
  390SOL    HW211140   3.164   8.453   2.232
  391SOL     OW11141   3.246   8.447   0.861
  391SOL    HW111142   3.335   8.411   0.889
  391SOL    HW211143   3.205   8.384   0.795
  392SOL     OW11144   2.258   6.779   1.715
  392SOL    HW111145   2.296   6.867   1.687
  392SOL    HW211146   2.249   6.777   1.815
  393SOL     OW11147   0.798   3.895   1.268
  393SOL    HW111148   0.865   3.837   1.314
  393SOL    HW211149   0.724   3.917   1.331
  394SOL     OW11150   1.517   4.751   0.689
  394SOL    HW111151   1.461   4.673   0.661
  394SOL    HW211152   1.510   4.762   0.788
  395SOL     OW11153   0.412   0.241   0.514
  395SOL    HW111154   0.409   0.305   0.591
  395SOL    HW211155   0.328   0.249   0.460
  396SOL     OW11156   2.796   2.131   0.817
  396SOL    HW111157   2.878   2.091   0.776
  396SOL    HW211158   2.715   2.084   0.782
  397SOL     OW11159   1.883   6.865   1.022
  397SOL    HW111160   1.883   6.923   1.103
  397SOL    HW211161   1.900   6.770   1.050
  398SOL     OW11162   3.755   8.578   1.870
  398SOL    HW111163   3.805   8.494   1.893
  398SOL    HW211164   3.767   8.598   1.773
  399SOL     OW11165   1.268   7.236   1.970
  399SOL    HW111166   1.312   7.225   2.059
  399SOL    HW211167   1.192   7.171   1.962
  400SOL     OW11168   3.222   0.898   2.175
  400SOL    HW111169   3.128   0.931   2.166
  400SOL    HW211170   3.286   0.972   2.157
  401SOL     OW11171   1.791   7.144   2.148
  401SOL    HW111172   1.877   7.111   2.185
  401SOL    HW211173   1.805   7.234   2.105
  402SOL     OW11174   4.066   3.466   0.745
  402SOL    HW111175   4.117   3.547   0.716
  402SOL    HW211176   4.051   3.470   0.844
  403SOL     OW11177   1.890   5.715   0.811
  403SOL    HW111178   1.949   5.654   0.864
  403SOL    HW211179   1.817   5.750   0.870
  404SOL     OW11180   4.107   4.225   0.797
  404SOL    HW111181   4.008   4.221   0.782
  404SOL    HW211182   4.125   4.276   0.881
  405SOL     OW11183   1.027   3.158   0.758
  405SOL    HW111184   0.951   3.098   0.786
  405SOL    HW211185   1.095   3.161   0.831
  406SOL     OW11186   3.145   8.985   1.036
  406SOL    HW111187   3.080   8.909   1.039
  406SOL    HW211188   3.145   9.024   0.943
  407SOL     OW11189   1.013   1.730   2.019
  407SOL    HW111190   1.078   1.775   1.958
  407SOL    HW211191   1.005   1.634   1.995
  408SOL     OW11192   2.893   2.826   1.260
  408SOL    HW111193   2.816   2.814   1.323
  408SOL    HW211194   2.929   2.737   1.232
  409SOL     OW11195   1.392   1.122   0.685
  409SOL    HW111196   1.482   1.141   0.646
  409SOL    HW211197   1.368   1.026   0.670
  410SOL     OW11198   2.386   4.698   1.884
  410SOL    HW111199   2.399   4.764   1.958
  410SOL    HW211200   2.309   4.725   1.827
  411SOL     OW11201   0.597   9.955   1.323
  411SOL    HW111202   0.667   9.990   1.385
  411SOL    HW211203   0.582   9.858   1.340
  412SOL     OW11204   2.418   2.696   1.400
  412SOL    HW111205   2.431   2.714   1.302
  412SOL    HW211206   2.365   2.770   1.441
  413SOL     OW11207   0.204   7.026   0.706
  413SOL    HW111208   0.216   7.049   0.610
  413SOL    HW211209   0.161   7.103   0.754
  414SOL     OW11210   0.174   4.599   2.133
  414SOL    HW111211   0.142   4.676   2.188
  414SOL    HW211212   0.269   4.615   2.106
  415SOL     OW11213   0.333   6.083   2.171
  415SOL    HW111214   0.345   5.989   2.138
  415SOL    HW211215   0.387   6.145   2.114
  416SOL     OW11216   0.363   8.865   0.963
  416SOL    HW111217   0.312   8.780   0.950
  416SOL    HW211218   0.458   8.851   0.935
  417SOL     OW11219   2.633   0.420   0.956
  417SOL    HW111220   2.579   0.376   0.884
  417SOL    HW211221   2.720   0.371   0.967
  418SOL     OW11222   8.970   4.540   1.157
  418SOL    HW111223   8.949   4.456   1.206
  418SOL    HW211224   8.954   4.619   1.216
  419SOL     OW11225   0.374   0.856   2.121
  419SOL    HW111226   0.420   0.938   2.088
  419SOL    HW211227   0.428   0.776   2.097
  420SOL     OW11228   1.200   3.660   2.245
  420SOL    HW111229   1.262   3.606   2.188
  420SOL    HW211230   1.252   3.703   2.319
  421SOL     OW11231   1.049   5.538   1.877
  421SOL    HW111232   1.061   5.442   1.853
  421SOL    HW211233   1.109   5.595   1.820
  422SOL     OW11234   2.763   6.120   1.563
  422SOL    HW111235   2.706   6.184   1.614
  422SOL    HW211236   2.749   6.133   1.465
  423SOL     OW11237   1.741   2.476   0.580
  423SOL    HW111238   1.821   2.418   0.568
  423SOL    HW211239   1.746   2.553   0.517
  424SOL     OW11240   2.778   7.225   2.166
  424SOL    HW111241   2.696   7.173   2.191
  424SOL    HW211242   2.859   7.172   2.191
  425SOL     OW11243   3.384   3.269   1.746
  425SOL    HW111244   3.318   3.228   1.684
  425SOL    HW211245   3.445   3.329   1.695
  426SOL     OW11246   3.110   0.242   1.804
  426SOL    HW111247   3.083   0.157   1.849
  426SOL    HW211248   3.166   0.221   1.723
  427SOL     OW11249   8.821   2.072   2.135
  427SOL    HW111250   8.751   2.139   2.163
  427SOL    HW211251   8.799   2.038   2.043
  428SOL     OW11252   0.734   6.624   1.223
  428SOL    HW111253   0.714   6.625   1.126
  428SOL    HW211254   0.808   6.560   1.242
  429SOL     OW11255   1.744   4.867   1.082
  429SOL    HW111256   1.796   4.905   1.006
  429SOL    HW211257   1.731   4.938   1.152
  430SOL     OW11258   9.259   5.103   2.210
  430SOL    HW111259   9.264   5.094   2.111
  430SOL    HW211260   9.339   5.060   2.252
  431SOL     OW11261   9.750   4.466   2.227
  431SOL    HW111262   9.825   4.529   2.245
  431SOL    HW211263   9.694   4.502   2.153
  432SOL     OW11264   9.988   6.148   0.394
  432SOL    HW111265   0.031   6.152   0.484
  432SOL    HW211266   9.957   6.055   0.376
  433SOL     OW11267   2.415   0.593   2.040
  433SOL    HW111268   2.513   0.610   2.027
  433SOL    HW211269   2.382   0.649   2.116
  434SOL     OW11270   1.491   2.563   1.592
  434SOL    HW111271   1.542   2.485   1.558
  434SOL    HW211272   1.404   2.532   1.631
  435SOL     OW11273   0.606   0.706   0.508
  435SOL    HW111274   0.659   0.716   0.592
  435SOL    HW211275   0.509   0.704   0.529
  436SOL     OW11276   2.453   4.956   1.397
  436SOL    HW111277   2.486   4.994   1.484
  436SOL    HW211278   2.529   4.952   1.332
  437SOL     OW11279   2.363   6.367   1.106
  437SOL    HW111280   2.295   6.328   1.045
  437SOL    HW211281   2.434   6.299   1.125
  438SOL     OW11282   9.915   1.301   0.758
  438SOL    HW111283   9.962   1.213   0.748
  438SOL    HW211284   9.819   1.290   0.731
  439SOL     OW11285   9.838   1.953   2.244
  439SOL    HW111286   9.794   1.955   2.334
  439SOL    HW211287   9.900   2.031   2.236
  440SOL     OW11288   1.734   2.687   0.413
  440SOL    HW111289   1.668   2.703   0.339
  440SOL    HW211290   1.761   2.774   0.453
  441SOL     OW11291   2.485   8.608   1.735
  441SOL    HW111292   2.552   8.650   1.673
  441SOL    HW211293   2.479   8.510   1.716
  442SOL     OW11294   0.115   3.030   2.133
  442SOL    HW111295   0.093   2.990   2.044
  442SOL    HW211296   0.033   3.031   2.190
  443SOL     OW11297   3.559   2.541   1.483
  443SOL    HW111298   3.460   2.529   1.488
  443SOL    HW211299   3.601   2.506   1.566
  444SOL     OW11300   2.886   9.129   0.427
  444SOL    HW111301   2.962   9.080   0.385
  444SOL    HW211302   2.887   9.113   0.525
  445SOL     OW11303   3.138   9.017   2.204
  445SOL    HW111304   3.059   8.964   2.233
  445SOL    HW211305   3.221   8.961   2.213
  446SOL     OW11306   3.834   3.515   0.607
  446SOL    HW111307   3.767   3.442   0.621
  446SOL    HW211308   3.919   3.492   0.653
  447SOL     OW11309   2.472   1.163   1.752
  447SOL    HW111310   2.492   1.091   1.819
  447SOL    HW211311   2.541   1.235   1.760
  448SOL     OW11312   1.214   6.508   2.007
  448SOL    HW111313   1.172   6.451   2.078
  448SOL    HW211314   1.172   6.599   2.008
  449SOL     OW11315   1.458   0.721   2.239
  449SOL    HW111316   1.521   0.774   2.184
  449SOL    HW211317   1.406   0.659   2.180
  450SOL     OW11318   1.944   0.010   0.662
  450SOL    HW111319   1.866   0.029   0.603
  450SOL    HW211320   2.000   9.938   0.620
  451SOL     OW11321   3.910   3.852   1.283
  451SOL    HW111322   3.863   3.940   1.276
  451SOL    HW211323   4.009   3.866   1.275
  452SOL     OW11324   2.018   2.897   1.882
  452SOL    HW111325   2.047   2.986   1.848
  452SOL    HW211326   1.933   2.869   1.837
  453SOL     OW11327   2.279   3.090   1.297
  453SOL    HW111328   2.283   3.035   1.380
  453SOL    HW211329   2.368   3.090   1.252
  454SOL     OW11330   1.994   3.297   0.974
  454SOL    HW111331   1.933   3.352   1.031
  454SOL    HW211332   2.085   3.339   0.972
  455SOL     OW11333   3.107   4.685   1.121
  455SOL    HW111334   3.043   4.707   1.047
  455SOL    HW211335   3.198   4.718   1.097
  456SOL     OW11336   2.561   4.854   0.976
  456SOL    HW111337   2.487   4.907   1.018
  456SOL    HW211338   2.648   4.899   0.994
  457SOL     OW11339   4.868   2.365   0.878
  457SOL    HW111340   4.832   2.439   0.935
  457SOL    HW211341   4.942   2.401   0.820
  458SOL     OW11342   0.866   4.335   1.728
  458SOL    HW111343   0.956   4.292   1.719
  458SOL    HW211344   0.802   4.291   1.665
  459SOL     OW11345   1.481   8.681   1.741
  459SOL    HW111346   1.482   8.590   1.781
  459SOL    HW211347   1.421   8.741   1.795
  460SOL     OW11348   0.848   1.232   1.634
  460SOL    HW111349   0.870   1.222   1.731
  460SOL    HW211350   0.785   1.309   1.622
  461SOL     OW11351   0.943   5.118   1.978
  461SOL    HW111352   0.860   5.062   1.971
  461SOL    HW211353   0.979   5.113   2.072
  462SOL     OW11354   2.628   7.634   1.443
  462SOL    HW111355   2.543   7.590   1.414
  462SOL    HW211356   2.671   7.679   1.365
  463SOL     OW11357   1.724   5.081   1.252
  463SOL    HW111358   1.809   5.114   1.293
  463SOL    HW211359   1.669   5.160   1.224
  464SOL     OW11360   4.070   9.441   0.926
  464SOL    HW111361   4.092   9.427   1.023
  464SOL    HW211362   3.977   9.478   0.918
  465SOL     OW11363   1.776   6.909   0.764
  465SOL    HW111364   1.838   6.848   0.713
  465SOL    HW211365   1.797   6.902   0.862
  466SOL     OW11366   9.440   4.855   0.943
  466SOL    HW111367   9.533   4.891   0.937
  466SOL    HW211368   9.434   4.789   1.018
  467SOL     OW11369   9.377   4.095   2.132
  467SOL    HW111370   9.375   4.003   2.093
  467SOL    HW211371   9.397   4.161   2.059
  468SOL     OW11372   3.728   1.939   0.462
  468SOL    HW111373   3.805   1.988   0.502
  468SOL    HW211374   3.728   1.845   0.495
  469SOL     OW11375   4.113   8.267   0.501
  469SOL    HW111376   4.105   8.195   0.432
  469SOL    HW211377   4.164   8.232   0.579
  470SOL     OW11378   4.640   1.937   2.005
  470SOL    HW111379   4.572   1.950   2.077
  470SOL    HW211380   4.594   1.931   1.917
  471SOL     OW11381   1.029   1.969   2.165
  471SOL    HW111382   0.944   2.002   2.206
  471SOL    HW211383   1.016   1.875   2.134
  472SOL     OW11384   0.789   6.469   1.508
  472SOL    HW111385   0.708   6.411   1.499
  472SOL    HW211386   0.764   6.555   1.551
  473SOL     OW11387   0.566   1.946   0.551
  473SOL    HW111388   0.634   1.999   0.602
  473SOL    HW211389   0.474   1.974   0.579
  474SOL     OW11390   1.358   6.275   1.232
  474SOL    HW111391   1.263   6.248   1.221
  474SOL    HW211392   1.405   6.208   1.290
  475SOL     OW11393   2.757   9.537   1.564
  475SOL    HW111394   2.843   9.540   1.616
  475SOL    HW211395   2.680   9.531   1.627
  476SOL     OW11396   1.787   2.933   0.523
  476SOL    HW111397   1.883   2.927   0.549
  476SOL    HW211398   1.738   2.992   0.587
  477SOL     OW11399   0.421   4.660   2.025
  477SOL    HW111400   0.458   4.574   1.989
  477SOL    HW211401   0.400   4.721   1.949
  478SOL     OW11402   3.105   9.201   1.201
  478SOL    HW111403   3.117   9.125   1.138
  478SOL    HW211404   3.181   9.204   1.266
  479SOL     OW11405   2.670   2.160   2.109
  479SOL    HW111406   2.606   2.229   2.074
  479SOL    HW211407   2.759   2.202   2.124
  480SOL     OW11408   1.681   9.966   1.530
  480SOL    HW111409   1.746   9.900   1.493
  480SOL    HW211410   1.679   0.047   1.472
  481SOL     OW11411   2.487   9.145   1.422
  481SOL    HW111412   2.499   9.075   1.352
  481SOL    HW211413   2.575   9.186   1.444
  482SOL     OW11414   4.652   2.920   1.257
  482SOL    HW111415   4.669   2.963   1.346
  482SOL    HW211416   4.659   2.989   1.185
  483SOL     OW11417   0.927   4.090   1.509
  483SOL    HW111418   0.836   4.129   1.521
  483SOL    HW211419   0.930   3.998   1.549
  484SOL     OW11420   1.521   6.888   0.664
  484SOL    HW111421   1.612   6.893   0.703
  484SOL    HW211422   1.478   6.802   0.691
  485SOL     OW11423   2.029   4.779   0.800
  485SOL    HW111424   2.107   4.777   0.862
  485SOL    HW211425   1.972   4.858   0.820
  486SOL     OW11426   2.645   9.987   2.076
  486SOL    HW111427   2.688   0.041   2.004
  486SOL    HW211428   2.689   0.008   2.164
  487SOL     OW11429   1.559   4.056   0.584
  487SOL    HW111430   1.564   4.004   0.499
  487SOL    HW211431   1.519   3.999   0.656
  488SOL     OW11432   1.124   4.462   1.556
  488SOL    HW111433   1.040   4.476   1.504
  488SOL    HW211434   1.121   4.373   1.601
  489SOL     OW11435   0.824   0.524   1.473
  489SOL    HW111436   0.763   0.461   1.424
  489SOL    HW211437   0.775   0.566   1.549
  490SOL     OW11438   9.079   4.326   1.598
  490SOL    HW111439   9.057   4.301   1.692
  490SOL    HW211440   9.063   4.247   1.538
  491SOL     OW11441   9.286   4.148   1.792
  491SOL    HW111442   9.340   4.215   1.844
  491SOL    HW211443   9.189   4.168   1.803
  492SOL     OW11444   1.204   5.706   1.730
  492SOL    HW111445   1.299   5.674   1.726
  492SOL    HW211446   1.198   5.785   1.790
  493SOL     OW11447   3.326   7.437   1.192
  493SOL    HW111448   3.344   7.367   1.123
  493SOL    HW211449   3.379   7.519   1.170
  494SOL     OW11450   3.148   9.018   1.928
  494SOL    HW111451   3.234   9.063   1.907
  494SOL    HW211452   3.133   9.019   2.027
  495SOL     OW11453   3.069   5.310   2.121
  495SOL    HW111454   3.166   5.329   2.105
  495SOL    HW211455   3.024   5.293   2.034
  496SOL     OW11456   3.235   2.213   1.447
  496SOL    HW111457   3.137   2.216   1.430
  496SOL    HW211458   3.262   2.120   1.472
  497SOL     OW11459   4.131   2.997   1.739
  497SOL    HW111460   4.055   3.062   1.736
  497SOL    HW211461   4.105   2.913   1.692
  498SOL     OW11462   2.943   3.182   1.287
  498SOL    HW111463   3.011   3.111   1.268
  498SOL    HW211464   2.926   3.236   1.205
  499SOL     OW11465   3.378   4.654   1.383
  499SOL    HW111466   3.448   4.598   1.339
  499SOL    HW211467   3.304   4.596   1.416
  500SOL     OW11468   1.259   7.553   1.023
  500SOL    HW111469   1.242   7.645   0.989
  500SOL    HW211470   1.328   7.556   1.095
  501SOL     OW11471   0.690   6.385   2.056
  501SOL    HW111472   0.732   6.420   1.972
  501SOL    HW211473   0.608   6.333   2.032
  502SOL     OW11474   4.966   2.343   1.509
  502SOL    HW111475   5.052   2.392   1.526
  502SOL    HW211476   4.952   2.274   1.579
  503SOL     OW11477   3.015   6.544   2.145
  503SOL    HW111478   3.016   6.480   2.221
  503SOL    HW211479   3.007   6.494   2.059
  504SOL     OW11480   0.773   2.714   1.141
  504SOL    HW111481   0.834   2.667   1.077
  504SOL    HW211482   0.715   2.647   1.188
  505SOL     OW11483   4.110   3.627   1.415
  505SOL    HW111484   4.186   3.634   1.350
  505SOL    HW211485   4.028   3.595   1.367
  506SOL     OW11486   1.979   9.021   1.614
  506SOL    HW111487   2.026   8.946   1.567
  506SOL    HW211488   2.009   9.108   1.576
  507SOL     OW11489   3.344   8.120   1.864
  507SOL    HW111490   3.294   8.206   1.854
  507SOL    HW211491   3.373   8.088   1.773
  508SOL     OW11492   1.109   7.851   0.696
  508SOL    HW111493   1.125   7.918   0.768
  508SOL    HW211494   1.094   7.761   0.736
  509SOL     OW11495   9.025   3.151   1.971
  509SOL    HW111496   9.074   3.140   2.058
  509SOL    HW211497   8.951   3.216   1.983
  510SOL     OW11498   0.168   1.395   0.835
  510SOL    HW111499   0.189   1.488   0.803
  510SOL    HW211500   0.076   1.370   0.805
  511SOL     OW11501   0.849   9.377   0.803
  511SOL    HW111502   0.840   9.287   0.844
  511SOL    HW211503   0.805   9.378   0.713
  512SOL     OW11504   3.577   0.844   1.544
  512SOL    HW111505   3.653   0.838   1.480
  512SOL    HW211506   3.610   0.833   1.638
  513SOL     OW11507   2.153   4.323   2.174
  513SOL    HW111508   2.077   4.273   2.132
  513SOL    HW211509   2.149   4.419   2.148
  514SOL     OW11510   4.156   1.194   1.177
  514SOL    HW111511   4.244   1.161   1.145
  514SOL    HW211512   4.102   1.227   1.099
  515SOL     OW11513   9.381   4.440   2.180
  515SOL    HW111514   9.284   4.461   2.186
  515SOL    HW211515   9.411   4.396   2.264
  516SOL     OW11516   2.122   6.348   1.431
  516SOL    HW111517   2.109   6.266   1.374
  516SOL    HW211518   2.197   6.333   1.495
  517SOL     OW11519   1.188   7.125   0.874
  517SOL    HW111520   1.232   7.084   0.795
  517SOL    HW211521   1.113   7.184   0.844
  518SOL     OW11522   4.050   0.937   1.788
  518SOL    HW111523   4.133   0.977   1.749
  518SOL    HW211524   3.992   1.010   1.825
  519SOL     OW11525   0.378   0.343   1.479
  519SOL    HW111526   0.282   0.365   1.495
  519SOL    HW211527   0.401   0.258   1.527
  520SOL     OW11528   8.794   2.615   1.549
  520SOL    HW111529   8.887   2.617   1.512
  520SOL    HW211530   8.728   2.616   1.473
  521SOL     OW11531   4.755   2.509   1.445
  521SOL    HW111532   4.840   2.461   1.469
  521SOL    HW211533   4.679   2.444   1.448
  522SOL     OW11534   3.838   1.459   1.309
  522SOL    HW111535   3.752   1.417   1.280
  522SOL    HW211536   3.818   1.539   1.367
  523SOL     OW11537   1.819   3.488   1.087
  523SOL    HW111538   1.888   3.558   1.103
  523SOL    HW211539   1.774   3.506   0.999
  524SOL     OW11540   0.339   4.363   1.241
  524SOL    HW111541   0.422   4.314   1.217
  524SOL    HW211542   0.280   4.369   1.160
  525SOL     OW11543   0.702   4.160   2.155
  525SOL    HW111544   0.736   4.229   2.091
  525SOL    HW211545   0.603   4.168   2.164
  526SOL     OW11546   9.151   2.429   0.596
  526SOL    HW111547   9.201   2.356   0.549
  526SOL    HW211548   9.171   2.425   0.694
  527SOL     OW11549   2.449   4.488   2.179
  527SOL    HW111550   2.432   4.408   2.236
  527SOL    HW211551   2.437   4.465   2.083
  528SOL     OW11552   2.512   2.146   1.760
  528SOL    HW111553   2.612   2.141   1.766
  528SOL    HW211554   2.471   2.071   1.811
  529SOL     OW11555   1.007   0.730   1.007
  529SOL    HW111556   1.027   0.798   0.937
  529SOL    HW211557   0.907   0.723   1.019
  530SOL     OW11558   0.816   5.080   1.264
  530SOL    HW111559   0.901   5.115   1.224
  530SOL    HW211560   0.838   5.018   1.339
  531SOL     OW11561   4.235   1.005   1.411
  531SOL    HW111562   4.197   1.072   1.348
  531SOL    HW211563   4.227   0.914   1.371
  532SOL     OW11564   3.341   3.405   0.991
  532SOL    HW111565   3.402   3.443   0.921
  532SOL    HW211566   3.328   3.473   1.064
  533SOL     OW11567   0.594   1.258   0.813
  533SOL    HW111568   0.513   1.222   0.860
  533SOL    HW211569   0.572   1.344   0.768
  534SOL     OW11570   8.678   1.798   0.307
  534SOL    HW111571   8.579   1.787   0.309
  534SOL    HW211572   8.712   1.774   0.216
  535SOL     OW11573   3.403   9.900   1.879
  535SOL    HW111574   3.340   9.914   1.956
  535SOL    HW211575   3.470   9.974   1.877
  536SOL     OW11576   1.598   9.479   1.082
  536SOL    HW111577   1.499   9.482   1.067
  536SOL    HW211578   1.617   9.441   1.172
  537SOL     OW11579   0.832   7.829   1.092
  537SOL    HW111580   0.835   7.864   0.999
  537SOL    HW211581   0.878   7.894   1.153
  538SOL     OW11582   1.449   5.202   0.902
  538SOL    HW111583   1.537   5.177   0.863
  538SOL    HW211584   1.381   5.132   0.880
  539SOL     OW11585   0.599   3.588   1.557
  539SOL    HW111586   0.509   3.631   1.546
  539SOL    HW211587   0.645   3.583   1.469
  540SOL     OW11588   9.893   3.519   0.916
  540SOL    HW111589   9.962   3.592   0.923
  540SOL    HW211590   9.929   3.445   0.859
  541SOL     OW11591   5.263   2.833   1.388
  541SOL    HW111592   5.169   2.805   1.407
  541SOL    HW211593   5.263   2.897   1.310
  542SOL     OW11594   0.627   5.495   1.490
  542SOL    HW111595   0.657   5.562   1.558
  542SOL    HW211596   0.703   5.471   1.430
  543SOL     OW11597   3.705   8.826   0.448
  543SOL    HW111598   3.744   8.791   0.363
  543SOL    HW211599   3.734   8.769   0.524
  544SOL     OW11600   9.885   2.231   0.613
  544SOL    HW111601   9.951   2.283   0.559
  544SOL    HW211602   9.855   2.286   0.691
  545SOL     OW11603   2.140   8.849   1.918
  545SOL    HW111604   2.150   8.926   1.981
  545SOL    HW211605   2.043   8.832   1.902
  546SOL     OW11606   3.062   0.375   0.798
  546SOL    HW111607   3.036   0.409   0.889
  546SOL    HW211608   3.000   0.413   0.729
  547SOL     OW11609   1.008   6.580   1.050
  547SOL    HW111610   0.992   6.529   1.134
  547SOL    HW211611   1.102   6.563   1.019
  548SOL     OW11612   2.724   7.784   0.685
  548SOL    HW111613   2.747   7.722   0.761
  548SOL    HW211614   2.641   7.836   0.709
  549SOL     OW11615   2.505   1.958   0.997
  549SOL    HW111616   2.519   1.974   0.900
  549SOL    HW211617   2.561   2.022   1.050
  550SOL     OW11618   1.100   9.488   0.862
  550SOL    HW111619   1.137   9.522   0.775
  550SOL    HW211620   1.008   9.452   0.846
  551SOL     OW11621   1.432   0.479   0.662
  551SOL    HW111622   1.389   0.484   0.752
  551SOL    HW211623   1.392   0.547   0.601
  552SOL     OW11624   0.352   1.224   0.942
  552SOL    HW111625   0.294   1.292   0.896
  552SOL    HW211626   0.302   1.139   0.952
  553SOL     OW11627   3.377   7.896   1.397
  553SOL    HW111628   3.305   7.952   1.357
  553SOL    HW211629   3.336   7.817   1.444
  554SOL     OW11630   1.063   5.770   1.503
  554SOL    HW111631   0.986   5.828   1.533
  554SOL    HW211632   1.109   5.733   1.584
  555SOL     OW11633   2.305   9.933   0.950
  555SOL    HW111634   2.221   9.979   0.921
  555SOL    HW211635   2.300   9.914   1.048
  556SOL     OW11636   2.621   9.161   0.367
  556SOL    HW111637   2.719   9.159   0.388
  556SOL    HW211638   2.603   9.231   0.298
  557SOL     OW11639   1.960   3.846   0.803
  557SOL    HW111640   1.892   3.892   0.861
  557SOL    HW211641   1.914   3.781   0.744
  558SOL     OW11642   1.816   8.956   1.093
  558SOL    HW111643   1.910   8.923   1.080
  558SOL    HW211644   1.818   9.044   1.140
  559SOL     OW11645   1.018   1.480   1.884
  559SOL    HW111646   0.977   1.391   1.906
  559SOL    HW211647   1.109   1.465   1.843
  560SOL     OW11648   0.411   9.616   0.633
  560SOL    HW111649   0.444   9.528   0.598
  560SOL    HW211650   0.315   9.627   0.609
  561SOL     OW11651   1.958   2.562   0.930
  561SOL    HW111652   2.011   2.613   0.862
  561SOL    HW211653   2.002   2.569   1.019
  562SOL     OW11654   3.299   2.469   1.520
  562SOL    HW111655   3.286   2.494   1.616
  562SOL    HW211656   3.286   2.371   1.509
  563SOL     OW11657   9.589   5.556   0.898
  563SOL    HW111658   9.555   5.464   0.878
  563SOL    HW211659   9.525   5.624   0.861
  564SOL     OW11660   3.514   1.648   1.530
  564SOL    HW111661   3.474   1.734   1.564
  564SOL    HW211662   3.466   1.619   1.447
  565SOL     OW11663   3.768   2.583   1.880
  565SOL    HW111664   3.807   2.595   1.971
  565SOL    HW211665   3.758   2.672   1.836
  566SOL     OW11666   0.519   4.430   1.916
  566SOL    HW111667   0.610   4.399   1.945
  566SOL    HW211668   0.490   4.378   1.836
  567SOL     OW11669   1.274   3.440   0.982
  567SOL    HW111670   1.335   3.467   0.907
  567SOL    HW211671   1.247   3.345   0.971
  568SOL     OW11672   1.053   0.630   0.443
  568SOL    HW111673   1.046   0.543   0.493
  568SOL    HW211674   1.014   0.703   0.499
  569SOL     OW11675   0.731   7.723   1.674
  569SOL    HW111676   0.802   7.720   1.745
  569SOL    HW211677   0.772   7.749   1.587
  570SOL     OW11678   4.872   1.925   1.844
  570SOL    HW111679   4.859   1.835   1.803
  570SOL    HW211680   4.799   1.943   1.910
  571SOL     OW11681   9.157   4.535   0.531
  571SOL    HW111682   9.173   4.533   0.630
  571SOL    HW211683   9.173   4.443   0.494
  572SOL     OW11684   1.424   4.957   0.542
  572SOL    HW111685   1.501   5.013   0.511
  572SOL    HW211686   1.458   4.874   0.586
  573SOL     OW11687   2.776   6.037   0.849
  573SOL    HW111688   2.740   6.130   0.848
  573SOL    HW211689   2.820   6.019   0.937
  574SOL     OW11690   1.283   0.458   1.620
  574SOL    HW111691   1.198   0.436   1.572
  574SOL    HW211692   1.343   0.509   1.559
  575SOL     OW11693   2.201   9.280   1.249
  575SOL    HW111694   2.283   9.337   1.252
  575SOL    HW211695   2.152   9.296   1.164
  576SOL     OW11696   3.601   8.180   1.948
  576SOL    HW111697   3.625   8.135   2.034
  576SOL    HW211698   3.510   8.150   1.919
  577SOL     OW11699   2.926   2.038   0.458
  577SOL    HW111700   2.970   2.054   0.547
  577SOL    HW211701   2.943   2.115   0.398
  578SOL     OW11702   2.019   3.032   0.902
  578SOL    HW111703   2.010   3.130   0.922
  578SOL    HW211704   2.045   2.983   0.985
  579SOL     OW11705   3.200   2.764   1.059
  579SOL    HW111706   3.182   2.833   0.990
  579SOL    HW211707   3.118   2.708   1.073
  580SOL     OW11708   1.532   5.463   0.840
  580SOL    HW111709   1.490   5.373   0.851
  580SOL    HW211710   1.573   5.469   0.749
  581SOL     OW11711   0.591   7.669   0.531
  581SOL    HW111712   0.617   7.739   0.464
  581SOL    HW211713   0.585   7.580   0.485
  582SOL     OW11714   1.521   6.703   1.804
  582SOL    HW111715   1.560   6.794   1.815
  582SOL    HW211716   1.425   6.710   1.777
  583SOL     OW11717   1.276   6.545   0.956
  583SOL    HW111718   1.362   6.507   0.992
  583SOL    HW211719   1.226   6.474   0.907
  584SOL     OW11720   0.048   1.064   0.719
  584SOL    HW111721   0.017   0.970   0.721
  584SOL    HW211722   0.102   1.080   0.636
  585SOL     OW11723   2.951   0.955   1.186
  585SOL    HW111724   3.006   0.930   1.106
  585SOL    HW211725   2.988   1.038   1.227
  586SOL     OW11726   2.045   7.845   1.485
  586SOL    HW111727   2.036   7.874   1.580
  586SOL    HW211728   2.132   7.799   1.472
  587SOL     OW11729   1.883   9.526   1.037
  587SOL    HW111730   1.914   9.442   0.994
  587SOL    HW211731   1.783   9.526   1.043
  588SOL     OW11732   5.285   3.447   1.981
  588SOL    HW111733   5.380   3.476   1.983
  588SOL    HW211734   5.239   3.478   2.064
  589SOL     OW11735   1.283   4.830   1.124
  589SOL    HW111736   1.193   4.833   1.079
  589SOL    HW211737   1.284   4.895   1.200
  590SOL     OW11738   2.910   8.635   2.185
  590SOL    HW111739   2.901   8.730   2.212
  590SOL    HW211740   2.827   8.606   2.137
  591SOL     OW11741   2.651   6.280   0.854
  591SOL    HW111742   2.723   6.348   0.863
  591SOL    HW211743   2.586   6.308   0.783
  592SOL     OW11744   1.549   2.833   0.718
  592SOL    HW111745   1.607   2.760   0.755
  592SOL    HW211746   1.597   2.920   0.723
  593SOL     OW11747   2.394   0.008   1.954
  593SOL    HW111748   2.473   0.003   2.015
  593SOL    HW211749   2.417   9.965   1.867
  594SOL     OW11750   2.523   5.744   0.615
  594SOL    HW111751   2.435   5.704   0.640
  594SOL    HW211752   2.523   5.842   0.634
  595SOL     OW11753   4.063   2.461   2.161
  595SOL    HW111754   4.000   2.536   2.142
  595SOL    HW211755   4.135   2.459   2.091
  596SOL     OW11756   0.994   9.652   0.386
  596SOL    HW111757   1.000   9.740   0.434
  596SOL    HW211758   1.082   9.605   0.393
  597SOL     OW11759   0.357   5.825   2.057
  597SOL    HW111760   0.270   5.827   2.008
  597SOL    HW211761   0.358   5.749   2.122
  598SOL     OW11762   0.933   3.320   2.029
  598SOL    HW111763   0.881   3.250   2.078
  598SOL    HW211764   0.897   3.410   2.052
  599SOL     OW11765   1.478   8.411   2.121
  599SOL    HW111766   1.380   8.393   2.136
  599SOL    HW211767   1.532   8.337   2.160
  600SOL     OW11768   3.694   4.403   1.495
  600SOL    HW111769   3.793   4.404   1.478
  600SOL    HW211770   3.676   4.430   1.590
  601SOL     OW11771   3.098   9.617   0.481
  601SOL    HW111772   3.050   9.699   0.449
  601SOL    HW211773   3.142   9.635   0.569
  602SOL     OW11774   1.077   2.782   2.246
  602SOL    HW111775   1.109   2.688   2.239
  602SOL    HW211776   1.132   2.831   2.314
  603SOL     OW11777   2.630   5.315   1.690
  603SOL    HW111778   2.546   5.348   1.734
  603SOL    HW211779   2.707   5.372   1.718
  604SOL     OW11780   4.303   3.623   1.227
  604SOL    HW111781   4.329   3.530   1.253
  604SOL    HW211782   4.315   3.635   1.128
  605SOL     OW11783   0.935   6.554   0.373
  605SOL    HW111784   1.019   6.596   0.339
  605SOL    HW211785   0.949   6.456   0.385
  606SOL     OW11786   0.981   2.967   1.771
  606SOL    HW111787   0.959   3.064   1.770
  606SOL    HW211788   1.029   2.944   1.856
  607SOL     OW11789   8.932   1.856   0.425
  607SOL    HW111790   8.845   1.851   0.376
  607SOL    HW211791   8.928   1.797   0.506
  608SOL     OW11792   4.914   2.138   1.025
  608SOL    HW111793   4.903   2.214   0.961
  608SOL    HW211794   4.946   2.174   1.113
  609SOL     OW11795   9.660   2.805   1.510
  609SOL    HW111796   9.570   2.840   1.487
  609SOL    HW211797   9.724   2.881   1.523
  610SOL     OW11798   2.711   4.949   0.591
  610SOL    HW111799   2.671   4.867   0.632
  610SOL    HW211800   2.783   4.922   0.527
  611SOL     OW11801   0.504   0.765   1.052
  611SOL    HW111802   0.526   0.856   1.088
  611SOL    HW211803   0.436   0.722   1.111
  612SOL     OW11804   0.289   3.540   1.066
  612SOL    HW111805   0.303   3.465   1.131
  612SOL    HW211806   0.373   3.594   1.059
  613SOL     OW11807   3.522   8.620   0.938
  613SOL    HW111808   3.552   8.712   0.913
  613SOL    HW211809   3.474   8.624   1.026
  614SOL     OW11810   2.999   1.764   0.750
  614SOL    HW111811   3.045   1.675   0.754
  614SOL    HW211812   2.901   1.750   0.739
  615SOL     OW11813   0.293   3.130   1.520
  615SOL    HW111814   0.380   3.166   1.486
  615SOL    HW211815   0.309   3.078   1.603
  616SOL     OW11816   2.314   1.859   2.236
  616SOL    HW111817   2.237   1.845   2.174
  616SOL    HW211818   2.282   1.855   2.330
  617SOL     OW11819   0.634   4.644   1.755
  617SOL    HW111820   0.583   4.570   1.797
  617SOL    HW211821   0.633   4.634   1.655
  618SOL     OW11822   1.198   7.301   1.270
  618SOL    HW111823   1.159   7.308   1.178
  618SOL    HW211824   1.126   7.275   1.335
  619SOL     OW11825   0.186   2.760   1.339
  619SOL    HW111826   0.271   2.752   1.391
  619SOL    HW211827   0.137   2.673   1.342
  620SOL     OW11828   0.384   5.230   1.710
  620SOL    HW111829   0.435   5.280   1.780
  620SOL    HW211830   0.446   5.208   1.634
  621SOL     OW11831   1.534   1.014   0.423
  621SOL    HW111832   1.583   0.927   0.412
  621SOL    HW211833   1.440   1.004   0.389
  622SOL     OW11834   0.748   7.030   0.892
  622SOL    HW111835   0.790   6.942   0.914
  622SOL    HW211836   0.776   7.099   0.960
  623SOL     OW11837   3.551   3.721   1.931
  623SOL    HW111838   3.615   3.679   1.867
  623SOL    HW211839   3.591   3.722   2.022
  624SOL     OW11840   9.318   3.931   1.100
  624SOL    HW111841   9.369   3.866   1.157
  624SOL    HW211842   9.292   3.888   1.014
  625SOL     OW11843   1.239   9.504   0.612
  625SOL    HW111844   1.220   9.474   0.518
  625SOL    HW211845   1.338   9.504   0.627
  626SOL     OW11846   1.586   0.497   1.228
  626SOL    HW111847   1.541   0.429   1.170
  626SOL    HW211848   1.675   0.461   1.257
  627SOL     OW11849   2.192   1.178   1.701
  627SOL    HW111850   2.289   1.177   1.721
  627SOL    HW211851   2.177   1.219   1.611
  628SOL     OW11852   0.089   5.809   0.417
  628SOL    HW111853   0.103   5.710   0.420
  628SOL    HW211854   0.166   5.852   0.370
  629SOL     OW11855   2.914   2.050   1.196
  629SOL    HW111856   2.827   2.084   1.158
  629SOL    HW211857   2.958   1.989   1.130
  630SOL     OW11858   1.119   0.109   1.588
  630SOL    HW111859   1.217   0.128   1.596
  630SOL    HW211860   1.072   0.140   1.671
  631SOL     OW11861   0.630   9.289   1.586
  631SOL    HW111862   0.680   9.207   1.561
  631SOL    HW211863   0.537   9.285   1.549
  632SOL     OW11864   2.701   6.841   2.252
  632SOL    HW111865   2.693   6.800   2.161
  632SOL    HW211866   2.649   6.926   2.254
  633SOL     OW11867   0.094   3.850   0.596
  633SOL    HW111868   0.006   3.815   0.566
  633SOL    HW211869   0.082   3.904   0.679
  634SOL     OW11870   0.261   2.433   1.450
  634SOL    HW111871   0.177   2.462   1.404
  634SOL    HW211872   0.318   2.381   1.386
  635SOL     OW11873   2.063   2.528   2.100
  635SOL    HW111874   1.975   2.574   2.093
  635SOL    HW211875   2.135   2.586   2.060
  636SOL     OW11876   0.733   8.877   2.089
  636SOL    HW111877   0.826   8.857   2.058
  636SOL    HW211878   0.724   8.975   2.107
  637SOL     OW11879   9.348   5.855   1.183
  637SOL    HW111880   9.327   5.760   1.204
  637SOL    HW211881   9.437   5.880   1.222
  638SOL     OW11882   1.934   1.388   1.700
  638SOL    HW111883   2.014   1.341   1.737
  638SOL    HW211884   1.887   1.437   1.773
  639SOL     OW11885   1.104   1.968   1.491
  639SOL    HW111886   1.135   2.030   1.419
  639SOL    HW211887   1.094   2.019   1.576
  640SOL     OW11888   9.051   2.340   1.167
  640SOL    HW111889   9.031   2.256   1.116
  640SOL    HW211890   9.106   2.318   1.248
  641SOL     OW11891   3.689   3.326   1.181
  641SOL    HW111892   3.655   3.419   1.196
  641SOL    HW211893   3.626   3.276   1.123
  642SOL     OW11894   2.644   4.299   0.686
  642SOL    HW111895   2.744   4.295   0.688
  642SOL    HW211896   2.607   4.206   0.693
  643SOL     OW11897   0.639   2.798   0.920
  643SOL    HW111898   0.552   2.839   0.950
  643SOL    HW211899   0.688   2.765   1.000
  644SOL     OW11900   0.289   7.441   1.701
  644SOL    HW111901   0.274   7.522   1.645
  644SOL    HW211902   0.346   7.466   1.780
  645SOL     OW11903   5.601   3.010   1.262
  645SOL    HW111904   5.647   3.034   1.176
  645SOL    HW211905   5.503   3.000   1.244
  646SOL     OW11906   2.917   5.772   2.012
  646SOL    HW111907   2.885   5.858   2.052
  646SOL    HW211908   2.857   5.747   1.936
  647SOL     OW11909   0.437   4.310   1.683
  647SOL    HW111910   0.350   4.275   1.715
  647SOL    HW211911   0.422   4.375   1.608
  648SOL     OW11912   3.519   0.554   2.100
  648SOL    HW111913   3.492   0.641   2.061
  648SOL    HW211914   3.619   0.548   2.102
  649SOL     OW11915   0.860   2.962   1.239
  649SOL    HW111916   0.858   2.955   1.339
  649SOL    HW211917   0.830   2.875   1.199
  650SOL     OW11918   2.014   5.815   1.113
  650SOL    HW111919   2.038   5.733   1.062
  650SOL    HW211920   1.940   5.794   1.177
  651SOL     OW11921   4.438   8.719   0.723
  651SOL    HW111922   4.457   8.745   0.818
  651SOL    HW211923   4.369   8.647   0.721
  652SOL     OW11924   2.053   7.779   1.074
  652SOL    HW111925   2.151   7.794   1.059
  652SOL    HW211926   2.018   7.849   1.136
  653SOL     OW11927   9.965   5.456   2.009
  653SOL    HW111928   9.898   5.396   1.964
  653SOL    HW211929   0.030   5.490   1.941
  654SOL     OW11930   1.472   0.576   1.461
  654SOL    HW111931   1.532   0.534   1.528
  654SOL    HW211932   1.498   0.547   1.369
  655SOL     OW11933   9.789   1.826   1.020
  655SOL    HW111934   9.883   1.791   1.025
  655SOL    HW211935   9.791   1.924   1.001
  656SOL     OW11936   4.428   4.430   0.987
  656SOL    HW111937   4.334   4.401   1.005
  656SOL    HW211938   4.488   4.350   0.986
  657SOL     OW11939   0.125   0.650   0.928
  657SOL    HW111940   0.163   0.559   0.946
  657SOL    HW211941   0.198   0.713   0.901
  658SOL     OW11942   0.538   4.983   2.254
  658SOL    HW111943   0.552   4.885   2.263
  658SOL    HW211944   0.440   5.003   2.257
  659SOL     OW11945   2.804   3.621   1.657
  659SOL    HW111946   2.793   3.636   1.755
  659SOL    HW211947   2.819   3.524   1.639
  660SOL     OW11948   1.652   2.632   1.801
  660SOL    HW111949   1.591   2.610   1.725
  660SOL    HW211950   1.616   2.590   1.885
  661SOL     OW11951   2.229   0.406   1.115
  661SOL    HW111952   2.269   0.497   1.110
  661SOL    HW211953   2.256   0.363   1.201
  662SOL     OW11954   2.539   7.645   1.040
  662SOL    HW111955   2.612   7.633   0.972
  662SOL    HW211956   2.579   7.670   1.128
  663SOL     OW11957   2.645   2.582   1.879
  663SOL    HW111958   2.672   2.638   1.958
  663SOL    HW211959   2.702   2.605   1.801
  664SOL     OW11960   0.468   6.005   0.392
  664SOL    HW111961   0.411   6.062   0.452
  664SOL    HW211962   0.561   6.042   0.389
  665SOL     OW11963   9.215   5.525   1.635
  665SOL    HW111964   9.212   5.540   1.734
  665SOL    HW211965   9.177   5.605   1.588
  666SOL     OW11966   1.026   0.400   0.578
  666SOL    HW111967   1.097   0.331   0.595
  666SOL    HW211968   0.940   0.354   0.555
  667SOL     OW11969   0.826   5.430   1.318
  667SOL    HW111970   0.890   5.364   1.357
  667SOL    HW211971   0.873   5.516   1.301
  668SOL     OW11972   1.074   3.130   1.284
  668SOL    HW111973   1.005   3.068   1.247
  668SOL    HW211974   1.035   3.182   1.360
  669SOL     OW11975   2.002   1.817   1.720
  669SOL    HW111976   2.045   1.741   1.768
  669SOL    HW211977   1.905   1.820   1.742
  670SOL     OW11978   3.420   7.910   0.999
  670SOL    HW111979   3.506   7.901   0.949
  670SOL    HW211980   3.422   7.993   1.055
  671SOL     OW11981   1.896   0.948   2.019
  671SOL    HW111982   1.811   0.992   2.045
  671SOL    HW211983   1.880   0.850   2.006
  672SOL     OW11984   1.574   9.114   1.723
  672SOL    HW111985   1.559   9.044   1.653
  672SOL    HW211986   1.662   9.099   1.767
  673SOL     OW11987   9.528   1.265   0.783
  673SOL    HW111988   9.583   1.181   0.782
  673SOL    HW211989   9.454   1.255   0.849
  674SOL     OW11990   1.025   5.109   0.588
  674SOL    HW111991   0.939   5.107   0.537
  674SOL    HW211992   1.089   5.042   0.550
  675SOL     OW11993   3.317   0.550   1.161
  675SOL    HW111994   3.385   0.477   1.164
  675SOL    HW211995   3.363   0.638   1.155
  676SOL     OW11996   1.273   2.994   1.143
  676SOL    HW111997   1.205   3.038   1.200
  676SOL    HW211998   1.241   2.902   1.118
  677SOL     OW11999   3.628   9.164   1.555
  677SOL    HW112000   3.596   9.121   1.639
  677SOL    HW212001   3.593   9.114   1.476
  678SOL     OW12002   3.093   4.419   0.495
  678SOL    HW112003   3.105   4.337   0.440
  678SOL    HW212004   3.181   4.465   0.506
  679SOL     OW12005   1.441   8.441   1.378
  679SOL    HW112006   1.409   8.527   1.417
  679SOL    HW212007   1.527   8.456   1.330
  680SOL     OW12008   3.598   3.888   0.998
  680SOL    HW112009   3.673   3.867   1.062
  680SOL    HW212010   3.636   3.926   0.914
  681SOL     OW12011   9.502   5.962   2.188
  681SOL    HW112012   9.577   5.897   2.181
  681SOL    HW212013   9.509   6.012   2.274
  682SOL     OW12014   9.274   4.048   0.386
  682SOL    HW112015   9.369   4.019   0.398
  682SOL    HW212016   9.235   4.005   0.306
  683SOL     OW12017   2.401   6.980   1.579
  683SOL    HW112018   2.460   7.059   1.597
  683SOL    HW212019   2.457   6.900   1.561
  684SOL     OW12020   4.024   3.863   0.529
  684SOL    HW112021   4.090   3.933   0.499
  684SOL    HW212022   4.071   3.797   0.588
  685SOL     OW12023   1.001   5.480   0.922
  685SOL    HW112024   1.007   5.449   0.827
  685SOL    HW212025   0.913   5.451   0.961
  686SOL     OW12026   0.331   1.215   1.617
  686SOL    HW112027   0.317   1.308   1.583
  686SOL    HW212028   0.306   1.149   1.546
  687SOL     OW12029   0.753   7.000   1.605
  687SOL    HW112030   0.723   7.092   1.578
  687SOL    HW212031   0.766   6.944   1.523
  688SOL     OW12032   4.179   1.977   1.370
  688SOL    HW112033   4.136   1.945   1.286
  688SOL    HW212034   4.226   2.063   1.353
  689SOL     OW12035   4.004   1.508   1.709
  689SOL    HW112036   4.062   1.523   1.629
  689SOL    HW212037   3.960   1.595   1.736
  690SOL     OW12038   0.726   9.942   2.070
  690SOL    HW112039   0.778   9.891   2.002
  690SOL    HW212040   0.788   0.001   2.123
  691SOL     OW12041   0.566   4.575   0.808
  691SOL    HW112042   0.577   4.623   0.721
  691SOL    HW212043   0.561   4.641   0.883
  692SOL     OW12044   1.998   2.026   0.381
  692SOL    HW112045   2.000   1.981   0.292
  692SOL    HW212046   1.917   1.995   0.432
  693SOL     OW12047   3.386   3.604   0.575
  693SOL    HW112048   3.463   3.610   0.512
  693SOL    HW212049   3.306   3.567   0.527
  694SOL     OW12050   3.829   9.080   0.442
  694SOL    HW112051   3.770   9.001   0.424
  694SOL    HW212052   3.921   9.048   0.466
  695SOL     OW12053   0.401   3.106   0.816
  695SOL    HW112054   0.419   3.080   0.721
  695SOL    HW212055   0.312   3.151   0.822
  696SOL     OW12056   0.725   7.814   1.976
  696SOL    HW112057   0.754   7.767   2.059
  696SOL    HW212058   0.639   7.775   1.943
  697SOL     OW12059   1.587   6.439   2.258
  697SOL    HW112060   1.554   6.484   2.175
  697SOL    HW212061   1.673   6.481   2.286
  698SOL     OW12062   9.471   4.931   2.287
  698SOL    HW112063   9.439   4.881   2.367
  698SOL    HW212064   9.446   4.881   2.204
  699SOL     OW12065   2.123   0.838   0.963
  699SOL    HW112066   2.146   0.935   0.953
  699SOL    HW212067   2.118   0.796   0.873
  700SOL     OW12068   2.973   2.248   1.381
  700SOL    HW112069   2.906   2.240   1.455
  700SOL    HW212070   2.950   2.185   1.308
  701SOL     OW12071   1.844   7.688   0.925
  701SOL    HW112072   1.924   7.723   0.974
  701SOL    HW212073   1.829   7.742   0.842
  702SOL     OW12074   0.261   5.013   2.275
  702SOL    HW112075   0.228   5.075   2.345
  702SOL    HW212076   0.201   4.933   2.269
  703SOL     OW12077   1.860   8.765   0.554
  703SOL    HW112078   1.905   8.725   0.634
  703SOL    HW212079   1.782   8.709   0.529
  704SOL     OW12080   1.361   7.159   2.222
  704SOL    HW112081   1.327   7.226   2.288
  704SOL    HW212082   1.329   7.068   2.248
  705SOL     OW12083   2.698   5.423   1.104
  705SOL    HW112084   2.658   5.405   1.015
  705SOL    HW212085   2.673   5.350   1.167
  706SOL     OW12086   0.640   3.185   0.919
  706SOL    HW112087   0.708   3.124   0.877
  706SOL    HW212088   0.549   3.160   0.886
  707SOL     OW12089   3.195   1.416   0.976
  707SOL    HW112090   3.228   1.321   0.983
  707SOL    HW212091   3.121   1.431   1.041
  708SOL     OW12092   2.400   9.352   1.837
  708SOL    HW112093   2.389   9.294   1.756
  708SOL    HW212094   2.315   9.351   1.890
  709SOL     OW12095   9.966   2.218   1.599
  709SOL    HW112096   0.066   2.213   1.607
  709SOL    HW212097   9.937   2.175   1.514
  710SOL     OW12098   1.491   4.366   0.892
  710SOL    HW112099   1.505   4.381   0.990
  710SOL    HW212100   1.565   4.409   0.840
  711SOL     OW12101   3.154   0.910   1.521
  711SOL    HW112102   3.226   0.852   1.483
  711SOL    HW212103   3.170   1.005   1.494
  712SOL     OW12104   4.048   4.783   1.159
  712SOL    HW112105   4.073   4.841   1.237
  712SOL    HW212106   4.113   4.798   1.084
  713SOL     OW12107   9.094   5.218   1.362
  713SOL    HW112108   8.994   5.222   1.355
  713SOL    HW212109   9.133   5.205   1.271
  714SOL     OW12110   0.807   5.660   1.892
  714SOL    HW112111   0.798   5.705   1.981
  714SOL    HW212112   0.900   5.625   1.883
  715SOL     OW12113   2.243   8.212   1.598
  715SOL    HW112114   2.296   8.129   1.616
  715SOL    HW212115   2.216   8.214   1.502
  716SOL     OW12116   1.099   4.823   0.716
  716SOL    HW112117   1.115   4.843   0.619
  716SOL    HW212118   1.163   4.875   0.772
  717SOL     OW12119   3.652   4.627   1.957
  717SOL    HW112120   3.558   4.658   1.962
  717SOL    HW212121   3.714   4.701   1.984
  718SOL     OW12122   0.244   5.368   0.781
  718SOL    HW112123   0.340   5.381   0.758
  718SOL    HW212124   0.227   5.399   0.874
  719SOL     OW12125   1.326   5.827   1.417
  719SOL    HW112126   1.233   5.803   1.443
  719SOL    HW212127   1.348   5.919   1.451
  720SOL     OW12128   3.411   9.875   0.989
  720SOL    HW112129   3.389   9.790   1.038
  720SOL    HW212130   3.347   9.947   1.017
  721SOL     OW12131   2.327   4.202   1.188
  721SOL    HW112132   2.343   4.146   1.107
  721SOL    HW212133   2.255   4.269   1.169
  722SOL     OW12134   4.789   3.326   1.629
  722SOL    HW112135   4.827   3.409   1.669
  722SOL    HW212136   4.718   3.290   1.690
  723SOL     OW12137   1.857   1.679   0.971
  723SOL    HW112138   1.773   1.731   0.962
  723SOL    HW212139   1.869   1.650   1.066
  724SOL     OW12140   0.617   8.792   0.904
  724SOL    HW112141   0.677   8.763   0.979
  724SOL    HW212142   0.660   8.772   0.816
  725SOL     OW12143   2.236   9.005   1.272
  725SOL    HW112144   2.333   8.983   1.260
  725SOL    HW212145   2.225   9.104   1.277
  726SOL     OW12146   2.238   1.088   0.903
  726SOL    HW112147   2.322   1.035   0.891
  726SOL    HW212148   2.226   1.109   1.000
  727SOL     OW12149   3.348   2.337   2.131
  727SOL    HW112150   3.287   2.265   2.165
  727SOL    HW212151   3.328   2.423   2.179
  728SOL     OW12152   1.772   6.473   1.368
  728SOL    HW112153   1.837   6.489   1.294
  728SOL    HW212154   1.821   6.445   1.451
  729SOL     OW12155   3.172   2.149   2.202
  729SOL    HW112156   3.074   2.167   2.187
  729SOL    HW212157   3.199   2.068   2.149
  730SOL     OW12158   1.766   1.913   0.489
  730SOL    HW112159   1.775   1.814   0.488
  730SOL    HW212160   1.671   1.938   0.472
  731SOL     OW12161   2.228   2.306   2.015
  731SOL    HW112162   2.324   2.332   2.008
  731SOL    HW212163   2.175   2.382   2.051
  732SOL     OW12164   8.949   4.766   1.307
  732SOL    HW112165   8.977   4.837   1.243
  732SOL    HW212166   8.992   4.781   1.396
  733SOL     OW12167   2.800   1.181   0.793
  733SOL    HW112168   2.704   1.169   0.767
  733SOL    HW212169   2.806   1.192   0.893
  734SOL     OW12170   9.778   4.855   0.656
  734SOL    HW112171   9.866   4.851   0.703
  734SOL    HW212172   9.787   4.904   0.569
  735SOL     OW12173   3.812   9.531   0.942
  735SOL    HW112174   3.804   9.603   1.011
  735SOL    HW212175   3.778   9.565   0.855
  736SOL     OW12176   1.885   4.997   0.883
  736SOL    HW112177   1.807   5.043   0.840
  736SOL    HW212178   1.960   5.061   0.893
  737SOL     OW12179   2.620   1.572   1.700
  737SOL    HW112180   2.561   1.653   1.709
  737SOL    HW212181   2.611   1.534   1.608
  738SOL     OW12182   2.255   9.671   1.359
  738SOL    HW112183   2.257   9.691   1.457
  738SOL    HW212184   2.162   9.647   1.331
  739SOL     OW12185   2.386   1.353   1.302
  739SOL    HW112186   2.457   1.317   1.241
  739SOL    HW212187   2.308   1.384   1.248
  740SOL     OW12188   2.460   6.975   0.781
  740SOL    HW112189   2.538   6.926   0.743
  740SOL    HW212190   2.381   6.914   0.789
  741SOL     OW12191   0.921   0.811   2.190
  741SOL    HW112192   0.891   0.764   2.273
  741SOL    HW212193   0.863   0.784   2.113
  742SOL     OW12194   2.818   2.589   2.230
  742SOL    HW112195   2.790   2.520   2.296
  742SOL    HW212196   2.905   2.563   2.189
  743SOL     OW12197   3.416   1.698   0.146
  743SOL    HW112198   3.438   1.795   0.156
  743SOL    HW212199   3.380   1.681   0.055
  744SOL     OW12200   2.035   8.328   0.911
  744SOL    HW112201   1.989   8.239   0.913
  744SOL    HW212202   2.053   8.353   0.816
  745SOL     OW12203   2.903   4.547   1.411
  745SOL    HW112204   2.872   4.523   1.319
  745SOL    HW212205   2.869   4.480   1.477
  746SOL     OW12206   3.049   1.200   1.259
  746SOL    HW112207   3.039   1.295   1.233
  746SOL    HW212208   3.119   1.192   1.330
  747SOL     OW12209   2.280   5.142   0.586
  747SOL    HW112210   2.310   5.123   0.679
  747SOL    HW212211   2.354   5.119   0.522
  748SOL     OW12212   0.685   3.625   0.468
  748SOL    HW112213   0.590   3.624   0.435
  748SOL    HW212214   0.724   3.716   0.455
  749SOL     OW12215   1.416   6.359   1.564
  749SOL    HW112216   1.447   6.423   1.494
  749SOL    HW212217   1.351   6.406   1.624
  750SOL     OW12218   0.536   2.260   0.826
  750SOL    HW112219   0.526   2.321   0.747
  750SOL    HW212220   0.596   2.184   0.802
  751SOL     OW12221   2.473   8.343   1.672
  751SOL    HW112222   2.526   8.339   1.587
  751SOL    HW212223   2.382   8.306   1.656
  752SOL     OW12224   4.704   4.724   1.549
  752SOL    HW112225   4.676   4.817   1.526
  752SOL    HW212226   4.743   4.722   1.641
  753SOL     OW12227   3.931   3.185   1.690
  753SOL    HW112228   3.941   3.155   1.595
  753SOL    HW212229   3.992   3.262   1.707
  754SOL     OW12230   9.856   5.273   1.805
  754SOL    HW112231   9.811   5.280   1.716
  754SOL    HW212232   9.955   5.274   1.793
  755SOL     OW12233   4.417   4.255   1.331
  755SOL    HW112234   4.399   4.164   1.294
  755SOL    HW212235   4.503   4.254   1.382
  756SOL     OW12236   2.904   8.274   2.128
  756SOL    HW112237   2.891   8.189   2.077
  756SOL    HW212238   2.846   8.346   2.088
  757SOL     OW12239   1.932   0.746   0.491
  757SOL    HW112240   1.936   0.652   0.458
  757SOL    HW212241   1.991   0.755   0.572
  758SOL     OW12242   0.234   2.624   0.841
  758SOL    HW112243   0.210   2.666   0.928
  758SOL    HW212244   0.178   2.662   0.768
  759SOL     OW12245   1.226   3.783   1.649
  759SOL    HW112246   1.244   3.779   1.551
  759SOL    HW212247   1.312   3.803   1.697
  760SOL     OW12248   2.712   9.819   1.571
  760SOL    HW112249   2.755   9.852   1.486
  760SOL    HW212250   2.703   9.720   1.567
  761SOL     OW12251   2.991   6.935   0.601
  761SOL    HW112252   2.974   7.023   0.557
  761SOL    HW212253   2.998   6.948   0.700
  762SOL     OW12254   0.923   6.014   1.311
  762SOL    HW112255   0.870   5.968   1.383
  762SOL    HW212256   0.878   5.999   1.223
  763SOL     OW12257   4.918   2.049   0.515
  763SOL    HW112258   5.012   2.081   0.522
  763SOL    HW212259   4.903   1.977   0.582
  764SOL     OW12260   0.295   8.073   1.209
  764SOL    HW112261   0.224   8.011   1.176
  764SOL    HW212262   0.268   8.167   1.191
  765SOL     OW12263   2.038   0.323   2.006
  765SOL    HW112264   2.072   0.234   2.036
  765SOL    HW212265   2.115   0.377   1.970
  766SOL     OW12266   0.551   4.219   1.137
  766SOL    HW112267   0.648   4.198   1.147
  766SOL    HW212268   0.525   4.216   1.040
  767SOL     OW12269   4.104   2.227   1.843
  767SOL    HW112270   4.013   2.200   1.875
  767SOL    HW212271   4.094   2.292   1.768
  768SOL     OW12272   4.244   2.057   0.969
  768SOL    HW112273   4.266   2.144   1.014
  768SOL    HW212274   4.322   2.027   0.914
  769SOL     OW12275   1.349   1.835   1.469
  769SOL    HW112276   1.265   1.885   1.492
  769SOL    HW212277   1.328   1.764   1.401
  770SOL     OW12278   0.564   3.972   1.408
  770SOL    HW112279   0.500   3.954   1.483
  770SOL    HW212280   0.514   3.972   1.322
  771SOL     OW12281   3.627   4.823   1.062
  771SOL    HW112282   3.699   4.770   1.107
  771SOL    HW212283   3.617   4.911   1.107
  772SOL     OW12284   0.632   9.141   1.140
  772SOL    HW112285   0.534   9.138   1.122
  772SOL    HW212286   0.658   9.062   1.196
  773SOL     OW12287   2.173   0.014   1.535
  773SOL    HW112288   2.128   0.036   1.448
  773SOL    HW212289   2.245   0.080   1.553
  774SOL     OW12290   2.945   1.648   1.340
  774SOL    HW112291   2.845   1.649   1.334
  774SOL    HW212292   2.978   1.740   1.361
  775SOL     OW12293   2.999   1.516   0.435
  775SOL    HW112294   3.051   1.600   0.452
  775SOL    HW212295   2.931   1.534   0.364
  776SOL     OW12296   1.430   2.165   1.122
  776SOL    HW112297   1.444   2.258   1.155
  776SOL    HW212298   1.518   2.116   1.124
  777SOL     OW12299   1.872   1.275   0.881
  777SOL    HW112300   1.882   1.356   0.823
  777SOL    HW212301   1.883   1.302   0.977
  778SOL     OW12302   1.526   5.041   1.927
  778SOL    HW112303   1.592   4.977   1.888
  778SOL    HW212304   1.489   5.100   1.855
  779SOL     OW12305   2.671   6.850   0.644
  779SOL    HW112306   2.682   6.943   0.610
  779SOL    HW212307   2.738   6.790   0.598
  780SOL     OW12308   1.298   4.674   1.811
  780SOL    HW112309   1.322   4.644   1.719
  780SOL    HW212310   1.311   4.599   1.876
  781SOL     OW12311   3.119   7.622   0.543
  781SOL    HW112312   3.122   7.718   0.571
  781SOL    HW212313   3.182   7.569   0.598
  782SOL     OW12314   4.037   2.783   1.589
  782SOL    HW112315   3.975   2.705   1.592
  782SOL    HW212316   4.093   2.778   1.506
  783SOL     OW12317   4.424   2.786   1.951
  783SOL    HW112318   4.382   2.729   1.880
  783SOL    HW212319   4.466   2.727   2.020
  784SOL     OW12320   4.737   2.470   0.547
  784SOL    HW112321   4.813   2.460   0.484
  784SOL    HW212322   4.745   2.558   0.596
  785SOL     OW12323   1.358   4.150   2.060
  785SOL    HW112324   1.273   4.193   2.088
  785SOL    HW212325   1.397   4.200   1.983
  786SOL     OW12326   0.436   5.842   1.676
  786SOL    HW112327   0.440   5.935   1.714
  786SOL    HW212328   0.359   5.837   1.612
  787SOL     OW12329   9.800   2.992   0.747
  787SOL    HW112330   9.728   2.926   0.766
  787SOL    HW212331   9.879   2.973   0.806
  788SOL     OW12332   0.700   8.689   1.887
  788SOL    HW112333   0.700   8.756   1.961
  788SOL    HW212334   0.750   8.608   1.916
  789SOL     OW12335   1.171   9.422   0.352
  789SOL    HW112336   1.184   9.452   0.258
  789SOL    HW212337   1.081   9.378   0.361
  790SOL     OW12338   9.524   1.706   1.846
  790SOL    HW112339   9.454   1.692   1.916
  790SOL    HW212340   9.558   1.800   1.851
  791SOL     OW12341   2.674   0.966   2.186
  791SOL    HW112342   2.618   0.912   2.249
  791SOL    HW212343   2.668   1.063   2.210
  792SOL     OW12344   2.279   6.050   0.763
  792SOL    HW112345   2.272   6.120   0.834
  792SOL    HW212346   2.376   6.037   0.739
  793SOL     OW12347   2.266   0.294   1.370
  793SOL    HW112348   2.238   0.378   1.417
  793SOL    HW212349   2.339   0.249   1.421
  794SOL     OW12350   0.315   6.208   1.125
  794SOL    HW112351   0.259   6.159   1.193
  794SOL    HW212352   0.338   6.298   1.160
  795SOL     OW12353   4.626   1.761   1.054
  795SOL    HW112354   4.715   1.717   1.055
  795SOL    HW212355   4.566   1.711   0.991
  796SOL     OW12356   3.916   4.444   1.055
  796SOL    HW112357   3.849   4.370   1.051
  796SOL    HW212358   3.881   4.517   1.114
  797SOL     OW12359   4.462   2.450   0.594
  797SOL    HW112360   4.447   2.410   0.685
  797SOL    HW212361   4.560   2.453   0.575
  798SOL     OW12362   9.376   3.966   1.439
  798SOL    HW112363   9.342   4.041   1.381
  798SOL    HW212364   9.448   4.000   1.499
  799SOL     OW12365   2.825   5.992   2.151
  799SOL    HW112366   2.736   6.037   2.154
  799SOL    HW212367   2.897   6.061   2.146
  800SOL     OW12368   2.570   2.400   0.732
  800SOL    HW112369   2.544   2.324   0.672
  800SOL    HW212370   2.653   2.443   0.697
  801SOL     OW12371   9.071   2.461   2.232
  801SOL    HW112372   9.079   2.378   2.177
  801SOL    HW212373   8.975   2.485   2.242
  802SOL     OW12374   3.624   0.186   0.415
  802SOL    HW112375   3.695   0.197   0.345
  802SOL    HW212376   3.602   0.275   0.454
  803SOL     OW12377   4.025   9.683   1.246
  803SOL    HW112378   3.939   9.708   1.203
  803SOL    HW212379   4.029   9.722   1.338
  804SOL     OW12380   2.559   5.226   2.043
  804SOL    HW112381   2.616   5.204   2.122
  804SOL    HW212382   2.508   5.311   2.060
  805SOL     OW12383   0.096   4.978   1.853
  805SOL    HW112384   0.173   4.919   1.829
  805SOL    HW212385   0.029   4.927   1.906
  806SOL     OW12386   9.332   1.779   0.511
  806SOL    HW112387   9.308   1.721   0.433
  806SOL    HW212388   9.409   1.838   0.487
  807SOL     OW12389   2.058   4.734   1.401
  807SOL    HW112390   1.998   4.796   1.452
  807SOL    HW212391   2.151   4.743   1.435
  808SOL     OW12392   1.586   9.715   1.253
  808SOL    HW112393   1.573   9.806   1.214
  808SOL    HW212394   1.586   9.647   1.181
  809SOL     OW12395   9.094   4.087   2.080
  809SOL    HW112396   9.182   4.110   2.121
  809SOL    HW212397   9.074   3.990   2.094
  810SOL     OW12398   0.457   9.871   1.869
  810SOL    HW112399   0.375   9.924   1.888
  810SOL    HW212400   0.471   9.804   1.942
  811SOL     OW12401   3.711   1.661   0.511
  811SOL    HW112402   3.627   1.650   0.563
  811SOL    HW212403   3.692   1.651   0.413
  812SOL     OW12404   9.420   5.893   1.937
  812SOL    HW112405   9.320   5.888   1.934
  812SOL    HW212406   9.449   5.925   2.027
  813SOL     OW12407   3.812   4.660   1.194
  813SOL    HW112408   3.901   4.701   1.174
  813SOL    HW212409   3.775   4.698   1.279
  814SOL     OW12410   2.325   6.337   1.624
  814SOL    HW112411   2.350   6.424   1.581
  814SOL    HW212412   2.277   6.356   1.710
  815SOL     OW12413   5.145   3.346   0.666
  815SOL    HW112414   5.202   3.404   0.723
  815SOL    HW212415   5.201   3.272   0.628
  816SOL     OW12416   2.917   6.059   1.104
  816SOL    HW112417   3.016   6.042   1.109
  816SOL    HW212418   2.901   6.156   1.086
  817SOL     OW12419   4.598   3.350   2.146
  817SOL    HW112420   4.670   3.290   2.181
  817SOL    HW212421   4.588   3.429   2.207
  818SOL     OW12422   4.020   3.226   0.614
  818SOL    HW112423   4.050   3.309   0.660
  818SOL    HW212424   3.985   3.248   0.522
  819SOL     OW12425   0.222   3.143   0.560
  819SOL    HW112426   0.206   3.240   0.537
  819SOL    HW212427   0.318   3.120   0.543
  820SOL     OW12428   3.480   7.658   1.103
  820SOL    HW112429   3.441   7.745   1.072
  820SOL    HW212430   3.541   7.675   1.181
  821SOL     OW12431   2.193   7.024   1.154
  821SOL    HW112432   2.223   7.119   1.162
  821SOL    HW212433   2.172   7.004   1.058
  822SOL     OW12434   1.208   9.511   1.321
  822SOL    HW112435   1.198   9.596   1.269
  822SOL    HW212436   1.127   9.495   1.376
  823SOL     OW12437   1.481   2.255   0.372
  823SOL    HW112438   1.580   2.263   0.366
  823SOL    HW212439   1.442   2.256   0.280
  824SOL     OW12440   1.777   2.864   1.761
  824SOL    HW112441   1.761   2.902   1.670
  824SOL    HW212442   1.733   2.774   1.768
  825SOL     OW12443   2.577   4.304   1.128
  825SOL    HW112444   2.556   4.340   1.037
  825SOL    HW212445   2.492   4.279   1.175
  826SOL     OW12446   2.084   2.561   1.176
  826SOL    HW112447   2.039   2.489   1.229
  826SOL    HW212448   2.082   2.647   1.227
  827SOL     OW12449   2.015   3.982   1.544
  827SOL    HW112450   1.963   4.065   1.565
  827SOL    HW212451   1.963   3.902   1.576
  828SOL     OW12452   3.495   1.858   0.895
  828SOL    HW112453   3.477   1.938   0.952
  828SOL    HW212454   3.465   1.876   0.802
  829SOL     OW12455   9.798   3.046   1.921
  829SOL    HW112456   9.748   3.004   1.996
  829SOL    HW212457   9.734   3.069   1.847
  830SOL     OW12458   1.509   1.990   0.466
  830SOL    HW112459   1.426   1.939   0.489
  830SOL    HW212460   1.484   2.084   0.442
  831SOL     OW12461   2.901   1.273   0.552
  831SOL    HW112462   2.874   1.255   0.646
  831SOL    HW212463   2.926   1.370   0.543
  832SOL     OW12464   4.428   1.618   0.923
  832SOL    HW112465   4.435   1.641   0.826
  832SOL    HW212466   4.337   1.643   0.956
  833SOL     OW12467   1.897   5.806   1.637
  833SOL    HW112468   1.925   5.730   1.577
  833SOL    HW212469   1.930   5.892   1.599
  834SOL     OW12470   0.829   2.897   2.288
  834SOL    HW112471   0.918   2.855   2.271
  834SOL    HW212472   0.758   2.827   2.283
  835SOL     OW12473   3.626   0.305   1.405
  835SOL    HW112474   3.693   0.246   1.357
  835SOL    HW212475   3.675   0.366   1.467
  836SOL     OW12476   0.402   0.433   0.721
  836SOL    HW112477   0.364   0.428   0.814
  836SOL    HW212478   0.501   0.432   0.726
  837SOL     OW12479   0.810   4.121   1.110
  837SOL    HW112480   0.817   4.041   1.168
  837SOL    HW212481   0.837   4.097   1.016
  838SOL     OW12482   1.338   5.416   1.303
  838SOL    HW112483   1.247   5.395   1.339
  838SOL    HW212484   1.337   5.506   1.260
  839SOL     OW12485   3.596   9.040   1.802
  839SOL    HW112486   3.592   8.950   1.845
  839SOL    HW212487   3.687   9.079   1.816
  840SOL     OW12488   2.916   2.437   1.731
  840SOL    HW112489   2.879   2.527   1.709
  840SOL    HW212490   2.990   2.446   1.798
  841SOL     OW12491   4.199   3.633   2.011
  841SOL    HW112492   4.218   3.583   2.095
  841SOL    HW212493   4.101   3.629   1.991
  842SOL     OW12494   4.218   4.049   0.458
  842SOL    HW112495   4.294   4.037   0.521
  842SOL    HW212496   4.252   4.050   0.364
  843SOL     OW12497   2.858   5.627   1.007
  843SOL    HW112498   2.821   5.541   1.042
  843SOL    HW212499   2.912   5.609   0.925
  844SOL     OW12500   1.439   3.908   0.773
  844SOL    HW112501   1.345   3.877   0.763
  844SOL    HW212502   1.464   3.907   0.870
  845SOL     OW12503   2.289   8.915   1.694
  845SOL    HW112504   2.241   8.880   1.614
  845SOL    HW212505   2.239   8.890   1.777
  846SOL     OW12506   1.278   1.850   0.535
  846SOL    HW112507   1.211   1.812   0.471
  846SOL    HW212508   1.336   1.777   0.570
  847SOL     OW12509   1.422   9.454   2.158
  847SOL    HW112510   1.385   9.489   2.244
  847SOL    HW212511   1.392   9.360   2.144
  848SOL     OW12512   2.049   7.498   1.112
  848SOL    HW112513   2.055   7.597   1.097
  848SOL    HW212514   1.985   7.458   1.047
  849SOL     OW12515   1.080   5.719   1.036
  849SOL    HW112516   1.065   5.796   0.975
  849SOL    HW212517   1.056   5.634   0.989
  850SOL     OW12518   0.139   4.636   1.164
  850SOL    HW112519   0.101   4.577   1.235
  850SOL    HW212520   0.223   4.677   1.197
  851SOL     OW12521   3.814   8.137   1.016
  851SOL    HW112522   3.757   8.086   1.079
  851SOL    HW212523   3.766   8.150   0.929
  852SOL     OW12524   1.927   7.018   1.250
  852SOL    HW112525   2.021   7.034   1.219
  852SOL    HW212526   1.927   7.001   1.348
  853SOL     OW12527   1.828   4.937   2.126
  853SOL    HW112528   1.819   5.037   2.129
  853SOL    HW212529   1.765   4.896   2.192
  854SOL     OW12530   4.965   3.126   1.738
  854SOL    HW112531   5.061   3.121   1.711
  854SOL    HW212532   4.916   3.188   1.677
  855SOL     OW12533   4.128   0.605   1.585
  855SOL    HW112534   4.196   0.625   1.656
  855SOL    HW212535   4.132   0.508   1.561
  856SOL     OW12536   8.761   2.524   1.799
  856SOL    HW112537   8.844   2.474   1.825
  856SOL    HW212538   8.772   2.559   1.706
  857SOL     OW12539   0.316   0.123   1.863
  857SOL    HW112540   0.344   0.106   1.768
  857SOL    HW212541   0.271   0.212   1.869
  858SOL     OW12542   0.827   7.212   0.480
  858SOL    HW112543   0.924   7.235   0.487
  858SOL    HW212544   0.774   7.296   0.466
  859SOL     OW12545   3.420   8.729   1.425
  859SOL    HW112546   3.335   8.705   1.473
  859SOL    HW212547   3.441   8.825   1.441
  860SOL     OW12548   1.147   6.352   0.823
  860SOL    HW112549   1.210   6.296   0.769
  860SOL    HW212550   1.099   6.416   0.762
  861SOL     OW12551   0.576   1.963   2.312
  861SOL    HW112552   0.518   1.929   2.385
  861SOL    HW212553   0.522   1.973   2.228
  862SOL     OW12554   3.922   3.298   0.370
  862SOL    HW112555   3.823   3.311   0.374
  862SOL    HW212556   3.955   3.321   0.279
  863SOL     OW12557   3.189   4.995   2.213
  863SOL    HW112558   3.125   5.040   2.275
  863SOL    HW212559   3.140   4.969   2.129
  864SOL     OW12560   9.881   0.901   1.781
  864SOL    HW112561   9.835   0.861   1.701
  864SOL    HW212562   9.849   0.995   1.794
  865SOL     OW12563   9.599   2.385   1.687
  865SOL    HW112564   9.573   2.481   1.704
  865SOL    HW212565   9.519   2.335   1.653
  866SOL     OW12566   9.113   4.459   2.215
  866SOL    HW112567   9.070   4.460   2.125
  866SOL    HW212568   9.043   4.469   2.286
  867SOL     OW12569   1.636   8.862   1.282
  867SOL    HW112570   1.692   8.892   1.205
  867SOL    HW212571   1.540   8.860   1.255
  868SOL     OW12572   2.400   1.777   0.668
  868SOL    HW112573   2.441   1.753   0.581
  868SOL    HW212574   2.453   1.850   0.711
  869SOL     OW12575   2.585   1.473   1.455
  869SOL    HW112576   2.509   1.429   1.408
  869SOL    HW212577   2.621   1.547   1.397
  870SOL     OW12578   2.287   5.629   0.690
  870SOL    HW112579   2.234   5.599   0.611
  870SOL    HW212580   2.306   5.550   0.749
  871SOL     OW12581   1.562   9.093   2.243
  871SOL    HW112582   1.476   9.131   2.207
  871SOL    HW212583   1.639   9.132   2.193
  872SOL     OW12584   2.075   0.066   0.890
  872SOL    HW112585   2.010   0.092   0.962
  872SOL    HW212586   2.025   0.045   0.806
  873SOL     OW12587   1.720   3.246   2.325
  873SOL    HW112588   1.700   3.172   2.389
  873SOL    HW212589   1.724   3.209   2.232
  874SOL     OW12590   1.029   4.339   0.823
  874SOL    HW112591   1.110   4.325   0.880
  874SOL    HW212592   0.967   4.403   0.868
  875SOL     OW12593   2.053   4.532   1.775
  875SOL    HW112594   2.076   4.509   1.870
  875SOL    HW212595   2.083   4.458   1.715
  876SOL     OW12596   4.350   2.839   0.704
  876SOL    HW112597   4.352   2.845   0.804
  876SOL    HW212598   4.290   2.910   0.668
  877SOL     OW12599   0.327   9.122   0.559
  877SOL    HW112600   0.330   9.091   0.654
  877SOL    HW212601   0.307   9.044   0.499
  878SOL     OW12602   2.002   3.642   1.921
  878SOL    HW112603   2.000   3.617   1.824
  878SOL    HW212604   1.913   3.623   1.962
  879SOL     OW12605   1.707   4.467   0.755
  879SOL    HW112606   1.779   4.497   0.818
  879SOL    HW212607   1.703   4.530   0.677
  880SOL     OW12608   2.091   8.904   1.065
  880SOL    HW112609   2.137   8.956   1.137
  880SOL    HW212610   2.106   8.806   1.079
  881SOL     OW12611   3.938   2.371   2.385
  881SOL    HW112612   4.001   2.337   2.454
  881SOL    HW212613   3.989   2.400   2.304
  882SOL     OW12614   2.369   3.005   2.244
  882SOL    HW112615   2.333   3.056   2.166
  882SOL    HW212616   2.303   3.007   2.319
  883SOL     OW12617   2.185   6.534   1.236
  883SOL    HW112618   2.252   6.480   1.185
  883SOL    HW212619   2.150   6.479   1.312
  884SOL     OW12620   4.560   4.509   0.535
  884SOL    HW112621   4.465   4.536   0.552
  884SOL    HW212622   4.576   4.418   0.573
  885SOL     OW12623   0.913   4.921   1.467
  885SOL    HW112624   0.850   4.952   1.538
  885SOL    HW212625   1.000   4.896   1.508
  886SOL     OW12626   1.456   5.698   0.951
  886SOL    HW112627   1.409   5.686   1.039
  886SOL    HW212628   1.482   5.609   0.914
  887SOL     OW12629   9.033   1.666   2.048
  887SOL    HW112630   8.975   1.585   2.044
  887SOL    HW212631   9.003   1.725   2.124
  888SOL     OW12632   3.000   9.408   1.043
  888SOL    HW112633   2.949   9.482   1.087
  888SOL    HW212634   3.044   9.351   1.112
  889SOL     OW12635   1.741   7.877   1.658
  889SOL    HW112636   1.680   7.861   1.735
  889SOL    HW212637   1.758   7.791   1.610
  890SOL     OW12638   2.885   8.905   2.248
  890SOL    HW112639   2.848   8.937   2.160
  890SOL    HW212640   2.828   8.938   2.322
  891SOL     OW12641   0.616   1.610   1.969
  891SOL    HW112642   0.518   1.621   1.952
  891SOL    HW212643   0.663   1.696   1.949
  892SOL     OW12644   1.949   0.513   0.784
  892SOL    HW112645   2.014   0.458   0.731
  892SOL    HW212646   1.948   0.481   0.879
  893SOL     OW12647   0.834   7.207   1.097
  893SOL    HW112648   0.869   7.138   1.160
  893SOL    HW212649   0.907   7.273   1.077
  894SOL     OW12650   1.336   9.110   0.844
  894SOL    HW112651   1.426   9.150   0.826
  894SOL    HW212652   1.269   9.150   0.781
  895SOL     OW12653   3.420   1.067   2.086
  895SOL    HW112654   3.501   1.116   2.118
  895SOL    HW212655   3.398   1.095   1.992
  896SOL     OW12656   3.767   1.468   2.173
  896SOL    HW112657   3.746   1.527   2.251
  896SOL    HW212658   3.758   1.520   2.089
  897SOL     OW12659   1.935   5.911   2.161
  897SOL    HW112660   1.946   6.003   2.200
  897SOL    HW212661   1.943   5.916   2.061
  898SOL     OW12662   2.558   0.981   1.554
  898SOL    HW112663   2.527   1.063   1.602
  898SOL    HW212664   2.591   1.006   1.463
  899SOL     OW12665   4.028   3.499   1.020
  899SOL    HW112666   4.018   3.589   0.977
  899SOL    HW212667   4.001   3.505   1.116
  900SOL     OW12668   9.294   5.608   1.296
  900SOL    HW112669   9.230   5.654   1.358
  900SOL    HW212670   9.367   5.566   1.350
  901SOL     OW12671   2.102   5.165   0.907
  901SOL    HW112672   2.112   5.228   0.984
  901SOL    HW212673   2.192   5.140   0.871
  902SOL     OW12674   3.641   3.315   0.401
  902SOL    HW112675   3.637   3.320   0.500
  902SOL    HW212676   3.616   3.222   0.371
  903SOL     OW12677   2.879   5.500   1.469
  903SOL    HW112678   2.795   5.517   1.418
  903SOL    HW212679   2.857   5.475   1.563
  904SOL     OW12680   2.569   0.975   1.931
  904SOL    HW112681   2.636   0.948   1.861
  904SOL    HW212682   2.611   0.967   2.021
  905SOL     OW12683   3.289   1.759   1.134
  905SOL    HW112684   3.200   1.792   1.102
  905SOL    HW212685   3.340   1.835   1.175
  906SOL     OW12686   2.153   1.295   1.458
  906SOL    HW112687   2.111   1.386   1.454
  906SOL    HW212688   2.241   1.296   1.412
  907SOL     OW12689   3.533   2.060   0.310
  907SOL    HW112690   3.445   2.025   0.343
  907SOL    HW212691   3.607   2.020   0.364
  908SOL     OW12692   5.351   3.766   0.855
  908SOL    HW112693   5.268   3.794   0.806
  908SOL    HW212694   5.431   3.807   0.811
  909SOL     OW12695   2.537   0.370   1.210
  909SOL    HW112696   2.509   0.274   1.208
  909SOL    HW212697   2.568   0.397   1.118
  910SOL     OW12698   2.833   8.148   0.434
  910SOL    HW112699   2.866   8.082   0.502
  910SOL    HW212700   2.871   8.238   0.454
  911SOL     OW12701   9.585   1.778   1.196
  911SOL    HW112702   9.667   1.807   1.146
  911SOL    HW212703   9.557   1.688   1.163
  912SOL     OW12704   1.998   7.933   1.748
  912SOL    HW112705   2.031   8.024   1.772
  912SOL    HW212706   1.905   7.939   1.712
  913SOL     OW12707   3.109   8.322   1.210
  913SOL    HW112708   3.114   8.414   1.172
  913SOL    HW212709   3.127   8.325   1.308
  914SOL     OW12710   1.694   9.508   2.144
  914SOL    HW112711   1.598   9.486   2.160
  914SOL    HW212712   1.712   9.505   2.045
  915SOL     OW12713   9.017   4.209   1.851
  915SOL    HW112714   8.971   4.141   1.794
  915SOL    HW212715   9.039   4.169   1.940
  916SOL     OW12716   2.511   2.345   1.959
  916SOL    HW112717   2.504   2.284   1.880
  916SOL    HW212718   2.560   2.428   1.934
  917SOL     OW12719   2.623   3.834   1.724
  917SOL    HW112720   2.688   3.781   1.669
  917SOL    HW212721   2.550   3.774   1.755
  918SOL     OW12722   4.183   1.186   0.645
  918SOL    HW112723   4.121   1.228   0.578
  918SOL    HW212724   4.221   1.258   0.705
  919SOL     OW12725   3.279   1.152   1.003
  919SOL    HW112726   3.216   1.075   0.992
  919SOL    HW212727   3.332   1.139   1.087
  920SOL     OW12728   1.478   6.580   2.046
  920SOL    HW112729   1.509   6.615   1.958
  920SOL    HW212730   1.387   6.541   2.037
  921SOL     OW12731   3.216   3.902   1.499
  921SOL    HW112732   3.141   3.837   1.486
  921SOL    HW212733   3.294   3.875   1.442
  922SOL     OW12734   0.681   8.911   1.280
  922SOL    HW112735   0.762   8.854   1.263
  922SOL    HW212736   0.598   8.857   1.267
  923SOL     OW12737   4.971   2.840   1.727
  923SOL    HW112738   4.915   2.807   1.804
  923SOL    HW212739   4.966   2.940   1.723
  924SOL     OW12740   4.300   4.090   2.116
  924SOL    HW112741   4.364   4.160   2.081
  924SOL    HW212742   4.294   4.015   2.050
  925SOL     OW12743   4.016   4.241   0.481
  925SOL    HW112744   4.098   4.184   0.481
  925SOL    HW212745   3.935   4.183   0.490
  926SOL     OW12746   2.274   1.328   1.997
  926SOL    HW112747   2.325   1.311   2.081
  926SOL    HW212748   2.212   1.251   1.980
  927SOL     OW12749   2.577   9.966   0.967
  927SOL    HW112750   2.619   0.018   0.893
  927SOL    HW212751   2.480   9.952   0.948
  928SOL     OW12752   3.007   5.095   1.595
  928SOL    HW112753   3.083   5.080   1.660
  928SOL    HW212754   2.930   5.036   1.621
  929SOL     OW12755   1.140   2.635   1.316
  929SOL    HW112756   1.043   2.622   1.337
  929SOL    HW212757   1.150   2.669   1.222
  930SOL     OW12758   3.652   1.508   0.975
  930SOL    HW112759   3.560   1.524   0.940
  930SOL    HW212760   3.698   1.596   0.988
  931SOL     OW12761   9.804   3.224   0.618
  931SOL    HW112762   9.875   3.278   0.664
  931SOL    HW212763   9.792   3.137   0.665
  932SOL     OW12764   2.673   0.650   1.980
  932SOL    HW112765   2.672   0.673   1.883
  932SOL    HW212766   2.767   0.650   2.013
  933SOL     OW12767   2.146   0.393   0.631
  933SOL    HW112768   2.223   0.414   0.571
  933SOL    HW212769   2.179   0.345   0.713
  934SOL     OW12770   0.013   3.338   0.756
  934SOL    HW112771   0.065   3.356   0.672
  934SOL    HW212772   0.066   3.277   0.815
  935SOL     OW12773   8.978   2.908   1.566
  935SOL    HW112774   8.968   2.815   1.533
  935SOL    HW212775   8.901   2.931   1.625
  936SOL     OW12776   0.715   6.376   0.483
  936SOL    HW112777   0.626   6.394   0.525
  936SOL    HW212778   0.746   6.458   0.435
  937SOL     OW12779   2.253   5.690   1.345
  937SOL    HW112780   2.321   5.687   1.418
  937SOL    HW212781   2.162   5.672   1.384
  938SOL     OW12782   1.298   9.963   1.260
  938SOL    HW112783   1.278   0.022   1.338
  938SOL    HW212784   1.396   9.965   1.240
  939SOL     OW12785   3.926   1.004   0.822
  939SOL    HW112786   4.022   1.009   0.849
  939SOL    HW212787   3.915   1.040   0.729
  940SOL     OW12788   1.109   4.214   1.671
  940SOL    HW112789   1.195   4.168   1.696
  940SOL    HW212790   1.056   4.155   1.610
  941SOL     OW12791   4.942   2.317   1.241
  941SOL    HW112792   4.843   2.317   1.226
  941SOL    HW212793   4.960   2.321   1.339
  942SOL     OW12794   9.617   2.405   1.399
  942SOL    HW112795   9.647   2.397   1.494
  942SOL    HW212796   9.520   2.427   1.396
  943SOL     OW12797   9.150   1.993   0.525
  943SOL    HW112798   9.069   1.960   0.476
  943SOL    HW212799   9.217   1.920   0.533
  944SOL     OW12800   0.706   9.930   0.798
  944SOL    HW112801   0.674   9.962   0.888
  944SOL    HW212802   0.773   9.995   0.762
  945SOL     OW12803   2.063   3.301   2.068
  945SOL    HW112804   2.069   3.379   2.130
  945SOL    HW212805   1.996   3.321   1.996
  946SOL     OW12806   3.215   0.679   1.843
  946SOL    HW112807   3.248   0.642   1.756
  946SOL    HW212808   3.189   0.604   1.903
  947SOL     OW12809   0.062   1.773   1.043
  947SOL    HW112810   0.082   1.681   1.075
  947SOL    HW212811   0.060   1.836   1.120
  948SOL     OW12812   0.061   6.798   0.774
  948SOL    HW112813   0.113   6.879   0.746
  948SOL    HW212814   0.050   6.737   0.695
  949SOL     OW12815   0.529   0.641   2.041
  949SOL    HW112816   0.623   0.671   2.028
  949SOL    HW212817   0.518   0.549   2.004
  950SOL     OW12818   1.243   1.343   0.756
  950SOL    HW112819   1.297   1.269   0.715
  950SOL    HW212820   1.305   1.413   0.792
  951SOL     OW12821   2.331   4.978   1.075
  951SOL    HW112822   2.274   4.899   1.055
  951SOL    HW212823   2.295   5.027   1.154
  952SOL     OW12824   3.741   4.234   1.038
  952SOL    HW112825   3.755   4.183   1.123
  952SOL    HW212826   3.645   4.228   1.010
  953SOL     OW12827   2.284   3.576   0.528
  953SOL    HW112828   2.380   3.600   0.537
  953SOL    HW212829   2.227   3.657   0.542
  954SOL     OW12830   2.734   3.527   0.701
  954SOL    HW112831   2.718   3.507   0.798
  954SOL    HW212832   2.831   3.515   0.680
  955SOL     OW12833   0.976   6.010   0.478
  955SOL    HW112834   1.050   6.006   0.545
  955SOL    HW212835   0.939   5.918   0.463
  956SOL     OW12836   1.311   5.669   1.185
  956SOL    HW112837   1.324   5.732   1.261
  956SOL    HW212838   1.226   5.692   1.137
  957SOL     OW12839   0.476   5.585   1.283
  957SOL    HW112840   0.450   5.682   1.287
  957SOL    HW212841   0.533   5.563   1.362
  958SOL     OW12842   2.802   4.924   1.698
  958SOL    HW112843   2.787   4.980   1.780
  958SOL    HW212844   2.811   4.828   1.724
  959SOL     OW12845   0.900   9.736   0.748
  959SOL    HW112846   0.816   9.782   0.775
  959SOL    HW212847   0.928   9.766   0.657
  960SOL     OW12848   0.966   9.887   0.518
  960SOL    HW112849   0.959   9.959   0.588
  960SOL    HW212850   0.923   9.919   0.433
  961SOL     OW12851   2.439   9.067   2.123
  961SOL    HW112852   2.497   9.145   2.099
  961SOL    HW212853   2.476   8.984   2.081
  962SOL     OW12854   2.694   0.122   0.778
  962SOL    HW112855   2.618   0.185   0.766
  962SOL    HW212856   2.732   0.098   0.688
  963SOL     OW12857   1.909   8.242   1.291
  963SOL    HW112858   1.837   8.266   1.227
  963SOL    HW212859   1.907   8.306   1.369
  964SOL     OW12860   1.262   1.436   1.747
  964SOL    HW112861   1.355   1.461   1.771
  964SOL    HW212862   1.249   1.446   1.648
  965SOL     OW12863   0.758   8.158   1.622
  965SOL    HW112864   0.775   8.202   1.710
  965SOL    HW212865   0.688   8.087   1.633
  966SOL     OW12866   1.739   1.851   1.819
  966SOL    HW112867   1.765   1.806   1.904
  966SOL    HW212868   1.641   1.841   1.805
  967SOL     OW12869   4.511   5.143   1.298
  967SOL    HW112870   4.496   5.087   1.217
  967SOL    HW212871   4.425   5.152   1.349
  968SOL     OW12872   3.857   8.300   1.490
  968SOL    HW112873   3.918   8.306   1.411
  968SOL    HW212874   3.762   8.312   1.459
  969SOL     OW12875   0.681   6.257   1.254
  969SOL    HW112876   0.640   6.299   1.335
  969SOL    HW212877   0.665   6.158   1.256
  970SOL     OW12878   2.713   1.883   0.550
  970SOL    HW112879   2.662   1.825   0.487
  970SOL    HW212880   2.787   1.929   0.501
  971SOL     OW12881   4.410   1.363   1.928
  971SOL    HW112882   4.311   1.375   1.922
  971SOL    HW212883   4.450   1.440   1.978
  972SOL     OW12884   3.036   2.036   0.718
  972SOL    HW112885   3.033   1.936   0.728
  972SOL    HW212886   3.103   2.073   0.782
  973SOL     OW12887   3.642   8.577   1.361
  973SOL    HW112888   3.714   8.636   1.324
  973SOL    HW212889   3.562   8.632   1.384
  974SOL     OW12890   1.076   5.153   1.210
  974SOL    HW112891   1.111   5.193   1.125
  974SOL    HW212892   1.144   5.092   1.249
  975SOL     OW12893   4.856   2.765   1.975
  975SOL    HW112894   4.938   2.716   2.005
  975SOL    HW212895   4.775   2.723   2.017
  976SOL     OW12896   1.147   4.412   1.194
  976SOL    HW112897   1.048   4.415   1.184
  976SOL    HW212898   1.187   4.369   1.113
  977SOL     OW12899   2.525   9.248   1.103
  977SOL    HW112900   2.489   9.317   1.165
  977SOL    HW212901   2.619   9.272   1.077
  978SOL     OW12902   9.242   1.844   2.245
  978SOL    HW112903   9.281   1.821   2.335
  978SOL    HW212904   9.142   1.848   2.252
  979SOL     OW12905   2.777   8.972   2.008
  979SOL    HW112906   2.769   9.059   1.958
  979SOL    HW212907   2.689   8.925   2.007
  980SOL     OW12908   1.671   5.476   0.601
  980SOL    HW112909   1.744   5.536   0.568
  980SOL    HW212910   1.602   5.465   0.530
  981SOL     OW12911   4.707   2.997   1.523
  981SOL    HW112912   4.665   3.051   1.597
  981SOL    HW212913   4.703   2.900   1.547
  982SOL     OW12914   9.632   2.622   0.942
  982SOL    HW112915   9.566   2.619   1.017
  982SOL    HW212916   9.720   2.656   0.977
  983SOL     OW12917   0.436   4.221   2.119
  983SOL    HW112918   0.364   4.161   2.084
  983SOL    HW212919   0.439   4.305   2.065
  984SOL     OW12920   1.846   8.231   1.899
  984SOL    HW112921   1.939   8.210   1.870
  984SOL    HW212922   1.847   8.264   1.994
  985SOL     OW12923   3.133   8.566   1.081
  985SOL    HW112924   3.062   8.633   1.061
  985SOL    HW212925   3.162   8.521   0.997
  986SOL     OW12926   3.433   4.953   2.106
  986SOL    HW112927   3.346   4.977   2.150
  986SOL    HW212928   3.420   4.872   2.049
  987SOL     OW12929   0.143   0.943   1.706
  987SOL    HW112930   0.050   0.917   1.732
  987SOL    HW212931   0.178   1.011   1.771
  988SOL     OW12932   2.117   9.792   0.596
  988SOL    HW112933   2.213   9.800   0.623
  988SOL    HW212934   2.067   9.742   0.666
  989SOL     OW12935   2.212   9.449   2.198
  989SOL    HW112936   2.209   9.408   2.108
  989SOL    HW212937   2.128   9.429   2.247
  990SOL     OW12938   1.690   3.992   1.411
  990SOL    HW112939   1.667   3.896   1.428
  990SOL    HW212940   1.747   3.998   1.329
  991SOL     OW12941   3.784   0.259   2.185
  991SOL    HW112942   3.870   0.280   2.232
  991SOL    HW212943   3.720   0.218   2.250
  992SOL     OW12944   1.998   6.843   2.074
  992SOL    HW112945   1.970   6.902   1.998
  992SOL    HW212946   2.009   6.899   2.156
  993SOL     OW12947   0.876   2.713   1.744
  993SOL    HW112948   0.810   2.720   1.669
  993SOL    HW212949   0.924   2.800   1.754
  994SOL     OW12950   1.104   8.653   1.563
  994SOL    HW112951   1.117   8.629   1.659
  994SOL    HW212952   1.008   8.675   1.547
  995SOL     OW12953   5.135   2.856   0.834
  995SOL    HW112954   5.097   2.779   0.884
  995SOL    HW212955   5.141   2.936   0.894
  996SOL     OW12956   2.448   3.750   0.836
  996SOL    HW112957   2.528   3.792   0.877
  996SOL    HW212958   2.470   3.721   0.742
  997SOL     OW12959   9.432   3.314   1.410
  997SOL    HW112960   9.495   3.384   1.376
  997SOL    HW212961   9.440   3.232   1.354
  998SOL     OW12962   0.258   5.139   2.027
  998SOL    HW112963   0.196   5.104   1.956
  998SOL    HW212964   0.250   5.082   2.109
  999SOL     OW12965   4.285   0.744   1.789
  999SOL    HW112966   4.202   0.742   1.844
  999SOL    HW212967   4.288   0.829   1.737
 1000SOL     OW12968   2.100   2.937   1.151
 1000SOL    HW112969   2.064   2.873   1.218
 1000SOL    HW212970   2.167   2.998   1.195
 1001SOL     OW12971   2.002   7.542   1.950
 1001SOL    HW112972   2.081   7.543   1.889
 1001SOL    HW212973   1.955   7.630   1.946
 1002SOL     OW12974   0.916   1.683   1.725
 1002SOL    HW112975   0.849   1.736   1.777
 1002SOL    HW212976   0.939   1.599   1.776
 1003SOL     OW12977   1.729   0.669   1.922
 1003SOL    HW112978   1.773   0.673   1.832
 1003SOL    HW212979   1.784   0.611   1.983
 1004SOL     OW12980   3.908   0.515   0.694
 1004SOL    HW112981   3.945   0.528   0.602
 1004SOL    HW212982   3.973   0.549   0.762
 1005SOL     OW12983   0.819   2.457   2.317
 1005SOL    HW112984   0.905   2.409   2.298
 1005SOL    HW212985   0.808   2.467   2.416
 1006SOL     OW12986   9.714   4.329   0.964
 1006SOL    HW112987   9.713   4.346   0.865
 1006SOL    HW212988   9.630   4.282   0.990
 1007SOL     OW12989   4.938   4.319   0.557
 1007SOL    HW112990   4.897   4.399   0.599
 1007SOL    HW212991   4.873   4.243   0.559
 1008SOL     OW12992   0.255   2.343   1.884
 1008SOL    HW112993   0.165   2.312   1.916
 1008SOL    HW212994   0.272   2.305   1.793
 1009SOL     OW12995   2.560   1.695   1.067
 1009SOL    HW112996   2.546   1.791   1.041
 1009SOL    HW212997   2.472   1.648   1.067
 1010SOL     OW12998   2.027   2.995   1.532
 1010SOL    HW112999   1.982   3.045   1.458
 1010SOL    HW213000   2.016   3.045   1.617
 1011SOL     OW13001   4.674   2.028   1.110
 1011SOL    HW113002   4.655   1.935   1.078
 1011SOL    HW213003   4.760   2.061   1.071
 1012SOL     OW13004   9.060   4.948   1.127
 1012SOL    HW113005   9.026   4.901   1.046
 1012SOL    HW213006   9.082   5.043   1.105
 1013SOL     OW13007   0.722   5.044   1.622
 1013SOL    HW113008   0.662   5.106   1.571
 1013SOL    HW213009   0.670   4.998   1.693
 1014SOL     OW13010   0.351   1.634   1.904
 1014SOL    HW113011   0.306   1.717   1.935
 1014SOL    HW213012   0.290   1.556   1.918
 1015SOL     OW13013   3.025   2.194   0.184
 1015SOL    HW113014   3.060   2.113   0.137
 1015SOL    HW213015   3.076   2.275   0.153
 1016SOL     OW13016   0.589   9.824   0.574
 1016SOL    HW113017   0.626   9.860   0.660
 1016SOL    HW213018   0.520   9.754   0.594
 1017SOL     OW13019   3.635   1.230   0.632
 1017SOL    HW113020   3.574   1.283   0.574
 1017SOL    HW213021   3.584   1.192   0.708
 1018SOL     OW13022   0.510   5.427   0.723
 1018SOL    HW113023   0.474   5.477   0.644
 1018SOL    HW213024   0.577   5.483   0.770
 1019SOL     OW13025   1.292   2.878   0.656
 1019SOL    HW113026   1.384   2.853   0.686
 1019SOL    HW213027   1.282   2.977   0.656
 1020SOL     OW13028   9.982   0.733   1.153
 1020SOL    HW113029  10.000   0.669   1.228
 1020SOL    HW213030   0.027   0.700   1.069
 1021SOL     OW13031   2.131   1.846   0.662
 1021SOL    HW113032   2.230   1.833   0.664
 1021SOL    HW213033   2.089   1.767   0.616
 1022SOL     OW13034   2.757   0.913   1.737
 1022SOL    HW113035   2.812   0.830   1.732
 1022SOL    HW213036   2.693   0.916   1.661
 1023SOL     OW13037   3.832   1.089   1.221
 1023SOL    HW113038   3.779   1.066   1.140
 1023SOL    HW213039   3.914   1.139   1.195
 1024SOL     OW13040   3.122   0.453   1.980
 1024SOL    HW113041   3.125   0.381   1.911
 1024SOL    HW213042   3.133   0.412   2.071
 1025SOL     OW13043   1.376   2.843   1.971
 1025SOL    HW113044   1.389   2.789   2.054
 1025SOL    HW213045   1.454   2.904   1.958
 1026SOL     OW13046   0.573   4.981   0.462
 1026SOL    HW113047   0.666   5.012   0.445
 1026SOL    HW213048   0.574   4.908   0.531
 1027SOL     OW13049   1.422   2.242   1.558
 1027SOL    HW113050   1.398   2.208   1.649
 1027SOL    HW213051   1.343   2.289   1.518
 1028SOL     OW13052   2.010   3.534   1.662
 1028SOL    HW113053   2.076   3.466   1.694
 1028SOL    HW213054   1.966   3.500   1.579
 1029SOL     OW13055   3.713   0.998   0.988
 1029SOL    HW113056   3.678   0.905   0.992
 1029SOL    HW213057   3.793   1.002   0.928
 1030SOL     OW13058   9.912   3.473   0.371
 1030SOL    HW113059   9.828   3.473   0.425
 1030SOL    HW213060   9.889   3.478   0.274
 1031SOL     OW13061   9.422   2.909   1.854
 1031SOL    HW113062   9.464   2.999   1.861
 1031SOL    HW213063   9.354   2.909   1.781
 1032SOL     OW13064   3.827   3.251   2.076
 1032SOL    HW113065   3.763   3.255   2.152
 1032SOL    HW213066   3.776   3.241   1.990
 1033SOL     OW13067   3.644   8.900   2.179
 1033SOL    HW113068   3.632   8.861   2.088
 1033SOL    HW213069   3.716   8.969   2.176
 1034SOL     OW13070   3.901   9.610   1.640
 1034SOL    HW113071   3.945   9.577   1.723
 1034SOL    HW213072   3.967   9.662   1.586
 1035SOL     OW13073   0.964   2.223   0.678
 1035SOL    HW113074   1.039   2.157   0.676
 1035SOL    HW213075   0.991   2.306   0.630
 1036SOL     OW13076   2.703   2.565   1.106
 1036SOL    HW113077   2.654   2.499   1.049
 1036SOL    HW213078   2.685   2.544   1.202
 1037SOL     OW13079   0.123   1.953   0.841
 1037SOL    HW113080   0.058   1.950   0.765
 1037SOL    HW213081   0.094   1.888   0.911
 1038SOL     OW13082   1.253   6.753   1.750
 1038SOL    HW113083   1.233   6.661   1.714
 1038SOL    HW213084   1.234   6.821   1.679
 1039SOL     OW13085   0.993   0.824   1.672
 1039SOL    HW113086   1.055   0.814   1.595
 1039SOL    HW213087   0.908   0.866   1.642
 1040SOL     OW13088   1.348   5.242   1.788
 1040SOL    HW113089   1.385   5.267   1.698
 1040SOL    HW213090   1.252   5.268   1.793
 1041SOL     OW13091   9.485   5.921   0.952
 1041SOL    HW113092   9.423   5.906   1.028
 1041SOL    HW213093   9.459   5.861   0.876
 1042SOL     OW13094   3.779   0.588   1.290
 1042SOL    HW113095   3.775   0.685   1.313
 1042SOL    HW213096   3.732   0.572   1.203
 1043SOL     OW13097   2.154   7.675   0.768
 1043SOL    HW113098   2.077   7.614   0.751
 1043SOL    HW213099   2.227   7.626   0.816
 1044SOL     OW13100   1.533   8.934   1.530
 1044SOL    HW113101   1.584   8.923   1.445
 1044SOL    HW213102   1.475   8.853   1.544
 1045SOL     OW13103   4.246   8.498   1.466
 1045SOL    HW113104   4.209   8.406   1.449
 1045SOL    HW213105   4.311   8.522   1.394
 1046SOL     OW13106   0.433   7.834   0.689
 1046SOL    HW113107   0.486   7.765   0.640
 1046SOL    HW213108   0.486   7.865   0.769
 1047SOL     OW13109   1.329   9.518   1.020
 1047SOL    HW113110   1.294   9.582   1.088
 1047SOL    HW213111   1.253   9.483   0.965
 1048SOL     OW13112   0.463   8.332   1.406
 1048SOL    HW113113   0.387   8.277   1.442
 1048SOL    HW213114   0.426   8.403   1.347
 1049SOL     OW13115   2.588   6.275   1.704
 1049SOL    HW113116   2.584   6.200   1.770
 1049SOL    HW213117   2.496   6.295   1.670
 1050SOL     OW13118   2.522   5.086   0.446
 1050SOL    HW113119   2.586   5.035   0.504
 1050SOL    HW213120   2.555   5.179   0.433
 1051SOL     OW13121   0.536   0.378   1.934
 1051SOL    HW113122   0.531   0.291   1.984
 1051SOL    HW213123   0.621   0.380   1.880
 1052SOL     OW13124   9.721   5.557   1.135
 1052SOL    HW113125   9.798   5.621   1.133
 1052SOL    HW213126   9.671   5.562   1.049
 1053SOL     OW13127   9.347   3.852   2.013
 1053SOL    HW113128   9.368   3.865   1.917
 1053SOL    HW213129   9.248   3.839   2.024
 1054SOL     OW13130   1.915   4.554   0.910
 1054SOL    HW113131   1.951   4.629   0.856
 1054SOL    HW213132   1.926   4.575   1.008
 1055SOL     OW13133   4.345   4.011   1.233
 1055SOL    HW113134   4.250   4.029   1.209
 1055SOL    HW213135   4.356   3.914   1.253
 1056SOL     OW13136   2.834   7.217   0.946
 1056SOL    HW113137   2.739   7.188   0.932
 1056SOL    HW213138   2.861   7.279   0.873
 1057SOL     OW13139   4.292   8.742   1.268
 1057SOL    HW113140   4.265   8.801   1.191
 1057SOL    HW213141   4.220   8.743   1.337
 1058SOL     OW13142   0.989   6.362   1.658
 1058SOL    HW113143   1.014   6.271   1.626
 1058SOL    HW213144   0.922   6.402   1.595
 1059SOL     OW13145   2.260   8.170   0.709
 1059SOL    HW113146   2.295   8.139   0.621
 1059SOL    HW213147   2.207   8.097   0.752
 1060SOL     OW13148   1.743   4.680   0.562
 1060SOL    HW113149   1.788   4.758   0.520
 1060SOL    HW213150   1.658   4.709   0.606
 1061SOL     OW13151   1.908   6.400   1.594
 1061SOL    HW113152   1.896   6.321   1.653
 1061SOL    HW213153   1.991   6.389   1.540
 1062SOL     OW13154   2.109   1.104   1.951
 1062SOL    HW113155   2.124   1.116   1.853
 1062SOL    HW213156   2.035   1.038   1.966
 1063SOL     OW13157   3.507   3.526   0.809
 1063SOL    HW113158   3.584   3.589   0.824
 1063SOL    HW213159   3.455   3.555   0.728
 1064SOL     OW13160   2.880   7.690   2.009
 1064SOL    HW113161   2.941   7.755   2.054
 1064SOL    HW213162   2.844   7.625   2.076
 1065SOL     OW13163   0.675   5.707   1.656
 1065SOL    HW113164   0.720   5.696   1.745
 1065SOL    HW213165   0.589   5.757   1.669
 1066SOL     OW13166   0.405   0.187   1.042
 1066SOL    HW113167   0.336   0.118   1.065
 1066SOL    HW213168   0.495   0.144   1.037
 1067SOL     OW13169   0.127   5.542   1.467
 1067SOL    HW113170   0.085   5.455   1.442
 1067SOL    HW213171   0.215   5.526   1.511
 1068SOL     OW13172   1.682   8.957   0.645
 1068SOL    HW113173   1.751   8.894   0.610
 1068SOL    HW213174   1.631   8.996   0.568
 1069SOL     OW13175   9.247   2.872   0.413
 1069SOL    HW113176   9.312   2.912   0.349
 1069SOL    HW213177   9.157   2.915   0.400
 1070SOL     OW13178   1.644   3.630   0.434
 1070SOL    HW113179   1.699   3.576   0.371
 1070SOL    HW213180   1.562   3.578   0.460
 1071SOL     OW13181   1.275   6.761   1.134
 1071SOL    HW113182   1.278   6.695   1.059
 1071SOL    HW213183   1.255   6.712   1.219
 1072SOL     OW13184   4.173   0.943   0.516
 1072SOL    HW113185   4.077   0.922   0.495
 1072SOL    HW213186   4.178   1.028   0.568
 1073SOL     OW13187   4.326   2.907   0.972
 1073SOL    HW113188   4.352   2.900   1.068
 1073SOL    HW213189   4.236   2.864   0.958
 1074SOL     OW13190   0.978   1.411   0.706
 1074SOL    HW113191   0.929   1.378   0.787
 1074SOL    HW213192   1.076   1.397   0.718
 1075SOL     OW13193   2.770   1.705   2.065
 1075SOL    HW113194   2.697   1.765   2.097
 1075SOL    HW213195   2.742   1.610   2.075
 1076SOL     OW13196   9.788   4.895   1.153
 1076SOL    HW113197   9.887   4.910   1.151
 1076SOL    HW213198   9.750   4.907   1.062
 1077SOL     OW13199   1.555   6.565   0.550
 1077SOL    HW113200   1.626   6.516   0.600
 1077SOL    HW213201   1.480   6.587   0.612
 1078SOL     OW13202   9.532   2.657   1.703
 1078SOL    HW113203   9.531   2.712   1.786
 1078SOL    HW213204   9.593   2.699   1.636
 1079SOL     OW13205   2.554   7.075   2.217
 1079SOL    HW113206   2.498   7.052   2.137
 1079SOL    HW213207   2.496   7.118   2.286
 1080SOL     OW13208   0.597   2.980   1.979
 1080SOL    HW113209   0.567   3.054   1.919
 1080SOL    HW213210   0.528   2.962   2.048
 1081SOL     OW13211   2.542   6.349   2.326
 1081SOL    HW113212   2.446   6.377   2.329
 1081SOL    HW213213   2.596   6.420   2.281
 1082SOL     OW13214   1.054   3.630   0.835
 1082SOL    HW113215   1.092   3.543   0.866
 1082SOL    HW213216   0.965   3.615   0.793
 1083SOL     OW13217   1.821   2.129   1.501
 1083SOL    HW113218   1.793   2.223   1.522
 1083SOL    HW213219   1.740   2.070   1.501
 1084SOL     OW13220   1.151   1.825   1.797
 1084SOL    HW113221   1.082   1.769   1.752
 1084SOL    HW213222   1.134   1.922   1.776
 1085SOL     OW13223   2.859   8.920   1.506
 1085SOL    HW113224   2.855   8.985   1.430
 1085SOL    HW213225   2.923   8.953   1.575
 1086SOL     OW13226   0.578   7.956   1.641
 1086SOL    HW113227   0.514   7.948   1.565
 1086SOL    HW213228   0.618   7.866   1.660
 1087SOL     OW13229   0.328   3.910   0.448
 1087SOL    HW113230   0.240   3.907   0.495
 1087SOL    HW213231   0.401   3.924   0.515
 1088SOL     OW13232   1.359   4.081   1.693
 1088SOL    HW113233   1.391   3.994   1.732
 1088SOL    HW213234   1.364   4.077   1.593
 1089SOL     OW13235   0.357   3.800   0.808
 1089SOL    HW113236   0.416   3.816   0.729
 1089SOL    HW213237   0.412   3.761   0.883
 1090SOL     OW13238   2.828   4.398   1.844
 1090SOL    HW113239   2.741   4.357   1.870
 1090SOL    HW213240   2.901   4.362   1.903
 1091SOL     OW13241   4.482   3.362   0.645
 1091SOL    HW113242   4.420   3.422   0.594
 1091SOL    HW213243   4.477   3.269   0.608
 1092SOL     OW13244   2.595   5.373   0.857
 1092SOL    HW113245   2.610   5.277   0.835
 1092SOL    HW213246   2.497   5.393   0.856
 1093SOL     OW13247   3.923   2.162   1.470
 1093SOL    HW113248   3.875   2.082   1.434
 1093SOL    HW213249   3.988   2.133   1.540
 1094SOL     OW13250   4.074   3.345   2.013
 1094SOL    HW113251   3.981   3.324   2.042
 1094SOL    HW213252   4.125   3.387   2.088
 1095SOL     OW13253   4.781   3.159   2.248
 1095SOL    HW113254   4.707   3.092   2.248
 1095SOL    HW213255   4.862   3.118   2.206
 1096SOL     OW13256   3.776   1.339   1.677
 1096SOL    HW113257   3.861   1.390   1.691
 1096SOL    HW213258   3.786   1.278   1.598
 1097SOL     OW13259   0.305   8.591   0.955
 1097SOL    HW113260   0.338   8.569   1.047
 1097SOL    HW213261   0.363   8.545   0.888
 1098SOL     OW13262   5.316   3.160   0.558
 1098SOL    HW113263   5.329   3.179   0.461
 1098SOL    HW213264   5.399   3.185   0.608
 1099SOL     OW13265   3.377   2.018   2.022
 1099SOL    HW113266   3.437   2.031   2.101
 1099SOL    HW213267   3.418   2.060   1.942
 1100SOL     OW13268   0.832   7.685   2.193
 1100SOL    HW113269   0.781   7.634   2.263
 1100SOL    HW213270   0.886   7.620   2.139
 1101SOL     OW13271   1.943   7.790   0.472
 1101SOL    HW113272   1.998   7.873   0.463
 1101SOL    HW213273   1.995   7.712   0.439
 1102SOL     OW13274   3.702   1.690   2.333
 1102SOL    HW113275   3.608   1.685   2.299
 1102SOL    HW213276   3.706   1.753   2.411
 1103SOL     OW13277   1.605   8.797   0.859
 1103SOL    HW113278   1.621   8.855   0.779
 1103SOL    HW213279   1.528   8.834   0.912
 1104SOL     OW13280   3.694   8.202   0.773
 1104SOL    HW113281   3.652   8.128   0.720
 1104SOL    HW213282   3.764   8.246   0.718
 1105SOL     OW13283   0.425   3.008   1.258
 1105SOL    HW113284   0.343   3.063   1.249
 1105SOL    HW213285   0.415   2.944   1.334
 1106SOL     OW13286   1.851   2.854   2.284
 1106SOL    HW113287   1.841   2.784   2.214
 1106SOL    HW213288   1.913   2.925   2.251
 1107SOL     OW13289   1.067   1.193   1.225
 1107SOL    HW113290   0.972   1.209   1.198
 1107SOL    HW213291   1.074   1.190   1.325
 1108SOL     OW13292   4.212   3.032   0.563
 1108SOL    HW113293   4.186   2.969   0.490
 1108SOL    HW213294   4.137   3.095   0.581
 1109SOL     OW13295   0.804   9.751   1.629
 1109SOL    HW113296   0.769   9.679   1.569
 1109SOL    HW213297   0.889   9.787   1.590
 1110SOL     OW13298   1.591   0.867   2.048
 1110SOL    HW113299   1.641   0.795   2.000
 1110SOL    HW213300   1.508   0.890   1.997
 1111SOL     OW13301   0.652   4.595   1.481
 1111SOL    HW113302   0.741   4.551   1.476
 1111SOL    HW213303   0.639   4.653   1.401
 1112SOL     OW13304   1.357   7.236   0.463
 1112SOL    HW113305   1.374   7.201   0.371
 1112SOL    HW213306   1.440   7.279   0.499
 1113SOL     OW13307   1.908   8.082   0.884
 1113SOL    HW113308   1.985   8.019   0.874
 1113SOL    HW213309   1.844   8.046   0.951
 1114SOL     OW13310   9.762   6.116   1.521
 1114SOL    HW113311   9.747   6.165   1.434
 1114SOL    HW213312   9.675   6.103   1.567
 1115SOL     OW13313   1.544   1.643   1.242
 1115SOL    HW113314   1.446   1.652   1.260
 1115SOL    HW213315   1.561   1.558   1.192
 1116SOL     OW13316   0.404   8.530   1.211
 1116SOL    HW113317   0.497   8.507   1.181
 1116SOL    HW213318   0.402   8.626   1.239
 1117SOL     OW13319   3.835   0.098   1.974
 1117SOL    HW113320   3.804   0.145   2.056
 1117SOL    HW213321   3.917   0.144   1.938
 1118SOL     OW13322   4.667   2.192   0.807
 1118SOL    HW113323   4.740   2.253   0.839
 1118SOL    HW213324   4.672   2.183   0.708
 1119SOL     OW13325   1.827   3.289   0.753
 1119SOL    HW113326   1.876   3.330   0.676
 1119SOL    HW213327   1.891   3.276   0.830
 1120SOL     OW13328   3.527   7.575   0.835
 1120SOL    HW113329   3.573   7.661   0.811
 1120SOL    HW213330   3.513   7.571   0.934
 1121SOL     OW13331   2.345   9.219   0.414
 1121SOL    HW113332   2.435   9.175   0.417
 1121SOL    HW213333   2.285   9.176   0.481
 1122SOL     OW13334   4.155   0.478   2.029
 1122SOL    HW113335   4.112   0.564   2.000
 1122SOL    HW213336   4.252   0.480   2.008
 1123SOL     OW13337   0.574   3.844   2.174
 1123SOL    HW113338   0.659   3.844   2.227
 1123SOL    HW213339   0.531   3.934   2.179
 1124SOL     OW13340   9.791   4.080   0.395
 1124SOL    HW113341   9.811   4.176   0.377
 1124SOL    HW213342   9.860   4.023   0.351
 1125SOL     OW13343   1.120   4.307   2.105
 1125SOL    HW113344   1.060   4.387   2.110
 1125SOL    HW213345   1.066   4.224   2.123
 1126SOL     OW13346   2.650   7.735   0.427
 1126SOL    HW113347   2.686   7.747   0.520
 1126SOL    HW213348   2.643   7.825   0.383
 1127SOL     OW13349   4.361   3.207   2.159
 1127SOL    HW113350   4.442   3.258   2.132
 1127SOL    HW213351   4.327   3.155   2.080
 1128SOL     OW13352   1.595   1.448   0.365
 1128SOL    HW113353   1.666   1.395   0.318
 1128SOL    HW213354   1.614   1.448   0.463
 1129SOL     OW13355   9.930   1.530   2.169
 1129SOL    HW113356   0.005   1.483   2.122
 1129SOL    HW213357   9.863   1.463   2.199
 1130SOL     OW13358   2.795   1.933   1.590
 1130SOL    HW113359   2.708   1.922   1.541
 1130SOL    HW213360   2.794   1.876   1.672
 1131SOL     OW13361   0.667   0.037   1.067
 1131SOL    HW113362   0.764   0.014   1.073
 1131SOL    HW213363   0.621   0.010   1.152
 1132SOL     OW13364   1.288   5.755   0.736
 1132SOL    HW113365   1.350   5.743   0.813
 1132SOL    HW213366   1.278   5.669   0.687
 1133SOL     OW13367   2.525   7.353   1.188
 1133SOL    HW113368   2.604   7.402   1.152
 1133SOL    HW213369   2.552   7.261   1.215
 1134SOL     OW13370   0.619   7.475   1.689
 1134SOL    HW113371   0.565   7.479   1.773
 1134SOL    HW213372   0.661   7.565   1.672
 1135SOL     OW13373   0.241   4.969   0.396
 1135SOL    HW113374   0.317   4.916   0.358
 1135SOL    HW213375   0.240   5.060   0.355
 1136SOL     OW13376   2.329   5.433   0.873
 1136SOL    HW113377   2.317   5.490   0.954
 1136SOL    HW213378   2.269   5.353   0.878
 1137SOL     OW13379   1.570   6.286   0.824
 1137SOL    HW113380   1.635   6.342   0.773
 1137SOL    HW213381   1.543   6.333   0.908
 1138SOL     OW13382   2.993   5.995   1.646
 1138SOL    HW113383   2.914   6.050   1.619
 1138SOL    HW213384   2.997   5.912   1.592
 1139SOL     OW13385   1.703   2.624   0.820
 1139SOL    HW113386   1.711   2.573   0.735
 1139SOL    HW213387   1.788   2.616   0.872
 1140SOL     OW13388   9.984   4.304   1.581
 1140SOL    HW113389   9.906   4.258   1.539
 1140SOL    HW213390   9.953   4.385   1.630
 1141SOL     OW13391   3.363   3.651   1.164
 1141SOL    HW113392   3.340   3.694   1.076
 1141SOL    HW213393   3.375   3.722   1.233
 1142SOL     OW13394   0.331   0.806   0.844
 1142SOL    HW113395   0.349   0.771   0.752
 1142SOL    HW213396   0.410   0.790   0.903
 1143SOL     OW13397   1.874   7.783   1.941
 1143SOL    HW113398   1.915   7.812   2.028
 1143SOL    HW213399   1.918   7.832   1.866
 1144SOL     OW13400   0.411   7.056   2.116
 1144SOL    HW113401   0.322   7.029   2.081
 1144SOL    HW213402   0.452   6.980   2.166
 1145SOL     OW13403   2.694   4.972   1.257
 1145SOL    HW113404   2.743   4.978   1.170
 1145SOL    HW213405   2.747   4.917   1.322
 1146SOL     OW13406   3.398   7.799   2.277
 1146SOL    HW113407   3.377   7.851   2.194
 1146SOL    HW213408   3.378   7.702   2.262
 1147SOL     OW13409   1.499   8.089   0.695
 1147SOL    HW113410   1.591   8.128   0.689
 1147SOL    HW213411   1.494   8.027   0.773
 1148SOL     OW13412   1.987   6.073   1.025
 1148SOL    HW113413   1.897   6.081   0.983
 1148SOL    HW213414   2.003   5.978   1.050
 1149SOL     OW13415   2.393   2.192   0.627
 1149SOL    HW113416   2.334   2.180   0.547
 1149SOL    HW213417   2.339   2.228   0.703
 1150SOL     OW13418   9.547   3.052   0.930
 1150SOL    HW113419   9.533   2.985   0.857
 1150SOL    HW213420   9.631   3.030   0.980
 1151SOL     OW13421   0.577   1.524   1.565
 1151SOL    HW113422   0.648   1.528   1.495
 1151SOL    HW213423   0.615   1.482   1.648
 1152SOL     OW13424   2.529   2.376   1.002
 1152SOL    HW113425   2.433   2.370   1.029
 1152SOL    HW213426   2.535   2.382   0.903
 1153SOL     OW13427   3.875   0.317   1.066
 1153SOL    HW113428   3.860   0.255   1.143
 1153SOL    HW213429   3.971   0.345   1.064
 1154SOL     OW13430   3.856   9.022   1.263
 1154SOL    HW113431   3.879   9.058   1.354
 1154SOL    HW213432   3.921   9.057   1.196
 1155SOL     OW13433   1.898   2.396   2.284
 1155SOL    HW113434   1.899   2.457   2.364
 1155SOL    HW213435   1.969   2.425   2.220
 1156SOL     OW13436   2.616   3.885   0.426
 1156SOL    HW113437   2.684   3.915   0.493
 1156SOL    HW213438   2.587   3.963   0.370
 1157SOL     OW13439   1.777   7.123   0.576
 1157SOL    HW113440   1.769   7.052   0.646
 1157SOL    HW213441   1.699   7.184   0.582
 1158SOL     OW13442   4.343   3.132   1.618
 1158SOL    HW113443   4.431   3.126   1.666
 1158SOL    HW213444   4.274   3.079   1.668
 1159SOL     OW13445   4.513   1.997   1.326
 1159SOL    HW113446   4.462   1.912   1.314
 1159SOL    HW213447   4.577   2.008   1.250
 1160SOL     OW13448   9.407   4.366   1.261
 1160SOL    HW113449   9.357   4.404   1.339
 1160SOL    HW213450   9.495   4.412   1.253
 1161SOL     OW13451   0.134   0.428   1.586
 1161SOL    HW113452   0.193   0.422   1.666
 1161SOL    HW213453   0.038   0.427   1.616
 1162SOL     OW13454   3.539   7.325   0.692
 1162SOL    HW113455   3.552   7.408   0.746
 1162SOL    HW213456   3.588   7.333   0.606
 1163SOL     OW13457   0.981   8.809   2.009
 1163SOL    HW113458   1.018   8.726   2.051
 1163SOL    HW213459   1.019   8.819   1.917
 1164SOL     OW13460   2.483   0.294   0.767
 1164SOL    HW113461   2.392   0.282   0.807
 1164SOL    HW213462   2.475   0.333   0.675
 1165SOL     OW13463   9.406   2.880   1.451
 1165SOL    HW113464   9.340   2.883   1.526
 1165SOL    HW213465   9.359   2.856   1.366
 1166SOL     OW13466   3.433   3.854   1.334
 1166SOL    HW113467   3.450   3.947   1.301
 1166SOL    HW213468   3.514   3.819   1.380
 1167SOL     OW13469   3.484   4.219   0.956
 1167SOL    HW113470   3.430   4.218   0.872
 1167SOL    HW213471   3.429   4.259   1.030
 1168SOL     OW13472   2.042   9.754   2.202
 1168SOL    HW113473   2.021   9.692   2.126
 1168SOL    HW213474   2.134   9.736   2.236
 1169SOL     OW13475   1.317   4.652   2.203
 1169SOL    HW113476   1.259   4.732   2.188
 1169SOL    HW213477   1.313   4.592   2.123
 1170SOL     OW13478   3.321   0.403   0.703
 1170SOL    HW113479   3.227   0.386   0.733
 1170SOL    HW213480   3.385   0.357   0.765
 1171SOL     OW13481   1.365   8.188   1.777
 1171SOL    HW113482   1.383   8.192   1.679
 1171SOL    HW213483   1.327   8.099   1.801
 1172SOL     OW13484   2.157   5.515   0.478
 1172SOL    HW113485   2.250   5.508   0.442
 1172SOL    HW213486   2.122   5.424   0.497
 1173SOL     OW13487   0.051   4.863   1.039
 1173SOL    HW113488   0.027   4.855   0.942
 1173SOL    HW213489   0.063   4.771   1.078
 1174SOL     OW13490   2.555   4.671   1.667
 1174SOL    HW113491   2.505   4.680   1.753
 1174SOL    HW213492   2.491   4.675   1.590
 1175SOL     OW13493   3.571   9.033   1.305
 1175SOL    HW113494   3.519   8.993   1.230
 1175SOL    HW213495   3.668   9.032   1.282
 1176SOL     OW13496   9.630   4.630   0.621
 1176SOL    HW113497   9.690   4.708   0.641
 1176SOL    HW213498   9.538   4.649   0.655
 1177SOL     OW13499   0.336   6.450   2.313
 1177SOL    HW113500   0.261   6.385   2.300
 1177SOL    HW213501   0.416   6.403   2.348
 1178SOL     OW13502   2.241   9.947   0.386
 1178SOL    HW113503   2.263   9.882   0.313
 1178SOL    HW213504   2.191   9.900   0.459
 1179SOL     OW13505   3.930   9.860   1.872
 1179SOL    HW113506   3.890   9.934   1.925
 1179SOL    HW213507   3.936   9.887   1.776
 1180SOL     OW13508   1.496   9.824   2.101
 1180SOL    HW113509   1.481   9.755   2.031
 1180SOL    HW213510   1.590   9.819   2.134
 1181SOL     OW13511   9.742   3.990   1.902
 1181SOL    HW113512   9.710   3.985   1.808
 1181SOL    HW213513   9.760   3.898   1.936
 1182SOL     OW13514   3.444   3.186   1.401
 1182SOL    HW113515   3.422   3.278   1.370
 1182SOL    HW213516   3.543   3.178   1.415
 1183SOL     OW13517   1.954   7.203   0.386
 1183SOL    HW113518   1.890   7.165   0.454
 1183SOL    HW213519   1.909   7.277   0.336
 1184SOL     OW13520   0.968   0.594   1.833
 1184SOL    HW113521   0.987   0.669   1.769
 1184SOL    HW213522   1.052   0.542   1.849
 1185SOL     OW13523   1.817   8.687   1.391
 1185SOL    HW113524   1.898   8.738   1.421
 1185SOL    HW213525   1.747   8.751   1.360
 1186SOL     OW13526   0.435   2.009   1.572
 1186SOL    HW113527   0.435   1.918   1.612
 1186SOL    HW213528   0.529   2.036   1.550
 1187SOL     OW13529   2.020   6.447   2.305
 1187SOL    HW113530   1.987   6.354   2.291
 1187SOL    HW213531   1.945   6.512   2.296
 1188SOL     OW13532   9.706   1.698   2.240
 1188SOL    HW113533   9.741   1.791   2.225
 1188SOL    HW213534   9.779   1.632   2.227
 1189SOL     OW13535   1.077   1.163   0.885
 1189SOL    HW113536   0.990   1.206   0.908
 1189SOL    HW213537   1.138   1.231   0.845
 1190SOL     OW13538   3.877   2.554   1.566
 1190SOL    HW113539   3.800   2.519   1.619
 1190SOL    HW213540   3.876   2.514   1.475
 1191SOL     OW13541   1.168   4.898   0.463
 1191SOL    HW113542   1.265   4.921   0.475
 1191SOL    HW213543   1.161   4.805   0.426
 1192SOL     OW13544   0.080   3.005   1.408
 1192SOL    HW113545   0.111   2.914   1.381
 1192SOL    HW213546   0.155   3.054   1.453
 1193SOL     OW13547   3.503   8.258   0.324
 1193SOL    HW113548   3.554   8.303   0.250
 1193SOL    HW213549   3.550   8.174   0.350
 1194SOL     OW13550   9.134   2.013   1.680
 1194SOL    HW113551   9.233   1.998   1.670
 1194SOL    HW213552   9.102   1.972   1.765
 1195SOL     OW13553   0.827   0.416   1.166
 1195SOL    HW113554   0.756   0.384   1.229
 1195SOL    HW213555   0.792   0.492   1.112
 1196SOL     OW13556   1.339   9.866   1.723
 1196SOL    HW113557   1.374   9.820   1.641
 1196SOL    HW213558   1.408   9.930   1.757
 1197SOL     OW13559   2.986   5.447   2.349
 1197SOL    HW113560   2.943   5.536   2.330
 1197SOL    HW213561   3.020   5.408   2.264
 1198SOL     OW13562   9.371   3.657   1.688
 1198SOL    HW113563   9.385   3.754   1.708
 1198SOL    HW213564   9.454   3.619   1.647
 1199SOL     OW13565   0.348   9.038   1.354
 1199SOL    HW113566   0.345   9.069   1.259
 1199SOL    HW213567   0.356   9.116   1.415
 1200SOL     OW13568   2.830   8.176   0.792
 1200SOL    HW113569   2.859   8.162   0.886
 1200SOL    HW213570   2.864   8.102   0.734
 1201SOL     OW13571   1.249   4.040   1.106
 1201SOL    HW113572   1.205   3.954   1.080
 1201SOL    HW213573   1.203   4.077   1.187
 1202SOL     OW13574   5.172   2.922   0.575
 1202SOL    HW113575   5.162   2.896   0.672
 1202SOL    HW213576   5.229   3.003   0.568
 1203SOL     OW13577   1.281   0.558   2.090
 1203SOL    HW113578   1.282   0.493   2.165
 1203SOL    HW213579   1.254   0.511   2.006
 1204SOL     OW13580   9.826   3.758   0.561
 1204SOL    HW113581   9.737   3.754   0.517
 1204SOL    HW213582   9.840   3.676   0.617
 1205SOL     OW13583   3.729   3.697   0.785
 1205SOL    HW113584   3.766   3.646   0.707
 1205SOL    HW213585   3.719   3.793   0.760
 1206SOL     OW13586   0.566   4.710   2.254
 1206SOL    HW113587   0.518   4.695   2.167
 1206SOL    HW213588   0.546   4.634   2.317
 1207SOL     OW13589   2.492   9.441   2.245
 1207SOL    HW113590   2.517   9.374   2.175
 1207SOL    HW213591   2.393   9.456   2.242
 1208SOL     OW13592   1.032   2.292   2.275
 1208SOL    HW113593   0.968   2.219   2.300
 1208SOL    HW213594   1.100   2.256   2.212
 1209SOL     OW13595   2.654   4.541   0.556
 1209SOL    HW113596   2.625   4.612   0.619
 1209SOL    HW213597   2.645   4.451   0.599
 1210SOL     OW13598   3.972   1.731   2.263
 1210SOL    HW113599   4.015   1.646   2.233
 1210SOL    HW213600   3.874   1.716   2.277
 1211SOL     OW13601   1.752   3.980   0.936
 1211SOL    HW113602   1.740   4.057   0.873
 1211SOL    HW213603   1.662   3.953   0.972
 1212SOL     OW13604   1.394   0.242   1.353
 1212SOL    HW113605   1.386   0.223   1.451
 1212SOL    HW213606   1.330   0.315   1.327
 1213SOL     OW13607   2.792   2.811   1.001
 1213SOL    HW113608   2.835   2.849   1.083
 1213SOL    HW213609   2.755   2.720   1.022
 1214SOL     OW13610   3.477   0.403   1.694
 1214SOL    HW113611   3.571   0.419   1.664
 1214SOL    HW213612   3.417   0.472   1.653
 1215SOL     OW13613   1.815   0.208   2.330
 1215SOL    HW113614   1.883   0.138   2.306
 1215SOL    HW213615   1.822   0.228   2.428
 1216SOL     OW13616   2.859   2.788   0.737
 1216SOL    HW113617   2.803   2.854   0.687
 1216SOL    HW213618   2.846   2.802   0.835
 1217SOL     OW13619   4.055   4.633   2.144
 1217SOL    HW113620   4.057   4.729   2.116
 1217SOL    HW213621   3.971   4.615   2.195
 1218SOL     OW13622   0.699   1.000   0.868
 1218SOL    HW113623   0.676   1.082   0.817
 1218SOL    HW213624   0.725   0.927   0.805
 1219SOL     OW13625   2.674   5.321   0.451
 1219SOL    HW113626   2.756   5.270   0.425
 1219SOL    HW213627   2.697   5.384   0.527
 1220SOL     OW13628   4.929   1.881   0.935
 1220SOL    HW113629   4.930   1.977   0.964
 1220SOL    HW213630   4.893   1.875   0.842
 1221SOL     OW13631   1.206   9.731   1.148
 1221SOL    HW113632   1.239   9.810   1.201
 1221SOL    HW213633   1.162   9.764   1.064
 1222SOL     OW13634   1.504   0.999   1.303
 1222SOL    HW113635   1.486   0.940   1.382
 1222SOL    HW213636   1.422   1.003   1.246
 1223SOL     OW13637   4.612   4.222   0.969
 1223SOL    HW113638   4.608   4.128   1.003
 1223SOL    HW213639   4.692   4.268   1.008
 1224SOL     OW13640   1.034   1.728   1.205
 1224SOL    HW113641   0.989   1.721   1.294
 1224SOL    HW213642   0.985   1.673   1.138
 1225SOL     OW13643   9.241   3.249   1.830
 1225SOL    HW113644   9.160   3.213   1.877
 1225SOL    HW213645   9.230   3.240   1.731
 1226SOL     OW13646   3.665   0.492   1.053
 1226SOL    HW113647   3.748   0.437   1.048
 1226SOL    HW213648   3.590   0.436   1.088
 1227SOL     OW13649   2.263   9.772   1.618
 1227SOL    HW113650   2.220   9.857   1.587
 1227SOL    HW213651   2.352   9.792   1.658
 1228SOL     OW13652   1.014   5.986   2.257
 1228SOL    HW113653   0.968   6.070   2.226
 1228SOL    HW213654   0.953   5.908   2.244
 1229SOL     OW13655   0.694   1.420   1.791
 1229SOL    HW113656   0.663   1.489   1.855
 1229SOL    HW213657   0.747   1.350   1.839
 1230SOL     OW13658   1.618   7.507   2.191
 1230SOL    HW113659   1.596   7.426   2.244
 1230SOL    HW213660   1.534   7.547   2.154
 1231SOL     OW13661   2.310   9.481   0.459
 1231SOL    HW113662   2.325   9.386   0.432
 1231SOL    HW213663   2.397   9.530   0.454
 1232SOL     OW13664   2.969   6.799   2.283
 1232SOL    HW113665   2.995   6.710   2.245
 1232SOL    HW213666   2.869   6.807   2.284
 1233SOL     OW13667   3.110   2.369   1.014
 1233SOL    HW113668   3.081   2.448   1.068
 1233SOL    HW213669   3.055   2.365   0.930
 1234SOL     OW13670   1.425   7.882   2.078
 1234SOL    HW113671   1.359   7.955   2.062
 1234SOL    HW213672   1.482   7.905   2.157
 1235SOL     OW13673   1.599   2.988   1.937
 1235SOL    HW113674   1.660   2.951   1.866
 1235SOL    HW213675   1.653   3.046   1.999
 1236SOL     OW13676   0.843   7.938   0.836
 1236SOL    HW113677   0.930   7.982   0.857
 1236SOL    HW213678   0.835   7.925   0.737
 1237SOL     OW13679   0.447   6.888   0.746
 1237SOL    HW113680   0.365   6.939   0.720
 1237SOL    HW213681   0.525   6.922   0.693
 1238SOL     OW13682   9.463   3.081   1.274
 1238SOL    HW113683   9.416   3.050   1.191
 1238SOL    HW213684   9.445   3.018   1.349
 1239SOL     OW13685   1.792   3.506   2.301
 1239SOL    HW113686   1.743   3.560   2.370
 1239SOL    HW213687   1.767   3.409   2.311
 1240SOL     OW13688   0.101   2.772   0.645
 1240SOL    HW113689   0.182   2.784   0.588
 1240SOL    HW213690   0.019   2.779   0.588
 1241SOL     OW13691   4.255   3.133   1.362
 1241SOL    HW113692   4.283   3.218   1.318
 1241SOL    HW213693   4.286   3.133   1.457
 1242SOL     OW13694   1.057   0.381   1.490
 1242SOL    HW113695   0.970   0.430   1.490
 1242SOL    HW213696   1.040   0.284   1.505
 1243SOL     OW13697   0.972   7.981   1.273
 1243SOL    HW113698   1.059   7.932   1.273
 1243SOL    HW213699   0.990   8.080   1.278
 1244SOL     OW13700   2.047   5.277   0.560
 1244SOL    HW113701   2.129   5.222   0.576
 1244SOL    HW213702   1.996   5.288   0.645
 1245SOL     OW13703   4.874   2.150   1.685
 1245SOL    HW113704   4.894   2.071   1.743
 1245SOL    HW213705   4.794   2.131   1.629
 1246SOL     OW13706   0.767   3.666   1.753
 1246SOL    HW113707   0.719   3.670   1.840
 1246SOL    HW213708   0.702   3.643   1.680
 1247SOL     OW13709   2.404   2.680   0.491
 1247SOL    HW113710   2.348   2.641   0.417
 1247SOL    HW213711   2.381   2.635   0.577
 1248SOL     OW13712   0.067   5.548   2.240
 1248SOL    HW113713   0.027   5.500   2.318
 1248SOL    HW213714   0.031   5.510   2.155
 1249SOL     OW13715   1.685   8.569   0.977
 1249SOL    HW113716   1.653   8.498   0.914
 1249SOL    HW213717   1.660   8.659   0.941
 1250SOL     OW13718   2.413   5.445   2.163
 1250SOL    HW113719   2.356   5.523   2.188
 1250SOL    HW213720   2.506   5.459   2.198
 1251SOL     OW13721   2.767   0.065   0.517
 1251SOL    HW113722   2.689   0.003   0.509
 1251SOL    HW213723   2.851   0.015   0.498
 1252SOL     OW13724   0.988   7.235   1.437
 1252SOL    HW113725   1.014   7.209   1.531
 1252SOL    HW213726   0.960   7.153   1.387
 1253SOL     OW13727   9.878   2.819   0.470
 1253SOL    HW113728   9.779   2.838   0.470
 1253SOL    HW213729   9.928   2.904   0.456
 1254SOL     OW13730   0.763   0.396   1.782
 1254SOL    HW113731   0.720   0.472   1.733
 1254SOL    HW213732   0.846   0.429   1.827
 1255SOL     OW13733   0.831   9.979   0.302
 1255SOL    HW113734   0.807   9.945   0.212
 1255SOL    HW213735   0.750   0.017   0.347
 1256SOL     OW13736   3.727   1.628   1.956
 1256SOL    HW113737   3.732   1.727   1.948
 1256SOL    HW213738   3.674   1.590   1.880
 1257SOL     OW13739   9.183   4.990   1.702
 1257SOL    HW113740   9.138   4.931   1.634
 1257SOL    HW213741   9.181   5.085   1.670
 1258SOL     OW13742   0.895   6.808   0.964
 1258SOL    HW113743   0.926   6.716   0.986
 1258SOL    HW213744   0.962   6.875   0.996
 1259SOL     OW13745   0.548   5.996   1.923
 1259SOL    HW113746   0.643   5.985   1.952
 1259SOL    HW213747   0.492   5.925   1.967
 1260SOL     OW13748   2.992   9.889   0.507
 1260SOL    HW113749   3.063   9.950   0.473
 1260SOL    HW213750   2.993   9.889   0.607
 1261SOL     OW13751   3.472   9.641   1.844
 1261SOL    HW113752   3.450   9.737   1.862
 1261SOL    HW213753   3.544   9.636   1.775
 1262SOL     OW13754   2.821   9.613   1.112
 1262SOL    HW113755   2.844   9.702   1.072
 1262SOL    HW213756   2.722   9.599   1.106
 1263SOL     OW13757   0.042   1.657   1.340
 1263SOL    HW113758   0.036   1.756   1.325
 1263SOL    HW213759   9.961   1.626   1.390
 1264SOL     OW13760   0.812   6.815   1.407
 1264SOL    HW113761   0.772   6.752   1.340
 1264SOL    HW213762   0.900   6.781   1.437
 1265SOL     OW13763   1.877   4.900   1.523
 1265SOL    HW113764   1.811   4.826   1.520
 1265SOL    HW213765   1.866   4.951   1.608
 1266SOL     OW13766   9.184   3.523   1.829
 1266SOL    HW113767   9.208   3.426   1.841
 1266SOL    HW213768   9.256   3.569   1.777
 1267SOL     OW13769   3.457   9.284   2.136
 1267SOL    HW113770   3.370   9.276   2.186
 1267SOL    HW213771   3.480   9.381   2.125
 1268SOL     OW13772   3.719   3.240   1.435
 1268SOL    HW113773   3.805   3.190   1.448
 1268SOL    HW213774   3.714   3.274   1.341
 1269SOL     OW13775   9.199   3.074   2.173
 1269SOL    HW113776   9.192   2.975   2.184
 1269SOL    HW213777   9.296   3.099   2.163
 1270SOL     OW13778   9.396   5.315   1.977
 1270SOL    HW113779   9.375   5.219   1.959
 1270SOL    HW213780   9.441   5.355   1.898
 1271SOL     OW13781   0.481   5.383   1.111
 1271SOL    HW113782   0.515   5.306   1.165
 1271SOL    HW213783   0.482   5.466   1.167
 1272SOL     OW13784   3.958   8.335   2.169
 1272SOL    HW113785   4.036   8.313   2.228
 1272SOL    HW213786   3.910   8.415   2.206
 1273SOL     OW13787   3.199   3.998   2.099
 1273SOL    HW113788   3.249   3.915   2.072
 1273SOL    HW213789   3.131   4.019   2.029
 1274SOL     OW13790   2.186   8.194   1.331
 1274SOL    HW113791   2.090   8.202   1.303
 1274SOL    HW213792   2.220   8.104   1.308
 1275SOL     OW13793   1.379   0.192   1.622
 1275SOL    HW113794   1.373   0.288   1.650
 1275SOL    HW213795   1.445   0.144   1.680
 1276SOL     OW13796   2.619   8.897   0.437
 1276SOL    HW113797   2.716   8.875   0.450
 1276SOL    HW213798   2.611   8.992   0.406
 1277SOL     OW13799   3.170   9.717   1.373
 1277SOL    HW113800   3.072   9.696   1.370
 1277SOL    HW213801   3.212   9.667   1.449
 1278SOL     OW13802   2.529   3.287   2.015
 1278SOL    HW113803   2.605   3.231   2.048
 1278SOL    HW213804   2.550   3.321   1.924
 1279SOL     OW13805   9.296   2.850   1.203
 1279SOL    HW113806   9.201   2.863   1.173
 1279SOL    HW213807   9.332   2.766   1.164
 1280SOL     OW13808   3.154   0.952   1.789
 1280SOL    HW113809   3.172   0.865   1.835
 1280SOL    HW213810   3.149   0.937   1.690
 1281SOL     OW13811   1.676   7.119   1.209
 1281SOL    HW113812   1.767   7.086   1.231
 1281SOL    HW213813   1.614   7.041   1.195
 1282SOL     OW13814   2.097   0.094   1.277
 1282SOL    HW113815   2.147   0.177   1.300
 1282SOL    HW213816   2.022   0.116   1.214
 1283SOL     OW13817   1.642   1.837   0.916
 1283SOL    HW113818   1.548   1.806   0.903
 1283SOL    HW213819   1.668   1.898   0.842
 1284SOL     OW13820   3.059   5.292   1.409
 1284SOL    HW113821   3.000   5.372   1.423
 1284SOL    HW213822   3.036   5.222   1.476
 1285SOL     OW13823   1.585   8.388   0.801
 1285SOL    HW113824   1.522   8.413   0.727
 1285SOL    HW213825   1.651   8.321   0.767
 1286SOL     OW13826   2.519   8.004   0.999
 1286SOL    HW113827   2.532   7.979   0.903
 1286SOL    HW213828   2.440   7.956   1.036
 1287SOL     OW13829   2.405   9.471   1.234
 1287SOL    HW113830   2.461   9.525   1.171
 1287SOL    HW213831   2.354   9.532   1.294
 1288SOL     OW13832   2.569   0.639   1.706
 1288SOL    HW113833   2.490   0.695   1.681
 1288SOL    HW213834   2.540   0.563   1.763
 1289SOL     OW13835   2.721   6.154   1.297
 1289SOL    HW113836   2.647   6.160   1.230
 1289SOL    HW213837   2.803   6.119   1.253
 1290SOL     OW13838   1.543   5.207   2.244
 1290SOL    HW113839   1.539   5.221   2.343
 1290SOL    HW213840   1.504   5.117   2.222
 1291SOL     OW13841   0.219   0.618   1.971
 1291SOL    HW113842   0.288   0.681   1.935
 1291SOL    HW213843   0.130   0.664   1.976
 1292SOL     OW13844   2.362   0.800   1.612
 1292SOL    HW113845   2.434   0.866   1.592
 1292SOL    HW213846   2.284   0.816   1.551
 1293SOL     OW13847   1.717   8.337   1.687
 1293SOL    HW113848   1.773   8.305   1.763
 1293SOL    HW213849   1.638   8.388   1.722
 1294SOL     OW13850   0.148   9.588   0.556
 1294SOL    HW113851   0.124   9.494   0.580
 1294SOL    HW213852   0.068   9.632   0.515
 1295SOL     OW13853   1.275   1.320   1.090
 1295SOL    HW113854   1.316   1.251   1.032
 1295SOL    HW213855   1.197   1.281   1.139
 1296SOL     OW13856   1.245   3.348   1.253
 1296SOL    HW113857   1.251   3.388   1.161
 1296SOL    HW213858   1.186   3.267   1.250
 1297SOL     OW13859   3.683   0.657   0.604
 1297SOL    HW113860   3.611   0.689   0.666
 1297SOL    HW213861   3.753   0.609   0.657
 1298SOL     OW13862   2.872   3.355   1.913
 1298SOL    HW113863   2.952   3.411   1.934
 1298SOL    HW213864   2.857   3.289   1.987
 1299SOL     OW13865   1.126   4.161   1.324
 1299SOL    HW113866   1.047   4.138   1.380
 1299SOL    HW213867   1.124   4.259   1.301
 1300SOL     OW13868   1.319   4.979   0.801
 1300SOL    HW113869   1.349   4.983   0.706
 1300SOL    HW213870   1.380   4.920   0.854
 1301SOL     OW13871   4.861   2.734   1.226
 1301SOL    HW113872   4.777   2.786   1.240
 1301SOL    HW213873   4.903   2.714   1.315
 1302SOL     OW13874   4.975   4.043   0.777
 1302SOL    HW113875   4.900   4.072   0.718
 1302SOL    HW213876   5.049   4.110   0.774
 1303SOL     OW13877   2.565   9.589   0.460
 1303SOL    HW113878   2.653   9.547   0.484
 1303SOL    HW213879   2.572   9.688   0.470
 1304SOL     OW13880   3.581   1.507   1.755
 1304SOL    HW113881   3.652   1.442   1.728
 1304SOL    HW213882   3.550   1.558   1.676
 1305SOL     OW13883   4.081   1.962   1.619
 1305SOL    HW113884   4.154   1.973   1.686
 1305SOL    HW213885   4.120   1.963   1.527
 1306SOL     OW13886   8.637   2.607   1.321
 1306SOL    HW113887   8.704   2.538   1.292
 1306SOL    HW213888   8.545   2.570   1.311
 1307SOL     OW13889   3.440   1.671   2.265
 1307SOL    HW113890   3.413   1.575   2.269
 1307SOL    HW213891   3.374   1.721   2.208
 1308SOL     OW13892   0.406   0.096   1.605
 1308SOL    HW113893   0.361   0.052   1.527
 1308SOL    HW213894   0.491   0.048   1.626
 1309SOL     OW13895   0.869   4.749   0.831
 1309SOL    HW113896   0.950   4.772   0.778
 1309SOL    HW213897   0.806   4.827   0.831
 1310SOL     OW13898   1.565   7.013   2.096
 1310SOL    HW113899   1.490   7.066   2.135
 1310SOL    HW213900   1.652   7.057   2.117
 1311SOL     OW13901   1.053   0.213   0.882
 1311SOL    HW113902   1.060   0.310   0.905
 1311SOL    HW213903   1.126   0.162   0.927
 1312SOL     OW13904   2.780   9.257   0.985
 1312SOL    HW113905   2.756   9.270   0.889
 1312SOL    HW213906   2.862   9.310   1.007
 1313SOL     OW13907   1.377   1.756   0.905
 1313SOL    HW113908   1.338   1.848   0.908
 1313SOL    HW213909   1.308   1.690   0.937
 1314SOL     OW13910   3.031   0.003   1.906
 1314SOL    HW113911   2.989   9.922   1.864
 1314SOL    HW213912   3.092   9.974   1.980
 1315SOL     OW13913   3.230   2.905   1.545
 1315SOL    HW113914   3.209   3.003   1.549
 1315SOL    HW213915   3.311   2.891   1.488
 1316SOL     OW13916   1.006   7.476   1.678
 1316SOL    HW113917   0.963   7.487   1.589
 1316SOL    HW213918   1.031   7.380   1.692
 1317SOL     OW13919   3.970   3.738   0.919
 1317SOL    HW113920   4.012   3.828   0.904
 1317SOL    HW213921   3.880   3.735   0.875
 1318SOL     OW13922   1.142   3.496   1.469
 1318SOL    HW113923   1.203   3.483   1.547
 1318SOL    HW213924   1.182   3.454   1.388
 1319SOL     OW13925   4.416   0.677   1.501
 1319SOL    HW113926   4.405   0.602   1.566
 1319SOL    HW213927   4.327   0.702   1.464
 1320SOL     OW13928   0.666   3.948   0.857
 1320SOL    HW113929   0.701   3.874   0.915
 1320SOL    HW213930   0.741   4.009   0.833
 1321SOL     OW13931   3.000   3.993   1.901
 1321SOL    HW113932   2.918   4.017   1.848
 1321SOL    HW213933   2.985   3.904   1.946
 1322SOL     OW13934   9.411   4.889   0.516
 1322SOL    HW113935   9.510   4.892   0.499
 1322SOL    HW213936   9.393   4.828   0.593
 1323SOL     OW13937   0.786   9.377   1.798
 1323SOL    HW113938   0.729   9.345   1.721
 1323SOL    HW213939   0.882   9.358   1.778
 1324SOL     OW13940   3.312   0.864   0.531
 1324SOL    HW113941   3.247   0.940   0.535
 1324SOL    HW213942   3.374   0.877   0.454
 1325SOL     OW13943   2.584   9.857   0.549
 1325SOL    HW113944   2.496   9.856   0.596
 1325SOL    HW213945   2.653   9.814   0.608
 1326SOL     OW13946   2.132   8.836   1.474
 1326SOL    HW113947   2.168   8.887   1.396
 1326SOL    HW213948   2.143   8.738   1.457
 1327SOL     OW13949   0.313   6.692   2.192
 1327SOL    HW113950   0.316   6.604   2.240
 1327SOL    HW213951   0.385   6.752   2.229
 1328SOL     OW13952   0.413   9.464   1.279
 1328SOL    HW113953   0.506   9.440   1.254
 1328SOL    HW213954   0.411   9.556   1.317
 1329SOL     OW13955   2.155   4.336   1.592
 1329SOL    HW113956   2.225   4.282   1.544
 1329SOL    HW213957   2.097   4.382   1.525
 1330SOL     OW13958   9.626   1.778   0.803
 1330SOL    HW113959   9.594   1.684   0.792
 1330SOL    HW213960   9.685   1.784   0.884
 1331SOL     OW13961   4.170   4.338   1.043
 1331SOL    HW113962   4.169   4.261   1.106
 1331SOL    HW213963   4.086   4.392   1.055
 1332SOL     OW13964   9.964   1.184   1.314
 1332SOL    HW113965   0.034   1.251   1.338
 1332SOL    HW213966   0.008   1.101   1.279
 1333SOL     OW13967   1.205   0.748   1.190
 1333SOL    HW113968   1.231   0.844   1.182
 1333SOL    HW213969   1.126   0.730   1.132
 1334SOL     OW13970   1.940   6.607   1.104
 1334SOL    HW113971   2.026   6.586   1.151
 1334SOL    HW213972   1.945   6.576   1.009
 1335SOL     OW13973   3.346   4.533   0.506
 1335SOL    HW113974   3.363   4.596   0.582
 1335SOL    HW213975   3.433   4.494   0.475
 1336SOL     OW13976   0.857   7.789   1.443
 1336SOL    HW113977   0.897   7.865   1.393
 1336SOL    HW213978   0.905   7.704   1.421
 1337SOL     OW13979   1.824   9.205   1.189
 1337SOL    HW113980   1.770   9.269   1.243
 1337SOL    HW213981   1.874   9.254   1.118
 1338SOL     OW13982   9.512   1.807   1.454
 1338SOL    HW113983   9.545   1.794   1.360
 1338SOL    HW213984   9.558   1.742   1.514
 1339SOL     OW13985   1.890   8.437   1.490
 1339SOL    HW113986   1.831   8.403   1.564
 1339SOL    HW213987   1.855   8.525   1.458
 1340SOL     OW13988   1.746   9.997   1.971
 1340SOL    HW113989   1.832   0.003   1.920
 1340SOL    HW213990   1.749   9.918   2.032
 1341SOL     OW13991   1.029   4.861   1.027
 1341SOL    HW113992   0.978   4.797   0.969
 1341SOL    HW213993   1.019   4.954   0.991
 1342SOL     OW13994   4.333   0.200   0.944
 1342SOL    HW113995   4.291   0.129   1.001
 1342SOL    HW213996   4.347   0.165   0.852
 1343SOL     OW13997   1.673   0.783   0.405
 1343SOL    HW113998   1.771   0.776   0.423
 1343SOL    HW213999   1.636   0.693   0.386
 1344SOL     OW14000   3.919   2.370   0.942
 1344SOL    HW114001   3.954   2.276   0.936
 1344SOL    HW214002   3.987   2.428   0.987
 1345SOL     OW14003   4.457   2.007   0.812
 1345SOL    HW114004   4.542   2.054   0.836
 1345SOL    HW214005   4.440   2.017   0.713
 1346SOL     OW14006   2.330   2.527   0.709
 1346SOL    HW114007   2.269   2.456   0.747
 1346SOL    HW214008   2.425   2.500   0.723
 1347SOL     OW14009   0.440   6.744   1.731
 1347SOL    HW114010   0.422   6.819   1.667
 1347SOL    HW214011   0.377   6.750   1.808
 1348SOL     OW14012   0.949   3.846   1.632
 1348SOL    HW114013   1.044   3.834   1.660
 1348SOL    HW214014   0.889   3.793   1.692
 1349SOL     OW14015   1.781   4.586   1.816
 1349SOL    HW114016   1.757   4.504   1.869
 1349SOL    HW214017   1.876   4.579   1.786
 1350SOL     OW14018   1.336   4.596   1.257
 1350SOL    HW114019   1.318   4.682   1.208
 1350SOL    HW214020   1.258   4.534   1.246
 1351SOL     OW14021   1.986   9.994   1.836
 1351SOL    HW114022   2.007   9.898   1.817
 1351SOL    HW214023   2.008   0.049   1.755
 1352SOL     OW14024   3.203   9.279   2.250
 1352SOL    HW114025   3.186   9.181   2.237
 1352SOL    HW214026   3.116   9.329   2.252
 1353SOL     OW14027   1.557   0.034   1.766
 1353SOL    HW114028   1.614   0.026   1.848
 1353SOL    HW214029   1.611   0.011   1.685
 1354SOL     OW14030   0.130   3.396   0.516
 1354SOL    HW114031   0.053   3.417   0.455
 1354SOL    HW214032   0.185   3.479   0.530
 1355SOL     OW14033   2.466   9.343   0.768
 1355SOL    HW114034   2.451   9.254   0.812
 1355SOL    HW214035   2.379   9.390   0.756
 1356SOL     OW14036   1.466   0.312   1.071
 1356SOL    HW114037   1.411   0.369   1.010
 1356SOL    HW214038   1.406   0.258   1.130
 1357SOL     OW14039   9.786   5.823   1.771
 1357SOL    HW114040   9.735   5.756   1.825
 1357SOL    HW214041   9.840   5.775   1.701
 1358SOL     OW14042   2.468   1.009   1.162
 1358SOL    HW114043   2.495   1.104   1.146
 1358SOL    HW214044   2.539   0.962   1.213
 1359SOL     OW14045   2.508   6.372   0.642
 1359SOL    HW114046   2.432   6.417   0.594
 1359SOL    HW214047   2.554   6.309   0.580
 1360SOL     OW14048   4.359   3.559   0.485
 1360SOL    HW114049   4.456   3.569   0.461
 1360SOL    HW214050   4.306   3.547   0.402
 1361SOL     OW14051   2.204   6.425   1.857
 1361SOL    HW114052   2.270   6.467   1.919
 1361SOL    HW214053   2.114   6.466   1.871
 1362SOL     OW14054   3.910   9.985   1.621
 1362SOL    HW114055   3.831   9.981   1.560
 1362SOL    HW214056   3.938   0.080   1.634
 1363SOL     OW14057   1.540   1.688   1.597
 1363SOL    HW114058   1.468   1.732   1.543
 1363SOL    HW214059   1.627   1.692   1.546
 1364SOL     OW14060   1.190   7.824   1.268
 1364SOL    HW114061   1.204   7.736   1.314
 1364SOL    HW214062   1.272   7.881   1.280
 1365SOL     OW14063   0.304   0.436   1.000
 1365SOL    HW114064   0.350   0.349   1.015
 1365SOL    HW214065   0.334   0.502   1.070
 1366SOL     OW14066   2.645   7.108   0.544
 1366SOL    HW114067   2.567   7.073   0.493
 1366SOL    HW214068   2.617   7.188   0.597
 1367SOL     OW14069   0.256   4.724   1.538
 1367SOL    HW114070   0.293   4.790   1.473
 1367SOL    HW214071   0.297   4.634   1.521
 1368SOL     OW14072   0.665   7.257   1.533
 1368SOL    HW114073   0.681   7.285   1.438
 1368SOL    HW214074   0.664   7.339   1.591
 1369SOL     OW14075   0.521   8.048   0.536
 1369SOL    HW114076   0.466   7.985   0.591
 1369SOL    HW214077   0.575   7.996   0.470
 1370SOL     OW14078   2.987   8.360   1.684
 1370SOL    HW114079   2.930   8.437   1.714
 1370SOL    HW214080   3.074   8.361   1.733
 1371SOL     OW14081   0.928   4.751   1.259
 1371SOL    HW114082   0.927   4.816   1.335
 1371SOL    HW214083   0.972   4.793   1.180
 1372SOL     OW14084   1.442   1.226   1.469
 1372SOL    HW114085   1.459   1.180   1.556
 1372SOL    HW214086   1.464   1.165   1.393
 1373SOL     OW14087   3.234   0.113   1.564
 1373SOL    HW114088   3.213   0.024   1.604
 1373SOL    HW214089   3.333   0.128   1.568
 1374SOL     OW14090   2.469   3.320   1.082
 1374SOL    HW114091   2.493   3.324   1.179
 1374SOL    HW214092   2.474   3.225   1.050
 1375SOL     OW14093   0.150   6.252   2.273
 1375SOL    HW114094   0.094   6.212   2.346
 1375SOL    HW214095   0.213   6.183   2.238
 1376SOL     OW14096   2.061   6.137   0.621
 1376SOL    HW114097   2.146   6.100   0.659
 1376SOL    HW214098   1.986   6.073   0.638
 1377SOL     OW14099   9.006   1.877   1.479
 1377SOL    HW114100   9.080   1.818   1.447
 1377SOL    HW214101   9.038   1.933   1.555
 1378SOL     OW14102   8.858   2.003   1.293
 1378SOL    HW114103   8.823   2.086   1.337
 1378SOL    HW214104   8.917   1.954   1.357
 1379SOL     OW14105   3.919   4.554   0.802
 1379SOL    HW114106   3.922   4.518   0.895
 1379SOL    HW214107   3.931   4.654   0.804
 1380SOL     OW14108   0.816   2.318   1.546
 1380SOL    HW114109   0.877   2.354   1.617
 1380SOL    HW214110   0.725   2.361   1.555
 1381SOL     OW14111   0.975   5.974   1.769
 1381SOL    HW114112   0.899   5.981   1.834
 1381SOL    HW214113   1.060   5.955   1.819
 1382SOL     OW14114   2.537   8.852   1.983
 1382SOL    HW114115   2.475   8.775   1.995
 1382SOL    HW214116   2.545   8.874   1.886
 1383SOL     OW14117   2.560   1.259   1.111
 1383SOL    HW114118   2.541   1.311   1.028
 1383SOL    HW214119   2.657   1.233   1.112
 1384SOL     OW14120   3.119   1.072   0.534
 1384SOL    HW114121   3.047   1.115   0.479
 1384SOL    HW214122   3.078   1.033   0.617
 1385SOL     OW14123   0.349   0.677   0.602
 1385SOL    HW114124   0.278   0.684   0.532
 1385SOL    HW214125   0.356   0.583   0.634
 1386SOL     OW14126   1.430   1.829   1.805
 1386SOL    HW114127   1.466   1.774   1.730
 1386SOL    HW214128   1.330   1.819   1.808
 1387SOL     OW14129   2.756   5.077   1.920
 1387SOL    HW114130   2.835   5.138   1.910
 1387SOL    HW214131   2.678   5.130   1.954
 1388SOL     OW14132   2.439   0.177   1.567
 1388SOL    HW114133   2.387   0.201   1.648
 1388SOL    HW214134   2.535   0.202   1.581
 1389SOL     OW14135   3.182   8.284   1.482
 1389SOL    HW114136   3.108   8.320   1.539
 1389SOL    HW214137   3.270   8.316   1.517
 1390SOL     OW14138   2.056   8.124   2.172
 1390SOL    HW114139   2.140   8.159   2.132
 1390SOL    HW214140   1.987   8.196   2.173
 1391SOL     OW14141   3.291   7.497   0.714
 1391SOL    HW114142   3.296   7.400   0.689
 1391SOL    HW214143   3.378   7.526   0.754
 1392SOL     OW14144   2.817   7.401   0.737
 1392SOL    HW114145   2.725   7.369   0.714
 1392SOL    HW214146   2.867   7.422   0.653
 1393SOL     OW14147   2.689   6.735   2.001
 1393SOL    HW114148   2.655   6.641   1.992
 1393SOL    HW214149   2.649   6.792   1.929
 1394SOL     OW14150   1.885   5.054   1.758
 1394SOL    HW114151   1.826   4.988   1.805
 1394SOL    HW214152   1.979   5.042   1.787
 1395SOL     OW14153   3.374   9.168   1.899
 1395SOL    HW114154   3.451   9.122   1.855
 1395SOL    HW214155   3.405   9.208   1.986
 1396SOL     OW14156   9.553   3.708   0.489
 1396SOL    HW114157   9.475   3.703   0.552
 1396SOL    HW214158   9.588   3.616   0.473
 1397SOL     OW14159   9.982   5.963   1.489
 1397SOL    HW114160   9.952   5.870   1.512
 1397SOL    HW214161   9.908   6.028   1.509
 1398SOL     OW14162   3.464   0.330   1.952
 1398SOL    HW114163   3.460   0.358   1.856
 1398SOL    HW214164   3.479   0.410   2.010
 1399SOL     OW14165   4.745   1.688   2.053
 1399SOL    HW114166   4.836   1.686   2.095
 1399SOL    HW214167   4.713   1.783   2.048
 1400SOL     OW14168   0.600   2.280   1.096
 1400SOL    HW114169   0.569   2.283   1.001
 1400SOL    HW214170   0.680   2.220   1.104
 1401SOL     OW14171   2.769   8.412   0.966
 1401SOL    HW114172   2.797   8.389   0.873
 1401SOL    HW214173   2.679   8.372   0.984
 1402SOL     OW14174   5.073   2.419   0.672
 1402SOL    HW114175   5.028   2.375   0.595
 1402SOL    HW214176   5.081   2.517   0.655
 1403SOL     OW14177   4.573   3.767   1.911
 1403SOL    HW114178   4.668   3.735   1.903
 1403SOL    HW214179   4.510   3.692   1.892
 1404SOL     OW14180   2.034   7.056   2.248
 1404SOL    HW114181   2.107   7.118   2.220
 1404SOL    HW214182   2.009   7.074   2.343
 1405SOL     OW14183   0.840   1.318   0.927
 1405SOL    HW114184   0.755   1.290   0.881
 1405SOL    HW214185   0.824   1.321   1.025
 1406SOL     OW14186   0.000   4.068   1.265
 1406SOL    HW114187   9.986   3.978   1.223
 1406SOL    HW214188   9.990   4.138   1.195
 1407SOL     OW14189   2.624   6.456   1.984
 1407SOL    HW114190   2.630   6.361   2.014
 1407SOL    HW214191   2.675   6.468   1.899
 1408SOL     OW14192   0.099   0.972   1.213
 1408SOL    HW114193   0.054   0.883   1.206
 1408SOL    HW214194   0.139   0.997   1.125
 1409SOL     OW14195   1.146   9.617   1.656
 1409SOL    HW114196   1.131   9.654   1.747
 1409SOL    HW214197   1.238   9.580   1.649
 1410SOL     OW14198   3.274   3.308   1.994
 1410SOL    HW114199   3.344   3.362   2.041
 1410SOL    HW214200   3.307   3.282   1.903
 1411SOL     OW14201   1.924   9.354   2.188
 1411SOL    HW114202   1.899   9.261   2.161
 1411SOL    HW214203   1.842   9.411   2.194
 1412SOL     OW14204   1.640   5.847   1.743
 1412SOL    HW114205   1.583   5.765   1.741
 1412SOL    HW214206   1.729   5.827   1.701
 1413SOL     OW14207   1.966   6.551   1.949
 1413SOL    HW114208   1.970   6.628   2.011
 1413SOL    HW214209   1.899   6.570   1.877
 1414SOL     OW14210   3.462   1.613   0.623
 1414SOL    HW114211   3.442   1.598   0.720
 1414SOL    HW214212   3.461   1.525   0.575
 1415SOL     OW14213   3.558   7.997   0.638
 1415SOL    HW114214   3.465   8.024   0.663
 1415SOL    HW214215   3.571   8.006   0.540
 1416SOL     OW14216   2.486   2.759   1.145
 1416SOL    HW114217   2.554   2.693   1.113
 1416SOL    HW214218   2.410   2.763   1.080
 1417SOL     OW14219   1.561   9.976   1.180
 1417SOL    HW114220   1.582   0.007   1.087
 1417SOL    HW214221   1.606   0.037   1.245
 1418SOL     OW14222   2.632   6.179   0.485
 1418SOL    HW114223   2.728   6.151   0.487
 1418SOL    HW214224   2.595   6.166   0.392
 1419SOL     OW14225   3.036   7.019   1.981
 1419SOL    HW114226   3.013   6.923   1.971
 1419SOL    HW214227   3.026   7.046   2.077
 1420SOL     OW14228   4.309   4.322   0.639
 1420SOL    HW114229   4.235   4.285   0.695
 1420SOL    HW214230   4.271   4.377   0.565
 1421SOL     OW14231   2.281   6.036   1.557
 1421SOL    HW114232   2.308   6.015   1.462
 1421SOL    HW214233   2.317   6.125   1.583
 1422SOL     OW14234   2.641   3.037   2.181
 1422SOL    HW114235   2.668   2.946   2.150
 1422SOL    HW214236   2.548   3.033   2.218
 1423SOL     OW14237   1.555   9.056   0.426
 1423SOL    HW114238   1.473   9.113   0.434
 1423SOL    HW214239   1.592   9.063   0.334
 1424SOL     OW14240   0.898   4.612   1.821
 1424SOL    HW114241   0.804   4.642   1.804
 1424SOL    HW214242   0.917   4.529   1.770
 1425SOL     OW14243   1.915   6.279   1.988
 1425SOL    HW114244   1.894   6.241   1.898
 1425SOL    HW214245   1.930   6.377   1.980
 1426SOL     OW14246   2.417   1.945   1.916
 1426SOL    HW114247   2.325   1.978   1.939
 1426SOL    HW214248   2.467   1.922   1.999
 1427SOL     OW14249   0.905   0.092   0.685
 1427SOL    HW114250   0.965   0.135   0.752
 1427SOL    HW214251   0.864   0.162   0.627
 1428SOL     OW14252   2.906   4.624   0.484
 1428SOL    HW114253   2.814   4.590   0.504
 1428SOL    HW214254   2.969   4.547   0.475
 1429SOL     OW14255   1.713   0.502   0.626
 1429SOL    HW114256   1.783   0.515   0.695
 1429SOL    HW214257   1.623   0.510   0.667
 1430SOL     OW14258   1.413   9.544   1.661
 1430SOL    HW114259   1.446   9.459   1.620
 1430SOL    HW214260   1.447   9.622   1.608
 1431SOL     OW14261   3.499   1.876   1.713
 1431SOL    HW114262   3.582   1.873   1.770
 1431SOL    HW214263   3.436   1.944   1.749
 1432SOL     OW14264   0.426   0.816   1.379
 1432SOL    HW114265   0.366   0.890   1.408
 1432SOL    HW214266   0.520   0.850   1.373
 1433SOL     OW14267   9.610   3.573   1.574
 1433SOL    HW114268   9.601   3.530   1.484
 1433SOL    HW214269   9.652   3.663   1.564
 1434SOL     OW14270   0.455   7.675   0.951
 1434SOL    HW114271   0.386   7.675   0.879
 1434SOL    HW214272   0.503   7.762   0.951
 1435SOL     OW14273   3.055   2.530   2.103
 1435SOL    HW114274   3.138   2.537   2.158
 1435SOL    HW214275   3.048   2.612   2.045
 1436SOL     OW14276   2.541   9.611   0.809
 1436SOL    HW114277   2.525   9.515   0.787
 1436SOL    HW214278   2.627   9.641   0.769
 1437SOL     OW14279   1.583   7.917   2.304
 1437SOL    HW114280   1.660   7.854   2.295
 1437SOL    HW214281   1.533   7.897   2.388
 1438SOL     OW14282   1.194   6.953   1.568
 1438SOL    HW114283   1.251   6.989   1.494
 1438SOL    HW214284   1.149   7.028   1.616
 1439SOL     OW14285   0.731   1.187   2.129
 1439SOL    HW114286   0.785   1.142   2.200
 1439SOL    HW214287   0.730   1.286   2.145
 1440SOL     OW14288   3.186   0.060   0.423
 1440SOL    HW114289   3.206   0.141   0.367
 1440SOL    HW214290   3.268   0.034   0.473
 1441SOL     OW14291   3.600   5.174   2.055
 1441SOL    HW114292   3.528   5.105   2.061
 1441SOL    HW214293   3.682   5.142   2.103
 1442SOL     OW14294   2.264   6.779   0.766
 1442SOL    HW114295   2.252   6.790   0.667
 1442SOL    HW214296   2.332   6.709   0.784
 1443SOL     OW14297   1.851   8.310   2.161
 1443SOL    HW114298   1.765   8.273   2.197
 1443SOL    HW214299   1.861   8.405   2.191
 1444SOL     OW14300   5.172   3.515   2.217
 1444SOL    HW114301   5.119   3.597   2.238
 1444SOL    HW214302   5.115   3.434   2.226
 1445SOL     OW14303   0.170   4.401   1.022
 1445SOL    HW114304   0.155   4.494   1.054
 1445SOL    HW214305   0.181   4.401   0.923
 1446SOL     OW14306   3.570   4.496   1.269
 1446SOL    HW114307   3.614   4.457   1.350
 1446SOL    HW214308   3.638   4.545   1.214
 1447SOL     OW14309   1.516   4.416   1.162
 1447SOL    HW114310   1.445   4.477   1.198
 1447SOL    HW214311   1.536   4.345   1.229
 1448SOL     OW14312   2.098   7.375   2.148
 1448SOL    HW114313   2.064   7.446   2.086
 1448SOL    HW214314   2.133   7.298   2.094
 1449SOL     OW14315   4.131   8.748   0.871
 1449SOL    HW114316   4.164   8.803   0.947
 1449SOL    HW214317   4.052   8.794   0.829
 1450SOL     OW14318   1.832   3.666   0.642
 1450SOL    HW114319   1.892   3.591   0.616
 1450SOL    HW214320   1.762   3.679   0.571
 1451SOL     OW14321   2.035   2.943   0.643
 1451SOL    HW114322   2.025   2.975   0.737
 1451SOL    HW214323   2.083   3.012   0.590
 1452SOL     OW14324   2.059   3.530   2.220
 1452SOL    HW114325   1.967   3.524   2.260
 1452SOL    HW214326   2.083   3.626   2.206
 1453SOL     OW14327   9.346   5.154   0.466
 1453SOL    HW114328   9.288   5.156   0.385
 1453SOL    HW214329   9.363   5.059   0.493
 1454SOL     OW14330   3.515   4.116   1.291
 1454SOL    HW114331   3.504   4.149   1.385
 1454SOL    HW214332   3.465   4.176   1.228
 1455SOL     OW14333   9.677   3.597   0.765
 1455SOL    HW114334   9.643   3.688   0.791
 1455SOL    HW214335   9.750   3.570   0.829
 1456SOL     OW14336   1.364   4.074   1.420
 1456SOL    HW114337   1.436   4.138   1.394
 1456SOL    HW214338   1.276   4.107   1.386
 1457SOL     OW14339   3.079   4.750   1.776
 1457SOL    HW114340   3.131   4.750   1.691
 1457SOL    HW214341   2.990   4.707   1.761
 1458SOL     OW14342   1.025   2.492   0.602
 1458SOL    HW114343   1.071   2.473   0.689
 1458SOL    HW214344   1.088   2.542   0.542
 1459SOL     OW14345   0.263   4.059   1.974
 1459SOL    HW114346   0.234   4.121   1.901
 1459SOL    HW214347   0.316   3.984   1.934
 1460SOL     OW14348   0.436   1.745   1.662
 1460SOL    HW114349   0.498   1.678   1.621
 1460SOL    HW214350   0.404   1.712   1.750
 1461SOL     OW14351   4.615   2.366   2.267
 1461SOL    HW114352   4.694   2.378   2.208
 1461SOL    HW214353   4.642   2.377   2.363
 1462SOL     OW14354   2.127   4.073   0.820
 1462SOL    HW114355   2.067   3.994   0.817
 1462SOL    HW214356   2.075   4.154   0.845
 1463SOL     OW14357   2.998   4.251   2.006
 1463SOL    HW114358   2.944   4.254   2.090
 1463SOL    HW214359   2.996   4.158   1.969
 1464SOL     OW14360   1.964   8.504   0.409
 1464SOL    HW114361   2.023   8.505   0.490
 1464SOL    HW214362   1.919   8.593   0.399
 1465SOL     OW14363   2.189   6.243   0.941
 1465SOL    HW114364   2.111   6.188   0.970
 1465SOL    HW214365   2.161   6.303   0.865
 1466SOL     OW14366   3.483   4.262   1.898
 1466SOL    HW114367   3.481   4.163   1.882
 1466SOL    HW214368   3.391   4.295   1.918
 1467SOL     OW14369   1.903   5.164   0.359
 1467SOL    HW114370   1.955   5.208   0.433
 1467SOL    HW214371   1.941   5.192   0.271
 1468SOL     OW14372   3.069   4.714   0.694
 1468SOL    HW114373   3.115   4.802   0.684
 1468SOL    HW214374   3.016   4.693   0.612
 1469SOL     OW14375   1.263   4.999   1.334
 1469SOL    HW114376   1.354   5.029   1.364
 1469SOL    HW214377   1.220   4.947   1.407
 1470SOL     OW14378   0.395   2.271   1.285
 1470SOL    HW114379   0.463   2.271   1.212
 1470SOL    HW214380   0.352   2.181   1.291
 1471SOL     OW14381   0.673   8.165   1.349
 1471SOL    HW114382   0.721   8.147   1.435
 1471SOL    HW214383   0.596   8.227   1.366
 1472SOL     OW14384   4.610   4.977   1.503
 1472SOL    HW114385   4.546   4.999   1.577
 1472SOL    HW214386   4.603   5.046   1.431
 1473SOL     OW14387   3.738   1.905   1.865
 1473SOL    HW114388   3.802   1.858   1.804
 1473SOL    HW214389   3.784   1.981   1.910
 1474SOL     OW14390   0.434   2.425   2.080
 1474SOL    HW114391   0.418   2.521   2.103
 1474SOL    HW214392   0.369   2.398   2.009
 1475SOL     OW14393   9.208   2.402   0.872
 1475SOL    HW114394   9.261   2.357   0.944
 1475SOL    HW214395   9.110   2.386   0.887
 1476SOL     OW14396   0.926   9.007   2.294
 1476SOL    HW114397   0.843   9.058   2.274
 1476SOL    HW214398   0.910   8.910   2.276
 1477SOL     OW14399   9.106   5.932   1.291
 1477SOL    HW114400   9.192   5.916   1.243
 1477SOL    HW214401   9.051   5.997   1.239
 1478SOL     OW14402   2.240   9.485   0.727
 1478SOL    HW114403   2.257   9.496   0.629
 1478SOL    HW214404   2.161   9.539   0.754
 1479SOL     OW14405   2.015   2.110   0.704
 1479SOL    HW114406   1.924   2.083   0.736
 1479SOL    HW214407   2.064   2.028   0.672
 1480SOL     OW14408   3.236   9.859   1.666
 1480SOL    HW114409   3.223   9.760   1.660
 1480SOL    HW214410   3.294   9.880   1.746
 1481SOL     OW14411   4.865   3.306   1.945
 1481SOL    HW114412   4.774   3.328   1.910
 1481SOL    HW214413   4.906   3.235   1.888
 1482SOL     OW14414   1.044   7.388   1.034
 1482SOL    HW114415   1.121   7.453   1.034
 1482SOL    HW214416   1.028   7.357   0.940
 1483SOL     OW14417   0.188   1.010   0.953
 1483SOL    HW114418   0.242   0.934   0.917
 1483SOL    HW214419   0.126   1.043   0.882
 1484SOL     OW14420   3.920   3.644   1.963
 1484SOL    HW114421   3.859   3.598   1.897
 1484SOL    HW214422   3.924   3.741   1.942
 1485SOL     OW14423   2.337   6.761   1.159
 1485SOL    HW114424   2.271   6.692   1.190
 1485SOL    HW214425   2.290   6.848   1.143
 1486SOL     OW14426   1.185   2.059   0.683
 1486SOL    HW114427   1.218   2.049   0.777
 1486SOL    HW214428   1.212   1.979   0.630
 1487SOL     OW14429   3.514   1.137   0.851
 1487SOL    HW114430   3.581   1.091   0.910
 1487SOL    HW214431   3.427   1.146   0.900
 1488SOL     OW14432   1.650   2.365   1.480
 1488SOL    HW114433   1.672   2.352   1.383
 1488SOL    HW214434   1.573   2.306   1.504
 1489SOL     OW14435   2.973   3.759   1.483
 1489SOL    HW114436   2.923   3.704   1.549
 1489SOL    HW214437   2.941   3.854   1.487
 1490SOL     OW14438   3.265   2.315   1.870
 1490SOL    HW114439   3.293   2.320   1.966
 1490SOL    HW214440   3.258   2.408   1.833
 1491SOL     OW14441   3.968   4.404   1.478
 1491SOL    HW114442   4.055   4.428   1.436
 1491SOL    HW214443   3.973   4.420   1.577
 1492SOL     OW14444   9.471   4.224   1.037
 1492SOL    HW114445   9.441   4.285   1.110
 1492SOL    HW214446   9.393   4.203   0.978
 1493SOL     OW14447   3.815   1.985   1.124
 1493SOL    HW114448   3.915   1.976   1.116
 1493SOL    HW214449   3.787   2.074   1.090
 1494SOL     OW14450   0.981   6.288   0.460
 1494SOL    HW114451   0.892   6.312   0.498
 1494SOL    HW214452   0.990   6.189   0.456
 1495SOL     OW14453   0.925   2.303   0.939
 1495SOL    HW114454   0.877   2.237   0.997
 1495SOL    HW214455   0.927   2.268   0.845
 1496SOL     OW14456   0.073   6.400   1.667
 1496SOL    HW114457   0.125   6.445   1.740
 1496SOL    HW214458   0.017   6.327   1.706
 1497SOL     OW14459   3.061   1.889   1.016
 1497SOL    HW114460   3.113   1.969   0.987
 1497SOL    HW214461   3.036   1.835   0.936
 1498SOL     OW14462   3.263   1.664   1.833
 1498SOL    HW114463   3.244   1.566   1.842
 1498SOL    HW214464   3.350   1.677   1.786
 1499SOL     OW14465   4.295   2.296   1.084
 1499SOL    HW114466   4.307   2.273   1.181
 1499SOL    HW214467   4.256   2.388   1.076
 1500SOL     OW14468   1.392   8.884   1.009
 1500SOL    HW114469   1.375   8.877   1.108
 1500SOL    HW214470   1.363   8.974   0.977
 1501SOL     OW14471   2.139   9.173   0.607
 1501SOL    HW114472   2.098   9.259   0.575
 1501SOL    HW214473   2.147   9.176   0.707
 1502SOL     OW14474   9.992   6.613   0.965
 1502SOL    HW114475   9.954   6.538   0.910
 1502SOL    HW214476   0.006   6.693   0.906
 1503SOL     OW14477   1.925   3.120   1.304
 1503SOL    HW114478   1.950   3.066   1.223
 1503SOL    HW214479   1.981   3.203   1.307
 1504SOL     OW14480   5.355   3.216   0.293
 1504SOL    HW114481   5.441   3.207   0.244
 1504SOL    HW214482   5.279   3.198   0.231
 1505SOL     OW14483   1.302   8.261   0.403
 1505SOL    HW114484   1.323   8.166   0.427
 1505SOL    HW214485   1.363   8.291   0.330
 1506SOL     OW14486   3.777   1.684   1.461
 1506SOL    HW114487   3.683   1.663   1.488
 1506SOL    HW214488   3.782   1.777   1.425
 1507SOL     OW14489   4.181   8.551   1.734
 1507SOL    HW114490   4.117   8.475   1.739
 1507SOL    HW214491   4.235   8.544   1.650
 1508SOL     OW14492   0.931   9.982   1.101
 1508SOL    HW114493   0.992   9.939   1.034
 1508SOL    HW214494   0.973   0.066   1.135
 1509SOL     OW14495   2.770   4.056   1.776
 1509SOL    HW114496   2.713   4.134   1.800
 1509SOL    HW214497   2.711   3.977   1.757
 1510SOL     OW14498   1.093   7.193   1.692
 1510SOL    HW114499   1.184   7.228   1.670
 1510SOL    HW214500   1.092   7.160   1.786
 1511SOL     OW14501   0.401   4.491   1.479
 1511SOL    HW114502   0.382   4.447   1.391
 1511SOL    HW214503   0.494   4.528   1.477
 1512SOL     OW14504   2.195   3.348   1.753
 1512SOL    HW114505   2.266   3.345   1.682
 1512SOL    HW214506   2.226   3.404   1.830
 1513SOL     OW14507   2.404   2.656   1.775
 1513SOL    HW114508   2.381   2.592   1.701
 1513SOL    HW214509   2.487   2.625   1.820
 1514SOL     OW14510   4.895   3.141   1.382
 1514SOL    HW114511   4.852   3.074   1.444
 1514SOL    HW214512   4.829   3.213   1.360
 1515SOL     OW14513   2.020   0.017   2.307
 1515SOL    HW114514   2.072   0.059   2.232
 1515SOL    HW214515   2.013   9.918   2.291
 1516SOL     OW14516   1.819   9.037   1.832
 1516SOL    HW114517   1.776   8.949   1.853
 1516SOL    HW214518   1.879   9.026   1.752
 1517SOL     OW14519   0.168   5.546   0.440
 1517SOL    HW114520   0.258   5.567   0.478
 1517SOL    HW214521   0.129   5.468   0.488
 1518SOL     OW14522   9.144   2.619   1.835
 1518SOL    HW114523   9.222   2.626   1.898
 1518SOL    HW214524   9.084   2.697   1.848
 1519SOL     OW14525   0.440   9.719   1.383
 1519SOL    HW114526   0.378   9.794   1.407
 1519SOL    HW214527   0.467   9.670   1.465
 1520SOL     OW14528   3.153   0.650   2.264
 1520SOL    HW114529   3.190   0.739   2.237
 1520SOL    HW214530   3.055   0.648   2.244
 1521SOL     OW14531   3.908   3.256   1.036
 1521SOL    HW114532   3.959   3.340   1.024
 1521SOL    HW214533   3.829   3.273   1.095
 1522SOL     OW14534   4.137   0.389   1.011
 1522SOL    HW114535   4.133   0.463   0.944
 1522SOL    HW214536   4.206   0.323   0.983
 1523SOL     OW14537   1.706   3.517   0.837
 1523SOL    HW114538   1.741   3.428   0.808
 1523SOL    HW214539   1.744   3.589   0.778
 1524SOL     OW14540   3.507   9.552   2.099
 1524SOL    HW114541   3.491   9.572   2.003
 1524SOL    HW214542   3.596   9.589   2.127
 1525SOL     OW14543   9.164   4.786   0.420
 1525SOL    HW114544   9.159   4.692   0.455
 1525SOL    HW214545   9.252   4.826   0.447
 1526SOL     OW14546   0.370   9.777   1.109
 1526SOL    HW114547   0.395   9.715   1.035
 1526SOL    HW214548   0.404   9.742   1.196
 1527SOL     OW14549   4.300   5.148   1.476
 1527SOL    HW114550   4.300   5.239   1.516
 1527SOL    HW214551   4.313   5.079   1.548
 1528SOL     OW14552   3.714   4.792   1.403
 1528SOL    HW114553   3.664   4.759   1.483
 1528SOL    HW214554   3.742   4.887   1.419
 1529SOL     OW14555   0.583   3.655   1.983
 1529SOL    HW114556   0.576   3.724   2.055
 1529SOL    HW214557   0.520   3.580   2.003
 1530SOL     OW14558   2.924   0.687   1.746
 1530SOL    HW114559   2.904   0.592   1.720
 1530SOL    HW214560   3.021   0.705   1.736
 1531SOL     OW14561   1.169   0.798   1.458
 1531SOL    HW114562   1.180   0.771   1.362
 1531SOL    HW214563   1.257   0.828   1.494
 1532SOL     OW14564   4.625   3.968   2.104
 1532SOL    HW114565   4.578   3.904   2.043
 1532SOL    HW214566   4.720   3.976   2.076
 1533SOL     OW14567   4.443   2.343   0.849
 1533SOL    HW114568   4.521   2.281   0.844
 1533SOL    HW214569   4.388   2.319   0.929
 1534SOL     OW14570   1.366   8.686   1.498
 1534SOL    HW114571   1.417   8.675   1.583
 1534SOL    HW214572   1.268   8.678   1.516
 1535SOL     OW14573   2.316   2.193   1.570
 1535SOL    HW114574   2.229   2.152   1.596
 1535SOL    HW214575   2.383   2.181   1.644
 1536SOL     OW14576   2.914   4.353   0.706
 1536SOL    HW114577   2.975   4.378   0.631
 1536SOL    HW214578   2.968   4.326   0.786
 1537SOL     OW14579   0.656   2.069   1.986
 1537SOL    HW114580   0.564   2.037   2.010
 1537SOL    HW214581   0.669   2.162   2.022
 1538SOL     OW14582   2.486   9.924   1.699
 1538SOL    HW114583   2.468   0.009   1.648
 1538SOL    HW214584   2.570   9.882   1.665
 1539SOL     OW14585   1.425   8.443   0.586
 1539SOL    HW114586   1.398   8.536   0.561
 1539SOL    HW214587   1.368   8.377   0.537
 1540SOL     OW14588   1.605   6.763   2.210
 1540SOL    HW114589   1.554   6.697   2.155
 1540SOL    HW214590   1.593   6.855   2.172
 1541SOL     OW14591   1.490   9.763   1.513
 1541SOL    HW114592   1.555   9.837   1.530
 1541SOL    HW214593   1.503   9.729   1.419
 1542SOL     OW14594   3.854   0.268   0.803
 1542SOL    HW114595   3.859   0.285   0.901
 1542SOL    HW214596   3.874   0.352   0.752
 1543SOL     OW14597   3.071   1.869   1.810
 1543SOL    HW114598   2.982   1.826   1.797
 1543SOL    HW214599   3.142   1.798   1.813
 1544SOL     OW14600   2.396   7.511   1.364
 1544SOL    HW114601   2.441   7.452   1.296
 1544SOL    HW214602   2.332   7.457   1.418
 1545SOL     OW14603   0.967   4.082   2.148
 1545SOL    HW114604   0.869   4.100   2.152
 1545SOL    HW214605   0.983   3.988   2.117
 1546SOL     OW14606   2.579   1.936   1.404
 1546SOL    HW114607   2.593   2.035   1.398
 1546SOL    HW214608   2.484   1.915   1.384
 1547SOL     OW14609   2.503   8.945   1.226
 1547SOL    HW114610   2.479   8.852   1.196
 1547SOL    HW214611   2.588   8.973   1.182
 1548SOL     OW14612   1.539   3.740   2.019
 1548SOL    HW114613   1.556   3.826   2.067
 1548SOL    HW214614   1.500   3.760   1.929
 1549SOL     OW14615   1.372   6.268   2.245
 1549SOL    HW114616   1.448   6.330   2.265
 1549SOL    HW214617   1.406   6.192   2.190
 1550SOL     OW14618   9.672   5.072   2.164
 1550SOL    HW114619   9.652   5.169   2.179
 1550SOL    HW214620   9.607   5.017   2.215
 1551SOL     OW14621   1.447   2.449   1.181
 1551SOL    HW114622   1.434   2.467   1.084
 1551SOL    HW214623   1.449   2.536   1.231
 1552SOL     OW14624   2.567   4.221   1.593
 1552SOL    HW114625   2.480   4.223   1.545
 1552SOL    HW214626   2.553   4.243   1.689
 1553SOL     OW14627   1.083   9.831   0.923
 1553SOL    HW114628   1.142   9.884   0.862
 1553SOL    HW214629   1.015   9.782   0.870
 1554SOL     OW14630   0.767   9.580   1.404
 1554SOL    HW114631   0.813   9.652   1.351
 1554SOL    HW214632   0.727   9.513   1.342
 1555SOL     OW14633   1.465   7.742   1.410
 1555SOL    HW114634   1.453   7.666   1.347
 1555SOL    HW214635   1.530   7.807   1.372
 1556SOL     OW14636   1.666   5.077   0.491
 1556SOL    HW114637   1.715   5.148   0.441
 1556SOL    HW214638   1.718   4.992   0.490
 1557SOL     OW14639   0.265   6.619   1.001
 1557SOL    HW114640   0.166   6.611   0.989
 1557SOL    HW214641   0.289   6.715   1.015
 1558SOL     OW14642   2.758   1.413   2.049
 1558SOL    HW114643   2.726   1.377   1.961
 1558SOL    HW214644   2.858   1.404   2.054
 1559SOL     OW14645   0.165   5.654   1.216
 1559SOL    HW114646   0.239   5.721   1.221
 1559SOL    HW214647   0.153   5.612   1.306
 1560SOL     OW14648   4.463   1.624   0.649
 1560SOL    HW114649   4.507   1.534   0.638
 1560SOL    HW214650   4.368   1.617   0.621
 1561SOL     OW14651   3.495   9.870   2.344
 1561SOL    HW114652   3.425   9.810   2.305
 1561SOL    HW214653   3.518   9.839   2.436
 1562SOL     OW14654   3.367   8.872   2.200
 1562SOL    HW114655   3.464   8.893   2.214
 1562SOL    HW214656   3.359   8.787   2.148
 1563SOL     OW14657   2.935   3.587   1.267
 1563SOL    HW114658   2.851   3.615   1.220
 1563SOL    HW214659   2.958   3.656   1.336
 1564SOL     OW14660   1.734   9.532   1.869
 1564SOL    HW114661   1.640   9.564   1.882
 1564SOL    HW214662   1.769   9.565   1.782
 1565SOL     OW14663   4.266   2.004   1.818
 1565SOL    HW114664   4.259   1.938   1.893
 1565SOL    HW214665   4.215   2.087   1.842
 1566SOL     OW14666   3.110   0.931   0.958
 1566SOL    HW114667   3.164   0.847   0.943
 1566SOL    HW214668   3.054   0.949   0.876
 1567SOL     OW14669   1.166   7.486   2.205
 1567SOL    HW114670   1.091   7.488   2.140
 1567SOL    HW214671   1.244   7.537   2.167
 1568SOL     OW14672   2.905   9.659   1.366
 1568SOL    HW114673   2.874   9.640   1.273
 1568SOL    HW214674   2.850   9.607   1.431
 1569SOL     OW14675   2.533   1.140   0.728
 1569SOL    HW114676   2.512   1.060   0.783
 1569SOL    HW214677   2.471   1.144   0.650
 1570SOL     OW14678   5.312   3.498   0.833
 1570SOL    HW114679   5.252   3.474   0.909
 1570SOL    HW214680   5.330   3.596   0.834
 1571SOL     OW14681   2.763   3.609   1.931
 1571SOL    HW114682   2.687   3.632   1.992
 1571SOL    HW214683   2.778   3.511   1.933
 1572SOL     OW14684   2.683   3.871   0.947
 1572SOL    HW114685   2.659   3.934   1.020
 1572SOL    HW214686   2.761   3.907   0.896
 1573SOL     OW14687   1.479   3.826   1.758
 1573SOL    HW114688   1.504   3.737   1.721
 1573SOL    HW214689   1.562   3.880   1.774
 1574SOL     OW14690   1.725   4.665   1.481
 1574SOL    HW114691   1.730   4.574   1.521
 1574SOL    HW214692   1.713   4.657   1.382
 1575SOL     OW14693   2.212   2.712   1.960
 1575SOL    HW114694   2.271   2.685   1.884
 1575SOL    HW214695   2.142   2.775   1.928
 1576SOL     OW14696   1.897   6.316   0.493
 1576SOL    HW114697   1.959   6.248   0.531
 1576SOL    HW214698   1.860   6.283   0.406
 1577SOL     OW14699   2.239   3.427   0.962
 1577SOL    HW114700   2.322   3.397   1.008
 1577SOL    HW214701   2.235   3.527   0.961
 1578SOL     OW14702   8.503   2.725   2.171
 1578SOL    HW114703   8.442   2.646   2.185
 1578SOL    HW214704   8.543   2.720   2.080
 1579SOL     OW14705   0.418   5.322   2.146
 1579SOL    HW114706   0.351   5.264   2.100
 1579SOL    HW214707   0.481   5.265   2.199
 1580SOL     OW14708   0.718   6.107   0.414
 1580SOL    HW114709   0.713   6.204   0.435
 1580SOL    HW214710   0.810   6.073   0.434
 1581SOL     OW14711   3.479   0.323   1.174
 1581SOL    HW114712   3.520   0.321   1.265
 1581SOL    HW214713   3.512   0.245   1.120
 1582SOL     OW14714   3.380   1.556   1.301
 1582SOL    HW114715   3.301   1.531   1.357
 1582SOL    HW214716   3.352   1.623   1.232
 1583SOL     OW14717   0.011   2.217   1.946
 1583SOL    HW114718   9.997   2.197   2.043
 1583SOL    HW214719   9.923   2.234   1.902
 1584SOL     OW14720   4.075   9.145   1.110
 1584SOL    HW114721   4.091   9.153   1.012
 1584SOL    HW214722   4.081   9.235   1.152
 1585SOL     OW14723   1.688   1.210   1.259
 1585SOL    HW114724   1.627   1.131   1.266
 1585SOL    HW214725   1.756   1.207   1.332
 1586SOL     OW14726   1.403   4.279   0.633
 1586SOL    HW114727   1.421   4.299   0.729
 1586SOL    HW214728   1.459   4.200   0.605
 1587SOL     OW14729   0.213   1.854   1.976
 1587SOL    HW114730   0.130   1.821   2.021
 1587SOL    HW214731   0.189   1.913   1.899
 1588SOL     OW14732   9.540   4.909   1.277
 1588SOL    HW114733   9.540   4.985   1.341
 1588SOL    HW214734   9.631   4.900   1.237
 1589SOL     OW14735   0.780   0.525   0.390
 1589SOL    HW114736   0.711   0.592   0.417
 1589SOL    HW214737   0.867   0.572   0.375
 1590SOL     OW14738   2.901   6.396   0.571
 1590SOL    HW114739   2.920   6.300   0.547
 1590SOL    HW214740   2.849   6.438   0.497
 1591SOL     OW14741   3.842   3.850   2.191
 1591SOL    HW114742   3.920   3.857   2.128
 1591SOL    HW214743   3.776   3.921   2.169
 1592SOL     OW14744   1.645   7.307   1.019
 1592SOL    HW114745   1.665   7.245   1.095
 1592SOL    HW214746   1.548   7.303   0.997
 1593SOL     OW14747   9.164   1.621   1.185
 1593SOL    HW114748   9.073   1.651   1.158
 1593SOL    HW214749   9.214   1.590   1.104
 1594SOL     OW14750   1.607   7.795   1.883
 1594SOL    HW114751   1.544   7.839   1.947
 1594SOL    HW214752   1.698   7.792   1.923
 1595SOL     OW14753   3.354   3.449   1.371
 1595SOL    HW114754   3.258   3.429   1.388
 1595SOL    HW214755   3.362   3.518   1.300
 1596SOL     OW14756   3.855   3.683   0.395
 1596SOL    HW114757   3.854   3.612   0.465
 1596SOL    HW214758   3.920   3.754   0.421
 1597SOL     OW14759   4.417   1.040   0.395
 1597SOL    HW114760   4.331   1.005   0.433
 1597SOL    HW214761   4.424   1.014   0.299
 1598SOL     OW14762   1.988   5.633   1.430
 1598SOL    HW114763   1.919   5.661   1.363
 1598SOL    HW214764   1.973   5.537   1.454
 1599SOL     OW14765   8.410   2.450   1.275
 1599SOL    HW114766   8.457   2.374   1.229
 1599SOL    HW214767   8.343   2.490   1.213
 1600SOL     OW14768   0.633   8.263   0.664
 1600SOL    HW114769   0.584   8.187   0.621
 1600SOL    HW214770   0.633   8.342   0.603
 1601SOL     OW14771   1.053   0.466   0.994
 1601SOL    HW114772   1.040   0.564   0.984
 1601SOL    HW214773   0.982   0.428   1.053
 1602SOL     OW14774   1.428   1.630   0.575
 1602SOL    HW114775   1.385   1.584   0.496
 1602SOL    HW214776   1.504   1.574   0.608
 1603SOL     OW14777   3.404   1.581   0.890
 1603SOL    HW114778   3.329   1.528   0.930
 1603SOL    HW214779   3.402   1.673   0.928
 1604SOL     OW14780   0.584   6.002   1.335
 1604SOL    HW114781   0.653   5.967   1.398
 1604SOL    HW214782   0.513   6.050   1.387
 1605SOL     OW14783   1.794   5.212   2.133
 1605SOL    HW114784   1.817   5.303   2.100
 1605SOL    HW214785   1.701   5.212   2.170
 1606SOL     OW14786   0.889   6.761   0.562
 1606SOL    HW114787   0.809   6.821   0.564
 1606SOL    HW214788   0.882   6.698   0.485
 1607SOL     OW14789   1.984   4.716   1.141
 1607SOL    HW114790   1.898   4.766   1.129
 1607SOL    HW214791   2.010   4.717   1.237
 1608SOL     OW14792   4.438   4.304   1.992
 1608SOL    HW114793   4.473   4.316   1.899
 1608SOL    HW214794   4.354   4.358   2.004
 1609SOL     OW14795   3.313   9.693   2.230
 1609SOL    HW114796   3.232   9.637   2.246
 1609SOL    HW214797   3.382   9.639   2.182
 1610SOL     OW14798   1.469   2.119   2.066
 1610SOL    HW114799   1.538   2.184   2.098
 1610SOL    HW214800   1.503   2.026   2.082
 1611SOL     OW14801   2.900   4.050   0.851
 1611SOL    HW114802   2.900   4.115   0.927
 1611SOL    HW214803   2.987   4.055   0.802
 1612SOL     OW14804   3.375   8.656   1.165
 1612SOL    HW114805   3.388   8.668   1.264
 1612SOL    HW214806   3.284   8.620   1.148
 1613SOL     OW14807   0.820   4.498   0.916
 1613SOL    HW114808   0.725   4.483   0.887
 1613SOL    HW214809   0.848   4.590   0.891
 1614SOL     OW14810   2.621   2.474   1.347
 1614SOL    HW114811   2.611   2.377   1.369
 1614SOL    HW214812   2.552   2.527   1.397
 1615SOL     OW14813   2.840   4.820   1.434
 1615SOL    HW114814   2.823   4.850   1.528
 1615SOL    HW214815   2.857   4.721   1.433
 1616SOL     OW14816   3.106   8.294   2.309
 1616SOL    HW114817   3.036   8.287   2.238
 1616SOL    HW214818   3.063   8.279   2.399
 1617SOL     OW14819   4.596   4.229   2.206
 1617SOL    HW114820   4.544   4.273   2.133
 1617SOL    HW214821   4.608   4.132   2.185
 1618SOL     OW14822   0.406   5.621   0.556
 1618SOL    HW114823   0.469   5.659   0.489
 1618SOL    HW214824   0.398   5.684   0.633
 1619SOL     OW14825   2.571   1.892   2.139
 1619SOL    HW114826   2.606   1.985   2.150
 1619SOL    HW214827   2.486   1.882   2.190
 1620SOL     OW14828   2.265   2.778   0.990
 1620SOL    HW114829   2.205   2.838   1.043
 1620SOL    HW214830   2.219   2.750   0.906
 1621SOL     OW14831   4.615   0.663   1.324
 1621SOL    HW114832   4.547   0.671   1.397
 1621SOL    HW214833   4.587   0.592   1.260
 1622SOL     OW14834   0.708   9.138   2.175
 1622SOL    HW114835   0.757   9.215   2.135
 1622SOL    HW214836   0.611   9.161   2.182
 1623SOL     OW14837   0.904   4.511   1.395
 1623SOL    HW114838   0.924   4.602   1.358
 1623SOL    HW214839   0.884   4.448   1.320
 1624SOL     OW14840   0.463   1.121   2.065
 1624SOL    HW114841   0.562   1.136   2.071
 1624SOL    HW214842   0.418   1.165   2.143
 1625SOL     OW14843   1.651   3.719   1.467
 1625SOL    HW114844   1.640   3.671   1.380
 1625SOL    HW214845   1.594   3.675   1.536
 1626SOL     OW14846   0.448   9.603   0.909
 1626SOL    HW114847   0.435   9.615   0.810
 1626SOL    HW214848   0.545   9.587   0.928
 1627SOL     OW14849   1.080   1.199   1.498
 1627SOL    HW114850   1.146   1.166   1.565
 1627SOL    HW214851   0.990   1.209   1.540
 1628SOL     OW14852   1.790   7.385   2.009
 1628SOL    HW114853   1.728   7.438   2.067
 1628SOL    HW214854   1.870   7.441   1.987
 1629SOL     OW14855   9.617   3.850   0.845
 1629SOL    HW114856   9.631   3.860   0.943
 1629SOL    HW214857   9.665   3.923   0.797
 1630SOL     OW14858   2.360   8.394   1.277
 1630SOL    HW114859   2.348   8.419   1.182
 1630SOL    HW214860   2.298   8.318   1.300
 1631SOL     OW14861   2.333   0.997   2.076
 1631SOL    HW114862   2.253   1.027   2.024
 1631SOL    HW214863   2.409   0.982   2.013
 1632SOL     OW14864   3.660   4.028   2.078
 1632SOL    HW114865   3.734   4.086   2.045
 1632SOL    HW214866   3.591   4.016   2.006
 1633SOL     OW14867   3.259   4.864   1.509
 1633SOL    HW114868   3.307   4.792   1.459
 1633SOL    HW214869   3.188   4.903   1.451
 1634SOL     OW14870   1.232   9.965   0.735
 1634SOL    HW114871   1.211   0.050   0.688
 1634SOL    HW214872   1.321   9.971   0.779
 1635SOL     OW14873   0.152   2.634   2.087
 1635SOL    HW114874   0.242   2.666   2.119
 1635SOL    HW214875   0.142   2.655   1.990
 1636SOL     OW14876   2.280   3.927   1.550
 1636SOL    HW114877   2.319   3.917   1.642
 1636SOL    HW214878   2.182   3.945   1.558
 1637SOL     OW14879   9.576   3.378   2.195
 1637SOL    HW114880   9.527   3.292   2.181
 1637SOL    HW214881   9.513   3.455   2.182
 1638SOL     OW14882   3.147   5.137   1.202
 1638SOL    HW114883   3.125   5.206   1.270
 1638SOL    HW214884   3.127   5.046   1.239
 1639SOL     OW14885   3.458   1.120   1.211
 1639SOL    HW114886   3.462   1.103   1.309
 1639SOL    HW214887   3.510   1.203   1.189
 1640SOL     OW14888   9.176   5.203   1.097
 1640SOL    HW114889   9.193   5.302   1.093
 1640SOL    HW214890   9.232   5.157   1.028
 1641SOL     OW14891   9.260   4.898   1.317
 1641SOL    HW114892   9.200   4.919   1.240
 1641SOL    HW214893   9.356   4.909   1.289
 1642SOL     OW14894   0.736   3.567   1.328
 1642SOL    HW114895   0.819   3.616   1.355
 1642SOL    HW214896   0.744   3.539   1.232
 1643SOL     OW14897   2.778   9.480   2.044
 1643SOL    HW114898   2.784   9.482   2.143
 1643SOL    HW214899   2.744   9.568   2.010
 1644SOL     OW14900   1.037   8.267   1.252
 1644SOL    HW114901   0.991   8.259   1.164
 1644SOL    HW214902   1.046   8.364   1.277
 1645SOL     OW14903   2.206   1.103   1.172
 1645SOL    HW114904   2.292   1.058   1.194
 1645SOL    HW214905   2.131   1.057   1.219
 1646SOL     OW14906   3.303   4.107   2.323
 1646SOL    HW114907   3.259   4.196   2.340
 1646SOL    HW214908   3.262   4.066   2.241
 1647SOL     OW14909   9.598   5.671   1.912
 1647SOL    HW114910   9.522   5.737   1.913
 1647SOL    HW214911   9.564   5.583   1.878
 1648SOL     OW14912   1.047   7.604   0.779
 1648SOL    HW114913   1.092   7.514   0.787
 1648SOL    HW214914   0.960   7.593   0.731
 1649SOL     OW14915   1.668   9.593   0.436
 1649SOL    HW114916   1.657   9.535   0.355
 1649SOL    HW214917   1.765   9.614   0.448
 1650SOL     OW14918   3.565   0.115   1.021
 1650SOL    HW114919   3.531   0.021   1.015
 1650SOL    HW214920   3.573   0.153   0.929
 1651SOL     OW14921   3.910   8.860   0.753
 1651SOL    HW114922   3.846   8.786   0.730
 1651SOL    HW214923   3.865   8.927   0.811
 1652SOL     OW14924   0.328   9.983   1.369
 1652SOL    HW114925   0.269   9.999   1.290
 1652SOL    HW214926   0.424   9.989   1.341
 1653SOL     OW14927   3.712   3.579   1.758
 1653SOL    HW114928   3.799   3.590   1.711
 1653SOL    HW214929   3.650   3.526   1.700
 1654SOL     OW14930   3.002   2.811   0.504
 1654SOL    HW114931   2.954   2.794   0.590
 1654SOL    HW214932   2.950   2.770   0.428
 1655SOL     OW14933   1.098   0.903   0.815
 1655SOL    HW114934   1.188   0.887   0.774
 1655SOL    HW214935   1.091   0.998   0.844
 1656SOL     OW14936   4.063   9.793   1.502
 1656SOL    HW114937   4.010   9.868   1.541
 1656SOL    HW214938   4.157   9.823   1.486
 1657SOL     OW14939   1.172   9.232   0.666
 1657SOL    HW114940   1.183   9.331   0.676
 1657SOL    HW214941   1.083   9.212   0.626
 1658SOL     OW14942   9.462   5.580   1.532
 1658SOL    HW114943   9.461   5.680   1.535
 1658SOL    HW214944   9.375   5.546   1.568
 1659SOL     OW14945   0.931   8.250   1.001
 1659SOL    HW114946   0.831   8.252   0.993
 1659SOL    HW214947   0.971   8.302   0.925
 1660SOL     OW14948   4.662   3.841   0.596
 1660SOL    HW114949   4.627   3.780   0.667
 1660SOL    HW214950   4.724   3.791   0.536
 1661SOL     OW14951   9.892   2.612   1.779
 1661SOL    HW114952   9.825   2.630   1.852
 1661SOL    HW214953   9.983   2.642   1.809
 1662SOL     OW14954   5.029   3.480   0.455
 1662SOL    HW114955   4.995   3.412   0.390
 1662SOL    HW214956   5.064   3.433   0.536
 1663SOL     OW14957   1.174   7.565   1.369
 1663SOL    HW114958   1.077   7.546   1.387
 1663SOL    HW214959   1.216   7.487   1.324
 1664SOL     OW14960   3.696   2.230   1.061
 1664SOL    HW114961   3.659   2.283   1.138
 1664SOL    HW214962   3.756   2.288   1.006
 1665SOL     OW14963   2.756   1.514   0.987
 1665SOL    HW114964   2.700   1.453   0.931
 1665SOL    HW214965   2.700   1.590   1.021
 1666SOL     OW14966   2.738   5.702   1.818
 1666SOL    HW114967   2.649   5.673   1.852
 1666SOL    HW214968   2.726   5.763   1.739
 1667SOL     OW14969   1.855   5.343   0.759
 1667SOL    HW114970   1.853   5.377   0.853
 1667SOL    HW214971   1.796   5.400   0.702
 1668SOL     OW14972   0.913   7.495   1.415
 1668SOL    HW114973   0.873   7.518   1.326
 1668SOL    HW214974   0.926   7.396   1.421
 1669SOL     OW14975   3.604   0.747   0.975
 1669SOL    HW114976   3.635   0.654   0.997
 1669SOL    HW214977   3.557   0.746   0.887
 1670SOL     OW14978   1.119   6.360   2.223
 1670SOL    HW114979   1.210   6.319   2.228
 1670SOL    HW214980   1.088   6.386   2.314
 1671SOL     OW14981   0.995   9.455   1.488
 1671SOL    HW114982   1.041   9.506   1.561
 1671SOL    HW214983   0.906   9.497   1.468
 1672SOL     OW14984   1.885   1.276   2.030
 1672SOL    HW114985   1.805   1.224   2.059
 1672SOL    HW214986   1.965   1.216   2.024
 1673SOL     OW14987   1.081   8.559   2.095
 1673SOL    HW114988   1.134   8.479   2.123
 1673SOL    HW214989   0.987   8.532   2.075
 1674SOL     OW14990   0.926   7.026   1.275
 1674SOL    HW114991   0.996   6.993   1.210
 1674SOL    HW214992   0.881   6.948   1.318
 1675SOL     OW14993   1.213   2.129   1.297
 1675SOL    HW114994   1.207   2.222   1.333
 1675SOL    HW214995   1.295   2.120   1.241
 1676SOL     OW14996   4.388   1.126   1.044
 1676SOL    HW114997   4.457   1.063   1.080
 1676SOL    HW214998   4.429   1.216   1.033
 1677SOL     OW14999   0.125   6.126   1.323
 1677SOL    HW115000   0.071   6.066   1.382
 1677SOL    HW215001   0.109   6.222   1.349
 1678SOL     OW15002   3.967   0.404   1.354
 1678SOL    HW115003   4.057   0.443   1.338
 1678SOL    HW215004   3.897   0.475   1.339
 1679SOL     OW15005   1.044   8.372   0.395
 1679SOL    HW115006   1.028   8.375   0.296
 1679SOL    HW215007   1.134   8.332   0.414
 1680SOL     OW15008   8.997   4.462   1.962
 1680SOL    HW115009   9.006   4.371   1.922
 1680SOL    HW215010   8.910   4.502   1.933
 1681SOL     OW15011   3.580   3.045   0.374
 1681SOL    HW115012   3.583   2.976   0.301
 1681SOL    HW215013   3.576   3.000   0.463
 1682SOL     OW15014   2.251   5.126   1.314
 1682SOL    HW115015   2.312   5.054   1.349
 1682SOL    HW215016   2.283   5.215   1.346
 1683SOL     OW15017   2.817   4.654   1.742
 1683SOL    HW115018   2.723   4.657   1.706
 1683SOL    HW215019   2.832   4.567   1.788
 1684SOL     OW15020   9.595   5.901   1.290
 1684SOL    HW115021   9.647   5.962   1.230
 1684SOL    HW215022   9.655   5.827   1.322
 1685SOL     OW15023   0.455   5.757   1.016
 1685SOL    HW115024   0.549   5.725   1.033
 1685SOL    HW215025   0.416   5.793   1.101
 1686SOL     OW15026   4.218   8.537   0.731
 1686SOL    HW115027   4.169   8.537   0.644
 1686SOL    HW215028   4.184   8.613   0.788
 1687SOL     OW15029   9.421   3.919   1.755
 1687SOL    HW115030   9.511   3.944   1.718
 1687SOL    HW215031   9.363   4.001   1.761
 1688SOL     OW15032   3.398   2.600   1.145
 1688SOL    HW115033   3.322   2.656   1.115
 1688SOL    HW215034   3.364   2.511   1.177
 1689SOL     OW15035   3.785   9.744   1.121
 1689SOL    HW115036   3.707   9.757   1.183
 1689SOL    HW215037   3.776   9.806   1.043
 1690SOL     OW15038   1.871   3.769   1.625
 1690SOL    HW115039   1.791   3.752   1.567
 1690SOL    HW215040   1.920   3.683   1.640
 1691SOL     OW15041   2.534   6.877   1.313
 1691SOL    HW115042   2.466   6.832   1.255
 1691SOL    HW215043   2.552   6.819   1.393
 1692SOL     OW15044   9.963   0.805   0.765
 1692SOL    HW115045   9.948   0.762   0.676
 1692SOL    HW215046   0.015   0.743   0.824
 1693SOL     OW15047   4.270   2.632   0.542
 1693SOL    HW115048   4.286   2.700   0.613
 1693SOL    HW215049   4.337   2.559   0.550
 1694SOL     OW15050   0.943   1.742   1.464
 1694SOL    HW115051   0.995   1.827   1.463
 1694SOL    HW215052   0.927   1.714   1.558
 1695SOL     OW15053   1.770   3.146   2.075
 1695SOL    HW115054   1.855   3.101   2.102
 1695SOL    HW215055   1.791   3.221   2.012
 1696SOL     OW15056   4.791   1.870   0.341
 1696SOL    HW115057   4.713   1.850   0.400
 1696SOL    HW215058   4.844   1.944   0.381
 1697SOL     OW15059   9.585   2.232   0.802
 1697SOL    HW115060   9.671   2.281   0.811
 1697SOL    HW215061   9.509   2.297   0.802
 1698SOL     OW15062   2.575   6.124   2.151
 1698SOL    HW115063   2.557   6.191   2.222
 1698SOL    HW215064   2.493   6.068   2.137
 1699SOL     OW15065   1.518   2.888   1.214
 1699SOL    HW115066   1.489   2.808   1.267
 1699SOL    HW215067   1.437   2.938   1.184
 1700SOL     OW15068   1.122   8.571   1.820
 1700SOL    HW115069   1.116   8.475   1.793
 1700SOL    HW215070   1.120   8.579   1.919
 1701SOL     OW15071   1.021   0.222   1.198
 1701SOL    HW115072   0.942   0.284   1.196
 1701SOL    HW215073   1.105   0.275   1.208
 1702SOL     OW15074   9.857   6.188   0.863
 1702SOL    HW115075   9.939   6.226   0.906
 1702SOL    HW215076   9.875   6.172   0.766
 1703SOL     OW15077   3.960   1.283   2.096
 1703SOL    HW115078   3.905   1.355   2.137
 1703SOL    HW215079   3.956   1.201   2.154
 1704SOL     OW15080   4.222   0.480   1.256
 1704SOL    HW115081   4.182   0.448   1.170
 1704SOL    HW215082   4.321   0.470   1.252
 1705SOL     OW15083   1.244   2.533   1.712
 1705SOL    HW115084   1.243   2.633   1.714
 1705SOL    HW215085   1.151   2.498   1.702
 1706SOL     OW15086   2.439   2.783   2.101
 1706SOL    HW115087   2.358   2.746   2.056
 1706SOL    HW215088   2.412   2.857   2.162
 1707SOL     OW15089   0.980   7.932   2.155
 1707SOL    HW115090   0.934   7.851   2.191
 1707SOL    HW215091   0.944   7.953   2.064
 1708SOL     OW15092   2.300   1.598   1.065
 1708SOL    HW115093   2.239   1.525   1.097
 1708SOL    HW215094   2.262   1.687   1.092
 1709SOL     OW15095   0.667   9.408   1.206
 1709SOL    HW115096   0.683   9.454   1.118
 1709SOL    HW215097   0.668   9.309   1.192
 1710SOL     OW15098   2.821   3.349   1.648
 1710SOL    HW115099   2.870   3.285   1.589
 1710SOL    HW215100   2.851   3.337   1.743
 1711SOL     OW15101   2.818   1.746   1.797
 1711SOL    HW115102   2.808   1.743   1.896
 1711SOL    HW215103   2.761   1.676   1.755
 1712SOL     OW15104   3.286   2.573   2.257
 1712SOL    HW115105   3.276   2.567   2.356
 1712SOL    HW215106   3.354   2.644   2.235
 1713SOL     OW15107   1.948   9.274   0.946
 1713SOL    HW115108   2.037   9.233   0.924
 1713SOL    HW215109   1.875   9.217   0.911
 1714SOL     OW15110   3.182   8.638   1.825
 1714SOL    HW115111   3.098   8.685   1.851
 1714SOL    HW215112   3.251   8.651   1.896
 1715SOL     OW15113   3.558   3.414   1.585
 1715SOL    HW115114   3.493   3.448   1.517
 1715SOL    HW215115   3.626   3.356   1.540
 1716SOL     OW15116   4.256   2.424   1.965
 1716SOL    HW115117   4.290   2.488   1.896
 1716SOL    HW215118   4.204   2.351   1.920
 1717SOL     OW15119   4.140   1.532   2.178
 1717SOL    HW115120   4.150   1.496   2.086
 1717SOL    HW215121   4.230   1.549   2.217
 1718SOL     OW15122   1.549   9.840   0.485
 1718SOL    HW115123   1.595   9.753   0.465
 1718SOL    HW215124   1.452   9.823   0.501
 1719SOL     OW15125   3.550   0.413   0.544
 1719SOL    HW115126   3.459   0.424   0.585
 1719SOL    HW215127   3.599   0.500   0.549
 1720SOL     OW15128   9.868   4.204   2.015
 1720SOL    HW115129   9.820   4.125   1.976
 1720SOL    HW215130   9.832   4.288   1.975
 1721SOL     OW15131   1.743   6.072   0.887
 1721SOL    HW115132   1.675   6.143   0.871
 1721SOL    HW215133   1.780   6.040   0.800
 1722SOL     OW15134   2.688   3.458   0.971
 1722SOL    HW115135   2.607   3.405   0.993
 1722SOL    HW215136   2.691   3.540   1.029
 1723SOL     OW15137   9.641   2.268   1.166
 1723SOL    HW115138   9.618   2.172   1.186
 1723SOL    HW215139   9.634   2.321   1.250
 1724SOL     OW15140   1.442   5.295   1.530
 1724SOL    HW115141   1.468   5.204   1.498
 1724SOL    HW215142   1.401   5.346   1.455
 1725SOL     OW15143   1.935   0.474   0.459
 1725SOL    HW115144   2.009   0.426   0.505
 1725SOL    HW215145   1.851   0.465   0.513
 1726SOL     OW15146   2.887   6.079   0.483
 1726SOL    HW115147   2.929   6.044   0.400
 1726SOL    HW215148   2.886   6.008   0.554
 1727SOL     OW15149   1.737   0.908   1.168
 1727SOL    HW115150   1.653   0.919   1.221
 1727SOL    HW215151   1.731   0.962   1.084
 1728SOL     OW15152   2.241   5.737   1.940
 1728SOL    HW115153   2.249   5.767   1.845
 1728SOL    HW215154   2.176   5.661   1.945
 1729SOL     OW15155   4.298   3.329   0.986
 1729SOL    HW115156   4.201   3.318   0.963
 1729SOL    HW215157   4.352   3.258   0.940
 1730SOL     OW15158   0.927   3.229   1.770
 1730SOL    HW115159   0.917   3.308   1.709
 1730SOL    HW215160   0.929   3.260   1.865
 1731SOL     OW15161   9.538   1.289   1.167
 1731SOL    HW115162   9.542   1.385   1.139
 1731SOL    HW215163   9.622   1.242   1.140
 1732SOL     OW15164   4.199   0.332   1.542
 1732SOL    HW115165   4.229   0.285   1.459
 1732SOL    HW215166   4.278   0.369   1.590
 1733SOL     OW15167   2.282   8.211   2.029
 1733SOL    HW115168   2.336   8.293   2.046
 1733SOL    HW215169   2.342   8.131   2.022
 1734SOL     OW15170   1.744   2.029   0.740
 1734SOL    HW115171   1.694   2.116   0.740
 1734SOL    HW215172   1.748   1.993   0.647
 1735SOL     OW15173   2.567   3.384   1.755
 1735SOL    HW115174   2.657   3.369   1.714
 1735SOL    HW215175   2.497   3.374   1.684
 1736SOL     OW15176   2.162   2.059   1.923
 1736SOL    HW115177   2.128   2.070   1.830
 1736SOL    HW215178   2.182   2.149   1.962
 1737SOL     OW15179   3.070   4.891   1.302
 1737SOL    HW115180   3.083   4.812   1.243
 1737SOL    HW215181   2.985   4.880   1.354
 1738SOL     OW15182   0.669   6.103   1.680
 1738SOL    HW115183   0.618   6.074   1.761
 1738SOL    HW215184   0.630   6.188   1.644
 1739SOL     OW15185   9.446   5.853   1.520
 1739SOL    HW115186   9.490   5.881   1.435
 1739SOL    HW215187   9.484   5.905   1.597
 1740SOL     OW15188   3.953   1.030   2.208
 1740SOL    HW115189   4.052   1.043   2.212
 1740SOL    HW215190   3.933   0.935   2.184
 1741SOL     OW15191   1.762   3.574   2.037
 1741SOL    HW115192   1.682   3.632   2.023
 1741SOL    HW215193   1.771   3.551   2.134
 1742SOL     OW15194   9.003   4.289   0.934
 1742SOL    HW115195   8.958   4.374   0.906
 1742SOL    HW215196   8.977   4.267   1.028
 1743SOL     OW15197   2.324   7.827   1.080
 1743SOL    HW115198   2.328   7.867   1.171
 1743SOL    HW215199   2.392   7.754   1.073
 1744SOL     OW15200   2.789   2.542   0.639
 1744SOL    HW115201   2.823   2.619   0.692
 1744SOL    HW215202   2.752   2.575   0.552
 1745SOL     OW15203   2.408   3.472   2.181
 1745SOL    HW115204   2.454   3.400   2.129
 1745SOL    HW215205   2.353   3.431   2.254
 1746SOL     OW15206   1.212   0.430   1.274
 1746SOL    HW115207   1.149   0.421   1.351
 1746SOL    HW215208   1.200   0.521   1.232
 1747SOL     OW15209   1.836   2.680   2.063
 1747SOL    HW115210   1.748   2.637   2.043
 1747SOL    HW215211   1.859   2.744   1.989
 1748SOL     OW15212   0.880   2.558   1.396
 1748SOL    HW115213   0.806   2.540   1.331
 1748SOL    HW215214   0.895   2.477   1.454
 1749SOL     OW15215   2.365   4.061   0.956
 1749SOL    HW115216   2.439   4.055   0.889
 1749SOL    HW215217   2.278   4.066   0.908
 1750SOL     OW15218   9.325   5.046   1.939
 1750SOL    HW115219   9.261   5.024   1.865
 1750SOL    HW215220   9.366   4.962   1.974
 1751SOL     OW15221   4.225   8.914   1.071
 1751SOL    HW115222   4.311   8.941   1.028
 1751SOL    HW215223   4.171   8.996   1.092
 1752SOL     OW15224   4.455   4.966   1.096
 1752SOL    HW115225   4.518   4.935   1.025
 1752SOL    HW215226   4.364   4.929   1.078
 1753SOL     OW15227   1.008   8.225   1.528
 1753SOL    HW115228   0.914   8.200   1.550
 1753SOL    HW215229   1.016   8.240   1.430
 1754SOL     OW15230   0.350   2.769   0.515
 1754SOL    HW115231   0.404   2.731   0.590
 1754SOL    HW215232   0.367   2.717   0.431
 1755SOL     OW15233   1.737   1.825   1.276
 1755SOL    HW115234   1.707   1.914   1.241
 1755SOL    HW215235   1.662   1.759   1.268
 1756SOL     OW15236   2.683   0.911   1.292
 1756SOL    HW115237   2.680   0.829   1.350
 1756SOL    HW215238   2.776   0.923   1.257
 1757SOL     OW15239   1.197   8.072   2.057
 1757SOL    HW115240   1.198   8.038   1.963
 1757SOL    HW215241   1.124   8.026   2.108
 1758SOL     OW15242   1.630   9.347   0.834
 1758SOL    HW115243   1.666   9.255   0.849
 1758SOL    HW215244   1.619   9.393   0.921
 1759SOL     OW15245   2.691   2.765   1.429
 1759SOL    HW115246   2.725   2.719   1.511
 1759SOL    HW215247   2.593   2.746   1.419
 1760SOL     OW15248   2.553   3.315   1.346
 1760SOL    HW115249   2.591   3.402   1.378
 1760SOL    HW215250   2.615   3.241   1.370
 1761SOL     OW15251   2.574   4.747   0.719
 1761SOL    HW115252   2.484   4.753   0.675
 1761SOL    HW215253   2.566   4.780   0.813
 1762SOL     OW15254   9.814   4.666   1.311
 1762SOL    HW115255   9.875   4.684   1.388
 1762SOL    HW215256   9.805   4.749   1.256
 1763SOL     OW15257   0.830   8.477   2.026
 1763SOL    HW115258   0.753   8.482   2.090
 1763SOL    HW215259   0.828   8.389   1.978
 1764SOL     OW15260   2.250   7.290   1.147
 1764SOL    HW115261   2.191   7.370   1.133
 1764SOL    HW215262   2.345   7.319   1.152
 1765SOL     OW15263   0.268   1.144   1.867
 1765SOL    HW115264   0.342   1.132   1.932
 1765SOL    HW215265   0.306   1.169   1.777
 1766SOL     OW15266   2.332   4.725   1.480
 1766SOL    HW115267   2.330   4.653   1.410
 1766SOL    HW215268   2.378   4.806   1.444
 1767SOL     OW15269   3.538   5.070   1.176
 1767SOL    HW115270   3.441   5.077   1.152
 1767SOL    HW215271   3.552   5.107   1.268
 1768SOL     OW15272   1.725   4.117   2.310
 1768SOL    HW115273   1.729   4.108   2.410
 1768SOL    HW215274   1.808   4.077   2.270
 1769SOL     OW15275   2.768   9.720   0.696
 1769SOL    HW115276   2.809   9.640   0.651
 1769SOL    HW215277   2.841   9.781   0.727
 1770SOL     OW15278   2.280   5.600   1.088
 1770SOL    HW115279   2.274   5.634   1.182
 1770SOL    HW215280   2.265   5.677   1.025
 1771SOL     OW15281   1.200   1.565   0.983
 1771SOL    HW115282   1.228   1.478   1.024
 1771SOL    HW215283   1.100   1.571   0.982
 1772SOL     OW15284   2.293   2.919   1.514
 1772SOL    HW115285   2.196   2.937   1.532
 1772SOL    HW215286   2.346   2.932   1.597
 1773SOL     OW15287   9.911   5.704   1.549
 1773SOL    HW115288   9.831   5.686   1.492
 1773SOL    HW215289   9.982   5.637   1.530
 1774SOL     OW15290   1.475   7.909   0.902
 1774SOL    HW115291   1.504   7.834   0.843
 1774SOL    HW215292   1.390   7.884   0.949
 1775SOL     OW15293   4.685   1.291   2.128
 1775SOL    HW115294   4.667   1.250   2.039
 1775SOL    HW215295   4.615   1.263   2.194
 1776SOL     OW15296   2.084   5.512   1.951
 1776SOL    HW115297   2.136   5.431   1.974
 1776SOL    HW215298   1.988   5.498   1.975
 1777SOL     OW15299   2.717   5.169   2.261
 1777SOL    HW115300   2.665   5.109   2.322
 1777SOL    HW215301   2.815   5.155   2.277
 1778SOL     OW15302   2.982   6.404   1.910
 1778SOL    HW115303   2.908   6.435   1.850
 1778SOL    HW215304   3.024   6.321   1.872
 1779SOL     OW15305   3.866   1.102   0.563
 1779SOL    HW115306   3.776   1.137   0.587
 1779SOL    HW215307   3.921   1.177   0.524
 1780SOL     OW15308   2.213   4.737   0.999
 1780SOL    HW115309   2.134   4.720   1.059
 1780SOL    HW215310   2.292   4.687   1.033
 1781SOL     OW15311   2.159   1.373   1.144
 1781SOL    HW115312   2.060   1.384   1.138
 1781SOL    HW215313   2.181   1.275   1.151
 1782SOL     OW15314   1.325   7.564   1.594
 1782SOL    HW115315   1.403   7.624   1.577
 1782SOL    HW215316   1.260   7.572   1.519
 1783SOL     OW15317   0.487   6.682   1.319
 1783SOL    HW115318   0.579   6.660   1.286
 1783SOL    HW215319   0.469   6.779   1.307
 1784SOL     OW15320   1.606   8.179   2.204
 1784SOL    HW115321   1.603   8.095   2.258
 1784SOL    HW215322   1.599   8.157   2.107
 1785SOL     OW15323   9.227   2.948   1.659
 1785SOL    HW115324   9.248   3.043   1.635
 1785SOL    HW215325   9.138   2.923   1.621
 1786SOL     OW15326   3.930   3.576   2.236
 1786SOL    HW115327   3.922   3.576   2.136
 1786SOL    HW215328   3.909   3.668   2.271
 1787SOL     OW15329   0.780   3.481   1.073
 1787SOL    HW115330   0.799   3.388   1.104
 1787SOL    HW215331   0.721   3.479   0.993
 1788SOL     OW15332   2.147   4.392   1.117
 1788SOL    HW115333   2.168   4.407   1.020
 1788SOL    HW215334   2.048   4.385   1.129
 1789SOL     OW15335   2.583   3.680   2.132
 1789SOL    HW115336   2.523   3.607   2.166
 1789SOL    HW215337   2.628   3.724   2.210
 1790SOL     OW15338   0.423   8.805   1.233
 1790SOL    HW115339   0.401   8.829   1.139
 1790SOL    HW215340   0.390   8.877   1.295
 1791SOL     OW15341   0.553   6.123   0.993
 1791SOL    HW115342   0.609   6.206   0.985
 1791SOL    HW215343   0.469   6.145   1.042
 1792SOL     OW15344   2.045   1.873   0.920
 1792SOL    HW115345   1.978   1.801   0.938
 1792SOL    HW215346   2.075   1.867   0.825
 1793SOL     OW15347   9.807   2.383   0.842
 1793SOL    HW115348   9.758   2.469   0.860
 1793SOL    HW215349   9.897   2.387   0.886
 1794SOL     OW15350   9.205   1.686   0.739
 1794SOL    HW115351   9.110   1.691   0.707
 1794SOL    HW215352   9.266   1.726   0.671
 1795SOL     OW15353   1.949   0.966   1.687
 1795SOL    HW115354   2.031   1.007   1.647
 1795SOL    HW215355   1.877   1.034   1.693
 1796SOL     OW15356   2.468   7.334   1.638
 1796SOL    HW115357   2.376   7.354   1.604
 1796SOL    HW215358   2.511   7.419   1.669
 1797SOL     OW15359   0.399   6.943   1.548
 1797SOL    HW115360   0.404   6.944   1.448
 1797SOL    HW215361   0.407   7.036   1.583
 1798SOL     OW15362   1.577   2.539   2.049
 1798SOL    HW115363   1.598   2.458   2.103
 1798SOL    HW215364   1.526   2.604   2.105
 1799SOL     OW15365   0.265   3.624   0.564
 1799SOL    HW115366   0.332   3.639   0.491
 1799SOL    HW215367   0.210   3.706   0.577
 1800SOL     OW15368   2.368   7.366   1.940
 1800SOL    HW115369   2.307   7.291   1.962
 1800SOL    HW215370   2.461   7.332   1.930
 1801SOL     OW15371   4.848   3.708   0.444
 1801SOL    HW115372   4.915   3.635   0.457
 1801SOL    HW215373   4.896   3.793   0.421
 1802SOL     OW15374   9.695   3.820   1.117
 1802SOL    HW115375   9.794   3.831   1.116
 1802SOL    HW215376   9.672   3.723   1.127
 1803SOL     OW15377   2.307   6.513   0.517
 1803SOL    HW115378   2.354   6.601   0.522
 1803SOL    HW215379   2.262   6.504   0.428
 1804SOL     OW15380   9.645   4.487   1.192
 1804SOL    HW115381   9.714   4.541   1.241
 1804SOL    HW215382   9.689   4.437   1.118
 1805SOL     OW15383   0.327   9.380   1.028
 1805SOL    HW115384   0.339   9.404   1.124
 1805SOL    HW215385   0.359   9.455   0.970
 1806SOL     OW15386   0.677   8.462   0.481
 1806SOL    HW115387   0.617   8.497   0.409
 1806SOL    HW215388   0.761   8.515   0.483
 1807SOL     OW15389   1.762   4.384   1.523
 1807SOL    HW115390   1.853   4.411   1.492
 1807SOL    HW215391   1.768   4.302   1.580
 1808SOL     OW15392   4.184   1.643   1.072
 1808SOL    HW115393   4.114   1.645   1.001
 1808SOL    HW215394   4.161   1.572   1.139
 1809SOL     OW15395   2.306   0.220   1.791
 1809SOL    HW115396   2.281   0.308   1.830
 1809SOL    HW215397   2.331   0.156   1.864
 1810SOL     OW15398   0.061   6.402   0.740
 1810SOL    HW115399   0.082   6.380   0.835
 1810SOL    HW215400   0.075   6.321   0.683
 1811SOL     OW15401   9.971   1.781   2.075
 1811SOL    HW115402   9.926   1.844   2.138
 1811SOL    HW215403   9.959   1.687   2.106
 1812SOL     OW15404   0.715   2.760   1.518
 1812SOL    HW115405   0.767   2.692   1.466
 1812SOL    HW215406   0.761   2.848   1.512
 1813SOL     OW15407   2.293   7.739   1.469
 1813SOL    HW115408   2.333   7.741   1.560
 1813SOL    HW215409   2.325   7.658   1.420
 1814SOL     OW15410   1.445   3.465   0.770
 1814SOL    HW115411   1.435   3.492   0.674
 1814SOL    HW215412   1.535   3.492   0.803
 1815SOL     OW15413   3.670   4.793   0.788
 1815SOL    HW115414   3.643   4.812   0.882
 1815SOL    HW215415   3.770   4.785   0.783
 1816SOL     OW15416   9.094   2.607   1.190
 1816SOL    HW115417   9.081   2.510   1.174
 1816SOL    HW215418   9.117   2.652   1.103
 1817SOL     OW15419   2.149   0.978   0.558
 1817SOL    HW115420   2.088   0.952   0.483
 1817SOL    HW215421   2.154   0.903   0.624
 1818SOL     OW15422   2.217   2.289   0.815
 1818SOL    HW115423   2.221   2.303   0.914
 1818SOL    HW215424   2.138   2.230   0.793
 1819SOL     OW15425   3.302   7.916   2.044
 1819SOL    HW115426   3.206   7.911   2.072
 1819SOL    HW215427   3.316   7.997   1.988
 1820SOL     OW15428   3.869   4.190   1.996
 1820SOL    HW115429   3.805   4.263   2.018
 1820SOL    HW215430   3.947   4.193   2.058
 1821SOL     OW15431   3.452   2.079   1.052
 1821SOL    HW115432   3.437   2.048   1.145
 1821SOL    HW215433   3.536   2.133   1.047
 1822SOL     OW15434   2.211   3.369   0.693
 1822SOL    HW115435   2.254   3.442   0.640
 1822SOL    HW215436   2.231   3.383   0.790
 1823SOL     OW15437   0.502   9.559   1.595
 1823SOL    HW115438   0.443   9.531   1.669
 1823SOL    HW215439   0.576   9.492   1.583
 1824SOL     OW15440   1.530   1.823   2.065
 1824SOL    HW115441   1.487   1.824   1.974
 1824SOL    HW215442   1.526   1.730   2.102
 1825SOL     OW15443   0.888   1.223   1.906
 1825SOL    HW115444   0.828   1.208   1.984
 1825SOL    HW215445   0.954   1.148   1.901
 1826SOL     OW15446   2.886   9.803   1.786
 1826SOL    HW115447   2.930   9.716   1.765
 1826SOL    HW215448   2.825   9.828   1.711
 1827SOL     OW15449   1.327   0.660   0.480
 1827SOL    HW115450   1.233   0.645   0.449
 1827SOL    HW215451   1.391   0.623   0.412
 1828SOL     OW15452   5.015   2.722   1.465
 1828SOL    HW115453   5.066   2.637   1.480
 1828SOL    HW215454   4.987   2.760   1.553
 1829SOL     OW15455   0.807   2.107   2.267
 1829SOL    HW115456   0.736   2.044   2.299
 1829SOL    HW215457   0.766   2.179   2.212
 1830SOL     OW15458   0.040   1.926   1.272
 1830SOL    HW115459   0.127   1.968   1.296
 1830SOL    HW215460   9.965   1.987   1.299
 1831SOL     OW15461   4.361   3.599   0.960
 1831SOL    HW115462   4.338   3.502   0.951
 1831SOL    HW215463   4.420   3.626   0.885
 1832SOL     OW15464   4.593   3.141   1.747
 1832SOL    HW115465   4.616   3.069   1.812
 1832SOL    HW215466   4.575   3.226   1.797
 1833SOL     OW15467   1.037   3.314   0.536
 1833SOL    HW115468   1.038   3.248   0.462
 1833SOL    HW215469   1.032   3.265   0.624
 1834SOL     OW15470   2.099   8.176   1.824
 1834SOL    HW115471   2.160   8.188   1.902
 1834SOL    HW215472   2.147   8.202   1.740
 1835SOL     OW15473   4.411   1.751   1.228
 1835SOL    HW115474   4.329   1.723   1.178
 1835SOL    HW215475   4.488   1.756   1.165
 1836SOL     OW15476   3.931   4.370   1.764
 1836SOL    HW115477   4.026   4.343   1.744
 1836SOL    HW215478   3.897   4.316   1.841
 1837SOL     OW15479   2.630   3.035   0.952
 1837SOL    HW115480   2.694   2.958   0.949
 1837SOL    HW215481   2.591   3.043   1.043
 1838SOL     OW15482   0.256   6.537   0.437
 1838SOL    HW115483   0.222   6.482   0.360
 1838SOL    HW215484   0.178   6.576   0.486
 1839SOL     OW15485   1.348   8.852   1.276
 1839SOL    HW115486   1.265   8.906   1.293
 1839SOL    HW215487   1.360   8.785   1.348
 1840SOL     OW15488   2.865   5.472   1.745
 1840SOL    HW115489   2.823   5.555   1.782
 1840SOL    HW215490   2.963   5.485   1.736
 1841SOL     OW15491   1.097   6.961   1.074
 1841SOL    HW115492   1.136   7.021   1.005
 1841SOL    HW215493   1.163   6.891   1.099
 1842SOL     OW15494   0.653   8.479   1.121
 1842SOL    HW115495   0.715   8.552   1.093
 1842SOL    HW215496   0.660   8.403   1.057
 1843SOL     OW15497   1.907   0.176   1.077
 1843SOL    HW115498   1.813   0.153   1.051
 1843SOL    HW215499   1.922   0.274   1.068
 1844SOL     OW15500   0.774   3.214   1.155
 1844SOL    HW115501   0.805   3.123   1.182
 1844SOL    HW215502   0.717   3.207   1.074
 1845SOL     OW15503   3.675   2.923   0.845
 1845SOL    HW115504   3.616   2.926   0.926
 1845SOL    HW215505   3.731   3.006   0.841
 1846SOL     OW15506   0.854   9.613   2.128
 1846SOL    HW115507   0.854   9.665   2.043
 1846SOL    HW215508   0.916   9.655   2.194
 1847SOL     OW15509   0.807   7.246   1.982
 1847SOL    HW115510   0.708   7.256   1.968
 1847SOL    HW215511   0.838   7.162   1.939
 1848SOL     OW15512   2.988   2.588   1.147
 1848SOL    HW115513   3.011   2.556   1.239
 1848SOL    HW215514   2.893   2.562   1.126
 1849SOL     OW15515   1.956   0.412   1.539
 1849SOL    HW115516   2.049   0.450   1.536
 1849SOL    HW215517   1.938   0.377   1.630
 1850SOL     OW15518   1.510   6.542   1.372
 1850SOL    HW115519   1.515   6.608   1.298
 1850SOL    HW215520   1.601   6.503   1.388
 1851SOL     OW15521   1.339   4.616   1.534
 1851SOL    HW115522   1.362   4.620   1.437
 1851SOL    HW215523   1.261   4.554   1.547
 1852SOL     OW15524   0.053   2.203   0.949
 1852SOL    HW115525   0.079   2.112   0.916
 1852SOL    HW215526   0.130   2.265   0.939
 1853SOL     OW15527   2.863   9.118   1.305
 1853SOL    HW115528   2.952   9.151   1.275
 1853SOL    HW215529   2.816   9.072   1.229
 1854SOL     OW15530   0.664   8.273   0.942
 1854SOL    HW115531   0.614   8.201   0.991
 1854SOL    HW215532   0.647   8.264   0.844
 1855SOL     OW15533   3.193   5.090   1.804
 1855SOL    HW115534   3.140   5.060   1.883
 1855SOL    HW215535   3.264   5.023   1.785
 1856SOL     OW15536   1.225   7.834   1.000
 1856SOL    HW115537   1.174   7.913   0.967
 1856SOL    HW215538   1.213   7.825   1.099
 1857SOL     OW15539   9.404   5.721   0.774
 1857SOL    HW115540   9.442   5.690   0.687
 1857SOL    HW215541   9.318   5.674   0.792
 1858SOL     OW15542   0.858   5.752   0.487
 1858SOL    HW115543   0.842   5.654   0.500
 1858SOL    HW215544   0.824   5.802   0.566
 1859SOL     OW15545   1.003   7.302   0.776
 1859SOL    HW115546   1.035   7.298   0.682
 1859SOL    HW215547   0.903   7.311   0.777
 1860SOL     OW15548   3.600   4.448   0.437
 1860SOL    HW115549   3.672   4.437   0.505
 1860SOL    HW215550   3.631   4.410   0.349
 1861SOL     OW15551   1.511   5.052   1.432
 1861SOL    HW115552   1.595   5.042   1.379
 1861SOL    HW215553   1.515   4.990   1.511
 1862SOL     OW15554   0.733   5.332   0.387
 1862SOL    HW115555   0.757   5.403   0.453
 1862SOL    HW215556   0.635   5.313   0.393
 1863SOL     OW15557   9.547   1.540   1.069
 1863SOL    HW115558   9.629   1.519   1.016
 1863SOL    HW215559   9.470   1.553   1.007
 1864SOL     OW15560   2.657   3.284   0.591
 1864SOL    HW115561   2.737   3.253   0.539
 1864SOL    HW215562   2.673   3.378   0.623
 1865SOL     OW15563   3.678   4.373   2.054
 1865SOL    HW115564   3.603   4.328   2.006
 1865SOL    HW215565   3.680   4.469   2.028
 1866SOL     OW15566   0.281   0.401   1.823
 1866SOL    HW115567   0.378   0.391   1.843
 1866SOL    HW215568   0.243   0.477   1.876
 1867SOL     OW15569   2.410   6.991   1.994
 1867SOL    HW115570   2.483   6.976   1.927
 1867SOL    HW215571   2.352   6.910   1.999
 1868SOL     OW15572   0.959   3.706   1.401
 1868SOL    HW115573   1.039   3.645   1.405
 1868SOL    HW215574   0.956   3.761   1.484
 1869SOL     OW15575   1.784   6.593   1.750
 1869SOL    HW115576   1.684   6.596   1.751
 1869SOL    HW215577   1.815   6.524   1.685
 1870SOL     OW15578   9.781   1.426   0.974
 1870SOL    HW115579   9.838   1.419   0.892
 1870SOL    HW215580   9.783   1.340   1.024
 1871SOL     OW15581   1.278   1.637   1.302
 1871SOL    HW115582   1.197   1.662   1.250
 1871SOL    HW215583   1.260   1.555   1.356
 1872SOL     OW15584   2.669   5.465   2.246
 1872SOL    HW115585   2.715   5.378   2.263
 1872SOL    HW215586   2.736   5.539   2.250
 1873SOL     OW15587   0.773   4.356   1.982
 1873SOL    HW115588   0.808   4.341   1.890
 1873SOL    HW215589   0.834   4.418   2.031
 1874SOL     OW15590   2.452   5.916   1.041
 1874SOL    HW115591   2.529   5.861   1.008
 1874SOL    HW215592   2.367   5.885   0.999
 1875SOL     OW15593   1.974   3.441   0.578
 1875SOL    HW115594   2.053   3.420   0.635
 1875SOL    HW215595   1.997   3.430   0.482
 1876SOL     OW15596   0.745   2.750   1.984
 1876SOL    HW115597   0.798   2.732   1.901
 1876SOL    HW215598   0.699   2.838   1.976
 1877SOL     OW15599   4.572   1.376   0.626
 1877SOL    HW115600   4.543   1.288   0.663
 1877SOL    HW215601   4.659   1.364   0.578
 1878SOL     OW15602   3.798   4.100   1.278
 1878SOL    HW115603   3.847   4.125   1.361
 1878SOL    HW215604   3.699   4.103   1.295
 1879SOL     OW15605   0.766   1.324   1.191
 1879SOL    HW115606   0.782   1.387   1.267
 1879SOL    HW215607   0.667   1.308   1.182
 1880SOL     OW15608   0.677   0.414   0.722
 1880SOL    HW115609   0.706   0.360   0.801
 1880SOL    HW215610   0.709   0.369   0.638
 1881SOL     OW15611   0.870   8.242   1.876
 1881SOL    HW115612   0.877   8.144   1.895
 1881SOL    HW215613   0.957   8.276   1.840
 1882SOL     OW15614   0.481   3.737   1.051
 1882SOL    HW115615   0.458   3.821   1.101
 1882SOL    HW215616   0.580   3.731   1.041
 1883SOL     OW15617   9.310   2.597   0.425
 1883SOL    HW115618   9.277   2.692   0.418
 1883SOL    HW215619   9.246   2.544   0.481
 1884SOL     OW15620   2.295   6.483   2.309
 1884SOL    HW115621   2.303   6.564   2.367
 1884SOL    HW215622   2.199   6.456   2.303
 1885SOL     OW15623   4.173   4.458   0.423
 1885SOL    HW115624   4.106   4.385   0.440
 1885SOL    HW215625   4.161   4.493   0.330
 1886SOL     OW15626   1.837   3.349   1.899
 1886SOL    HW115627   1.802   3.358   1.805
 1886SOL    HW215628   1.808   3.427   1.953
 1887SOL     OW15629   0.834   3.250   1.432
 1887SOL    HW115630   0.819   3.282   1.339
 1887SOL    HW215631   0.850   3.329   1.492
 1888SOL     OW15632   9.794   4.150   1.432
 1888SOL    HW115633   9.715   4.140   1.371
 1888SOL    HW215634   9.876   4.117   1.385
 1889SOL     OW15635   0.089   0.540   1.328
 1889SOL    HW115636   0.103   0.509   1.422
 1889SOL    HW215637   0.074   0.461   1.269
 1890SOL     OW15638   1.479   1.493   0.862
 1890SOL    HW115639   1.507   1.461   0.953
 1890SOL    HW215640   1.446   1.587   0.869
 1891SOL     OW15641   0.814   6.497   1.836
 1891SOL    HW115642   0.769   6.558   1.771
 1891SOL    HW215643   0.881   6.440   1.787
 1892SOL     OW15644   0.558   5.224   1.496
 1892SOL    HW115645   0.549   5.194   1.401
 1892SOL    HW215646   0.590   5.318   1.499
 1893SOL     OW15647   3.432   8.382   1.586
 1893SOL    HW115648   3.479   8.460   1.626
 1893SOL    HW215649   3.493   8.334   1.524
 1894SOL     OW15650   0.144   3.176   0.933
 1894SOL    HW115651   0.105   3.087   0.907
 1894SOL    HW215652   0.172   3.173   1.029
 1895SOL     OW15653   0.082   0.342   1.143
 1895SOL    HW115654   0.157   0.369   1.083
 1895SOL    HW215655   0.065   0.244   1.133
 1896SOL     OW15656   9.063   2.893   1.883
 1896SOL    HW115657   9.032   2.983   1.915
 1896SOL    HW215658   9.126   2.906   1.806
 1897SOL     OW15659   0.799   8.723   0.710
 1897SOL    HW115660   0.867   8.685   0.773
 1897SOL    HW215661   0.813   8.686   0.619
 1898SOL     OW15662   2.976   8.541   1.425
 1898SOL    HW115663   2.920   8.484   1.485
 1898SOL    HW215664   2.928   8.554   1.338
 1899SOL     OW15665   1.057   6.736   1.474
 1899SOL    HW115666   1.120   6.674   1.427
 1899SOL    HW215667   1.108   6.816   1.506
 1900SOL     OW15668   2.236   4.470   0.862
 1900SOL    HW115669   2.218   4.568   0.870
 1900SOL    HW215670   2.198   4.435   0.777
 1901SOL     OW15671   4.779   2.349   1.846
 1901SOL    HW115672   4.828   2.290   1.782
 1901SOL    HW215673   4.703   2.298   1.887
 1902SOL     OW15674   1.192   2.530   2.221
 1902SOL    HW115675   1.224   2.507   2.129
 1902SOL    HW215676   1.140   2.453   2.259
 1903SOL     OW15677   2.997   7.068   2.250
 1903SOL    HW115678   3.043   7.107   2.330
 1903SOL    HW215679   2.987   6.969   2.262
 1904SOL     OW15680   9.949   0.685   0.523
 1904SOL    HW115681   0.032   0.707   0.471
 1904SOL    HW215682   9.895   0.618   0.472
 1905SOL     OW15683   2.252   3.525   1.953
 1905SOL    HW115684   2.161   3.566   1.960
 1905SOL    HW215685   2.292   3.518   2.044
 1906SOL     OW15686   8.959   2.719   2.066
 1906SOL    HW115687   9.035   2.715   2.131
 1906SOL    HW215688   8.978   2.789   1.998
 1907SOL     OW15689   4.357   4.461   1.596
 1907SOL    HW115690   4.366   4.558   1.621
 1907SOL    HW215691   4.314   4.454   1.506
 1908SOL     OW15692   1.215   8.327   2.168
 1908SOL    HW115693   1.195   8.308   2.264
 1908SOL    HW215694   1.209   8.242   2.115
 1909SOL     OW15695   2.927   3.367   1.081
 1909SOL    HW115696   2.843   3.385   1.029
 1909SOL    HW215697   2.946   3.445   1.140
 1910SOL     OW15698   3.778   9.277   1.050
 1910SOL    HW115699   3.790   9.285   1.149
 1910SOL    HW215700   3.791   9.367   1.008
 1911SOL     OW15701   2.248   5.804   0.892
 1911SOL    HW115702   2.232   5.895   0.854
 1911SOL    HW215703   2.257   5.738   0.818
 1912SOL     OW15704   1.811   9.760   1.404
 1912SOL    HW115705   1.729   9.738   1.350
 1912SOL    HW215706   1.892   9.726   1.356
 1913SOL     OW15707   9.883   3.060   2.300
 1913SOL    HW115708   9.918   3.043   2.392
 1913SOL    HW215709   9.866   3.158   2.288
 1914SOL     OW15710   3.334   3.847   0.961
 1914SOL    HW115711   3.287   3.931   0.988
 1914SOL    HW215712   3.433   3.860   0.973
 1915SOL     OW15713   9.664   3.396   1.778
 1915SOL    HW115714   9.637   3.454   1.701
 1915SOL    HW215715   9.680   3.454   1.858
 1916SOL     OW15716   2.836   5.846   0.656
 1916SOL    HW115717   2.752   5.795   0.635
 1916SOL    HW215718   2.819   5.908   0.732
 1917SOL     OW15719   3.745   0.105   1.239
 1917SOL    HW115720   3.689   0.097   1.156
 1917SOL    HW215721   3.715   0.036   1.305
 1918SOL     OW15722   2.293   8.394   1.001
 1918SOL    HW115723   2.325   8.420   0.910
 1918SOL    HW215724   2.198   8.363   0.995
 1919SOL     OW15725   3.175   8.064   1.312
 1919SOL    HW115726   3.177   8.127   1.390
 1919SOL    HW215727   3.167   8.117   1.228
 1920SOL     OW15728   4.636   2.579   1.809
 1920SOL    HW115729   4.694   2.499   1.803
 1920SOL    HW215730   4.628   2.608   1.905
 1921SOL     OW15731   1.092   5.336   1.409
 1921SOL    HW115732   1.036   5.312   1.489
 1921SOL    HW215733   1.084   5.265   1.340
 1922SOL     OW15734   3.363   8.643   2.035
 1922SOL    HW115735   3.421   8.567   2.005
 1922SOL    HW215736   3.291   8.608   2.096
 1923SOL     OW15737   0.361   5.480   1.580
 1923SOL    HW115738   0.455   5.495   1.548
 1923SOL    HW215739   0.355   5.391   1.625
 1924SOL     OW15740   9.693   5.654   1.393
 1924SOL    HW115741   9.618   5.611   1.443
 1924SOL    HW215742   9.699   5.614   1.301
 1925SOL     OW15743   1.168   4.848   1.540
 1925SOL    HW115744   1.217   4.760   1.539
 1925SOL    HW215745   1.194   4.899   1.622
 1926SOL     OW15746   4.365   2.587   1.766
 1926SOL    HW115747   4.465   2.577   1.765
 1926SOL    HW215748   4.331   2.582   1.672
 1927SOL     OW15749   0.461   3.180   1.851
 1927SOL    HW115750   0.438   3.238   1.929
 1927SOL    HW215751   0.496   3.237   1.776
 1928SOL     OW15752   2.400   7.201   2.403
 1928SOL    HW115753   2.409   7.205   2.502
 1928SOL    HW215754   2.364   7.288   2.369
 1929SOL     OW15755   3.352   0.473   2.308
 1929SOL    HW115756   3.422   0.494   2.240
 1929SOL    HW215757   3.281   0.543   2.306
 1930SOL     OW15758   9.527   1.941   0.408
 1930SOL    HW115759   9.551   2.024   0.460
 1930SOL    HW215760   9.528   1.961   0.310
 1931SOL     OW15761   0.880   4.379   1.156
 1931SOL    HW115762   0.850   4.430   1.076
 1931SOL    HW215763   0.855   4.283   1.146
 1932SOL     OW15764   2.774   4.508   0.899
 1932SOL    HW115765   2.676   4.490   0.892
 1932SOL    HW215766   2.823   4.458   0.827
 1933SOL     OW15767   4.195   9.996   1.064
 1933SOL    HW115768   4.200   9.898   1.083
 1933SOL    HW215769   4.116   0.015   1.005
 1934SOL     OW15770   2.455   4.621   1.063
 1934SOL    HW115771   2.480   4.545   1.002
 1934SOL    HW215772   2.507   4.703   1.038
 1935SOL     OW15773   2.510   0.085   1.207
 1935SOL    HW115774   2.547   0.051   1.120
 1935SOL    HW215775   2.430   0.030   1.233
 1936SOL     OW15776   3.178   8.690   1.547
 1936SOL    HW115777   3.104   8.641   1.501
 1936SOL    HW215778   3.177   8.669   1.644
 1937SOL     OW15779   1.312   9.263   1.345
 1937SOL    HW115780   1.302   9.215   1.258
 1937SOL    HW215781   1.284   9.359   1.334
 1938SOL     OW15782   2.349   5.367   1.393
 1938SOL    HW115783   2.409   5.435   1.351
 1938SOL    HW215784   2.306   5.406   1.475
 1939SOL     OW15785   1.538   1.399   1.117
 1939SOL    HW115786   1.592   1.331   1.167
 1939SOL    HW215787   1.441   1.374   1.123
 1940SOL     OW15788   2.423   7.016   0.404
 1940SOL    HW115789   2.341   7.060   0.441
 1940SOL    HW215790   2.429   7.034   0.306
 1941SOL     OW15791   3.237   3.797   0.709
 1941SOL    HW115792   3.269   3.805   0.803
 1941SOL    HW215793   3.299   3.736   0.658
 1942SOL     OW15794   1.636   4.825   2.282
 1942SOL    HW115795   1.554   4.872   2.246
 1942SOL    HW215796   1.612   4.731   2.305
 1943SOL     OW15797   4.622   3.552   0.418
 1943SOL    HW115798   4.653   3.460   0.442
 1943SOL    HW215799   4.700   3.614   0.416
 1944SOL     OW15800   2.368   8.416   0.729
 1944SOL    HW115801   2.425   8.422   0.648
 1944SOL    HW215802   2.335   8.322   0.740
 1945SOL     OW15803   0.718   9.375   0.562
 1945SOL    HW115804   0.621   9.352   0.559
 1945SOL    HW215805   0.732   9.464   0.517
 1946SOL     OW15806   2.817   4.440   1.169
 1946SOL    HW115807   2.819   4.475   1.075
 1946SOL    HW215808   2.735   4.385   1.182
 1947SOL     OW15809   2.641   7.120   1.254
 1947SOL    HW115810   2.740   7.112   1.239
 1947SOL    HW215811   2.603   7.029   1.271
 1948SOL     OW15812   4.560   4.246   0.696
 1948SOL    HW115813   4.468   4.282   0.682
 1948SOL    HW215814   4.582   4.247   0.793
 1949SOL     OW15815   1.424   8.201   1.515
 1949SOL    HW115816   1.517   8.165   1.509
 1949SOL    HW215817   1.419   8.288   1.467
 1950SOL     OW15818   2.849   5.808   1.211
 1950SOL    HW115819   2.861   5.742   1.137
 1950SOL    HW215820   2.857   5.900   1.174
 1951SOL     OW15821   0.416   5.133   0.991
 1951SOL    HW115822   0.456   5.130   0.899
 1951SOL    HW215823   0.396   5.228   1.016
 1952SOL     OW15824   1.901   6.197   2.244
 1952SOL    HW115825   1.899   6.227   2.148
 1952SOL    HW215826   1.812   6.162   2.270
 1953SOL     OW15827   0.481   5.235   0.417
 1953SOL    HW115828   0.384   5.241   0.394
 1953SOL    HW215829   0.505   5.141   0.439
 1954SOL     OW15830   0.770   0.246   0.911
 1954SOL    HW115831   0.869   0.229   0.912
 1954SOL    HW215832   0.725   0.184   0.976
 1955SOL     OW15833   3.222   9.671   0.717
 1955SOL    HW115834   3.230   9.770   0.713
 1955SOL    HW215835   3.312   9.631   0.730
 1956SOL     OW15836   0.319   4.902   1.084
 1956SOL    HW115837   0.349   4.991   1.049
 1956SOL    HW215838   0.221   4.892   1.071
 1957SOL     OW15839   3.198   2.114   0.940
 1957SOL    HW115840   3.164   2.204   0.968
 1957SOL    HW215841   3.292   2.102   0.972
 1958SOL     OW15842   1.702   5.815   0.989
 1958SOL    HW115843   1.707   5.912   0.968
 1958SOL    HW215844   1.608   5.782   0.975
 1959SOL     OW15845   1.386   2.108   1.800
 1959SOL    HW115846   1.412   2.137   1.892
 1959SOL    HW215847   1.413   2.013   1.785
 1960SOL     OW15848   4.670   2.296   1.204
 1960SOL    HW115849   4.621   2.303   1.290
 1960SOL    HW215850   4.653   2.206   1.163
 1961SOL     OW15851   0.670   4.187   1.566
 1961SOL    HW115852   0.593   4.231   1.614
 1961SOL    HW215853   0.635   4.117   1.504
 1962SOL     OW15854   3.001   1.911   1.416
 1962SOL    HW115855   2.972   1.964   1.336
 1962SOL    HW215856   2.935   1.921   1.489
 1963SOL     OW15857   1.578   7.553   1.765
 1963SOL    HW115858   1.590   7.642   1.810
 1963SOL    HW215859   1.493   7.512   1.796
 1964SOL     OW15860   9.755   6.228   1.267
 1964SOL    HW115861   9.814   6.305   1.240
 1964SOL    HW215862   9.720   6.183   1.185
 1965SOL     OW15863   3.315   4.232   0.742
 1965SOL    HW115864   3.282   4.326   0.738
 1965SOL    HW215865   3.241   4.169   0.716
 1966SOL     OW15866   9.225   4.531   1.038
 1966SOL    HW115867   9.140   4.532   1.091
 1966SOL    HW215868   9.299   4.571   1.092
 1967SOL     OW15869   0.891   7.944   0.557
 1967SOL    HW115870   0.976   7.905   0.592
 1967SOL    HW215871   0.896   8.044   0.561
 1968SOL     OW15872   9.624   2.934   0.500
 1968SOL    HW115873   9.666   3.023   0.516
 1968SOL    HW215874   9.603   2.890   0.587
 1969SOL     OW15875   1.690   8.803   1.888
 1969SOL    HW115876   1.658   8.765   1.974
 1969SOL    HW215877   1.636   8.766   1.813
 1970SOL     OW15878   9.833   3.015   1.526
 1970SOL    HW115879   9.924   3.006   1.484
 1970SOL    HW215880   9.835   3.090   1.592
 1971SOL     OW15881   4.556   3.009   2.194
 1971SOL    HW115882   4.582   2.997   2.098
 1971SOL    HW215883   4.476   3.068   2.201
 1972SOL     OW15884   0.814   2.101   1.099
 1972SOL    HW115885   0.758   2.031   1.145
 1972SOL    HW215886   0.909   2.071   1.097
 1973SOL     OW15887   2.172   9.059   2.094
 1973SOL    HW115888   2.271   9.061   2.111
 1973SOL    HW215889   2.124   9.069   2.181
 1974SOL     OW15890   3.372   4.899   1.751
 1974SOL    HW115891   3.471   4.908   1.750
 1974SOL    HW215892   3.338   4.884   1.658
 1975SOL     OW15893   3.481   1.380   1.984
 1975SOL    HW115894   3.521   1.432   1.908
 1975SOL    HW215895   3.549   1.319   2.022
 1976SOL     OW15896   3.113   2.980   1.233
 1976SOL    HW115897   3.179   2.927   1.181
 1976SOL    HW215898   3.032   2.924   1.253
 1977SOL     OW15899   2.629   7.288   1.936
 1977SOL    HW115900   2.688   7.306   1.858
 1977SOL    HW215901   2.686   7.265   2.016
 1978SOL     OW15902   2.642   6.405   1.400
 1978SOL    HW115903   2.682   6.462   1.328
 1978SOL    HW215904   2.659   6.309   1.380
 1979SOL     OW15905   2.504   3.768   1.319
 1979SOL    HW115906   2.541   3.848   1.368
 1979SOL    HW215907   2.435   3.799   1.254
 1980SOL     OW15908   0.947   0.822   0.605
 1980SOL    HW115909   0.931   0.903   0.548
 1980SOL    HW215910   1.001   0.849   0.685
 1981SOL     OW15911   4.574   1.686   1.654
 1981SOL    HW115912   4.664   1.668   1.693
 1981SOL    HW215913   4.566   1.643   1.565
 1982SOL     OW15914   4.480   2.582   0.980
 1982SOL    HW115915   4.575   2.582   1.014
 1982SOL    HW215916   4.468   2.506   0.917
 1983SOL     OW15917   2.671   1.234   0.415
 1983SOL    HW115918   2.648   1.137   0.416
 1983SOL    HW215919   2.759   1.248   0.460
 1984SOL     OW15920   1.829   5.324   1.757
 1984SOL    HW115921   1.844   5.359   1.849
 1984SOL    HW215922   1.841   5.225   1.756
 1985SOL     OW15923   1.267   0.092   1.017
 1985SOL    HW115924   1.255   0.049   1.107
 1985SOL    HW215925   1.341   0.046   0.968
 1986SOL     OW15926   2.311   0.769   2.224
 1986SOL    HW115927   2.318   0.854   2.172
 1986SOL    HW215928   2.219   0.758   2.261
 1987SOL     OW15929   0.694   8.501   1.397
 1987SOL    HW115930   0.630   8.436   1.439
 1987SOL    HW215931   0.696   8.486   1.298
 1988SOL     OW15932   0.096   4.655   1.872
 1988SOL    HW115933   0.111   4.619   1.964
 1988SOL    HW215934   0.180   4.700   1.840
 1989SOL     OW15935   3.101   4.416   1.183
 1989SOL    HW115936   3.112   4.515   1.170
 1989SOL    HW215937   3.006   4.397   1.209
 1990SOL     OW15938   1.467   4.284   1.842
 1990SOL    HW115939   1.430   4.212   1.784
 1990SOL    HW215940   1.489   4.364   1.786
 1991SOL     OW15941   2.468   0.934   0.897
 1991SOL    HW115942   2.485   0.836   0.881
 1991SOL    HW215943   2.475   0.953   0.995
 1992SOL     OW15944   9.701   5.785   2.146
 1992SOL    HW115945   9.672   5.732   2.066
 1992SOL    HW215946   9.801   5.789   2.148
 1993SOL     OW15947   1.740   4.856   1.878
 1993SOL    HW115948   1.765   4.872   1.973
 1993SOL    HW215949   1.747   4.758   1.857
 1994SOL     OW15950   3.038   1.375   2.083
 1994SOL    HW115951   3.014   1.307   2.152
 1994SOL    HW215952   3.041   1.466   2.125
 1995SOL     OW15953   2.584   8.313   1.429
 1995SOL    HW115954   2.519   8.355   1.365
 1995SOL    HW215955   2.586   8.214   1.414
 1996SOL     OW15956   0.893   8.215   0.575
 1996SOL    HW115957   0.924   8.278   0.504
 1996SOL    HW215958   0.799   8.239   0.601
 1997SOL     OW15959   3.629   5.091   0.900
 1997SOL    HW115960   3.624   5.110   0.998
 1997SOL    HW215961   3.545   5.044   0.871
 1998SOL     OW15962   3.416   9.424   1.286
 1998SOL    HW115963   3.370   9.338   1.306
 1998SOL    HW215964   3.494   9.436   1.347
 1999SOL     OW15965   2.013   3.033   2.139
 1999SOL    HW115966   2.050   3.125   2.128
 1999SOL    HW215967   2.041   2.976   2.062
 2000SOL     OW15968   1.802   5.844   0.425
 2000SOL    HW115969   1.792   5.838   0.326
 2000SOL    HW215970   1.837   5.757   0.460
 2001SOL     OW15971   1.233   6.390   0.494
 2001SOL    HW115972   1.147   6.344   0.473
 2001SOL    HW215973   1.244   6.470   0.436
 2002SOL     OW15974   1.039   9.847   1.523
 2002SOL    HW115975   1.101   9.779   1.562
 2002SOL    HW215976   1.074   9.938   1.542
 2003SOL     OW15977   3.653   1.217   2.135
 2003SOL    HW115978   3.722   1.147   2.152
 2003SOL    HW215979   3.689   1.307   2.162
 2004SOL     OW15980   2.910   7.179   0.505
 2004SOL    HW115981   2.814   7.154   0.512
 2004SOL    HW215982   2.918   7.278   0.488
 2005SOL     OW15983   2.912   7.972   0.630
 2005SOL    HW115984   3.003   7.932   0.641
 2005SOL    HW215985   2.842   7.901   0.643
 2006SOL     OW15986   0.807   5.987   2.002
 2006SOL    HW115987   0.842   6.071   2.045
 2006SOL    HW215988   0.825   5.909   2.062
 2007SOL     OW15989   0.742   9.051   1.509
 2007SOL    HW115990   0.715   9.009   1.422
 2007SOL    HW215991   0.728   8.985   1.582
 2008SOL     OW15992   3.618   9.433   1.474
 2008SOL    HW115993   3.621   9.505   1.543
 2008SOL    HW215994   3.614   9.344   1.518
 2009SOL     OW15995   1.018   5.103   2.242
 2009SOL    HW115996   0.929   5.107   2.287
 2009SOL    HW215997   1.067   5.188   2.257
 2010SOL     OW15998   1.626   5.467   1.628
 2010SOL    HW115999   1.704   5.419   1.668
 2010SOL    HW216000   1.563   5.400   1.589
 2011SOL     OW16001   0.222   5.822   1.502
 2011SOL    HW116002   0.187   5.729   1.508
 2011SOL    HW216003   0.146   5.887   1.511
 2012SOL     OW16004   2.447   0.592   1.349
 2012SOL    HW116005   2.527   0.636   1.391
 2012SOL    HW216006   2.476   0.508   1.301
 2013SOL     OW16007   9.758   0.853   1.541
 2013SOL    HW116008   9.753   0.950   1.518
 2013SOL    HW216009   9.714   0.800   1.469
 2014SOL     OW16010   0.255   6.748   1.938
 2014SOL    HW116011   0.278   6.722   2.032
 2014SOL    HW216012   0.215   6.840   1.938
 2015SOL     OW16013   0.832   3.570   2.087
 2015SOL    HW116014   0.741   3.592   2.054
 2015SOL    HW216015   0.889   3.653   2.085
 2016SOL     OW16016   0.328   7.548   2.145
 2016SOL    HW116017   0.342   7.625   2.208
 2016SOL    HW216018   0.258   7.487   2.182
 2017SOL     OW16019   2.559   2.003   0.732
 2017SOL    HW116020   2.500   2.072   0.689
 2017SOL    HW216021   2.616   1.960   0.662
 2018SOL     OW16022   2.504   4.417   0.885
 2018SOL    HW116023   2.405   4.426   0.872
 2018SOL    HW216024   2.544   4.368   0.808
 2019SOL     OW16025   2.936   2.368   0.804
 2019SOL    HW116026   2.878   2.287   0.813
 2019SOL    HW216027   2.896   2.431   0.738
 2020SOL     OW16028   2.167   4.583   2.084
 2020SOL    HW116029   2.258   4.593   2.124
 2020SOL    HW216030   2.125   4.674   2.076
 2021SOL     OW16031   4.551   2.822   0.522
 2021SOL    HW116032   4.514   2.772   0.443
 2021SOL    HW216033   4.484   2.823   0.596
 2022SOL     OW16034   3.157   1.737   0.509
 2022SOL    HW116035   3.236   1.688   0.546
 2022SOL    HW216036   3.098   1.767   0.584
 2023SOL     OW16037   1.236   6.576   1.340
 2023SOL    HW116038   1.186   6.492   1.320
 2023SOL    HW216039   1.332   6.553   1.359
 2024SOL     OW16040   0.769   2.402   0.497
 2024SOL    HW116041   0.790   2.322   0.441
 2024SOL    HW216042   0.854   2.444   0.528
 2025SOL     OW16043   3.216   0.686   0.879
 2025SOL    HW116044   3.172   0.629   0.948
 2025SOL    HW216045   3.180   0.664   0.789
 2026SOL     OW16046   2.257   1.876   1.093
 2026SOL    HW116047   2.179   1.885   1.031
 2026SOL    HW216048   2.339   1.915   1.051
 2027SOL     OW16049   3.925   1.539   0.637
 2027SOL    HW116050   3.885   1.474   0.701
 2027SOL    HW216051   3.852   1.590   0.592
 2028SOL     OW16052   4.044   0.724   1.951
 2028SOL    HW116053   4.038   0.807   1.895
 2028SOL    HW216054   3.996   0.738   2.037
 2029SOL     OW16055   0.553   8.088   1.115
 2029SOL    HW116056   0.613   8.105   1.193
 2029SOL    HW216057   0.459   8.079   1.147
 2030SOL     OW16058   3.260   0.090   1.096
 2030SOL    HW116059   3.315   0.170   1.123
 2030SOL    HW216060   3.215   0.052   1.177
 2031SOL     OW16061   0.053   2.401   0.470
 2031SOL    HW116062   9.974   2.461   0.487
 2031SOL    HW216063   0.078   2.404   0.374
 2032SOL     OW16064   5.007   2.972   1.197
 2032SOL    HW116065   4.970   3.032   1.267
 2032SOL    HW216066   4.962   2.883   1.202
 2033SOL     OW16067   1.790   5.726   1.249
 2033SOL    HW116068   1.716   5.712   1.315
 2033SOL    HW216069   1.752   5.751   1.160
 2034SOL     OW16070   9.476   3.121   2.127
 2034SOL    HW116071   9.478   3.148   2.030
 2034SOL    HW216072   9.551   3.057   2.144
 2035SOL     OW16073   1.307   2.483   1.979
 2035SOL    HW116074   1.282   2.491   1.883
 2035SOL    HW216075   1.406   2.489   1.988
 2036SOL     OW16076   3.260   9.576   1.678
 2036SOL    HW116077   3.237   9.480   1.695
 2036SOL    HW216078   3.338   9.603   1.735
 2037SOL     OW16079   1.360   6.669   0.719
 2037SOL    HW116080   1.282   6.706   0.670
 2037SOL    HW216081   1.330   6.627   0.805
 2038SOL     OW16082   1.431   4.971   2.170
 2038SOL    HW116083   1.337   4.938   2.168
 2038SOL    HW216084   1.462   4.990   2.077
 2039SOL     OW16085   9.958   5.373   0.991
 2039SOL    HW116086   9.922   5.438   0.924
 2039SOL    HW216087   0.054   5.395   1.010
 2040SOL     OW16088   2.857   6.465   0.834
 2040SOL    HW116089   2.850   6.564   0.845
 2040SOL    HW216090   2.880   6.443   0.739
 2041SOL     OW16091   0.409   2.705   2.161
 2041SOL    HW116092   0.501   2.685   2.194
 2041SOL    HW216093   0.393   2.804   2.163
 2042SOL     OW16094   2.625   3.558   1.446
 2042SOL    HW116095   2.580   3.636   1.404
 2042SOL    HW216096   2.688   3.590   1.517
 2043SOL     OW16097   9.733   4.579   0.371
 2043SOL    HW116098   9.665   4.607   0.303
 2043SOL    HW216099   9.694   4.591   0.463
 2044SOL     OW16100   3.205   8.972   1.513
 2044SOL    HW116101   3.141   9.016   1.576
 2044SOL    HW216102   3.192   8.873   1.516
 2045SOL     OW16103   4.161   1.606   1.487
 2045SOL    HW116104   4.139   1.700   1.462
 2045SOL    HW216105   4.144   1.546   1.409
 2046SOL     OW16106   1.208   7.792   0.453
 2046SOL    HW116107   1.174   7.808   0.546
 2046SOL    HW216108   1.253   7.875   0.420
 2047SOL     OW16109   9.241   1.765   1.399
 2047SOL    HW116110   9.338   1.762   1.419
 2047SOL    HW216111   9.220   1.703   1.323
 2048SOL     OW16112   2.831   6.739   0.854
 2048SOL    HW116113   2.763   6.777   0.791
 2048SOL    HW216114   2.863   6.810   0.916
 2049SOL     OW16115   9.547   5.322   0.568
 2049SOL    HW116116   9.479   5.268   0.517
 2049SOL    HW216117   9.525   5.320   0.665
 2050SOL     OW16118   3.604   3.715   2.201
 2050SOL    HW116119   3.547   3.768   2.264
 2050SOL    HW216120   3.699   3.745   2.208
 2051SOL     OW16121   3.278   0.572   1.599
 2051SOL    HW116122   3.302   0.636   1.526
 2051SOL    HW216123   3.218   0.500   1.562
 2052SOL     OW16124   2.212   7.396   1.536
 2052SOL    HW116125   2.141   7.429   1.474
 2052SOL    HW216126   2.193   7.301   1.560
 2053SOL     OW16127   2.884   3.161   0.479
 2053SOL    HW116128   2.957   3.180   0.545
 2053SOL    HW216129   2.925   3.143   0.389
 2054SOL     OW16130   2.592   6.070   1.877
 2054SOL    HW116131   2.588   6.089   1.975
 2054SOL    HW216132   2.577   5.973   1.862
 2055SOL     OW16133   9.301   2.226   0.498
 2055SOL    HW116134   9.400   2.209   0.499
 2055SOL    HW216135   9.252   2.140   0.505
 2056SOL     OW16136   3.126   8.680   0.749
 2056SOL    HW116137   3.175   8.620   0.812
 2056SOL    HW216138   3.140   8.648   0.655
 2057SOL     OW16139   2.380   4.223   2.278
 2057SOL    HW116140   2.359   4.193   2.371
 2057SOL    HW216141   2.296   4.253   2.233
 2058SOL     OW16142   0.646   2.500   1.264
 2058SOL    HW116143   0.592   2.484   1.346
 2058SOL    HW216144   0.628   2.427   1.198
 2059SOL     OW16145   9.943   5.014   1.617
 2059SOL    HW116146   9.879   5.091   1.617
 2059SOL    HW216147   9.996   5.014   1.701
 2060SOL     OW16148   9.500   1.521   2.197
 2060SOL    HW116149   9.435   1.560   2.132
 2060SOL    HW216150   9.570   1.590   2.220
 2061SOL     OW16151   2.770   2.104   1.854
 2061SOL    HW116152   2.870   2.107   1.858
 2061SOL    HW216153   2.733   2.102   1.946
 2062SOL     OW16154   3.106   1.329   1.652
 2062SOL    HW116155   3.148   1.361   1.736
 2062SOL    HW216156   3.030   1.267   1.673
 2063SOL     OW16157   1.390   8.712   0.502
 2063SOL    HW116158   1.357   8.761   0.583
 2063SOL    HW216159   1.368   8.764   0.420
 2064SOL     OW16160   0.567   1.490   0.482
 2064SOL    HW116161   0.667   1.500   0.486
 2064SOL    HW216162   0.525   1.577   0.457
 2065SOL     OW16163   3.056   4.924   1.984
 2065SOL    HW116164   3.075   4.859   1.911
 2065SOL    HW216165   2.966   4.907   2.023
 2066SOL     OW16166   3.098   4.142   1.413
 2066SOL    HW116167   3.152   4.220   1.381
 2066SOL    HW216168   3.159   4.067   1.438
 2067SOL     OW16169   0.510   3.222   2.173
 2067SOL    HW116170   0.491   3.314   2.138
 2067SOL    HW216171   0.608   3.210   2.184
 2068SOL     OW16172   1.113   9.003   1.289
 2068SOL    HW116173   1.055   9.067   1.341
 2068SOL    HW216174   1.154   9.052   1.212
 2069SOL     OW16175   3.821   4.409   0.597
 2069SOL    HW116176   3.899   4.364   0.553
 2069SOL    HW216177   3.854   4.470   0.668
 2070SOL     OW16178   1.975   5.373   1.527
 2070SOL    HW116179   1.971   5.290   1.472
 2070SOL    HW216180   1.922   5.361   1.611
 2071SOL     OW16181   9.982   3.067   0.459
 2071SOL    HW116182   9.917   3.132   0.498
 2071SOL    HW216183   0.074   3.086   0.494
 2072SOL     OW16184   5.190   2.499   1.494
 2072SOL    HW116185   5.264   2.546   1.543
 2072SOL    HW216186   5.227   2.452   1.414
 2073SOL     OW16187   1.845   9.633   1.645
 2073SOL    HW116188   1.823   9.684   1.562
 2073SOL    HW216189   1.920   9.677   1.693
 2074SOL     OW16190   3.698   3.196   1.837
 2074SOL    HW116191   3.780   3.194   1.780
 2074SOL    HW216192   3.628   3.253   1.793
 2075SOL     OW16193   1.934   5.932   1.890
 2075SOL    HW116194   1.913   6.021   1.851
 2075SOL    HW216195   1.929   5.862   1.819
 2076SOL     OW16196   2.550   6.167   1.087
 2076SOL    HW116197   2.588   6.207   1.003
 2076SOL    HW216198   2.513   6.077   1.067
 2077SOL     OW16199   2.351   5.983   2.069
 2077SOL    HW116200   2.289   6.058   2.046
 2077SOL    HW216201   2.315   5.897   2.034
 2078SOL     OW16202   1.613   6.669   1.143
 2078SOL    HW116203   1.712   6.663   1.145
 2078SOL    HW216204   1.585   6.763   1.124
 2079SOL     OW16205   2.397   7.998   1.639
 2079SOL    HW116206   2.476   8.006   1.579
 2079SOL    HW216207   2.399   7.909   1.685
 2080SOL     OW16208   3.952   2.984   1.072
 2080SOL    HW116209   3.944   3.084   1.063
 2080SOL    HW216210   3.902   2.954   1.153
 2081SOL     OW16211   3.652   4.905   1.777
 2081SOL    HW116212   3.641   4.820   1.725
 2081SOL    HW216213   3.698   4.885   1.864
 2082SOL     OW16214   2.912   9.334   1.853
 2082SOL    HW116215   2.848   9.266   1.818
 2082SOL    HW216216   2.869   9.384   1.929
 2083SOL     OW16217   2.099   8.453   0.663
 2083SOL    HW116218   2.198   8.447   0.675
 2083SOL    HW216219   2.066   8.540   0.700
 2084SOL     OW16220   0.475   4.144   0.885
 2084SOL    HW116221   0.386   4.104   0.906
 2084SOL    HW216222   0.543   4.072   0.873
 2085SOL     OW16223   2.879   8.814   0.488
 2085SOL    HW116224   2.961   8.864   0.461
 2085SOL    HW216225   2.876   8.807   0.588
 2086SOL     OW16226   2.913   0.069   1.200
 2086SOL    HW116227   2.851   0.114   1.265
 2086SOL    HW216228   2.996   0.042   1.248
 2087SOL     OW16229   3.438   0.787   1.978
 2087SOL    HW116230   3.416   0.864   2.038
 2087SOL    HW216231   3.355   0.753   1.935
 2088SOL     OW16232   2.525   3.076   0.703
 2088SOL    HW116233   2.554   3.067   0.799
 2088SOL    HW216234   2.558   3.164   0.667
 2089SOL     OW16235   9.594   3.507   1.309
 2089SOL    HW116236   9.639   3.486   1.223
 2089SOL    HW216237   9.525   3.578   1.294
 2090SOL     OW16238   1.414   2.671   1.350
 2090SOL    HW116239   1.446   2.646   1.441
 2090SOL    HW216240   1.314   2.667   1.348
 2091SOL     OW16241   4.890   3.484   0.970
 2091SOL    HW116242   4.840   3.483   0.883
 2091SOL    HW216243   4.827   3.465   1.045
 2092SOL     OW16244   1.766   9.778   2.151
 2092SOL    HW116245   1.740   9.681   2.158
 2092SOL    HW216246   1.861   9.789   2.179
 2093SOL     OW16247   2.527   8.010   2.263
 2093SOL    HW116248   2.519   8.107   2.286
 2093SOL    HW216249   2.492   7.994   2.171
 2094SOL     OW16250   2.903   9.082   0.700
 2094SOL    HW116251   2.836   9.155   0.715
 2094SOL    HW216252   2.990   9.110   0.739
 2095SOL     OW16253   2.379   3.370   1.554
 2095SOL    HW116254   2.435   3.325   1.484
 2095SOL    HW216255   2.335   3.450   1.515
 2096SOL     OW16256   3.466   3.483   2.072
 2096SOL    HW116257   3.495   3.543   1.998
 2096SOL    HW216258   3.516   3.505   2.155
 2097SOL     OW16259   4.066   0.239   1.921
 2097SOL    HW116260   4.090   0.329   1.956
 2097SOL    HW216261   4.122   0.170   1.966
 2098SOL     OW16262   0.966   6.225   0.971
 2098SOL    HW116263   1.029   6.278   0.916
 2098SOL    HW216264   0.877   6.271   0.975
 2099SOL     OW16265   9.405   1.969   1.654
 2099SOL    HW116266   9.424   1.906   1.579
 2099SOL    HW216267   9.482   1.967   1.719
 2100SOL     OW16268   0.654   4.727   1.243
 2100SOL    HW116269   0.754   4.735   1.242
 2100SOL    HW216270   0.619   4.738   1.150
 2101SOL     OW16271   0.804   2.997   0.813
 2101SOL    HW116272   0.764   2.923   0.867
 2101SOL    HW216273   0.783   2.982   0.716
 2102SOL     OW16274   0.446   9.363   0.515
 2102SOL    HW116275   0.400   9.277   0.534
 2102SOL    HW216276   0.439   9.384   0.417
 2103SOL     OW16277   1.701   2.347   1.208
 2103SOL    HW116278   1.613   2.395   1.198
 2103SOL    HW216279   1.743   2.337   1.118
 2104SOL     OW16280   0.814   3.579   0.714
 2104SOL    HW116281   0.775   3.599   0.625
 2104SOL    HW216282   0.747   3.531   0.771
 2105SOL     OW16283   0.191   1.805   0.540
 2105SOL    HW116284   0.243   1.885   0.569
 2105SOL    HW216285   0.094   1.828   0.535
 2106SOL     OW16286   5.131   3.824   0.721
 2106SOL    HW116287   5.123   3.789   0.627
 2106SOL    HW216288   5.066   3.899   0.735
 2107SOL     OW16289   4.036   0.608   0.464
 2107SOL    HW116290   4.122   0.629   0.511
 2107SOL    HW216291   3.979   0.690   0.461
 2108SOL     OW16292   3.352   5.048   0.537
 2108SOL    HW116293   3.442   5.006   0.546
 2108SOL    HW216294   3.361   5.147   0.524
 2109SOL     OW16295   2.162   9.305   1.966
 2109SOL    HW116296   2.167   9.214   2.005
 2109SOL    HW216297   2.077   9.315   1.915
 2110SOL     OW16298   2.754   5.474   0.661
 2110SOL    HW116299   2.695   5.443   0.736
 2110SOL    HW216300   2.835   5.519   0.698
 2111SOL     OW16301   0.367   4.893   1.356
 2111SOL    HW116302   0.457   4.932   1.373
 2111SOL    HW216303   0.347   4.896   1.258
 2112SOL     OW16304   4.077   2.432   0.561
 2112SOL    HW116305   4.134   2.514   0.556
 2112SOL    HW216306   3.991   2.454   0.606
 2113SOL     OW16307   4.088   4.071   1.152
 2113SOL    HW116308   3.996   4.099   1.178
 2113SOL    HW216309   4.086   4.031   1.061
 2114SOL     OW16310   2.728   9.290   0.719
 2114SOL    HW116311   2.766   9.356   0.654
 2114SOL    HW216312   2.629   9.304   0.725
 2115SOL     OW16313   1.550   5.281   1.162
 2115SOL    HW116314   1.482   5.328   1.220
 2115SOL    HW216315   1.506   5.249   1.079
 2116SOL     OW16316   2.936   5.772   1.470
 2116SOL    HW116317   2.916   5.796   1.375
 2116SOL    HW216318   2.939   5.672   1.479
 2117SOL     OW16319   5.047   2.672   0.551
 2117SOL    HW116320   4.957   2.704   0.579
 2117SOL    HW216321   5.111   2.749   0.548
 2118SOL     OW16322   1.398   3.201   0.698
 2118SOL    HW116323   1.384   3.202   0.599
 2118SOL    HW216324   1.411   3.294   0.731
 2119SOL     OW16325   0.318   4.808   1.793
 2119SOL    HW116326   0.401   4.864   1.795
 2119SOL    HW216327   0.301   4.778   1.699
 2120SOL     OW16328   1.034   8.350   0.767
 2120SOL    HW116329   1.128   8.316   0.765
 2120SOL    HW216330   0.979   8.302   0.699
 2121SOL     OW16331   0.997   8.604   0.861
 2121SOL    HW116332   1.002   8.512   0.822
 2121SOL    HW216333   1.089   8.637   0.882
 2122SOL     OW16334   1.091   3.695   1.866
 2122SOL    HW116335   1.109   3.598   1.885
 2122SOL    HW216336   1.144   3.724   1.787
 2123SOL     OW16337   0.411   6.547   1.542
 2123SOL    HW116338   0.431   6.601   1.460
 2123SOL    HW216339   0.409   6.607   1.622
 2124SOL     OW16340   4.385   2.268   2.152
 2124SOL    HW116341   4.339   2.335   2.094
 2124SOL    HW216342   4.458   2.313   2.203
 2125SOL     OW16343   0.213   9.994   1.111
 2125SOL    HW116344   0.122   9.969   1.078
 2125SOL    HW216345   0.274   9.915   1.105
 2126SOL     OW16346   2.913   4.886   0.408
 2126SOL    HW116347   3.009   4.904   0.385
 2126SOL    HW216348   2.900   4.788   0.422
 2127SOL     OW16349   2.986   5.157   2.327
 2127SOL    HW116350   2.984   5.223   2.402
 2127SOL    HW216351   3.018   5.202   2.244
 2128SOL     OW16352   8.777   2.209   1.455
 2128SOL    HW116353   8.855   2.227   1.516
 2128SOL    HW216354   8.704   2.166   1.507
 2129SOL     OW16355   0.248   1.651   0.764
 2129SOL    HW116356   0.227   1.693   0.676
 2129SOL    HW216357   0.227   1.716   0.838
 2130SOL     OW16358   9.323   1.674   2.040
 2130SOL    HW116359   9.313   1.742   2.113
 2130SOL    HW216360   9.232   1.643   2.011
 2131SOL     OW16361   2.140   8.559   1.429
 2131SOL    HW116362   2.062   8.505   1.462
 2131SOL    HW216363   2.222   8.502   1.432
 2132SOL     OW16364   0.770   1.828   1.915
 2132SOL    HW116365   0.733   1.920   1.931
 2132SOL    HW216366   0.853   1.816   1.969
 2133SOL     OW16367   1.324   0.491   0.918
 2133SOL    HW116368   1.357   0.577   0.955
 2133SOL    HW216369   1.226   0.481   0.939
 2134SOL     OW16370   1.262   5.906   2.171
 2134SOL    HW116371   1.338   5.972   2.169
 2134SOL    HW216372   1.182   5.948   2.213
 2135SOL     OW16373   0.360   0.781   1.761
 2135SOL    HW116374   0.279   0.834   1.739
 2135SOL    HW216375   0.372   0.709   1.693
 2136SOL     OW16376   2.496   8.657   0.453
 2136SOL    HW116377   2.423   8.681   0.516
 2136SOL    HW216378   2.543   8.740   0.424
 2137SOL     OW16379   3.256   1.783   2.082
 2137SOL    HW116380   3.253   1.731   1.997
 2137SOL    HW216381   3.296   1.872   2.065
 2138SOL     OW16382   1.494   4.824   0.952
 2138SOL    HW116383   1.421   4.818   1.020
 2138SOL    HW216384   1.581   4.841   0.999
 2139SOL     OW16385   2.350   4.765   0.571
 2139SOL    HW116386   2.394   4.787   0.484
 2139SOL    HW216387   2.251   4.756   0.558
 2140SOL     OW16388   0.287   2.021   1.341
 2140SOL    HW116389   0.311   1.940   1.288
 2140SOL    HW216390   0.333   2.017   1.430
 2141SOL     OW16391   4.246   1.404   0.798
 2141SOL    HW116392   4.230   1.482   0.737
 2141SOL    HW216393   4.326   1.422   0.855
 2142SOL     OW16394   2.594   8.030   1.425
 2142SOL    HW116395   2.647   8.024   1.341
 2142SOL    HW216396   2.647   7.993   1.501
 2143SOL     OW16397   3.741   1.770   0.972
 2143SOL    HW116398   3.772   1.841   1.036
 2143SOL    HW216399   3.652   1.795   0.935
 2144SOL     OW16400   0.706   4.264   0.589
 2144SOL    HW116401   0.708   4.249   0.490
 2144SOL    HW216402   0.613   4.291   0.616
 2145SOL     OW16403   4.172   2.831   0.379
 2145SOL    HW116404   4.202   2.752   0.434
 2145SOL    HW216405   4.140   2.799   0.291
 2146SOL     OW16406   9.717   2.640   1.301
 2146SOL    HW116407   9.709   2.703   1.378
 2146SOL    HW216408   9.704   2.546   1.333
 2147SOL     OW16409   0.185   7.193   1.802
 2147SOL    HW116410   0.258   7.153   1.746
 2147SOL    HW216411   0.178   7.291   1.782
 2148SOL     OW16412   4.205   3.694   0.668
 2148SOL    HW116413   4.258   3.743   0.737
 2148SOL    HW216414   4.267   3.649   0.604
 2149SOL     OW16415   0.120   0.888   2.208
 2149SOL    HW116416   0.104   0.841   2.295
 2149SOL    HW216417   0.214   0.871   2.178
 2150SOL     OW16418   2.776   3.918   2.193
 2150SOL    HW116419   2.831   3.863   2.130
 2150SOL    HW216420   2.834   3.985   2.239
 2151SOL     OW16421   2.764   8.573   0.430
 2151SOL    HW116422   2.813   8.660   0.437
 2151SOL    HW216423   2.666   8.590   0.432
 2152SOL     OW16424   0.163   7.004   1.993
 2152SOL    HW116425   0.071   6.999   2.031
 2152SOL    HW216426   0.166   7.076   1.923
 2153SOL     OW16427   3.221   2.912   2.189
 2153SOL    HW116428   3.160   2.853   2.135
 2153SOL    HW216429   3.309   2.866   2.201
 2154SOL     OW16430   3.179   3.502   0.421
 2154SOL    HW116431   3.174   3.551   0.334
 2154SOL    HW216432   3.195   3.405   0.405
 2155SOL     OW16433   2.971   7.682   1.094
 2155SOL    HW116434   2.999   7.598   1.140
 2155SOL    HW216435   3.043   7.711   1.031
 2156SOL     OW16436   0.444   1.725   0.444
 2156SOL    HW116437   0.493   1.807   0.476
 2156SOL    HW216438   0.346   1.739   0.456
 2157SOL     OW16439   4.799   2.768   0.619
 2157SOL    HW116440   4.709   2.786   0.579
 2157SOL    HW216441   4.809   2.819   0.704
 2158SOL     OW16442   9.342   2.694   2.010
 2158SOL    HW116443   9.369   2.779   1.965
 2158SOL    HW216444   9.287   2.715   2.091
 2159SOL     OW16445   0.537   3.338   1.644
 2159SOL    HW116446   0.548   3.276   1.567
 2159SOL    HW216447   0.580   3.426   1.622
 2160SOL     OW16448   0.689   2.072   1.484
 2160SOL    HW116449   0.742   2.154   1.506
 2160SOL    HW216450   0.733   2.023   1.409
 2161SOL     OW16451   2.433   2.928   1.754
 2161SOL    HW116452   2.397   2.972   1.836
 2161SOL    HW216453   2.423   2.828   1.763
 2162SOL     OW16454   2.450   0.408   0.519
 2162SOL    HW116455   2.413   0.334   0.464
 2162SOL    HW216456   2.549   0.408   0.513
 2163SOL     OW16457   1.873   0.329   1.786
 2163SOL    HW116458   1.938   0.319   1.861
 2163SOL    HW216459   1.781   0.336   1.822
 2164SOL     OW16460   1.774   7.715   2.297
 2164SOL    HW116461   1.841   7.670   2.356
 2164SOL    HW216462   1.721   7.645   2.248
 2165SOL     OW16463   0.533   7.221   1.936
 2165SOL    HW116464   0.509   7.187   1.845
 2165SOL    HW216465   0.493   7.161   2.005
 2166SOL     OW16466   1.719   8.863   2.229
 2166SOL    HW116467   1.663   8.789   2.189
 2166SOL    HW216468   1.659   8.936   2.261
 2167SOL     OW16469   2.338   1.539   0.803
 2167SOL    HW116470   2.318   1.563   0.898
 2167SOL    HW216471   2.351   1.623   0.750
 2168SOL     OW16472   0.154   6.027   1.785
 2168SOL    HW116473   0.133   5.940   1.831
 2168SOL    HW216474   0.073   6.085   1.787
 2169SOL     OW16475   3.607   7.777   1.319
 2169SOL    HW116476   3.524   7.827   1.345
 2169SOL    HW216477   3.629   7.711   1.391
 2170SOL     OW16478   0.863   7.568   1.159
 2170SOL    HW116479   0.932   7.521   1.105
 2170SOL    HW216480   0.860   7.664   1.132
 2171SOL     OW16481   4.236   3.448   2.214
 2171SOL    HW116482   4.186   3.455   2.300
 2171SOL    HW216483   4.285   3.361   2.210
 2172SOL     OW16484   1.779   4.130   1.629
 2172SOL    HW116485   1.743   4.078   1.551
 2172SOL    HW216486   1.745   4.089   1.714
 2173SOL     OW16487   1.635   2.327   2.212
 2173SOL    HW116488   1.731   2.351   2.227
 2173SOL    HW216489   1.603   2.265   2.283
 2174SOL     OW16490   2.950   0.667   2.021
 2174SOL    HW116491   3.009   0.587   2.027
 2174SOL    HW216492   2.937   0.692   1.925
 2175SOL     OW16493   9.479   5.157   1.679
 2175SOL    HW116494   9.380   5.162   1.689
 2175SOL    HW216495   9.518   5.115   1.761
 2176SOL     OW16496   0.084   5.312   0.567
 2176SOL    HW116497   9.987   5.311   0.591
 2176SOL    HW216498   0.139   5.322   0.650
 2177SOL     OW16499   4.410   0.451   1.666
 2177SOL    HW116500   4.428   0.453   1.765
 2177SOL    HW216501   4.473   0.386   1.623
 2178SOL     OW16502   0.335   6.888   1.005
 2178SOL    HW116503   0.253   6.943   0.986
 2178SOL    HW216504   0.394   6.888   0.924
 2179SOL     OW16505   5.034   2.664   1.003
 2179SOL    HW116506   4.969   2.689   1.074
 2179SOL    HW216507   5.070   2.572   1.022
 2180SOL     OW16508   4.393   3.569   1.830
 2180SOL    HW116509   4.362   3.612   1.745
 2180SOL    HW216510   4.325   3.583   1.902
 2181SOL     OW16511   1.658   0.171   1.348
 2181SOL    HW116512   1.565   0.208   1.351
 2181SOL    HW216513   1.724   0.246   1.337
 2182SOL     OW16514   1.378   4.550   0.588
 2182SOL    HW116515   1.300   4.566   0.527
 2182SOL    HW216516   1.390   4.451   0.600
 2183SOL     OW16517   1.163   3.558   0.510
 2183SOL    HW116518   1.111   3.474   0.523
 2183SOL    HW216519   1.102   3.637   0.521
 2184SOL     OW16520   3.068   4.319   0.926
 2184SOL    HW116521   3.133   4.378   0.879
 2184SOL    HW216522   3.074   4.335   1.025
 2185SOL     OW16523   2.014   8.686   0.767
 2185SOL    HW116524   2.061   8.774   0.761
 2185SOL    HW216525   1.993   8.666   0.863
 2186SOL     OW16526   0.895   6.213   2.141
 2186SOL    HW116527   0.978   6.266   2.158
 2186SOL    HW216528   0.819   6.275   2.121
 2187SOL     OW16529   2.406   4.905   2.068
 2187SOL    HW116530   2.342   4.953   2.128
 2187SOL    HW216531   2.422   4.961   1.987
 2188SOL     OW16532   2.594   4.129   2.129
 2188SOL    HW116533   2.628   4.039   2.154
 2188SOL    HW216534   2.513   4.151   2.183
 2189SOL     OW16535   0.620   3.448   0.857
 2189SOL    HW116536   0.631   3.350   0.872
 2189SOL    HW216537   0.528   3.467   0.822
 2190SOL     OW16538   2.396   8.072   0.478
 2190SOL    HW116539   2.443   8.024   0.404
 2190SOL    HW216540   2.463   8.117   0.537
 2191SOL     OW16541   2.051   9.734   1.788
 2191SOL    HW116542   2.057   9.673   1.867
 2191SOL    HW216543   2.136   9.730   1.736
 2192SOL     OW16544   2.778   7.504   2.184
 2192SOL    HW116545   2.784   7.405   2.174
 2192SOL    HW216546   2.709   7.526   2.253
 2193SOL     OW16547   2.448   4.512   0.372
 2193SOL    HW116548   2.527   4.518   0.432
 2193SOL    HW216549   2.420   4.604   0.344
 2194SOL     OW16550   1.878   4.397   1.182
 2194SOL    HW116551   1.829   4.312   1.165
 2194SOL    HW216552   1.812   4.472   1.190
 2195SOL     OW16553   1.188   3.144   2.156
 2195SOL    HW116554   1.144   3.077   2.097
 2195SOL    HW216555   1.121   3.210   2.188
 2196SOL     OW16556   3.485   8.907   0.606
 2196SOL    HW116557   3.504   8.894   0.703
 2196SOL    HW216558   3.568   8.889   0.553
 2197SOL     OW16559   2.546   9.646   1.077
 2197SOL    HW116560   2.538   9.631   0.979
 2197SOL    HW216561   2.515   9.738   1.099
 2198SOL     OW16562   1.084   4.803   1.905
 2198SOL    HW116563   1.167   4.758   1.873
 2198SOL    HW216564   1.004   4.753   1.874
 2199SOL     OW16565   2.691   2.156   1.068
 2199SOL    HW116566   2.634   2.238   1.073
 2199SOL    HW216567   2.737   2.153   0.979
 2200SOL     OW16568   9.811   1.214   2.018
 2200SOL    HW116569   9.899   1.171   2.040
 2200SOL    HW216570   9.788   1.197   1.923
 2201SOL     OW16571   0.767   0.973   1.599
 2201SOL    HW116572   0.792   1.069   1.604
 2201SOL    HW216573   0.730   0.953   1.508
 2202SOL     OW16574   4.966   2.458   0.400
 2202SOL    HW116575   5.006   2.541   0.440
 2202SOL    HW216576   5.001   2.446   0.307
 2203SOL     OW16577   9.380   2.276   1.048
 2203SOL    HW116578   9.471   2.304   1.078
 2203SOL    HW216579   9.366   2.179   1.069
 2204SOL     OW16580   1.971   5.127   1.387
 2204SOL    HW116581   2.067   5.117   1.360
 2204SOL    HW216582   1.942   5.045   1.436
 2205SOL     OW16583   1.245   4.281   0.976
 2205SOL    HW116584   1.334   4.310   0.941
 2205SOL    HW216585   1.253   4.188   1.014
 2206SOL     OW16586   1.661   1.173   0.597
 2206SOL    HW116587   1.753   1.141   0.620
 2206SOL    HW216588   1.624   1.116   0.524
 2207SOL     OW16589   0.518   7.181   0.852
 2207SOL    HW116590   0.488   7.218   0.939
 2207SOL    HW216591   0.586   7.109   0.868
 2208SOL     OW16592   1.999   4.466   1.416
 2208SOL    HW116593   1.967   4.436   1.326
 2208SOL    HW216594   2.020   4.564   1.413
 2209SOL     OW16595   1.224   9.162   1.096
 2209SOL    HW116596   1.142   9.218   1.095
 2209SOL    HW216597   1.261   9.155   1.003
 2210SOL     OW16598   3.177   4.926   0.363
 2210SOL    HW116599   3.241   4.973   0.424
 2210SOL    HW216600   3.228   4.878   0.292
 2211SOL     OW16601   0.741   0.636   1.011
 2211SOL    HW116602   0.656   0.679   1.040
 2211SOL    HW216603   0.749   0.643   0.911
 2212SOL     OW16604   1.072   8.528   1.314
 2212SOL    HW116605   1.036   8.609   1.267
 2212SOL    HW216606   1.095   8.552   1.408
 2213SOL     OW16607   1.982   0.985   1.290
 2213SOL    HW116608   1.951   1.059   1.349
 2213SOL    HW216609   1.905   0.954   1.233
 2214SOL     OW16610   2.588   8.181   0.646
 2214SOL    HW116611   2.576   8.266   0.595
 2214SOL    HW216612   2.672   8.186   0.700
 2215SOL     OW16613   2.418   8.702   1.121
 2215SOL    HW116614   2.323   8.682   1.146
 2215SOL    HW216615   2.431   8.685   1.024
 2216SOL     OW16616   9.354   2.481   1.374
 2216SOL    HW116617   9.328   2.541   1.450
 2216SOL    HW216618   9.288   2.407   1.366
 2217SOL     OW16619   2.721   8.019   1.183
 2217SOL    HW116620   2.648   8.017   1.115
 2217SOL    HW216621   2.794   8.081   1.152
 2218SOL     OW16622   2.542   8.277   1.006
 2218SOL    HW116623   2.534   8.177   1.004
 2218SOL    HW216624   2.451   8.317   1.019
 2219SOL     OW16625   2.121   0.652   1.729
 2219SOL    HW116626   2.022   0.665   1.718
 2219SOL    HW216627   2.167   0.741   1.727
 2220SOL     OW16628   2.354   2.957   0.528
 2220SOL    HW116629   2.376   2.861   0.512
 2220SOL    HW216630   2.415   2.995   0.597
 2221SOL     OW16631   9.728   1.363   2.230
 2221SOL    HW116632   9.635   1.399   2.223
 2221SOL    HW216633   9.745   1.298   2.156
 2222SOL     OW16634   3.803   5.048   1.454
 2222SOL    HW116635   3.794   5.086   1.546
 2222SOL    HW216636   3.899   5.050   1.426
 2223SOL     OW16637   1.773   0.711   1.410
 2223SOL    HW116638   1.747   0.623   1.371
 2223SOL    HW216639   1.790   0.776   1.336
 2224SOL     OW16640   1.491   3.909   1.040
 2224SOL    HW116641   1.469   3.817   1.074
 2224SOL    HW216642   1.422   3.973   1.071
 2225SOL     OW16643   0.557   9.477   1.925
 2225SOL    HW116644   0.644   9.456   1.880
 2225SOL    HW216645   0.561   9.569   1.963
 2226SOL     OW16646   9.977   5.797   2.168
 2226SOL    HW116647   0.009   5.707   2.199
 2226SOL    HW216648   0.008   5.867   2.233
 2227SOL     OW16649   3.120   0.369   1.495
 2227SOL    HW116650   3.158   0.276   1.503
 2227SOL    HW216651   3.108   0.392   1.399
 2228SOL     OW16652   2.575   9.555   1.762
 2228SOL    HW116653   2.594   9.616   1.839
 2228SOL    HW216654   2.506   9.488   1.788
 2229SOL     OW16655   2.366   6.535   2.047
 2229SOL    HW116656   2.344   6.508   2.140
 2229SOL    HW216657   2.460   6.509   2.026
 2230SOL     OW16658   3.314   2.345   1.212
 2230SOL    HW116659   3.245   2.335   1.140
 2230SOL    HW216660   3.286   2.293   1.292
 2231SOL     OW16661   1.158   5.344   2.255
 2231SOL    HW116662   1.207   5.403   2.319
 2231SOL    HW216663   1.218   5.321   2.179
 2232SOL     OW16664   9.917   2.323   1.161
 2232SOL    HW116665   9.819   2.311   1.141
 2232SOL    HW216666   9.971   2.275   1.092
 2233SOL     OW16667   0.378   6.175   0.600
 2233SOL    HW116668   0.410   6.270   0.594
 2233SOL    HW216669   0.445   6.120   0.650
 2234SOL     OW16670   4.688   2.734   1.586
 2234SOL    HW116671   4.717   2.664   1.520
 2234SOL    HW216672   4.668   2.691   1.674
 2235SOL     OW16673   2.291   3.150   2.029
 2235SOL    HW116674   2.213   3.212   2.028
 2235SOL    HW216675   2.375   3.203   2.014
 2236SOL     OW16676   2.975   5.613   0.755
 2236SOL    HW116677   3.057   5.577   0.709
 2236SOL    HW216678   2.950   5.701   0.715
 2237SOL     OW16679   2.804   2.229   1.593
 2237SOL    HW116680   2.841   2.302   1.651
 2237SOL    HW216681   2.807   2.142   1.642
 2238SOL     OW16682   1.335   9.212   0.443
 2238SOL    HW116683   1.293   9.286   0.391
 2238SOL    HW216684   1.283   9.196   0.527
 2239SOL     OW16685   9.525   5.423   1.756
 2239SOL    HW116686   9.531   5.329   1.722
 2239SOL    HW216687   9.522   5.486   1.679
 2240SOL     OW16688   9.946   6.422   1.189
 2240SOL    HW116689   0.002   6.422   1.272
 2240SOL    HW216690   9.950   6.512   1.147
 2241SOL     OW16691   4.667   1.448   1.228
 2241SOL    HW116692   4.626   1.491   1.308
 2241SOL    HW216693   4.740   1.506   1.193
 2242SOL     OW16694   1.225   2.652   0.501
 2242SOL    HW116695   1.310   2.601   0.492
 2242SOL    HW216696   1.242   2.737   0.551
 2243SOL     OW16697   0.782   0.726   1.979
 2243SOL    HW116698   0.847   0.671   1.927
 2243SOL    HW216699   0.729   0.783   1.917
 2244SOL     OW16700   1.964   6.559   0.832
 2244SOL    HW116701   2.034   6.496   0.798
 2244SOL    HW216702   1.961   6.639   0.772
 2245SOL     OW16703   2.582   9.284   2.030
 2245SOL    HW116704   2.660   9.347   2.029
 2245SOL    HW216705   2.522   9.304   1.953
 2246SOL     OW16706   1.441   9.701   0.850
 2246SOL    HW116707   1.400   9.637   0.915
 2246SOL    HW216708   1.470   9.652   0.768
 2247SOL     OW16709   0.832   9.142   0.946
 2247SOL    HW116710   0.748   9.129   1.000
 2247SOL    HW216711   0.902   9.185   1.003
 2248SOL     OW16712   4.590   3.379   1.877
 2248SOL    HW116713   4.592   3.373   1.977
 2248SOL    HW216714   4.522   3.447   1.849
 2249SOL     OW16715   0.870   6.730   1.973
 2249SOL    HW116716   0.969   6.746   1.980
 2249SOL    HW216717   0.854   6.645   1.923
 2250SOL     OW16718   3.553   8.889   0.877
 2250SOL    HW116719   3.635   8.945   0.883
 2250SOL    HW216720   3.494   8.909   0.956
 2251SOL     OW16721   3.780   1.143   1.487
 2251SOL    HW116722   3.795   1.140   1.388
 2251SOL    HW216723   3.824   1.064   1.530
 2252SOL     OW16724   2.204   7.867   1.954
 2252SOL    HW116725   2.144   7.882   1.875
 2252SOL    HW216726   2.147   7.852   2.036
 2253SOL     OW16727   2.447   7.989   1.989
 2253SOL    HW116728   2.363   7.937   1.974
 2253SOL    HW216729   2.526   7.933   1.965
 2254SOL     OW16730   2.973   1.449   1.144
 2254SOL    HW116731   2.899   1.469   1.080
 2254SOL    HW216732   2.976   1.519   1.215
 2255SOL     OW16733   4.941   2.962   0.427
 2255SOL    HW116734   4.874   2.902   0.471
 2255SOL    HW216735   5.029   2.952   0.472
 2256SOL     OW16736   1.491   4.897   1.652
 2256SOL    HW116737   1.404   4.914   1.699
 2256SOL    HW216738   1.526   4.807   1.678
 2257SOL     OW16739   1.864   5.954   0.668
 2257SOL    HW116740   1.831   5.928   0.577
 2257SOL    HW216741   1.885   5.872   0.721
 2258SOL     OW16742   9.816   4.987   0.421
 2258SOL    HW116743   9.763   5.067   0.393
 2258SOL    HW216744   9.911   4.998   0.391
 2259SOL     OW16745   9.256   2.032   1.326
 2259SOL    HW116746   9.316   2.027   1.246
 2259SOL    HW216747   9.236   1.939   1.359
 2260SOL     OW16748   1.089   6.208   1.212
 2260SOL    HW116749   1.056   6.214   1.118
 2260SOL    HW216750   1.045   6.131   1.258
 2261SOL     OW16751   2.909   6.949   1.017
 2261SOL    HW116752   2.923   6.933   1.115
 2261SOL    HW216753   2.886   7.044   1.001
 2262SOL     OW16754   1.715   0.058   0.517
 2262SOL    HW116755   1.657   9.980   0.496
 2262SOL    HW216756   1.660   0.131   0.557
 2263SOL     OW16757   0.743   1.454   2.154
 2263SOL    HW116758   0.801   1.510   2.213
 2263SOL    HW216759   0.692   1.513   2.091
 2264SOL     OW16760   3.498   8.585   0.667
 2264SOL    HW116761   3.491   8.590   0.767
 2264SOL    HW216762   3.409   8.560   0.629
 2265SOL     OW16763   2.141   4.397   0.621
 2265SOL    HW116764   2.055   4.428   0.580
 2265SOL    HW216765   2.200   4.358   0.550
 2266SOL     OW16766   0.592   1.022   1.117
 2266SOL    HW116767   0.638   1.016   1.028
 2266SOL    HW216768   0.561   1.116   1.131
 2267SOL     OW16769   2.511   7.503   0.440
 2267SOL    HW116770   2.562   7.588   0.434
 2267SOL    HW216771   2.458   7.490   0.356
 2268SOL     OW16772   0.596   7.408   0.426
 2268SOL    HW116773   0.556   7.339   0.486
 2268SOL    HW216774   0.572   7.388   0.331
 2269SOL     OW16775   2.352   8.814   0.631
 2269SOL    HW116776   2.259   8.846   0.618
 2269SOL    HW216777   2.416   8.882   0.594
 2270SOL     OW16778   3.148   9.991   1.328
 2270SOL    HW116779   3.176   0.039   1.411
 2270SOL    HW216780   3.155   9.892   1.342
 2271SOL     OW16781   2.831   9.875   1.025
 2271SOL    HW116782   2.866   9.940   1.092
 2271SOL    HW216783   2.735   9.896   1.005
 2272SOL     OW16784   0.417   0.606   1.555
 2272SOL    HW116785   0.402   0.515   1.518
 2272SOL    HW216786   0.415   0.674   1.481
 2273SOL     OW16787   3.584   0.102   1.858
 2273SOL    HW116788   3.544   0.185   1.897
 2273SOL    HW216789   3.678   0.093   1.890
 2274SOL     OW16790   0.166   4.111   1.482
 2274SOL    HW116791   0.115   4.184   1.527
 2274SOL    HW216792   0.122   4.088   1.395
 2275SOL     OW16793   0.407   2.913   1.005
 2275SOL    HW116794   0.402   2.986   0.937
 2275SOL    HW216795   0.426   2.952   1.095
 2276SOL     OW16796   0.703   7.006   0.619
 2276SOL    HW116797   0.730   7.009   0.715
 2276SOL    HW216798   0.761   7.067   0.565
 2277SOL     OW16799   2.570   6.748   1.561
 2277SOL    HW116800   2.504   6.674   1.553
 2277SOL    HW216801   2.663   6.711   1.558
 2278SOL     OW16802   2.071   4.844   2.054
 2278SOL    HW116803   2.092   4.892   1.969
 2278SOL    HW216804   1.978   4.866   2.083
 2279SOL     OW16805   1.726   4.344   1.945
 2279SOL    HW116806   1.709   4.364   2.042
 2279SOL    HW216807   1.643   4.310   1.903
 2280SOL     OW16808   3.814   2.463   0.706
 2280SOL    HW116809   3.720   2.431   0.704
 2280SOL    HW216810   3.856   2.440   0.794
 2281SOL     OW16811   2.131   3.391   0.360
 2281SOL    HW116812   2.199   3.454   0.398
 2281SOL    HW216813   2.149   3.299   0.393
 2282SOL     OW16814   0.868   8.991   0.712
 2282SOL    HW116815   0.831   8.899   0.719
 2282SOL    HW216816   0.856   9.039   0.799
 2283SOL     OW16817   2.945   0.775   1.403
 2283SOL    HW116818   3.013   0.813   1.465
 2283SOL    HW216819   2.949   0.824   1.315
 2284SOL     OW16820   9.830   2.550   0.493
 2284SOL    HW116821   9.731   2.536   0.504
 2284SOL    HW216822   9.849   2.647   0.481
 2285SOL     OW16823   3.417   4.694   0.727
 2285SOL    HW116824   3.375   4.779   0.756
 2285SOL    HW216825   3.516   4.699   0.741
 2286SOL     OW16826   4.039   1.300   0.956
 2286SOL    HW116827   3.951   1.313   0.910
 2286SOL    HW216828   4.112   1.341   0.901
 2287SOL     OW16829   2.702   3.675   1.138
 2287SOL    HW116830   2.633   3.700   1.205
 2287SOL    HW216831   2.704   3.744   1.065
 2288SOL     OW16832   9.966   3.850   1.097
 2288SOL    HW116833   0.042   3.790   1.121
 2288SOL    HW216834   9.982   3.890   1.007
 2289SOL     OW16835   2.284   4.068   0.593
 2289SOL    HW116836   2.286   4.148   0.533
 2289SOL    HW216837   2.225   4.086   0.671
 2290SOL     OW16838   3.889   9.595   1.946
 2290SOL    HW116839   3.825   9.605   2.022
 2290SOL    HW216840   3.904   9.684   1.904
 2291SOL     OW16841   2.819   1.180   1.070
 2291SOL    HW116842   2.847   1.088   1.100
 2291SOL    HW216843   2.881   1.248   1.110
 2292SOL     OW16844   1.275   8.223   0.786
 2292SOL    HW116845   1.306   8.294   0.849
 2292SOL    HW216846   1.354   8.180   0.743
 2293SOL     OW16847   2.403   7.733   1.721
 2293SOL    HW116848   2.330   7.688   1.772
 2293SOL    HW216849   2.487   7.679   1.728
 2294SOL     OW16850   4.366   2.904   1.244
 2294SOL    HW116851   4.329   2.986   1.287
 2294SOL    HW216852   4.465   2.900   1.259
 2295SOL     OW16853   0.287   2.272   0.561
 2295SOL    HW116854   0.365   2.334   0.572
 2295SOL    HW216855   0.205   2.325   0.541
 2296SOL     OW16856   3.574   4.097   2.333
 2296SOL    HW116857   3.474   4.095   2.337
 2296SOL    HW216858   3.604   4.071   2.241
 2297SOL     OW16859   1.825   2.126   2.323
 2297SOL    HW116860   1.817   2.091   2.230
 2297SOL    HW216861   1.870   2.215   2.322
 2298SOL     OW16862   1.136   4.619   0.429
 2298SOL    HW116863   1.062   4.605   0.495
 2298SOL    HW216864   1.163   4.531   0.390
 2299SOL     OW16865   0.898   5.266   1.597
 2299SOL    HW116866   0.845   5.329   1.654
 2299SOL    HW216867   0.855   5.176   1.597
 2300SOL     OW16868   0.565   9.715   2.076
 2300SOL    HW116869   0.617   9.801   2.080
 2300SOL    HW216870   0.594   9.655   2.150
 2301SOL     OW16871   1.900   1.613   1.244
 2301SOL    HW116872   1.841   1.692   1.263
 2301SOL    HW216873   1.947   1.585   1.329
 2302SOL     OW16874   2.382   3.821   2.004
 2302SOL    HW116875   2.389   3.771   1.918
 2302SOL    HW216876   2.455   3.791   2.066
 2303SOL     OW16877   3.161   1.535   1.468
 2303SOL    HW116878   3.139   1.464   1.536
 2303SOL    HW216879   3.076   1.567   1.426
 2304SOL     OW16880   0.180   0.753   0.388
 2304SOL    HW116881   0.195   0.851   0.401
 2304SOL    HW216882   0.215   0.725   0.299
 2305SOL     OW16883   0.994   3.480   2.303
 2305SOL    HW116884   0.917   3.507   2.246
 2305SOL    HW216885   1.069   3.545   2.292
 2306SOL     OW16886   2.810   2.704   1.683
 2306SOL    HW116887   2.906   2.709   1.657
 2306SOL    HW216888   2.769   2.795   1.683
 2307SOL     OW16889   1.236   1.157   1.733
 2307SOL    HW116890   1.240   1.254   1.756
 2307SOL    HW216891   1.176   1.109   1.797
 2308SOL     OW16892   2.206   6.892   1.399
 2308SOL    HW116893   2.205   6.940   1.312
 2308SOL    HW216894   2.284   6.923   1.454
 2309SOL     OW16895   1.942   4.002   2.192
 2309SOL    HW116896   1.952   4.073   2.122
 2309SOL    HW216897   2.007   3.928   2.175
 2310SOL     OW16898   9.569   5.322   2.192
 2310SOL    HW116899   9.506   5.321   2.114
 2310SOL    HW216900   9.537   5.387   2.260
 2311SOL     OW16901   3.145   0.300   2.211
 2311SOL    HW116902   3.184   0.367   2.274
 2311SOL    HW216903   3.215   0.234   2.185
 2312SOL     OW16904   3.985   1.670   0.889
 2312SOL    HW116905   3.972   1.630   0.798
 2312SOL    HW216906   3.899   1.708   0.922
 2313SOL     OW16907   1.422   3.479   0.492
 2313SOL    HW116908   1.418   3.384   0.461
 2313SOL    HW216909   1.329   3.517   0.493
 2314SOL     OW16910   3.199   1.346   0.527
 2314SOL    HW116911   3.175   1.250   0.541
 2314SOL    HW216912   3.125   1.393   0.479
 2315SOL     OW16913   1.538   1.488   1.788
 2315SOL    HW116914   1.627   1.492   1.834
 2315SOL    HW216915   1.537   1.551   1.711
 2316SOL     OW16916   3.786   4.853   2.030
 2316SOL    HW116917   3.885   4.864   2.043
 2316SOL    HW216918   3.738   4.878   2.114
 2317SOL     OW16919   1.199   8.940   2.319
 2317SOL    HW116920   1.260   9.013   2.351
 2317SOL    HW216921   1.104   8.972   2.324
 2318SOL     OW16922   0.123   3.673   0.898
 2318SOL    HW116923   0.186   3.723   0.839
 2318SOL    HW216924   0.175   3.618   0.963
 2319SOL     OW16925   3.255   8.310   0.418
 2319SOL    HW116926   3.349   8.292   0.387
 2319SOL    HW216927   3.190   8.271   0.353
 2320SOL     OW16928   3.352   9.664   1.169
 2320SOL    HW116929   3.274   9.692   1.226
 2320SOL    HW216930   3.378   9.571   1.191
 2321SOL     OW16931   2.922   4.736   0.922
 2321SOL    HW116932   2.978   4.732   0.839
 2321SOL    HW216933   2.858   4.658   0.922
 2322SOL     OW16934   2.181   2.184   1.310
 2322SOL    HW116935   2.129   2.099   1.307
 2322SOL    HW216936   2.245   2.182   1.387
 2323SOL     OW16937   1.078   5.276   1.805
 2323SOL    HW116938   1.035   5.218   1.874
 2323SOL    HW216939   1.025   5.272   1.720
 2324SOL     OW16940   4.594   2.210   1.973
 2324SOL    HW116941   4.513   2.232   2.028
 2324SOL    HW216942   4.618   2.114   1.988
 2325SOL     OW16943   1.017   5.557   2.146
 2325SOL    HW116944   1.042   5.470   2.189
 2325SOL    HW216945   1.028   5.549   2.047
 2326SOL     OW16946   2.688   0.687   1.458
 2326SOL    HW116947   2.787   0.703   1.454
 2326SOL    HW216948   2.662   0.666   1.552
 2327SOL     OW16949   9.773   5.230   1.545
 2327SOL    HW116950   9.690   5.179   1.519
 2327SOL    HW216951   9.803   5.286   1.467
 2328SOL     OW16952   2.165   9.113   0.888
 2328SOL    HW116953   2.265   9.111   0.887
 2328SOL    HW216954   2.130   9.034   0.938
 2329SOL     OW16955   3.558   4.696   1.607
 2329SOL    HW116956   3.486   4.688   1.538
 2329SOL    HW216957   3.567   4.609   1.656
 2330SOL     OW16958   2.237   0.464   1.889
 2330SOL    HW116959   2.193   0.533   1.831
 2330SOL    HW216960   2.304   0.508   1.948
 2331SOL     OW16961   9.977   6.009   1.099
 2331SOL    HW116962   0.022   6.054   1.176
 2331SOL    HW216963   9.881   6.038   1.095
 2332SOL     OW16964   9.527   5.604   0.563
 2332SOL    HW116965   9.530   5.505   0.550
 2332SOL    HW216966   9.615   5.644   0.538
 2333SOL     OW16967   1.312   4.469   1.993
 2333SOL    HW116968   1.380   4.410   1.947
 2333SOL    HW216969   1.241   4.411   2.033
 2334SOL     OW16970   0.817   3.863   2.296
 2334SOL    HW116971   0.886   3.831   2.231
 2334SOL    HW216972   0.843   3.954   2.330
 2335SOL     OW16973   3.492   4.220   1.537
 2335SOL    HW116974   3.412   4.258   1.584
 2335SOL    HW216975   3.562   4.291   1.528
 2336SOL     OW16976   9.994   0.761   1.988
 2336SOL    HW116977   9.942   0.812   1.920
 2336SOL    HW216978   0.013   0.820   2.067
 2337SOL     OW16979   1.980   9.573   2.006
 2337SOL    HW116980   1.997   9.487   2.054
 2337SOL    HW216981   1.896   9.565   1.953
 2338SOL     OW16982   3.524   8.451   1.938
 2338SOL    HW116983   3.541   8.353   1.949
 2338SOL    HW216984   3.610   8.497   1.914
 2339SOL     OW16985   2.166   7.141   1.595
 2339SOL    HW116986   2.085   7.087   1.572
 2339SOL    HW216987   2.247   7.081   1.596
 2340SOL     OW16988   2.908   7.463   0.483
 2340SOL    HW116989   2.989   7.518   0.497
 2340SOL    HW216990   2.842   7.513   0.427
 2341SOL     OW16991   3.714   2.819   1.758
 2341SOL    HW116992   3.779   2.853   1.690
 2341SOL    HW216993   3.699   2.889   1.828
 2342SOL     OW16994   1.465   5.635   1.762
 2342SOL    HW116995   1.520   5.566   1.716
 2342SOL    HW216996   1.465   5.618   1.861
 2343SOL     OW16997   1.967   2.362   1.315
 2343SOL    HW116998   1.881   2.324   1.281
 2343SOL    HW216999   2.037   2.290   1.318
 2344SOL     OW17000   1.211   6.639   0.368
 2344SOL    HW117001   1.292   6.668   0.316
 2344SOL    HW217002   1.196   6.703   0.443
 2345SOL     OW17003   1.592   8.127   1.942
 2345SOL    HW117004   1.682   8.156   1.910
 2345SOL    HW217005   1.523   8.150   1.874
 2346SOL     OW17006   0.149   5.540   1.824
 2346SOL    HW117007   0.136   5.455   1.774
 2346SOL    HW217008   0.247   5.563   1.825
 2347SOL     OW17009   4.127   0.605   0.838
 2347SOL    HW117010   4.151   0.668   0.912
 2347SOL    HW217011   4.168   0.638   0.753
 2348SOL     OW17012   2.960   6.755   1.968
 2348SOL    HW117013   3.002   6.687   2.029
 2348SOL    HW217014   2.861   6.753   1.980
 2349SOL     OW17015   3.352   1.137   1.828
 2349SOL    HW117016   3.308   1.227   1.833
 2349SOL    HW217017   3.283   1.067   1.810
 2350SOL     OW17018   3.592   3.602   0.389
 2350SOL    HW117019   3.683   3.641   0.376
 2350SOL    HW217020   3.596   3.503   0.376
 2351SOL     OW17021   9.604   2.081   1.405
 2351SOL    HW117022   9.571   1.988   1.424
 2351SOL    HW217023   9.546   2.147   1.451
 2352SOL     OW17024   1.245   4.983   1.759
 2352SOL    HW117025   1.273   5.076   1.786
 2352SOL    HW217026   1.183   4.946   1.828
 2353SOL     OW17027   1.743   9.103   0.868
 2353SOL    HW117028   1.757   9.039   0.944
 2353SOL    HW217029   1.726   9.051   0.784
 2354SOL     OW17030   9.599   2.166   0.537
 2354SOL    HW117031   9.691   2.198   0.513
 2354SOL    HW217032   9.582   2.183   0.634
 2355SOL     OW17033   0.517   2.426   0.606
 2355SOL    HW117034   0.510   2.517   0.647
 2355SOL    HW217035   0.605   2.417   0.560
 2356SOL     OW17036   0.779   5.916   1.517
 2356SOL    HW117037   0.752   5.828   1.556
 2356SOL    HW217038   0.756   5.989   1.581
 2357SOL     OW17039   0.347   3.497   1.759
 2357SOL    HW117040   0.411   3.437   1.711
 2357SOL    HW217041   0.323   3.574   1.700
 2358SOL     OW17042   4.685   4.574   0.932
 2358SOL    HW117043   4.734   4.581   1.019
 2358SOL    HW217044   4.595   4.531   0.948
 2359SOL     OW17045   4.271   3.892   1.937
 2359SOL    HW117046   4.253   3.801   1.975
 2359SOL    HW217047   4.226   3.900   1.848
 2360SOL     OW17048   2.922   0.414   1.680
 2360SOL    HW117049   2.984   0.410   1.602
 2360SOL    HW217050   2.961   0.362   1.756
 2361SOL     OW17051   0.715   4.981   0.856
 2361SOL    HW117052   0.800   5.030   0.874
 2361SOL    HW217053   0.651   5.043   0.809
 2362SOL     OW17054   1.648   8.612   0.499
 2362SOL    HW117055   1.631   8.518   0.527
 2362SOL    HW217056   1.562   8.662   0.497
 2363SOL     OW17057   2.529   4.053   0.719
 2363SOL    HW117058   2.444   4.044   0.666
 2363SOL    HW217059   2.593   3.982   0.691
 2364SOL     OW17060   9.679   1.038   0.788
 2364SOL    HW117061   9.679   0.966   0.718
 2364SOL    HW217062   9.729   1.006   0.868
 2365SOL     OW17063   1.649   3.086   1.356
 2365SOL    HW117064   1.611   3.011   1.301
 2365SOL    HW217065   1.745   3.100   1.333
 2366SOL     OW17066   0.183   4.383   0.748
 2366SOL    HW117067   0.112   4.331   0.702
 2366SOL    HW217068   0.273   4.357   0.713
 2367SOL     OW17069   3.602   2.530   0.975
 2367SOL    HW117070   3.526   2.552   1.036
 2367SOL    HW217071   3.568   2.483   0.894
 2368SOL     OW17072   0.008   4.611   0.398
 2368SOL    HW117073   9.909   4.613   0.380
 2368SOL    HW217074   0.054   4.674   0.336
 2369SOL     OW17075   3.006   6.795   1.704
 2369SOL    HW117076   3.075   6.867   1.696
 2369SOL    HW217077   2.993   6.772   1.801
 2370SOL     OW17078   2.120   3.793   2.115
 2370SOL    HW117079   2.072   3.752   2.038
 2370SOL    HW217080   2.214   3.817   2.087
 2371SOL     OW17081   2.727   9.261   1.497
 2371SOL    HW117082   2.784   9.221   1.426
 2371SOL    HW217083   2.740   9.360   1.498
 2372SOL     OW17084   1.226   6.477   1.729
 2372SOL    HW117085   1.232   6.474   1.829
 2372SOL    HW217086   1.139   6.436   1.700
 2373SOL     OW17087   3.983   0.037   0.896
 2373SOL    HW117088   3.908   9.971   0.897
 2373SOL    HW217089   3.953   0.121   0.851
 2374SOL     OW17090   8.590   2.400   2.112
 2374SOL    HW117091   8.575   2.388   2.014
 2374SOL    HW217092   8.505   2.431   2.155
 2375SOL     OW17093   3.629   1.127   1.797
 2375SOL    HW117094   3.665   1.206   1.747
 2375SOL    HW217095   3.529   1.134   1.801
 2376SOL     OW17096   0.930   9.200   0.546
 2376SOL    HW117097   0.853   9.263   0.539
 2376SOL    HW217098   0.903   9.119   0.596
 2377SOL     OW17099   0.536   6.007   0.748
 2377SOL    HW117100   0.541   6.047   0.840
 2377SOL    HW217101   0.481   5.924   0.750
 2378SOL     OW17102   9.516   5.295   0.840
 2378SOL    HW117103   9.441   5.233   0.862
 2378SOL    HW217104   9.603   5.254   0.870
 2379SOL     OW17105   1.162   6.805   0.579
 2379SOL    HW117106   1.196   6.897   0.600
 2379SOL    HW217107   1.062   6.805   0.583
 2380SOL     OW17108   4.918   3.561   1.694
 2380SOL    HW117109   5.012   3.530   1.705
 2380SOL    HW217110   4.907   3.606   1.605
 2381SOL     OW17111   2.441   9.097   0.895
 2381SOL    HW117112   2.500   9.017   0.882
 2381SOL    HW217113   2.466   9.143   0.981
 2382SOL     OW17114   0.037   6.343   2.032
 2382SOL    HW117115   0.072   6.319   2.122
 2382SOL    HW217116   0.100   6.406   1.987
 2383SOL     OW17117   0.701   6.682   1.666
 2383SOL    HW117118   0.607   6.700   1.695
 2383SOL    HW217119   0.739   6.764   1.622
 2384SOL     OW17120   0.836   4.757   2.204
 2384SOL    HW117121   0.882   4.806   2.277
 2384SOL    HW217122   0.742   4.735   2.233
 2385SOL     OW17123   9.910   3.285   1.200
 2385SOL    HW117124   9.841   3.218   1.226
 2385SOL    HW217125   9.938   3.269   1.105
 2386SOL     OW17126   1.871   1.518   0.747
 2386SOL    HW117127   1.779   1.504   0.709
 2386SOL    HW217128   1.865   1.578   0.827
 2387SOL     OW17129   4.191   1.612   0.615
 2387SOL    HW117130   4.204   1.702   0.573
 2387SOL    HW217131   4.093   1.591   0.619
 2388SOL     OW17132   3.284   1.967   0.404
 2388SOL    HW117133   3.234   1.881   0.420
 2388SOL    HW217134   3.219   2.042   0.397
 2389SOL     OW17135   1.613   3.555   1.251
 2389SOL    HW117136   1.685   3.530   1.187
 2389SOL    HW217137   1.574   3.473   1.293
 2390SOL     OW17138   2.855   3.195   2.124
 2390SOL    HW117139   2.787   3.135   2.164
 2390SOL    HW217140   2.944   3.179   2.166
 2391SOL     OW17141   2.884   4.013   1.521
 2391SOL    HW117142   2.951   4.074   1.479
 2391SOL    HW217143   2.853   4.052   1.608
 2392SOL     OW17144   3.126   3.246   0.924
 2392SOL    HW117145   3.207   3.301   0.945
 2392SOL    HW217146   3.048   3.279   0.977
 2393SOL     OW17147   3.233   4.022   1.744
 2393SOL    HW117148   3.148   4.009   1.795
 2393SOL    HW217149   3.227   3.975   1.656
 2394SOL     OW17150   4.913   3.918   1.015
 2394SOL    HW117151   4.938   3.968   0.932
 2394SOL    HW217152   4.984   3.852   1.037
 2395SOL     OW17153   4.217   0.758   1.285
 2395SOL    HW117154   4.202   0.660   1.295
 2395SOL    HW217155   4.221   0.782   1.188
 2396SOL     OW17156   2.858   5.675   2.259
 2396SOL    HW117157   2.822   5.759   2.298
 2396SOL    HW217158   2.891   5.693   2.166
 2397SOL     OW17159   2.346   7.958   1.318
 2397SOL    HW117160   2.432   7.997   1.352
 2397SOL    HW217161   2.317   7.883   1.378
 2398SOL     OW17162   1.501   6.429   1.052
 2398SOL    HW117163   1.460   6.373   1.124
 2398SOL    HW217164   1.550   6.505   1.093
 2399SOL     OW17165   1.119   2.092   1.738
 2399SOL    HW117166   1.059   2.154   1.788
 2399SOL    HW217167   1.214   2.111   1.762
 2400SOL     OW17168   4.655   4.511   1.387
 2400SOL    HW117169   4.670   4.582   1.455
 2400SOL    HW217170   4.655   4.422   1.431
 2401SOL     OW17171   0.224   5.452   1.042
 2401SOL    HW117172   0.320   5.430   1.061
 2401SOL    HW217173   0.196   5.529   1.099
 2402SOL     OW17174   2.177   4.257   1.848
 2402SOL    HW117175   2.238   4.178   1.858
 2402SOL    HW217176   2.165   4.277   1.751
 2403SOL     OW17177   9.202   5.535   0.825
 2403SOL    HW117178   9.228   5.466   0.757
 2403SOL    HW217179   9.232   5.505   0.916
 2404SOL     OW17180   1.833   9.466   0.681
 2404SOL    HW117181   1.764   9.411   0.729
 2404SOL    HW217182   1.888   9.408   0.622
 2405SOL     OW17183   2.580   2.215   1.439
 2405SOL    HW117184   2.496   2.209   1.493
 2405SOL    HW217185   2.659   2.222   1.500
 2406SOL     OW17186   4.834   4.333   1.084
 2406SOL    HW117187   4.899   4.336   1.007
 2406SOL    HW217188   4.830   4.423   1.127
 2407SOL     OW17189   9.280   2.619   1.599
 2407SOL    HW117190   9.222   2.610   1.679
 2407SOL    HW217191   9.374   2.636   1.628
 2408SOL     OW17192   0.626   0.853   1.802
 2408SOL    HW117193   0.661   0.913   1.729
 2408SOL    HW217194   0.527   0.846   1.795
 2409SOL     OW17195   0.266   7.112   0.459
 2409SOL    HW117196   0.268   7.098   0.360
 2409SOL    HW217197   0.353   7.150   0.489
 2410SOL     OW17198   4.252   0.104   1.315
 2410SOL    HW117199   4.160   0.114   1.352
 2410SOL    HW217200   4.246   0.068   1.222
 2411SOL     OW17201   9.768   2.963   1.057
 2411SOL    HW117202   9.808   2.871   1.064
 2411SOL    HW217203   9.766   3.005   1.147
 2412SOL     OW17204   3.838   8.318   1.928
 2412SOL    HW117205   3.889   8.316   2.014
 2412SOL    HW217206   3.754   8.264   1.937
 2413SOL     OW17207   3.017   9.497   0.783
 2413SOL    HW117208   3.091   9.563   0.773
 2413SOL    HW217209   3.015   9.463   0.877
 2414SOL     OW17210   0.774   1.542   1.372
 2414SOL    HW117211   0.738   1.580   1.287
 2414SOL    HW217212   0.839   1.606   1.413
 2415SOL     OW17213   1.257   2.387   1.377
 2415SOL    HW117214   1.328   2.401   1.309
 2415SOL    HW217215   1.196   2.466   1.378
 2416SOL     OW17216   4.365   1.648   2.309
 2416SOL    HW117217   4.375   1.640   2.408
 2416SOL    HW217218   4.312   1.730   2.288
 2417SOL     OW17219   0.023   6.610   0.574
 2417SOL    HW117220   9.936   6.596   0.527
 2417SOL    HW217221   0.039   6.534   0.637
 2418SOL     OW17222   2.767   6.478   1.747
 2418SOL    HW117223   2.706   6.406   1.712
 2418SOL    HW217224   2.789   6.541   1.672
 2419SOL     OW17225   9.757   1.122   1.483
 2419SOL    HW117226   9.833   1.143   1.421
 2419SOL    HW217227   9.681   1.184   1.465
 2420SOL     OW17228   9.909   3.291   1.999
 2420SOL    HW117229   9.878   3.304   2.093
 2420SOL    HW217230   9.873   3.206   1.963
 2421SOL     OW17231   2.267   3.575   1.408
 2421SOL    HW117232   2.197   3.640   1.438
 2421SOL    HW217233   2.346   3.624   1.372
 2422SOL     OW17234   3.710   2.502   2.309
 2422SOL    HW117235   3.665   2.438   2.247
 2422SOL    HW217236   3.784   2.456   2.357
 2423SOL     OW17237   9.558   2.530   0.531
 2423SOL    HW117238   9.480   2.555   0.472
 2423SOL    HW217239   9.524   2.505   0.621
 2424SOL     OW17240   3.356   0.761   1.418
 2424SOL    HW117241   3.438   0.785   1.470
 2424SOL    HW217242   3.371   0.780   1.321
 2425SOL     OW17243   3.405   8.922   1.109
 2425SOL    HW117244   3.398   8.825   1.132
 2425SOL    HW217245   3.314   8.958   1.090
 2426SOL     OW17246   9.143   3.140   0.973
 2426SOL    HW117247   9.236   3.174   0.989
 2426SOL    HW217248   9.101   3.193   0.900
 2427SOL     OW17249   9.573   2.829   0.758
 2427SOL    HW117250   9.479   2.823   0.722
 2427SOL    HW217251   9.593   2.748   0.812
 2428SOL     OW17252   9.573   5.985   1.722
 2428SOL    HW117253   9.661   5.939   1.734
 2428SOL    HW217254   9.515   5.969   1.802
 2429SOL     OW17255   0.734   7.353   0.786
 2429SOL    HW117256   0.666   7.280   0.778
 2429SOL    HW217257   0.712   7.411   0.865
 2430SOL     OW17258   5.132   3.739   1.054
 2430SOL    HW117259   5.212   3.785   1.015
 2430SOL    HW217260   5.130   3.644   1.022
 2431SOL     OW17261   9.702   6.063   1.048
 2431SOL    HW117262   9.623   6.013   1.012
 2431SOL    HW217263   9.746   6.113   0.974
 2432SOL     OW17264   0.783   5.971   1.071
 2432SOL    HW117265   0.700   6.023   1.048
 2432SOL    HW217266   0.847   5.976   0.994
 2433SOL     OW17267   1.875   4.900   0.456
 2433SOL    HW117268   1.960   4.850   0.476
 2433SOL    HW217269   1.897   4.987   0.413
 2434SOL     OW17270   1.801   7.530   0.504
 2434SOL    HW117271   1.801   7.627   0.482
 2434SOL    HW217272   1.856   7.514   0.586
 2435SOL     OW17273   0.845   4.139   0.795
 2435SOL    HW117274   0.789   4.176   0.721
 2435SOL    HW217275   0.922   4.200   0.812
 2436SOL     OW17276   1.677   9.391   1.331
 2436SOL    HW117277   1.763   9.413   1.377
 2436SOL    HW217278   1.608   9.368   1.400
 2437SOL     OW17279   3.216   3.183   1.544
 2437SOL    HW117280   3.160   3.257   1.507
 2437SOL    HW217281   3.298   3.172   1.488
 2438SOL     OW17282   2.853   9.487   0.572
 2438SOL    HW117283   2.913   9.481   0.652
 2438SOL    HW217284   2.909   9.498   0.490
 2439SOL     OW17285   1.112   8.307   1.761
 2439SOL    HW117286   1.204   8.269   1.775
 2439SOL    HW217287   1.079   8.281   1.670
 2440SOL     OW17288   1.507   9.516   0.651
 2440SOL    HW117289   1.552   9.450   0.711
 2440SOL    HW217290   1.570   9.543   0.578
 2441SOL     OW17291   3.413   1.883   0.639
 2441SOL    HW117292   3.379   1.924   0.554
 2441SOL    HW217293   3.437   1.787   0.622
 2442SOL     OW17294   3.248   1.807   1.466
 2442SOL    HW117295   3.232   1.709   1.480
 2442SOL    HW217296   3.160   1.854   1.457
 2443SOL     OW17297   2.336   6.599   1.528
 2443SOL    HW117298   2.287   6.615   1.442
 2443SOL    HW217299   2.297   6.656   1.600
 2444SOL     OW17300   1.171   5.991   0.670
 2444SOL    HW117301   1.237   6.066   0.674
 2444SOL    HW217302   1.219   5.905   0.689
 2445SOL     OW17303   2.196   3.709   0.928
 2445SOL    HW117304   2.286   3.724   0.886
 2445SOL    HW217305   2.125   3.752   0.872
 2446SOL     OW17306   2.076   2.070   1.650
 2446SOL    HW117307   1.992   2.112   1.616
 2446SOL    HW217308   2.060   1.973   1.668
 2447SOL     OW17309   1.550   8.682   2.110
 2447SOL    HW117310   1.545   8.583   2.117
 2447SOL    HW217311   1.458   8.721   2.120
 2448SOL     OW17312   1.871   6.166   1.741
 2448SOL    HW117313   1.772   6.178   1.725
 2448SOL    HW217314   1.910   6.116   1.664
 2449SOL     OW17315   2.362   4.059   1.866
 2449SOL    HW117316   2.452   4.103   1.869
 2449SOL    HW217317   2.364   3.978   1.926
 2450SOL     OW17318   2.140   0.826   1.453
 2450SOL    HW117319   2.106   0.732   1.447
 2450SOL    HW217320   2.084   0.886   1.395
 2451SOL     OW17321   9.661   5.094   1.886
 2451SOL    HW117322   9.654   5.083   1.985
 2451SOL    HW217323   9.730   5.162   1.864
 2452SOL     OW17324   3.369   1.410   2.236
 2452SOL    HW117325   3.309   1.332   2.254
 2452SOL    HW217326   3.411   1.399   2.146
 2453SOL     OW17327   3.239   8.368   1.784
 2453SOL    HW117328   3.224   8.462   1.817
 2453SOL    HW217329   3.316   8.367   1.720
 2454SOL     OW17330   1.336   7.932   1.574
 2454SOL    HW117331   1.348   8.020   1.528
 2454SOL    HW217332   1.377   7.859   1.519
 2455SOL     OW17333   5.061   2.580   2.056
 2455SOL    HW117334   5.113   2.505   2.097
 2455SOL    HW217335   5.107   2.612   1.973
 2456SOL     OW17336   1.642   2.289   0.760
 2456SOL    HW117337   1.667   2.354   0.688
 2456SOL    HW217338   1.703   2.302   0.839
 2457SOL     OW17339   0.469   3.015   0.559
 2457SOL    HW117340   0.414   2.935   0.536
 2457SOL    HW217341   0.565   2.988   0.569
 2458SOL     OW17342   3.119   4.044   0.674
 2458SOL    HW117343   3.061   4.029   0.593
 2458SOL    HW217344   3.174   3.962   0.691
 2459SOL     OW17345   2.647   5.109   0.807
 2459SOL    HW117346   2.704   5.073   0.881
 2459SOL    HW217347   2.670   5.063   0.722
 2460SOL     OW17348   8.960   1.854   2.245
 2460SOL    HW117349   8.910   1.836   2.330
 2460SOL    HW217350   8.921   1.933   2.199
 2461SOL     OW17351   3.482   3.983   1.860
 2461SOL    HW117352   3.390   3.993   1.823
 2461SOL    HW217353   3.501   3.887   1.879
 2462SOL     OW17354   0.172   1.131   0.478
 2462SOL    HW117355   0.098   1.184   0.439
 2462SOL    HW217356   0.259   1.178   0.464
 2463SOL     OW17357   2.293   4.290   0.418
 2463SOL    HW117358   2.353   4.369   0.405
 2463SOL    HW217359   2.265   4.255   0.328
 2464SOL     OW17360   3.963   3.096   1.432
 2464SOL    HW117361   4.056   3.105   1.398
 2464SOL    HW217362   3.920   3.015   1.391
 2465SOL     OW17363   2.101   8.905   0.598
 2465SOL    HW117364   2.015   8.874   0.557
 2465SOL    HW217365   2.107   9.005   0.594
 2466SOL     OW17366   4.140   1.398   1.928
 2466SOL    HW117367   4.072   1.351   1.983
 2466SOL    HW217368   4.097   1.440   1.848
 2467SOL     OW17369   2.716   0.194   1.353
 2467SOL    HW117370   2.695   0.289   1.330
 2467SOL    HW217371   2.645   0.134   1.317
 2468SOL     OW17372   0.117   5.291   1.711
 2468SOL    HW117373   0.206   5.251   1.729
 2468SOL    HW217374   0.093   5.277   1.615
 2469SOL     OW17375   3.131   3.169   2.187
 2469SOL    HW117376   3.183   3.213   2.114
 2469SOL    HW217377   3.165   3.075   2.200
 2470SOL     OW17378   1.954   8.568   1.010
 2470SOL    HW117379   1.855   8.575   1.009
 2470SOL    HW217380   1.981   8.475   0.984
 2471SOL     OW17381   9.451   4.676   1.152
 2471SOL    HW117382   9.520   4.604   1.160
 2471SOL    HW217383   9.477   4.753   1.211
 2472SOL     OW17384   9.519   2.496   2.068
 2472SOL    HW117385   9.557   2.524   2.156
 2472SOL    HW217386   9.447   2.560   2.041
 2473SOL     OW17387   2.704   2.962   1.682
 2473SOL    HW117388   2.605   2.960   1.697
 2473SOL    HW217389   2.750   2.984   1.768
 2474SOL     OW17390   1.473   3.286   1.991
 2474SOL    HW117391   1.526   3.239   1.920
 2474SOL    HW217392   1.415   3.219   2.038
 2475SOL     OW17393   3.949   2.645   1.228
 2475SOL    HW117394   3.904   2.665   1.141
 2475SOL    HW217395   3.924   2.553   1.258
 2476SOL     OW17396   1.838   6.857   1.735
 2476SOL    HW117397   1.830   6.758   1.737
 2476SOL    HW217398   1.755   6.898   1.772
 2477SOL     OW17399   3.083   3.386   1.398
 2477SOL    HW117400   3.035   3.305   1.362
 2477SOL    HW217401   3.037   3.469   1.365
 2478SOL     OW17402   8.996   2.084   0.746
 2478SOL    HW117403   9.050   2.075   0.662
 2478SOL    HW217404   9.029   2.019   0.814
 2479SOL     OW17405   2.585   4.733   2.182
 2479SOL    HW117406   2.517   4.798   2.149
 2479SOL    HW217407   2.543   4.642   2.191
 2480SOL     OW17408   1.821   0.398   1.308
 2480SOL    HW117409   1.874   0.400   1.393
 2480SOL    HW217410   1.883   0.409   1.230
 2481SOL     OW17411   2.958   0.969   0.732
 2481SOL    HW117412   2.903   0.906   0.676
 2481SOL    HW217413   2.902   1.048   0.757
 2482SOL     OW17414   3.319   8.066   0.751
 2482SOL    HW117415   3.328   8.059   0.851
 2482SOL    HW217416   3.258   8.142   0.729
 2483SOL     OW17417   3.221   4.499   0.789
 2483SOL    HW117418   3.153   4.564   0.754
 2483SOL    HW217419   3.311   4.542   0.788
 2484SOL     OW17420   2.631   7.997   0.322
 2484SOL    HW117421   2.646   7.998   0.223
 2484SOL    HW217422   2.700   8.054   0.366
 2485SOL     OW17423   2.886   0.162   2.174
 2485SOL    HW117424   2.859   0.179   2.079
 2485SOL    HW217425   2.971   0.211   2.194
 2486SOL     OW17426   1.471   5.428   0.413
 2486SOL    HW117427   1.464   5.473   0.324
 2486SOL    HW217428   1.454   5.330   0.403
 2487SOL     OW17429   2.366   9.803   0.715
 2487SOL    HW117430   2.338   9.855   0.796
 2487SOL    HW217431   2.416   9.722   0.743
 2488SOL     OW17432   1.270   2.012   0.945
 2488SOL    HW117433   1.183   2.001   0.994
 2488SOL    HW217434   1.334   2.062   1.002
 2489SOL     OW17435   0.108   4.354   2.013
 2489SOL    HW117436   0.124   4.430   2.077
 2489SOL    HW217437   0.025   4.305   2.041
 2490SOL     OW17438   3.781   2.905   2.168
 2490SOL    HW117439   3.721   2.941   2.096
 2490SOL    HW217440   3.868   2.954   2.165
 2491SOL     OW17441   2.218   5.488   1.607
 2491SOL    HW117442   2.209   5.583   1.637
 2491SOL    HW217443   2.128   5.451   1.586
 2492SOL     OW17444   0.865   2.703   0.680
 2492SOL    HW117445   0.819   2.673   0.763
 2492SOL    HW217446   0.919   2.627   0.643
 2493SOL     OW17447   4.709   3.445   0.759
 2493SOL    HW117448   4.779   3.375   0.747
 2493SOL    HW217449   4.622   3.412   0.722
 2494SOL     OW17450   1.153   3.794   1.048
 2494SOL    HW117451   1.228   3.739   1.085
 2494SOL    HW217452   1.102   3.740   0.981
 2495SOL     OW17453   1.748   1.154   1.681
 2495SOL    HW117454   1.764   1.244   1.722
 2495SOL    HW217455   1.651   1.130   1.693
 2496SOL     OW17456   3.989   0.138   1.365
 2496SOL    HW117457   3.908   0.104   1.317
 2496SOL    HW217458   3.983   0.237   1.374
 2497SOL     OW17459   3.797   9.135   2.126
 2497SOL    HW117460   3.843   9.204   2.070
 2497SOL    HW217461   3.704   9.164   2.146
 2498SOL     OW17462   2.232   0.285   0.869
 2498SOL    HW117463   2.235   0.328   0.959
 2498SOL    HW217464   2.179   0.200   0.874
 2499SOL     OW17465   1.376   7.296   0.983
 2499SOL    HW117466   1.339   7.389   0.977
 2499SOL    HW217467   1.310   7.231   0.946
 2500SOL     OW17468   0.069   4.817   2.269
 2500SOL    HW117469   0.020   4.785   2.350
 2500SOL    HW217470   0.004   4.850   2.201
 2501SOL     OW17471   2.384   1.214   2.234
 2501SOL    HW117472   2.368   1.129   2.183
 2501SOL    HW217473   2.324   1.216   2.314
 2502SOL     OW17474   9.287   5.453   1.073
 2502SOL    HW117475   9.378   5.412   1.082
 2502SOL    HW217476   9.272   5.517   1.148
 2503SOL     OW17477   3.002   3.789   0.557
 2503SOL    HW117478   2.979   3.697   0.527
 2503SOL    HW217479   3.084   3.786   0.615
 2504SOL     OW17480   4.991   4.372   0.870
 2504SOL    HW117481   5.072   4.333   0.827
 2504SOL    HW217482   4.945   4.433   0.805
 2505SOL     OW17483   0.408   2.004   2.096
 2505SOL    HW117484   0.344   1.942   2.050
 2505SOL    HW217485   0.357   2.081   2.135
 2506SOL     OW17486   3.857   5.067   0.741
 2506SOL    HW117487   3.781   5.082   0.804
 2506SOL    HW217488   3.834   5.108   0.652
 2507SOL     OW17489   2.941   0.916   2.148
 2507SOL    HW117490   2.955   0.827   2.103
 2507SOL    HW217491   2.843   0.932   2.159
 2508SOL     OW17492   2.543   6.010   0.688
 2508SOL    HW117493   2.614   6.006   0.759
 2508SOL    HW217494   2.570   6.075   0.617
 2509SOL     OW17495   0.703   3.112   0.371
 2509SOL    HW117496   0.735   3.206   0.387
 2509SOL    HW217497   0.604   3.108   0.384
 2510SOL     OW17498   9.816   5.325   0.630
 2510SOL    HW117499   9.725   5.326   0.590
 2510SOL    HW217500   9.831   5.410   0.681
 2511SOL     OW17501   4.302   1.756   1.968
 2511SOL    HW117502   4.284   1.728   1.873
 2511SOL    HW217503   4.374   1.699   2.007
 2512SOL     OW17504   2.002   9.606   1.274
 2512SOL    HW117505   1.968   9.584   1.183
 2512SOL    HW217506   1.973   9.534   1.338
 2513SOL     OW17507   4.602   1.837   0.545
 2513SOL    HW117508   4.540   1.915   0.536
 2513SOL    HW217509   4.552   1.758   0.581
 2514SOL     OW17510   0.596   5.691   2.282
 2514SOL    HW117511   0.510   5.650   2.250
 2514SOL    HW217512   0.587   5.718   2.378
 2515SOL     OW17513   0.319   2.019   0.647
 2515SOL    HW117514   0.265   2.007   0.731
 2515SOL    HW217515   0.308   2.112   0.613
 2516SOL     OW17516   0.659   0.617   1.668
 2516SOL    HW117517   0.569   0.606   1.627
 2516SOL    HW217518   0.662   0.700   1.723
 2517SOL     OW17519   3.188   9.335   1.778
 2517SOL    HW117520   3.097   9.312   1.811
 2517SOL    HW217521   3.255   9.274   1.819
 2518SOL     OW17522   8.809   2.543   2.215
 2518SOL    HW117523   8.731   2.492   2.179
 2518SOL    HW217524   8.844   2.605   2.145
 2519SOL     OW17525   3.599   4.462   1.744
 2519SOL    HW117526   3.639   4.519   1.816
 2519SOL    HW217527   3.555   4.382   1.786
 2520SOL     OW17528   4.510   0.781   0.961
 2520SOL    HW117529   4.556   0.813   0.878
 2520SOL    HW217530   4.545   0.830   1.040
 2521SOL     OW17531   0.344   5.585   2.200
 2521SOL    HW117532   0.377   5.494   2.178
 2521SOL    HW217533   0.246   5.581   2.221
 2522SOL     OW17534   3.429   0.834   1.165
 2522SOL    HW117535   3.434   0.933   1.177
 2522SOL    HW217536   3.496   0.804   1.098
 2523SOL     OW17537   2.017   3.146   1.767
 2523SOL    HW117538   1.933   3.191   1.799
 2523SOL    HW217539   2.090   3.214   1.760
 2524SOL     OW17540   0.629   9.952   1.679
 2524SOL    HW117541   0.568   9.922   1.752
 2524SOL    HW217542   0.693   9.879   1.657
 2525SOL     OW17543   9.040   2.234   2.071
 2525SOL    HW117544   8.960   2.181   2.098
 2525SOL    HW217545   9.119   2.173   2.063
 2526SOL     OW17546   1.845   4.023   1.193
 2526SOL    HW117547   1.933   3.980   1.211
 2526SOL    HW217548   1.821   4.009   1.097
 2527SOL     OW17549   0.457   7.479   1.915
 2527SOL    HW117550   0.488   7.386   1.932
 2527SOL    HW217551   0.413   7.515   1.997
 2528SOL     OW17552   3.777   8.638   1.610
 2528SOL    HW117553   3.745   8.612   1.519
 2528SOL    HW217554   3.850   8.706   1.602
 2529SOL     OW17555   4.539   2.760   2.302
 2529SOL    HW117556   4.482   2.755   2.384
 2529SOL    HW217557   4.547   2.855   2.272
 2530SOL     OW17558   4.089   2.786   0.942
 2530SOL    HW117559   4.032   2.852   0.992
 2530SOL    HW217560   4.046   2.765   0.854
 2531SOL     OW17561   2.239   5.294   2.023
 2531SOL    HW117562   2.222   5.205   2.065
 2531SOL    HW217563   2.299   5.347   2.082
 2532SOL     OW17564   2.342   8.659   1.959
 2532SOL    HW117565   2.385   8.639   1.870
 2532SOL    HW217566   2.262   8.717   1.945
 2533SOL     OW17567   1.049   6.114   1.549
 2533SOL    HW117568   1.016   6.061   1.627
 2533SOL    HW217569   1.006   6.082   1.465
 2534SOL     OW17570   4.235   1.856   0.498
 2534SOL    HW117571   4.311   1.919   0.508
 2534SOL    HW217572   4.160   1.901   0.450
 2535SOL     OW17573   0.417   3.982   1.170
 2535SOL    HW117574   0.337   3.987   1.110
 2535SOL    HW217575   0.465   4.070   1.169
 2536SOL     OW17576   9.780   5.202   0.873
 2536SOL    HW117577   9.795   5.230   0.779
 2536SOL    HW217578   9.844   5.250   0.933
 2537SOL     OW17579   1.623   0.390   1.899
 2537SOL    HW117580   1.619   0.327   1.977
 2537SOL    HW217581   1.635   0.483   1.933
 2538SOL     OW17582   1.259   8.662   0.912
 2538SOL    HW117583   1.295   8.570   0.931
 2538SOL    HW217584   1.312   8.730   0.963
 2539SOL     OW17585   2.547   1.376   0.864
 2539SOL    HW117586   2.475   1.440   0.837
 2539SOL    HW217587   2.541   1.293   0.808
 2540SOL     OW17588   3.607   3.979   1.606
 2540SOL    HW117589   3.570   4.066   1.573
 2540SOL    HW217590   3.588   3.969   1.704
 2541SOL     OW17591   0.989   2.260   1.922
 2541SOL    HW117592   0.904   2.231   1.965
 2541SOL    HW217593   1.066   2.241   1.983
 2542SOL     OW17594   8.184   2.597   1.990
 2542SOL    HW117595   8.125   2.677   1.977
 2542SOL    HW217596   8.237   2.581   1.907
 2543SOL     OW17597   5.171   3.464   1.726
 2543SOL    HW117598   5.236   3.414   1.668
 2543SOL    HW217599   5.204   3.465   1.820
 2544SOL     OW17600   0.750   5.413   1.770
 2544SOL    HW117601   0.665   5.384   1.813
 2544SOL    HW217602   0.779   5.500   1.810
 2545SOL     OW17603   3.442   8.043   1.623
 2545SOL    HW117604   3.426   7.992   1.538
 2545SOL    HW217605   3.538   8.071   1.627
 2546SOL     OW17606   2.384   0.184   0.382
 2546SOL    HW117607   2.321   0.107   0.391
 2546SOL    HW217608   2.461   0.158   0.324
 2547SOL     OW17609   4.097   2.417   1.653
 2547SOL    HW117610   4.172   2.458   1.601
 2547SOL    HW217611   4.012   2.466   1.633
 2548SOL     OW17612   1.093   8.053   0.897
 2548SOL    HW117613   1.036   8.112   0.954
 2548SOL    HW217614   1.165   8.108   0.854
 2549SOL     OW17615   1.332   9.200   2.122
 2549SOL    HW117616   1.235   9.202   2.147
 2549SOL    HW217617   1.342   9.170   2.027
 2550SOL     OW17618   0.558   5.147   1.233
 2550SOL    HW117619   0.655   5.121   1.239
 2550SOL    HW217620   0.520   5.114   1.146
 2551SOL     OW17621   9.688   3.461   0.532
 2551SOL    HW117622   9.711   3.365   0.549
 2551SOL    HW217623   9.672   3.507   0.620
 2552SOL     OW17624   0.019   3.976   2.079
 2552SOL    HW117625   9.965   4.059   2.079
 2552SOL    HW217626   0.113   3.997   2.053
 2553SOL     OW17627   0.558   4.787   0.989
 2553SOL    HW117628   0.472   4.825   1.025
 2553SOL    HW217629   0.613   4.861   0.950
 2554SOL     OW17630   1.942   2.094   1.053
 2554SOL    HW117631   1.979   2.024   0.992
 2554SOL    HW217632   1.961   2.069   1.148
 2555SOL     OW17633   3.333   8.773   0.411
 2555SOL    HW117634   3.389   8.779   0.329
 2555SOL    HW217635   3.384   8.812   0.488
 2556SOL     OW17636   1.651   3.088   0.703
 2556SOL    HW117637   1.719   3.157   0.726
 2556SOL    HW217638   1.560   3.128   0.705
 2557SOL     OW17639   3.828   8.553   2.262
 2557SOL    HW117640   3.892   8.630   2.257
 2557SOL    HW217641   3.734   8.588   2.265
 2558SOL     OW17642   0.935   9.202   1.378
 2558SOL    HW117643   0.867   9.152   1.432
 2558SOL    HW217644   0.966   9.282   1.429
 2559SOL     OW17645   0.715   4.953   2.033
 2559SOL    HW117646   0.772   4.877   2.061
 2559SOL    HW217647   0.655   4.979   2.109
 2560SOL     OW17648   0.434   2.834   1.486
 2560SOL    HW117649   0.528   2.800   1.490
 2560SOL    HW217650   0.411   2.880   1.572
 2561SOL     OW17651   2.042   9.414   0.491
 2561SOL    HW117652   2.138   9.430   0.469
 2561SOL    HW217653   1.987   9.493   0.461
 2562SOL     OW17654   8.593   1.873   0.562
 2562SOL    HW117655   8.642   1.859   0.476
 2562SOL    HW217656   8.656   1.910   0.630
 2563SOL     OW17657   1.697   3.972   1.847
 2563SOL    HW117658   1.662   3.995   1.938
 2563SOL    HW217659   1.786   3.928   1.855
 2564SOL     OW17660   9.845   0.929   0.985
 2564SOL    HW117661   9.889   0.894   0.902
 2564SOL    HW217662   9.868   0.870   1.062
 2565SOL     OW17663   2.686   9.727   1.959
 2565SOL    HW117664   2.762   9.758   1.902
 2565SOL    HW217665   2.653   9.804   2.014
 2566SOL     OW17666   3.768   1.946   1.388
 2566SOL    HW117667   3.775   1.958   1.289
 2566SOL    HW217668   3.684   1.988   1.421
 2567SOL     OW17669   4.363   4.665   0.840
 2567SOL    HW117670   4.344   4.648   0.743
 2567SOL    HW217671   4.380   4.579   0.887
 2568SOL     OW17672   2.933   8.792   1.040
 2568SOL    HW117673   2.913   8.786   0.943
 2568SOL    HW217674   2.875   8.861   1.082
 2569SOL     OW17675   2.491   5.626   1.886
 2569SOL    HW117676   2.413   5.674   1.924
 2569SOL    HW217677   2.464   5.533   1.860
 2570SOL     OW17678   1.360   8.410   0.965
 2570SOL    HW117679   1.455   8.403   0.933
 2570SOL    HW217680   1.351   8.362   1.053
 2571SOL     OW17681   0.465   6.441   0.585
 2571SOL    HW117682   0.394   6.477   0.525
 2571SOL    HW217683   0.470   6.497   0.668
 2572SOL     OW17684   2.840   8.586   1.765
 2572SOL    HW117685   2.781   8.624   1.694
 2572SOL    HW217686   2.889   8.660   1.812
 2573SOL     OW17687   9.818   1.167   1.746
 2573SOL    HW117688   9.789   1.151   1.652
 2573SOL    HW217689   9.906   1.214   1.746
 2574SOL     OW17690   9.648   1.956   1.790
 2574SOL    HW117691   9.733   1.902   1.791
 2574SOL    HW217692   9.671   2.053   1.785
 2575SOL     OW17693   1.192   2.170   2.091
 2575SOL    HW117694   1.147   2.085   2.116
 2575SOL    HW217695   1.291   2.155   2.085
 2576SOL     OW17696   9.073   3.089   1.386
 2576SOL    HW117697   9.067   3.051   1.294
 2576SOL    HW217698   9.027   3.027   1.451
 2577SOL     OW17699   0.943   8.788   1.270
 2577SOL    HW117700   1.008   8.863   1.275
 2577SOL    HW217701   0.915   8.761   1.362
 2578SOL     OW17702   3.699   8.126   1.652
 2578SOL    HW117703   3.706   8.143   1.751
 2578SOL    HW217704   3.772   8.177   1.605
 2579SOL     OW17705   4.196   4.420   2.048
 2579SOL    HW117706   4.149   4.342   2.089
 2579SOL    HW217707   4.152   4.505   2.076
 2580SOL     OW17708   1.614   3.127   1.624
 2580SOL    HW117709   1.623   3.109   1.526
 2580SOL    HW217710   1.527   3.092   1.657
 2581SOL     OW17711   3.649   3.241   2.279
 2581SOL    HW117712   3.693   3.197   2.357
 2581SOL    HW217713   3.554   3.265   2.303
 2582SOL     OW17714   2.333   9.179   1.637
 2582SOL    HW117715   2.313   9.086   1.670
 2582SOL    HW217716   2.390   9.173   1.556
 2583SOL     OW17717   4.034   0.356   2.256
 2583SOL    HW117718   4.078   0.391   2.338
 2583SOL    HW217719   4.076   0.397   2.175
 2584SOL     OW17720   2.294   9.908   1.223
 2584SOL    HW117721   2.216   9.966   1.245
 2584SOL    HW217722   2.286   9.821   1.272
 2585SOL     OW17723   1.278   8.849   0.711
 2585SOL    HW117724   1.269   8.778   0.780
 2585SOL    HW217725   1.302   8.936   0.755
 2586SOL     OW17726   2.385   5.386   1.802
 2586SOL    HW117727   2.330   5.343   1.873
 2586SOL    HW217728   2.325   5.418   1.728
 2587SOL     OW17729   1.624   1.436   0.646
 2587SOL    HW117730   1.571   1.450   0.729
 2587SOL    HW217731   1.639   1.338   0.631
 2588SOL     OW17732   8.803   2.406   1.265
 2588SOL    HW117733   8.891   2.389   1.221
 2588SOL    HW217734   8.785   2.334   1.332
 2589SOL     OW17735   3.364   4.324   1.179
 2589SOL    HW117736   3.428   4.395   1.210
 2589SOL    HW217737   3.271   4.359   1.185
 2590SOL     OW17738   0.823   5.081   0.402
 2590SOL    HW117739   0.872   5.055   0.319
 2590SOL    HW217740   0.791   5.175   0.394
 2591SOL     OW17741   2.253   2.350   1.084
 2591SOL    HW117742   2.208   2.437   1.107
 2591SOL    HW217743   2.238   2.285   1.158
 2592SOL     OW17744   3.679   3.782   1.430
 2592SOL    HW117745   3.661   3.845   1.506
 2592SOL    HW217746   3.771   3.798   1.395
 2593SOL     OW17747   2.319   3.854   1.137
 2593SOL    HW117748   2.352   3.933   1.086
 2593SOL    HW217749   2.276   3.789   1.074
 2594SOL     OW17750   4.205   1.854   2.202
 2594SOL    HW117751   4.227   1.816   2.112
 2594SOL    HW217752   4.116   1.818   2.231
 2595SOL     OW17753   9.849   5.534   0.801
 2595SOL    HW117754   9.909   5.614   0.793
 2595SOL    HW217755   9.758   5.563   0.830
 2596SOL     OW17756   1.531   0.753   0.834
 2596SOL    HW117757   1.622   0.792   0.817
 2596SOL    HW217758   1.519   0.739   0.932
 2597SOL     OW17759   1.854   0.715   1.678
 2597SOL    HW117760   1.886   0.810   1.685
 2597SOL    HW217761   1.822   0.699   1.585
 2598SOL     OW17762   1.298   3.411   1.687
 2598SOL    HW117763   1.248   3.424   1.772
 2598SOL    HW217764   1.319   3.314   1.675
 2599SOL     OW17765   0.487   1.506   0.743
 2599SOL    HW117766   0.398   1.551   0.754
 2599SOL    HW217767   0.509   1.500   0.645
 2600SOL     OW17768   9.239   2.046   2.058
 2600SOL    HW117769   9.314   2.112   2.054
 2600SOL    HW217770   9.257   1.978   2.129
 2601SOL     OW17771   3.453   0.741   0.746
 2601SOL    HW117772   3.378   0.716   0.807
 2601SOL    HW217773   3.419   0.801   0.673
 2602SOL     OW17774   1.610   6.223   1.708
 2602SOL    HW117775   1.552   6.282   1.652
 2602SOL    HW217776   1.553   6.153   1.752
 2603SOL     OW17777   3.231   9.931   2.089
 2603SOL    HW117778   3.276   0.014   2.122
 2603SOL    HW217779   3.250   9.855   2.152
 2604SOL     OW17780   9.871   2.126   1.360
 2604SOL    HW117781   9.884   2.201   1.295
 2604SOL    HW217782   9.773   2.110   1.375
 2605SOL     OW17783   2.497   8.389   0.486
 2605SOL    HW117784   2.499   8.487   0.466
 2605SOL    HW217785   2.493   8.338   0.400
 2606SOL     OW17786   3.398   4.724   1.960
 2606SOL    HW117787   3.370   4.775   1.878
 2606SOL    HW217788   3.320   4.676   1.998
 2607SOL     OW17789   1.389   8.008   1.253
 2607SOL    HW117790   1.488   7.994   1.261
 2607SOL    HW217791   1.370   8.103   1.230
 2608SOL     OW17792   9.922   3.687   1.366
 2608SOL    HW117793   0.001   3.711   1.309
 2608SOL    HW217794   9.927   3.590   1.391
 2609SOL     OW17795   8.786   1.979   1.883
 2609SOL    HW117796   8.881   1.950   1.877
 2609SOL    HW217797   8.746   1.984   1.791
 2610SOL     OW17798   0.768   3.887   0.455
 2610SOL    HW117799   0.857   3.870   0.497
 2610SOL    HW217800   0.774   3.967   0.396
 2611SOL     OW17801   9.774   2.209   1.797
 2611SOL    HW117802   9.843   2.202   1.725
 2611SOL    HW217803   9.708   2.279   1.773
 2612SOL     OW17804   1.283   5.637   2.197
 2612SOL    HW117805   1.190   5.606   2.179
 2612SOL    HW217806   1.285   5.737   2.196
 2613SOL     OW17807   1.325   1.501   0.351
 2613SOL    HW117808   1.282   1.411   0.357
 2613SOL    HW217809   1.423   1.490   0.334
 2614SOL     OW17810   2.091   6.121   1.280
 2614SOL    HW117811   2.171   6.062   1.279
 2614SOL    HW217812   2.044   6.116   1.192
 2615SOL     OW17813   2.124   3.322   1.335
 2615SOL    HW117814   2.185   3.245   1.320
 2615SOL    HW217815   2.178   3.407   1.342
 2616SOL     OW17816   3.766   9.056   0.887
 2616SOL    HW117817   3.748   9.103   0.800
 2616SOL    HW217818   3.777   9.124   0.960
 2617SOL     OW17819   1.669   2.034   1.101
 2617SOL    HW117820   1.758   2.075   1.083
 2617SOL    HW217821   1.654   1.957   1.039
 2618SOL     OW17822   2.166   5.342   1.112
 2618SOL    HW117823   2.218   5.426   1.128
 2618SOL    HW217824   2.180   5.279   1.188
 2619SOL     OW17825   1.761   0.873   0.734
 2619SOL    HW117826   1.827   0.946   0.715
 2619SOL    HW217827   1.750   0.816   0.653
 2620SOL     OW17828   4.844   1.835   0.674
 2620SOL    HW117829   4.752   1.839   0.636
 2620SOL    HW217830   4.882   1.743   0.660
 2621SOL     OW17831   3.899   3.581   1.251
 2621SOL    HW117832   3.804   3.551   1.245
 2621SOL    HW217833   3.903   3.681   1.248
 2622SOL     OW17834   2.716   0.231   1.627
 2622SOL    HW117835   2.775   0.308   1.650
 2622SOL    HW217836   2.730   0.205   1.531
 2623SOL     OW17837   4.425   3.909   2.293
 2623SOL    HW117838   4.514   3.920   2.249
 2623SOL    HW217839   4.361   3.974   2.254
 2624SOL     OW17840   9.690   2.121   2.063
 2624SOL    HW117841   9.739   2.045   2.105
 2624SOL    HW217842   9.724   2.136   1.970
 2625SOL     OW17843   3.782   0.852   1.361
 2625SOL    HW117844   3.857   0.839   1.427
 2625SOL    HW217845   3.802   0.932   1.304
 2626SOL     OW17846   3.046   2.129   1.889
 2626SOL    HW117847   3.126   2.185   1.868
 2626SOL    HW217848   3.063   2.035   1.861
 2627SOL     OW17849   0.434   6.952   1.258
 2627SOL    HW117850   0.468   7.045   1.243
 2627SOL    HW217851   0.394   6.917   1.173
 2628SOL     OW17852   0.215   5.241   0.341
 2628SOL    HW117853   0.165   5.257   0.427
 2628SOL    HW217854   0.213   5.325   0.286
 2629SOL     OW17855   3.744   9.666   2.171
 2629SOL    HW117856   3.802   9.619   2.237
 2629SOL    HW217857   3.731   9.761   2.200
 2630SOL     OW17858   4.089   9.764   2.088
 2630SOL    HW117859   4.051   9.813   2.010
 2630SOL    HW217860   4.046   9.674   2.095
 2631SOL     OW17861   0.699   5.616   0.810
 2631SOL    HW117862   0.717   5.705   0.770
 2631SOL    HW217863   0.713   5.621   0.909
 2632SOL     OW17864   2.215   0.531   1.497
 2632SOL    HW117865   2.299   0.567   1.455
 2632SOL    HW217866   2.203   0.575   1.587
 2633SOL     OW17867   9.732   3.102   1.288
 2633SOL    HW117868   9.761   3.070   1.378
 2633SOL    HW217869   9.632   3.101   1.282
 2634SOL     OW17870   9.699   3.558   1.996
 2634SOL    HW117871   9.767   3.629   2.011
 2634SOL    HW217872   9.697   3.496   2.075
 2635SOL     OW17873   1.917   1.090   0.685
 2635SOL    HW117874   1.917   1.159   0.758
 2635SOL    HW217875   2.010   1.082   0.648
 2636SOL     OW17876   1.379   3.525   2.086
 2636SOL    HW117877   1.439   3.602   2.064
 2636SOL    HW217878   1.423   3.439   2.058
 2637SOL     OW17879   2.210   1.299   0.730
 2637SOL    HW117880   2.216   1.225   0.798
 2637SOL    HW217881   2.247   1.383   0.770
 2638SOL     OW17882   9.441   2.227   2.068
 2638SOL    HW117883   9.454   2.326   2.062
 2638SOL    HW217884   9.530   2.181   2.071
 2639SOL     OW17885   2.417   5.070   1.852
 2639SOL    HW117886   2.459   5.142   1.908
 2639SOL    HW217887   2.464   5.065   1.764
 2640SOL     OW17888   3.377   4.947   0.883
 2640SOL    HW117889   3.291   4.968   0.835
 2640SOL    HW217890   3.357   4.899   0.968
 2641SOL     OW17891   2.565   8.926   1.722
 2641SOL    HW117892   2.609   8.859   1.662
 2641SOL    HW217893   2.467   8.928   1.704
 2642SOL     OW17894   2.249   6.776   1.989
 2642SOL    HW117895   2.158   6.787   2.027
 2642SOL    HW217896   2.285   6.686   2.015
 2643SOL     OW17897   1.918   0.710   1.092
 2643SOL    HW117898   1.842   0.773   1.110
 2643SOL    HW217899   1.993   0.759   1.049
 2644SOL     OW17900   3.126   1.524   0.735
 2644SOL    HW117901   3.147   1.486   0.825
 2644SOL    HW217902   3.158   1.460   0.664
 2645SOL     OW17903   0.353   3.936   1.583
 2645SOL    HW117904   0.288   4.007   1.555
 2645SOL    HW217905   0.364   3.937   1.682
 2646SOL     OW17906   2.961   5.250   1.876
 2646SOL    HW117907   2.918   5.329   1.832
 2646SOL    HW217908   3.040   5.221   1.821
 2647SOL     OW17909   9.451   3.616   2.104
 2647SOL    HW117910   9.533   3.599   2.050
 2647SOL    HW217911   9.412   3.705   2.079
 2648SOL     OW17912   1.544   3.881   0.375
 2648SOL    HW117913   1.474   3.865   0.305
 2648SOL    HW217914   1.587   3.794   0.400
 2649SOL     OW17915   9.616   4.065   1.225
 2649SOL    HW117916   9.643   3.979   1.182
 2649SOL    HW217917   9.561   4.118   1.161
 2650SOL     OW17918   1.328   7.291   1.615
 2650SOL    HW117919   1.409   7.243   1.580
 2650SOL    HW217920   1.339   7.389   1.599
 2651SOL     OW17921   2.453   8.432   2.070
 2651SOL    HW117922   2.546   8.435   2.035
 2651SOL    HW217923   2.403   8.514   2.040
 2652SOL     OW17924   2.872   8.051   1.969
 2652SOL    HW117925   2.786   8.000   1.970
 2652SOL    HW217926   2.890   8.085   1.876
 2653SOL     OW17927   1.337   6.213   0.681
 2653SOL    HW117928   1.425   6.231   0.725
 2653SOL    HW217929   1.324   6.276   0.605
 2654SOL     OW17930   9.183   2.708   2.237
 2654SOL    HW117931   9.178   2.742   2.331
 2654SOL    HW217932   9.157   2.611   2.235
 2655SOL     OW17933   1.492   8.426   1.843
 2655SOL    HW117934   1.436   8.348   1.816
 2655SOL    HW217935   1.498   8.430   1.943
 2656SOL     OW17936   9.239   3.206   1.564
 2656SOL    HW117937   9.312   3.257   1.518
 2656SOL    HW217938   9.172   3.176   1.496
 2657SOL     OW17939   9.947   6.202   1.816
 2657SOL    HW117940   9.965   6.249   1.902
 2657SOL    HW217941   9.852   6.173   1.814
 2658SOL     OW17942   3.830   9.334   1.321
 2658SOL    HW117943   3.861   9.265   1.387
 2658SOL    HW217944   3.755   9.387   1.361
 2659SOL     OW17945   1.583   4.241   1.363
 2659SOL    HW117946   1.623   4.149   1.372
 2659SOL    HW217947   1.633   4.304   1.422
 2660SOL     OW17948   2.113   6.958   0.902
 2660SOL    HW117949   2.166   6.888   0.856
 2660SOL    HW217950   2.026   6.919   0.933
 2661SOL     OW17951   4.137   9.541   0.529
 2661SOL    HW117952   4.087   9.482   0.465
 2661SOL    HW217953   4.177   9.485   0.602
 2662SOL     OW17954   3.010   9.054   1.694
 2662SOL    HW117955   3.061   9.046   1.779
 2662SOL    HW217956   2.919   9.090   1.714
 2663SOL     OW17957   2.920   5.171   0.409
 2663SOL    HW117958   2.903   5.072   0.407
 2663SOL    HW217959   2.965   5.198   0.324
 2664SOL     OW17960   2.596   6.900   1.800
 2664SOL    HW117961   2.615   6.991   1.765
 2664SOL    HW217962   2.583   6.836   1.724
 2665SOL     OW17963   3.155   9.119   0.796
 2665SOL    HW117964   3.204   9.094   0.713
 2665SOL    HW217965   3.185   9.209   0.827
 2666SOL     OW17966   0.534   4.978   1.826
 2666SOL    HW117967   0.486   5.064   1.844
 2666SOL    HW217968   0.604   4.963   1.896
 2667SOL     OW17969   0.410   5.635   1.857
 2667SOL    HW117970   0.407   5.692   1.939
 2667SOL    HW217971   0.420   5.694   1.776
 2668SOL     OW17972   0.976   5.978   0.863
 2668SOL    HW117973   1.047   5.973   0.793
 2668SOL    HW217974   0.977   6.070   0.904
 2669SOL     OW17975   2.310   4.550   1.279
 2669SOL    HW117976   2.241   4.487   1.240
 2669SOL    HW217977   2.377   4.572   1.209
 2670SOL     OW17978   2.981   7.501   1.836
 2670SOL    HW117979   3.075   7.486   1.866
 2670SOL    HW217980   2.940   7.576   1.889
 2671SOL     OW17981   2.197   5.056   2.178
 2671SOL    HW117982   2.146   4.978   2.140
 2671SOL    HW217983   2.147   5.093   2.256
 2672SOL     OW17984   0.083   6.296   0.990
 2672SOL    HW117985   0.171   6.260   1.022
 2672SOL    HW217986   0.034   6.337   1.067
 2673SOL     OW17987   4.809   4.589   1.179
 2673SOL    HW117988   4.872   4.662   1.205
 2673SOL    HW217989   4.752   4.564   1.257
 2674SOL     OW17990   2.607   5.237   1.279
 2674SOL    HW117991   2.545   5.249   1.356
 2674SOL    HW217992   2.643   5.144   1.279
 2675SOL     OW17993   3.862   2.400   1.338
 2675SOL    HW117994   3.770   2.382   1.302
 2675SOL    HW217995   3.897   2.317   1.381
 2676SOL     OW17996   9.426   1.997   1.116
 2676SOL    HW117997   9.481   1.921   1.153
 2676SOL    HW217998   9.426   1.992   1.016
 2677SOL     OW17999   1.405   2.342   0.902
 2677SOL    HW118000   1.403   2.262   0.962
 2677SOL    HW218001   1.480   2.332   0.836
 2678SOL     OW18002   3.028   7.834   1.328
 2678SOL    HW118003   3.076   7.920   1.308
 2678SOL    HW218004   3.008   7.787   1.242
 2679SOL     OW18005   9.181   5.765   1.495
 2679SOL    HW118006   9.269   5.807   1.518
 2679SOL    HW218007   9.130   5.826   1.435
 2680SOL     OW18008   3.809   0.618   1.815
 2680SOL    HW118009   3.903   0.647   1.833
 2680SOL    HW218010   3.751   0.699   1.808
 2681SOL     OW18011   1.581   4.001   2.102
 2681SOL    HW118012   1.632   4.042   2.177
 2681SOL    HW218013   1.494   4.049   2.090
 2682SOL     OW18014   0.672   2.669   2.227
 2682SOL    HW118015   0.727   2.592   2.260
 2682SOL    HW218016   0.702   2.694   2.135
 2683SOL     OW18017   9.218   3.640   2.259
 2683SOL    HW118018   9.298   3.616   2.204
 2683SOL    HW218019   9.241   3.632   2.357
 2684SOL     OW18020   2.590   4.246   1.885
 2684SOL    HW118021   2.522   4.319   1.891
 2684SOL    HW218022   2.601   4.203   1.975
 2685SOL     OW18023   0.627   7.792   1.286
 2685SOL    HW118024   0.696   7.787   1.358
 2685SOL    HW218025   0.671   7.806   1.198
 2686SOL     OW18026   4.815   1.654   1.785
 2686SOL    HW118027   4.779   1.643   1.877
 2686SOL    HW218028   4.907   1.616   1.779
 2687SOL     OW18029   9.414   4.801   2.057
 2687SOL    HW118030   9.333   4.747   2.036
 2687SOL    HW218031   9.496   4.744   2.049
 2688SOL     OW18032   2.604   8.639   1.326
 2688SOL    HW118033   2.685   8.604   1.279
 2688SOL    HW218034   2.528   8.646   1.261
 2689SOL     OW18035   9.696   3.808   1.447
 2689SOL    HW118036   9.648   3.844   1.366
 2689SOL    HW218037   9.782   3.767   1.418
 2690SOL     OW18038   1.417   2.696   2.205
 2690SOL    HW118039   1.338   2.637   2.224
 2690SOL    HW218040   1.447   2.740   2.290
 2691SOL     OW18041   0.121   2.023   1.788
 2691SOL    HW118042   0.079   2.094   1.845
 2691SOL    HW218043   0.177   2.066   1.717
 2692SOL     OW18044   3.227   1.389   1.889
 2692SOL    HW118045   3.155   1.382   1.958
 2692SOL    HW218046   3.317   1.390   1.934
 2693SOL     OW18047   2.108   0.731   0.707
 2693SOL    HW118048   2.198   0.693   0.685
 2693SOL    HW218049   2.047   0.657   0.736
 2694SOL     OW18050   4.644   2.950   1.935
 2694SOL    HW118051   4.729   2.899   1.940
 2694SOL    HW218052   4.567   2.887   1.926
 2695SOL     OW18053   2.619   7.559   1.700
 2695SOL    HW118054   2.689   7.491   1.721
 2695SOL    HW218055   2.631   7.592   1.607
 2696SOL     OW18056   9.456   1.989   0.848
 2696SOL    HW118057   9.501   2.076   0.826
 2696SOL    HW218058   9.515   1.913   0.822
 2697SOL     OW18059   0.510   0.131   2.059
 2697SOL    HW118060   0.577   0.056   2.056
 2697SOL    HW218061   0.438   0.113   1.991
 2698SOL     OW18062   2.009   3.671   1.131
 2698SOL    HW118063   2.020   3.749   1.193
 2698SOL    HW218064   2.076   3.678   1.057
 2699SOL     OW18065   1.589   5.680   1.428
 2699SOL    HW118066   1.598   5.610   1.499
 2699SOL    HW218067   1.499   5.723   1.436
 2700SOL     OW18068   3.490   2.912   1.061
 2700SOL    HW118069   3.405   2.864   1.043
 2700SOL    HW218070   3.533   2.875   1.144
 2701SOL     OW18071   4.179   4.949   0.440
 2701SOL    HW118072   4.276   4.960   0.417
 2701SOL    HW218073   4.160   4.999   0.525
 2702SOL     OW18074   2.802   4.850   2.068
 2702SOL    HW118075   2.724   4.809   2.115
 2702SOL    HW218076   2.772   4.932   2.020
 2703SOL     OW18077   0.383   1.300   0.398
 2703SOL    HW118078   0.446   1.365   0.441
 2703SOL    HW218079   0.367   1.326   0.303
 2704SOL     OW18080   1.822   2.324   0.963
 2704SOL    HW118081   1.879   2.405   0.946
 2704SOL    HW218082   1.881   2.246   0.985
 2705SOL     OW18083   4.212   2.554   1.037
 2705SOL    HW118084   4.155   2.632   1.013
 2705SOL    HW218085   4.308   2.577   1.023
 2706SOL     OW18086   4.082   8.720   1.448
 2706SOL    HW118087   4.128   8.635   1.474
 2706SOL    HW218088   4.053   8.768   1.531
 2707SOL     OW18089   2.000   7.861   2.162
 2707SOL    HW118090   1.936   7.832   2.233
 2707SOL    HW218091   2.024   7.957   2.176
 2708SOL     OW18092   0.954   4.536   2.081
 2708SOL    HW118093   0.925   4.612   2.139
 2708SOL    HW218094   0.956   4.566   1.986
 2709SOL     OW18095   0.100   2.425   2.253
 2709SOL    HW118096   0.111   2.493   2.181
 2709SOL    HW218097   0.112   2.468   2.342
 2710SOL     OW18098   9.211   5.245   1.606
 2710SOL    HW118099   9.173   5.230   1.515
 2710SOL    HW218100   9.211   5.343   1.626
 2711SOL     OW18101   3.151   7.858   0.687
 2711SOL    HW118102   3.149   7.807   0.772
 2711SOL    HW218103   3.219   7.932   0.693
 2712SOL     OW18104   3.257   2.576   1.771
 2712SOL    HW118105   3.333   2.637   1.794
 2712SOL    HW218106   3.184   2.628   1.728
 2713SOL     OW18107   3.181   4.501   1.485
 2713SOL    HW118108   3.191   4.426   1.550
 2713SOL    HW218109   3.085   4.513   1.462
 2714SOL     OW18110   0.387   3.848   1.850
 2714SOL    HW118111   0.305   3.792   1.839
 2714SOL    HW218112   0.461   3.792   1.886
 2715SOL     OW18113   1.440   6.019   1.787
 2715SOL    HW118114   1.396   6.038   1.699
 2715SOL    HW218115   1.514   5.954   1.774
 2716SOL     OW18116   2.788   3.945   0.625
 2716SOL    HW118117   2.860   3.882   0.597
 2716SOL    HW218118   2.817   3.993   0.709
 2717SOL     OW18119   0.913   2.579   0.954
 2717SOL    HW118120   0.909   2.479   0.953
 2717SOL    HW218121   1.000   2.609   0.916
 2718SOL     OW18122   2.109   8.010   0.482
 2718SOL    HW118123   2.203   8.029   0.457
 2718SOL    HW218124   2.057   8.095   0.485
 2719SOL     OW18125   2.371   5.110   0.843
 2719SOL    HW118126   2.468   5.112   0.821
 2719SOL    HW218127   2.357   5.061   0.929
 2720SOL     OW18128   1.325   6.095   1.543
 2720SOL    HW118129   1.225   6.101   1.542
 2720SOL    HW218130   1.363   6.187   1.543
 2721SOL     OW18131   0.576   5.754   0.395
 2721SOL    HW118132   0.533   5.843   0.385
 2721SOL    HW218133   0.676   5.766   0.399
 2722SOL     OW18134   9.953   4.297   0.621
 2722SOL    HW118135   9.867   4.318   0.668
 2722SOL    HW218136   9.940   4.304   0.522
 2723SOL     OW18137   1.637   0.451   1.630
 2723SOL    HW118138   1.616   0.425   1.724
 2723SOL    HW218139   1.734   0.435   1.612
 2724SOL     OW18140   1.462   2.513   0.487
 2724SOL    HW118141   1.451   2.419   0.455
 2724SOL    HW218142   1.551   2.523   0.533
 2725SOL     OW18143   2.186   7.119   0.496
 2725SOL    HW118144   2.108   7.154   0.445
 2725SOL    HW218145   2.179   7.147   0.592
 2726SOL     OW18146   1.505   9.316   1.536
 2726SOL    HW118147   1.534   9.243   1.598
 2726SOL    HW218148   1.438   9.280   1.471
 2727SOL     OW18149   4.443   4.006   0.614
 2727SOL    HW118150   4.480   4.097   0.634
 2727SOL    HW218151   4.518   3.945   0.588
 2728SOL     OW18152   2.151   8.654   1.172
 2728SOL    HW118153   2.078   8.614   1.118
 2728SOL    HW218154   2.147   8.617   1.265
 2729SOL     OW18155   1.702   4.614   1.206
 2729SOL    HW118156   1.698   4.700   1.155
 2729SOL    HW218157   1.625   4.557   1.180
 2730SOL     OW18158   0.661   8.832   1.663
 2730SOL    HW118159   0.565   8.825   1.639
 2730SOL    HW218160   0.679   8.780   1.746
 2731SOL     OW18161   1.940   9.663   0.414
 2731SOL    HW118162   2.001   9.711   0.477
 2731SOL    HW218163   1.949   9.702   0.322
 2732SOL     OW18164   3.328   9.164   1.358
 2732SOL    HW118165   3.281   9.102   1.420
 2732SOL    HW218166   3.418   9.127   1.335
 2733SOL     OW18167   0.554   6.328   1.490
 2733SOL    HW118168   0.491   6.253   1.469
 2733SOL    HW218169   0.502   6.411   1.512
 2734SOL     OW18170   1.883   1.365   1.137
 2734SOL    HW118171   1.879   1.457   1.176
 2734SOL    HW218172   1.811   1.308   1.178
 2735SOL     OW18173   1.566   7.735   0.716
 2735SOL    HW118174   1.656   7.778   0.711
 2735SOL    HW218175   1.529   7.725   0.623
 2736SOL     OW18176   1.405   8.002   0.454
 2736SOL    HW118177   1.435   8.035   0.544
 2736SOL    HW218178   1.458   7.921   0.429
 2737SOL     OW18179   2.440   8.668   0.843
 2737SOL    HW118180   2.432   8.572   0.816
 2737SOL    HW218181   2.400   8.726   0.771
 2738SOL     OW18182   9.249   4.141   1.262
 2738SOL    HW118183   9.304   4.223   1.250
 2738SOL    HW218184   9.271   4.075   1.190
 2739SOL     OW18185   1.454   0.690   1.087
 2739SOL    HW118186   1.511   0.630   1.144
 2739SOL    HW218187   1.370   0.712   1.136
 2740SOL     OW18188   3.587   2.361   1.277
 2740SOL    HW118189   3.586   2.432   1.348
 2740SOL    HW218190   3.493   2.346   1.244
 2741SOL     OW18191   1.314   8.274   1.202
 2741SOL    HW118192   1.357   8.337   1.267
 2741SOL    HW218193   1.217   8.265   1.222
 2742SOL     OW18194   2.931   1.132   1.750
 2742SOL    HW118195   3.012   1.087   1.786
 2742SOL    HW218196   2.857   1.065   1.742
 2743SOL     OW18197   0.121   6.390   1.398
 2743SOL    HW118198   0.102   6.401   1.496
 2743SOL    HW218199   0.208   6.434   1.376
 2744SOL     OW18200   9.920   5.738   1.134
 2744SOL    HW118201   9.931   5.835   1.114
 2744SOL    HW218202   0.009   5.698   1.160
 2745SOL     OW18203   1.926   4.498   0.482
 2745SOL    HW118204   1.854   4.560   0.513
 2745SOL    HW218205   1.890   4.438   0.411
 2746SOL     OW18206   3.901   1.772   1.691
 2746SOL    HW118207   3.859   1.735   1.608
 2746SOL    HW218208   3.968   1.842   1.666
 2747SOL     OW18209   1.532   4.504   1.706
 2747SOL    HW118210   1.620   4.547   1.724
 2747SOL    HW218211   1.487   4.549   1.629
 2748SOL     OW18212   0.250   4.002   0.948
 2748SOL    HW118213   0.285   3.925   0.894
 2748SOL    HW218214   0.154   4.019   0.923
 2749SOL     OW18215   2.172   3.158   0.518
 2749SOL    HW118216   2.195   3.223   0.590
 2749SOL    HW218217   2.244   3.089   0.511
 2750SOL     OW18218   9.224   4.629   1.967
 2750SOL    HW118219   9.245   4.669   1.878
 2750SOL    HW218220   9.142   4.571   1.959
 2751SOL     OW18221   4.497   1.375   1.029
 2751SOL    HW118222   4.478   1.465   0.989
 2751SOL    HW218223   4.562   1.386   1.104
 2752SOL     OW18224   2.719   0.360   0.525
 2752SOL    HW118225   2.748   0.265   0.513
 2752SOL    HW218226   2.796   0.416   0.555
 2753SOL     OW18227   1.168   4.886   2.152
 2753SOL    HW118228   1.129   4.859   2.064
 2753SOL    HW218229   1.115   4.962   2.190
 2754SOL     OW18230   0.435   3.680   0.352
 2754SOL    HW118231   0.401   3.772   0.370
 2754SOL    HW218232   0.429   3.660   0.254
 2755SOL     OW18233   0.844   9.347   2.065
 2755SOL    HW118234   0.824   9.347   1.967
 2755SOL    HW218235   0.846   9.441   2.099
 2756SOL     OW18236   1.962   7.052   1.880
 2756SOL    HW118237   1.892   7.123   1.873
 2756SOL    HW218238   1.943   6.979   1.815
 2757SOL     OW18239   2.305   7.438   2.318
 2757SOL    HW118240   2.221   7.425   2.265
 2757SOL    HW218241   2.372   7.487   2.263
 2758SOL     OW18242   2.097   1.829   2.059
 2758SOL    HW118243   2.109   1.918   2.014
 2758SOL    HW218244   2.114   1.756   1.993
 2759SOL     OW18245   9.959   1.963   0.623
 2759SOL    HW118246   9.878   1.909   0.597
 2759SOL    HW218247   9.937   2.060   0.618
 2760SOL     OW18248   1.475   9.606   1.926
 2760SOL    HW118249   1.437   9.545   1.996
 2760SOL    HW218250   1.436   9.582   1.837
 2761SOL     OW18251   0.912   8.604   0.482
 2761SOL    HW118252   0.971   8.527   0.459
 2761SOL    HW218253   0.968   8.686   0.498
 2762SOL     OW18254   4.634   2.638   2.082
 2762SOL    HW118255   4.600   2.676   2.168
 2762SOL    HW218256   4.689   2.557   2.101
 2763SOL     OW18257   0.770   5.868   0.714
 2763SOL    HW118258   0.690   5.928   0.713
 2763SOL    HW218259   0.843   5.910   0.768
 2764SOL     OW18260   4.812   4.146   1.279
 2764SOL    HW118261   4.820   4.216   1.208
 2764SOL    HW218262   4.870   4.068   1.256
 2765SOL     OW18263   3.115   8.951   0.434
 2765SOL    HW118264   3.168   9.019   0.485
 2765SOL    HW218265   3.176   8.877   0.405
 2766SOL     OW18266   2.708   3.096   1.409
 2766SOL    HW118267   2.718   3.035   1.488
 2766SOL    HW218268   2.799   3.115   1.371
 2767SOL     OW18269   5.170   2.677   1.828
 2767SOL    HW118270   5.105   2.739   1.783
 2767SOL    HW218271   5.247   2.659   1.767
 2768SOL     OW18272   4.740   2.528   1.072
 2768SOL    HW118273   4.709   2.448   1.124
 2768SOL    HW218274   4.780   2.595   1.135
 2769SOL     OW18275   1.654   7.944   1.311
 2769SOL    HW118276   1.721   7.870   1.322
 2769SOL    HW218277   1.669   8.013   1.381
 2770SOL     OW18278   2.517   1.720   0.421
 2770SOL    HW118279   2.529   1.620   0.418
 2770SOL    HW218280   2.457   1.749   0.347
 2771SOL     OW18281   3.068   2.699   1.605
 2771SOL    HW118282   3.125   2.778   1.582
 2771SOL    HW218283   3.059   2.640   1.524
 2772SOL     OW18284   4.315   4.636   0.575
 2772SOL    HW118285   4.350   4.716   0.527
 2772SOL    HW218286   4.251   4.586   0.516
 2773SOL     OW18287   0.166   3.311   2.098
 2773SOL    HW118288   0.182   3.217   2.128
 2773SOL    HW218289   0.081   3.314   2.045
 2774SOL     OW18290   0.109   6.151   0.643
 2774SOL    HW118291   0.207   6.156   0.623
 2774SOL    HW218292   0.092   6.079   0.709
 2775SOL     OW18293   9.411   2.227   1.564
 2775SOL    HW118294   9.398   2.137   1.605
 2775SOL    HW218295   9.329   2.253   1.513
 2776SOL     OW18296   1.027   1.055   2.251
 2776SOL    HW118297   1.119   1.028   2.281
 2776SOL    HW218298   0.974   0.974   2.227
 2777SOL     OW18299   1.755   6.438   0.691
 2777SOL    HW118300   1.805   6.393   0.617
 2777SOL    HW218301   1.820   6.481   0.754
 2778SOL     OW18302   0.736   2.080   0.723
 2778SOL    HW118303   0.804   2.149   0.699
 2778SOL    HW218304   0.781   1.993   0.738
 2779SOL     OW18305   2.915   0.543   0.622
 2779SOL    HW118306   3.008   0.576   0.606
 2779SOL    HW218307   2.856   0.620   0.645
 2780SOL     OW18308   4.474   3.102   0.570
 2780SOL    HW118309   4.529   3.025   0.538
 2780SOL    HW218310   4.377   3.081   0.558
 2781SOL     OW18311   0.117   5.796   1.929
 2781SOL    HW118312   0.111   5.708   1.881
 2781SOL    HW218313   0.046   5.801   1.999
 2782SOL     OW18314   3.497   1.101   1.483
 2782SOL    HW118315   3.586   1.149   1.486
 2782SOL    HW218316   3.509   1.007   1.514
 2783SOL     OW18317   0.721   5.707   1.078
 2783SOL    HW118318   0.742   5.804   1.079
 2783SOL    HW218319   0.778   5.659   1.145
 2784SOL     OW18320   2.161   3.814   0.592
 2784SOL    HW118321   2.215   3.897   0.578
 2784SOL    HW218322   2.081   3.834   0.649
 2785SOL     OW18323   8.753   1.954   0.767
 2785SOL    HW118324   8.835   2.009   0.755
 2785SOL    HW218325   8.683   2.008   0.815
 2786SOL     OW18326   0.780   3.365   0.440
 2786SOL    HW118327   0.867   3.363   0.489
 2786SOL    HW218328   0.741   3.457   0.446
 2787SOL     OW18329   2.798   0.823   0.558
 2787SOL    HW118330   2.718   0.879   0.536
 2787SOL    HW218331   2.828   0.775   0.475
 2788SOL     OW18332   4.241   0.789   1.008
 2788SOL    HW118333   4.339   0.775   0.997
 2788SOL    HW218334   4.214   0.874   0.961
 2789SOL     OW18335   3.574   2.754   1.292
 2789SOL    HW118336   3.592   2.703   1.376
 2789SOL    HW218337   3.518   2.698   1.230
 2790SOL     OW18338   1.267   0.924   2.280
 2790SOL    HW118339   1.344   0.868   2.310
 2790SOL    HW218340   1.237   0.894   2.189
 2791SOL     OW18341   3.170   2.968   0.886
 2791SOL    HW118342   3.168   2.959   0.786
 2791SOL    HW218343   3.150   3.062   0.911
 2792SOL     OW18344   3.233   4.369   1.935
 2792SOL    HW118345   3.150   4.321   1.961
 2792SOL    HW218346   3.235   4.459   1.980
 2793SOL     OW18347   1.328   7.482   1.862
 2793SOL    HW118348   1.297   7.501   1.769
 2793SOL    HW218349   1.300   7.390   1.889
 2794SOL     OW18350   0.984   9.289   1.124
 2794SOL    HW118351   0.958   9.257   1.215
 2794SOL    HW218352   0.968   9.388   1.117
 2795SOL     OW18353   8.994   2.389   1.847
 2795SOL    HW118354   9.012   2.336   1.930
 2795SOL    HW218355   9.055   2.469   1.845
 2796SOL     OW18356   4.948   3.970   0.406
 2796SOL    HW118357   4.895   4.024   0.471
 2796SOL    HW218358   4.953   4.018   0.318
 2797SOL     OW18359   1.981   7.976   1.251
 2797SOL    HW118360   1.942   8.067   1.264
 2797SOL    HW218361   2.006   7.938   1.340
 2798SOL     OW18362   9.069   1.879   0.921
 2798SOL    HW118363   9.016   1.819   0.979
 2798SOL    HW218364   9.147   1.829   0.883
 2799SOL     OW18365   1.960   4.204   2.008
 2799SOL    HW118366   1.877   4.252   1.981
 2799SOL    HW218367   2.032   4.222   1.941
 2800SOL     OW18368   1.334   0.850   0.680
 2800SOL    HW118369   1.407   0.817   0.741
 2800SOL    HW218370   1.327   0.790   0.601
 2801SOL     OW18371   9.176   2.273   1.406
 2801SOL    HW118372   9.105   2.269   1.476
 2801SOL    HW218373   9.199   2.180   1.376
 2802SOL     OW18374   0.225   8.329   1.148
 2802SOL    HW118375   0.161   8.365   1.080
 2802SOL    HW218376   0.288   8.401   1.176
 2803SOL     OW18377   1.698   1.058   0.939
 2803SOL    HW118378   1.710   0.993   0.863
 2803SOL    HW218379   1.752   1.140   0.921
 2804SOL     OW18380   1.728   3.372   1.649
 2804SOL    HW118381   1.683   3.284   1.638
 2804SOL    HW218382   1.780   3.393   1.566
 2805SOL     OW18383   0.364   3.477   0.776
 2805SOL    HW118384   0.330   3.531   0.699
 2805SOL    HW218385   0.294   3.473   0.847
 2806SOL     OW18386   4.068   4.205   2.180
 2806SOL    HW118387   4.153   4.156   2.161
 2806SOL    HW218388   4.049   4.202   2.278
 2807SOL     OW18389   0.037   2.523   1.320
 2807SOL    HW118390   9.977   2.521   1.400
 2807SOL    HW218391   0.003   2.458   1.252
 2808SOL     OW18392   0.343   6.468   1.214
 2808SOL    HW118393   0.402   6.532   1.264
 2808SOL    HW218394   0.311   6.510   1.130
 2809SOL     OW18395   1.047   5.377   0.670
 2809SOL    HW118396   1.048   5.281   0.641
 2809SOL    HW218397   1.128   5.424   0.635
 2810SOL     OW18398   9.286   1.538   0.956
 2810SOL    HW118399   9.296   1.440   0.938
 2810SOL    HW218400   9.266   1.585   0.870
 2811SOL     OW18401   2.487   4.826   0.342
 2811SOL    HW118402   2.484   4.924   0.362
 2811SOL    HW218403   2.566   4.806   0.284
 2812SOL     OW18404   4.681   2.192   0.534
 2812SOL    HW118405   4.767   2.143   0.514
 2812SOL    HW218406   4.696   2.290   0.525
 2813SOL     OW18407   2.745   9.003   1.077
 2813SOL    HW118408   2.758   9.097   1.045
 2813SOL    HW218409   2.697   8.950   1.007
 2814SOL     OW18410   0.842   8.700   1.504
 2814SOL    HW118411   0.783   8.751   1.566
 2814SOL    HW218412   0.793   8.620   1.470
 2815SOL     OW18413   1.210   5.919   1.900
 2815SOL    HW118414   1.220   5.905   1.999
 2815SOL    HW218415   1.292   5.962   1.864
 2816SOL     OW18416   2.188   4.757   1.707
 2816SOL    HW118417   2.241   4.741   1.623
 2816SOL    HW218418   2.128   4.679   1.723
 2817SOL     OW18419   0.681   0.911   1.348
 2817SOL    HW118420   0.763   0.855   1.339
 2817SOL    HW218421   0.660   0.955   1.261
 2818SOL     OW18422   2.660   1.234   2.235
 2818SOL    HW118423   2.693   1.306   2.173
 2818SOL    HW218424   2.561   1.241   2.243
 2819SOL     OW18425   2.822   4.254   2.214
 2819SOL    HW118426   2.804   4.334   2.271
 2819SOL    HW218427   2.736   4.216   2.182
 2820SOL     OW18428   3.829   4.198   0.782
 2820SOL    HW118429   3.794   4.217   0.873
 2820SOL    HW218430   3.801   4.271   0.719
 2821SOL     OW18431   2.837   0.236   0.987
 2821SOL    HW118432   2.801   0.184   0.909
 2821SOL    HW218433   2.873   0.174   1.055
 2822SOL     OW18434   2.722   8.429   1.973
 2822SOL    HW118435   2.688   8.343   1.935
 2822SOL    HW218436   2.759   8.485   1.898
 2823SOL     OW18437   1.062   1.986   1.121
 2823SOL    HW118438   1.055   1.891   1.151
 2823SOL    HW218439   1.108   2.041   1.191
 2824SOL     OW18440   2.631   3.994   1.423
 2824SOL    HW118441   2.728   3.990   1.448
 2824SOL    HW218442   2.586   4.064   1.478
 2825SOL     OW18443   2.054   1.598   0.560
 2825SOL    HW118444   2.098   1.519   0.517
 2825SOL    HW218445   1.990   1.566   0.629
 2826SOL     OW18446   0.966   4.359   0.560
 2826SOL    HW118447   0.870   4.334   0.564
 2826SOL    HW218448   1.004   4.360   0.653
 2827SOL     OW18449   4.162   4.940   1.354
 2827SOL    HW118450   4.191   5.031   1.384
 2827SOL    HW218451   4.240   4.877   1.359
 2828SOL     OW18452   2.522   8.284   2.293
 2828SOL    HW118453   2.485   8.340   2.218
 2828SOL    HW218454   2.612   8.319   2.319
 2829SOL     OW18455   1.895   8.572   2.235
 2829SOL    HW118456   1.993   8.588   2.239
 2829SOL    HW218457   1.847   8.659   2.244
 2830SOL     OW18458   2.729   7.749   1.219
 2830SOL    HW118459   2.729   7.849   1.211
 2830SOL    HW218460   2.812   7.712   1.177
 2831SOL     OW18461   1.033   6.538   0.669
 2831SOL    HW118462   1.086   6.520   0.585
 2831SOL    HW218463   0.973   6.617   0.654
 2832SOL     OW18464   3.176   0.630   0.608
 2832SOL    HW118465   3.242   0.555   0.620
 2832SOL    HW218466   3.223   0.710   0.572
 2833SOL     OW18467   2.969   8.805   1.890
 2833SOL    HW118468   3.045   8.870   1.892
 2833SOL    HW218469   2.889   8.846   1.933
 2834SOL     OW18470   3.374   0.157   2.142
 2834SOL    HW118471   3.448   0.153   2.208
 2834SOL    HW218472   3.398   0.220   2.068
 2835SOL     OW18473   0.944   5.666   1.269
 2835SOL    HW118474   0.997   5.691   1.188
 2835SOL    HW218475   0.990   5.702   1.351
 2836SOL     OW18476   9.657   3.997   1.633
 2836SOL    HW118477   9.672   3.917   1.575
 2836SOL    HW218478   9.700   4.077   1.592
 2837SOL     OW18479   2.145   4.991   1.831
 2837SOL    HW118480   2.232   5.040   1.841
 2837SOL    HW218481   2.159   4.910   1.775
 2838SOL     OW18482   3.592   8.792   1.932
 2838SOL    HW118483   3.503   8.753   1.957
 2838SOL    HW218484   3.656   8.719   1.909
 2839SOL     OW18485   4.440   2.000   2.177
 2839SOL    HW118486   4.419   2.097   2.178
 2839SOL    HW218487   4.358   1.947   2.198
 2840SOL     OW18488   0.426   7.927   1.412
 2840SOL    HW118489   0.376   7.984   1.347
 2840SOL    HW218490   0.494   7.873   1.363
 2841SOL     OW18491   0.307   1.484   1.530
 2841SOL    HW118492   0.406   1.496   1.542
 2841SOL    HW218493   0.260   1.570   1.551
 2842SOL     OW18494   2.725   2.954   0.567
 2842SOL    HW118495   2.644   2.993   0.611
 2842SOL    HW218496   2.781   3.027   0.529
 2843SOL     OW18497   3.028   1.634   2.156
 2843SOL    HW118498   2.943   1.679   2.128
 2843SOL    HW218499   3.105   1.697   2.144
 2844SOL     OW18500   4.012   1.323   0.479
 2844SOL    HW118501   4.039   1.355   0.388
 2844SOL    HW218502   3.982   1.401   0.534
 2845SOL     OW18503   1.529   3.571   1.667
 2845SOL    HW118504   1.603   3.504   1.669
 2845SOL    HW218505   1.441   3.523   1.670
 2846SOL     OW18506   1.965   2.001   1.311
 2846SOL    HW118507   1.922   2.053   1.385
 2846SOL    HW218508   1.916   1.915   1.299
 2847SOL     OW18509   3.520   3.188   1.027
 2847SOL    HW118510   3.495   3.092   1.041
 2847SOL    HW218511   3.437   3.242   1.014
 2848SOL     OW18512   3.061   2.510   1.394
 2848SOL    HW118513   3.018   2.420   1.395
 2848SOL    HW218514   3.156   2.502   1.425
 2849SOL     OW18515   0.428   7.201   1.655
 2849SOL    HW118516   0.516   7.214   1.610
 2849SOL    HW218517   0.379   7.288   1.660
 2850SOL     OW18518   8.340   2.501   2.190
 2850SOL    HW118519   8.280   2.532   2.116
 2850SOL    HW218520   8.285   2.475   2.269
 2851SOL     OW18521   9.878   4.339   0.356
 2851SOL    HW118522   9.964   4.377   0.320
 2851SOL    HW218523   9.810   4.412   0.362
 2852SOL     OW18524   1.965   0.446   1.068
 2852SOL    HW118525   2.063   0.433   1.084
 2852SOL    HW218526   1.942   0.543   1.077
 2853SOL     OW18527   9.455   2.477   0.781
 2853SOL    HW118528   9.363   2.464   0.815
 2853SOL    HW218529   9.509   2.530   0.847
 2854SOL     OW18530   9.798   2.085   0.961
 2854SOL    HW118531   9.883   2.136   0.947
 2854SOL    HW218532   9.721   2.141   0.933
 2855SOL     OW18533   2.485   7.529   2.131
 2855SOL    HW118534   2.435   7.478   2.061
 2855SOL    HW218535   2.575   7.555   2.094
 2856SOL     OW18536   1.096   2.775   0.825
 2856SOL    HW118537   1.010   2.774   0.774
 2856SOL    HW218538   1.170   2.807   0.765
 2857SOL     OW18539   2.216   7.528   1.782
 2857SOL    HW118540   2.275   7.472   1.841
 2857SOL    HW218541   2.211   7.487   1.691
 2858SOL     OW18542   0.403   3.429   2.011
 2858SOL    HW118543   0.320   3.399   2.057
 2858SOL    HW218544   0.381   3.461   1.919
 2859SOL     OW18545   3.364   4.780   1.115
 2859SOL    HW118546   3.359   4.756   1.212
 2859SOL    HW218547   3.460   4.785   1.087
 2860SOL     OW18548   9.079   5.096   0.773
 2860SOL    HW118549   9.039   5.040   0.701
 2860SOL    HW218550   9.023   5.177   0.787
 2861SOL     OW18551   2.627   8.871   0.871
 2861SOL    HW118552   2.563   8.795   0.868
 2861SOL    HW218553   2.708   8.849   0.817
 2862SOL     OW18554   9.883   4.904   2.096
 2862SOL    HW118555   9.851   4.865   2.010
 2862SOL    HW218556   9.817   4.972   2.129
 2863SOL     OW18557   4.501   1.573   1.416
 2863SOL    HW118558   4.466   1.642   1.353
 2863SOL    HW218559   4.428   1.509   1.438
 2864SOL     OW18560   2.119   2.704   0.762
 2864SOL    HW118561   2.094   2.783   0.707
 2864SOL    HW218562   2.197   2.657   0.720
 2865SOL     OW18563   8.987   2.098   1.069
 2865SOL    HW118564   8.940   2.061   1.149
 2865SOL    HW218565   9.030   2.023   1.018
 2866SOL     OW18566   0.177   2.780   1.064
 2866SOL    HW118567   0.262   2.825   1.038
 2866SOL    HW218568   0.173   2.771   1.164
 2867SOL     OW18569   1.661   1.131   2.085
 2867SOL    HW118570   1.590   1.198   2.063
 2867SOL    HW218571   1.622   1.040   2.089
 2868SOL     OW18572   0.977   2.454   1.725
 2868SOL    HW118573   0.979   2.397   1.807
 2868SOL    HW218574   0.940   2.544   1.749
 2869SOL     OW18575   1.089   7.304   0.515
 2869SOL    HW118576   1.075   7.398   0.482
 2869SOL    HW218577   1.182   7.276   0.496
 2870SOL     OW18578   2.282   5.775   1.667
 2870SOL    HW118579   2.364   5.737   1.625
 2870SOL    HW218580   2.271   5.870   1.638
 2871SOL     OW18581   1.967   6.961   1.515
 2871SOL    HW118582   2.046   6.907   1.486
 2871SOL    HW218583   1.921   6.915   1.591
 2872SOL     OW18584   3.960   0.822   1.558
 2872SOL    HW118585   3.984   0.868   1.643
 2872SOL    HW218586   4.013   0.737   1.549
 2873SOL     OW18587   1.756   8.200   0.693
 2873SOL    HW118588   1.819   8.216   0.617
 2873SOL    HW218589   1.807   8.162   0.770
 2874SOL     OW18590   0.692   7.881   0.385
 2874SOL    HW118591   0.766   7.900   0.449
 2874SOL    HW218592   0.724   7.895   0.291
 2875SOL     OW18593   4.403   4.801   1.376
 2875SOL    HW118594   4.412   4.724   1.314
 2875SOL    HW218595   4.475   4.868   1.358
 2876SOL     OW18596   4.625   1.069   0.573
 2876SOL    HW118597   4.550   1.064   0.507
 2876SOL    HW218598   4.694   1.134   0.540
 2877SOL     OW18599   1.064   9.211   2.168
 2877SOL    HW118600   0.992   9.267   2.126
 2877SOL    HW218601   1.023   9.133   2.215
 2878SOL     OW18602   2.832   8.572   1.182
 2878SOL    HW118603   2.868   8.656   1.142
 2878SOL    HW218604   2.807   8.509   1.109
 2879SOL     OW18605   1.743   5.429   1.013
 2879SOL    HW118606   1.670   5.461   0.952
 2879SOL    HW218607   1.702   5.381   1.091
 2880SOL     OW18608   2.811   4.974   0.999
 2880SOL    HW118609   2.850   4.885   0.975
 2880SOL    HW218610   2.883   5.044   0.999
 2881SOL     OW18611   2.362   2.480   1.575
 2881SOL    HW118612   2.331   2.388   1.553
 2881SOL    HW218613   2.357   2.538   1.493
 2882SOL     OW18614   3.846   8.749   1.308
 2882SOL    HW118615   3.935   8.731   1.348
 2882SOL    HW218616   3.841   8.845   1.279
 2883SOL     OW18617   3.599   4.375   2.324
 2883SOL    HW118618   3.594   4.278   2.349
 2883SOL    HW218619   3.633   4.383   2.230
 2884SOL     OW18620   0.529   6.850   2.264
 2884SOL    HW118621   0.579   6.879   2.345
 2884SOL    HW218622   0.580   6.778   2.217
 2885SOL     OW18623   1.112   5.679   0.393
 2885SOL    HW118624   1.130   5.735   0.312
 2885SOL    HW218625   1.021   5.701   0.429
 2886SOL     OW18626   0.732   0.194   1.590
 2886SOL    HW118627   0.702   0.108   1.629
 2886SOL    HW218628   0.750   0.260   1.663
 2887SOL     OW18629   0.754   3.759   1.036
 2887SOL    HW118630   0.790   3.666   1.040
 2887SOL    HW218631   0.778   3.808   1.120
 2888SOL     OW18632   2.112   7.941   0.752
 2888SOL    HW118633   2.129   7.844   0.772
 2888SOL    HW218634   2.104   7.954   0.653
 2889SOL     OW18635   1.298   7.038   0.643
 2889SOL    HW118636   1.313   7.112   0.578
 2889SOL    HW218637   1.382   6.985   0.654
 2890SOL     OW18638   0.372   5.841   1.271
 2890SOL    HW118639   0.318   5.849   1.355
 2890SOL    HW218640   0.450   5.903   1.276
 2891SOL     OW18641   1.818   7.731   1.369
 2891SOL    HW118642   1.908   7.767   1.391
 2891SOL    HW218643   1.789   7.667   1.441
 2892SOL     OW18644   0.821   8.680   1.055
 2892SOL    HW118645   0.886   8.651   0.985
 2892SOL    HW218646   0.871   8.722   1.131
 2893SOL     OW18647   1.052   1.004   1.872
 2893SOL    HW118648   1.026   0.939   1.801
 2893SOL    HW218649   1.088   0.954   1.951
 2894SOL     OW18650   1.791   1.498   1.909
 2894SOL    HW118651   1.802   1.582   1.963
 2894SOL    HW218652   1.820   1.420   1.964
 2895SOL     OW18653   4.288   3.696   1.609
 2895SOL    HW118654   4.375   3.711   1.561
 2895SOL    HW218655   4.220   3.661   1.544
 2896SOL     OW18656   2.312   5.954   1.288
 2896SOL    HW118657   2.374   5.956   1.209
 2896SOL    HW218658   2.281   5.860   1.304
 2897SOL     OW18659   3.747   0.419   1.633
 2897SOL    HW118660   3.770   0.498   1.689
 2897SOL    HW218661   3.823   0.354   1.635
 2898SOL     OW18662   0.202   3.170   1.210
 2898SOL    HW118663   0.211   3.263   1.244
 2898SOL    HW218664   0.133   3.121   1.263
 2899SOL     OW18665   1.256   5.527   0.568
 2899SOL    HW118666   1.339   5.496   0.522
 2899SOL    HW218667   1.203   5.584   0.505
 2900SOL     OW18668   1.221   2.734   1.064
 2900SOL    HW118669   1.314   2.705   1.042
 2900SOL    HW218670   1.168   2.746   0.980
 2901SOL     OW18671   1.283   8.757   2.136
 2901SOL    HW118672   1.215   8.684   2.133
 2901SOL    HW218673   1.257   8.824   2.206
 2902SOL     OW18674   9.053   1.906   1.913
 2902SOL    HW118675   9.121   1.959   1.963
 2902SOL    HW218676   9.051   1.812   1.948
 2903SOL     OW18677   2.812   4.352   1.573
 2903SOL    HW118678   2.725   4.303   1.563
 2903SOL    HW218679   2.829   4.370   1.670
 2904SOL     OW18680   2.008   9.636   0.791
 2904SOL    HW118681   1.989   9.639   0.889
 2904SOL    HW218682   1.939   9.579   0.746
 2905SOL     OW18683   2.686   8.723   1.570
 2905SOL    HW118684   2.755   8.791   1.547
 2905SOL    HW218685   2.647   8.685   1.486
 2906SOL     OW18686   3.402   1.966   1.306
 2906SOL    HW118687   3.344   1.903   1.357
 2906SOL    HW218688   3.465   2.012   1.368
 2907SOL     OW18689   1.536   1.555   2.147
 2907SOL    HW118690   1.587   1.530   2.230
 2907SOL    HW218691   1.515   1.472   2.095
 2908SOL     OW18692   9.986   4.017   0.871
 2908SOL    HW118693   9.915   4.017   0.802
 2908SOL    HW218694   9.973   4.095   0.932
 2909SOL     OW18695   1.595   7.347   0.552
 2909SOL    HW118696   1.573   7.380   0.644
 2909SOL    HW218697   1.670   7.401   0.514
 2910SOL     OW18698   2.628   5.750   0.913
 2910SOL    HW118699   2.596   5.698   0.834
 2910SOL    HW218700   2.711   5.706   0.950
 2911SOL     OW18701   1.165   5.266   0.980
 2911SOL    HW118702   1.262   5.277   0.957
 2911SOL    HW218703   1.117   5.353   0.967
 2912SOL     OW18704   2.531   6.582   1.077
 2912SOL    HW118705   2.475   6.500   1.086
 2912SOL    HW218706   2.475   6.662   1.100
 2913SOL     OW18707   1.041   7.561   0.447
 2913SOL    HW118708   1.096   7.644   0.437
 2913SOL    HW218709   0.962   7.580   0.505
 2914SOL     OW18710   4.011   3.048   2.134
 2914SOL    HW118711   4.101   3.050   2.092
 2914SOL    HW218712   3.959   3.129   2.106
 2915SOL     OW18713   3.821   3.155   0.797
 2915SOL    HW118714   3.895   3.166   0.731
 2915SOL    HW218715   3.851   3.187   0.887
 2916SOL     OW18716   2.773   7.618   0.894
 2916SOL    HW118717   2.794   7.534   0.845
 2916SOL    HW218718   2.837   7.629   0.970
 2917SOL     OW18719   0.185   4.248   1.781
 2917SOL    HW118720   0.113   4.262   1.713
 2917SOL    HW218721   0.161   4.294   1.866
 2918SOL     OW18722   0.682   2.313   2.122
 2918SOL    HW118723   0.730   2.374   2.186
 2918SOL    HW218724   0.593   2.352   2.099
 2919SOL     OW18725   9.233   5.336   0.643
 2919SOL    HW118726   9.277   5.270   0.583
 2919SOL    HW218727   9.139   5.307   0.662
 2920SOL     OW18728   0.506   5.384   1.894
 2920SOL    HW118729   0.477   5.478   1.874
 2920SOL    HW218730   0.485   5.362   1.989
 2921SOL     OW18731   4.432   2.063   0.538
 2921SOL    HW118732   4.515   2.117   0.523
 2921SOL    HW218733   4.352   2.124   0.534
 2922SOL     OW18734   0.256   2.213   1.625
 2922SOL    HW118735   0.329   2.147   1.607
 2922SOL    HW218736   0.261   2.288   1.560
 2923SOL     OW18737   2.669   5.605   1.308
 2923SOL    HW118738   2.717   5.689   1.282
 2923SOL    HW218739   2.671   5.540   1.233
 2924SOL     OW18740   3.945   3.914   1.910
 2924SOL    HW118741   4.009   3.907   1.834
 2924SOL    HW218742   3.922   4.010   1.925
 2925SOL     OW18743   2.448   3.635   1.804
 2925SOL    HW118744   2.368   3.597   1.851
 2925SOL    HW218745   2.510   3.561   1.780
 2926SOL     OW18746   2.102   9.247   1.505
 2926SOL    HW118747   2.134   9.256   1.410
 2926SOL    HW218748   2.181   9.234   1.565
 2927SOL     OW18749   1.509   3.329   1.347
 2927SOL    HW118750   1.412   3.323   1.322
 2927SOL    HW218751   1.548   3.237   1.349
 2928SOL     OW18752   1.385   7.611   2.092
 2928SOL    HW118753   1.366   7.569   2.003
 2928SOL    HW218754   1.394   7.710   2.081
 2929SOL     OW18755   0.674   6.653   2.150
 2929SOL    HW118756   0.744   6.692   2.091
 2929SOL    HW218757   0.670   6.554   2.136
 2930SOL     OW18758   1.475   1.322   2.004
 2930SOL    HW118759   1.379   1.295   2.013
 2930SOL    HW218760   1.488   1.368   1.916
 2931SOL     OW18761   9.388   4.711   0.720
 2931SOL    HW118762   9.324   4.637   0.740
 2931SOL    HW218763   9.400   4.767   0.802
 2932SOL     OW18764   1.270   1.008   1.158
 2932SOL    HW118765   1.190   1.066   1.178
 2932SOL    HW218766   1.315   1.040   1.075
 2933SOL     OW18767   1.644   0.209   2.112
 2933SOL    HW118768   1.680   0.134   2.058
 2933SOL    HW218769   1.698   0.219   2.196
 2934SOL     OW18770   0.482   2.666   0.730
 2934SOL    HW118771   0.398   2.650   0.782
 2934SOL    HW218772   0.549   2.713   0.788
 2935SOL     OW18773   0.523   5.148   0.743
 2935SOL    HW118774   0.443   5.112   0.693
 2935SOL    HW218775   0.533   5.245   0.724
 2936SOL     OW18776   3.959   3.580   1.646
 2936SOL    HW118777   4.005   3.610   1.563
 2936SOL    HW218778   4.013   3.509   1.691
 2937SOL     OW18779   1.973   8.248   0.518
 2937SOL    HW118780   1.947   8.309   0.443
 2937SOL    HW218781   2.029   8.298   0.584
 2938SOL     OW18782   0.375   9.281   1.480
 2938SOL    HW118783   0.378   9.345   1.403
 2938SOL    HW218784   0.331   9.326   1.558
 2939SOL     OW18785   4.222   4.441   1.359
 2939SOL    HW118786   4.285   4.365   1.342
 2939SOL    HW218787   4.245   4.517   1.298
 2940SOL     OW18788   8.997   2.239   1.616
 2940SOL    HW118789   8.992   2.300   1.695
 2940SOL    HW218790   9.046   2.155   1.642
 2941SOL     OW18791   3.036   7.900   2.122
 2941SOL    HW118792   2.980   7.960   2.065
 2941SOL    HW218793   3.021   7.921   2.218
 2942SOL     OW18794   0.721   6.342   1.001
 2942SOL    HW118795   0.711   6.326   1.099
 2942SOL    HW218796   0.710   6.440   0.982
 2943SOL     OW18797   1.733   4.190   0.750
 2943SOL    HW118798   1.680   4.140   0.682
 2943SOL    HW218799   1.714   4.288   0.742
 2944SOL     OW18800   9.787   4.849   1.849
 2944SOL    HW118801   9.800   4.813   1.757
 2944SOL    HW218802   9.731   4.931   1.845
 2945SOL     OW18803   2.013   2.777   1.355
 2945SOL    HW118804   2.023   2.846   1.426
 2945SOL    HW218805   1.949   2.707   1.385
 2946SOL     OW18806   1.809   7.853   0.703
 2946SOL    HW118807   1.857   7.831   0.618
 2946SOL    HW218808   1.841   7.941   0.738
 2947SOL     OW18809   4.492   1.582   2.074
 2947SOL    HW118810   4.588   1.607   2.068
 2947SOL    HW218811   4.460   1.598   2.168
 2948SOL     OW18812   3.134   5.490   1.706
 2948SOL    HW118813   3.166   5.571   1.657
 2948SOL    HW218814   3.205   5.419   1.703
 2949SOL     OW18815   3.196   8.559   0.513
 2949SOL    HW118816   3.225   8.472   0.472
 2949SOL    HW218817   3.240   8.635   0.465
 2950SOL     OW18818   2.531   3.025   1.205
 2950SOL    HW118819   2.595   3.042   1.279
 2950SOL    HW218820   2.520   2.927   1.192
 2951SOL     OW18821   2.705   2.779   2.077
 2951SOL    HW118822   2.605   2.774   2.085
 2951SOL    HW218823   2.747   2.715   2.141
 2952SOL     OW18824   2.139   0.071   2.054
 2952SOL    HW118825   2.079   0.037   1.981
 2952SOL    HW218826   2.233   0.045   2.034
 2953SOL     OW18827   3.886   0.835   0.499
 2953SOL    HW118828   3.868   0.932   0.519
 2953SOL    HW218829   3.807   0.780   0.528
 2954SOL     OW18830   1.527   4.571   2.350
 2954SOL    HW118831   1.495   4.562   2.445
 2954SOL    HW218832   1.450   4.597   2.292
 2955SOL     OW18833   1.486   6.061   2.102
 2955SOL    HW118834   1.493   6.051   2.003
 2955SOL    HW218835   1.577   6.054   2.143
 2956SOL     OW18836   1.500   6.922   1.108
 2956SOL    HW118837   1.479   6.994   1.041
 2956SOL    HW218838   1.416   6.874   1.133
 2957SOL     OW18839   2.603   8.205   1.871
 2957SOL    HW118840   2.548   8.131   1.909
 2957SOL    HW218841   2.553   8.250   1.797
 2958SOL     OW18842   2.963   9.901   0.787
 2958SOL    HW118843   2.917   9.882   0.874
 2958SOL    HW218844   3.029   9.975   0.798
 2959SOL     OW18845   2.185   6.187   2.000
 2959SOL    HW118846   2.087   6.189   2.020
 2959SOL    HW218847   2.209   6.264   1.942
 2960SOL     OW18848   9.473   2.622   1.164
 2960SOL    HW118849   9.413   2.565   1.221
 2960SOL    HW218850   9.557   2.642   1.215
 2961SOL     OW18851   0.501   7.194   0.575
 2961SOL    HW118852   0.481   7.208   0.672
 2961SOL    HW218853   0.572   7.124   0.565
 2962SOL     OW18854   0.319   0.635   1.210
 2962SOL    HW118855   0.233   0.600   1.247
 2962SOL    HW218856   0.358   0.701   1.273
 2963SOL     OW18857   2.786   0.134   1.893
 2963SOL    HW118858   2.874   0.088   1.886
 2963SOL    HW218859   2.755   0.160   1.801
 2964SOL     OW18860   0.457   6.618   0.798
 2964SOL    HW118861   0.450   6.713   0.769
 2964SOL    HW218862   0.385   6.599   0.866
 2965SOL     OW18863   2.074   3.893   1.281
 2965SOL    HW118864   2.170   3.899   1.254
 2965SOL    HW218865   2.063   3.930   1.373
 2966SOL     OW18866   4.305   1.669   1.713
 2966SOL    HW118867   4.253   1.643   1.632
 2966SOL    HW218868   4.403   1.667   1.692
 2967SOL     OW18869   2.078   4.731   0.537
 2967SOL    HW118870   2.043   4.641   0.511
 2967SOL    HW218871   2.060   4.747   0.634
 2968SOL     OW18872   1.165   3.439   1.926
 2968SOL    HW118873   1.235   3.459   1.995
 2968SOL    HW218874   1.091   3.386   1.968
 2969SOL     OW18875   9.792   4.000   0.679
 2969SOL    HW118876   9.804   3.910   0.638
 2969SOL    HW218877   9.787   4.069   0.607
 2970SOL     OW18878   2.872   6.698   0.537
 2970SOL    HW118879   2.922   6.621   0.576
 2970SOL    HW218880   2.925   6.781   0.548
 2971SOL     OW18881   3.951   9.324   1.982
 2971SOL    HW118882   4.026   9.325   2.048
 2971SOL    HW218883   3.925   9.417   1.960
 2972SOL     OW18884   3.801   2.707   1.006
 2972SOL    HW118885   3.732   2.635   0.995
 2972SOL    HW218886   3.781   2.782   0.943
 2973SOL     OW18887   2.140   6.389   0.711
 2973SOL    HW118888   2.108   6.305   0.666
 2973SOL    HW218889   2.204   6.437   0.650
 2974SOL     OW18890   2.492   0.654   0.898
 2974SOL    HW118891   2.560   0.582   0.915
 2974SOL    HW218892   2.426   0.656   0.973
 2975SOL     OW18893   1.902   5.621   0.549
 2975SOL    HW118894   1.907   5.652   0.643
 2975SOL    HW218895   1.992   5.588   0.520
 2976SOL     OW18896   3.968   0.251   1.668
 2976SOL    HW118897   4.042   0.280   1.607
 2976SOL    HW218898   4.001   0.249   1.762
 2977SOL     OW18899   4.450   3.127   0.878
 2977SOL    HW118900   4.400   3.045   0.906
 2977SOL    HW218901   4.461   3.128   0.779
 2978SOL     OW18902   2.704   5.854   1.594
 2978SOL    HW118903   2.708   5.954   1.595
 2978SOL    HW218904   2.785   5.817   1.549
 2979SOL     OW18905   1.247   1.417   1.467
 2979SOL    HW118906   1.332   1.364   1.460
 2979SOL    HW218907   1.169   1.355   1.464
 2980SOL     OW18908   9.899   1.850   1.816
 2980SOL    HW118909   9.976   1.906   1.783
 2980SOL    HW218910   9.920   1.815   1.907
 2981SOL     OW18911   4.217   1.107   2.194
 2981SOL    HW118912   4.205   1.195   2.148
 2981SOL    HW218913   4.312   1.097   2.223
 2982SOL     OW18914   0.842   6.987   1.862
 2982SOL    HW118915   0.806   6.992   1.769
 2982SOL    HW218916   0.826   6.896   1.900
 2983SOL     OW18917   2.315   0.666   1.106
 2983SOL    HW118918   2.251   0.740   1.087
 2983SOL    HW218919   2.352   0.675   1.198
 2984SOL     OW18920   4.062   9.413   1.202
 2984SOL    HW118921   3.977   9.383   1.246
 2984SOL    HW218922   4.073   9.512   1.216
 2985SOL     OW18923   2.191   7.160   2.004
 2985SOL    HW118924   2.269   7.097   2.001
 2985SOL    HW218925   2.114   7.120   1.954
 2986SOL     OW18926   9.537   3.979   0.426
 2986SOL    HW118927   9.629   4.012   0.406
 2986SOL    HW218928   9.541   3.881   0.443
 2987SOL     OW18929   0.097   4.447   1.359
 2987SOL    HW118930   0.056   4.400   1.438
 2987SOL    HW218931   0.183   4.401   1.335
  10.00000  10.00000   2.82800
