chitosan Film  in water:acetic acid 2%
21218
    1CHTO  H203    1   5.857   6.834   2.111  0.2820 -1.6607  0.6733
    1CHTO   O82    2   5.832   6.839   2.202 -0.5692 -0.1836  0.3779
    1CHTO  C123    3   5.935   6.778   2.281  0.8691 -0.3159 -0.5290
    1CHTO  H227    4   5.949   6.840   2.371  0.3188  0.0909 -0.7196
    1CHTO   O77    5   5.886   6.647   2.322 -0.3757 -0.0069  0.3552
    1CHTO  C118    6   5.958   6.575   2.424 -0.4438  0.9678  0.4141
    1CHTO  H222    7   5.951   6.632   2.518  1.9317 -0.4848  1.5480
    1CHTO  C125    8   5.885   6.431   2.449  0.5363  0.2405  0.7467
    1CHTO   O84    9   5.871   6.363   2.325  0.3419  0.1375  0.1241
    1CHTO  H205   10   5.944   6.373   2.267  1.8302  0.4585  2.0073
    1CHTO  C114   11   6.098   6.557   2.369  0.1271  0.1938  0.2674
    1CHTO  H218   12   6.092   6.490   2.283 -0.3040  0.2050  0.2877
    1CHTO  C116   13   6.159   6.686   2.321 -0.4719 -0.8449  0.5813
    1CHTO  H220   14   6.183   6.763   2.398 -2.0526  1.2295 -0.9445
    1CHTO   O79   15   6.282   6.647   2.261 -0.3202  0.4291 -0.1201
    1CHTO  H201   16   6.335   6.596   2.319 -0.2471  0.3520 -0.2515
    1CHTO  C120   17   6.072   6.756   2.215  0.2252  0.7336  0.2258
    1CHTO  H224   18   6.053   6.684   2.132  0.4789  0.8291  0.0875
    1CHTO   N21   19   6.130   6.885   2.167  0.0701  0.3663  0.3959
    1CHTO  H211   20   6.183   6.943   2.241  0.8826  2.5451 -1.8097
    1CHTO  H212   21   6.163   6.897   2.064  0.2937 -0.2059  0.3985
    1CHTO   O75   22   6.165   6.491   2.479  0.0437 -0.0532 -0.2588
    1CHTO  C112   23   6.271   6.368   2.416  0.0612  0.1608  0.8058
    1CHTO  H216   24   6.282   6.391   2.309  1.0632  0.6367  1.0103
    1CHTO   O73   25   6.199   6.247   2.436 -0.5975  0.1843  0.2549
    1CHTO  C113   26   6.256   6.135   2.368  0.2603  0.5604  0.1243
    1CHTO  H217   27   6.261   6.151   2.258  0.7108  0.5331  0.1412
    1CHTO  C124   28   6.163   6.016   2.398  0.2908 -0.0662  0.5646
    1CHTO   O83   29   6.035   6.033   2.328 -0.5191 -1.1284 -0.0542
    1CHTO  H204   30   5.997   5.947   2.326 -0.6376 -1.0418 -1.7101
    1CHTO  C109   31   6.396   6.099   2.425  0.0357  0.0636  0.5237
    1CHTO  H213   32   6.379   6.059   2.526 -1.3061  2.2138  1.1985
    1CHTO  C110   33   6.487   6.226   2.437  0.5804  0.8071 -0.2461
    1CHTO  H214   34   6.528   6.246   2.338  1.6179 -1.2232 -0.2505
    1CHTO   O78   35   6.604   6.192   2.520  0.8355  0.0359  0.4805
    1CHTO  H200   36   6.670   6.177   2.455  0.6472  3.7252 -0.7184
    1CHTO  C111   37   6.413   6.355   2.477 -0.0449 -0.2778  0.2818
    1CHTO  H215   38   6.390   6.347   2.585 -2.2637 -1.2581 -0.2426
    1CHTO   N19   39   6.484   6.482   2.462  0.0167 -0.0810  0.3394
    1CHTO  H207   40   6.583   6.501   2.500  0.0052 -0.2628  0.4609
    1CHTO  H208   41   6.434   6.566   2.508 -2.2090 -2.1626  1.8162
    1CHTO   O74   42   6.460   5.997   2.345  0.0786  0.0511 -0.5860
    1CHTO  C115   43   6.558   5.915   2.440 -0.2283  0.4253  0.8142
    1CHTO  H219   44   6.556   5.959   2.540 -0.9956  0.5271  0.7617
    1CHTO   O76   45   6.512   5.764   2.461  0.2327 -0.2370 -0.2423
    1CHTO  C122   46   6.486   5.702   2.338  0.0691  0.3398 -0.6180
    1CHTO  H226   47   6.391   5.739   2.297  0.7373  1.4716 -1.1763
    1CHTO  C126   48   6.467   5.557   2.368  0.4194 -0.2414  0.5248
    1CHTO   O85   49   6.591   5.482   2.380  0.0994 -0.6578 -0.4822
    1CHTO  H206   50   6.644   5.475   2.303  2.6163  2.6372  0.8371
    1CHTO  C121   51   6.598   5.731   2.233 -0.9044  0.2520  0.2807
    1CHTO  H225   52   6.630   5.638   2.181 -0.8692  0.3316  0.1630
    1CHTO   O81   53   6.553   5.823   2.131 -0.4395 -0.2103 -0.0326
    1CHTO  H202   54   6.522   5.777   2.055 -2.8509 -1.1178  1.4367
    1CHTO  C119   55   6.730   5.786   2.295 -1.1092 -0.0729 -0.5169
    1CHTO  H223   56   6.742   5.697   2.357  0.4763  0.0730 -0.5941
    1CHTO  C117   57   6.710   5.910   2.393  0.2368 -0.7151  0.1575
    1CHTO  H221   58   6.727   6.004   2.342 -0.7558  0.3549  1.7485
    1CHTO   N20   59   6.807   5.919   2.501 -0.2576 -0.0632 -0.1162
    1CHTO  H209   60   6.859   6.013   2.488  0.1592 -0.3119 -0.2759
    1CHTO  H210   61   6.871   5.832   2.513  0.3932  0.4067 -0.1141
    1CHTO   O80   62   6.851   5.785   2.213  0.4454  0.2334  0.0559
    1CHTO  C103   63   6.970   5.698   2.250  0.5999 -0.5321  0.0428
    1CHTO  H190   64   6.974   5.701   2.359 -2.6553  3.4750  0.1498
    1CHTO  C101   65   6.966   5.553   2.193 -0.4821  0.2423  0.4625
    1CHTO  H188   66   6.948   5.552   2.086  3.3787  2.0158 -0.2788
    1CHTO   O68   67   6.841   5.471   2.276 -0.1812  0.2913 -0.7812
    1CHTO  H168   68   6.770   5.529   2.295  0.4479  0.8355 -0.0483
    1CHTO   C99   69   7.102   5.481   2.221 -0.5191  0.4812  0.2420
    1CHTO  H186   70   7.111   5.452   2.327  1.1778 -0.1758 -0.0694
    1CHTO   N17   71   7.112   5.359   2.138 -0.3205 -0.0111  0.3293
    1CHTO  H174   72   7.029   5.295   2.163 -0.5203 -0.2152 -0.7997
    1CHTO  H175   73   7.103   5.370   2.031 -0.5817 -1.9964  0.1273
    1CHTO   C97   74   7.229   5.567   2.199  0.2313 -0.0445  0.2120
    1CHTO  H184   75   7.247   5.572   2.091 -0.9106 -0.0575  0.0177
    1CHTO   O64   76   7.210   5.697   2.254 -0.3001 -0.8814  0.3144
    1CHTO  C104   77   7.101   5.772   2.195  0.0382 -1.0684  0.7786
    1CHTO  H191   78   7.107   5.765   2.086 -0.7741  0.5470  0.6076
    1CHTO  C108   79   7.110   5.919   2.233 -0.1517 -0.1915 -0.8610
    1CHTO   O71   80   7.012   6.005   2.170 -0.2427  0.2140 -0.4136
    1CHTO  H171   81   7.033   6.020   2.080 -0.8312 -0.4710 -0.6739
    1CHTO   O62   82   7.335   5.505   2.267 -0.6221 -0.4683  0.2863
    1CHTO   C91   83   7.437   5.456   2.180 -0.3682  0.6307 -0.0561
    1CHTO  H178   84   7.389   5.439   2.084  0.2629  1.6150 -0.5598
    1CHTO   C92   85   7.473   5.310   2.225  0.5671 -0.1102  0.6186
    1CHTO  H179   86   7.390   5.256   2.273 -2.7131 -0.8281 -5.4027
    1CHTO   O66   87   7.495   5.237   2.104 -0.2532 -0.0658 -0.0012
    1CHTO  H166   88   7.542   5.298   2.050 -2.9056  2.3043  0.2766
    1CHTO   C93   89   7.597   5.301   2.317  0.2072  0.3755  0.4080
    1CHTO  H180   90   7.624   5.196   2.333  1.4207  0.7117  0.6722
    1CHTO   N16   91   7.577   5.355   2.457 -0.6689  0.2697  0.2886
    1CHTO  H172   92   7.670   5.391   2.499 -0.3142 -0.6921  0.3425
    1CHTO  H173   93   7.499   5.428   2.472 -0.8321 -0.2575  2.1045
    1CHTO   C94   94   7.722   5.369   2.251  0.6881  0.5282  0.1201
    1CHTO  H181   95   7.778   5.428   2.323  2.0812  0.4489 -0.8958
    1CHTO   O61   96   7.685   5.462   2.141  0.0808 -0.3474 -0.4726
    1CHTO   C95   97   7.567   5.542   2.167 -0.1233  0.1545  0.5463
    1CHTO  H182   98   7.579   5.593   2.262 -0.7564 -0.0706  0.7454
    1CHTO  C106   99   7.558   5.651   2.051 -0.2403  0.0233 -0.5878
    1CHTO   O69  100   7.447   5.736   2.062 -0.2076  0.0258  0.0530
    1CHTO  H169  101   7.453   5.791   1.986  0.3703 -1.5394 -1.0426
    1CHTO   O63  102   7.806   5.250   2.186  0.0645  0.3822 -0.0822
    1CHTO   C96  103   7.956   5.286   2.175  0.7084  0.1166 -0.3144
    1CHTO  H183  104   7.990   5.315   2.274 -2.7541 -0.2847  1.0591
    1CHTO   C98  105   7.997   5.404   2.084  0.3909 -0.7903 -0.1898
    1CHTO  H185  106   7.929   5.402   1.997 -2.6224  0.5053  2.0409
    1CHTO   O67  107   7.959   5.528   2.154 -0.3121 -0.3813  0.2886
    1CHTO  H167  108   7.866   5.537   2.167 -1.0259  0.9641 -4.5526
    1CHTO  C102  109   8.155   5.419   2.039  0.0426  0.1333  0.5008
    1CHTO  H189  110   8.208   5.456   2.128 -0.2719  0.2847  0.6251
    1CHTO   N18  111   8.182   5.522   1.933  0.5578  0.3278 -0.4123
    1CHTO  H176  112   8.094   5.558   1.883 -0.5169 -1.2580  0.2896
    1CHTO  H177  113   8.222   5.611   1.980 -1.0887  0.1447  1.3846
    1CHTO  C105  114   8.209   5.280   1.999 -0.1125  0.3960  0.3530
    1CHTO  H192  115   8.176   5.256   1.898  1.1618  1.4472 -0.3352
    1CHTO   O65  116   8.171   5.179   2.095  0.2766 -0.1018 -0.0067
    1CHTO  C100  117   8.025   5.156   2.122 -0.7382  0.7238 -0.2142
    1CHTO  H187  118   7.984   5.130   2.023  2.2712 -0.0772 -1.3269
    1CHTO  C107  119   8.014   5.036   2.222 -0.3801 -0.0549  0.7811
    1CHTO   O70  120   8.092   4.917   2.190  0.0974 -0.3083  0.0139
    1CHTO  H170  121   8.181   4.946   2.202  0.1365 -0.0190 -0.9665
    1CHTO   O57  122   8.385   5.286   1.988 -0.3072  0.2205  0.5931
    1CHTO   C85  123   8.443   5.185   1.910  0.1714  0.4596 -0.1946
    1CHTO  H157  124   8.371   5.175   1.827 -0.4125 -1.9989  0.5560
    1CHTO   C83  125   8.442   5.046   1.976  0.0991 -1.2002 -0.1252
    1CHTO  H155  126   8.338   5.026   2.001  0.2076 -2.6823 -0.8492
    1CHTO   O56  127   8.514   5.070   2.094 -0.1941  0.1573  0.2603
    1CHTO  H135  128   8.472   5.125   2.157 -0.6719 -1.7719  1.6858
    1CHTO   C81  129   8.499   4.944   1.879  0.3006  0.5462  1.3790
    1CHTO  H153  130   8.436   4.938   1.790  2.6121  0.1626 -0.3038
    1CHTO   N14  131   8.483   4.804   1.937 -0.6169  0.1946 -0.3054
    1CHTO  H141  132   8.568   4.772   1.994  0.6910  1.1047 -1.6698
    1CHTO  H142  133   8.392   4.782   1.989 -0.6439  1.7724  0.3530
    1CHTO   C79  134   8.645   4.981   1.842 -0.2434  0.0160  0.4834
    1CHTO  H151  135   8.675   4.911   1.764  1.2261  0.3314  0.7576
    1CHTO   O52  136   8.669   5.119   1.795 -0.4673  0.3083  0.5219
    1CHTO   C86  137   8.592   5.218   1.856 -0.6598 -0.5521 -0.4659
    1CHTO  H158  138   8.656   5.253   1.940  0.1117  2.0128 -2.0653
    1CHTO   C90  139   8.586   5.342   1.757  0.5502 -0.0239  0.4036
    1CHTO   O60  140   8.572   5.466   1.827 -0.0728  0.2488 -0.1660
    1CHTO  H138  141   8.633   5.463   1.898 -0.2515 -3.0298 -0.0668
    1CHTO   O50  142   8.739   4.959   1.941  0.0806  0.5302  0.2140
    1CHTO   C73  143   8.863   4.892   1.929 -0.2787  0.4568  0.5623
    1CHTO  H145  144   8.896   4.894   1.824  0.5422  1.4004  0.8346
    1CHTO   C74  145   8.861   4.745   1.972 -0.8018 -0.1854  0.1694
    1CHTO  H146  146   8.788   4.696   1.906  0.7272 -2.3027 -0.0132
    1CHTO   O54  147   8.982   4.680   1.940  0.1734 -0.3761  0.3399
    1CHTO  H133  148   9.030   4.657   2.017 -1.9398 -3.9436  0.7422
    1CHTO   C75  149   8.822   4.731   2.123  0.4500 -0.2064 -1.3572
    1CHTO  H147  150   8.724   4.780   2.135  0.4776 -0.3938 -0.3564
    1CHTO   N13  151   8.814   4.592   2.177 -0.5875  0.3959  0.8494
    1CHTO  H139  152   8.895   4.532   2.138  0.1235  1.7266  0.2330
    1CHTO  H140  153   8.727   4.542   2.138  0.9651 -1.2761 -0.5660
    1CHTO   C76  154   8.929   4.812   2.209  0.2251  0.0618 -0.2077
    1CHTO  H148  155   9.026   4.768   2.190 -0.0216 -0.1999 -0.8724
    1CHTO   O49  156   8.940   4.952   2.156  0.4702 -0.3085  0.0532
    1CHTO   C77  157   8.966   4.967   2.013  0.3105 -0.3223  0.6456
    1CHTO  H149  158   9.067   4.935   1.988  0.9070 -1.0575  3.8620
    1CHTO   C88  159   8.972   5.124   1.991  0.0911 -0.2120 -0.6637
    1CHTO   O58  160   8.968   5.161   1.845 -0.2962  0.2931  0.0762
    1CHTO  H136  161   9.041   5.126   1.798 -1.3266 -1.1818 -0.4456
    1CHTO   O51  162   8.877   4.824   2.367 -0.0294  0.2894  0.2363
    1CHTO   C78  163   8.780   4.927   2.388 -0.4489  0.4772  0.2213
    1CHTO  H150  164   8.742   4.981   2.299  1.3125  0.4025 -0.6021
    1CHTO   C80  165   8.850   5.036   2.474  0.5604 -0.2060 -0.4247
    1CHTO  H152  166   8.900   4.984   2.559  2.1713  1.7194 -0.1833
    1CHTO   O55  167   8.950   5.089   2.391  0.1446 -0.1537 -0.1589
    1CHTO  H134  168   8.916   5.164   2.346 -0.3629  1.6102  3.0527
    1CHTO   C84  169   8.762   5.148   2.543  0.5393  0.3866 -0.1090
    1CHTO  H156  170   8.718   5.203   2.459 -1.0712 -1.1263 -0.2724
    1CHTO   N15  171   8.834   5.247   2.633 -0.0727  0.4009  0.3574
    1CHTO  H143  172   8.934   5.266   2.601  0.0473 -1.2064 -0.2483
    1CHTO  H144  173   8.777   5.338   2.626 -1.8975 -0.7398  0.0590
    1CHTO   C87  174   8.636   5.086   2.616  0.0196 -0.2804 -0.3211
    1CHTO  H159  175   8.675   5.039   2.707 -1.0131  2.4886  1.5906
    1CHTO   O53  176   8.569   4.971   2.508  0.1055 -0.5079 -0.1640
    1CHTO   C82  177   8.658   4.866   2.463 -0.2723  0.6398  0.9895
    1CHTO  H154  178   8.701   4.805   2.542  2.0143  0.5506 -0.2532
    1CHTO   C89  179   8.570   4.773   2.371  0.4740  0.5743  0.7217
    1CHTO   O59  180   8.492   4.850   2.282 -0.4595  0.1709  0.5202
    1CHTO  H137  181   8.429   4.795   2.238 -1.2865 -0.5594  2.5542
    1CHTO   O45  182   8.516   5.186   2.655 -0.5860  0.3200  0.0285
    1CHTO   C67  183   8.460   5.252   2.537  0.3596 -0.2972  0.0560
    1CHTO  H124  184   8.500   5.210   2.444 -1.9072 -0.3742 -0.9244
    1CHTO   C65  185   8.305   5.234   2.533 -0.8268 -0.3712 -0.2408
    1CHTO  H122  186   8.303   5.127   2.553  1.6246 -0.3349  0.2411
    1CHTO   O44  187   8.271   5.254   2.392  0.0514  0.2590  0.2266
    1CHTO  H102  188   8.179   5.240   2.374  0.4689 -0.4370 -1.5466
    1CHTO   C63  189   8.232   5.319   2.637 -0.2508  0.6164  0.1400
    1CHTO  H120  190   8.268   5.290   2.736 -0.1343 -1.5339 -0.5073
    1CHTO   N11  191   8.092   5.286   2.664  0.6013  0.0748 -0.3511
    1CHTO  H108  192   8.046   5.312   2.571 -0.8587 -0.8415  0.1042
    1CHTO  H109  193   8.080   5.180   2.660 -2.2309  0.2862  1.1732
    1CHTO   C61  194   8.270   5.471   2.624  0.1017  0.2818  0.1537
    1CHTO  H118  195   8.234   5.513   2.719 -1.2193 -0.8474  0.1832
    1CHTO   O40  196   8.413   5.491   2.623 -0.1438  0.0664 -0.0590
    1CHTO   C68  197   8.501   5.401   2.543 -0.1185  0.0987  0.4818
    1CHTO  H125  198   8.600   5.402   2.594  0.1437  0.8985 -0.0251
    1CHTO   C72  199   8.525   5.465   2.399  0.5040  0.0984 -0.2017
    1CHTO   O48  200   8.421   5.510   2.316 -0.3010 -0.1704  0.2121
    1CHTO  H105  201   8.350   5.448   2.310 -0.1262 -0.5031  1.3740
    1CHTO   O38  202   8.218   5.535   2.502  0.6151  0.1581 -0.4266
    1CHTO   C55  203   8.132   5.645   2.525 -0.1036 -0.2767  0.3838
    1CHTO  H112  204   8.125   5.661   2.634  0.2154  1.6663  0.1301
    1CHTO   C56  205   7.999   5.646   2.454 -0.4563 -0.0571 -0.7201
    1CHTO  H113  206   8.011   5.660   2.346  0.6369 -0.0937 -0.6070
    1CHTO   O42  207   7.940   5.515   2.474 -0.1128 -0.2163  0.0640
    1CHTO  H100  208   7.848   5.528   2.488 -0.0314 -0.3043  0.6737
    1CHTO   C57  209   7.914   5.767   2.504  0.5838  0.1994 -0.5892
    1CHTO  H114  210   7.906   5.745   2.611 -1.2004 -1.5996 -1.0619
    1CHTO   N10  211   7.772   5.771   2.452  0.1944 -0.3153  0.0771
    1CHTO  H106  212   7.722   5.816   2.536  1.2383 -0.3086  0.7105
    1CHTO  H107  213   7.770   5.842   2.371 -0.1786 -0.9837 -0.5022
    1CHTO   C58  214   7.981   5.903   2.482 -0.1924 -0.1908  1.0980
    1CHTO  H115  215   7.977   5.929   2.374  1.0242  0.0896  1.1083
    1CHTO   O37  216   8.123   5.896   2.510  0.7365  0.0310  0.5490
    1CHTO   C59  217   8.199   5.779   2.476  0.1391 -0.1176 -0.0767
    1CHTO  H116  218   8.214   5.768   2.369 -0.1891 -1.6102  0.0241
    1CHTO   C70  219   8.336   5.797   2.530 -0.2288  0.1000  0.2115
    1CHTO   O46  220   8.409   5.900   2.462  0.1319 -0.2756  0.0956
    1CHTO  H103  221   8.363   5.982   2.464  2.1751  0.9548 -1.9411
    1CHTO   O39  222   7.927   6.018   2.574  0.7868 -0.6107  0.3808
    1CHTO   C60  223   7.878   6.144   2.522  0.0181  0.3452 -0.4438
    1CHTO  H117  224   7.900   6.149   2.415  0.2028  3.7307 -0.2808
    1CHTO   C62  225   7.722   6.144   2.558 -0.5545  0.1753 -0.2325
    1CHTO  H119  226   7.672   6.065   2.500  1.2267  1.4364 -3.6210
    1CHTO   O43  227   7.709   6.118   2.703 -0.0547  0.5655  0.1878
    1CHTO  H101  228   7.746   6.037   2.732 -1.3312 -0.2429 -0.4071
    1CHTO   C66  229   7.679   6.299   2.508 -0.0724  0.0475 -0.1251
    1CHTO  H123  230   7.692   6.305   2.400  1.7751 -2.6241 -0.0907
    1CHTO   N12  231   7.534   6.317   2.528 -0.6222  0.1422  0.3307
    1CHTO  H110  232   7.480   6.282   2.441 -2.0970 -1.7326  1.9409
    1CHTO  H111  233   7.494   6.290   2.624 -0.5207 -2.4209 -0.3284
    1CHTO   C69  234   7.762   6.396   2.595  0.0707  0.8273  0.9269
    1CHTO  H126  235   7.752   6.357   2.699 -0.4837  0.5042  0.7565
    1CHTO   O41  236   7.915   6.388   2.549  0.1691  0.0725  0.1224
    1CHTO   C64  237   7.966   6.258   2.584 -0.3535 -0.8293  0.3945
    1CHTO  H121  238   7.981   6.244   2.693 -1.1992 -1.6961  0.3969
    1CHTO   C71  239   8.110   6.255   2.534  0.2272  0.3879  0.6395
    1CHTO   O47  240   8.191   6.151   2.598  0.0361  0.9505  0.4450
    1CHTO  H104  241   8.261   6.111   2.549 -0.4587  0.0143  0.4931
    1CHTO   O34  242   7.727   6.539   2.581 -0.3073  0.1135  0.3717
    1CHTO   C49  243   7.791   6.663   2.665  0.1546 -0.4191 -0.4699
    1CHTO   H91  244   7.883   6.621   2.706 -0.0600  2.5921  3.3977
    1CHTO   C47  245   7.698   6.706   2.780 -0.7166 -0.2764 -0.6140
    1CHTO   H89  246   7.750   6.787   2.835 -1.1429 -0.2777 -0.2044
    1CHTO   O33  247   7.670   6.598   2.872  0.3479 -0.0411  0.4790
    1CHTO   H70  248   7.683   6.620   2.962  1.7782 -0.9297  0.4942
    1CHTO   C45  249   7.566   6.775   2.719  0.0029  0.2991  0.3791
    1CHTO   H87  250   7.516   6.713   2.643  1.9651 -0.7766 -0.0781
    1CHTO    N8  251   7.464   6.810   2.822 -0.1595 -0.5307  0.5013
    1CHTO   H75  252   7.477   6.905   2.872  0.4669 -0.1755 -0.3219
    1CHTO   H76  253   7.468   6.735   2.901  0.2113  0.4200  1.3985
    1CHTO   C43  254   7.602   6.896   2.624  0.0356 -0.0894  0.5658
    1CHTO   H85  255   7.506   6.920   2.577 -0.0683 -0.1428  0.7519
    1CHTO   O29  256   7.699   6.850   2.528  0.3188  0.5214  0.6296
    1CHTO   C50  257   7.820   6.782   2.564  0.0198 -0.1786 -0.2447
    1CHTO   H92  258   7.856   6.752   2.464  2.9130  1.9915  0.0885
    1CHTO   C54  259   7.932   6.877   2.608 -0.2645 -0.2864 -0.2923
    1CHTO   O36  260   8.053   6.812   2.651  0.6963  0.6399  0.0872
    1CHTO   H72  261   8.127   6.870   2.649  2.4094 -1.3000  2.7697
    1CHTO   O27  262   7.655   7.021   2.685 -0.1456 -0.6690 -0.3671
    1CHTO   C37  263   7.596   7.151   2.653  0.0102 -0.2654 -0.4493
    1CHTO   H79  264   7.567   7.164   2.548  1.1909  0.8724 -0.6405
    1CHTO   C38  265   7.464   7.184   2.727 -0.4464  0.5782 -0.2405
    1CHTO   H80  266   7.484   7.179   2.835  1.4058  0.3540 -0.5627
    1CHTO   O31  267   7.366   7.089   2.678  0.0779 -0.0133  0.1413
    1CHTO   H68  268   7.307   7.061   2.745 -1.3922  3.1848  0.2875
    1CHTO   C39  269   7.411   7.331   2.697 -0.4255 -0.7136 -0.7019
    1CHTO   H81  270   7.402   7.339   2.588  0.1800  1.5260 -0.6100
    1CHTO    N7  271   7.283   7.364   2.774  0.1109  0.3630 -0.2082
    1CHTO   H73  272   7.201   7.365   2.704 -0.2399  0.7669  0.2072
    1CHTO   H74  273   7.261   7.280   2.837 -1.2589  1.9161  1.4287
    1CHTO   C40  274   7.530   7.426   2.735  0.0907 -0.0974  1.2715
    1CHTO   H82  275   7.540   7.414   2.843 -0.6588 -0.9628  1.2445
    1CHTO   O26  276   7.655   7.395   2.667 -0.0945 -0.0094  0.6151
    1CHTO   C41  277   7.700   7.256   2.689  0.4000 -0.5349 -0.3343
    1CHTO   H83  278   7.727   7.254   2.795  0.5997 -0.3413 -0.3794
    1CHTO   C52  279   7.837   7.241   2.610 -0.2797  0.8081 -1.2870
    1CHTO   O35  280   7.826   7.232   2.468 -0.0966 -0.0217  0.0086
    1CHTO   H71  281   7.814   7.143   2.441 -3.1721  0.1169  0.7270
    1CHTO   O28  282   7.488   7.567   2.712 -0.6390 -0.1130 -0.6098
    1CHTO   C42  283   7.539   7.667   2.622  0.3227  0.0684 -0.0218
    1CHTO   H84  284   7.631   7.625   2.581  1.0507 -0.0707  1.7401
    1CHTO   C44  285   7.590   7.793   2.696 -0.1314  0.3398  0.7773
    1CHTO   H86  286   7.503   7.845   2.736  0.4951  0.3667  2.1409
    1CHTO   O32  287   7.667   7.751   2.807 -0.0410 -0.0756 -0.0164
    1CHTO   H69  288   7.694   7.826   2.856  0.6085  1.1393 -2.1840
    1CHTO   C48  289   7.666   7.895   2.593  0.9000  0.1976  0.3647
    1CHTO   H90  290   7.759   7.846   2.563  1.7880  1.4026  1.0829
    1CHTO    N9  291   7.705   8.021   2.668 -0.2244 -0.2774  0.5592
    1CHTO   H77  292   7.747   8.102   2.609 -2.4507  0.3685 -0.1648
    1CHTO   H78  293   7.618   8.066   2.713 -0.1403 -0.1194  0.5670
    1CHTO   C51  294   7.578   7.923   2.464  0.3308 -0.5329 -0.6522
    1CHTO   H93  295   7.492   7.986   2.488 -0.0739 -1.1584 -0.4382
    1CHTO   O30  296   7.530   7.798   2.407 -0.3854 -1.0967 -0.8256
    1CHTO   C46  297   7.442   7.710   2.504  0.6883 -0.0761  0.7523
    1CHTO   H88  298   7.358   7.767   2.544 -0.5017 -2.1310  1.2376
    1CHTO   C53  299   7.383   7.596   2.433 -0.1428  0.2691  0.5657
    1CHTO   O72  300   7.313   7.626   2.311  0.0370 -0.1862 -0.6309
    1CHTO  H199  301   7.365   7.668   2.245  3.7292  0.6566  2.6325
    1CHTO   O22  302   7.653   7.987   2.359  1.0039  0.3605  0.1835
    1CHTO   C31  303   7.600   8.017   2.227  0.5956 -0.1122  0.3532
    1CHTO   H59  304   7.494   7.987   2.225  0.4584  0.1168  2.5822
    1CHTO   C29  305   7.603   8.168   2.189 -0.6415  0.3899 -0.3340
    1CHTO   H57  306   7.708   8.192   2.213  0.3205 -3.4163 -0.3373
    1CHTO   O21  307   7.517   8.237   2.282  0.2692 -0.0072  0.0212
    1CHTO   H37  308   7.452   8.179   2.315 -0.1369  0.6897  0.4522
    1CHTO   C27  309   7.572   8.205   2.041 -0.0065 -0.9665  0.0127
    1CHTO   H55  310   7.464   8.195   2.028 -0.1128 -0.9471  0.8473
    1CHTO    N5  311   7.620   8.342   2.010  0.1519  0.0499 -0.3599
    1CHTO   H43  312   7.698   8.334   1.936 -0.0350 -2.4105 -0.3127
    1CHTO   H44  313   7.652   8.391   2.101 -1.2947  2.3499 -1.0470
    1CHTO   C25  314   7.625   8.099   1.939 -0.3181  0.0094  0.3070
    1CHTO   H53  315   7.729   8.119   1.909 -0.7244 -0.0402 -1.2111
    1CHTO   O17  316   7.599   7.965   1.987 -0.3173  0.1587  0.0316
    1CHTO   C32  317   7.673   7.944   2.112  0.5576 -0.0788  0.3475
    1CHTO   H60  318   7.776   7.979   2.111  0.4903  0.1142  0.0673
    1CHTO   C36  319   7.681   7.794   2.121  0.0082 -0.1188 -0.1930
    1CHTO   O25  320   7.768   7.747   2.227  0.5680  0.6563  0.5331
    1CHTO   H40  321   7.737   7.664   2.259 -0.7001  1.1579  0.6096
    1CHTO   O15  322   7.527   8.128   1.789  0.1325 -0.2257  0.4048
    1CHTO   C19  323   7.511   8.032   1.677 -0.0904  0.1599  0.0096
    1CHTO   H47  324   7.444   8.078   1.604 -0.6844  0.4028  0.6939
    1CHTO   C20  325   7.641   7.985   1.607  0.3312 -0.1124 -0.4846
    1CHTO   H48  326   7.710   7.938   1.678  0.1583  1.1216  0.5249
    1CHTO   O19  327   7.710   8.105   1.568  0.2842 -0.1847  0.2091
    1CHTO   H35  328   7.774   8.129   1.632  1.4066  1.0982 -1.3432
    1CHTO   C21  329   7.609   7.894   1.479  0.2184 -0.2098 -0.5605
    1CHTO   H49  330   7.567   7.959   1.403  0.4813  0.8373  0.1745
    1CHTO    N4  331   7.733   7.842   1.411 -0.3470  0.9067  0.2031
    1CHTO   H41  332   7.787   7.779   1.481 -2.8639  1.0209  2.3142
    1CHTO   H42  333   7.712   7.785   1.321 -0.6043  4.4288 -2.0451
    1CHTO   C22  334   7.512   7.777   1.514 -0.8738 -0.2167 -0.1067
    1CHTO   H50  335   7.561   7.691   1.560 -1.9524 -0.1539  1.1763
    1CHTO   O14  336   7.405   7.821   1.598  0.5911 -0.2197  0.8063
    1CHTO   C23  337   7.435   7.896   1.717 -0.5752 -0.4207  0.6182
    1CHTO   H51  338   7.498   7.830   1.779 -0.3751  1.3229  2.3491
    1CHTO   C34  339   7.298   7.902   1.790  0.6442  0.6853 -0.3988
    1CHTO   O23  340   7.312   8.000   1.893 -0.5165  0.7017  0.0524
    1CHTO   H38  341   7.288   8.085   1.861  3.6685  0.8648 -3.0475
    1CHTO   O16  342   7.448   7.722   1.395  0.4652  0.0669 -0.0683
    1CHTO   C24  343   7.482   7.568   1.357  0.0790 -0.5321  0.3412
    1CHTO   H52  344   7.574   7.533   1.403 -0.6122 -0.9998  1.3831
    1CHTO   C26  345   7.495   7.562   1.205  0.4591  0.2469 -0.4835
    1CHTO   H54  346   7.426   7.639   1.164 -0.8842 -0.8769 -0.3888
    1CHTO   O20  347   7.631   7.595   1.169  0.0870 -0.7869  0.5357
    1CHTO   H36  348   7.643   7.687   1.154 -1.4974 -0.5599  0.6185
    1CHTO   C30  349   7.468   7.415   1.153  0.4921 -0.2726 -0.1533
    1CHTO   H58  350   7.561   7.359   1.165  0.1633 -0.3307  2.4734
    1CHTO    N6  351   7.441   7.420   1.007  0.4397 -0.8810 -0.4612
    1CHTO   H45  352   7.423   7.323   0.963  0.8855 -1.0006 -0.3820
    1CHTO   H46  353   7.522   7.470   0.957 -0.7016  0.3899 -1.0631
    1CHTO   C33  354   7.365   7.328   1.232  0.1412 -0.2083 -0.0277
    1CHTO   H61  355   7.261   7.358   1.217 -0.1164 -1.1994 -0.2697
    1CHTO   O18  356   7.392   7.342   1.375 -0.2508 -0.5492  0.0160
    1CHTO   C28  357   7.369   7.481   1.411 -0.1830  0.2181  0.2760
    1CHTO   H56  358   7.278   7.509   1.359 -0.4950  0.2113  0.8167
    1CHTO   C35  359   7.342   7.483   1.565 -0.3796 -0.0092 -0.1226
    1CHTO   O24  360   7.206   7.473   1.596  0.0836 -0.1412 -0.0418
    1CHTO   H39  361   7.167   7.389   1.585 -1.1429  0.2284  1.3475
    1CHTO    O9  362   7.375   7.191   1.188  0.7776 -0.2547 -0.6726
    1CHTO   C13  363   7.262   7.089   1.262 -0.3469 -0.5095  0.0860
    1CHTO   H26  364   7.181   7.150   1.307  1.9846  2.0411  0.9053
    1CHTO   C11  365   7.339   7.001   1.371 -0.8488  0.2073  0.1165
    1CHTO   H24  366   7.356   7.064   1.460  1.7007 -2.1729  1.4113
    1CHTO    O8  367   7.476   6.974   1.332  0.2558 -0.0661 -0.1474
    1CHTO    H3  368   7.478   6.896   1.280 -0.3016 -0.8088  0.9389
    1CHTO    C9  369   7.263   6.870   1.395  0.1008 -0.2611 -0.2703
    1CHTO   H22  370   7.161   6.899   1.423 -0.0088 -0.6918 -0.2255
    1CHTO    N2  371   7.304   6.801   1.522 -0.5567  0.5721 -0.3871
    1CHTO   H10  372   7.383   6.729   1.509 -0.4736 -0.0823  3.1554
    1CHTO   H11  373   7.337   6.876   1.594 -1.2380  0.4436  0.0601
    1CHTO    C7  374   7.254   6.789   1.262 -0.1148  0.3505 -0.6779
    1CHTO   H20  375   7.157   6.734   1.271 -2.2195  3.4214 -3.3537
    1CHTO    O4  376   7.256   6.866   1.142  0.0396  0.1799  0.1789
    1CHTO   C14  377   7.188   6.998   1.144 -0.6104  0.5121 -0.6415
    1CHTO   H27  378   7.084   6.976   1.173  0.4414  1.2593  3.9981
    1CHTO   C18  379   7.187   7.050   1.007 -0.2223  0.4232 -0.0963
    1CHTO   O13  380   7.134   7.189   1.010 -0.1189  0.5580  0.4314
    1CHTO    H7  381   7.208   7.233   1.047  0.4201 -0.5893  0.7367
    1CHTO    O2  382   7.369   6.662   1.255 -0.0404 -0.3819  0.5331
    1CHTO    C1  383   7.434   6.631   1.133  0.1191  0.7222  0.5657
    1CHTO   H14  384   7.466   6.722   1.078 -0.1686  0.0661 -0.7187
    1CHTO    C2  385   7.344   6.541   1.030 -0.2691  0.0519  0.7756
    1CHTO   H15  386   7.305   6.450   1.079  1.1657 -1.3879 -0.7071
    1CHTO    O6  387   7.240   6.620   0.982 -0.0551 -0.1488 -0.1253
    1CHTO    H1  388   7.172   6.569   0.941 -0.9257  1.3697 -0.6124
    1CHTO    C3  389   7.439   6.494   0.910 -0.1262 -0.0234 -0.7375
    1CHTO   H16  390   7.479   6.586   0.865 -0.0333  1.4579  2.2468
    1CHTO    N1  391   7.375   6.408   0.803  0.3412  0.7574 -0.6721
    1CHTO    H8  392   7.405   6.443   0.706 -0.6902  1.1025 -0.8685
    1CHTO    H9  393   7.267   6.409   0.806  0.3584  0.3513  1.0344
    1CHTO    C4  394   7.564   6.419   0.965 -0.3730  0.1568  0.2822
    1CHTO   H17  395   7.533   6.337   1.030  1.3251 -0.6356  0.1248
    1CHTO    O1  396   7.632   6.512   1.044 -0.6212  0.2188 -0.7330
    1CHTO    C5  397   7.569   6.550   1.167  0.4387 -0.0256  0.0079
    1CHTO   H18  398   7.546   6.462   1.228  0.8694  0.3109  0.6575
    1CHTO   C16  399   7.671   6.642   1.249  0.0028  0.3605  0.3936
    1CHTO   O11  400   7.716   6.759   1.175  0.5373 -0.4173 -0.3039
    1CHTO    H5  401   7.762   6.720   1.103  0.6615 -2.6384  0.9459
    1CHTO    O3  402   7.665   6.379   0.874  0.6256 -0.6907  0.0053
    1CHTO    C6  403   7.729   6.247   0.899  0.4922 -0.1376  0.2759
    1CHTO   H19  404   7.708   6.201   0.996  1.4015  0.1459  0.6083
    1CHTO    C8  405   7.677   6.147   0.787 -0.0501 -0.5727 -0.3604
    1CHTO   H21  406   7.680   6.199   0.691 -1.9024  0.9501  0.3914
    1CHTO    O7  407   7.542   6.118   0.813  0.0559 -0.2823 -0.6681
    1CHTO    H2  408   7.489   6.196   0.815 -0.3324 -0.5658  0.6527
    1CHTO   C12  409   7.768   6.017   0.782  0.1365 -1.0816 -0.2175
    1CHTO   H25  410   7.746   5.959   0.874 -0.6719 -0.2868  0.0918
    1CHTO    N3  411   7.728   5.927   0.663  0.4969 -0.2660 -0.3856
    1CHTO   H12  412   7.697   5.828   0.692  0.1031  0.0609  0.3456
    1CHTO   H13  413   7.659   5.969   0.591  0.9828  1.8421  0.3435
    1CHTO   C15  414   7.918   6.064   0.780 -0.1505  0.1096  0.7579
    1CHTO   H28  415   7.946   6.119   0.690  1.6292 -0.4952  0.9161
    1CHTO   O10  416   8.016   5.944   0.792 -0.0003  0.3572  0.5393
    1CHTO    H4  417   8.102   5.967   0.763 -0.6634 -0.7953 -2.4829
    1CHTO    O5  418   7.937   6.134   0.906  0.4386  0.7454  0.7153
    1CHTO   C10  419   7.882   6.269   0.899 -0.6130 -0.4124 -0.4640
    1CHTO   H23  420   7.924   6.326   0.816 -1.2840  0.1825 -0.4024
    1CHTO   C17  421   7.940   6.343   1.019  0.8695 -0.1768  0.0186
    1CHTO   O12  422   7.869   6.309   1.144  0.0286  0.2470  0.5511
    1CHTO    H6  423   7.914   6.250   1.202 -0.8127 -1.2668 -0.3160
    2CHTO  H203  424   6.746   4.244   0.205 -0.3042 -0.0226  0.7702
    2CHTO   O82  425   6.788   4.267   0.124 -0.0629 -0.1100  0.8707
    2CHTO  C123  426   6.721   4.370   0.052 -0.0754  0.1877  0.6350
    2CHTO  H227  427   6.789   4.401  -0.029 -0.3837 -1.1259 -0.1303
    2CHTO   O77  428   6.623   4.293  -0.023  0.2061  0.5093  0.3379
    2CHTO  C118  429   6.528   4.374  -0.104  0.1414 -0.9283 -0.3100
    2CHTO  H222  430   6.592   4.417  -0.182  1.6979 -1.9224  0.3957
    2CHTO  C125  431   6.437   4.275  -0.176 -0.2062  0.2195 -0.1333
    2CHTO   O84  432   6.329   4.219  -0.099 -0.1326 -0.3961 -0.4342
    2CHTO  H205  433   6.264   4.196  -0.162  1.0906  2.1061 -2.6833
    2CHTO  C114  434   6.456   4.487  -0.028 -0.0260 -1.0522 -0.2075
    2CHTO  H218  435   6.383   4.440   0.037 -1.3079  3.0708  1.4439
    2CHTO  C116  436   6.559   4.578   0.049  0.9977 -0.4102 -0.3599
    2CHTO  H220  437   6.621   4.636  -0.023  0.1494 -0.3028 -1.0104
    2CHTO   O79  438   6.491   4.685   0.118  0.4073  0.1107 -0.2139
    2CHTO  H201  439   6.464   4.648   0.200 -0.3959 -0.7513 -0.8521
    2CHTO  C120  440   6.656   4.491   0.139  1.4324 -0.4380 -0.4708
    2CHTO  H224  441   6.601   4.458   0.230 -2.9861  1.0337 -2.4729
    2CHTO   N21  442   6.760   4.582   0.202 -0.3578  0.3926 -0.0830
    2CHTO  H211  443   6.846   4.564   0.139 -1.0782 -1.4947 -0.5908
    2CHTO  H212  444   6.792   4.537   0.294 -1.5896  1.5726  0.9434
    2CHTO   O75  445   6.387   4.562  -0.129  0.1626 -0.2619 -0.7046
    2CHTO  C112  446   6.218   4.544  -0.125 -0.5506  0.0058 -0.0258
    2CHTO  H216  447   6.187   4.500  -0.029 -1.3753 -0.7274 -0.6196
    2CHTO   O73  448   6.178   4.462  -0.237  0.2729 -0.0070 -0.3429
    2CHTO  C113  449   6.050   4.403  -0.213 -0.0670  0.4661  0.4530
    2CHTO  H217  450   6.053   4.347  -0.117  0.8779  0.3799  0.3727
    2CHTO  C124  451   6.030   4.303  -0.329  0.1364  0.4538 -0.5553
    2CHTO   O83  452   6.120   4.197  -0.318  0.0215  0.2653  0.1393
    2CHTO  H204  453   6.105   4.124  -0.376 -0.0954  1.6975 -1.6888
    2CHTO  C109  454   5.943   4.520  -0.220 -0.0764 -0.3049  0.1073
    2CHTO  H213  455   5.931   4.553  -0.324  0.9741 -1.5830 -0.4300
    2CHTO  C110  456   5.982   4.639  -0.133 -0.1493 -0.2167 -0.1294
    2CHTO  H214  457   5.973   4.602  -0.030  2.3186 -1.5379 -0.3540
    2CHTO   O78  458   5.892   4.744  -0.171  0.0210  0.4916 -0.9472
    2CHTO  H200  459   5.893   4.762  -0.263  0.8486  2.1118 -0.6452
    2CHTO  C111  460   6.129   4.681  -0.139  0.9110  0.4626  0.3541
    2CHTO  H215  461   6.148   4.731  -0.236 -0.1398 -0.9547 -0.5930
    2CHTO   N19  462   6.172   4.775  -0.032 -0.0449 -0.2845 -0.3089
    2CHTO  H207  463   6.191   4.873  -0.074  0.4054  0.4360  1.5224
    2CHTO  H208  464   6.269   4.743   0.004  0.0642 -1.8859 -1.9758
    2CHTO   O74  465   5.810   4.468  -0.172  0.0213 -0.6596 -0.0495
    2CHTO  C115  466   5.697   4.451  -0.274 -0.3877  0.5255 -0.2787
    2CHTO  H219  467   5.732   4.458  -0.376  0.4901 -1.5773 -0.1326
    2CHTO   O76  468   5.639   4.295  -0.258 -0.1573 -0.2489 -0.0979
    2CHTO  C122  469   5.518   4.259  -0.323  1.1741 -0.5661  0.1881
    2CHTO  H226  470   5.499   4.154  -0.299 -0.1426 -0.0368  1.5414
    2CHTO  C126  471   5.532   4.264  -0.472 -0.5740 -0.3275  0.0210
    2CHTO   O85  472   5.640   4.191  -0.529 -0.1852  0.0215  0.3889
    2CHTO  H206  473   5.710   4.159  -0.475 -1.1703 -1.6263  0.7286
    2CHTO  C121  474   5.405   4.361  -0.283 -1.2972 -0.9468  0.3766
    2CHTO  H225  475   5.314   4.337  -0.342 -0.0695  0.1205 -1.9768
    2CHTO   O81  476   5.366   4.344  -0.148 -0.1431  0.0137 -0.2001
    2CHTO  H202  477   5.443   4.338  -0.095 -0.6080 -0.0335  0.4705
    2CHTO  C119  478   5.448   4.503  -0.316  0.2114 -0.0275  0.4235
    2CHTO  H223  479   5.468   4.507  -0.423 -1.0395 -0.5925  0.1603
    2CHTO  C117  480   5.576   4.554  -0.251 -0.1647 -0.1988  0.3628
    2CHTO  H221  481   5.565   4.563  -0.143 -2.2274  1.8395  0.0270
    2CHTO   N20  482   5.625   4.694  -0.296  0.2224  0.1838 -0.3492
    2CHTO  H209  483   5.666   4.687  -0.396  0.2735 -0.3111 -0.2955
    2CHTO  H210  484   5.709   4.728  -0.237  1.4505  1.9572 -2.9966
    2CHTO   O80  485   5.320   4.612  -0.302 -0.0821  0.1548  0.2691
    2CHTO  C103  486   5.274   4.679  -0.418 -0.1712 -0.1993 -1.3122
    2CHTO  H190  487   5.357   4.711  -0.481  1.6426  0.8974  1.5777
    2CHTO  C101  488   5.172   4.596  -0.503  0.6276  0.0177 -0.5025
    2CHTO  H188  489   5.097   4.561  -0.432 -1.7245  2.5580 -1.6379
    2CHTO   O68  490   5.236   4.492  -0.565  0.0024  0.0028  0.4524
    2CHTO  H168  491   5.318   4.526  -0.594 -0.5057  1.3613  0.5538
    2CHTO   C99  492   5.103   4.697  -0.613 -0.8418 -0.0031  0.5773
    2CHTO  H186  493   5.174   4.739  -0.687 -0.3711  0.4114  1.2682
    2CHTO   N17  494   4.989   4.631  -0.685 -0.2246  0.6305  0.2452
    2CHTO  H174  495   4.894   4.682  -0.694 -0.0253  0.7894 -1.1484
    2CHTO  H175  496   5.003   4.559  -0.764  0.6906 -1.4277  2.2332
    2CHTO   C97  497   5.048   4.825  -0.543  0.2362  0.8572 -0.3760
    2CHTO  H184  498   4.967   4.795  -0.475  0.5599 -0.9239 -0.7726
    2CHTO   O64  499   5.157   4.885  -0.477 -0.3181 -0.7305 -0.3152
    2CHTO  C104  500   5.202   4.812  -0.368 -0.2120 -0.6186 -0.1253
    2CHTO  H191  501   5.114   4.783  -0.311  0.3951 -2.1577  0.0465
    2CHTO  C108  502   5.298   4.890  -0.279 -0.1085  0.1865  0.0940
    2CHTO   O71  503   5.239   5.010  -0.218 -0.7226  0.7344 -0.6775
    2CHTO  H171  504   5.275   5.079  -0.270  1.1763 -0.4608 -1.0181
    2CHTO   O62  505   5.005   4.933  -0.632 -0.0718 -0.0423  0.6638
    2CHTO   C91  506   4.888   5.004  -0.592  0.4617 -0.0604  0.2500
    2CHTO  H178  507   4.824   4.929  -0.545  1.3132  0.1456  1.7683
    2CHTO   C92  508   4.796   5.041  -0.714  0.4843  0.0570 -0.0701
    2CHTO  H179  509   4.795   4.950  -0.776  3.0998  1.3984 -2.2100
    2CHTO   O66  510   4.662   5.056  -0.656 -0.2505 -0.2097 -0.2214
    2CHTO  H166  511   4.642   4.971  -0.621  1.2986 -1.1221 -1.4837
    2CHTO   C93  512   4.833   5.170  -0.794  0.7045 -0.1166  0.3269
    2CHTO  H180  513   4.754   5.182  -0.871  0.1291 -1.3530  0.7125
    2CHTO   N16  514   4.961   5.155  -0.863  0.0723 -0.2608 -0.5517
    2CHTO  H172  515   5.043   5.162  -0.793  0.7352  1.0452 -1.4327
    2CHTO  H173  516   4.962   5.067  -0.926  3.7590 -0.4409 -0.3433
    2CHTO   C94  517   4.829   5.285  -0.694  0.3056 -0.1162 -0.4383
    2CHTO  H181  518   4.893   5.368  -0.723  0.4362  0.0281  0.2566
    2CHTO   O61  519   4.842   5.253  -0.553 -0.2012  0.6171  0.1044
    2CHTO   C95  520   4.909   5.136  -0.502 -0.3872 -0.2059 -0.3437
    2CHTO  H182  521   5.015   5.158  -0.496 -0.0296 -1.8043 -0.5699
    2CHTO  C106  522   4.871   5.116  -0.357  0.1921  0.1533 -0.1755
    2CHTO   O69  523   4.951   5.006  -0.303 -0.8960 -0.4447 -0.1771
    2CHTO  H169  524   4.892   4.934  -0.300 -0.4444 -0.7699  1.5165
    2CHTO   O63  525   4.678   5.341  -0.694 -0.2148 -0.0862 -0.1457
    2CHTO   C96  526   4.648   5.495  -0.638  0.1897  0.1218 -0.2870
    2CHTO  H183  527   4.740   5.545  -0.608 -0.8111  2.6202 -1.2071
    2CHTO   C98  528   4.544   5.494  -0.518 -0.2416  0.2361  0.1266
    2CHTO  H185  529   4.448   5.447  -0.542 -0.6588  2.1731 -2.1637
    2CHTO   O67  530   4.598   5.417  -0.411  0.1071 -0.2369  0.0557
    2CHTO  H167  531   4.529   5.367  -0.373 -1.9996  1.1376 -1.8831
    2CHTO  C102  532   4.504   5.648  -0.477 -0.1180 -0.1931  0.1496
    2CHTO  H189  533   4.595   5.692  -0.434 -0.0631 -0.9832  0.8659
    2CHTO   N18  534   4.403   5.648  -0.367 -0.0220 -0.0773  0.5047
    2CHTO  H176  535   4.458   5.614  -0.280  1.0051  1.5226  0.5140
    2CHTO  H177  536   4.354   5.743  -0.347 -1.0295 -0.6001  0.5219
    2CHTO  C105  537   4.463   5.724  -0.606  0.2372 -0.0179  0.3900
    2CHTO  H192  538   4.363   5.693  -0.635  0.1289  1.6290 -1.0725
    2CHTO   O65  539   4.561   5.709  -0.712  0.7326  0.1943  0.2006
    2CHTO  C100  540   4.595   5.581  -0.758  0.2598  0.0914  0.5439
    2CHTO  H187  541   4.499   5.532  -0.779  0.9008 -1.4102  1.0257
    2CHTO  C107  542   4.687   5.591  -0.884 -0.3847 -0.6222 -0.4009
    2CHTO   O70  543   4.740   5.467  -0.921 -0.1372 -0.1428 -0.2542
    2CHTO  H170  544   4.834   5.466  -0.922 -0.0753  1.3792  1.0065
    2CHTO   O57  545   4.471   5.871  -0.555  0.0024  0.0065  0.1922
    2CHTO   C85  546   4.413   5.971  -0.641 -0.2106  1.0975 -0.1403
    2CHTO  H157  547   4.330   5.916  -0.689  0.0307 -2.2213  3.0527
    2CHTO   C83  548   4.507   6.007  -0.754  0.0485  0.2296  0.7888
    2CHTO  H155  549   4.521   5.920  -0.818 -2.3112  0.3647  0.0661
    2CHTO   O56  550   4.633   6.032  -0.686 -0.1444  0.0139 -0.3609
    2CHTO  H135  551   4.689   6.069  -0.752 -1.2899  1.2076 -0.6780
    2CHTO   C81  552   4.453   6.127  -0.844  1.1479  0.8883  0.1169
    2CHTO  H153  553   4.361   6.090  -0.889  2.1000 -0.1241 -1.0426
    2CHTO   N14  554   4.531   6.153  -0.969  0.4567  0.0132  0.5779
    2CHTO  H141  555   4.491   6.092  -1.047 -1.3602  0.1802  1.3638
    2CHTO  H142  556   4.637   6.139  -0.962  0.4066 -0.7115 -0.0489
    2CHTO   C79  557   4.418   6.250  -0.755 -0.4050  0.2433  0.1871
    2CHTO  H151  558   4.367   6.322  -0.819 -0.0024  2.0276  1.8305
    2CHTO   O52  559   4.320   6.210  -0.652 -0.0337 -0.4087 -0.1116
    2CHTO   C86  560   4.370   6.102  -0.569  0.4459 -0.4739 -0.5740
    2CHTO  H158  561   4.456   6.155  -0.523  0.0918 -1.0829  0.8257
    2CHTO   C90  562   4.256   6.093  -0.456 -0.8581 -0.1546 -0.6235
    2CHTO   O60  563   4.277   5.979  -0.373  0.1705 -0.3725  0.4147
    2CHTO  H138  564   4.224   5.982  -0.295  0.1388  1.4380  0.3495
    2CHTO   O50  565   4.534   6.317  -0.709 -0.5624 -0.1957  0.3890
    2CHTO   C73  566   4.575   6.439  -0.629  0.0230 -0.3983 -0.1537
    2CHTO  H145  567   4.493   6.468  -0.562 -1.5963  0.0551 -2.2631
    2CHTO   C74  568   4.608   6.554  -0.730  0.2519 -0.4463  0.3267
    2CHTO  H146  569   4.512   6.568  -0.783  1.2466  0.0862 -1.3780
    2CHTO   O54  570   4.640   6.677  -0.669 -0.0122 -0.2240  0.8472
    2CHTO  H133  571   4.734   6.682  -0.661 -0.1795 -0.1129  3.1872
    2CHTO   C75  572   4.724   6.505  -0.827  0.2252  0.4596 -0.5485
    2CHTO  H147  573   4.686   6.422  -0.888 -0.2635  1.2766 -1.3858
    2CHTO   N13  574   4.763   6.599  -0.932  0.8020 -0.5495 -0.6574
    2CHTO  H139  575   4.689   6.676  -0.918  2.2678  0.8758 -0.6703
    2CHTO  H140  576   4.857   6.644  -0.905  0.1740 -1.3148  2.9732
    2CHTO   C76  577   4.848   6.445  -0.749  0.5248  0.0019 -0.5157
    2CHTO  H148  578   4.907   6.529  -0.715  0.9661 -0.6772  0.4118
    2CHTO   O49  579   4.811   6.368  -0.624 -0.1875  0.1063 -0.1898
    2CHTO   C77  580   4.702   6.415  -0.546  0.5301 -0.5538  0.6064
    2CHTO  H149  581   4.726   6.504  -0.488 -0.4333  1.3582 -1.8620
    2CHTO   C88  582   4.663   6.310  -0.439 -0.2836 -0.1175  0.2226
    2CHTO   O58  583   4.762   6.280  -0.341  0.2436 -0.6981  0.3049
    2CHTO  H136  584   4.795   6.358  -0.301  1.8620 -0.4246 -1.5005
    2CHTO   O51  585   4.941   6.333  -0.838  0.0922 -0.2889 -1.2006
    2CHTO   C78  586   5.050   6.236  -0.769 -0.7531  0.1155 -0.3843
    2CHTO  H150  587   5.024   6.215  -0.663  0.5777  2.6391  0.4800
    2CHTO   C80  588   5.189   6.289  -0.774  0.1777 -0.4513 -0.6083
    2CHTO  H152  589   5.215   6.308  -0.880  3.3032 -4.6634 -0.7434
    2CHTO   O55  590   5.193   6.419  -0.712  0.5654 -0.3049  0.2612
    2CHTO  H134  591   5.272   6.462  -0.736  0.1177  1.4436  1.8287
    2CHTO   C84  592   5.286   6.189  -0.704  0.5797  0.0752  0.1191
    2CHTO  H156  593   5.244   6.163  -0.607  1.3501 -1.4139  0.0735
    2CHTO   N15  594   5.423   6.239  -0.692  0.6193  0.4117 -0.1036
    2CHTO  H143  595   5.420   6.308  -0.610  0.4682  1.1123 -0.6880
    2CHTO  H144  596   5.460   6.290  -0.778  1.5922  1.2289  0.7775
    2CHTO   C87  597   5.271   6.056  -0.787  0.1078 -0.1289 -0.4620
    2CHTO  H159  598   5.310   6.073  -0.887 -0.8956  0.7245 -0.7136
    2CHTO   O53  599   5.134   6.009  -0.798  0.5001 -0.1355 -0.5493
    2CHTO   C82  600   5.048   6.112  -0.849  0.2175  1.4485  0.3027
    2CHTO  H154  601   5.082   6.138  -0.949  0.2137 -1.1236 -0.4161
    2CHTO   C89  602   4.901   6.058  -0.868  0.2392 -0.5999  0.1205
    2CHTO   O59  603   4.878   5.974  -0.984  0.0199 -0.0366  0.0371
    2CHTO  H137  604   4.787   5.949  -0.985 -0.0054  0.0815 -0.7483
    2CHTO   O45  605   5.357   5.928  -0.715  0.1732  0.0667  0.0247
    2CHTO   C67  606   5.284   5.842  -0.618 -0.1232  0.7076 -0.0481
    2CHTO  H124  607   5.194   5.899  -0.594 -0.4721  0.4858 -0.8220
    2CHTO   C65  608   5.243   5.709  -0.696 -0.4428 -0.6715 -0.0076
    2CHTO  H122  609   5.308   5.694  -0.782  1.0297  0.3604  0.9099
    2CHTO   O44  610   5.112   5.730  -0.752  0.6104  0.3550 -0.4143
    2CHTO  H102  611   5.075   5.645  -0.764  1.6446 -0.1759  0.0497
    2CHTO   C63  612   5.266   5.581  -0.618 -0.3454 -0.2951 -0.3557
    2CHTO  H120  613   5.373   5.564  -0.606 -0.4435  0.3120  1.6987
    2CHTO   N11  614   5.216   5.449  -0.669  0.5329 -0.3186 -0.9431
    2CHTO  H108  615   5.158   5.463  -0.758 -0.5060  1.2474 -0.0531
    2CHTO  H109  616   5.168   5.397  -0.589 -1.8133  1.6281 -0.9863
    2CHTO   C61  617   5.215   5.610  -0.472  0.9707 -0.8767 -0.3246
    2CHTO  H118  618   5.227   5.521  -0.408  2.8362  1.3093  2.4657
    2CHTO   O40  619   5.291   5.715  -0.405 -0.3399 -0.3712  0.2598
    2CHTO   C68  620   5.365   5.815  -0.487  0.5344 -0.8469 -0.2384
    2CHTO  H125  621   5.465   5.773  -0.507  0.8396 -0.5402  0.6301
    2CHTO   C72  622   5.393   5.949  -0.410  0.2036  0.0789  0.2956
    2CHTO   O48  623   5.496   5.945  -0.312  0.4455  0.3243  0.2933
    2CHTO  H105  624   5.578   5.966  -0.354  1.5494 -1.2619  1.6203
    2CHTO   O38  625   5.072   5.653  -0.463  0.0239  0.0799  0.7774
    2CHTO   C55  626   5.000   5.670  -0.340 -0.4994  0.9228 -0.1050
    2CHTO  H112  627   5.077   5.709  -0.271  2.3306 -2.6994 -1.0277
    2CHTO   C56  628   4.937   5.538  -0.286 -0.7223  0.6189 -0.4639
    2CHTO  H113  629   4.868   5.509  -0.367  1.2099 -1.1906 -1.5202
    2CHTO   O42  630   5.039   5.439  -0.283  0.2509 -0.0521 -0.4876
    2CHTO  H100  631   5.065   5.410  -0.368 -1.8325 -0.0911 -1.1353
    2CHTO   C57  632   4.857   5.551  -0.151  1.0055 -0.2143  0.4672
    2CHTO  H114  633   4.926   5.570  -0.068 -0.0857 -1.0563  1.5807
    2CHTO   N10  634   4.791   5.421  -0.115 -0.0444 -0.0482  0.4437
    2CHTO  H106  635   4.800   5.416  -0.007  0.8691 -0.3732  0.3581
    2CHTO  H107  636   4.849   5.340  -0.156 -0.9825 -0.3236 -0.3517
    2CHTO   C58  637   4.752   5.665  -0.171 -0.6192 -0.1728 -0.6594
    2CHTO  H115  638   4.668   5.633  -0.237 -1.8290  1.5545  0.0036
    2CHTO   O37  639   4.815   5.777  -0.227  0.6034 -0.1420 -0.4365
    2CHTO   C59  640   4.887   5.766  -0.359  0.2665 -0.6919 -0.0306
    2CHTO  H116  641   4.824   5.730  -0.440  0.6664  0.3389 -0.8138
    2CHTO   C70  642   4.942   5.903  -0.398  0.1184 -0.4455  0.2862
    2CHTO   O46  643   4.846   6.006  -0.426  0.3887 -0.5176 -0.2463
    2CHTO  H103  644   4.758   5.978  -0.442  0.9472 -3.2158  1.0315
    2CHTO   O39  645   4.695   5.724  -0.021  0.1996 -0.3847  0.3313
    2CHTO   C60  646   4.550   5.755  -0.027 -0.1606 -0.4214  0.1951
    2CHTO  H117  647   4.522   5.753  -0.132 -0.3733  3.2784  0.1434
    2CHTO   C62  648   4.464   5.648   0.047  0.3117  0.1119 -0.1577
    2CHTO  H119  649   4.472   5.553  -0.011  0.2860  1.2673 -2.1107
    2CHTO   O43  650   4.526   5.624   0.176  0.4101  0.7259  0.2376
    2CHTO  H101  651   4.477   5.558   0.222  1.8700  0.2546  1.1443
    2CHTO   C66  652   4.306   5.701   0.046 -0.0825 -0.3819 -0.5520
    2CHTO  H123  653   4.267   5.702  -0.056 -1.0694  2.2380 -0.1700
    2CHTO   N12  654   4.227   5.612   0.130  0.0125  0.4823  0.1590
    2CHTO  H110  655   4.130   5.658   0.143 -0.9221 -0.7866 -2.0060
    2CHTO  H111  656   4.208   5.522   0.074  0.7343  0.4831 -0.0869
    2CHTO   C69  657   4.300   5.851   0.094  0.0430 -0.4420 -0.3360
    2CHTO  H126  658   4.324   5.854   0.202  1.3732 -1.3148 -0.5960
    2CHTO   O41  659   4.405   5.929   0.011 -0.5045  0.0510  0.4304
    2CHTO   C64  660   4.527   5.900   0.018  0.3058 -0.2802  0.0292
    2CHTO  H121  661   4.551   5.903   0.126 -2.3914  2.6527  0.6048
    2CHTO   C71  662   4.621   6.006  -0.054  0.5097 -0.3522  0.0847
    2CHTO   O47  663   4.650   5.990  -0.190 -0.5366 -0.1433  0.0912
    2CHTO  H104  664   4.737   6.021  -0.206 -0.2060 -1.6182 -1.1252
    2CHTO   O34  665   4.143   5.917   0.078 -0.1745  0.1821  0.4070
    2CHTO   C49  666   4.162   6.081   0.082  0.5943  0.3561  1.6017
    2CHTO   H91  667   4.264   6.111   0.107  1.0215  0.8882 -0.6235
    2CHTO   C47  668   4.062   6.134   0.190 -0.2334  0.0491 -0.0344
    2CHTO   H89  669   4.074   6.244   0.203  0.5135 -0.0231 -0.1155
    2CHTO   O33  670   4.080   6.068   0.320  0.6792  0.0356 -0.2248
    2CHTO   H70  671   4.142   5.997   0.312  0.3137 -0.4627  1.1825
    2CHTO   C45  672   3.909   6.108   0.141  0.9966 -0.3925  0.3313
    2CHTO   H87  673   3.890   6.001   0.122 -1.1825  0.0304  0.0058
    2CHTO    N8  674   3.816   6.159   0.246 -0.2629 -0.0843 -0.4094
    2CHTO   H75  675   3.852   6.146   0.347  0.7491 -1.0908 -0.8951
    2CHTO   H76  676   3.721   6.112   0.226 -0.0942  0.1937 -1.8744
    2CHTO   C43  677   3.885   6.175  -0.004  0.4475  0.4030  0.0227
    2CHTO   H85  678   3.783   6.149  -0.031  0.2810 -0.1022  1.1398
    2CHTO   O29  679   3.983   6.127  -0.102  0.1727  0.2384  0.3145
    2CHTO   C50  680   4.121   6.141  -0.056  0.2534  0.3143  0.0808
    2CHTO   H92  681   4.166   6.071  -0.127 -0.2336 -2.4413  2.4166
    2CHTO   C54  682   4.176   6.281  -0.087 -0.7161  0.4318 -0.0151
    2CHTO   O36  683   4.138   6.328  -0.216  0.0208 -0.0738 -0.0759
    2CHTO   H72  684   4.096   6.410  -0.202 -0.1632 -0.1105 -0.3961
    2CHTO   O27  685   3.891   6.320   0.006  0.7284 -0.9680  0.5909
    2CHTO   C37  686   3.836   6.435  -0.059  0.1410  1.8278 -0.3715
    2CHTO   H79  687   3.892   6.444  -0.153  0.7639 -1.7303 -0.3907
    2CHTO   C38  688   3.683   6.429  -0.088 -1.1870 -0.3827  0.3188
    2CHTO   H80  689   3.634   6.414   0.009 -0.5414  1.4161  0.9320
    2CHTO   O31  690   3.663   6.309  -0.169 -0.3314  0.0292 -0.6135
    2CHTO   H68  691   3.699   6.325  -0.254  1.6194 -1.3784 -0.0895
    2CHTO   C39  692   3.636   6.566  -0.157 -0.5011 -0.1842 -0.3899
    2CHTO   H81  693   3.690   6.559  -0.251 -0.3720  0.5474 -0.3718
    2CHTO    N7  694   3.494   6.564  -0.201 -0.3963  0.5721  0.3312
    2CHTO   H73  695   3.425   6.524  -0.128  0.5236 -1.4966  0.1109
    2CHTO   H74  696   3.456   6.661  -0.229 -0.7718  0.8103  1.6508
    2CHTO   C40  697   3.675   6.686  -0.070 -0.1028 -0.1160  0.2308
    2CHTO   H82  698   3.612   6.671   0.018  0.9338  1.7406  1.3051
    2CHTO   O26  699   3.813   6.679  -0.040 -0.0026  0.1596  0.8554
    2CHTO   C41  700   3.860   6.557   0.029 -0.1713 -0.5251  0.1966
    2CHTO   H83  701   3.800   6.551   0.120 -0.1426 -1.3203  0.1666
    2CHTO   C52  702   4.017   6.585   0.043 -0.3542 -0.0926 -0.6955
    2CHTO   O35  703   4.090   6.505   0.156 -0.1919  0.1329  0.1954
    2CHTO   H71  704   4.131   6.427   0.125 -0.6168  1.2600 -3.4525
    2CHTO   O28  705   3.667   6.800  -0.148 -0.0744 -0.0128 -0.0118
    2CHTO   C42  706   3.663   6.941  -0.114  0.2650  0.6267  0.5148
    2CHTO   H84  707   3.640   6.981  -0.213 -0.4957 -1.6721 -0.2713
    2CHTO   C44  708   3.809   6.997  -0.078  0.1338  0.0828  0.3263
    2CHTO   H86  709   3.845   6.938   0.006  0.6057  1.1822  0.8998
    2CHTO   O32  710   3.898   6.972  -0.189  0.0830  0.0372  0.2870
    2CHTO   H69  711   3.932   6.884  -0.191  1.2381  0.4876 -2.4185
    2CHTO   C48  712   3.807   7.152  -0.033  0.2717  0.4901  0.5551
    2CHTO   H90  713   3.768   7.210  -0.118  1.5484  1.0538  0.3459
    2CHTO    N9  714   3.934   7.214  -0.001  0.0375  0.1343  0.4070
    2CHTO   H77  715   3.933   7.321  -0.016  0.6528  0.1630  0.5560
    2CHTO   H78  716   4.015   7.156  -0.044 -0.8328 -1.4066  0.7742
    2CHTO   C51  717   3.687   7.167   0.080  0.5077  0.2487  0.4623
    2CHTO   H93  718   3.716   7.091   0.152 -2.1136  0.4794  1.8110
    2CHTO   O30  719   3.564   7.134   0.015 -0.0952  0.1108  0.3617
    2CHTO   C46  720   3.550   6.988  -0.014 -0.5599  0.7507 -0.0360
    2CHTO   H88  721   3.553   6.927   0.076 -0.2962 -1.7188 -1.6904
    2CHTO   C53  722   3.410   6.965  -0.081 -0.7696  0.8662  0.1687
    2CHTO   O72  723   3.366   6.828  -0.055  0.5530 -0.1110 -0.2629
    2CHTO  H199  724   3.289   6.840  -0.003  0.3482 -2.2725 -0.0402
    2CHTO   O22  725   3.669   7.301   0.134  1.1423  0.4799 -0.4391
    2CHTO   C31  726   3.663   7.328   0.281  0.7191 -0.3936 -0.0317
    2CHTO   H59  727   3.618   7.429   0.287  0.2695 -0.5446 -0.7538
    2CHTO   C29  728   3.565   7.229   0.354  0.0281 -0.3301 -0.4548
    2CHTO   H57  729   3.603   7.131   0.323  2.5319  0.0292  1.3157
    2CHTO   O21  730   3.438   7.247   0.291  0.2817 -0.5206 -0.0330
    2CHTO   H37  731   3.396   7.165   0.311  0.9509 -1.0589 -0.8029
    2CHTO   C27  732   3.559   7.236   0.510  0.6605  0.8327  0.1680
    2CHTO   H55  733   3.495   7.321   0.536  1.4387  0.8249  2.2316
    2CHTO    N5  734   3.491   7.110   0.560 -0.0671  0.1387  0.2658
    2CHTO   H43  735   3.553   7.031   0.600  1.1222 -0.0506 -1.8900
    2CHTO   H44  736   3.414   7.065   0.499  0.5159 -0.3111 -0.1364
    2CHTO   C25  737   3.706   7.243   0.559 -0.5946 -0.5516  1.3941
    2CHTO   H53  738   3.756   7.150   0.530 -0.3192  0.2544 -0.8186
    2CHTO   O17  739   3.772   7.355   0.490  0.2104 -0.6447 -0.2804
    2CHTO   C32  740   3.795   7.339   0.350 -0.2172 -0.3513  0.2307
    2CHTO   H60  741   3.859   7.255   0.323 -1.6955 -1.6265  0.6229
    2CHTO   C36  742   3.866   7.466   0.291 -0.5754 -0.1210  1.4110
    2CHTO   O25  743   3.965   7.524   0.378 -0.1177  0.1118 -0.0291
    2CHTO   H40  744   4.000   7.598   0.334 -0.9240 -0.4037 -1.5694
    2CHTO   O15  745   3.720   7.257   0.702  0.1182  0.6600  0.1014
    2CHTO   C19  746   3.712   7.158   0.813 -0.7376  0.6116 -0.1913
    2CHTO   H47  747   3.604   7.141   0.822 -0.2034 -2.4607  1.0131
    2CHTO   C20  748   3.775   7.016   0.795  0.2484 -0.1165 -0.5812
    2CHTO   H48  749   3.884   7.022   0.792  0.3345 -0.0048  1.5775
    2CHTO   O19  750   3.729   6.947   0.682 -0.5131 -0.0573  0.4304
    2CHTO   H35  751   3.756   6.857   0.679 -2.0249 -0.4345 -2.8276
    2CHTO   C21  752   3.754   6.920   0.927 -0.1062  0.6612  0.0229
    2CHTO   H49  753   3.649   6.893   0.935 -0.5023  2.0479 -0.3030
    2CHTO    N4  754   3.837   6.798   0.925  0.0182 -0.8404 -0.9103
    2CHTO   H41  755   3.935   6.814   0.881  1.5209  1.3917  2.9709
    2CHTO   H42  756   3.788   6.719   0.872 -1.7279 -0.0628 -0.5039
    2CHTO   C22  757   3.774   7.002   1.062 -0.0848 -0.8144  0.5556
    2CHTO   H50  758   3.878   7.014   1.094  0.2365  0.2910 -0.8431
    2CHTO   O14  759   3.718   7.135   1.050  0.1149 -0.0264 -0.4435
    2CHTO   C23  760   3.764   7.222   0.946 -0.7096  0.0437 -0.1687
    2CHTO   H51  761   3.872   7.242   0.944 -0.7709  0.4028  0.0123
    2CHTO   C34  762   3.702   7.361   0.981  0.0843  0.2158 -0.3494
    2CHTO   O23  763   3.748   7.402   1.112  0.3939 -0.1095 -0.2465
    2CHTO   H38  764   3.689   7.361   1.172 -0.6193 -0.2332 -1.3168
    2CHTO   O16  765   3.695   6.940   1.163 -0.7976 -0.0668 -0.4383
    2CHTO   C24  766   3.742   6.954   1.307  0.1229 -0.3450  0.4773
    2CHTO   H52  767   3.803   7.042   1.323 -1.3974  0.1442  4.0652
    2CHTO   C26  768   3.824   6.829   1.351  0.2967 -0.2029  0.9244
    2CHTO   H54  769   3.757   6.745   1.325 -0.1922  0.7579 -0.9720
    2CHTO   O20  770   3.937   6.829   1.266  0.0298  0.1120  0.3786
    2CHTO   H36  771   3.977   6.910   1.292  0.8109 -0.7029  1.7464
    2CHTO   C30  772   3.858   6.825   1.504 -0.1038  0.0815 -0.3000
    2CHTO   H58  773   3.922   6.908   1.536 -1.0449  0.6608  0.0987
    2CHTO    N6  774   3.923   6.696   1.539 -0.1537 -0.0708 -0.7693
    2CHTO   H45  775   4.011   6.663   1.487  0.5492  1.7531 -0.7801
    2CHTO   H46  776   3.854   6.613   1.535 -0.4027 -0.0010  1.3061
    2CHTO   C33  777   3.731   6.859   1.591  0.2104  0.6252  0.3735
    2CHTO   H61  778   3.674   6.767   1.610 -1.3501  1.2885 -0.9514
    2CHTO   O18  779   3.646   6.962   1.531 -0.2687  0.7460 -0.6411
    2CHTO   C28  780   3.620   6.975   1.394  0.1323  0.3906 -0.0546
    2CHTO   H56  781   3.551   6.894   1.370  0.8055 -0.6651  1.5077
    2CHTO   C35  782   3.545   7.109   1.371  0.4954 -0.8133 -0.0043
    2CHTO   O24  783   3.482   7.124   1.243  0.1755 -0.0581  0.0081
    2CHTO   H39  784   3.458   7.039   1.211 -2.7277  0.5861  0.3334
    2CHTO    O9  785   3.777   6.898   1.723 -0.2108  0.1207 -0.1714
    2CHTO   C13  786   3.669   6.936   1.832  0.1079  0.7216 -1.0078
    2CHTO   H26  787   3.585   6.865   1.818 -2.5705  2.7347  3.4620
    2CHTO   C11  788   3.620   7.087   1.813  0.3916  0.5487  0.1186
    2CHTO   H24  789   3.574   7.093   1.714  0.1962 -0.1063  0.1670
    2CHTO    O8  790   3.739   7.171   1.814 -0.6775  0.0588 -0.6308
    2CHTO    H3  791   3.803   7.137   1.754 -0.6221 -0.6352 -0.1834
    2CHTO    C9  792   3.518   7.110   1.927 -0.5078 -0.8661  0.0598
    2CHTO   H22  793   3.442   7.032   1.913  0.0776 -1.0097 -2.5669
    2CHTO    N2  794   3.451   7.236   1.906  0.4226 -0.3291  0.0656
    2CHTO   H10  795   3.390   7.228   1.818  0.2845  0.3938  0.0949
    2CHTO   H11  796   3.519   7.319   1.893  3.3667 -2.8336 -1.4421
    2CHTO    C7  797   3.592   7.094   2.062 -0.4998 -0.5934  0.0891
    2CHTO   H20  798   3.517   7.107   2.144  0.3022  3.5773  0.2625
    2CHTO    O4  799   3.642   6.956   2.073 -0.6976 -0.0524  0.3918
    2CHTO   C14  800   3.731   6.908   1.970 -0.4181  0.4064  0.4618
    2CHTO   H27  801   3.748   6.798   1.978  2.4691  0.8186  0.4129
    2CHTO   C18  802   3.869   6.965   1.994  1.0840 -0.1248 -0.7451
    2CHTO   O13  803   3.917   6.927   2.129  0.4601 -0.2395  0.4281
    2CHTO    H7  804   4.010   6.931   2.128  0.4911 -1.0157 -1.6545
    2CHTO    O2  805   3.722   7.207   2.094  0.1970  0.1588 -0.0221
    2CHTO    C1  806   3.745   7.265   2.222  0.2772  0.0751  0.7798
    2CHTO   H14  807   3.744   7.178   2.292  1.3891  0.3332  1.1232
    2CHTO    C2  808   3.632   7.375   2.265  0.2496  1.0694  0.0806
    2CHTO   H15  809   3.607   7.422   2.169 -0.5056  1.3369  0.4086
    2CHTO    O6  810   3.515   7.314   2.323  0.1979  0.3653  0.3356
    2CHTO    H1  811   3.440   7.365   2.345 -0.2781 -0.0057 -0.4088
    2CHTO    C3  812   3.683   7.479   2.373  0.7076  0.1652  0.3656
    2CHTO   H16  813   3.673   7.440   2.476  1.2026  1.9575  1.1206
    2CHTO    N1  814   3.593   7.599   2.390 -0.1807 -0.2822  0.5551
    2CHTO    H8  815   3.601   7.650   2.484  4.1830 -0.6909  0.5293
    2CHTO    H9  816   3.492   7.577   2.357  0.3780 -0.7324 -0.9184
    2CHTO    C4  817   3.829   7.525   2.351 -0.6712  0.5252  0.0955
    2CHTO   H17  818   3.833   7.580   2.257 -2.4806 -1.7533 -1.3776
    2CHTO    O1  819   3.906   7.413   2.344 -0.6995 -0.2152 -0.2714
    2CHTO    C5  820   3.890   7.330   2.231  0.0563  0.0624  1.1542
    2CHTO   H18  821   3.912   7.390   2.143 -0.7597 -1.6397 -0.2512
    2CHTO   C16  822   4.004   7.227   2.238  0.1651  0.0116 -0.6158
    2CHTO   O11  823   4.132   7.290   2.242  0.1151  0.0482  0.6896
    2CHTO    H5  824   4.129   7.380   2.270  2.8230  0.5502 -0.4055
    2CHTO    O3  825   3.890   7.604   2.455 -0.0557 -0.0359 -0.9864
    2CHTO    C6  826   3.980   7.712   2.409  0.3665 -0.6466 -0.4012
    2CHTO   H19  827   4.000   7.704   2.302 -1.4103 -1.9814 -0.6523
    2CHTO    C8  828   3.922   7.843   2.453  0.7075 -0.1948 -1.0318
    2CHTO   H21  829   3.906   7.846   2.561  0.7445  1.7292 -1.0552
    2CHTO    O7  830   3.795   7.862   2.384 -0.4173  0.2279  0.2082
    2CHTO    H2  831   3.727   7.816   2.430  0.5809 -0.7871  0.6702
    2CHTO   C12  832   4.021   7.961   2.421  0.1632  1.2252 -0.2798
    2CHTO   H25  833   4.025   7.961   2.310  1.0764 -2.1169 -0.3057
    2CHTO    N3  834   3.965   8.093   2.473  0.5101 -0.0009 -0.6172
    2CHTO   H12  835   4.023   8.174   2.432  0.6118  0.3605  0.2345
    2CHTO   H13  836   3.864   8.102   2.436 -0.8472  0.9020  3.1231
    2CHTO   C15  837   4.157   7.928   2.481  0.0413 -0.6934  0.2423
    2CHTO   H28  838   4.153   7.942   2.589  1.4875  0.4589  0.1570
    2CHTO   O10  839   4.267   8.029   2.419 -0.0424 -0.0509  0.4379
    2CHTO    H4  840   4.227   8.113   2.404  3.3487  1.4622 -0.7207
    2CHTO    O5  841   4.206   7.796   2.456  0.1298 -0.9633 -0.1989
    2CHTO   C10  842   4.116   7.694   2.484 -0.3093 -0.4932  0.0748
    2CHTO   H23  843   4.096   7.681   2.590  1.4897  0.2828  0.5308
    2CHTO   C17  844   4.188   7.567   2.433 -0.3214 -0.0097  0.5147
    2CHTO   O12  845   4.291   7.528   2.530 -0.7519 -0.4566 -0.3587
    2CHTO    H6  846   4.360   7.591   2.539  0.2098 -1.4083 -0.9387
    3CHTO  H203  847   8.273   1.433   1.041  0.2336 -1.5335 -0.0072
    3CHTO   O82  848   8.341   1.427   1.105  0.0510  0.2828  0.3989
    3CHTO  C123  849   8.285   1.390   1.234 -0.1185 -0.2009 -0.7269
    3CHTO  H227  850   8.363   1.393   1.312 -2.6707 -0.5973  1.8971
    3CHTO   O77  851   8.188   1.495   1.271 -0.6547 -0.1000 -0.3979
    3CHTO  C118  852   8.122   1.469   1.391 -0.2349  0.0868 -0.4334
    3CHTO  H222  853   8.189   1.467   1.478 -1.8073  0.7752  0.8295
    3CHTO  C125  854   8.023   1.596   1.407  0.4221  0.6309 -0.1737
    3CHTO   O84  855   8.093   1.716   1.427  0.0542  0.1040 -0.0361
    3CHTO  H205  856   8.095   1.719   1.521 -0.8433  2.0026 -0.0677
    3CHTO  C114  857   8.042   1.336   1.369  0.9851  0.4303 -0.2547
    3CHTO  H218  858   7.973   1.355   1.287  3.1686  0.9902 -2.0019
    3CHTO  C116  859   8.133   1.213   1.344  0.1825 -0.2206 -0.5947
    3CHTO  H220  860   8.186   1.176   1.434  0.4281  3.1306  0.7330
    3CHTO   O79  861   8.050   1.103   1.298 -0.4166  0.2072  0.2584
    3CHTO  H201  862   7.975   1.091   1.354  0.1595 -2.3710  0.5282
    3CHTO  C120  863   8.232   1.246   1.228  0.4320  0.5631  0.1951
    3CHTO  H224  864   8.162   1.237   1.142 -1.5390  0.7660  1.7593
    3CHTO   N21  865   8.340   1.142   1.200 -0.0688 -0.7324 -0.0208
    3CHTO  H211  866   8.360   1.092   1.293 -0.5439  2.0785  1.6533
    3CHTO  H212  867   8.427   1.196   1.166 -1.3875  0.1665 -2.0087
    3CHTO   O75  868   7.974   1.320   1.493  0.0152  0.0156 -0.8288
    3CHTO  C112  869   7.807   1.288   1.450 -0.0092 -0.3907 -0.1654
    3CHTO  H216  870   7.805   1.231   1.356  0.0706 -1.3123  0.3889
    3CHTO   O73  871   7.742   1.418   1.447  0.3882  0.5881  0.7916
    3CHTO  C113  872   7.604   1.399   1.406  0.1927 -0.1277 -0.5564
    3CHTO  H217  873   7.599   1.346   1.309  0.9378 -0.6955 -0.2931
    3CHTO  C124  874   7.536   1.539   1.392  0.2136 -0.3811 -0.0654
    3CHTO   O83  875   7.428   1.523   1.301  0.1240  0.6937 -0.9044
    3CHTO  H204  876   7.433   1.576   1.224  0.3303 -1.2537 -2.2731
    3CHTO  C109  877   7.525   1.312   1.507 -0.2877  0.4171 -0.0693
    3CHTO  H213  878   7.513   1.377   1.595 -1.6085  1.8299 -1.2502
    3CHTO  C110  879   7.593   1.176   1.540 -0.1167 -0.0386 -0.2208
    3CHTO  H214  880   7.581   1.107   1.456 -0.3096  1.3297 -1.3288
    3CHTO   O78  881   7.523   1.114   1.650 -0.0775 -0.4124 -0.1171
    3CHTO  H200  882   7.535   1.021   1.646  2.6793 -0.1908  1.8726
    3CHTO  C111  883   7.745   1.196   1.563 -0.1491  0.2384 -0.1926
    3CHTO  H215  884   7.764   1.242   1.661  1.8576 -0.9809  0.0069
    3CHTO   N19  885   7.812   1.063   1.565 -0.0540 -0.0775 -0.2944
    3CHTO  H207  886   7.918   1.084   1.578 -0.0760 -0.1133 -0.0570
    3CHTO  H208  887   7.786   0.991   1.641  3.0276 -2.3703 -1.3121
    3CHTO   O74  888   7.396   1.281   1.439  0.2846  0.1770  0.1132
    3CHTO  C115  889   7.255   1.280   1.538 -0.8883  0.0394 -0.0448
    3CHTO  H219  890   7.274   1.223   1.629  1.6956 -0.6216 -0.9718
    3CHTO   O76  891   7.211   1.435   1.583 -0.3643  0.1060  0.4387
    3CHTO  C122  892   7.084   1.440   1.652  0.2039  0.1875 -0.9668
    3CHTO  H226  893   7.051   1.544   1.650  1.1924  0.5050 -1.6295
    3CHTO  C126  894   7.092   1.400   1.802 -0.2590 -0.0249  0.2424
    3CHTO   O85  895   7.131   1.510   1.887  0.3298 -0.0450 -0.1408
    3CHTO  H206  896   7.159   1.491   1.975  1.1164 -1.5771 -0.7009
    3CHTO  C121  897   6.969   1.363   1.576 -0.2338  0.5489  0.0357
    3CHTO  H225  898   6.892   1.360   1.656  0.1772 -0.2878  0.4023
    3CHTO   O81  899   6.927   1.438   1.464 -0.7158 -0.4120  0.4224
    3CHTO  H202  900   6.843   1.480   1.470  0.3423  2.0718 -1.1758
    3CHTO  C119  901   7.008   1.214   1.539  0.2453  0.5537  0.7005
    3CHTO  H223  902   7.027   1.159   1.631 -1.2519  0.3742  0.9208
    3CHTO  C117  903   7.141   1.212   1.454  0.3269 -0.0311  0.4485
    3CHTO  H221  904   7.149   1.266   1.360 -0.5683  1.8650  1.4393
    3CHTO   N20  905   7.185   1.072   1.424  0.3157 -0.3456  0.0555
    3CHTO  H209  906   7.104   1.011   1.387 -1.5723  2.8988 -1.4125
    3CHTO  H210  907   7.228   1.028   1.513  0.4534  1.6980  1.0152
    3CHTO   O80  908   6.896   1.140   1.485  0.4928 -0.7093 -0.5641
    3CHTO  C103  909   6.777   1.073   1.585 -0.0578 -0.3156  0.0923
    3CHTO  H190  910   6.784   1.092   1.692  0.5760  0.3346 -0.0618
    3CHTO  C101  911   6.634   1.104   1.532  0.0412  0.0266  0.0742
    3CHTO  H188  912   6.630   1.070   1.429 -1.4700  0.7712 -0.1272
    3CHTO   O68  913   6.626   1.258   1.547  0.1293 -0.0577 -0.0077
    3CHTO  H168  914   6.575   1.293   1.477  1.2960 -0.2237 -0.9364
    3CHTO   C99  915   6.518   1.024   1.603  0.0267  0.0497 -0.4633
    3CHTO  H186  916   6.531   1.031   1.713 -0.3381  1.3449 -0.4934
    3CHTO   N17  917   6.379   1.062   1.581  0.2554 -0.3665  0.2501
    3CHTO  H174  918   6.367   1.165   1.551  0.8298  0.2843  2.1478
    3CHTO  H175  919   6.339   0.994   1.507  2.1183 -0.3063 -0.8650
    3CHTO   C97  920   6.556   0.877   1.574  0.8123 -0.4621 -0.3596
    3CHTO  H184  921   6.553   0.857   1.466 -0.7581  0.7333 -0.5508
    3CHTO   O64  922   6.687   0.847   1.635 -0.4320  0.6194  0.0896
    3CHTO  C104  923   6.792   0.919   1.575 -0.4156  0.1718  0.1543
    3CHTO  H191  924   6.798   0.881   1.473 -2.6148 -3.7460  1.3919
    3CHTO  C108  925   6.931   0.886   1.646  0.1980 -0.2183  0.3221
    3CHTO   O71  926   6.970   0.748   1.623 -0.0645  0.1321  0.1306
    3CHTO  H171  927   7.060   0.752   1.649  0.9210  0.6668 -3.1286
    3CHTO   O62  928   6.469   0.787   1.648  0.2451 -0.7378 -0.2257
    3CHTO   C91  929   6.441   0.665   1.586 -0.1078 -0.2119  0.3116
    3CHTO  H178  930   6.500   0.665   1.494 -0.8242  1.0827 -0.1710
    3CHTO   C92  931   6.289   0.665   1.557 -0.1285 -0.7202  0.6237
    3CHTO  H179  932   6.234   0.669   1.653 -3.4768 -0.8710 -1.2310
    3CHTO   O66  933   6.266   0.781   1.476  0.7800 -0.6332  0.0874
    3CHTO  H166  934   6.176   0.769   1.451  0.2234  1.6801  0.8204
    3CHTO   C93  935   6.254   0.530   1.483 -0.0549 -0.1318  0.1698
    3CHTO  H180  936   6.302   0.536   1.384 -1.0413  0.7930 -0.2698
    3CHTO   N16  937   6.113   0.514   1.452 -0.0268  0.0618  0.2779
    3CHTO  H172  938   6.060   0.495   1.545 -1.1736  2.3289  0.1248
    3CHTO  H173  939   6.094   0.433   1.384  1.7216  0.1623 -0.3472
    3CHTO   C94  940   6.308   0.404   1.557  0.3100 -0.7244 -0.0909
    3CHTO  H181  941   6.247   0.380   1.645 -0.6493 -0.5844 -0.7144
    3CHTO   O61  942   6.447   0.425   1.601 -0.1942 -0.5049 -1.0079
    3CHTO   C95  943   6.477   0.543   1.676  0.1560  0.5865 -0.0834
    3CHTO  H182  944   6.421   0.540   1.769  0.4288  1.1339  0.1021
    3CHTO  C106  945   6.631   0.521   1.728 -0.3165 -0.3166  0.0226
    3CHTO   O69  946   6.638   0.408   1.810  0.6996  0.7220 -0.1388
    3CHTO  H169  947   6.720   0.374   1.840  0.1661  0.7178  1.3961
    3CHTO   O63  948   6.324   0.283   1.468 -0.0977  0.1665  0.1808
    3CHTO   C96  949   6.236   0.143   1.546  0.2543  0.1343  0.3976
    3CHTO  H183  950   6.259   0.060   1.479  3.1375  0.2516  1.1772
    3CHTO   C98  951   6.082   0.152   1.557  0.1526  0.3277 -0.0146
    3CHTO  H185  952   6.054   0.236   1.623 -1.4129 -0.6295  0.5878
    3CHTO   O67  953   6.033   0.178   1.434  0.6285 -0.6122  0.0189
    3CHTO  H167  954   5.942   0.158   1.423  0.4659  0.6133 -1.0227
    3CHTO  C102  955   6.017   0.019   1.615  0.3273 -0.9263  0.0828
    3CHTO  H189  956   6.040  -0.063   1.545  1.4928 -0.2023 -0.4155
    3CHTO   N18  957   5.872   0.019   1.632 -0.4219 -0.2831 -0.6664
    3CHTO  H176  958   5.851   0.088   1.712  0.4587  0.4569 -1.0673
    3CHTO  H177  959   5.835  -0.081   1.653  1.0412 -1.0665 -1.7263
    3CHTO  C105  960   6.097  -0.024   1.745  0.7778 -0.7340 -0.5461
    3CHTO  H192  961   6.045   0.021   1.830 -1.0300 -1.1528 -1.4040
    3CHTO   O65  962   6.234   0.002   1.754 -0.1135  0.5086 -0.0713
    3CHTO  C100  963   6.287   0.120   1.698 -0.5854 -0.0921 -1.0444
    3CHTO  H187  964   6.260   0.209   1.757  2.1490 -0.6990  1.2302
    3CHTO  C107  965   6.442   0.102   1.710 -0.1792 -0.7262 -0.0472
    3CHTO   O70  966   6.484   0.108   1.847  0.5628 -0.1684 -0.4109
    3CHTO  H170  967   6.578   0.098   1.852  0.7502  1.2942 -0.7486
    3CHTO   O57  968   6.066  -0.201   1.732  0.0033  0.0639 -0.0334
    3CHTO   C85  969   6.089  -0.287   1.849  0.8997  0.6356 -0.1373
    3CHTO  H157  970   6.108  -0.387   1.805 -0.9025 -0.1851  0.8751
    3CHTO   C83  971   5.956  -0.297   1.934  0.4508 -0.4663 -0.6552
    3CHTO  H155  972   5.884  -0.359   1.881  1.8465 -0.1790 -2.9032
    3CHTO   O56  973   5.893  -0.169   1.942  0.1629 -0.5145  0.3644
    3CHTO  H135  974   5.812  -0.175   1.988  1.4610 -2.0503  2.5200
    3CHTO   C81  975   5.984  -0.364   2.070 -0.1248  0.4788  0.4760
    3CHTO  H153  976   6.019  -0.465   2.049 -0.6033  0.5473 -0.6758
    3CHTO   N14  977   5.859  -0.386   2.144 -0.4574 -0.1921 -0.0078
    3CHTO  H141  978   5.791  -0.442   2.083  0.0484  2.2766 -2.9782
    3CHTO  H142  979   5.893  -0.445   2.227 -0.8910 -1.7999 -0.9342
    3CHTO   C79  980   6.095  -0.288   2.150 -0.1402 -0.2652  0.2058
    3CHTO  H151  981   6.108  -0.336   2.246 -0.1753  0.0034  0.3447
    3CHTO   O52  982   6.219  -0.294   2.074 -0.1371 -0.2558  0.1466
    3CHTO   C86  983   6.210  -0.245   1.937  0.6639  0.2957  0.3325
    3CHTO  H158  984   6.204  -0.136   1.958  0.4866  0.0091  1.8701
    3CHTO   C90  985   6.340  -0.275   1.871  0.0152  0.3058  0.0161
    3CHTO   O60  986   6.374  -0.404   1.829  0.5576  0.3110 -0.5096
    3CHTO  H138  987   6.302  -0.434   1.778  1.0060 -1.6928  0.0079
    3CHTO   O50  988   6.053  -0.156   2.192 -0.4647 -0.4500 -0.1219
    3CHTO   C73  989   6.081  -0.059   2.296 -0.1307 -0.1845  0.1265
    3CHTO  H145  990   6.172  -0.084   2.353  0.5735 -1.6593 -1.6229
    3CHTO   C74  991   5.964  -0.060   2.396  0.9405 -0.1540  0.1479
    3CHTO  H146  992   5.951  -0.154   2.451 -0.1208  0.2134  0.5365
    3CHTO   O54  993   6.009   0.024   2.503 -1.1615  0.1482  0.2033
    3CHTO  H133  994   6.055  -0.016   2.574 -0.4544  2.8378  1.3219
    3CHTO   C75  995   5.832  -0.015   2.326 -0.3732  0.0663 -0.0155
    3CHTO  H147  996   5.805  -0.085   2.245  0.5266  0.2400 -0.4628
    3CHTO   N13  997   5.711  -0.019   2.414 -0.4569 -0.7174  0.3534
    3CHTO  H139  998   5.676  -0.121   2.421 -1.5084 -0.3968 -0.2693
    3CHTO  H140  999   5.722   0.018   2.515 -2.0224  1.3178 -0.1848
    3CHTO   C76 1000   5.855   0.133   2.259  0.0422  0.5747 -1.1221
    3CHTO  H148 1001   5.859   0.198   2.347  0.2252 -3.2689  1.8360
    3CHTO   O49 1002   5.978   0.136   2.168  0.0972  0.8543 -0.7912
    3CHTO   C77 1003   6.094   0.085   2.233 -0.3816  0.3527 -0.2368
    3CHTO  H149 1004   6.130   0.155   2.309  0.0350 -1.5877  1.3771
    3CHTO   C88 1005   6.197   0.086   2.122 -0.8398  0.2617 -0.4426
    3CHTO   O58 1006   6.336   0.039   2.161 -0.9202  0.2289 -0.1676
    3CHTO  H136 1007   6.398   0.065   2.096 -0.5232 -1.1882 -0.3622
    3CHTO   O51 1008   5.740   0.156   2.146  0.4147 -0.2293  0.5170
    3CHTO   C78 1009   5.717   0.323   2.107 -0.3779  0.6286  0.9394
    3CHTO  H150 1010   5.796   0.381   2.159  0.4377  1.0278 -0.7056
    3CHTO   C80 1011   5.582   0.370   2.163 -0.4901 -0.1941  0.5461
    3CHTO  H152 1012   5.502   0.308   2.119 -1.3112 -0.5613  2.5010
    3CHTO   O55 1013   5.586   0.353   2.306  0.0568  0.1383  0.6155
    3CHTO  H134 1014   5.617   0.270   2.335  0.6511  0.4303  0.8158
    3CHTO   C84 1015   5.549   0.521   2.129  0.1061 -0.1505 -0.3717
    3CHTO  H156 1016   5.626   0.575   2.184 -1.6415  1.7653  0.2288
    3CHTO   N15 1017   5.417   0.567   2.178  0.3236 -0.0776 -0.5045
    3CHTO  H143 1018   5.423   0.598   2.280 -0.7066 -1.0554 -0.1389
    3CHTO  H144 1019   5.351   0.483   2.168  0.2159 -0.0112 -0.3457
    3CHTO   C87 1020   5.571   0.546   1.975 -0.4493  0.4875 -0.6893
    3CHTO  H159 1021   5.484   0.504   1.924 -0.7753  0.5940 -0.2239
    3CHTO   O53 1022   5.698   0.480   1.931  0.5022  0.5710  0.4403
    3CHTO   C82 1023   5.727   0.344   1.960  0.0535  0.1940  0.7171
    3CHTO  H154 1024   5.667   0.272   1.905 -1.1435  1.1747  0.7106
    3CHTO   C89 1025   5.866   0.331   1.918  0.3815  0.4440  0.0691
    3CHTO   O59 1026   5.882   0.327   1.782  0.3348  0.1846  0.5119
    3CHTO  H137 1027   5.971   0.347   1.759  0.2104  0.7915  0.5712
    3CHTO   O45 1028   5.580   0.715   1.933  0.0104 -0.4789  0.1702
    3CHTO   C67 1029   5.715   0.765   1.945 -0.4276  0.7737  1.0431
    3CHTO  H124 1030   5.778   0.687   1.988  0.2653  0.4940 -0.4484
    3CHTO   C65 1031   5.772   0.782   1.799  0.6554  0.3997  0.4672
    3CHTO  H122 1032   5.686   0.820   1.742 -0.0948 -0.7002  0.8537
    3CHTO   O44 1033   5.808   0.651   1.750 -0.2225  0.0461 -0.1378
    3CHTO  H102 1034   5.884   0.636   1.697  0.7947  0.5853  1.1661
    3CHTO   C63 1035   5.883   0.890   1.790  0.9897  0.2621 -0.2071
    3CHTO  H120 1036   5.829   0.984   1.786  1.5901  0.8680  3.5819
    3CHTO   N11 1037   5.966   0.891   1.664  0.0534  0.0801 -0.0235
    3CHTO  H108 1038   5.995   0.793   1.633  1.4803 -0.7034  3.5441
    3CHTO  H109 1039   5.931   0.952   1.584 -1.4958 -0.4286  0.2602
    3CHTO   C61 1040   5.965   0.882   1.923  0.2169 -0.5217  0.9309
    3CHTO  H118 1041   6.033   0.967   1.910 -0.0410 -0.2472  1.3845
    3CHTO   O40 1042   5.881   0.903   2.039  0.1331 -0.0235  0.2125
    3CHTO   C68 1043   5.736   0.890   2.028  0.0989  0.6013 -0.5058
    3CHTO  H125 1044   5.682   0.973   1.979  1.2874  0.5469 -1.9493
    3CHTO   C72 1045   5.681   0.881   2.177  0.4620 -0.0841  0.4172
    3CHTO   O48 1046   5.538   0.908   2.180  0.1483  0.2532  0.0078
    3CHTO  H105 1047   5.510   0.878   2.264  0.5752  0.6754  0.3066
    3CHTO   O38 1048   6.040   0.761   1.938 -0.5299 -0.4354  0.6748
    3CHTO   C55 1049   6.149   0.772   2.031  0.0214 -0.1225 -0.2355
    3CHTO  H112 1050   6.122   0.832   2.119 -0.3149 -2.7709  1.5152
    3CHTO   C56 1051   6.278   0.828   1.958 -0.3121  0.1060 -0.6527
    3CHTO  H113 1052   6.287   0.768   1.866 -1.3266 -1.6613  0.3630
    3CHTO   O42 1053   6.260   0.966   1.928 -0.4126  0.0319  0.2214
    3CHTO  H100 1054   6.249   0.976   1.835  2.5125  2.1880  0.0465
    3CHTO   C57 1055   6.408   0.815   2.042 -0.4296 -0.3696  0.2729
    3CHTO  H114 1056   6.393   0.884   2.126  1.9747 -2.3848  2.4099
    3CHTO   N10 1057   6.541   0.855   1.982  0.6026  0.4092 -0.2382
    3CHTO  H106 1058   6.605   0.892   2.061 -0.5487 -0.3338  1.0675
    3CHTO  H107 1059   6.525   0.934   1.911  3.7243  0.5539 -0.8555
    3CHTO   C58 1060   6.419   0.669   2.099 -0.3529  0.4409  0.3960
    3CHTO  H115 1061   6.430   0.599   2.014  2.2096  0.9284  0.2974
    3CHTO   O37 1062   6.303   0.630   2.164  0.3663 -0.3721  0.5166
    3CHTO   C59 1063   6.183   0.628   2.073 -0.3907 -0.3073  0.4375
    3CHTO  H116 1064   6.201   0.561   1.990 -0.6448  0.8781 -0.5784
    3CHTO   C70 1065   6.064   0.575   2.156 -0.0913 -0.3427  0.7289
    3CHTO   O46 1066   6.062   0.435   2.186  0.2339  0.4444  0.3545
    3CHTO  H103 1067   6.143   0.390   2.168 -0.9269 -1.9589  0.9925
    3CHTO   O39 1068   6.548   0.630   2.209 -0.6954  0.1688 -0.3170
    3CHTO   C60 1069   6.647   0.536   2.174 -0.6885 -0.4971  0.1193
    3CHTO  H117 1070   6.614   0.479   2.087 -1.8854  0.2276  0.0890
    3CHTO   C62 1071   6.782   0.613   2.133 -0.3567  0.5452 -0.3562
    3CHTO  H119 1072   6.758   0.671   2.040 -0.2536  0.5197 -0.3981
    3CHTO   O43 1073   6.812   0.708   2.234 -0.2122  0.6450 -0.1352
    3CHTO  H101 1074   6.885   0.762   2.211  0.1421 -1.1538 -3.4406
    3CHTO   C66 1075   6.894   0.505   2.100 -0.6526  0.0823 -0.2657
    3CHTO  H123 1076   6.864   0.437   2.020  0.7246 -0.6776 -0.1501
    3CHTO   N12 1077   7.031   0.559   2.058  0.3847  0.6944  0.0586
    3CHTO  H110 1078   7.034   0.622   1.970  1.2880  3.5551  2.0712
    3CHTO  H111 1079   7.073   0.612   2.142  0.1085  0.3732  0.3990
    3CHTO   C69 1080   6.912   0.421   2.226  0.8011  0.0365  0.8523
    3CHTO  H126 1081   6.934   0.488   2.311 -0.4759  2.5095 -0.7049
    3CHTO   O41 1082   6.768   0.338   2.249 -0.0310 -0.1499 -0.4270
    3CHTO   C64 1083   6.658   0.435   2.289 -0.1733 -0.0199  0.4684
    3CHTO  H121 1084   6.675   0.495   2.381  2.2177 -0.2452  0.2091
    3CHTO   C71 1085   6.528   0.354   2.306 -0.0466 -0.5531 -0.1287
    3CHTO   O47 1086   6.528   0.302   2.436  0.2396 -0.3820 -0.4895
    3CHTO  H104 1087   6.494   0.215   2.432 -2.0929  0.3720  1.5093
    3CHTO   O34 1088   7.032   0.288   2.205 -0.1290 -0.3820  0.5711
    3CHTO   C49 1089   7.083   0.201   2.101 -0.3726 -0.7919  0.3922
    3CHTO   H91 1090   7.146   0.261   2.036  0.2241 -2.0775 -0.2261
    3CHTO   C47 1091   6.962   0.140   2.022 -0.2542 -0.4113  0.2484
    3CHTO   H89 1092   6.929   0.216   1.948  2.8428 -0.9037 -1.7300
    3CHTO   O33 1093   6.850   0.106   2.102  0.0766  0.0691  0.4446
    3CHTO   H70 1094   6.771   0.106   2.052 -1.0065  1.0245  2.1135
    3CHTO   C45 1095   7.011   0.003   1.941 -0.6038 -0.3297 -0.1289
    3CHTO   H87 1096   6.985  -0.088   1.998 -1.1009  0.3563  0.7375
    3CHTO    N8 1097   6.947  -0.008   1.807 -0.7560  0.5236  0.3323
    3CHTO   H75 1098   7.009  -0.076   1.751  0.1620  1.0867  0.6591
    3CHTO   H76 1099   6.843  -0.038   1.805 -0.6708  0.2934 -2.4318
    3CHTO   C43 1100   7.165  -0.015   1.935 -0.0401 -0.0570 -0.4622
    3CHTO   H85 1101   7.196  -0.106   1.883  0.9287 -0.9092  1.5731
    3CHTO   O29 1102   7.226  -0.009   2.065 -0.3560 -0.0681  0.5243
    3CHTO   C50 1103   7.163   0.080   2.154 -0.3092  0.4901 -0.3094
    3CHTO   H92 1104   7.093   0.021   2.214  0.0131  0.2475 -0.1692
    3CHTO   C54 1105   7.277   0.137   2.237  0.3002 -0.0527 -0.0795
    3CHTO   O36 1106   7.364   0.218   2.158  0.0039  0.0972 -0.0619
    3CHTO   H72 1107   7.332   0.306   2.159 -0.0165  0.0869  0.4227
    3CHTO   O27 1108   7.217   0.090   1.852 -0.7929  0.3120 -0.5756
    3CHTO   C37 1109   7.338   0.162   1.846  0.2925  0.3988 -0.3686
    3CHTO   H79 1110   7.356   0.210   1.943 -1.4367  1.5771 -0.6081
    3CHTO   C38 1111   7.464   0.075   1.811  0.7642 -0.7730  0.7429
    3CHTO   H80 1112   7.445   0.024   1.716 -0.3162  0.5639  0.2251
    3CHTO   O31 1113   7.481  -0.018   1.922  0.8654 -0.4663  0.1380
    3CHTO   H68 1114   7.526  -0.095   1.892  0.7497 -0.0819 -1.0389
    3CHTO   C39 1115   7.593   0.171   1.806 -0.0618  0.4587 -0.9402
    3CHTO   H81 1116   7.600   0.230   1.898 -3.9534  0.6652 -0.6833
    3CHTO    N7 1117   7.722   0.095   1.777  0.1837  0.4310 -0.4090
    3CHTO   H73 1118   7.803   0.118   1.845  0.5239 -1.8559 -0.0044
    3CHTO   H74 1119   7.696  -0.010   1.783  1.2282  0.2363  0.8748
    3CHTO   C40 1120   7.559   0.274   1.693 -0.1203 -0.3820 -0.1367
    3CHTO   H82 1121   7.540   0.223   1.598  0.6201 -1.0343  0.0631
    3CHTO   O26 1122   7.448   0.352   1.736  0.2090  0.3250  0.4651
    3CHTO   C41 1123   7.324   0.275   1.740  0.3712  1.0831  0.2323
    3CHTO   H83 1124   7.306   0.232   1.641 -0.2186  3.5070 -0.7358
    3CHTO   C52 1125   7.212   0.368   1.780 -0.3369 -0.6374  0.3734
    3CHTO   O35 1126   7.173   0.451   1.691  0.2144 -0.3030  0.4082
    3CHTO   H71 1127   7.236   0.513   1.659  0.5479 -1.3649 -1.0595
    3CHTO   O28 1128   7.662   0.378   1.678  0.0491 -0.3303 -0.1364
    3CHTO   C42 1129   7.644   0.486   1.575 -0.8373  0.4719 -0.5074
    3CHTO   H84 1130   7.744   0.520   1.549 -1.6513  3.2771 -0.1432
    3CHTO   C44 1131   7.574   0.616   1.646  0.0566 -0.0002 -0.2169
    3CHTO   H86 1132   7.502   0.581   1.719  1.3440 -1.2968  0.4751
    3CHTO   O32 1133   7.679   0.682   1.726  0.0276 -0.4512 -0.0034
    3CHTO   H69 1134   7.716   0.617   1.782  1.6418 -0.0476 -0.5728
    3CHTO   C48 1135   7.506   0.720   1.538 -0.1584  0.3992 -0.2236
    3CHTO   H90 1136   7.571   0.787   1.482 -0.3012  1.4113  0.8099
    3CHTO    N9 1137   7.402   0.807   1.603 -0.3305  0.2935  0.2074
    3CHTO   H77 1138   7.323   0.763   1.663  1.2806 -0.5202  1.7898
    3CHTO   H78 1139   7.371   0.891   1.543  1.2349 -0.5124 -1.7600
    3CHTO   C51 1140   7.438   0.639   1.417 -0.7388 -0.2122 -1.0421
    3CHTO   H93 1141   7.358   0.579   1.459 -0.0466 -0.6037 -0.2695
    3CHTO   O30 1142   7.548   0.561   1.363 -0.1798 -0.0458 -0.4071
    3CHTO   C46 1143   7.571   0.450   1.436 -0.4267 -0.7621 -0.4758
    3CHTO   H88 1144   7.477   0.400   1.461 -0.6790  1.1090  2.5569
    3CHTO   C53 1145   7.657   0.362   1.340 -0.2569 -0.2314 -0.0761
    3CHTO   O72 1146   7.674   0.230   1.393  0.9395 -0.3412 -0.0183
    3CHTO  H199 1147   7.740   0.189   1.340  0.8143  0.7485 -1.0297
    3CHTO   O22 1148   7.387   0.716   1.306 -0.0469  0.3225 -0.0653
    3CHTO   C31 1149   7.277   0.670   1.214 -0.2256  0.5529  0.6752
    3CHTO   H59 1150   7.292   0.561   1.203 -1.3982  0.5192 -0.7752
    3CHTO   C29 1151   7.137   0.690   1.278 -0.2502  0.6031 -0.3766
    3CHTO   H57 1152   7.126   0.795   1.309  1.2229  0.5959  0.1854
    3CHTO   O21 1153   7.133   0.606   1.395 -0.4627 -0.6628 -0.3037
    3CHTO   H37 1154   7.129   0.656   1.474  1.5586 -1.0515  0.0654
    3CHTO   C27 1155   7.017   0.667   1.187 -0.0351 -0.0802 -0.0463
    3CHTO   H55 1156   7.017   0.558   1.170 -0.2926 -0.3736  1.7570
    3CHTO    N5 1157   6.881   0.694   1.244  0.1395  0.3263  0.4492
    3CHTO   H43 1158   6.870   0.653   1.344 -1.5735 -0.0099  0.1472
    3CHTO   H44 1159   6.802   0.658   1.179  1.4251 -0.2143 -0.8424
    3CHTO   C25 1160   7.039   0.752   1.057  0.6026 -0.0507 -0.2168
    3CHTO   H53 1161   7.051   0.858   1.086  1.0921 -0.5427  1.4206
    3CHTO   O17 1162   7.163   0.711   0.988  0.0079 -0.2063 -0.0402
    3CHTO   C32 1163   7.285   0.728   1.066  0.0317  0.1703  0.0171
    3CHTO   H60 1164   7.295   0.836   1.075 -3.0697  0.4769  0.4362
    3CHTO   C36 1165   7.401   0.670   0.977  0.5316  0.1743 -0.2992
    3CHTO   O25 1166   7.385   0.535   0.932  0.3409 -0.7503  0.2582
    3CHTO   H40 1167   7.399   0.528   0.840  0.9061 -1.6394  0.4093
    3CHTO   O15 1168   6.915   0.744   0.958 -0.1083  0.3274 -0.1538
    3CHTO   C19 1169   6.859   0.807   0.842 -0.3734  0.4851 -0.4599
    3CHTO   H47 1170   6.839   0.724   0.772 -0.0070 -1.2849  1.4998
    3CHTO   C20 1171   6.731   0.891   0.860 -0.8984  0.7525 -0.2405
    3CHTO   H48 1172   6.742   0.964   0.942 -1.2477 -1.0387  1.4173
    3CHTO   O19 1173   6.631   0.791   0.893 -0.6474 -0.2728 -0.4384
    3CHTO   H35 1174   6.550   0.830   0.918  1.1074  1.7494  2.4393
    3CHTO   C21 1175   6.683   0.956   0.723  0.2731  0.2761  0.0468
    3CHTO   H49 1176   6.668   0.877   0.649  0.8863 -2.8786  3.1678
    3CHTO    N4 1177   6.558   1.030   0.745  0.3962 -0.6217 -0.3676
    3CHTO   H41 1178   6.517   1.071   0.653  2.8114 -0.2895 -1.3234
    3CHTO   H42 1179   6.477   0.973   0.789  0.9294 -1.3053 -0.2742
    3CHTO   C22 1180   6.797   1.039   0.678 -0.3224  0.4418  0.2958
    3CHTO   H50 1181   6.813   1.110   0.759 -2.1452  0.4363  0.6897
    3CHTO   O14 1182   6.902   0.953   0.649  0.0145  0.4736  0.0305
    3CHTO   C23 1183   6.964   0.896   0.770  0.3504 -0.4678  1.5582
    3CHTO   H51 1184   6.981   0.989   0.826 -4.1554  2.4362 -1.6614
    3CHTO   C34 1185   7.077   0.820   0.717 -0.3674  0.6487  0.6909
    3CHTO   O23 1186   7.177   0.905   0.655 -0.0490  0.4786  0.6665
    3CHTO   H38 1187   7.150   0.974   0.598 -0.1775 -0.4257 -0.3856
    3CHTO   O16 1188   6.775   1.112   0.552  0.3916 -0.2288  0.4692
    3CHTO   C24 1189   6.859   1.257   0.556  0.7951 -0.9989 -0.0251
    3CHTO   H52 1190   6.926   1.261   0.642  0.9195 -1.5390 -0.0939
    3CHTO   C26 1191   6.764   1.378   0.550 -0.7690  0.5127 -0.1827
    3CHTO   H54 1192   6.679   1.363   0.480 -1.9941  1.2546  1.0975
    3CHTO   O20 1193   6.689   1.375   0.675 -0.0904 -0.1985  0.0137
    3CHTO   H36 1194   6.739   1.415   0.743 -0.6382  0.5614 -0.0237
    3CHTO   C30 1195   6.845   1.511   0.523 -0.3549  0.3561  1.0055
    3CHTO   H58 1196   6.920   1.537   0.599  1.6571 -1.9301 -0.1060
    3CHTO    N6 1197   6.747   1.624   0.508 -0.0582  0.1453 -0.0341
    3CHTO   H45 1198   6.728   1.677   0.600 -1.9234 -0.3442 -0.1347
    3CHTO   H46 1199   6.789   1.697   0.439  1.7567  1.1357  2.0694
    3CHTO   C33 1200   6.918   1.491   0.387 -0.8961  0.0365 -0.5319
    3CHTO   H61 1201   6.848   1.459   0.308 -0.5625 -0.2353 -0.7170
    3CHTO   O18 1202   7.013   1.384   0.405  0.6684  0.0938  0.2201
    3CHTO   C28 1203   6.950   1.256   0.428  0.1097 -0.6304  0.5058
    3CHTO   H56 1204   6.886   1.236   0.342 -1.0778  0.8116  1.0254
    3CHTO   C35 1205   7.067   1.158   0.431  0.5484 -0.5632  0.1548
    3CHTO   O24 1206   7.159   1.179   0.326 -0.4896  0.1758  0.2399
    3CHTO   H39 1207   7.205   1.258   0.347 -0.9821  0.3592  0.6565
    3CHTO    O9 1208   6.980   1.607   0.338 -0.8450  0.5455 -0.2813
    3CHTO   C13 1209   7.123   1.634   0.428 -0.8000  0.2441  0.2013
    3CHTO   H26 1210   7.111   1.595   0.531  1.1654 -1.0449 -0.0318
    3CHTO   C11 1211   7.149   1.791   0.426 -0.3816  0.5875 -0.3370
    3CHTO   H24 1212   7.064   1.837   0.479 -1.4155 -2.2619  0.5354
    3CHTO    O8 1213   7.152   1.846   0.295 -0.1739  0.0936 -0.3492
    3CHTO    H3 1214   7.227   1.833   0.240 -0.4405 -0.9641 -0.4794
    3CHTO    C9 1215   7.279   1.821   0.502 -0.5305 -0.1470 -0.5982
    3CHTO   H22 1216   7.262   1.782   0.603  1.0714  3.2688  1.0570
    3CHTO    N2 1217   7.305   1.964   0.529  0.3702  0.5080  0.5882
    3CHTO   H10 1218   7.388   1.987   0.594  0.6841  2.8104 -0.5774
    3CHTO   H11 1219   7.323   2.008   0.432  2.1838 -1.2990  0.0615
    3CHTO    C7 1220   7.399   1.747   0.427 -0.2372 -0.0086  0.2894
    3CHTO   H20 1221   7.477   1.767   0.504  0.6067  1.4799 -0.9129
    3CHTO    O4 1222   7.374   1.607   0.412  0.6648  0.6654 -0.2895
    3CHTO   C14 1223   7.250   1.552   0.367  0.8532 -0.4418 -0.3235
    3CHTO   H27 1224   7.253   1.453   0.417  0.5372 -0.8299 -1.0522
    3CHTO   C18 1225   7.246   1.525   0.217 -0.8327 -0.6069  0.0093
    3CHTO   O13 1226   7.362   1.449   0.183 -0.5878 -0.1463 -0.7731
    3CHTO    H7 1227   7.374   1.370   0.231 -0.1782  0.1724 -0.3420
    3CHTO    O2 1228   7.436   1.810   0.285  0.0300  0.2878 -0.0145
    3CHTO    C1 1229   7.561   1.758   0.227 -0.1347  0.8940 -0.7665
    3CHTO   H14 1230   7.563   1.648   0.233 -3.8730  0.7337 -1.4334
    3CHTO    C2 1231   7.695   1.815   0.286  0.4729 -0.1853  0.0084
    3CHTO   H15 1232   7.694   1.917   0.245 -0.1487 -1.2866 -2.8535
    3CHTO    O6 1233   7.694   1.811   0.428 -0.7728  0.1701  0.7939
    3CHTO    H1 1234   7.777   1.846   0.455 -1.6704  1.6201  1.7142
    3CHTO    C3 1235   7.814   1.724   0.223 -0.4494  0.2262 -0.2119
    3CHTO   H16 1236   7.797   1.620   0.253  0.4786  0.6249  1.8198
    3CHTO    N1 1237   7.951   1.768   0.268 -0.4001 -0.0217 -0.1391
    3CHTO    H8 1238   8.033   1.715   0.222  2.0740  3.5792 -0.0577
    3CHTO    H9 1239   7.961   1.769   0.376  2.4641  2.1545 -0.3832
    3CHTO    C4 1240   7.811   1.736   0.062 -0.0163  0.8083  0.4085
    3CHTO   H17 1241   7.861   1.827   0.029 -0.5867  1.5127  1.4697
    3CHTO    O1 1242   7.677   1.727   0.012 -0.1375 -0.1789  0.0365
    3CHTO    C5 1243   7.560   1.781   0.073  0.3962  0.0663  0.4576
    3CHTO   H18 1244   7.563   1.890   0.066 -0.7809  0.0796  0.0351
    3CHTO   C16 1245   7.438   1.725  -0.006 -0.8055  0.0746  0.0543
    3CHTO   O11 1246   7.301   1.764   0.007  0.2613 -0.2642  0.3237
    3CHTO    H5 1247   7.283   1.819  -0.066 -0.2900 -0.0146  0.6472
    3CHTO    O3 1248   7.879   1.621  -0.000  0.0592  0.3377  0.3482
    3CHTO    C6 1249   7.912   1.634  -0.143 -0.5218  0.4601 -0.5963
    3CHTO   H19 1250   7.865   1.716  -0.197 -1.0862  0.5328  0.0050
    3CHTO    C8 1251   8.067   1.641  -0.160 -0.1339  0.2125 -0.6120
    3CHTO   H21 1252   8.112   1.556  -0.110 -1.1574  0.8498  1.4829
    3CHTO    O7 1253   8.119   1.756  -0.090  0.5053  0.2811 -0.1433
    3CHTO    H2 1254   8.156   1.817  -0.151 -2.0638  1.9384 -0.1224
    3CHTO   C12 1255   8.108   1.643  -0.311 -0.3623  0.0014 -0.1989
    3CHTO   H25 1256   8.061   1.737  -0.345 -1.1324 -0.6710 -1.0306
    3CHTO    N3 1257   8.253   1.645  -0.332 -0.3234 -0.4243  0.3129
    3CHTO   H12 1258   8.320   1.603  -0.259  0.4559 -0.4879 -0.4363
    3CHTO   H13 1259   8.287   1.741  -0.369  2.0083 -1.8910 -1.4880
    3CHTO   C15 1260   8.042   1.520  -0.382 -0.6231  0.0492 -0.5408
    3CHTO   H28 1261   8.085   1.424  -0.354 -0.3728 -0.1336 -1.5423
    3CHTO   O10 1262   8.067   1.540  -0.547  0.4100 -0.4730  0.2445
    3CHTO    H4 1263   7.995   1.581  -0.591  0.6479 -0.1340  0.1747
    3CHTO    O5 1264   7.898   1.517  -0.360 -0.3166  0.3842  0.4040
    3CHTO   C10 1265   7.872   1.505  -0.218 -0.0981 -0.1671 -0.9486
    3CHTO   H23 1266   7.931   1.420  -0.185 -0.9095 -0.3169  0.1261
    3CHTO   C17 1267   7.726   1.468  -0.196 -0.4782 -0.2643  0.2941
    3CHTO   O12 1268   7.687   1.405  -0.072  0.1230  0.4387 -0.0070
    3CHTO    H6 1269   7.711   1.464  -0.004 -2.3203  1.5135 -0.0578
    4CHTO  H203 1270   6.601   7.150   2.300 -0.3298  2.2069  2.4324
    4CHTO   O82 1271   6.690   7.179   2.299  0.2977  0.3220  0.4896
    4CHTO  C123 1272   6.692   7.313   2.342 -0.0481 -0.3614 -0.4658
    4CHTO  H227 1273   6.635   7.317   2.436 -1.4270 -0.6476 -1.2619
    4CHTO   O77 1274   6.832   7.334   2.356  0.1880  0.1629  0.0319
    4CHTO  C118 1275   6.859   7.462   2.415  0.2420  0.4276 -0.0114
    4CHTO  H222 1276   6.814   7.475   2.514  0.2609 -0.0823  0.0684
    4CHTO  C125 1277   7.014   7.484   2.432  0.4830 -0.0651  0.0131
    4CHTO   O84 1278   7.075   7.392   2.525 -0.3568  0.4650 -0.7150
    4CHTO  H205 1279   7.023   7.370   2.600 -1.3301  2.0618 -0.9034
    4CHTO  C114 1280   6.792   7.579   2.336  0.7064  0.0372 -0.2326
    4CHTO  H218 1281   6.842   7.586   2.239  0.2843  0.3471 -0.4297
    4CHTO  C116 1282   6.645   7.558   2.297  1.1107 -0.1189 -0.3038
    4CHTO  H220 1283   6.569   7.571   2.377 -0.1647 -0.3562 -1.4627
    4CHTO   O79 1284   6.609   7.655   2.194  0.1275 -0.1432 -0.3010
    4CHTO  H201 1285   6.526   7.634   2.154  1.9163 -2.6642 -2.9229
    4CHTO  C120 1286   6.632   7.415   2.238  0.2249  0.3342 -0.4171
    4CHTO  H224 1287   6.693   7.408   2.146  0.6259 -1.9076 -0.0146
    4CHTO   N21 1288   6.495   7.373   2.199  0.0100  0.3272  0.2465
    4CHTO  H211 1289   6.487   7.397   2.094  0.8514 -1.7969 -0.3239
    4CHTO  H212 1290   6.424   7.427   2.259  0.8591  0.4695  1.1368
    4CHTO   O75 1291   6.819   7.698   2.412 -0.3020 -0.3148  0.2381
    4CHTO  C112 1292   6.839   7.839   2.343  0.8087 -0.1560  0.3685
    4CHTO  H216 1293   6.790   7.825   2.246  0.8224  0.6277  0.2523
    4CHTO   O73 1294   6.982   7.853   2.328 -0.0221 -0.0521  0.0109
    4CHTO  C113 1295   7.023   7.979   2.268 -0.5054 -0.2088 -0.0085
    4CHTO  H217 1296   6.985   7.988   2.164  0.6741 -1.6444 -0.5946
    4CHTO  C124 1297   7.175   7.983   2.254  0.2615  0.0706 -0.7717
    4CHTO   O83 1298   7.247   7.958   2.379 -0.4394  0.0610  0.1660
    4CHTO  H204 1299   7.237   8.029   2.439 -0.0196  1.8854 -1.8754
    4CHTO  C109 1300   6.972   8.105   2.348 -0.0492 -0.1354 -0.1641
    4CHTO  H213 1301   7.026   8.108   2.444  1.0844  0.4281 -0.8149
    4CHTO  C110 1302   6.811   8.093   2.371  0.1360 -0.1262 -0.0553
    4CHTO  H214 1303   6.757   8.126   2.282 -1.3524  0.4515  1.0408
    4CHTO   O78 1304   6.770   8.177   2.476  0.4539  0.2055  0.5100
    4CHTO  H200 1305   6.811   8.261   2.462  1.6868 -0.6079 -0.9391
    4CHTO  C111 1306   6.768   7.954   2.421 -0.2735  0.3206 -0.1221
    4CHTO  H215 1307   6.796   7.952   2.527 -1.2664 -0.5929  0.1373
    4CHTO   N19 1308   6.624   7.932   2.418  0.4706 -0.3157 -0.6593
    4CHTO  H207 1309   6.575   8.016   2.371  0.7298  0.7658  0.9466
    4CHTO  H208 1310   6.583   7.915   2.517  1.0354  1.3868 -0.1166
    4CHTO   O74 1311   7.009   8.223   2.280 -0.0597  0.3575 -0.7235
    4CHTO  C115 1312   7.003   8.352   2.374 -0.1433 -0.2548 -0.0787
    4CHTO  H219 1313   6.910   8.356   2.430  0.2894  0.5356  0.5886
    4CHTO   O76 1314   7.103   8.349   2.477 -0.0614 -0.2576  0.0721
    4CHTO  C122 1315   7.238   8.386   2.439  1.1250  0.4208 -0.1361
    4CHTO  H226 1316   7.267   8.311   2.365 -1.1034  0.2678 -0.9016
    4CHTO  C126 1317   7.336   8.363   2.562  0.1073 -0.1024 -0.1966
    4CHTO   O85 1318   7.327   8.232   2.618 -0.0580  0.3939  0.0646
    4CHTO  H206 1319   7.256   8.211   2.676  0.0586 -2.7741 -0.8418
    4CHTO  C121 1320   7.249   8.523   2.365 -0.1639  0.3597  0.0438
    4CHTO  H225 1321   7.311   8.597   2.420  2.3122 -0.9474 -0.9083
    4CHTO   O81 1322   7.322   8.509   2.242 -0.5222 -0.1137  0.7843
    4CHTO  H202 1323   7.295   8.573   2.178  3.0415 -0.0504 -0.7537
    4CHTO  C119 1324   7.102   8.582   2.332  0.0698 -0.1222  0.1540
    4CHTO  H223 1325   7.065   8.600   2.433 -0.3054 -0.4676  0.0788
    4CHTO  C117 1326   7.009   8.472   2.270 -0.4330  0.2703  0.4484
    4CHTO  H221 1327   7.049   8.435   2.176 -1.7076  2.5984 -1.0560
    4CHTO   N20 1328   6.866   8.522   2.236 -0.1933  0.3028 -0.0567
    4CHTO  H209 1329   6.833   8.489   2.139 -1.6168  1.0706  0.1460
    4CHTO  H210 1330   6.801   8.486   2.314 -1.4192 -0.5610 -1.4532
    4CHTO   O80 1331   7.105   8.727   2.265 -0.0025 -0.2830 -0.1186
    4CHTO  C103 1332   7.172   8.837   2.338 -0.1060 -0.6349  0.5595
    4CHTO  H190 1333   7.200   8.818   2.442  0.8439 -2.2967  0.0231
    4CHTO  C101 1334   7.290   8.900   2.256 -0.0622  0.2543  0.1865
    4CHTO  H188 1335   7.259   8.918   2.153  1.0266  4.2426  0.4623
    4CHTO   O68 1336   7.404   8.807   2.271  0.3952 -0.7862 -0.1924
    4CHTO  H168 1337   7.483   8.849   2.297 -1.2476  0.7552  2.5689
    4CHTO   C99 1338   7.321   9.053   2.302 -0.2144  0.0168 -0.4778
    4CHTO  H186 1339   7.372   9.047   2.401 -0.7720  0.2653 -0.1667
    4CHTO   N17 1340   7.420   9.113   2.200  0.1008  1.1615  0.6745
    4CHTO  H174 1341   7.374   9.204   2.165 -2.5654 -0.3478  0.1306
    4CHTO  H175 1342   7.437   9.050   2.114 -1.4421  0.6012  0.7632
    4CHTO   C97 1343   7.192   9.132   2.323 -0.0227  0.3985  0.3797
    4CHTO  H184 1344   7.151   9.164   2.226  0.5718 -2.2321 -0.7764
    4CHTO   O64 1345   7.095   9.062   2.403 -0.1341  0.0444  0.1897
    4CHTO  C104 1346   7.048   8.941   2.345  0.1054 -0.4284 -1.0423
    4CHTO  H191 1347   7.004   8.953   2.246  0.3901 -1.1875 -1.2596
    4CHTO  C108 1348   6.936   8.886   2.439 -0.7258 -0.0029  0.5138
    4CHTO   O71 1349   6.840   8.978   2.466 -0.2286 -0.0596 -0.1345
    4CHTO  H171 1350   6.801   8.958   2.550 -0.0500  0.5950  0.1074
    4CHTO   O62 1351   7.205   9.253   2.393  0.1594 -0.2674 -0.7168
    4CHTO   C91 1352   7.187   9.377   2.314  0.0865 -0.2393  0.2914
    4CHTO  H178 1353   7.225   9.355   2.214  0.6377  0.5306  0.3345
    4CHTO   C92 1354   7.285   9.484   2.361  0.5416 -0.5755 -0.1161
    4CHTO  H179 1355   7.252   9.532   2.455 -0.7490  0.1294 -0.9093
    4CHTO   O66 1356   7.414   9.431   2.374 -0.0132 -0.2051 -0.4542
    4CHTO  H166 1357   7.455   9.463   2.452 -0.4690 -1.1658  0.1805
    4CHTO   C93 1358   7.293   9.601   2.254  0.0078 -0.4128  0.1369
    4CHTO  H180 1359   7.349   9.554   2.172 -0.4721 -1.2552  0.2791
    4CHTO   N16 1360   7.379   9.709   2.307  0.0249  0.6709 -1.0764
    4CHTO  H172 1361   7.364   9.806   2.260  1.1772  2.0420  1.2877
    4CHTO  H173 1362   7.482   9.685   2.290  0.8399  1.8494  1.8068
    4CHTO   C94 1363   7.151   9.649   2.201 -0.7133  0.1771 -0.1509
    4CHTO  H181 1364   7.107   9.721   2.269  0.4446 -0.6434  1.5158
    4CHTO   O61 1365   7.061   9.535   2.194  0.3119 -0.0776 -0.3544
    4CHTO   C95 1366   7.051   9.454   2.311  0.5115  0.3550 -0.3536
    4CHTO  H182 1367   7.017   9.511   2.398  0.1027 -0.6276  0.1375
    4CHTO  C106 1368   6.939   9.344   2.299 -0.1448  0.4604 -0.1817
    4CHTO   O69 1369   6.816   9.416   2.275  0.1436  0.2860  0.0448
    4CHTO  H169 1370   6.791   9.427   2.185  0.7710  0.3301 -0.1326
    4CHTO   O63 1371   7.188   9.711   2.045  0.0508 -0.2755 -0.1428
    4CHTO   C96 1372   7.216   9.607   1.933 -0.2565  0.2241 -0.3800
    4CHTO  H183 1373   7.225   9.505   1.971  0.2121  0.7020  0.8036
    4CHTO   C98 1374   7.355   9.635   1.870 -0.4362 -0.2473 -0.7514
    4CHTO  H185 1375   7.367   9.744   1.862  1.6718 -0.4176 -0.2117
    4CHTO   O67 1376   7.454   9.596   1.970  0.1798  0.4583  0.1089
    4CHTO  H167 1377   7.529   9.651   1.962  0.4496  0.1051  0.1609
    4CHTO  C102 1378   7.382   9.566   1.722 -0.6512 -0.7894  0.8326
    4CHTO  H189 1379   7.397   9.458   1.734  2.7284 -0.4486  0.2903
    4CHTO   N18 1380   7.506   9.612   1.655 -0.2051 -0.2456  0.1565
    4CHTO  H176 1381   7.495   9.611   1.548  2.6868 -0.1677 -0.1688
    4CHTO  H177 1382   7.540   9.710   1.687 -0.2192 -1.2487  3.4738
    4CHTO  C105 1383   7.252   9.597   1.640  0.6674  0.2129  0.4968
    4CHTO  H192 1384   7.244   9.703   1.617 -1.6572  0.1714  1.0720
    4CHTO   O65 1385   7.141   9.542   1.714  0.3538 -0.4167  0.1703
    4CHTO  C100 1386   7.103   9.617   1.832 -0.1338  0.3378  1.1240
    4CHTO  H187 1387   7.106   9.722   1.797  0.3228  0.4026  1.3705
    4CHTO  C107 1388   6.967   9.578   1.869 -0.3355  0.3277  0.4683
    4CHTO   O70 1389   6.906   9.657   1.973 -0.1156  0.1461  0.6555
    4CHTO  H170 1390   6.955   9.657   2.053  1.2934 -0.0532 -0.1883
    4CHTO   O57 1391   7.290   9.510   1.494 -0.2567  0.4131 -0.3083
    4CHTO   C85 1392   7.192   9.417   1.448  0.4265  0.0382  0.1058
    4CHTO  H157 1393   7.088   9.450   1.469 -0.8694 -2.3257 -2.2786
    4CHTO   C83 1394   7.195   9.291   1.532  0.1693 -0.2332 -0.2083
    4CHTO  H155 1395   7.173   9.313   1.636 -0.5770 -0.2899 -0.3520
    4CHTO   O56 1396   7.333   9.255   1.536  0.2979  0.1209  0.0024
    4CHTO  H135 1397   7.349   9.165   1.556  2.9718  0.8698  1.5321
    4CHTO   C81 1398   7.093   9.192   1.479  0.1212  0.2020 -0.0083
    4CHTO  H153 1399   6.994   9.235   1.496 -0.1393  0.4806 -2.1395
    4CHTO   N14 1400   7.077   9.072   1.568 -0.0233 -0.6507  0.5754
    4CHTO  H141 1401   6.973   9.057   1.591 -0.0423 -1.2216  0.1091
    4CHTO  H142 1402   7.116   8.979   1.532 -2.1027 -1.0372 -0.8081
    4CHTO   C79 1403   7.112   9.161   1.322  0.8170  0.4491 -0.0157
    4CHTO  H151 1404   7.029   9.097   1.290  1.9777 -0.3669 -1.5031
    4CHTO   O52 1405   7.112   9.284   1.245 -0.1071 -0.4191 -0.0789
    4CHTO   C86 1406   7.212   9.380   1.290 -0.7238  0.1391 -0.3235
    4CHTO  H158 1407   7.310   9.332   1.269 -0.2477  0.9986 -0.0900
    4CHTO   C90 1408   7.202   9.502   1.192 -0.1244 -0.5518 -0.5309
    4CHTO   O60 1409   7.326   9.577   1.201  0.4280 -0.0395  0.5839
    4CHTO  H138 1410   7.331   9.645   1.136 -2.9308  0.9193  1.2074
    4CHTO   O50 1411   7.225   9.078   1.298 -0.6437  0.9293  0.0205
    4CHTO   C73 1412   7.314   8.976   1.339 -0.4023 -0.6780 -0.2131
    4CHTO  H145 1413   7.301   8.954   1.446  0.2421 -1.6200 -0.3188
    4CHTO   C74 1414   7.464   9.025   1.324 -0.5363 -0.6321 -0.4776
    4CHTO  H146 1415   7.472   9.122   1.377 -0.8558 -1.6145  1.4106
    4CHTO   O54 1416   7.549   8.926   1.388  0.3490  0.5885 -0.5317
    4CHTO  H133 1417   7.531   8.936   1.479  2.6647 -0.8228  0.1142
    4CHTO   C75 1418   7.498   9.038   1.165  0.5200 -0.0174  0.5908
    4CHTO  H147 1419   7.426   9.107   1.118  0.7176  0.3633  0.8424
    4CHTO   N13 1420   7.628   9.092   1.133 -0.8619 -0.1696  0.5268
    4CHTO  H139 1421   7.694   9.029   1.076 -0.1827  0.0244  1.0795
    4CHTO  H140 1422   7.674   9.117   1.228 -1.4110  1.0513  0.4800
    4CHTO   C76 1423   7.470   8.893   1.098 -0.4752  0.2669  0.8320
    4CHTO  H148 1424   7.536   8.818   1.140 -1.7936 -1.6469 -0.4394
    4CHTO   O49 1425   7.330   8.854   1.112  0.0208  0.2443  0.1214
    4CHTO   C77 1426   7.292   8.849   1.250 -0.4799  0.0418  0.2731
    4CHTO  H149 1427   7.354   8.765   1.283  1.1687  0.1525 -2.3738
    4CHTO   C88 1428   7.151   8.794   1.264 -0.1739  0.4131  0.3528
    4CHTO   O58 1429   7.109   8.755   1.408 -0.6556  0.1052 -0.5347
    4CHTO  H136 1430   7.173   8.695   1.442 -0.0882  1.3932  0.7088
    4CHTO   O51 1431   7.481   8.896   0.929 -0.2574  0.4060  0.7297
    4CHTO   C78 1432   7.585   8.793   0.871  0.0939 -0.5483 -0.3121
    4CHTO  H150 1433   7.671   8.786   0.941  0.3214  1.9964 -0.3073
    4CHTO   C80 1434   7.638   8.850   0.739 -0.4572  0.5189  0.4471
    4CHTO  H152 1435   7.559   8.870   0.664  2.3953  2.0867 -2.3129
    4CHTO   O55 1436   7.690   8.982   0.769 -0.3999  0.4037 -0.5910
    4CHTO  H134 1437   7.633   9.034   0.822 -0.6121  1.8935 -2.2520
    4CHTO   C84 1438   7.748   8.756   0.677  0.5646  0.0773  0.3643
    4CHTO  H156 1439   7.831   8.742   0.746  2.3915  0.1700 -1.7572
    4CHTO   N15 1440   7.806   8.803   0.546  0.3080 -0.1897  0.4079
    4CHTO  H143 1441   7.877   8.734   0.506  0.0043 -0.1136 -0.2670
    4CHTO  H144 1442   7.850   8.900   0.557 -1.3410  0.4385  1.8310
    4CHTO   C87 1443   7.694   8.612   0.655  0.1288 -0.8615 -0.2185
    4CHTO  H159 1444   7.623   8.603   0.573  0.9512  1.4420 -1.2229
    4CHTO   O53 1445   7.611   8.562   0.799 -0.3288  0.1952  0.0916
    4CHTO   C82 1446   7.517   8.655   0.851 -0.0314 -0.1455  0.4322
    4CHTO  H154 1447   7.438   8.670   0.777  0.5016 -1.2973 -0.3742
    4CHTO   C89 1448   7.448   8.591   0.975 -0.1410  0.3312 -0.1908
    4CHTO   O59 1449   7.365   8.480   0.930  0.0671  0.0244  0.2220
    4CHTO  H137 1450   7.279   8.504   0.900 -0.1939 -1.1225  0.0321
    4CHTO   O45 1451   7.818   8.502   0.647 -0.1762 -0.8087 -0.2367
    4CHTO   C67 1452   7.761   8.369   0.629 -0.1106  0.0753 -0.1160
    4CHTO  H124 1453   7.660   8.350   0.665 -0.4969  1.8218 -0.1973
    4CHTO   C65 1454   7.766   8.330   0.472  0.3039 -0.2389  0.1765
    4CHTO  H122 1455   7.750   8.412   0.403 -2.9707 -1.8347 -1.0568
    4CHTO   O44 1456   7.655   8.240   0.453  0.1672 -0.1119  0.2986
    4CHTO  H102 1457   7.580   8.291   0.477 -2.2987 -4.0265  1.2484
    4CHTO   C63 1458   7.910   8.281   0.432  0.7017 -0.5332  1.0611
    4CHTO  H120 1459   7.977   8.362   0.463  1.0632 -0.3196 -0.2245
    4CHTO   N11 1460   7.952   8.268   0.289  0.5028  0.4080  0.3259
    4CHTO  H108 1461   7.875   8.198   0.264 -0.7521  1.9635 -0.2528
    4CHTO  H109 1462   7.931   8.368   0.258  1.2112  0.3800 -0.2340
    4CHTO   C61 1463   7.946   8.153   0.519  0.0204 -0.2340 -0.3640
    4CHTO  H118 1464   8.056   8.155   0.523 -0.0420  1.7770  0.9311
    4CHTO   O40 1465   7.894   8.154   0.653 -0.0168 -0.3006  0.4182
    4CHTO   C68 1466   7.860   8.286   0.711 -0.7325 -0.2609  0.4855
    4CHTO  H125 1467   7.961   8.330   0.723 -0.9415  0.0859  1.0291
    4CHTO   C72 1468   7.802   8.259   0.854 -0.5208  0.4777  0.2255
    4CHTO   O48 1469   7.693   8.167   0.852 -0.0794  0.1725  0.4477
    4CHTO  H105 1470   7.728   8.086   0.885  0.3504 -1.1579 -3.1321
    4CHTO   O38 1471   7.884   8.032   0.473  0.2548 -0.3323 -0.4700
    4CHTO   C55 1472   7.974   7.923   0.469 -0.2899  0.2968  0.5450
    4CHTO  H112 1473   8.068   7.945   0.520  0.6870  0.2092 -1.1578
    4CHTO   C56 1474   8.002   7.881   0.313  0.4904  0.3006 -0.0469
    4CHTO  H113 1475   7.904   7.869   0.265  0.9257 -0.4621 -0.7758
    4CHTO   O42 1476   8.074   7.980   0.235 -0.2769 -0.0500 -0.0461
    4CHTO  H100 1477   8.025   8.060   0.235  0.8794  0.6712  0.1005
    4CHTO   C57 1478   8.076   7.745   0.301  0.5921 -0.6441 -0.8080
    4CHTO  H114 1479   8.181   7.769   0.322  0.2560 -0.5463  0.8387
    4CHTO   N10 1480   8.080   7.691   0.165 -0.6906  0.2290  0.4992
    4CHTO  H106 1481   8.176   7.715   0.121 -0.9837  0.1441 -0.2050
    4CHTO  H107 1482   8.068   7.584   0.173  1.6664 -0.0118  1.1426
    4CHTO   C58 1483   8.019   7.640   0.406  0.0847  0.5637 -0.5533
    4CHTO  H115 1484   7.929   7.592   0.361  1.5178 -2.8527  0.0814
    4CHTO   O37 1485   7.983   7.690   0.537  0.2501 -0.1901 -0.1233
    4CHTO   C59 1486   7.905   7.805   0.545 -0.4075  0.2357  0.4476
    4CHTO  H116 1487   7.811   7.787   0.494 -2.4175  1.3037  3.6073
    4CHTO   C70 1488   7.884   7.832   0.695  0.7270 -0.6952 -0.4044
    4CHTO   O46 1489   8.001   7.847   0.770 -0.0627  0.1941 -1.0334
    4CHTO  H103 1490   7.974   7.839   0.859  1.5246 -0.0215 -0.5502
    4CHTO   O39 1491   8.143   7.529   0.440  0.4403  0.2898 -0.2465
    4CHTO   C60 1492   8.102   7.395   0.475 -0.2906  0.4308  0.3889
    4CHTO  H117 1493   8.019   7.400   0.544 -0.1514 -3.6885  0.9599
    4CHTO   C62 1494   8.056   7.297   0.359 -0.1936  0.1180  0.4302
    4CHTO  H119 1495   7.968   7.343   0.310 -0.8017  0.2885  1.6859
    4CHTO   O43 1496   8.162   7.298   0.267  0.1689 -0.3237  0.1748
    4CHTO  H101 1497   8.130   7.349   0.195 -3.3969  0.4627  2.2255
    4CHTO   C66 1498   8.029   7.149   0.424  0.4913 -0.7091 -0.0295
    4CHTO  H123 1499   7.949   7.155   0.498  0.4163 -2.5017  0.0469
    4CHTO   N12 1500   7.971   7.053   0.325 -0.0244 -0.8073 -0.1235
    4CHTO  H110 1501   8.042   7.029   0.246  0.1130  0.4962 -0.4136
    4CHTO  H111 1502   7.890   7.106   0.277  2.1689  1.2988 -1.6259
    4CHTO   C69 1503   8.162   7.096   0.490  0.6085 -0.2897 -0.0462
    4CHTO  H126 1504   8.235   7.088   0.406 -0.5942 -0.4319 -1.0992
    4CHTO   O41 1505   8.205   7.194   0.602 -0.3314  0.4846 -0.9263
    4CHTO   C64 1506   8.224   7.342   0.552  0.3975 -0.5992  0.4010
    4CHTO  H121 1507   8.316   7.363   0.494 -1.1918 -0.3542 -2.0938
    4CHTO   C71 1508   8.251   7.420   0.682  0.1408  0.1882  0.3098
    4CHTO   O47 1509   8.276   7.558   0.681 -0.0125  0.2184  0.0684
    4CHTO  H104 1510   8.326   7.592   0.609 -0.6697 -0.0472 -0.5165
    4CHTO   O34 1511   8.137   6.943   0.555 -0.6697 -0.1241  0.5542
    4CHTO   C49 1512   8.068   6.791   0.553 -0.3045  0.1223  0.4470
    4CHTO   H91 1513   8.092   6.752   0.454  0.6524  0.7148  0.4333
    4CHTO   C47 1514   7.914   6.795   0.573 -0.3882 -0.4366  1.1588
    4CHTO   H89 1515   7.869   6.812   0.473  1.8080 -2.7047 -0.2971
    4CHTO   O33 1516   7.880   6.907   0.656  0.2325  0.2947 -0.5880
    4CHTO   H70 1517   7.789   6.932   0.651  0.0135 -0.3897 -0.1065
    4CHTO   C45 1518   7.851   6.660   0.642 -0.4497 -0.3040 -0.1444
    4CHTO   H87 1519   7.859   6.667   0.751  0.0753 -0.6994 -0.1517
    4CHTO    N8 1520   7.703   6.649   0.607 -0.3161  0.0000 -0.6100
    4CHTO   H75 1521   7.686   6.670   0.503 -2.6166  0.8452 -0.0819
    4CHTO   H76 1522   7.676   6.547   0.634 -3.0144  1.2771  1.8226
    4CHTO   C43 1523   7.946   6.539   0.603  0.1887 -0.1620 -0.2216
    4CHTO   H85 1524   7.904   6.447   0.644  1.3876  0.2973  2.0960
    4CHTO   O29 1525   8.076   6.561   0.657 -0.4333  0.5614 -0.2551
    4CHTO   C50 1526   8.132   6.697   0.658 -0.1461  0.4721  0.0816
    4CHTO   H92 1527   8.122   6.734   0.761  1.9564 -1.0893  0.8894
    4CHTO   C54 1528   8.290   6.689   0.635 -0.0335  0.4701  0.3630
    4CHTO   O36 1529   8.358   6.607   0.733  0.1927  0.1664 -0.4527
    4CHTO   H72 1530   8.304   6.606   0.810  1.1232 -0.5148  0.1970
    4CHTO   O27 1531   7.947   6.509   0.464 -0.1015  0.1167 -0.1452
    4CHTO   C37 1532   8.008   6.407   0.381  0.5879 -0.6657  0.0853
    4CHTO   H79 1533   8.005   6.432   0.274 -2.1740  0.5800  0.4117
    4CHTO   C38 1534   8.155   6.382   0.410 -0.0244  0.0255 -0.5025
    4CHTO   H80 1535   8.162   6.343   0.512 -4.4375  0.6871  0.1623
    4CHTO   O31 1536   8.225   6.508   0.398 -0.0821 -0.6190  0.4384
    4CHTO   H68 1537   8.189   6.568   0.461 -0.4719  0.4896 -0.8047
    4CHTO   C39 1538   8.214   6.277   0.307 -0.7918 -0.4004  0.4153
    4CHTO   H81 1539   8.193   6.317   0.207  2.8041 -1.0123 -0.6501
    4CHTO    N7 1540   8.368   6.260   0.330 -0.0814  0.2403  0.0162
    4CHTO   H73 1541   8.418   6.264   0.234 -1.7150 -0.3133 -0.8807
    4CHTO   H74 1542   8.404   6.349   0.379 -1.4239  1.2655 -0.8207
    4CHTO   C40 1543   8.131   6.145   0.328 -0.4599 -0.0693  0.0711
    4CHTO   H82 1544   8.156   6.102   0.425 -1.0986 -2.8139 -0.9521
    4CHTO   O26 1545   7.994   6.164   0.321  0.0901  0.6316  0.0234
    4CHTO   C41 1546   7.938   6.274   0.399 -0.5268 -0.7892  0.2241
    4CHTO   H83 1547   7.948   6.246   0.505 -0.1622 -0.4700  0.2784
    4CHTO   C52 1548   7.789   6.292   0.355 -0.3645 -0.0854  0.6387
    4CHTO   O35 1549   7.719   6.162   0.372 -0.0312  0.2052 -0.5237
    4CHTO   H71 1550   7.722   6.142   0.464  1.6818  0.3890 -0.5245
    4CHTO   O28 1551   8.154   6.045   0.227  0.0128 -0.2525 -0.2751
    4CHTO   C42 1552   8.140   5.904   0.261  0.2514 -0.3706  0.1962
    4CHTO   H84 1553   8.146   5.855   0.164  2.8668 -0.7277  0.4944
    4CHTO   C44 1554   7.998   5.868   0.320  0.0986 -0.1264 -0.0152
    4CHTO   H86 1555   7.979   5.928   0.409 -1.6309 -1.4598  0.5669
    4CHTO   O32 1556   7.893   5.912   0.230 -0.3002 -0.0244  0.4866
    4CHTO   H69 1557   7.934   5.960   0.160 -0.1504 -0.4403  0.2935
    4CHTO   C48 1558   7.975   5.721   0.364 -0.4283 -0.0952 -0.0876
    4CHTO   H90 1559   7.987   5.659   0.275  2.3969  0.7300 -0.3332
    4CHTO    N9 1560   7.847   5.678   0.433  0.0384 -0.3542  0.2032
    4CHTO   H77 1561   7.825   5.572   0.423  1.3029 -0.7855  1.7316
    4CHTO   H78 1562   7.819   5.719   0.529 -2.7338  0.9769 -1.1284
    4CHTO   C51 1563   8.096   5.682   0.458 -0.5955 -0.3451 -0.0631
    4CHTO   H93 1564   8.087   5.749   0.543 -0.1318 -0.8388  0.3784
    4CHTO   O30 1565   8.222   5.705   0.390  0.7219  0.3316  0.5563
    4CHTO   C46 1566   8.249   5.848   0.362  0.3990 -0.2762 -0.5955
    4CHTO   H88 1567   8.244   5.903   0.455 -2.1248 -0.5654 -0.5124
    4CHTO   C53 1568   8.396   5.850   0.293 -0.0372  0.2972 -0.3581
    4CHTO   O72 1569   8.489   5.790   0.390 -0.6970 -0.7506  0.6113
    4CHTO  H199 1570   8.562   5.740   0.359 -0.6363 -0.0469 -0.4317
    4CHTO   O22 1571   8.101   5.538   0.502  0.1832 -0.1713 -0.1745
    4CHTO   C31 1572   8.182   5.497   0.620  0.3785  0.1703 -0.2251
    4CHTO   H59 1573   8.230   5.590   0.655  0.1118  0.8031 -1.4883
    4CHTO   C29 1574   8.091   5.438   0.734 -0.2240  0.0904  0.1699
    4CHTO   H57 1575   8.050   5.343   0.697  0.2520  0.1559 -0.5223
    4CHTO   O21 1576   7.977   5.528   0.758 -0.1249  0.2754  0.2002
    4CHTO   H37 1577   7.950   5.508   0.846 -1.3190  0.7981 -0.0517
    4CHTO   C27 1578   8.189   5.413   0.858 -0.2821 -0.9803 -0.6500
    4CHTO   H55 1579   8.235   5.510   0.883  0.2194 -1.1575 -0.8780
    4CHTO    N5 1580   8.114   5.355   0.977  0.1938 -0.1120 -0.2367
    4CHTO   H43 1581   8.155   5.259   1.002  1.2790  0.7007  1.1629
    4CHTO   H44 1582   8.128   5.425   1.058 -1.7373  0.3491 -0.2649
    4CHTO   C25 1583   8.323   5.335   0.826  0.1648 -0.1598  0.1334
    4CHTO   H53 1584   8.291   5.230   0.827 -0.2118 -0.0889 -2.0209
    4CHTO   O17 1585   8.379   5.382   0.699 -0.4382 -0.1965 -0.2334
    4CHTO   C32 1586   8.297   5.401   0.587  1.0200  0.8660 -0.2237
    4CHTO   H60 1587   8.258   5.303   0.558  2.6285 -0.0519  0.6407
    4CHTO   C36 1588   8.376   5.449   0.460  0.5802 -0.4437 -0.0552
    4CHTO   O25 1589   8.473   5.353   0.423 -0.2082  0.1844  0.0874
    4CHTO   H40 1590   8.469   5.356   0.329  2.4667  0.9515 -0.0507
    4CHTO   O15 1591   8.441   5.367   0.947 -0.2008 -0.1922 -0.3190
    4CHTO   C19 1592   8.522   5.475   1.017  0.3415  0.6458 -0.2828
    4CHTO   H47 1593   8.601   5.427   1.077  1.7293  1.2151 -1.6523
    4CHTO   C20 1594   8.582   5.556   0.910  0.1591 -0.2089 -0.2055
    4CHTO   H48 1595   8.503   5.583   0.837 -2.4009 -2.0335  1.7721
    4CHTO   O19 1596   8.683   5.475   0.848 -0.0446  0.1592 -0.0638
    4CHTO   H35 1597   8.659   5.384   0.854 -1.2991  0.3794 -1.4429
    4CHTO   C21 1598   8.646   5.688   0.972  0.1671  0.0410 -0.1077
    4CHTO   H49 1599   8.725   5.661   1.043  0.1403 -0.4423 -0.2651
    4CHTO    N4 1600   8.713   5.777   0.875 -0.3500 -0.0776  0.0912
    4CHTO   H41 1601   8.724   5.734   0.777 -1.7435  1.4289 -0.7413
    4CHTO   H42 1602   8.649   5.863   0.865 -2.0632 -1.4102 -0.6894
    4CHTO   C22 1603   8.526   5.755   1.048 -0.5610  0.2851 -0.0176
    4CHTO   H50 1604   8.444   5.773   0.978  0.3624  1.9438 -0.7125
    4CHTO   O14 1605   8.486   5.675   1.160 -0.1101  0.7539 -0.0279
    4CHTO   C23 1606   8.436   5.551   1.122 -0.2865 -0.3072  0.4843
    4CHTO   H51 1607   8.338   5.578   1.081  0.8806  0.0923 -2.0924
    4CHTO   C34 1608   8.400   5.465   1.245 -1.1187  0.5050  0.1020
    4CHTO   O23 1609   8.320   5.530   1.341 -0.2584  0.5550  0.4632
    4CHTO   H38 1610   8.233   5.535   1.307 -0.6789  4.3788  1.8239
    4CHTO   O16 1611   8.559   5.886   1.104  0.2859 -0.1384  0.0031
    4CHTO   C24 1612   8.452   5.965   1.128 -0.6340 -0.1082  0.2778
    4CHTO   H52 1613   8.357   5.911   1.123 -0.5353 -0.2423 -0.1830
    4CHTO   C26 1614   8.452   6.081   1.023  0.2988  0.8541  0.0960
    4CHTO   H54 1615   8.555   6.120   1.015  0.3956  0.4901 -0.4711
    4CHTO   O20 1616   8.417   6.034   0.887  0.1764 -0.2597 -0.0152
    4CHTO   H36 1617   8.325   6.016   0.891 -0.1301  0.5008 -2.5894
    4CHTO   C30 1618   8.362   6.204   1.050  0.3131  0.6257 -0.8969
    4CHTO   H58 1619   8.260   6.175   1.021  0.4754 -1.2738  0.3033
    4CHTO    N6 1620   8.384   6.321   0.967 -0.1189 -0.7678 -0.3333
    4CHTO   H45 1621   8.440   6.304   0.876  0.8146 -0.3904  0.1569
    4CHTO   H46 1622   8.425   6.406   1.020 -0.1699 -1.2655  0.5100
    4CHTO   C33 1623   8.350   6.238   1.206  0.3981  0.6776 -0.0062
    4CHTO   H61 1624   8.435   6.295   1.246  1.1396 -0.2999 -0.1819
    4CHTO   O18 1625   8.341   6.118   1.278 -0.0327  0.1566 -0.0655
    4CHTO   C28 1626   8.457   6.032   1.270  0.1343  0.7054 -0.3697
    4CHTO   H56 1627   8.549   6.090   1.280 -1.4507  3.3064 -0.4346
    4CHTO   C35 1628   8.440   5.922   1.377 -0.2271  0.0675  0.2658
    4CHTO   O24 1629   8.551   5.836   1.380 -0.3601  0.5915 -0.1969
    4CHTO   H39 1630   8.562   5.803   1.294 -0.3784 -2.8416  1.0536
    4CHTO    O9 1631   8.234   6.321   1.229  0.7418 -0.6758 -0.1192
    4CHTO   C13 1632   8.217   6.369   1.406  0.3310 -0.7321 -0.3991
    4CHTO   H26 1633   8.283   6.308   1.471 -1.0874 -0.0035  1.7645
    4CHTO   C11 1634   8.061   6.358   1.447 -0.2554 -0.0688  0.6703
    4CHTO   H24 1635   8.030   6.253   1.439 -1.7964  0.3946  0.4722
    4CHTO    O8 1636   7.973   6.428   1.357 -0.5533  0.3234 -0.4730
    4CHTO    H3 1637   7.909   6.366   1.330  0.3470 -1.9662  2.3764
    4CHTO    C9 1638   8.066   6.395   1.598  0.5295 -0.4512 -0.2005
    4CHTO   H22 1639   8.152   6.342   1.641 -1.1544 -3.3473 -0.2678
    4CHTO    N2 1640   7.955   6.345   1.687  0.4786  0.0238  0.1575
    4CHTO   H10 1641   7.896   6.277   1.628 -0.0733  3.0108 -2.8354
    4CHTO   H11 1642   7.888   6.421   1.722  0.9708 -1.2569  4.1617
    4CHTO    C7 1643   8.097   6.547   1.600 -0.1251 -0.7313 -0.4633
    4CHTO   H20 1644   8.120   6.570   1.706  0.5054 -0.2066 -0.7089
    4CHTO    O4 1645   8.210   6.588   1.528 -0.2208 -0.1449 -0.2732
    4CHTO   C14 1646   8.271   6.515   1.421 -0.1286 -0.4991 -0.7403
    4CHTO   H27 1647   8.379   6.510   1.448 -0.5236  0.2783  1.0796
    4CHTO   C18 1648   8.265   6.602   1.290 -0.3549  0.4302  0.4159
    4CHTO   O13 1649   8.348   6.717   1.296  0.1745 -0.2717  0.4699
    4CHTO    H7 1650   8.343   6.750   1.208  0.2691  0.6954  0.8207
    4CHTO    O2 1651   7.984   6.646   1.556  0.6504 -0.0122  0.0217
    4CHTO    C1 1652   7.975   6.779   1.611  0.8065  0.2034  0.0935
    4CHTO   H14 1653   7.896   6.834   1.556 -0.3615 -1.7089 -0.2075
    4CHTO    C2 1654   8.107   6.861   1.597 -0.8491 -0.1521 -0.0465
    4CHTO   H15 1655   8.191   6.801   1.636  0.3493  1.2521 -0.4205
    4CHTO    O6 1656   8.130   6.881   1.450 -0.0838  0.2728 -0.3007
    4CHTO    H1 1657   8.222   6.895   1.440  0.1580  0.2761  1.7825
    4CHTO    C3 1658   8.100   6.999   1.678 -0.6826  0.6071 -0.7405
    4CHTO   H16 1659   8.012   7.053   1.639 -0.9695  0.6659 -0.0195
    4CHTO    N1 1660   8.229   7.078   1.662  0.2766 -0.2250  0.3223
    4CHTO    H8 1661   8.219   7.171   1.716 -1.2727  0.1287 -0.5637
    4CHTO    H9 1662   8.309   7.020   1.707 -0.8034 -1.6366  0.4552
    4CHTO    C4 1663   8.060   6.964   1.823  0.3154 -0.4144  0.8101
    4CHTO   H17 1664   8.142   6.907   1.867  1.9760 -0.2827 -2.0153
    4CHTO    O1 1665   7.936   6.890   1.813 -0.2839  0.0561 -0.0891
    4CHTO    C5 1666   7.930   6.759   1.756 -0.2545  0.1599  0.2220
    4CHTO   H18 1667   7.991   6.688   1.813 -1.0453 -0.4099  0.3679
    4CHTO   C16 1668   7.781   6.711   1.775 -0.6115 -0.5023 -0.2981
    4CHTO   O11 1669   7.696   6.755   1.668  0.5302  0.2175  0.3859
    4CHTO    H5 1670   7.654   6.683   1.625  2.1922 -0.2810 -0.4557
    4CHTO    O3 1671   8.021   7.078   1.902  0.7199 -0.4481 -0.2364
    4CHTO    C6 1672   8.073   7.086   2.037 -0.6684 -0.7091  0.3010
    4CHTO   H19 1673   8.153   7.014   2.055  0.3920  0.5468  0.7437
    4CHTO    C8 1674   8.136   7.228   2.060  0.5694  0.4736  0.3437
    4CHTO   H21 1675   8.059   7.303   2.042  1.6465  1.6555  0.5747
    4CHTO    O7 1676   8.231   7.253   1.960 -0.2047  0.4525  0.1336
    4CHTO    H2 1677   8.193   7.281   1.879 -2.4822 -1.2658  0.5273
    4CHTO   C12 1678   8.192   7.231   2.212 -0.6652 -0.0091 -0.6454
    4CHTO   H25 1679   8.269   7.151   2.217 -0.7521 -0.1843 -1.8346
    4CHTO    N3 1680   8.254   7.361   2.249 -0.1652 -0.7078 -0.4866
    4CHTO   H12 1681   8.295   7.368   2.349 -1.2108 -0.1387 -0.0891
    4CHTO   H13 1682   8.332   7.380   2.177  0.8973 -2.9087  0.0499
    4CHTO   C15 1683   8.070   7.186   2.306 -0.0777 -0.3618 -1.6512
    4CHTO   H28 1684   7.991   7.262   2.304  0.4869  0.2184 -4.5140
    4CHTO   O10 1685   8.121   7.151   2.453  0.2172 -0.1032 -0.2756
    4CHTO    H4 1686   8.198   7.097   2.453  0.8926  0.7498  2.7162
    4CHTO    O5 1687   8.019   7.060   2.267 -0.5313 -0.3030  0.3108
    4CHTO   C10 1688   7.957   7.057   2.139  0.6292 -0.1601  0.1747
    4CHTO   H23 1689   7.875   7.128   2.148  0.4558 -0.0952 -1.7322
    4CHTO   C17 1690   7.897   6.919   2.124 -0.2738  0.4099  0.1644
    4CHTO   O12 1691   7.821   6.863   2.237 -0.3638  0.2289 -0.0701
    4CHTO    H6 1692   7.780   6.937   2.278 -0.2235 -0.4421  1.3076
    5CHTO  H203 1693   8.640   3.625   0.776 -4.9477  0.4659 -1.0411
    5CHTO   O82 1694   8.633   3.680   0.852 -0.5803  0.4104 -0.4643
    5CHTO  C123 1695   8.589   3.600   0.963 -0.1950 -0.3870 -0.4602
    5CHTO  H227 1696   8.555   3.502   0.925 -1.0821 -0.2720  0.0448
    5CHTO   O77 1697   8.711   3.586   1.049 -0.2046 -0.1011  0.3062
    5CHTO  C118 1698   8.699   3.490   1.150 -0.4829 -0.0024  0.0350
    5CHTO  H222 1699   8.681   3.396   1.095 -0.0951 -0.3674  0.5341
    5CHTO  C125 1700   8.840   3.479   1.218  0.0526  0.4899 -0.2575
    5CHTO   O84 1701   8.864   3.384   1.325 -0.4177 -0.2428 -0.8475
    5CHTO  H205 1702   8.808   3.390   1.400  0.9826 -2.3530  0.4250
    5CHTO  C114 1703   8.586   3.530   1.248 -0.1349  0.5331 -1.2913
    5CHTO  H218 1704   8.619   3.615   1.308  1.0863  0.8821 -2.4489
    5CHTO  C116 1705   8.456   3.566   1.178  0.2356 -0.3245  0.4284
    5CHTO  H220 1706   8.398   3.474   1.159  1.5555 -1.3133  1.0849
    5CHTO   O79 1707   8.378   3.644   1.278 -0.1937  0.0349  0.7168
    5CHTO  H201 1708   8.342   3.603   1.354  0.3403 -2.0226 -0.1041
    5CHTO  C120 1709   8.481   3.657   1.058 -0.2299 -0.7695 -0.1541
    5CHTO  H224 1710   8.511   3.758   1.094 -1.0304 -0.3334 -0.6747
    5CHTO   N21 1711   8.354   3.694   0.982  0.4199 -0.6307 -0.6044
    5CHTO  H211 1712   8.351   3.793   0.941  0.8924 -0.9888 -1.5234
    5CHTO  H212 1713   8.258   3.682   1.030  0.1186  1.7665 -0.5694
    5CHTO   O75 1714   8.573   3.415   1.336 -0.0179 -0.3575  0.0809
    5CHTO  C112 1715   8.415   3.392   1.408  0.2271  0.1652  0.2184
    5CHTO  H216 1716   8.336   3.408   1.333 -0.7185 -3.9193  0.2625
    5CHTO   O73 1717   8.406   3.494   1.517  0.3071 -0.2659 -0.1571
    5CHTO  C113 1718   8.273   3.500   1.570  0.0241  0.1202  0.1664
    5CHTO  H217 1719   8.193   3.517   1.495  0.0626  0.4055  0.1898
    5CHTO  C124 1720   8.267   3.618   1.663  0.2600 -0.1457  0.4090
    5CHTO   O83 1721   8.292   3.737   1.590  0.5122 -0.8747 -0.2459
    5CHTO  H204 1722   8.217   3.769   1.544  0.1600  0.0231  0.9049
    5CHTO  C109 1723   8.234   3.360   1.637  0.8343 -0.4194 -0.4041
    5CHTO  H213 1724   8.299   3.347   1.725  2.3924 -0.1234 -1.4989
    5CHTO  C110 1725   8.251   3.244   1.532  0.0551  0.2138  0.2972
    5CHTO  H214 1726   8.172   3.246   1.457 -0.3210 -1.8131  0.5963
    5CHTO   O78 1727   8.215   3.115   1.591  0.0785  0.1180 -0.2222
    5CHTO  H200 1728   8.281   3.055   1.560 -0.1967 -0.1600 -0.2783
    5CHTO  C111 1729   8.394   3.253   1.469  0.3953  0.1264 -0.0114
    5CHTO  H215 1730   8.471   3.231   1.544  1.9775  2.4960 -0.8818
    5CHTO   N19 1731   8.412   3.143   1.363  0.8517 -0.1015 -0.8715
    5CHTO  H207 1732   8.512   3.119   1.329  0.2286 -1.8282 -1.5181
    5CHTO  H208 1733   8.325   3.082   1.343 -0.7358  2.6384 -2.5419
    5CHTO   O74 1734   8.091   3.367   1.684 -0.3077  0.1354 -0.1383
    5CHTO  C115 1735   8.065   3.358   1.840 -0.1177  0.5554  0.3241
    5CHTO  H219 1736   8.147   3.316   1.898  0.8234  1.0329 -0.6501
    5CHTO   O76 1737   8.041   3.489   1.894  0.2928 -0.1349 -0.3575
    5CHTO  C122 1738   7.926   3.558   1.837  0.4609 -0.0534 -0.6279
    5CHTO  H226 1739   7.950   3.579   1.732  1.1942  0.8879 -0.2789
    5CHTO  C126 1740   7.899   3.698   1.900  0.0621 -0.0760  0.6041
    5CHTO   O85 1741   7.863   3.689   2.038  0.4024 -0.4540  0.1743
    5CHTO  H206 1742   7.845   3.774   2.074  0.3128 -0.2087 -0.4510
    5CHTO  C121 1743   7.791   3.469   1.828 -0.7958 -0.4298  0.2918
    5CHTO  H225 1744   7.710   3.529   1.875 -2.0199  1.0532 -3.4684
    5CHTO   O81 1745   7.750   3.432   1.696 -0.8284 -0.1633 -0.1758
    5CHTO  H202 1746   7.815   3.381   1.652 -0.0954  0.8250 -0.2510
    5CHTO  C119 1747   7.819   3.341   1.909 -0.3237  0.3505 -0.0265
    5CHTO  H223 1748   7.853   3.358   2.011 -0.5251 -0.8198  0.2445
    5CHTO  C117 1749   7.938   3.260   1.845 -0.1901 -0.3513  0.2440
    5CHTO  H221 1750   7.916   3.225   1.745 -0.6321  1.9883 -0.5124
    5CHTO   N20 1751   7.976   3.136   1.929  0.2345  0.7647 -0.9389
    5CHTO  H209 1752   8.084   3.128   1.931  0.3077  1.8647 -0.1836
    5CHTO  H210 1753   7.929   3.051   1.883  0.6504 -0.0814  0.1767
    5CHTO   O80 1754   7.685   3.246   1.939  0.8116 -0.8400  0.1666
    5CHTO  C103 1755   7.556   3.250   1.845 -0.1123 -0.3909 -0.4789
    5CHTO  H190 1756   7.553   3.334   1.776 -0.1854 -0.3143 -0.3827
    5CHTO  C101 1757   7.532   3.113   1.766  0.7707  0.6045  0.4042
    5CHTO  H188 1758   7.552   3.030   1.834 -0.8538 -1.2045 -1.2679
    5CHTO   O68 1759   7.652   3.102   1.642  0.5052 -0.1783 -0.5417
    5CHTO  H168 1760   7.730   3.077   1.687 -1.5023 -2.0671  2.0530
    5CHTO   C99 1761   7.388   3.115   1.695  0.8136  0.7233 -0.4374
    5CHTO  H186 1762   7.387   3.194   1.618  0.5259 -0.3953 -1.6002
    5CHTO   N17 1763   7.356   2.985   1.637 -0.7661  0.5613  0.1596
    5CHTO  H174 1764   7.397   2.967   1.539 -2.5124 -0.5150 -0.3922
    5CHTO  H175 1765   7.248   2.977   1.632 -0.6747 -1.1021  0.3674
    5CHTO   C97 1766   7.267   3.151   1.791  0.5717 -0.5202 -0.2645
    5CHTO  H184 1767   7.255   3.062   1.854 -0.8140 -0.7551 -0.8413
    5CHTO   O64 1768   7.294   3.262   1.875  0.1772  0.3411  0.3031
    5CHTO  C104 1769   7.428   3.259   1.940  0.2091 -0.6061 -0.6573
    5CHTO  H191 1770   7.426   3.173   2.006 -2.4509  1.5845  2.2802
    5CHTO  C108 1771   7.430   3.378   2.037 -0.0653 -0.9886  0.4811
    5CHTO   O71 1772   7.404   3.501   1.965  0.3263 -0.0457 -0.0525
    5CHTO  H171 1773   7.313   3.521   1.974  0.4255 -0.6848  2.7393
    5CHTO   O62 1774   7.137   3.181   1.729 -0.0032  0.0932  0.1982
    5CHTO   C91 1775   7.023   3.129   1.792  1.0110  0.0723  0.1952
    5CHTO  H178 1776   7.036   3.109   1.899  0.7317 -1.2373 -0.0050
    5CHTO   C92 1777   6.977   2.992   1.729  0.2105 -0.1522  0.2042
    5CHTO  H179 1778   6.989   3.005   1.620 -0.8291 -1.8794 -0.1242
    5CHTO   O66 1779   7.077   2.898   1.775 -0.2392  0.5055  0.0880
    5CHTO  H166 1780   7.076   2.814   1.734  0.8569  0.2826  0.4932
    5CHTO   C93 1781   6.834   2.942   1.782 -0.1211 -0.5199  0.1306
    5CHTO  H180 1782   6.855   2.887   1.875  0.8502  0.1954  0.3456
    5CHTO   N16 1783   6.773   2.843   1.690  0.0128 -0.5957 -0.4681
    5CHTO  H172 1784   6.841   2.807   1.613 -0.8287  0.8208 -1.9159
    5CHTO  H173 1785   6.678   2.863   1.642  0.2963 -0.0073 -0.7827
    5CHTO   C94 1786   6.730   3.051   1.810  0.3537 -0.7101 -0.0622
    5CHTO  H181 1787   6.686   3.094   1.720  1.0959  2.0123  0.8260
    5CHTO   O61 1788   6.793   3.170   1.866  0.3302 -0.5101 -0.0383
    5CHTO   C95 1789   6.896   3.235   1.794  0.5291 -0.2189  1.3208
    5CHTO  H182 1790   6.866   3.268   1.695  1.9620  0.2069  1.0212
    5CHTO  C106 1791   6.938   3.363   1.880 -0.4608  0.1160 -0.4357
    5CHTO   O69 1792   6.852   3.468   1.847  0.0249 -0.3175  0.6318
    5CHTO  H169 1793   6.881   3.550   1.884 -2.7761  0.9355  0.2008
    5CHTO   O63 1794   6.611   2.995   1.907  0.2342  0.2446 -0.2924
    5CHTO   C96 1795   6.463   3.019   1.829  0.6177 -0.6616 -0.5523
    5CHTO  H183 1796   6.472   2.985   1.725 -2.5795 -0.1205 -1.0793
    5CHTO   C98 1797   6.377   3.150   1.838  0.0025 -0.3140  0.1879
    5CHTO  H185 1798   6.335   3.166   1.938 -0.8998  0.3441 -0.2903
    5CHTO   O67 1799   6.465   3.261   1.818  0.0650 -0.0365  0.3330
    5CHTO  H167 1800   6.520   3.257   1.742 -1.5743 -0.8403 -0.8462
    5CHTO  C102 1801   6.250   3.137   1.740  0.1864 -0.5887  0.6864
    5CHTO  H189 1802   6.288   3.145   1.637 -1.0059 -0.8062  0.2231
    5CHTO   N18 1803   6.157   3.255   1.758 -0.2803 -1.1361  0.8463
    5CHTO  H176 1804   6.165   3.321   1.672  1.7708 -1.0911  1.0475
    5CHTO  H177 1805   6.057   3.215   1.749 -0.4347 -0.4235 -0.9538
    5CHTO  C105 1806   6.180   2.998   1.754 -0.4310  0.0387 -1.0950
    5CHTO  H192 1807   6.081   3.011   1.797  1.3804  1.9824  2.7899
    5CHTO   O65 1808   6.237   2.913   1.865  0.1673  0.2623  0.2221
    5CHTO  C100 1809   6.377   2.903   1.886  0.2769  0.2011 -0.6345
    5CHTO  H187 1810   6.388   2.906   1.995 -2.0002 -0.3301 -0.3461
    5CHTO  C107 1811   6.408   2.761   1.830  0.1572 -0.3133 -0.5740
    5CHTO   O70 1812   6.536   2.711   1.865  0.4610  0.3951 -0.2713
    5CHTO  H170 1813   6.565   2.651   1.800  0.7406  0.0749  0.1433
    5CHTO   O57 1814   6.166   2.941   1.597  0.4899 -0.8191  0.2884
    5CHTO   C85 1815   6.049   2.855   1.566 -0.2497 -0.0808  0.3982
    5CHTO  H157 1816   5.972   2.899   1.633 -0.1848 -0.9296  1.0422
    5CHTO   C83 1817   6.082   2.711   1.620 -0.5935 -0.6206  0.2594
    5CHTO  H155 1818   6.094   2.716   1.728 -1.4623  0.3096  0.3209
    5CHTO   O56 1819   6.207   2.661   1.561  0.1043  0.5681  0.0585
    5CHTO  H135 1820   6.218   2.704   1.479  3.5499  0.7257  0.5196
    5CHTO   C81 1821   5.956   2.626   1.588 -0.1721  0.8014  0.1553
    5CHTO  H153 1822   5.871   2.669   1.641 -0.2139  0.7749  0.1091
    5CHTO   N14 1823   5.961   2.492   1.653  0.5677  0.0100  0.3720
    5CHTO  H141 1824   6.010   2.427   1.582  1.6043  0.8825  0.2695
    5CHTO  H142 1825   6.023   2.491   1.740  0.9480  0.4753  0.1138
    5CHTO   C79 1826   5.924   2.620   1.433  0.2718  0.7014  0.2958
    5CHTO  H151 1827   5.830   2.568   1.420  0.6172 -0.1490  1.1235
    5CHTO   O52 1828   5.906   2.754   1.379  0.0509 -0.6889  0.4001
    5CHTO   C86 1829   6.003   2.855   1.415  0.7907  0.6383  0.4033
    5CHTO  H158 1830   6.087   2.827   1.349 -1.4364 -4.2348 -0.5822
    5CHTO   C90 1831   5.943   2.988   1.367 -0.2795  0.2378  0.0649
    5CHTO   O60 1832   6.042   3.089   1.354  0.3599 -0.4589 -0.3893
    5CHTO  H138 1833   6.014   3.174   1.383 -0.4202 -0.1941 -1.8267
    5CHTO   O50 1834   6.027   2.546   1.351 -0.2890 -0.3895  0.4689
    5CHTO   C73 1835   6.058   2.463   1.236 -0.2356  0.2644  0.0972
    5CHTO  H145 1836   5.989   2.485   1.153 -0.0150  0.7612  0.0390
    5CHTO   C74 1837   6.049   2.302   1.274 -0.0188  0.3469  0.5769
    5CHTO  H146 1838   5.947   2.283   1.309  0.4611 -2.2373  0.6787
    5CHTO   O54 1839   6.078   2.219   1.154 -0.0370 -0.7973 -0.1663
    5CHTO  H133 1840   6.112   2.134   1.175  1.0576 -0.0285  1.3018
    5CHTO   C75 1841   6.163   2.265   1.380  0.1526 -0.0691 -0.6838
    5CHTO  H147 1842   6.132   2.314   1.474 -1.2370 -2.8640  0.3853
    5CHTO   N13 1843   6.170   2.119   1.415 -0.2488 -0.1409  0.0738
    5CHTO  H139 1844   6.079   2.093   1.466  0.5644 -3.1915  0.0827
    5CHTO  H140 1845   6.260   2.103   1.473  0.2125 -1.0382 -0.8720
    5CHTO   C76 1846   6.304   2.317   1.333 -0.0006 -0.0643  0.5705
    5CHTO  H148 1847   6.329   2.259   1.244 -1.1627  0.7771 -0.3257
    5CHTO   O49 1848   6.309   2.457   1.276  0.1731  0.0728  0.1124
    5CHTO   C77 1849   6.201   2.483   1.174  0.0122  0.3598 -0.4985
    5CHTO  H149 1850   6.215   2.418   1.087 -1.4160 -2.7536  1.5258
    5CHTO   C88 1851   6.215   2.631   1.129 -0.0029 -0.6604 -0.2914
    5CHTO   O58 1852   6.348   2.656   1.031  0.3025 -0.2657 -0.1118
    5CHTO  H136 1853   6.376   2.572   1.003 -2.1279 -0.2881 -2.6778
    5CHTO   O51 1854   6.409   2.313   1.465 -0.5440 -0.6551 -0.8129
    5CHTO   C78 1855   6.552   2.337   1.423  0.0005 -0.0693 -0.2322
    5CHTO  H150 1856   6.564   2.367   1.317  0.1315  3.0380  0.6251
    5CHTO   C80 1857   6.620   2.202   1.443  0.0278  0.5701  0.5876
    5CHTO  H152 1858   6.605   2.164   1.546 -0.6808 -3.2004 -0.8402
    5CHTO   O55 1859   6.575   2.112   1.352  0.2873  0.6459  0.5459
    5CHTO  H134 1860   6.636   2.041   1.348  4.1217  3.8426 -0.8817
    5CHTO   C84 1861   6.779   2.226   1.427 -0.2772  0.3259 -0.0711
    5CHTO  H156 1862   6.796   2.255   1.323 -4.1167  2.5867 -0.1956
    5CHTO   N15 1863   6.863   2.105   1.451 -0.0724 -0.4921 -0.6122
    5CHTO  H143 1864   6.960   2.110   1.408  0.9333  0.2403  1.6527
    5CHTO  H144 1865   6.807   2.025   1.407  0.8870 -1.2709 -0.4307
    5CHTO   C87 1866   6.839   2.344   1.516  0.3596 -0.3303 -0.1198
    5CHTO  H159 1867   6.848   2.334   1.624  1.0342  1.3404 -0.0208
    5CHTO   O53 1868   6.744   2.482   1.483  0.1747  0.0663  0.1568
    5CHTO   C82 1869   6.608   2.448   1.516 -0.9327 -0.1691  0.5287
    5CHTO  H154 1870   6.601   2.426   1.622 -1.7832 -0.0682  0.4940
    5CHTO   C89 1871   6.538   2.586   1.495 -0.0449 -0.2174  0.2702
    5CHTO   O59 1872   6.526   2.629   1.360  0.0963  0.8037  0.0153
    5CHTO  H137 1873   6.516   2.722   1.369  0.3472  0.8776 -0.4544
    5CHTO   O45 1874   6.994   2.393   1.441  0.9359 -0.4170  0.3824
    5CHTO   C67 1875   7.098   2.428   1.528  0.9022  0.5654  0.1916
    5CHTO  H124 1876   7.053   2.444   1.626  1.4187 -3.2478  1.1359
    5CHTO   C65 1877   7.198   2.308   1.540  0.5854 -0.5611 -0.3049
    5CHTO  H122 1878   7.189   2.242   1.454  0.6383 -0.1961 -0.5923
    5CHTO   O44 1879   7.162   2.236   1.663 -0.4440 -0.4355  0.3577
    5CHTO  H102 1880   7.075   2.201   1.668 -0.4926 -0.3002  0.4514
    5CHTO   C63 1881   7.351   2.362   1.524  0.6953 -0.3617 -0.0184
    5CHTO  H120 1882   7.370   2.383   1.419 -1.4615 -1.4359 -0.6415
    5CHTO   N11 1883   7.450   2.251   1.553 -0.0826  0.0482 -0.3170
    5CHTO  H108 1884   7.428   2.167   1.490  0.4448  0.1512 -0.6505
    5CHTO  H109 1885   7.551   2.278   1.530 -0.4944 -0.7497 -3.3539
    5CHTO   C61 1886   7.369   2.498   1.609 -0.0285  0.4183  0.0334
    5CHTO  H118 1887   7.474   2.522   1.589 -0.5763  2.2686 -0.7924
    5CHTO   O40 1888   7.292   2.607   1.566  0.2178 -0.7023  0.3197
    5CHTO   C68 1889   7.171   2.566   1.485  0.2485 -0.6146 -0.4001
    5CHTO  H125 1890   7.206   2.555   1.380  1.2994 -0.8938 -0.0287
    5CHTO   C72 1891   7.054   2.667   1.484 -0.1362  0.1866 -0.3949
    5CHTO   O48 1892   7.100   2.804   1.465 -0.3877 -0.1030 -0.1480
    5CHTO  H105 1893   7.144   2.825   1.545  0.7970 -1.1669 -0.5034
    5CHTO   O38 1894   7.347   2.483   1.749  0.5442  0.1566  0.1581
    5CHTO   C55 1895   7.316   2.594   1.839  0.4061  0.0110 -0.2993
    5CHTO  H112 1896   7.276   2.678   1.780  1.7549  0.4655 -0.5761
    5CHTO   C56 1897   7.446   2.639   1.914  0.0015  0.6855 -0.7948
    5CHTO  H113 1898   7.488   2.552   1.967  0.0940  0.6519 -0.9218
    5CHTO   O42 1899   7.550   2.679   1.822 -0.2706 -0.2436 -0.2320
    5CHTO  H100 1900   7.509   2.689   1.738  0.6144 -2.5984 -0.9924
    5CHTO   C57 1901   7.407   2.757   2.011 -1.0804  0.2889  0.7667
    5CHTO  H114 1902   7.369   2.835   1.945 -1.7963  1.7223  2.8046
    5CHTO   N10 1903   7.517   2.816   2.084 -0.7553  0.6148  0.2060
    5CHTO  H106 1904   7.488   2.878   2.167 -1.0415 -0.7223  1.1082
    5CHTO  H107 1905   7.583   2.738   2.118 -0.7472  1.4924  2.2376
    5CHTO   C58 1906   7.296   2.715   2.105 -0.6192  0.3251 -0.9259
    5CHTO  H115 1907   7.331   2.633   2.171  1.2050  1.0346 -0.9902
    5CHTO   O37 1908   7.180   2.669   2.035 -0.0697 -0.5631  0.1998
    5CHTO   C59 1909   7.208   2.554   1.952  1.0183  0.0187 -0.0610
    5CHTO  H116 1910   7.254   2.480   2.018  1.0272 -1.3841 -1.6055
    5CHTO   C70 1911   7.076   2.490   1.900 -0.1439  0.4480 -0.5581
    5CHTO   O46 1912   6.984   2.578   1.842 -0.0735  0.4213  0.3733
    5CHTO  H103 1913   6.903   2.576   1.890  0.1331  1.2513  0.7560
    5CHTO   O39 1914   7.233   2.854   2.212  0.1311 -0.6398  0.0599
    5CHTO   C60 1915   7.093   2.881   2.202  0.5850 -0.4018  0.5424
    5CHTO  H117 1916   7.071   2.882   2.096  0.7777  1.4758  0.5117
    5CHTO   C62 1917   7.006   2.781   2.281  0.4748 -0.0081 -0.3311
    5CHTO  H119 1918   7.043   2.683   2.244  2.0300  0.7053 -0.7061
    5CHTO   O43 1919   7.029   2.785   2.424  0.7868 -0.1902  1.0945
    5CHTO  H101 1920   7.119   2.762   2.436  1.3655  2.3084  1.9662
    5CHTO   C66 1921   6.855   2.819   2.237  0.5041  0.4435  0.2024
    5CHTO  H123 1922   6.851   2.824   2.128  2.0024  2.0766  0.2054
    5CHTO   N12 1923   6.762   2.711   2.290 -0.1246  0.1634 -0.3381
    5CHTO  H110 1924   6.662   2.753   2.294  0.3298  1.1408  1.3875
    5CHTO  H111 1925   6.794   2.695   2.392 -1.7866  2.6216  0.6253
    5CHTO   C69 1926   6.817   2.956   2.288  0.7953  0.2824 -0.0344
    5CHTO  H126 1927   6.820   2.956   2.399  0.0153  0.9429 -0.0089
    5CHTO   O41 1928   6.929   3.070   2.232 -0.3325 -0.0499  0.1190
    5CHTO   C64 1929   7.071   3.029   2.248  0.3822  0.1154  0.0392
    5CHTO  H121 1930   7.117   3.057   2.345  0.7996  0.5576 -0.2821
    5CHTO   C71 1931   7.159   3.126   2.156 -0.3031 -0.1635  0.1751
    5CHTO   O47 1932   7.156   3.261   2.208  0.0229  0.0808 -0.0786
    5CHTO  H104 1933   7.073   3.303   2.197 -1.1459 -2.2591 -0.4777
    5CHTO   O34 1934   6.671   2.981   2.243 -0.6390 -0.4080 -0.4782
    5CHTO   C49 1935   6.549   3.056   2.237 -0.1919  0.3184  0.0427
    5CHTO   H91 1936   6.509   3.025   2.140  0.8771 -1.1109  0.0430
    5CHTO   C47 1937   6.570   3.203   2.235  0.3397  0.6129  0.1910
    5CHTO   H89 1938   6.472   3.242   2.199  0.1373 -0.7905 -0.8335
    5CHTO   O33 1939   6.669   3.239   2.140  0.7485 -0.2659  0.1810
    5CHTO   H70 1940   6.686   3.331   2.148  1.9812 -0.3136 -1.6569
    5CHTO   C45 1941   6.620   3.250   2.385  1.1669 -0.6128 -0.0852
    5CHTO   H87 1942   6.705   3.188   2.414  0.9328 -1.6537 -1.5787
    5CHTO    N8 1943   6.653   3.391   2.402  0.1781 -0.5485  0.3993
    5CHTO   H75 1944   6.682   3.421   2.501 -1.4310  0.8907  0.4681
    5CHTO   H76 1945   6.558   3.437   2.378  0.6249 -0.2123 -0.7475
    5CHTO   C43 1946   6.507   3.201   2.492 -0.1412 -0.0456 -0.4361
    5CHTO   H85 1947   6.559   3.228   2.584  0.6701 -0.2841 -0.8267
    5CHTO   O29 1948   6.479   3.062   2.483  0.0443 -0.0898  0.4606
    5CHTO   C50 1949   6.452   3.020   2.349 -0.1841  0.4244  0.3523
    5CHTO   H92 1950   6.455   2.910   2.341 -1.2386  0.3479  0.9410
    5CHTO   C54 1951   6.305   3.042   2.317 -0.2168  0.6991  0.7182
    5CHTO   O36 1952   6.219   3.021   2.425 -0.1294  0.3490 -0.2447
    5CHTO   H72 1953   6.240   3.091   2.484 -1.7953 -0.5389  1.4515
    5CHTO   O27 1954   6.387   3.277   2.489  0.3123  0.0508  0.0182
    5CHTO   C37 1955   6.292   3.389   2.511 -0.1433 -0.1927 -0.1661
    5CHTO   H79 1956   6.335   3.484   2.476 -0.3929 -0.1030 -0.2289
    5CHTO   C38 1957   6.154   3.376   2.434 -0.1637  0.5938  0.2849
    5CHTO   H80 1958   6.115   3.274   2.454  0.4085  0.4125  0.4765
    5CHTO   O31 1959   6.185   3.376   2.298  0.1075 -0.2900  1.1398
    5CHTO   H68 1960   6.125   3.423   2.243 -0.4473 -0.7886  1.3136
    5CHTO   C39 1961   6.049   3.488   2.482 -0.4407 -0.3989 -0.4959
    5CHTO   H81 1962   6.094   3.581   2.446  0.4920  0.0057  1.6683
    5CHTO    N7 1963   5.915   3.461   2.406 -0.1751  0.7206  0.5906
    5CHTO   H73 1964   5.871   3.372   2.448  1.0193  0.4752  1.3399
    5CHTO   H74 1965   5.928   3.462   2.299 -2.4611 -0.9890  0.2557
    5CHTO   C40 1966   6.028   3.480   2.640  0.4335  0.8161 -0.5188
    5CHTO   H82 1967   5.989   3.382   2.668  0.0134  1.1930  0.2440
    5CHTO   O26 1968   6.157   3.504   2.700 -0.0523  0.3444 -0.2925
    5CHTO   C41 1969   6.258   3.406   2.661 -0.6196 -0.6951 -0.0771
    5CHTO   H83 1970   6.227   3.307   2.697  0.1063 -0.2734  1.7873
    5CHTO   C52 1971   6.389   3.436   2.742 -0.1792 -0.2525  0.1059
    5CHTO   O35 1972   6.453   3.557   2.688  0.2128  0.2605 -0.1247
    5CHTO   H71 1973   6.504   3.605   2.750  0.0384  0.7859 -0.3811
    5CHTO   O28 1974   5.936   3.583   2.684 -0.1035  0.1909  0.3781
    5CHTO   C42 1975   5.812   3.582   2.763  0.5988 -0.1910  0.6978
    5CHTO   H84 1976   5.746   3.659   2.723 -0.2807  0.2556  2.9289
    5CHTO   C44 1977   5.848   3.637   2.910  0.1545  0.2167 -0.5161
    5CHTO   H86 1978   5.911   3.726   2.908 -0.7243  0.8425 -0.9184
    5CHTO   O32 1979   5.729   3.692   2.979 -0.2878  0.1636  0.2730
    5CHTO   H69 1980   5.742   3.751   3.051  0.4365  0.7017 -0.3046
    5CHTO   C48 1981   5.912   3.524   3.003 -0.0668 -0.0283  0.5157
    5CHTO   H90 1982   5.847   3.526   3.090  0.5362 -1.1569  1.0012
    5CHTO    N9 1983   6.050   3.559   3.054 -1.0300  0.4411 -0.5363
    5CHTO   H77 1984   6.128   3.544   2.980 -0.5242  0.8151 -0.0815
    5CHTO   H78 1985   6.066   3.492   3.137  1.3324  3.0863  1.2492
    5CHTO   C51 1986   5.908   3.378   2.945 -0.5108 -0.7117 -0.1024
    5CHTO   H93 1987   5.985   3.374   2.868  0.7450  2.2896  0.9347
    5CHTO   O30 1988   5.776   3.341   2.889 -0.0047 -0.6365  0.3334
    5CHTO   C46 1989   5.726   3.446   2.770  0.3412  0.0539 -0.6106
    5CHTO   H88 1990   5.750   3.392   2.679  2.0658  0.9073 -0.6899
    5CHTO   C53 1991   5.577   3.472   2.773 -0.0645  0.4591 -0.7520
    5CHTO   O72 1992   5.500   3.344   2.782  0.5611 -0.5186  0.1719
    5CHTO  H199 1993   5.464   3.339   2.868 -3.0640 -1.3595 -1.3109
    5CHTO   O22 1994   5.920   3.279   3.045  0.7350  0.0795 -0.0642
    5CHTO   C31 1995   5.984   3.149   3.023  0.3185  0.9555 -0.2132
    5CHTO   H59 1996   5.956   3.085   3.110  1.6862  1.8510  0.9073
    5CHTO   C29 1997   5.944   3.076   2.890  0.6662  0.0240 -0.2278
    5CHTO   H57 1998   5.976   3.140   2.806 -1.6742  0.9473 -0.4573
    5CHTO   O21 1999   5.800   3.064   2.892  0.0528  0.9298  0.1876
    5CHTO   H37 2000   5.782   3.024   2.810  0.1408 -0.9831  1.0786
    5CHTO   C27 2001   6.011   2.935   2.870  0.4174 -0.4475 -0.3019
    5CHTO   H55 2002   5.980   2.868   2.951 -0.0322 -0.4851 -0.5027
    5CHTO    N5 2003   5.978   2.868   2.739  0.3601 -1.0410  0.3823
    5CHTO   H43 2004   6.007   2.945   2.669 -0.6240  0.0124  1.1111
    5CHTO   H44 2005   5.871   2.858   2.728  0.5356 -0.7667 -1.8948
    5CHTO   C25 2006   6.165   2.952   2.894 -0.4711 -0.0367 -0.2785
    5CHTO   H53 2007   6.208   2.993   2.801 -0.6474  2.9333  0.8923
    5CHTO   O17 2008   6.192   3.028   3.016 -0.7891  0.5558  0.3677
    5CHTO   C32 2009   6.135   3.160   3.025 -0.3439 -0.0176  0.3748
    5CHTO   H60 2010   6.156   3.218   2.936 -1.6982 -2.4282 -1.5897
    5CHTO   C36 2011   6.191   3.245   3.143 -0.2849 -0.0911 -0.3027
    5CHTO   O25 2012   6.167   3.181   3.270  0.1865 -0.0675 -0.8057
    5CHTO   H40 2013   6.093   3.225   3.308  0.1380  0.4470 -1.4800
    5CHTO   O15 2014   6.222   2.815   2.907 -0.9082  0.2889 -0.3187
    5CHTO   C19 2015   6.349   2.760   2.931  0.2359  0.2392 -0.2008
    5CHTO   H47 2016   6.374   2.805   3.029 -0.6490 -0.5646  0.4048
    5CHTO   C20 2017   6.326   2.608   2.933 -0.1754 -0.4856 -0.5311
    5CHTO   H48 2018   6.298   2.571   2.833  0.9453 -0.8419 -0.7212
    5CHTO   O19 2019   6.217   2.589   3.024 -0.8862  0.0507 -0.2409
    5CHTO   H35 2020   6.188   2.500   3.022  0.1981 -0.3746  1.7821
    5CHTO   C21 2021   6.463   2.529   2.964  0.1135 -0.2029  0.6975
    5CHTO   H49 2022   6.489   2.554   3.067  2.2720 -0.6805  0.2762
    5CHTO    N4 2023   6.443   2.382   2.963  0.3459 -0.8319  0.4849
    5CHTO   H41 2024   6.387   2.348   3.049 -1.0517 -0.5768 -0.3004
    5CHTO   H42 2025   6.542   2.339   2.960  1.0147  0.7964 -1.9714
    5CHTO   C22 2026   6.570   2.572   2.865  0.3310 -0.1686 -0.6161
    5CHTO   H50 2027   6.550   2.545   2.761  1.1374 -0.1209 -0.7870
    5CHTO   O14 2028   6.585   2.717   2.868 -0.0354 -0.0907  0.0251
    5CHTO   C23 2029   6.471   2.794   2.833  0.4126 -0.0563 -0.3033
    5CHTO   H51 2030   6.444   2.784   2.727 -1.5761 -0.6390  0.2321
    5CHTO   C34 2031   6.508   2.942   2.856  0.5691  0.1804  1.0326
    5CHTO   O23 2032   6.622   2.984   2.779  0.2754  0.7715  0.2050
    5CHTO   H38 2033   6.595   2.983   2.689  0.0722 -3.0408  0.2162
    5CHTO   O16 2034   6.699   2.531   2.906  0.2135 -0.8166  0.1006
    5CHTO   C24 2035   6.785   2.460   2.796  0.8637  0.0551 -0.4963
    5CHTO   H52 2036   6.726   2.433   2.708 -1.1823  0.3406  0.7574
    5CHTO   C26 2037   6.827   2.325   2.850 -0.7632  0.0879  0.0455
    5CHTO   H54 2038   6.873   2.343   2.950 -0.2319  1.6403 -0.4604
    5CHTO   O20 2039   6.718   2.234   2.868 -0.4290 -0.1708 -0.1237
    5CHTO   H36 2040   6.692   2.208   2.955 -2.0934 -0.9459 -0.8220
    5CHTO   C30 2041   6.940   2.258   2.758  0.5200 -0.4735 -0.7754
    5CHTO   H58 2042   6.894   2.222   2.665 -4.3210  1.5683  0.6452
    5CHTO    N6 2043   7.001   2.145   2.832 -0.0684  0.4429 -0.5340
    5CHTO   H45 2044   6.955   2.053   2.799 -2.1193  0.6945  1.5011
    5CHTO   H46 2045   6.983   2.155   2.938  0.2524 -1.9832 -0.2361
    5CHTO   C33 2046   7.050   2.367   2.726 -0.1126  0.7442 -0.1002
    5CHTO   H61 2047   7.092   2.416   2.815 -1.1695  1.9508 -0.2438
    5CHTO   O18 2048   6.981   2.473   2.650 -0.2615 -0.2504  0.1246
    5CHTO   C28 2049   6.902   2.547   2.743 -0.2534  0.2474 -0.1562
    5CHTO   H56 2050   6.965   2.571   2.829  1.1975  0.7911 -1.3421
    5CHTO   C35 2051   6.833   2.675   2.677 -0.6192 -0.3325  0.9395
    5CHTO   O24 2052   6.840   2.785   2.767  0.1710 -0.3709 -0.0611
    5CHTO   H39 2053   6.794   2.766   2.846  0.4364 -0.4100  0.0845
    5CHTO    O9 2054   7.165   2.320   2.656  0.5392  0.4410 -0.8232
    5CHTO   C13 2055   7.132   2.282   2.493  0.1157  0.2089  0.2835
    5CHTO   H26 2056   7.024   2.270   2.471  0.3919 -0.9569 -0.4982
    5CHTO   C11 2057   7.212   2.140   2.476  0.3136  0.0514 -0.6436
    5CHTO   H24 2058   7.156   2.065   2.534 -2.1263  1.1754 -1.4453
    5CHTO    O8 2059   7.343   2.166   2.530  0.5455  0.2079 -0.1491
    5CHTO    H3 2060   7.341   2.121   2.612 -0.8520  0.5079 -0.0062
    5CHTO    C9 2061   7.215   2.100   2.325  0.6661 -0.1185 -0.3448
    5CHTO   H22 2062   7.111   2.095   2.291  0.7343 -1.5405 -0.3589
    5CHTO    N2 2063   7.272   1.966   2.300 -0.2272 -0.0414  0.4580
    5CHTO   H10 2064   7.374   1.954   2.265 -0.7171 -0.3970 -0.8776
    5CHTO   H11 2065   7.248   1.894   2.377 -2.6065  0.9565  0.6688
    5CHTO    C7 2066   7.278   2.215   2.240  0.0261 -0.5938  0.3486
    5CHTO   H20 2067   7.257   2.178   2.138  0.8044  0.0512 -0.0545
    5CHTO    O4 2068   7.209   2.342   2.251 -0.0390 -0.5073  0.3104
    5CHTO   C14 2069   7.175   2.397   2.385  0.6890  0.8363  0.4790
    5CHTO   H27 2070   7.086   2.459   2.366 -0.0359 -0.8093 -1.6557
    5CHTO   C18 2071   7.290   2.487   2.427 -0.3016  0.0859 -0.3895
    5CHTO   O13 2072   7.266   2.574   2.533  0.1432  0.0186  0.1354
    5CHTO    H7 2073   7.202   2.637   2.503  0.6105  0.5370  0.2370
    5CHTO    O2 2074   7.445   2.243   2.272 -0.2697  0.3394  0.1795
    5CHTO    C1 2075   7.520   2.307   2.166  1.0702  0.5856 -0.3974
    5CHTO   H14 2076   7.478   2.404   2.131 -2.5207 -0.6925  0.1647
    5CHTO    C2 2077   7.550   2.216   2.038  0.0130  0.3980 -0.0166
    5CHTO   H15 2078   7.588   2.119   2.073  0.5883  1.4587  2.4412
    5CHTO    O6 2079   7.424   2.185   1.967  0.1958 -0.6276 -0.5271
    5CHTO    H1 2080   7.420   2.097   1.934  1.4486 -1.0112  0.2937
    5CHTO    C3 2081   7.649   2.288   1.937 -0.3315  0.6211 -0.1253
    5CHTO   H16 2082   7.603   2.375   1.886 -0.3445  0.6629 -0.0424
    5CHTO    N1 2083   7.695   2.189   1.834 -0.0272 -0.3287 -0.3530
    5CHTO    H8 2084   7.746   2.243   1.756  1.1072 -1.2732 -0.2824
    5CHTO    H9 2085   7.609   2.136   1.797  0.9916 -2.9236  0.8527
    5CHTO    C4 2086   7.775   2.349   2.012 -0.2258  0.2279  0.0827
    5CHTO   H17 2087   7.847   2.270   2.036 -2.4442 -1.6664  0.6857
    5CHTO    O1 2088   7.732   2.419   2.125  0.0040  0.0823 -0.4386
    5CHTO    C5 2089   7.660   2.347   2.221  0.2533 -0.4367  0.4743
    5CHTO   H18 2090   7.718   2.257   2.244  0.2676 -0.6367 -0.3394
    5CHTO   C16 2091   7.659   2.448   2.341  0.5948  0.0876  0.3166
    5CHTO   O11 2092   7.574   2.566   2.318 -0.0746  0.3206 -0.4830
    5CHTO    H5 2093   7.542   2.587   2.404  0.5651  0.9170 -0.3842
    5CHTO    O3 2094   7.843   2.447   1.934  0.3294  0.1002 -0.0607
    5CHTO    C6 2095   7.978   2.469   1.974  0.1025  0.0510  0.1079
    5CHTO   H19 2096   8.017   2.426   2.066  3.2800  2.6694  0.0679
    5CHTO    C8 2097   8.077   2.421   1.858  0.0473  0.5597 -0.0165
    5CHTO   H21 2098   8.044   2.471   1.767 -1.0323  0.3936  0.2652
    5CHTO    O7 2099   8.061   2.277   1.841 -0.5566 -0.5697  0.0105
    5CHTO    H2 2100   7.972   2.246   1.846  0.2248 -2.5693  2.1376
    5CHTO   C12 2101   8.228   2.467   1.891 -0.7480 -0.1019  0.5965
    5CHTO   H25 2102   8.261   2.417   1.985 -0.8599 -0.7236  0.3040
    5CHTO    N3 2103   8.324   2.418   1.790 -0.3007 -0.3736  0.4013
    5CHTO   H12 2104   8.295   2.438   1.688  2.3647 -1.6623 -0.6855
    5CHTO   H13 2105   8.323   2.310   1.788 -0.0067 -0.3725  0.0664
    5CHTO   C15 2106   8.234   2.625   1.912  0.8410  0.1077  0.2204
    5CHTO   H28 2107   8.218   2.676   1.817  1.5143  0.6655  0.4051
    5CHTO   O10 2108   8.355   2.671   1.981 -0.4371 -0.2631  0.6337
    5CHTO    H4 2109   8.433   2.654   1.932 -0.4280  0.3360  0.4290
    5CHTO    O5 2110   8.136   2.661   2.006  0.0439 -0.6115 -1.0411
    5CHTO   C10 2111   8.003   2.624   1.982  0.8839 -0.0384  0.6482
    5CHTO   H23 2112   7.984   2.660   1.881  1.1806 -1.3736  0.1101
    5CHTO   C17 2113   7.904   2.685   2.080  0.3341 -0.2913 -0.4736
    5CHTO   O12 2114   7.887   2.818   2.049  0.3050 -0.0394  0.0192
    5CHTO    H6 2115   7.860   2.876   2.118  1.3145  1.3779 -0.7429
    6CHTO  H203 2116   7.651   4.507   0.438 -1.0704 -0.2640  1.1674
    6CHTO   O82 2117   7.608   4.543   0.362  0.3982 -0.3261  0.2893
    6CHTO  C123 2118   7.551   4.675   0.388 -0.2929  0.4295  0.5463
    6CHTO  H227 2119   7.605   4.752   0.331 -0.7261  0.0694 -0.3668
    6CHTO   O77 2120   7.413   4.661   0.331  0.0865 -0.0127  0.0279
    6CHTO  C118 2121   7.342   4.779   0.324  0.0319 -0.1188  0.9555
    6CHTO  H222 2122   7.404   4.858   0.279 -0.1799  0.6462  1.9793
    6CHTO  C125 2123   7.200   4.772   0.250 -0.9215 -0.2559 -0.4209
    6CHTO   O84 2124   7.117   4.668   0.307 -0.1966 -0.2633  0.1755
    6CHTO  H205 2125   7.088   4.602   0.247  0.3685  0.5078 -0.9562
    6CHTO  C114 2126   7.314   4.821   0.478 -0.0860 -0.1440  0.0947
    6CHTO  H218 2127   7.269   4.739   0.533  0.4324  0.7195  1.8268
    6CHTO  C116 2128   7.443   4.841   0.561  0.7849  0.1944 -0.6523
    6CHTO  H220 2129   7.490   4.937   0.533 -2.1923  1.9168  0.0931
    6CHTO   O79 2130   7.403   4.851   0.695 -0.7717 -0.6688  0.1162
    6CHTO  H201 2131   7.465   4.898   0.749 -1.2300 -1.7608  1.6113
    6CHTO  C120 2132   7.542   4.720   0.543 -0.5724  0.6830 -0.2685
    6CHTO  H224 2133   7.490   4.639   0.599  1.8382 -3.0460 -3.1729
    6CHTO   N21 2134   7.677   4.739   0.606  0.0448 -0.4013  0.5752
    6CHTO  H211 2135   7.713   4.646   0.646  0.6815 -0.3434  0.1506
    6CHTO  H212 2136   7.672   4.809   0.688 -0.9690  0.8638 -0.5431
    6CHTO   O75 2137   7.238   4.938   0.471  0.3282 -0.4861  0.2842
    6CHTO  C112 2138   7.090   4.933   0.570 -0.0531  0.4718 -0.5648
    6CHTO  H216 2139   7.121   4.958   0.672  2.1058  0.5507 -1.2216
    6CHTO   O73 2140   7.031   4.805   0.559 -0.5956 -0.0526 -0.4456
    6CHTO  C113 2141   6.909   4.789   0.623  0.6768 -0.2358  0.9667
    6CHTO  H217 2142   6.930   4.818   0.728  1.2229  0.5891  0.6409
    6CHTO  C124 2143   6.871   4.643   0.606  0.1815 -0.2369  0.4690
    6CHTO   O83 2144   6.939   4.561   0.694 -0.1726  0.0598 -0.2294
    6CHTO  H204 2145   6.950   4.472   0.667 -0.7022  0.1499 -0.7516
    6CHTO  C109 2146   6.803   4.884   0.553 -0.0978 -0.0255  0.6206
    6CHTO  H213 2147   6.794   4.844   0.451 -1.7105  0.5745  0.5195
    6CHTO  C110 2148   6.853   5.036   0.550 -0.2757  0.8275  0.0744
    6CHTO  H214 2149   6.842   5.088   0.646  0.9746 -0.0165  0.6991
    6CHTO   O78 2150   6.772   5.120   0.461  0.8172  0.0781 -0.3663
    6CHTO  H200 2151   6.780   5.112   0.368 -0.3778  1.4320 -0.6160
    6CHTO  C111 2152   6.998   5.044   0.504  0.7927  0.1621 -1.0964
    6CHTO  H215 2153   7.001   5.026   0.395  0.7006 -1.6072 -0.8311
    6CHTO   N19 2154   7.062   5.179   0.530 -0.1161 -0.1754  0.2468
    6CHTO  H207 2155   7.056   5.246   0.445  1.2224  0.0044  0.2891
    6CHTO  H208 2156   7.003   5.226   0.607 -0.4692  0.2892 -0.2985
    6CHTO   O74 2157   6.670   4.879   0.613 -0.2925  0.4987 -0.0754
    6CHTO  C115 2158   6.659   4.906   0.754 -0.0327  0.4996  0.4157
    6CHTO  H219 2159   6.756   4.898   0.802 -0.5007  0.0961  1.2986
    6CHTO   O76 2160   6.611   5.067   0.780 -0.0297 -0.3849 -0.2122
    6CHTO  C122 2161   6.477   5.103   0.737 -0.0947 -0.6273  0.1624
    6CHTO  H226 2162   6.484   5.146   0.637 -2.8280  0.5808  0.4292
    6CHTO  C126 2163   6.418   5.223   0.820 -0.2930 -0.3622  0.1707
    6CHTO   O85 2164   6.493   5.345   0.818 -0.4714  0.4599 -0.1536
    6CHTO  H206 2165   6.558   5.344   0.885 -2.1053  0.0088  1.4736
    6CHTO  C121 2166   6.375   4.987   0.745  1.0435  0.0213 -0.3125
    6CHTO  H225 2167   6.278   5.028   0.782  2.7337  2.1273  1.9255
    6CHTO   O81 2168   6.349   4.937   0.611 -0.2645  0.3694 -0.2102
    6CHTO  H202 2169   6.432   4.912   0.575 -0.7052 -3.6908  1.3108
    6CHTO  C119 2170   6.407   4.865   0.832 -0.0163  0.3599  0.2630
    6CHTO  H223 2171   6.388   4.898   0.934  0.9517 -1.0293  0.9004
    6CHTO  C117 2172   6.554   4.810   0.821 -0.2483 -0.2206  0.5574
    6CHTO  H221 2173   6.552   4.720   0.759  2.9182  0.1905 -0.2340
    6CHTO   N20 2174   6.597   4.750   0.955 -0.6975 -0.0799 -0.2245
    6CHTO  H209 2175   6.514   4.713   1.013 -0.2101 -0.8938 -0.0286
    6CHTO  H210 2176   6.656   4.822   1.010  1.4902 -0.7395 -1.6337
    6CHTO   O80 2177   6.288   4.745   0.810 -0.7847 -0.1435 -0.6863
    6CHTO  C103 2178   6.229   4.659   0.942  0.1384 -0.4508 -0.1080
    6CHTO  H190 2179   6.292   4.572   0.960 -0.9713 -1.3246 -0.3528
    6CHTO  C101 2180   6.217   4.732   1.078 -0.3237  0.2451  0.7987
    6CHTO  H188 2181   6.145   4.808   1.050  2.3866  2.6715  0.1214
    6CHTO   O68 2182   6.346   4.780   1.122  0.0718  0.2720 -0.5478
    6CHTO  H168 2183   6.339   4.794   1.214 -0.5076 -2.2757 -0.1651
    6CHTO   C99 2184   6.146   4.641   1.188  0.0714  0.4598 -0.1449
    6CHTO  H186 2185   6.203   4.548   1.206  0.8097  1.1872  1.3455
    6CHTO   N17 2186   6.146   4.688   1.330  0.3000 -0.3129  0.0657
    6CHTO  H174 2187   6.149   4.796   1.343  1.7813 -0.4555  1.0389
    6CHTO  H175 2188   6.070   4.640   1.389 -0.7158  1.3813  0.1819
    6CHTO   C97 2189   6.010   4.595   1.130 -0.4081  0.0576 -0.6078
    6CHTO  H184 2190   5.944   4.683   1.129 -0.5133  0.0633  1.8841
    6CHTO   O64 2191   6.024   4.535   1.002  0.1599 -1.0377 -0.4240
    6CHTO  C104 2192   6.091   4.610   0.898  0.7138  0.2575 -0.1519
    6CHTO  H191 2193   6.028   4.696   0.880  0.9115  1.2233  3.3979
    6CHTO  C108 2194   6.100   4.528   0.768  0.1698  0.1243  0.0202
    6CHTO   O71 2195   5.966   4.506   0.724  0.4417  0.5446  0.0914
    6CHTO  H171 2196   5.971   4.483   0.633 -1.0353  0.9160 -0.1031
    6CHTO   O62 2197   5.964   4.488   1.215 -0.1480 -0.2211  0.2167
    6CHTO   C91 2198   5.819   4.471   1.225  0.2836  0.0046 -0.6617
    6CHTO  H178 2199   5.788   4.565   1.271  0.0638 -0.1050 -0.5898
    6CHTO   C92 2200   5.796   4.360   1.335  0.2833  0.1564 -0.8514
    6CHTO  H179 2201   5.850   4.387   1.427 -0.3470  0.0549 -0.4458
    6CHTO   O66 2202   5.652   4.363   1.366 -0.6850 -0.0913  0.3361
    6CHTO  H166 2203   5.637   4.366   1.459  0.9676  1.0481  0.5893
    6CHTO   C93 2204   5.821   4.215   1.280 -0.2174 -0.6383 -0.4828
    6CHTO  H180 2205   5.776   4.140   1.346  2.1997 -0.2451  1.6900
    6CHTO   N16 2206   5.958   4.169   1.304  0.6510 -0.4657 -0.1198
    6CHTO  H172 2207   6.022   4.218   1.232  0.4247  2.0378  1.3265
    6CHTO  H173 2208   5.985   4.184   1.407 -0.4844  0.5630  0.0300
    6CHTO   C94 2209   5.767   4.192   1.137  0.4184  0.5482  0.4775
    6CHTO  H181 2210   5.846   4.188   1.063 -1.2532 -1.8825 -1.2567
    6CHTO   O61 2211   5.677   4.302   1.105 -0.7829  0.9082  0.8018
    6CHTO   C95 2212   5.737   4.427   1.092  0.1832  0.3628 -0.1921
    6CHTO  H182 2213   5.813   4.424   1.014 -0.3206 -2.2348 -0.6198
    6CHTO  C106 2214   5.638   4.539   1.053 -0.1638  0.5866 -0.3597
    6CHTO   O69 2215   5.545   4.558   1.158 -0.1823  0.2410 -0.4027
    6CHTO  H169 2216   5.536   4.650   1.169 -1.2763  0.2532 -1.3289
    6CHTO   O63 2217   5.675   4.055   1.130 -0.5915 -0.1357  0.2196
    6CHTO   C96 2218   5.744   3.972   1.026  0.1082  0.2769 -0.5640
    6CHTO  H183 2219   5.849   3.997   1.011  0.2570  0.5720  0.8926
    6CHTO   C98 2220   5.667   3.979   0.894 -0.1962  0.0721 -0.0438
    6CHTO  H185 2221   5.564   3.942   0.906 -0.6465  0.8453 -1.3830
    6CHTO   O67 2222   5.646   4.119   0.860  0.1029 -0.3759 -0.0268
    6CHTO  H167 2223   5.604   4.119   0.776 -0.6058 -1.7334  0.3041
    6CHTO  C102 2224   5.747   3.898   0.781 -1.2195  0.1531  0.0482
    6CHTO  H189 2225   5.810   3.970   0.727 -0.5321 -1.6212 -1.5834
    6CHTO   N18 2226   5.654   3.843   0.678  0.0564  0.5516  1.1219
    6CHTO  H176 2227   5.634   3.903   0.591 -2.4000 -2.3615 -0.4326
    6CHTO  H177 2228   5.685   3.743   0.653  0.5977  0.1315  3.3647
    6CHTO  C105 2229   5.845   3.793   0.840  0.5204  0.6946 -0.3434
    6CHTO  H192 2230   5.851   3.708   0.773  1.3388 -0.8658  1.6549
    6CHTO   O65 2231   5.795   3.734   0.966 -0.1066 -0.1623 -0.0478
    6CHTO  C100 2232   5.737   3.820   1.067  0.5132 -0.6922 -0.2507
    6CHTO  H187 2233   5.629   3.800   1.080  0.3853  1.0077  1.5860
    6CHTO  C107 2234   5.803   3.792   1.204  0.0315 -0.2570  0.5602
    6CHTO   O70 2235   5.944   3.797   1.194 -0.1627  0.1910  0.0771
    6CHTO  H170 2236   5.973   3.877   1.235  0.0149  0.9825 -1.5353
    6CHTO   O57 2237   5.979   3.869   0.862  0.3792  0.0832  0.4018
    6CHTO   C85 2238   6.080   3.884   0.758 -0.2913  0.5477 -0.0859
    6CHTO  H157 2239   6.026   3.880   0.661 -1.6072 -0.8635  0.6816
    6CHTO   C83 2240   6.178   3.764   0.753  0.3896 -0.3115 -0.0368
    6CHTO  H155 2241   6.121   3.681   0.712  0.4250 -0.5344  0.3598
    6CHTO   O56 2242   6.226   3.715   0.878 -0.4003  0.7110  0.1721
    6CHTO  H135 2243   6.278   3.640   0.859 -0.3877  0.6407  0.4832
    6CHTO   C81 2244   6.289   3.802   0.653  0.3115  0.3261 -0.1968
    6CHTO  H153 2245   6.241   3.825   0.558 -1.7234 -1.3383  0.3917
    6CHTO   N14 2246   6.390   3.705   0.624  1.0601 -0.1853 -0.3625
    6CHTO  H141 2247   6.417   3.688   0.521  0.4044 -1.1018 -0.3874
    6CHTO  H142 2248   6.376   3.611   0.674  0.6544  0.6852  1.1806
    6CHTO   C79 2249   6.368   3.928   0.702 -0.7032  0.1062  0.2758
    6CHTO  H151 2250   6.453   3.940   0.635 -0.5710 -1.0686  0.2193
    6CHTO   O52 2251   6.280   4.040   0.690  0.1222 -0.0300  0.5553
    6CHTO   C86 2252   6.162   4.022   0.776 -0.4632 -0.3314 -0.1968
    6CHTO  H158 2253   6.196   4.028   0.881  0.1549 -0.3374 -0.3929
    6CHTO   C90 2254   6.061   4.140   0.753  0.7117 -0.5142  0.2552
    6CHTO   O60 2255   6.047   4.220   0.871 -0.0213 -0.3720  0.6660
    6CHTO  H138 2256   6.123   4.225   0.926 -1.0996  1.6428  2.0121
    6CHTO   O50 2257   6.415   3.921   0.840  0.4756 -0.8709  0.0962
    6CHTO   C73 2258   6.468   3.904   0.975  0.5144  0.2168 -0.5999
    6CHTO  H145 2259   6.459   3.796   0.997  2.0524  0.3217  0.5531
    6CHTO   C74 2260   6.395   3.995   1.074  0.3986 -0.0741 -0.2772
    6CHTO  H146 2261   6.287   3.974   1.074  0.5788 -1.0456  0.4785
    6CHTO   O54 2262   6.436   3.951   1.205  0.0730  0.4000  0.2978
    6CHTO  H133 2263   6.400   3.868   1.231  3.1053 -0.7633  0.9382
    6CHTO   C75 2264   6.427   4.149   1.041 -0.0188  0.4994 -0.3390
    6CHTO  H147 2265   6.398   4.175   0.938 -3.3562  1.7366  0.8792
    6CHTO   N13 2266   6.360   4.243   1.130 -0.1273  0.0612  0.5288
    6CHTO  H139 2267   6.397   4.339   1.097  1.8943 -1.3638 -1.4822
    6CHTO  H140 2268   6.254   4.224   1.117 -0.3887  2.3726 -0.9878
    6CHTO   C76 2269   6.587   4.162   1.041 -0.3373  0.3967  0.4536
    6CHTO  H148 2270   6.618   4.137   1.142  2.1968 -1.1182 -0.6340
    6CHTO   O49 2271   6.648   4.075   0.949  0.2365 -0.7988 -0.1292
    6CHTO   C77 2272   6.620   3.937   0.981  0.7016  0.2732 -0.0286
    6CHTO  H149 2273   6.660   3.913   1.080  1.9605  3.7338  0.3875
    6CHTO   C88 2274   6.701   3.844   0.886 -0.7045 -0.1903  0.0912
    6CHTO   O58 2275   6.817   3.877   0.885  0.1677 -0.0438  0.5189
    6CHTO  H136 2276   6.863   3.813   0.835  0.2190  2.1531 -2.3190
    6CHTO   O51 2277   6.635   4.309   0.998 -0.4798  0.3286  0.1849
    6CHTO   C78 2278   6.756   4.361   1.103  0.2869 -0.1929  0.1735
    6CHTO  H150 2279   6.804   4.269   1.143 -0.0030  0.8000  2.9203
    6CHTO   C80 2280   6.694   4.439   1.218 -0.3498  0.2846  0.2667
    6CHTO  H152 2281   6.610   4.501   1.181 -0.5831  0.6159  1.3212
    6CHTO   O55 2282   6.636   4.336   1.296  0.1112 -0.3868  0.6439
    6CHTO  H134 2283   6.619   4.363   1.384  0.3609 -1.2322  0.9561
    6CHTO   C84 2284   6.797   4.521   1.307 -0.0299  0.0068  0.5392
    6CHTO  H156 2285   6.858   4.442   1.351  2.4289  1.7155  0.2595
    6CHTO   N15 2286   6.720   4.587   1.414  0.2420  0.0317 -0.4549
    6CHTO  H143 2287   6.645   4.653   1.376 -1.5620 -1.4477  0.4768
    6CHTO  H144 2288   6.676   4.536   1.497  1.4814  0.5173  0.5241
    6CHTO   C87 2289   6.876   4.607   1.214  0.2508 -0.3062 -0.0091
    6CHTO  H159 2290   6.809   4.668   1.154  1.2380  0.4705 -0.3428
    6CHTO   O53 2291   6.958   4.503   1.113  0.3540  0.1925 -0.7952
    6CHTO   C82 2292   6.866   4.441   1.023  0.3674 -0.1000  0.4542
    6CHTO  H154 2293   6.823   4.510   0.951  1.4802  2.4502  2.1255
    6CHTO   C89 2294   6.948   4.337   0.952 -0.0607 -0.0642  0.0452
    6CHTO   O59 2295   7.068   4.388   0.908 -0.5199  0.1121  0.1452
    6CHTO  H137 2296   7.144   4.335   0.922 -0.8719 -0.4843 -0.2184
    6CHTO   O45 2297   6.983   4.691   1.284  0.2039 -0.1023  0.0199
    6CHTO   C67 2298   7.067   4.790   1.221  0.0511 -0.2858  0.2099
    6CHTO  H124 2299   7.158   4.734   1.197 -0.5142  0.2144 -3.2852
    6CHTO   C65 2300   7.010   4.848   1.082  0.0732  0.1900 -0.2185
    6CHTO  H122 2301   6.903   4.848   1.102  0.0001  0.2473 -0.6162
    6CHTO   O44 2302   7.050   4.760   0.980 -0.6179  0.9286  0.6102
    6CHTO  H102 2303   6.979   4.748   0.919  0.4054 -2.5028 -0.0333
    6CHTO   C63 2304   7.046   4.998   1.060  0.5817 -0.0885 -0.1734
    6CHTO  H120 2305   6.989   5.058   1.131 -1.1799 -1.4172 -0.4156
    6CHTO   N11 2306   7.008   5.058   0.926  0.2252 -0.3642  0.9404
    6CHTO  H108 2307   7.094   5.060   0.863 -0.4972  1.8236 -0.0302
    6CHTO  H109 2308   6.921   5.012   0.885 -0.0073  2.1131 -1.4837
    6CHTO   C61 2309   7.190   5.025   1.112 -0.2352  0.1018 -1.5622
    6CHTO  H118 2310   7.199   5.135   1.108  0.2285  0.0428 -2.1546
    6CHTO   O40 2311   7.205   4.987   1.253  0.1586 -0.1383  0.2523
    6CHTO   C68 2312   7.103   4.908   1.320 -0.1299 -0.0142  0.3197
    6CHTO  H125 2313   7.016   4.973   1.343  0.0432 -0.0507  1.0731
    6CHTO   C72 2314   7.157   4.850   1.453 -0.2380 -0.2306 -0.4508
    6CHTO   O48 2315   7.206   4.943   1.545  0.2720  0.3653  0.4018
    6CHTO  H105 2316   7.148   5.008   1.579  0.3718  0.9597 -0.5322
    6CHTO   O38 2317   7.280   4.950   1.031 -0.6037  0.0849  0.2378
    6CHTO   C55 2318   7.418   4.963   1.061 -0.1808 -0.1679 -0.3153
    6CHTO  H112 2319   7.425   4.992   1.166 -2.2334  0.9359 -0.4704
    6CHTO   C56 2320   7.477   5.070   0.969 -0.3688 -0.2679  0.3655
    6CHTO  H113 2321   7.437   5.047   0.868  0.4442  1.8404 -0.4589
    6CHTO   O42 2322   7.428   5.197   1.010  0.2147 -0.7026  0.0217
    6CHTO  H100 2323   7.334   5.193   1.011 -0.0014  2.5712  2.0428
    6CHTO   C57 2324   7.638   5.079   0.971 -0.6266 -0.2537  0.0884
    6CHTO  H114 2325   7.664   5.138   1.059  0.7597 -3.1553  1.6907
    6CHTO   N10 2326   7.699   5.145   0.854  0.0914  0.3283  0.4015
    6CHTO  H106 2327   7.787   5.204   0.873 -0.0541  0.3623  0.9804
    6CHTO  H107 2328   7.732   5.073   0.781  1.5934  2.0864 -0.6922
    6CHTO   C58 2329   7.706   4.947   0.991  0.3764 -0.3349  0.6974
    6CHTO  H115 2330   7.734   4.895   0.897  1.1609  1.1128  0.1293
    6CHTO   O37 2331   7.626   4.855   1.072 -0.2843 -0.0582  0.0220
    6CHTO   C59 2332   7.490   4.834   1.037  0.5171  0.3171 -0.2742
    6CHTO  H116 2333   7.485   4.810   0.931 -0.8553  0.5530 -0.2718
    6CHTO   C70 2334   7.437   4.721   1.129  0.4363 -0.3050 -0.1250
    6CHTO   O46 2335   7.514   4.606   1.109  0.1816 -0.0745  0.1210
    6CHTO  H103 2336   7.470   4.531   1.144  1.7120  0.5767  3.7342
    6CHTO   O39 2337   7.833   4.963   1.081 -0.0522  0.2548  0.1816
    6CHTO   C60 2338   7.950   4.888   1.046  0.0999  0.5720 -0.5266
    6CHTO  H117 2339   7.932   4.780   1.043 -0.9354  0.7108  0.6978
    6CHTO   C62 2340   8.017   4.924   0.912 -0.3490  0.0009 -0.1932
    6CHTO  H119 2341   7.948   4.879   0.839 -0.6976 -1.0328  0.7711
    6CHTO   O43 2342   8.019   5.064   0.892  0.0315 -0.7126 -0.0086
    6CHTO  H101 2343   7.955   5.085   0.827  0.6617  0.8363 -0.1592
    6CHTO   C66 2344   8.163   4.863   0.886 -0.7889  0.4155 -0.5214
    6CHTO  H123 2345   8.158   4.755   0.877 -0.3559  0.2033  1.5370
    6CHTO   N12 2346   8.217   4.905   0.752  0.2044  0.0122  0.1516
    6CHTO  H110 2347   8.201   5.012   0.749 -1.2442 -0.0947  2.5589
    6CHTO  H111 2348   8.153   4.860   0.678 -1.4103  0.6469  1.1361
    6CHTO   C69 2349   8.262   4.905   0.992 -0.3997  0.4817 -0.6633
    6CHTO  H126 2350   8.265   5.016   0.998  1.0804  0.3900  0.8248
    6CHTO   O41 2351   8.210   4.857   1.126  0.4196 -0.0466  0.0591
    6CHTO   C64 2352   8.054   4.901   1.161  0.6253  0.1718  0.2958
    6CHTO  H121 2353   8.057   5.005   1.199 -2.2629 -0.0999  1.3874
    6CHTO   C71 2354   8.026   4.808   1.281 -0.0341 -0.4920  0.0006
    6CHTO   O47 2355   7.900   4.841   1.340 -0.1487 -0.4618  0.0401
    6CHTO  H104 2356   7.855   4.767   1.374  0.7294 -1.5779 -1.1848
    6CHTO   O34 2357   8.429   4.856   0.963  0.5393 -0.2093  0.0176
    6CHTO   C49 2358   8.546   4.909   0.865  0.1253  0.5475  0.2249
    6CHTO   H91 2359   8.528   4.864   0.767 -0.7836  1.1097  0.1296
    6CHTO   C47 2360   8.670   4.840   0.927 -0.1360 -0.2669  0.2596
    6CHTO   H89 2361   8.749   4.861   0.852 -1.0396  0.3093 -0.5332
    6CHTO   O33 2362   8.648   4.697   0.938 -0.8413 -0.1024 -0.2824
    6CHTO   H70 2363   8.703   4.644   0.883 -3.2257 -3.0260  0.0153
    6CHTO   C45 2364   8.709   4.908   1.076  0.1790  0.2190  0.2492
    6CHTO   H87 2365   8.663   4.849   1.156  0.0639  0.5499  0.4246
    6CHTO    N8 2366   8.853   4.896   1.092 -0.5475 -0.0643  0.2939
    6CHTO   H75 2367   8.891   4.970   1.160 -3.8131  1.2404  0.7677
    6CHTO   H76 2368   8.879   4.798   1.131 -0.7734  0.3784  1.5727
    6CHTO   C43 2369   8.652   5.065   1.081 -0.2193 -0.5071 -0.1588
    6CHTO   H85 2370   8.555   5.067   1.130 -0.3204  0.3431 -0.3916
    6CHTO   O29 2371   8.653   5.122   0.950 -0.6004  0.0294  0.1233
    6CHTO   C50 2372   8.562   5.060   0.856  0.0020 -0.6928  0.8208
    6CHTO   H92 2373   8.472   5.123   0.870  1.5714  1.1855  2.8213
    6CHTO   C54 2374   8.609   5.107   0.720  0.0789  0.1930  0.0855
    6CHTO   O36 2375   8.499   5.093   0.626  0.6798  0.3874  0.3183
    6CHTO   H72 2376   8.512   5.081   0.534 -0.2825 -1.9479  0.4494
    6CHTO   O27 2377   8.734   5.145   1.169  0.1403  0.3812  0.4199
    6CHTO   C37 2378   8.844   5.223   1.230  0.4885  0.4572  0.6286
    6CHTO   H79 2379   8.925   5.153   1.257  0.6089 -0.6648 -2.4732
    6CHTO   C38 2380   8.903   5.340   1.137  0.4060  0.6088  0.3190
    6CHTO   H80 2381   8.816   5.386   1.088 -0.0626 -1.0440 -0.4393
    6CHTO   O31 2382   8.992   5.280   1.045 -0.1354  0.6823  0.2237
    6CHTO   H68 2383   9.078   5.271   1.083 -0.4821 -1.4232  0.5879
    6CHTO   C39 2384   8.983   5.449   1.215 -0.6409  0.5010  0.9542
    6CHTO   H81 2385   9.078   5.411   1.255 -1.4473 -0.7915  1.6746
    6CHTO    N7 2386   9.017   5.569   1.133  0.4047 -0.3896 -0.0739
    6CHTO   H73 2387   8.944   5.646   1.150  2.2002  1.5282 -0.8961
    6CHTO   H74 2388   9.119   5.600   1.149  0.4209 -0.6637  0.3680
    6CHTO   C40 2389   8.905   5.486   1.349 -0.0298 -0.5560 -0.6159
    6CHTO   H82 2390   8.811   5.539   1.331  1.5760  1.7067 -2.7871
    6CHTO   O26 2391   8.889   5.367   1.421  0.4016  0.3192 -0.4077
    6CHTO   C41 2392   8.794   5.283   1.357  0.4693  0.7768  0.2947
    6CHTO   H83 2393   8.701   5.334   1.327 -0.4394  0.2187  2.0995
    6CHTO   C52 2394   8.746   5.177   1.461 -0.0001  0.7530  0.3379
    6CHTO   O35 2395   8.842   5.105   1.546  0.0365  0.0129 -0.3100
    6CHTO   H71 2396   8.788   5.077   1.618  0.7839 -0.0457  0.2270
    6CHTO   O28 2397   8.993   5.568   1.433 -0.1273 -0.5297  0.4285
    6CHTO   C42 2398   8.960   5.636   1.554  0.1146  0.4526 -0.4826
    6CHTO   H84 2399   9.046   5.702   1.571 -0.4134  1.1073 -0.3261
    6CHTO   C44 2400   8.946   5.546   1.682  0.0911 -0.1095  0.3774
    6CHTO   H86 2401   8.856   5.488   1.666  0.0076 -0.0417  0.6017
    6CHTO   O32 2402   9.066   5.470   1.696 -0.0611 -0.5699  0.5912
    6CHTO   H69 2403   9.083   5.431   1.779  0.5046 -0.9155  0.3153
    6CHTO   C48 2404   8.922   5.626   1.811  0.3874  0.6185 -0.3540
    6CHTO   H90 2405   9.015   5.676   1.838  0.3375  0.5145  0.0168
    6CHTO    N9 2406   8.892   5.529   1.931  0.5529  0.1201  0.0623
    6CHTO   H77 2407   8.961   5.446   1.928  1.2553  0.7227 -0.6261
    6CHTO   H78 2408   8.916   5.584   2.021  1.2102  1.0223 -0.6604
    6CHTO   C51 2409   8.797   5.721   1.789  0.7587  0.7754  0.1340
    6CHTO   H93 2410   8.707   5.663   1.775  1.2920  0.0868 -0.4926
    6CHTO   O30 2411   8.818   5.805   1.677  0.9123 -0.3308  0.5008
    6CHTO   C46 2412   8.840   5.735   1.541  0.3444  0.0450 -0.2305
    6CHTO   H88 2413   8.746   5.683   1.521  1.0583 -0.8063 -1.4814
    6CHTO   C53 2414   8.863   5.853   1.443  0.1816 -0.4949 -0.1550
    6CHTO   O72 2415   8.978   5.929   1.471 -0.3403 -0.5142  0.4843
    6CHTO  H199 2416   9.009   5.969   1.392  1.3278 -0.4245  1.1583
    6CHTO   O22 2417   8.784   5.815   1.899 -0.2010 -0.0258  0.0489
    6CHTO   C31 2418   8.658   5.881   1.928 -0.2521  0.7002 -0.1597
    6CHTO   H59 2419   8.685   5.960   2.002  1.2280 -0.9533  1.0872
    6CHTO   C29 2420   8.585   5.954   1.813 -0.5253  0.4013 -0.1823
    6CHTO   H57 2421   8.575   5.878   1.735  3.5174 -0.9110  0.5031
    6CHTO   O21 2422   8.676   6.049   1.764 -0.3780 -0.2272  0.9724
    6CHTO   H37 2423   8.698   6.110   1.832 -0.3402  1.2345 -0.3101
    6CHTO   C27 2424   8.451   6.012   1.846 -0.2596 -0.0916  0.3539
    6CHTO   H55 2425   8.467   6.097   1.914  0.5142 -0.4253  0.5809
    6CHTO    N5 2426   8.384   6.068   1.726 -0.3918  0.2030  0.2249
    6CHTO   H43 2427   8.338   5.994   1.664  0.5816  0.4651 -0.8216
    6CHTO   H44 2428   8.302   6.129   1.761 -2.1347 -1.5215 -0.7735
    6CHTO   C25 2429   8.365   5.908   1.920  0.3183 -0.6386  0.5983
    6CHTO   H53 2430   8.356   5.820   1.855  0.6792  0.0201 -0.3555
    6CHTO   O17 2431   8.437   5.864   2.040  0.0892 -0.0015 -0.1230
    6CHTO   C32 2432   8.555   5.791   2.012 -0.2684 -0.4657 -0.3255
    6CHTO   H60 2433   8.528   5.705   1.951  0.5915  1.0763 -2.9616
    6CHTO   C36 2434   8.608   5.733   2.143 -1.3168  0.2744 -0.2920
    6CHTO   O25 2435   8.663   5.844   2.211  0.2047  0.3101 -0.0011
    6CHTO   H40 2436   8.743   5.863   2.165  1.2975 -1.3768  1.1211
    6CHTO   O15 2437   8.222   5.954   1.958  0.1371 -0.3341 -0.3171
    6CHTO   C19 2438   8.137   6.051   2.029  0.2258 -0.2002 -0.9002
    6CHTO   H47 2439   8.172   6.040   2.132 -0.8436 -0.2041 -0.5286
    6CHTO   C20 2440   8.142   6.199   1.988 -0.0851  0.2515 -0.2355
    6CHTO   H48 2441   8.104   6.213   1.886  0.0784 -1.2016 -0.4974
    6CHTO   O19 2442   8.279   6.238   2.008  0.0781 -0.5705  0.2929
    6CHTO   H35 2443   8.286   6.327   1.979 -0.9001 -0.6280 -0.1490
    6CHTO   C21 2444   8.047   6.292   2.071 -0.4741 -0.2932 -0.1910
    6CHTO   H49 2445   8.082   6.291   2.175 -0.0867 -1.7648 -0.3280
    6CHTO    N4 2446   8.050   6.436   2.034 -0.1033  0.1505 -0.3993
    6CHTO   H41 2447   7.974   6.489   2.091  0.1284  1.1808 -1.0391
    6CHTO   H42 2448   8.026   6.443   1.929 -2.0893  0.7189  0.0646
    6CHTO   C22 2449   7.905   6.230   2.065  0.5841 -0.1343 -0.1218
    6CHTO   H50 2450   7.872   6.227   1.961 -0.2378 -0.6561  0.1503
    6CHTO   O14 2451   7.907   6.095   2.113 -0.0195 -0.4241 -0.0505
    6CHTO   C23 2452   7.981   6.010   2.033 -1.0208 -0.2862 -0.3197
    6CHTO   H51 2453   7.939   6.012   1.931  2.4623 -1.7850 -1.8705
    6CHTO   C34 2454   7.970   5.867   2.089 -0.1032  0.0825 -0.2089
    6CHTO   O23 2455   7.837   5.819   2.102  0.0994  0.5868 -0.3973
    6CHTO   H38 2456   7.799   5.852   2.181 -1.5953 -0.7731 -0.5996
    6CHTO   O16 2457   7.816   6.288   2.161 -0.1104  0.2921  0.4107
    6CHTO   C24 2458   7.669   6.363   2.096 -0.4078 -0.7060  0.1063
    6CHTO   H52 2459   7.671   6.372   1.987 -2.9138  0.7179  0.1332
    6CHTO   C26 2460   7.662   6.494   2.172  0.3301 -0.0582  0.1903
    6CHTO   H54 2461   7.666   6.470   2.281 -1.0993 -0.8118  0.0895
    6CHTO   O20 2462   7.774   6.587   2.148  0.2998  0.6586 -0.1964
    6CHTO   H36 2463   7.754   6.676   2.168 -0.2241  0.3343  0.7848
    6CHTO   C30 2464   7.527   6.568   2.146  0.6914 -0.3310 -0.1334
    6CHTO   H58 2465   7.528   6.612   2.046 -2.6925  2.2916  0.9031
    6CHTO    N6 2466   7.514   6.680   2.244 -0.2439  0.0313 -0.1533
    6CHTO   H45 2467   7.437   6.747   2.209  0.1207  0.3294 -0.3956
    6CHTO   H46 2468   7.470   6.634   2.332 -0.0828  0.4718  0.1637
    6CHTO   C33 2469   7.405   6.471   2.149 -0.5007 -0.2708 -0.2880
    6CHTO   H61 2470   7.385   6.447   2.255 -0.0708  1.3674  0.1789
    6CHTO   O18 2471   7.433   6.352   2.075 -0.0472 -0.1465  0.9110
    6CHTO   C28 2472   7.541   6.282   2.135  0.2228 -0.1784  0.0788
    6CHTO   H56 2473   7.537   6.262   2.242 -1.1411  1.1739  0.2967
    6CHTO   C35 2474   7.538   6.138   2.080 -0.9213  0.1780 -0.1652
    6CHTO   O24 2475   7.627   6.057   2.160 -0.5368 -0.4631 -0.3534
    6CHTO   H39 2476   7.616   5.966   2.141  0.6915 -0.4104 -1.4700
    6CHTO    O9 2477   7.292   6.542   2.101  0.3042 -0.0473  0.3213
    6CHTO   C13 2478   7.169   6.544   2.200  0.1003  0.3539  0.3462
    6CHTO   H26 2479   7.219   6.573   2.296  1.0248 -0.8732  0.2448
    6CHTO   C11 2480   7.101   6.398   2.213 -0.6680  0.4245  0.0236
    6CHTO   H24 2481   7.166   6.331   2.271  1.7898  0.9049 -2.0502
    6CHTO    O8 2482   7.087   6.349   2.084  0.2020 -0.6879  0.2305
    6CHTO    H3 2483   7.060   6.259   2.079 -1.1329 -0.2953  0.3249
    6CHTO    C9 2484   6.965   6.418   2.282 -0.0410  0.5163  0.6272
    6CHTO   H22 2485   6.989   6.470   2.376 -3.0664  1.3145  0.9958
    6CHTO    N2 2486   6.909   6.292   2.322  0.2785 -0.0041 -0.1180
    6CHTO   H10 2487   6.922   6.289   2.429  0.9777  0.9641 -0.1699
    6CHTO   H11 2488   6.948   6.205   2.271 -0.4245 -0.5324  0.2448
    6CHTO    C7 2489   6.875   6.508   2.194  0.3866  0.1418  0.3502
    6CHTO   H20 2490   6.774   6.503   2.241 -0.9460  0.5015 -2.3459
    6CHTO    O4 2491   6.928   6.640   2.200 -0.2112 -0.1532 -0.5334
    6CHTO   C14 2492   7.063   6.663   2.164  0.7899  0.1920 -0.3124
    6CHTO   H27 2493   7.087   6.757   2.218  1.3004 -0.1572  0.0769
    6CHTO   C18 2494   7.073   6.686   2.011 -0.3427  0.4238  1.1356
    6CHTO   O13 2495   6.977   6.779   1.961 -0.4303  0.6976 -0.7160
    6CHTO    H7 2496   6.957   6.762   1.870 -2.2416  1.5188 -0.4978
    6CHTO    O2 2497   6.855   6.463   2.030 -0.6623  0.4973 -0.6345
    6CHTO    C1 2498   6.724   6.443   1.978  0.0107 -0.2403  0.6384
    6CHTO   H14 2499   6.737   6.416   1.872  1.2176  1.1048  0.4322
    6CHTO    C2 2500   6.631   6.569   1.983 -0.3530  0.4905  0.5056
    6CHTO   H15 2501   6.616   6.593   2.089 -1.3821 -0.5138  0.5971
    6CHTO    O6 2502   6.697   6.679   1.917  0.3998 -0.0064  0.6904
    6CHTO    H1 2503   6.777   6.690   1.966  1.0442  0.7915 -0.5213
    6CHTO    C3 2504   6.496   6.549   1.914  0.2619  0.6831 -0.3030
    6CHTO   H16 2505   6.522   6.545   1.807  0.1044 -0.5067 -0.3071
    6CHTO    N1 2506   6.400   6.665   1.927  0.0484 -0.0855  0.0691
    6CHTO    H8 2507   6.364   6.669   2.029 -0.9782  1.2995 -0.3402
    6CHTO    H9 2508   6.325   6.686   1.852  2.0073  1.7181 -1.4320
    6CHTO    C4 2509   6.433   6.417   1.956  0.6393  0.3125 -0.3745
    6CHTO   H17 2510   6.388   6.428   2.055 -2.1469 -2.3823 -1.2496
    6CHTO    O1 2511   6.528   6.312   1.966  0.5260 -0.8345  0.7280
    6CHTO    C5 2512   6.649   6.328   2.033 -0.6262  0.8009 -1.0854
    6CHTO   H18 2513   6.621   6.347   2.137 -1.3276  1.0202 -1.3173
    6CHTO   C16 2514   6.732   6.193   2.036  0.3589  0.3037 -0.1207
    6CHTO   O11 2515   6.667   6.103   2.127  0.3434  0.0829  0.2598
    6CHTO    H5 2516   6.598   6.060   2.082  0.9313  0.3792 -0.9447
    6CHTO    O3 2517   6.333   6.360   1.874  0.4901  0.4833  0.0083
    6CHTO    C6 2518   6.214   6.318   1.954  0.0442 -0.6826 -0.4434
    6CHTO   H19 2519   6.207   6.346   2.059 -0.1880 -0.9313 -0.3913
    6CHTO    C8 2520   6.088   6.387   1.891 -0.0712 -0.5041  0.4713
    6CHTO   H21 2521   6.071   6.349   1.790 -1.6896  1.1620  0.0880
    6CHTO    O7 2522   6.102   6.526   1.886  0.6756 -0.5993  0.0495
    6CHTO    H2 2523   6.152   6.553   1.811 -1.4420  1.9098 -0.5416
    6CHTO   C12 2524   5.956   6.344   1.968 -0.1996  0.3762 -0.3367
    6CHTO   H25 2525   5.962   6.396   2.066  0.7221  0.7234 -0.5773
    6CHTO    N3 2526   5.826   6.400   1.908  0.1989 -0.8644 -0.0822
    6CHTO   H12 2527   5.821   6.505   1.884 -0.5644 -0.4033  2.0281
    6CHTO   H13 2528   5.779   6.341   1.831  0.3957  2.5795 -2.9757
    6CHTO   C15 2529   5.950   6.190   1.989 -0.5107  0.3568 -0.3049
    6CHTO   H28 2530   5.922   6.140   1.896 -0.2266  0.1325 -0.2678
    6CHTO   O10 2531   5.862   6.147   2.091  0.0817  0.3068 -0.5206
    6CHTO    H4 2532   5.776   6.142   2.056 -0.0106  1.4709 -0.4993
    6CHTO    O5 2533   6.079   6.143   2.038 -0.0052  0.6991  0.0619
    6CHTO   C10 2534   6.189   6.169   1.948 -0.2332  0.3696  0.4899
    6CHTO   H23 2535   6.172   6.121   1.852 -1.0754  0.9746  0.3311
    6CHTO   C17 2536   6.310   6.088   2.010  0.2185  0.2465 -0.1991
    6CHTO   O12 2537   6.296   5.943   2.010 -0.7111  0.4153 -0.4418
    6CHTO    H6 2538   6.369   5.898   2.048 -0.8617 -0.7214 -1.4646
    7CHTO  H203 2539   5.210   2.134   2.132 -0.6521  2.5091 -3.1946
    7CHTO   O82 2540   5.260   2.065   2.093 -0.6821  0.3777  0.2639
    7CHTO  C123 2541   5.401   2.100   2.111 -0.3798  0.6075  0.9553
    7CHTO  H227 2542   5.405   2.209   2.109 -0.2903  0.5916 -0.3682
    7CHTO   O77 2543   5.442   2.055   2.244  0.3821 -0.8473 -0.9979
    7CHTO  C118 2544   5.560   2.121   2.293  0.8313  0.4241 -0.6919
    7CHTO  H222 2545   5.548   2.229   2.306  0.3228  0.2019  0.8540
    7CHTO  C125 2546   5.595   2.056   2.433 -0.0169  0.3797 -0.4636
    7CHTO   O84 2547   5.500   2.090   2.529 -0.0151 -0.4300 -0.2718
    7CHTO  H205 2548   5.540   2.065   2.610 -1.8385 -0.9811  0.4754
    7CHTO  C114 2549   5.669   2.082   2.194  0.1381  0.0513 -0.9951
    7CHTO  H218 2550   5.678   1.973   2.198  1.4444  0.1698 -0.4644
    7CHTO  C116 2551   5.637   2.108   2.047  0.4241  0.5756  0.3600
    7CHTO  H220 2552   5.636   2.216   2.021  1.2294  1.0378  2.1509
    7CHTO   O79 2553   5.745   2.059   1.962 -0.1358  0.2446 -0.1068
    7CHTO  H201 2554   5.724   2.070   1.871  0.3691  0.6977 -0.1737
    7CHTO  C120 2555   5.501   2.036   2.015  0.1069 -0.2276  0.2324
    7CHTO  H224 2556   5.524   1.930   2.040  3.3695  0.6530  1.3065
    7CHTO   N21 2557   5.453   2.048   1.874  0.2864  0.3776  0.3981
    7CHTO  H211 2558   5.346   2.049   1.864  0.1080  0.0217  2.1992
    7CHTO  H212 2559   5.493   2.139   1.832 -1.0108  0.2218 -1.2286
    7CHTO   O75 2560   5.781   2.156   2.242 -0.1679 -0.6479  0.7073
    7CHTO  C112 2561   5.932   2.092   2.235 -0.4230 -0.2415  0.3590
    7CHTO  H216 2562   5.938   2.019   2.153 -0.0290  0.4699 -0.2554
    7CHTO   O73 2563   5.962   2.033   2.362  0.0098  0.2331 -0.0159
    7CHTO  C113 2564   6.092   1.981   2.367 -0.3874 -0.2142  0.3190
    7CHTO  H217 2565   6.108   1.910   2.283  0.0826 -0.6172  0.7471
    7CHTO  C124 2566   6.104   1.899   2.489 -0.0328  0.1543  0.3110
    7CHTO   O83 2567   6.067   1.955   2.615 -0.1267  0.0628  0.2276
    7CHTO  H204 2568   6.058   1.882   2.673 -2.0276  2.7749  3.5207
    7CHTO  C109 2569   6.193   2.092   2.355  0.3133 -0.0417  0.2183
    7CHTO  H213 2570   6.172   2.163   2.437 -0.0662  1.2809 -1.0136
    7CHTO  C110 2571   6.173   2.159   2.220  0.2453 -0.2513  0.2791
    7CHTO  H214 2572   6.193   2.086   2.142  0.4520  0.4823 -0.3646
    7CHTO   O78 2573   6.270   2.269   2.215 -0.1627 -0.7687 -0.5753
    7CHTO  H200 2574   6.351   2.242   2.176 -0.4364 -0.7108 -1.1932
    7CHTO  C111 2575   6.024   2.213   2.207  0.2275  0.7180  0.5427
    7CHTO  H215 2576   6.005   2.283   2.290  0.9187 -0.6647  1.9029
    7CHTO   N19 2577   5.986   2.289   2.080 -0.0974  0.3530  0.1555
    7CHTO  H207 2578   6.014   2.391   2.102 -0.7967  1.2300 -2.8966
    7CHTO  H208 2579   6.037   2.248   1.994 -3.4582  1.8941 -2.6234
    7CHTO   O74 2580   6.331   2.040   2.371 -0.1133  0.2746 -0.2096
    7CHTO  C115 2581   6.422   2.146   2.458 -0.0206  0.0699 -0.0205
    7CHTO  H219 2582   6.377   2.245   2.451 -0.1249 -0.0509 -1.0892
    7CHTO   O76 2583   6.419   2.115   2.619 -0.2478  0.0786  0.4493
    7CHTO  C122 2584   6.488   2.000   2.665 -0.2200 -0.3442  0.2109
    7CHTO  H226 2585   6.437   1.909   2.632  0.6880 -1.2615  1.2806
    7CHTO  C126 2586   6.484   1.998   2.818 -0.6872 -0.1669  0.2971
    7CHTO   O85 2587   6.544   1.881   2.875 -0.7877  0.3343 -0.1195
    7CHTO  H206 2588   6.632   1.862   2.847 -1.7448 -4.6181 -0.1757
    7CHTO  C121 2589   6.641   2.003   2.608  0.6022 -0.0951 -1.3783
    7CHTO  H225 2590   6.670   2.099   2.655 -0.2120  0.1850 -1.4544
    7CHTO   O81 2591   6.728   1.898   2.659 -0.6765 -0.0464 -0.1142
    7CHTO  H202 2592   6.819   1.912   2.640 -0.7881  0.3985 -0.3477
    7CHTO  C119 2593   6.640   2.020   2.453  0.0756  0.2788 -0.3359
    7CHTO  H223 2594   6.746   2.028   2.431  0.3044  1.2170  1.0292
    7CHTO  C117 2595   6.573   2.146   2.397  0.9407  0.6119 -0.5920
    7CHTO  H221 2596   6.561   2.156   2.289  0.7660  1.6052 -0.4813
    7CHTO   N20 2597   6.651   2.269   2.436  0.1058 -0.0494  0.2982
    7CHTO  H209 2598   6.590   2.350   2.473 -0.2194  0.0315 -0.3899
    7CHTO  H210 2599   6.736   2.297   2.375 -1.4624  4.7505  0.1303
    7CHTO   O80 2600   6.603   1.905   2.386  0.0439  0.3148  0.0909
    7CHTO  C103 2601   6.691   1.839   2.283  0.5507 -0.3385 -0.0798
    7CHTO  H190 2602   6.693   1.888   2.185 -1.1336  2.2495  1.1387
    7CHTO  C101 2603   6.845   1.810   2.312 -0.2371 -0.0273  0.1164
    7CHTO  H188 2604   6.864   1.769   2.411  1.5555  1.5058  0.4453
    7CHTO   O68 2605   6.921   1.931   2.303 -0.4122  0.0501 -0.2422
    7CHTO  H168 2606   6.918   1.965   2.216 -0.5002 -0.0637 -0.2846
    7CHTO   C99 2607   6.912   1.706   2.204 -0.1211  0.4100 -0.2837
    7CHTO  H186 2608   6.918   1.755   2.104 -1.6116  1.2973  0.0484
    7CHTO   N17 2609   7.051   1.660   2.236  0.6729 -0.0796  0.0842
    7CHTO  H174 2610   7.057   1.604   2.328  0.9279  1.5855  1.0848
    7CHTO  H175 2611   7.088   1.597   2.156  0.1947 -1.5669  1.0135
    7CHTO   C97 2612   6.819   1.580   2.181  0.0600  0.7337  0.1412
    7CHTO  H184 2613   6.819   1.519   2.273 -0.5064 -1.3447 -1.2218
    7CHTO   O64 2614   6.686   1.631   2.153  0.1519 -0.1038  0.1615
    7CHTO  C104 2615   6.623   1.695   2.264 -0.1613 -0.2256 -0.2785
    7CHTO  H191 2616   6.651   1.628   2.345  0.0055  0.3970  0.1822
    7CHTO  C108 2617   6.473   1.700   2.257 -0.0920 -0.3657  0.4765
    7CHTO   O71 2618   6.398   1.579   2.262 -0.6627 -0.1460  0.5053
    7CHTO  H171 2619   6.334   1.575   2.193  0.7581 -0.8322 -0.8029
    7CHTO   O62 2620   6.862   1.499   2.070  0.3279 -0.0478  0.1056
    7CHTO   C91 2621   6.791   1.368   2.051 -0.3298 -0.1126 -0.2526
    7CHTO  H178 2622   6.849   1.313   1.976  0.3160  0.5131 -0.2244
    7CHTO   C92 2623   6.658   1.392   1.978  0.3980 -0.3094 -0.5091
    7CHTO  H179 2624   6.623   1.494   2.000 -1.1464 -0.7873 -0.7370
    7CHTO   O66 2625   6.684   1.381   1.835 -0.1440  0.2777 -0.2271
    7CHTO  H166 2626   6.718   1.460   1.798 -1.0498  0.8902  0.2271
    7CHTO   C93 2627   6.543   1.280   2.009  0.1137 -0.5738  1.0179
    7CHTO  H180 2628   6.582   1.189   1.960  1.3654  0.3541  0.2400
    7CHTO   N16 2629   6.416   1.315   1.950  0.4834  0.7562  0.1253
    7CHTO  H172 2630   6.390   1.238   1.879  1.9855 -0.8032  1.2367
    7CHTO  H173 2631   6.407   1.408   1.895  0.8487  1.1274  0.6847
    7CHTO   C94 2632   6.533   1.259   2.160 -1.0358 -0.5056 -0.0140
    7CHTO  H181 2633   6.471   1.335   2.208 -1.1851 -0.9467  0.4942
    7CHTO   O61 2634   6.657   1.263   2.233  0.4780 -0.5997 -0.1714
    7CHTO   C95 2635   6.791   1.269   2.176 -0.1410  0.1811 -0.3063
    7CHTO  H182 2636   6.864   1.305   2.249 -1.2233  2.0521 -0.1109
    7CHTO  C106 2637   6.829   1.123   2.131  0.0596 -0.3978 -0.1385
    7CHTO   O69 2638   6.861   1.045   2.251  0.0176  0.0475  0.0496
    7CHTO  H169 2639   6.947   1.009   2.243  0.1380  0.4113 -0.3244
    7CHTO   O63 2640   6.462   1.110   2.184 -0.0118  0.5457 -0.8081
    7CHTO   C96 2641   6.439   1.068   2.347 -0.1433  0.4047 -0.4657
    7CHTO  H183 2642   6.489   1.139   2.412 -0.4279  0.0104  0.1879
    7CHTO   C98 2643   6.503   0.932   2.392  0.2118 -0.2901 -0.3411
    7CHTO  H185 2644   6.488   0.863   2.307 -1.5911 -0.0398 -0.2252
    7CHTO   O67 2645   6.645   0.946   2.400  0.2894  0.5707  0.3313
    7CHTO  H167 2646   6.685   0.978   2.321 -0.0275 -0.3690 -0.2244
    7CHTO  C102 2647   6.437   0.876   2.526  0.7548  0.2536  0.2562
    7CHTO  H189 2648   6.464   0.950   2.603  1.0617 -1.0109  1.3786
    7CHTO   N18 2649   6.492   0.749   2.580 -0.1863  0.4337 -0.2517
    7CHTO  H176 2650   6.497   0.664   2.514  1.4132  0.3762 -0.0846
    7CHTO  H177 2651   6.582   0.769   2.636 -0.3806  1.9244 -0.4499
    7CHTO  C105 2652   6.283   0.866   2.495 -0.0787  0.2211  0.1718
    7CHTO  H192 2653   6.276   0.828   2.393  1.7508  0.0844  0.0784
    7CHTO   O65 2654   6.231   0.999   2.492 -0.1902  0.2403 -0.1454
    7CHTO  C100 2655   6.282   1.081   2.379 -0.1611 -0.6710  0.4976
    7CHTO  H187 2656   6.231   1.045   2.289  1.8265 -1.6806 -0.2494
    7CHTO  C107 2657   6.228   1.231   2.397  0.4539 -0.1063  0.0177
    7CHTO   O70 2658   6.087   1.256   2.409  0.5712 -0.0172  0.2222
    7CHTO  H170 2659   6.079   1.332   2.465 -0.3310  0.4208 -0.4830
    7CHTO   O57 2660   6.195   0.765   2.584  0.2247  0.7515  0.0758
    7CHTO   C85 2661   6.095   0.676   2.520 -0.2552 -0.4953 -0.3059
    7CHTO  H157 2662   6.116   0.686   2.412 -2.2474  0.7365 -0.5902
    7CHTO   C83 2663   5.958   0.737   2.548 -0.0380 -0.6940 -0.5168
    7CHTO  H155 2664   5.955   0.835   2.501 -1.9768 -0.1051  0.7718
    7CHTO   O56 2665   5.951   0.753   2.692  0.3987  0.9788 -0.0863
    7CHTO  H135 2666   5.897   0.827   2.708  0.3784  1.6306 -2.8185
    7CHTO   C81 2667   5.837   0.655   2.488 -0.7937  1.0951 -0.6189
    7CHTO  H153 2668   5.839   0.669   2.380  0.5019 -1.1288 -0.9109
    7CHTO   N14 2669   5.711   0.724   2.533  0.3484 -0.0772 -0.8433
    7CHTO  H141 2670   5.629   0.671   2.489  0.7075  0.1689 -1.8116
    7CHTO  H142 2671   5.711   0.829   2.509  1.0136  0.2407  0.4968
    7CHTO   C79 2672   5.855   0.500   2.517  0.0864 -0.6623 -0.9517
    7CHTO  H151 2673   5.805   0.453   2.432 -0.5530 -3.4260  0.8939
    7CHTO   O52 2674   5.989   0.461   2.493  0.4150  0.8270  0.2823
    7CHTO   C86 2675   6.093   0.531   2.566 -0.4379 -0.3296 -0.1529
    7CHTO  H158 2676   6.069   0.519   2.673  0.1629 -0.2831 -0.0151
    7CHTO   C90 2677   6.231   0.468   2.550  0.0282  0.5856  0.0444
    7CHTO   O60 2678   6.230   0.341   2.607 -0.2231  0.0629  0.1323
    7CHTO  H138 2679   6.255   0.346   2.697  1.2816  1.1411 -0.3201
    7CHTO   O50 2680   5.813   0.465   2.649 -0.4009  0.1789  0.3342
    7CHTO   C73 2681   5.802   0.351   2.732 -0.4472  0.2248 -0.3934
    7CHTO  H145 2682   5.897   0.299   2.747 -0.3297  0.5574  0.0210
    7CHTO   C74 2683   5.687   0.263   2.671 -0.4434 -0.0700 -0.1338
    7CHTO  H146 2684   5.722   0.240   2.569 -0.7223  0.1831 -0.2883
    7CHTO   O54 2685   5.702   0.134   2.734  0.4767 -0.1616  0.2069
    7CHTO  H133 2686   5.717   0.066   2.672  2.4569  0.1093  0.3365
    7CHTO   C75 2687   5.547   0.331   2.672  0.1877 -0.0252  0.3413
    7CHTO  H147 2688   5.558   0.430   2.625  0.0863 -0.4725 -0.6471
    7CHTO   N13 2689   5.443   0.250   2.602 -0.7412  0.6240  0.2953
    7CHTO  H139 2690   5.410   0.311   2.519  3.1278 -0.2338 -1.9854
    7CHTO  H140 2691   5.479   0.153   2.571 -1.8226  0.5806 -0.8664
    7CHTO   C76 2692   5.512   0.366   2.828 -0.1035 -0.5415 -0.5789
    7CHTO  H148 2693   5.512   0.270   2.878 -1.2612  0.6385  1.7591
    7CHTO   O49 2694   5.614   0.449   2.882  0.1952 -0.3492  0.5911
    7CHTO   C77 2695   5.748   0.387   2.871 -0.1405  0.5308 -0.0474
    7CHTO  H149 2696   5.754   0.296   2.932  2.1327  1.0764  0.6013
    7CHTO   C88 2697   5.852   0.480   2.936 -0.2835 -0.2355  0.6323
    7CHTO   O58 2698   5.801   0.517   3.083 -0.1524 -0.1603  0.6162
    7CHTO  H136 2699   5.794   0.437   3.133 -0.9229 -0.1545  0.5221
    7CHTO   O51 2700   5.358   0.455   2.838  0.3087  0.0491  0.4087
    7CHTO   C78 2701   5.308   0.456   3.001  0.1889  0.2209 -0.0164
    7CHTO  H150 2702   5.381   0.419   3.077 -0.3798  0.1503  0.5019
    7CHTO   C80 2703   5.182   0.374   3.009 -0.0204 -0.2651 -0.2910
    7CHTO  H152 2704   5.102   0.428   2.953  1.1448  0.0231 -1.6992
    7CHTO   O55 2705   5.207   0.249   2.953 -0.1255 -0.0125 -0.3047
    7CHTO  H134 2706   5.122   0.212   2.938 -0.3605 -0.4906  1.9622
    7CHTO   C84 2707   5.126   0.374   3.158 -0.1419  0.1742 -0.2276
    7CHTO  H156 2708   5.192   0.314   3.221 -1.7942  0.5637  1.9695
    7CHTO   N15 2709   4.988   0.304   3.166  0.3238 -0.9269 -0.0269
    7CHTO  H143 2710   4.959   0.293   3.268 -0.8513 -1.6063 -0.4249
    7CHTO  H144 2711   5.005   0.206   3.126 -1.3089 -0.9201 -0.7759
    7CHTO   C87 2712   5.124   0.516   3.220  0.1017  0.3166  1.1083
    7CHTO  H159 2713   5.029   0.568   3.205  0.5027  0.5283 -0.9271
    7CHTO   O53 2714   5.246   0.605   3.175 -0.6057  0.1501 -0.2307
    7CHTO   C82 2715   5.284   0.600   3.044  0.4505  0.6421 -0.0034
    7CHTO  H154 2716   5.200   0.638   2.986 -1.8376 -2.0425  1.4131
    7CHTO   C89 2717   5.409   0.686   3.024  0.6829  0.7648 -0.6298
    7CHTO   O59 2718   5.382   0.829   3.046  0.5665  1.0322  0.0769
    7CHTO  H137 2719   5.355   0.847   3.134  0.3544  0.9386  0.0323
    7CHTO   O45 2720   5.131   0.488   3.393 -0.6853 -0.0178  0.0469
    7CHTO   C67 2721   5.187   0.601   3.468  0.3980  0.1884 -0.0455
    7CHTO  H124 2722   5.275   0.624   3.409  0.6391 -0.1036  0.2007
    7CHTO   C65 2723   5.110   0.740   3.473 -0.0560  0.4132 -0.2807
    7CHTO  H122 2724   5.011   0.702   3.496  0.9374 -1.0483  1.8233
    7CHTO   O44 2725   5.104   0.799   3.344  0.2805 -0.4322 -0.4554
    7CHTO  H102 2726   5.059   0.740   3.286 -1.1824  0.7991 -0.5954
    7CHTO   C63 2727   5.152   0.829   3.595  0.2228  0.0305 -0.3330
    7CHTO  H120 2728   5.094   0.802   3.683 -0.8870 -1.2177 -1.4187
    7CHTO   N11 2729   5.100   0.970   3.588  0.3704  0.1135  0.7697
    7CHTO  H108 2730   5.158   1.019   3.512 -0.6258 -0.1578 -0.1785
    7CHTO  H109 2731   5.000   0.954   3.554  0.2271  0.1081  1.1937
    7CHTO   C61 2732   5.305   0.806   3.632  1.0659  0.3631 -0.1290
    7CHTO  H118 2733   5.315   0.864   3.725 -0.1308  0.7821 -0.2570
    7CHTO   O40 2734   5.324   0.671   3.669 -0.4623 -0.3109  0.0695
    7CHTO   C68 2735   5.237   0.569   3.614  0.4924  0.1741  0.9764
    7CHTO  H125 2736   5.151   0.558   3.684 -1.8305  1.0683 -1.6463
    7CHTO   C72 2737   5.317   0.429   3.605  0.1151 -0.0221 -0.0137
    7CHTO   O48 2738   5.348   0.383   3.740  0.2138  0.3476 -0.0858
    7CHTO  H105 2739   5.417   0.320   3.733 -0.7261 -0.5018 -2.4889
    7CHTO   O38 2740   5.396   0.840   3.522  0.3522  0.1326 -0.0319
    7CHTO   C55 2741   5.530   0.888   3.556  0.3327  0.9397 -0.3448
    7CHTO  H112 2742   5.562   0.832   3.645  0.7296  1.3065 -0.2535
    7CHTO   C56 2743   5.535   1.043   3.584  0.8170 -0.4977 -0.7228
    7CHTO  H113 2744   5.467   1.099   3.519  2.1767  1.5463 -0.4078
    7CHTO   O42 2745   5.500   1.069   3.721  0.2043 -0.1608 -0.1411
    7CHTO  H100 2746   5.416   1.110   3.729  0.8103  1.1299 -0.2680
    7CHTO   C57 2747   5.675   1.110   3.561  0.6879  0.1094 -0.2031
    7CHTO  H114 2748   5.733   1.101   3.653  0.5706 -2.8363 -0.3517
    7CHTO   N10 2749   5.660   1.254   3.542 -0.3999 -0.1501 -0.2355
    7CHTO  H106 2750   5.565   1.279   3.496 -0.4722  1.6490  0.8375
    7CHTO  H107 2751   5.676   1.313   3.631  1.2746 -1.0380  0.0780
    7CHTO   C58 2752   5.749   1.043   3.445 -0.6963 -0.3936  0.1065
    7CHTO  H115 2753   5.693   1.056   3.350  1.0804  0.3877 -0.8666
    7CHTO   O37 2754   5.754   0.905   3.475 -0.7510 -0.3007 -0.3915
    7CHTO   C59 2755   5.631   0.847   3.442  0.0705  0.2664 -0.4055
    7CHTO  H116 2756   5.592   0.886   3.347 -0.3040  1.9909  0.4202
    7CHTO   C70 2757   5.648   0.699   3.427 -0.1063  0.3568  0.2223
    7CHTO   O46 2758   5.731   0.665   3.320 -0.2013  0.2343  0.0781
    7CHTO  H103 2759   5.813   0.710   3.324 -0.2952  0.4951 -0.8682
    7CHTO   O39 2760   5.901   1.096   3.408 -0.3105  0.1152  0.6844
    7CHTO   C60 2761   5.986   0.999   3.348  0.2666 -0.2248 -0.1709
    7CHTO  H117 2762   5.984   0.907   3.407 -0.3078  0.5642  1.0496
    7CHTO   C62 2763   5.937   0.974   3.205 -0.5652 -0.1159 -0.5173
    7CHTO  H119 2764   5.832   0.941   3.216 -0.7552  0.8043  0.4426
    7CHTO   O43 2765   5.939   1.098   3.133 -0.1388 -0.2501 -0.5660
    7CHTO  H101 2766   6.018   1.144   3.154 -0.6253  0.5332 -0.4083
    7CHTO   C66 2767   6.030   0.866   3.139 -0.0195  0.1749 -0.2703
    7CHTO  H123 2768   6.031   0.775   3.199  1.3862 -2.6456 -4.3222
    7CHTO   N12 2769   5.986   0.824   3.007  0.0941  0.2001 -0.9946
    7CHTO  H110 2770   5.885   0.789   2.995  0.2449  0.3126 -2.7885
    7CHTO  H111 2771   6.007   0.909   2.944  1.5551  0.4527 -0.1826
    7CHTO   C69 2772   6.177   0.908   3.135 -0.1082  0.1349 -0.0631
    7CHTO  H126 2773   6.208   0.993   3.070  0.5203 -0.5406 -0.6520
    7CHTO   O41 2774   6.215   0.949   3.285 -0.2989  0.3923  0.6571
    7CHTO   C64 2775   6.126   1.054   3.343  0.3880 -0.3470  0.2448
    7CHTO  H121 2776   6.126   1.141   3.274 -0.7272  0.0359  0.7189
    7CHTO   C71 2777   6.171   1.103   3.483  0.2339 -1.1237 -0.4981
    7CHTO   O47 2778   6.246   1.228   3.484  0.0639 -0.2784 -0.5384
    7CHTO  H104 2779   6.224   1.276   3.562 -2.7418  1.0333 -2.0693
    7CHTO   O34 2780   6.279   0.793   3.104  0.2061 -0.2973 -0.0877
    7CHTO   C49 2781   6.380   0.773   3.002 -0.5537 -0.0312  0.7471
    7CHTO   H91 2782   6.371   0.864   2.943 -1.7745  0.7583  2.1086
    7CHTO   C47 2783   6.348   0.642   2.925  0.4249  0.1151 -0.2914
    7CHTO   H89 2784   6.410   0.637   2.833  0.8568  2.3379 -0.1423
    7CHTO   O33 2785   6.207   0.644   2.885 -0.6340  0.1091 -0.0896
    7CHTO   H70 2786   6.183   0.707   2.820  0.9856  1.7916  0.9142
    7CHTO   C45 2787   6.369   0.517   3.013  0.1576  0.6740 -0.1745
    7CHTO   H87 2788   6.290   0.522   3.090  1.0705 -1.5017  0.9268
    7CHTO    N8 2789   6.358   0.385   2.941  0.0832 -0.1541  0.7377
    7CHTO   H75 2790   6.343   0.298   3.003  1.4671 -0.5065  0.5838
    7CHTO   H76 2791   6.280   0.381   2.867  1.2692  1.4903 -0.6303
    7CHTO   C43 2792   6.508   0.513   3.096  0.0370  0.5290  0.4543
    7CHTO   H85 2793   6.492   0.438   3.173 -0.8975  0.1176 -0.1313
    7CHTO   O29 2794   6.543   0.645   3.152  0.2959 -0.3139 -0.3881
    7CHTO   C50 2795   6.513   0.762   3.072  0.2976 -0.3451 -0.2106
    7CHTO   H92 2796   6.504   0.841   3.148  1.6836  0.7395 -1.1537
    7CHTO   C54 2797   6.623   0.803   2.975 -0.7134  0.1236 -0.0344
    7CHTO   O36 2798   6.662   0.695   2.887  0.1831 -0.0619 -0.3597
    7CHTO   H72 2799   6.749   0.671   2.911 -0.1633 -1.1690 -0.1756
    7CHTO   O27 2800   6.624   0.464   3.022 -0.0500 -0.7085  0.2937
    7CHTO   C37 2801   6.728   0.379   3.068  0.0172  0.5935 -0.0411
    7CHTO   H79 2802   6.720   0.375   3.177  2.1099  1.1042  0.1565
    7CHTO   C38 2803   6.716   0.230   3.010  0.1178  0.3138  0.0452
    7CHTO   H80 2804   6.699   0.238   2.902  0.5712  0.6229 -0.0027
    7CHTO   O31 2805   6.596   0.184   3.074 -0.0419 -0.8965 -0.0691
    7CHTO   H68 2806   6.520   0.238   3.060 -0.5638 -0.9866  2.2871
    7CHTO   C39 2807   6.839   0.137   3.031 -0.3499 -0.3187 -0.8070
    7CHTO   H81 2808   6.833   0.111   3.137 -0.4219 -0.3098 -0.8092
    7CHTO    N7 2809   6.827   0.011   2.944 -0.1457 -0.0802  0.1271
    7CHTO   H73 2810   6.908   0.007   2.873  0.6282  0.5450  0.9799
    7CHTO   H74 2811   6.841  -0.072   3.012  1.5963 -1.8145 -2.2372
    7CHTO   C40 2812   6.970   0.218   3.015 -0.7432 -1.0983  0.5761
    7CHTO   H82 2813   6.990   0.238   2.910 -2.0199  5.4550  1.3556
    7CHTO   O26 2814   6.963   0.348   3.092 -0.2616  0.2888 -0.0168
    7CHTO   C41 2815   6.865   0.441   3.030 -0.6931  0.6600  0.8185
    7CHTO   H83 2816   6.882   0.447   2.922 -0.5078 -0.7904  0.7612
    7CHTO   C52 2817   6.894   0.572   3.086  0.2319  0.0947 -0.7834
    7CHTO   O35 2818   7.025   0.617   3.055  0.6114 -0.2976  0.0820
    7CHTO   H71 2819   7.041   0.703   3.090 -2.1682  1.2917 -2.2796
    7CHTO   O28 2820   7.083   0.156   3.080  0.6330  0.4405  0.5632
    7CHTO   C42 2821   7.229   0.184   3.067  0.3242  0.0652  0.4139
    7CHTO   H84 2822   7.280   0.118   3.138 -1.7814 -1.4271  0.5672
    7CHTO   C44 2823   7.272   0.334   3.113  0.7177  0.6377 -0.4020
    7CHTO   H86 2824   7.226   0.402   3.042 -1.3448  0.8557  1.0898
    7CHTO   O32 2825   7.213   0.368   3.242  0.2929  0.2837  0.1802
    7CHTO   H69 2826   7.120   0.361   3.250 -0.1128 -0.8391 -4.1005
    7CHTO   C48 2827   7.433   0.351   3.112  0.2088  0.0105 -0.0505
    7CHTO   H90 2828   7.469   0.283   3.189 -1.3507  1.2575  1.7874
    7CHTO    N9 2829   7.478   0.494   3.142 -0.4602  0.1226  0.9031
    7CHTO   H77 2830   7.398   0.555   3.180 -1.3879 -1.6688  1.8340
    7CHTO   H78 2831   7.543   0.544   3.071  0.5273 -0.9459  1.0402
    7CHTO   C51 2832   7.487   0.298   2.967  0.5120  0.0883  0.6126
    7CHTO   H93 2833   7.440   0.368   2.898 -0.5003 -0.0908  1.1165
    7CHTO   O30 2834   7.453   0.165   2.938 -0.4407 -0.5908  0.0282
    7CHTO   C46 2835   7.293   0.150   2.925 -0.0410  0.2394 -0.5615
    7CHTO   H88 2836   7.261   0.218   2.847 -0.3946  0.9653  0.2047
    7CHTO   C53 2837   7.261   0.002   2.887  0.9107  0.6854 -0.1567
    7CHTO   O72 2838   7.310  -0.043   2.757 -0.1533 -0.3182 -0.4158
    7CHTO  H199 2839   7.235  -0.058   2.704 -0.2234  1.9910 -0.9856
    7CHTO   O22 2840   7.627   0.285   2.956 -0.1095  0.2867  0.4782
    7CHTO   C31 2841   7.702   0.322   2.832 -0.4110  0.5549  0.2760
    7CHTO   H59 2842   7.808   0.335   2.865 -0.2738 -3.1354  1.5985
    7CHTO   C29 2843   7.705   0.202   2.728  0.5219  0.8796  0.2321
    7CHTO   H57 2844   7.606   0.164   2.702  0.5906 -0.2167  1.5513
    7CHTO   O21 2845   7.770   0.087   2.781 -0.4659 -0.8017 -0.2953
    7CHTO   H37 2846   7.739   0.007   2.743  0.3188 -2.1672  1.8170
    7CHTO   C27 2847   7.783   0.240   2.596 -0.2187  0.3521  0.1841
    7CHTO   H55 2848   7.886   0.266   2.626  0.4325  0.0656 -1.7404
    7CHTO    N5 2849   7.786   0.143   2.485  0.0837 -0.1512  0.2006
    7CHTO   H43 2850   7.826   0.051   2.525  1.0688 -0.2449 -0.9871
    7CHTO   H44 2851   7.846   0.181   2.404 -1.5724  0.8628 -0.5666
    7CHTO   C25 2852   7.725   0.376   2.542 -0.1102 -0.0977  0.1848
    7CHTO   H53 2853   7.622   0.357   2.508 -0.4033 -3.3055  2.6429
    7CHTO   O17 2854   7.724   0.480   2.645  0.0745  0.2892 -0.7126
    7CHTO   C32 2855   7.652   0.455   2.768  0.9748 -0.1722 -0.9807
    7CHTO   H60 2856   7.552   0.443   2.726  0.3086  1.3805  0.1149
    7CHTO   C36 2857   7.673   0.574   2.865  0.7094 -0.5567 -0.5511
    7CHTO   O25 2858   7.625   0.708   2.827 -0.2133  0.5064  0.7023
    7CHTO   H40 2859   7.659   0.771   2.887 -0.0697  0.6447  0.4775
    7CHTO   O15 2860   7.799   0.439   2.421 -0.1227 -0.1353  0.1076
    7CHTO   C19 2861   7.757   0.519   2.307  0.0004 -0.4407 -0.2466
    7CHTO   H47 2862   7.853   0.520   2.252  0.6738  1.7335  0.8997
    7CHTO   C20 2863   7.647   0.460   2.217 -0.2695 -0.3512 -0.1548
    7CHTO   H48 2864   7.554   0.442   2.273 -1.6550  0.1205 -2.2321
    7CHTO   O19 2865   7.702   0.329   2.174  0.4656  0.0085  0.0470
    7CHTO   H35 2866   7.650   0.261   2.211  2.2492 -1.5897 -0.3066
    7CHTO   C21 2867   7.618   0.553   2.092 -1.0261 -0.1917 -0.3302
    7CHTO   H49 2868   7.699   0.551   2.020  0.3689  2.2636  1.0949
    7CHTO    N4 2869   7.496   0.505   2.018 -0.0552 -0.5620  0.0982
    7CHTO   H41 2870   7.501   0.401   1.991 -0.8040 -0.4384 -0.5519
    7CHTO   H42 2871   7.469   0.560   1.929 -1.9046  0.0040  1.0014
    7CHTO   C22 2872   7.599   0.697   2.148  0.0785 -0.0763  0.2504
    7CHTO   H50 2873   7.507   0.707   2.205 -0.0261  0.7993 -0.0526
    7CHTO   O14 2874   7.717   0.740   2.220  0.3814 -0.3451  0.0549
    7CHTO   C23 2875   7.726   0.675   2.347 -0.2236  0.0546 -1.0050
    7CHTO   H51 2876   7.635   0.680   2.409  0.1480 -1.3338 -0.3151
    7CHTO   C34 2877   7.843   0.747   2.415 -0.0214  0.0183 -0.4101
    7CHTO   O23 2878   7.870   0.712   2.552 -0.3352  0.0723  0.3073
    7CHTO   H38 2879   7.951   0.751   2.577 -0.6915 -0.7112  2.7557
    7CHTO   O16 2880   7.590   0.781   2.034  0.1272 -0.2235  0.5596
    7CHTO   C24 2881   7.548   0.934   2.079  0.0653 -0.0808  0.2261
    7CHTO   H52 2882   7.571   0.953   2.184 -1.1568 -1.2516  0.7202
    7CHTO   C26 2883   7.395   0.952   2.051 -0.3667 -0.0077  0.0924
    7CHTO   H54 2884   7.381   0.934   1.942  1.2331 -0.9242  0.0208
    7CHTO   O20 2885   7.322   0.852   2.127  0.0887  0.6920  0.2762
    7CHTO   H36 2886   7.232   0.876   2.135 -0.1246  0.5740 -1.6064
    7CHTO   C30 2887   7.351   1.105   2.071 -0.2553 -0.7308  0.0049
    7CHTO   H58 2888   7.349   1.122   2.180  2.4358 -1.7281  0.2332
    7CHTO    N6 2889   7.211   1.125   2.032  0.2881 -0.7089 -0.0675
    7CHTO   H45 2890   7.165   1.035   1.994 -1.1051  0.0388 -0.1961
    7CHTO   H46 2891   7.147   1.161   2.111  0.8904 -0.7841  0.4551
    7CHTO   C33 2892   7.446   1.204   2.001  0.6234 -0.3899 -0.3342
    7CHTO   H61 2893   7.429   1.192   1.893 -0.9530 -0.0529 -0.1390
    7CHTO   O18 2894   7.580   1.173   2.026  0.0120 -0.0663  0.1028
    7CHTO   C28 2895   7.625   1.038   1.993 -0.7792  0.4113 -0.3004
    7CHTO   H56 2896   7.593   1.026   1.889  0.8174  1.2757 -0.9029
    7CHTO   C35 2897   7.785   1.021   2.013 -0.8872 -0.5777  0.6306
    7CHTO   O24 2898   7.871   1.122   1.961  0.3828  0.6556 -0.0884
    7CHTO   H39 2899   7.864   1.124   1.868  0.4313  2.1505 -0.0724
    7CHTO    O9 2900   7.417   1.342   2.036  0.6942 -0.1682 -0.2520
    7CHTO   C13 2901   7.493   1.456   1.945  0.7942  0.2972  0.6855
    7CHTO   H26 2902   7.436   1.457   1.850  0.8136  1.5776  0.6798
    7CHTO   C11 2903   7.645   1.429   1.922 -0.2603  0.2021  0.0087
    7CHTO   H24 2904   7.658   1.342   1.856 -1.2446  0.8423 -1.0476
    7CHTO    O8 2905   7.727   1.411   2.041  0.0867 -0.0251  0.4565
    7CHTO    H3 2906   7.812   1.393   2.007  0.9114  1.4068  1.6764
    7CHTO    C9 2907   7.694   1.549   1.838  0.2647  0.2641  0.7436
    7CHTO   H22 2908   7.632   1.557   1.748  2.0546  4.6962 -0.2640
    7CHTO    N2 2909   7.835   1.531   1.785  0.5467  0.1591  0.0154
    7CHTO   H10 2910   7.864   1.593   1.701 -0.9883  1.6507  0.5578
    7CHTO   H11 2911   7.905   1.533   1.867  1.1851  0.8867 -0.5331
    7CHTO    C7 2912   7.668   1.684   1.917  0.1601 -0.3050 -0.1129
    7CHTO   H20 2913   7.685   1.758   1.836  1.1916 -0.5503 -0.1288
    7CHTO    O4 2914   7.530   1.702   1.961  0.3219  0.3494  0.6683
    7CHTO   C14 2915   7.459   1.592   2.017 -0.7612  0.2637  0.3593
    7CHTO   H27 2916   7.356   1.626   1.994 -0.1151  1.4162 -0.8847
    7CHTO   C18 2917   7.471   1.596   2.173  0.6531 -0.5223  0.8223
    7CHTO   O13 2918   7.384   1.510   2.248  0.2564 -0.0165 -0.5606
    7CHTO    H7 2919   7.384   1.533   2.339  1.0083 -3.2649  0.3440
    7CHTO    O2 2920   7.767   1.712   2.039 -0.5758  0.5932 -0.0884
    7CHTO    C1 2921   7.823   1.844   2.042  0.1370 -0.1106 -0.2200
    7CHTO   H14 2922   7.761   1.909   1.976 -1.0757  0.6695  1.6286
    7CHTO    C2 2923   7.974   1.857   2.002 -0.0709 -0.2366 -0.1260
    7CHTO   H15 2924   8.033   1.777   2.049 -0.0006 -0.4424 -0.5695
    7CHTO    O6 2925   7.986   1.834   1.864  0.6194  0.1992  0.0912
    7CHTO    H1 2926   7.933   1.890   1.810 -0.8953  0.4126  1.7343
    7CHTO    C3 2927   8.041   1.997   2.044 -0.1570 -0.3724  0.8962
    7CHTO   H16 2928   7.992   2.057   1.966  0.7815  0.2292  0.7618
    7CHTO    N1 2929   8.188   2.002   2.023  0.6243  0.0880  0.2023
    7CHTO    H8 2930   8.215   2.058   1.935 -1.1875  1.3518  0.4282
    7CHTO    H9 2931   8.227   2.055   2.109  1.2793  1.2239 -0.7828
    7CHTO    C4 2932   7.991   2.042   2.187  0.1414 -0.5017 -0.4288
    7CHTO   H17 2933   8.047   1.984   2.260  1.1790  1.7132  0.6018
    7CHTO    O1 2934   7.849   2.029   2.211 -0.7218  0.7297  0.4631
    7CHTO    C5 2935   7.809   1.895   2.196  0.8020 -0.8528  0.7284
    7CHTO   H18 2936   7.867   1.823   2.253 -2.2003 -3.2413  0.9453
    7CHTO   C16 2937   7.668   1.896   2.266  0.3092  0.4648 -0.7063
    7CHTO   O11 2938   7.665   1.948   2.399  0.4259 -0.1236  0.2618
    7CHTO    H5 2939   7.654   1.869   2.448  1.6768 -0.1339  0.5496
    7CHTO    O3 2940   8.021   2.184   2.219  0.1665  0.4717 -0.1317
    7CHTO    C6 2941   8.102   2.232   2.331 -0.0747  0.0737  0.0023
    7CHTO   H19 2942   8.157   2.147   2.371 -0.8932 -1.0036 -1.1174
    7CHTO    C8 2943   8.183   2.363   2.293  0.5619 -0.0307  0.4550
    7CHTO   H21 2944   8.112   2.439   2.262  0.4263  0.1026  1.0772
    7CHTO    O7 2945   8.283   2.322   2.200 -0.4254 -0.2649 -0.0764
    7CHTO    H2 2946   8.319   2.403   2.169 -0.4649 -0.0685  0.3995
    7CHTO   C12 2947   8.236   2.449   2.413  0.0642  0.4648  0.2037
    7CHTO   H25 2948   8.328   2.410   2.462 -1.2534 -2.1233  0.6893
    7CHTO    N3 2949   8.289   2.574   2.348  0.0090  0.4695 -0.5035
    7CHTO   H12 2950   8.232   2.620   2.268 -1.1399  2.1901  1.2504
    7CHTO   H13 2951   8.310   2.649   2.423 -0.8409 -1.1213  1.3805
    7CHTO   C15 2952   8.120   2.468   2.524  0.2225 -1.2514  0.1457
    7CHTO   H28 2953   8.052   2.542   2.484  0.7251 -0.8470  0.0279
    7CHTO   O10 2954   8.169   2.518   2.649 -0.2831  0.0675  0.6719
    7CHTO    H4 2955   8.096   2.548   2.700  0.4015  2.0710  0.5120
    7CHTO    O5 2956   8.056   2.349   2.561  0.1587 -0.7871 -0.2248
    7CHTO   C10 2957   8.000   2.273   2.446 -0.2902 -0.2517  0.4169
    7CHTO   H23 2958   7.916   2.332   2.409 -1.9916 -2.3742  0.8354
    7CHTO   C17 2959   7.940   2.149   2.515 -0.0545 -0.0922 -0.5825
    7CHTO   O12 2960   7.830   2.175   2.607  0.0740  0.1469 -0.6957
    7CHTO    H6 2961   7.850   2.222   2.686 -1.6655  0.9017 -0.6748
    8CHTO  H203 2962   7.802   8.382   1.192 -1.7354  0.5196 -0.7577
    8CHTO   O82 2963   7.777   8.440   1.261 -0.0229  0.2956  0.0693
    8CHTO  C123 2964   7.677   8.387   1.344 -0.4022 -0.6982  0.1681
    8CHTO  H227 2965   7.710   8.293   1.390  0.9452  0.6832  2.0957
    8CHTO   O77 2966   7.677   8.494   1.446 -0.1095  0.0354  0.1605
    8CHTO  C118 2967   7.606   8.458   1.558 -0.3319 -0.2174  0.1215
    8CHTO  H222 2968   7.635   8.363   1.604  1.3011  0.4267  0.4615
    8CHTO  C125 2969   7.633   8.573   1.664 -0.0594  0.1386 -0.4004
    8CHTO   O84 2970   7.578   8.700   1.624  0.7877 -0.6976 -0.4672
    8CHTO  H205 2971   7.497   8.702   1.671 -0.2301  1.3490 -2.2538
    8CHTO  C114 2972   7.457   8.446   1.522 -0.0955 -0.0404  0.1373
    8CHTO  H218 2973   7.418   8.544   1.494 -2.2900 -1.3841 -1.6769
    8CHTO  C116 2974   7.433   8.359   1.410  0.3975 -0.4122 -0.0334
    8CHTO  H220 2975   7.433   8.254   1.447 -1.2138 -0.8320 -1.1525
    8CHTO   O79 2976   7.292   8.382   1.378 -0.6090  0.4539  0.1110
    8CHTO  H201 2977   7.242   8.348   1.451 -0.6954  0.7153  0.1734
    8CHTO  C120 2978   7.528   8.384   1.291  0.8436  1.4782  0.2153
    8CHTO  H224 2979   7.493   8.477   1.241 -1.8391  0.8335  0.8001
    8CHTO   N21 2980   7.512   8.275   1.188 -0.0622  0.6435 -0.6715
    8CHTO  H211 2981   7.564   8.184   1.215 -1.0077  0.1901 -0.3274
    8CHTO  H212 2982   7.534   8.312   1.089 -1.3392  0.1423 -1.1674
    8CHTO   O75 2983   7.392   8.416   1.652  0.5402 -0.2204 -0.0045
    8CHTO  C112 2984   7.251   8.489   1.667  0.6000  0.3311  0.1658
    8CHTO  H216 2985   7.198   8.490   1.571  0.4712  0.0783  0.2333
    8CHTO   O73 2986   7.271   8.622   1.719  0.1433 -1.1951  0.2082
    8CHTO  C113 2987   7.162   8.694   1.767  0.7756  0.2383  0.3996
    8CHTO  H217 2988   7.096   8.719   1.682  1.7849  0.0645 -0.4408
    8CHTO  C124 2989   7.205   8.830   1.829 -0.4450 -0.1155 -0.3042
    8CHTO   O83 2990   7.283   8.922   1.747  0.9172  0.2819 -0.5803
    8CHTO  H204 2991   7.347   8.977   1.788  1.5442  0.1645 -1.4113
    8CHTO  C109 2992   7.084   8.620   1.878 -0.4000 -0.0761  0.0421
    8CHTO  H213 2993   7.158   8.594   1.956 -0.9827 -0.2920  0.5232
    8CHTO  C110 2994   7.043   8.487   1.811  0.6607  1.0603  0.3407
    8CHTO  H214 2995   6.989   8.524   1.724  3.0366  2.7298 -0.4914
    8CHTO   O78 2996   6.960   8.424   1.908  0.4195  0.3937  0.1748
    8CHTO  H200 2997   6.882   8.403   1.861 -0.0130 -1.6072  1.7572
    8CHTO  C111 2998   7.166   8.403   1.770  0.1406 -0.4321  0.9126
    8CHTO  H215 2999   7.228   8.379   1.858 -0.0325 -1.4963  0.7518
    8CHTO   N19 3000   7.131   8.273   1.701  0.0799 -0.5501  0.0157
    8CHTO  H207 3001   7.171   8.187   1.753  1.8862  1.0305  1.2952
    8CHTO  H208 3002   7.028   8.258   1.672 -0.1922 -1.0086  1.1909
    8CHTO   O74 3003   6.983   8.705   1.944 -0.0489 -0.2178 -0.4489
    8CHTO  C115 3004   6.802   8.692   1.892 -0.0056  0.1634 -0.5295
    8CHTO  H219 3005   6.765   8.591   1.907  1.3087 -0.0833  1.1976
    8CHTO   O76 3006   6.702   8.790   1.997  0.6739  0.1537  0.4448
    8CHTO  C122 3007   6.759   8.916   2.015 -0.7903  0.3315 -0.0013
    8CHTO  H226 3008   6.853   8.907   2.069 -0.9208 -2.7111 -0.1917
    8CHTO  C126 3009   6.667   9.004   2.107  0.3762  0.0271 -0.0787
    8CHTO   O85 3010   6.533   8.999   2.052 -0.7670  0.2285  0.0078
    8CHTO  H206 3011   6.527   9.062   1.983  2.4077  0.1971 -0.3723
    8CHTO  C121 3012   6.778   8.992   1.878 -0.0997 -0.1615  0.1061
    8CHTO  H225 3013   6.699   9.070   1.883 -0.9144 -1.0622  1.5674
    8CHTO   O81 3014   6.907   9.048   1.869 -0.5801  0.2860 -0.1487
    8CHTO  H202 3015   6.914   9.117   1.933  1.6115 -0.6841  0.7061
    8CHTO  C119 3016   6.745   8.905   1.749 -0.1566 -0.1047  0.2126
    8CHTO  H223 3017   6.638   8.895   1.765 -0.4334  1.2430 -0.7930
    8CHTO  C117 3018   6.794   8.748   1.741  0.6255  0.2106 -0.9926
    8CHTO  H221 3019   6.896   8.740   1.703  0.3955 -1.4660 -1.2911
    8CHTO   N20 3020   6.713   8.660   1.656 -0.0519 -0.7100 -0.5349
    8CHTO  H209 3021   6.609   8.683   1.670  0.7236  0.4247  4.2935
    8CHTO  H210 3022   6.740   8.674   1.552  2.3222  0.7554  0.2330
    8CHTO   O80 3023   6.758   9.000   1.598  0.2876 -0.0486 -0.4034
    8CHTO  C103 3024   6.657   9.110   1.567  0.0545  0.0149  0.0146
    8CHTO  H190 3025   6.560   9.070   1.598  0.0197  0.9475  1.1233
    8CHTO  C101 3026   6.687   9.252   1.632 -0.6152 -0.5096 -0.0392
    8CHTO  H188 3027   6.794   9.267   1.642 -0.5025 -1.9786  1.1867
    8CHTO   O68 3028   6.629   9.262   1.774  0.3362  0.5758  0.0216
    8CHTO  H168 3029   6.647   9.346   1.812 -0.3931  0.4293  0.7145
    8CHTO   C99 3030   6.629   9.369   1.545  0.2668  0.3267  0.6329
    8CHTO  H186 3031   6.518   9.364   1.558  0.2644 -0.6272  0.2845
    8CHTO   N17 3032   6.691   9.504   1.586  1.2007  0.4468 -0.1973
    8CHTO  H174 3033   6.797   9.481   1.586  1.3322  0.9646  1.3850
    8CHTO  H175 3034   6.653   9.530   1.684  1.8578 -2.7718  0.9666
    8CHTO   C97 3035   6.652   9.342   1.389 -0.6068  0.2975  0.3860
    8CHTO  H184 3036   6.759   9.342   1.363 -1.1557 -1.8850 -2.0950
    8CHTO   O64 3037   6.589   9.221   1.351  0.1446  0.3484  0.5018
    8CHTO  C104 3038   6.656   9.108   1.410  0.4838 -0.7374  0.0037
    8CHTO  H191 3039   6.758   9.114   1.372  0.3675  0.0885 -0.1884
    8CHTO  C108 3040   6.591   8.982   1.352 -0.2917  0.1172  0.5015
    8CHTO   O71 3041   6.454   8.979   1.384  0.7835  0.4255  0.0923
    8CHTO  H171 3042   6.430   8.897   1.345  0.3607 -0.2741  1.8151
    8CHTO   O62 3043   6.583   9.444   1.313 -0.2656 -0.1796 -0.1015
    8CHTO   C91 3044   6.648   9.486   1.184 -0.7917  0.1245 -0.1908
    8CHTO  H178 3045   6.718   9.406   1.160  0.3747  1.9870 -3.1756
    8CHTO   C92 3046   6.741   9.605   1.216 -0.3434 -0.0860 -0.3681
    8CHTO  H179 3047   6.686   9.677   1.278  2.6331  2.5705 -0.6825
    8CHTO   O66 3048   6.848   9.561   1.296  0.3254  0.0207 -0.2548
    8CHTO  H166 3049   6.891   9.631   1.341  1.8852 -2.2733  1.9935
    8CHTO   C93 3050   6.789   9.671   1.081 -0.9969 -0.1903 -0.6072
    8CHTO  H180 3051   6.859   9.599   1.037 -1.0493  0.1256 -1.2194
    8CHTO   N16 3052   6.864   9.793   1.097 -0.4571  0.6508 -0.0549
    8CHTO  H172 3053   6.787   9.865   1.120 -1.4505  0.0282 -1.3617
    8CHTO  H173 3054   6.909   9.819   1.003 -1.3005  1.8046 -0.1456
    8CHTO   C94 3055   6.666   9.685   0.977  0.3787  0.3764  0.1229
    8CHTO  H181 3056   6.584   9.745   1.017  0.7512  0.2261  1.1207
    8CHTO   O61 3057   6.614   9.553   0.946 -0.4426 -0.3494  0.2482
    8CHTO   C95 3058   6.554   9.496   1.058  0.0607  0.0191  0.1941
    8CHTO  H182 3059   6.467   9.555   1.088 -1.1789 -1.6024 -0.1054
    8CHTO  C106 3060   6.494   9.359   1.021 -0.1682 -0.8307 -0.1660
    8CHTO   O69 3061   6.393   9.320   1.118 -0.3793  0.2366 -0.4710
    8CHTO  H169 3062   6.325   9.267   1.081  0.5880 -0.0465 -1.8903
    8CHTO   O63 3063   6.725   9.730   0.822 -0.0313  0.1095  0.3168
    8CHTO   C96 3064   6.608   9.750   0.722 -0.2657  0.2944  0.5677
    8CHTO  H183 3065   6.527   9.680   0.741  0.9721 -0.1272  4.6516
    8CHTO   C98 3066   6.657   9.727   0.575 -0.0354  0.0134 -0.2598
    8CHTO  H185 3067   6.728   9.806   0.546 -1.4845  1.4255 -0.0062
    8CHTO   O67 3068   6.722   9.594   0.575 -0.0172  0.0934  0.1506
    8CHTO  H167 3069   6.685   9.534   0.513 -1.6168  1.5454 -0.3366
    8CHTO  C102 3070   6.531   9.729   0.475  0.2540  0.4334 -0.1275
    8CHTO  H189 3071   6.476   9.638   0.503  0.8088 -0.2442 -1.1740
    8CHTO   N18 3072   6.563   9.707   0.330 -0.0707 -0.6002  0.6315
    8CHTO  H176 3073   6.550   9.796   0.270  0.0387  0.2338  1.8040
    8CHTO  H177 3074   6.514   9.622   0.286 -1.7334 -0.8786  2.8855
    8CHTO  C105 3075   6.457   9.858   0.496  0.5017 -0.4243 -0.5111
    8CHTO  H192 3076   6.501   9.936   0.434  2.3053 -2.2410 -1.5642
    8CHTO   O65 3077   6.445   9.912   0.630 -0.8802 -0.9567 -0.2365
    8CHTO  C100 3078   6.552   9.895   0.723 -0.1928  0.0077 -0.5891
    8CHTO  H187 3079   6.630   9.963   0.688  1.5321 -0.7719  1.5746
    8CHTO  C107 3080   6.503   9.953   0.857 -0.0496  0.2519 -0.1999
    8CHTO   O70 3081   6.614   9.989   0.945  0.9827  0.1376  0.6645
    8CHTO  H170 3082   6.581   9.961   1.028 -2.6322  0.7701 -0.4920
    8CHTO   O57 3083   6.310   9.815   0.432  0.7805 -0.1698  0.0355
    8CHTO   C85 3084   6.216   9.908   0.382 -0.2323 -0.4927  0.1181
    8CHTO  H157 3085   6.271   9.977   0.314 -0.7483 -0.4735 -0.2865
    8CHTO   C83 3086   6.163   9.999   0.496 -0.3526  0.5481 -0.6790
    8CHTO  H155 3087   6.247  10.045   0.548 -1.2731  3.0003 -1.2542
    8CHTO   O56 3088   6.092   9.923   0.594 -0.1637 -0.0969 -0.1113
    8CHTO  H135 3089   6.147   9.871   0.651  0.7689  0.4612 -0.4965
    8CHTO   C81 3090   6.073  10.112   0.439  0.4649 -0.3186  0.5596
    8CHTO  H153 3091   6.127  10.173   0.367 -1.0980  0.4730  0.0330
    8CHTO   N14 3092   6.022  10.211   0.538 -0.0437  0.1926  0.3946
    8CHTO  H141 3093   5.967  10.288   0.487  0.3233 -0.0183 -0.3248
    8CHTO  H142 3094   6.103  10.257   0.590 -0.3211  0.8438  0.2561
    8CHTO   C79 3095   5.960  10.041   0.359  0.0249  0.6006  0.4986
    8CHTO  H151 3096   5.907  10.119   0.305 -1.7127 -0.0391  1.2509
    8CHTO   O52 3097   6.008   9.950   0.260  0.6918 -1.0936  0.2840
    8CHTO   C86 3098   6.094   9.846   0.304  0.3086 -0.3299 -0.2006
    8CHTO  H158 3099   6.028   9.779   0.362 -1.2120  0.7728 -0.6062
    8CHTO   C90 3100   6.140   9.765   0.180 -0.3381  0.1740  0.0305
    8CHTO   O60 3101   6.189   9.839   0.069  0.3551  0.3150 -0.6829
    8CHTO  H138 3102   6.127   9.849  -0.001 -1.1669  0.7063  0.6732
    8CHTO   O50 3103   5.854   9.978   0.436 -0.4600  0.0114 -0.2643
    8CHTO   C73 3104   5.717   9.949   0.449 -0.1925 -0.4066  0.0642
    8CHTO  H145 3105   5.687   9.893   0.359 -4.0559  1.6984 -0.0297
    8CHTO   C74 3106   5.629  10.071   0.464 -0.8561  0.3424 -1.1460
    8CHTO  H146 3107   5.642  10.131   0.372  1.5968  1.6158 -0.0270
    8CHTO   O54 3108   5.494  10.025   0.452 -0.0979 -0.3122  0.2060
    8CHTO  H133 3109   5.437  10.059   0.518 -1.4048  0.7323 -1.4088
    8CHTO   C75 3110   5.665  10.153   0.593 -0.4368 -0.1309  0.0214
    8CHTO  H147 3111   5.759  10.209   0.575  0.2606 -0.7867  1.5170
    8CHTO   N13 3112   5.585  10.274   0.618  0.1048  0.3501 -0.2388
    8CHTO  H139 3113   5.626  10.331   0.700 -1.3310 -0.3098  0.9527
    8CHTO  H140 3114   5.601  10.344   0.537  1.8589  2.0774  1.5722
    8CHTO   C76 3115   5.682  10.058   0.721  0.0865  0.1813  0.2856
    8CHTO  H148 3116   5.579  10.033   0.748 -0.4932 -0.7935 -2.6786
    8CHTO   O49 3117   5.747   9.925   0.687  0.0151 -0.4609  0.2835
    8CHTO   C77 3118   5.694   9.854   0.572  0.2471 -0.1983 -0.4835
    8CHTO  H149 3119   5.588   9.830   0.580  0.2029 -0.3081 -1.3350
    8CHTO   C88 3120   5.760   9.720   0.535 -0.4590 -0.0230  0.0093
    8CHTO   O58 3121   5.694   9.615   0.456  0.3588 -0.0478 -0.4570
    8CHTO  H136 3122   5.627   9.565   0.500 -1.3363 -0.2742 -3.1627
    8CHTO   O51 3123   5.763  10.122   0.836  0.0329 -0.1101 -0.5603
    8CHTO   C78 3124   5.799  10.027   0.956 -0.3470 -0.5030  0.3363
    8CHTO  H150 3125   5.812   9.920   0.929  3.3392 -0.0489  0.0167
    8CHTO   C80 3126   5.691  10.037   1.066  0.6566  0.2521  0.5603
    8CHTO  H152 3127   5.671  10.143   1.090  2.4151  1.2632 -2.2331
    8CHTO   O55 3128   5.568   9.992   1.007 -0.1380 -0.4643 -0.0242
    8CHTO  H134 3129   5.517  10.054   0.958  0.0830 -0.5887 -0.4081
    8CHTO   C84 3130   5.744   9.948   1.187  0.9438  0.1286  0.8834
    8CHTO  H156 3131   5.750   9.846   1.147  0.9276  0.7506 -0.7376
    8CHTO   N15 3132   5.655   9.941   1.306  0.5212 -0.1426  0.2384
    8CHTO  H143 3133   5.554   9.946   1.272  1.2290  0.6655 -1.7902
    8CHTO  H144 3134   5.675  10.024   1.371  0.8098  0.0724 -0.1251
    8CHTO   C87 3135   5.885   9.986   1.224 -0.9485  0.3224 -0.7863
    8CHTO  H159 3136   5.883  10.090   1.256  0.3654  0.3519 -0.7601
    8CHTO   O53 3137   5.978   9.983   1.114 -0.2264  0.5662 -0.0837
    8CHTO   C82 3138   5.938  10.076   1.015 -0.1601 -0.3269  0.3394
    8CHTO  H154 3139   5.934  10.179   1.052  1.6752 -0.1610  0.1328
    8CHTO   C89 3140   6.043  10.072   0.894  0.8887  0.0875 -0.0047
    8CHTO   O59 3141   6.168  10.133   0.926 -0.0552 -0.2182  0.2130
    8CHTO  H137 3142   6.209  10.078   0.990 -1.2101 -1.0345  0.2727
    8CHTO   O45 3143   5.947   9.891   1.330 -0.3106  0.1307  0.0826
    8CHTO   C67 3144   5.977   9.755   1.309 -1.1089 -0.0789 -1.0143
    8CHTO  H124 3145   5.918   9.722   1.224 -2.2709  0.3831 -0.3966
    8CHTO   C65 3146   6.134   9.733   1.273 -0.0342  0.5104  0.6674
    8CHTO  H122 3147   6.172   9.828   1.237 -1.1289  1.6633  2.4760
    8CHTO   O44 3148   6.151   9.629   1.171 -0.9207 -0.2110 -0.0348
    8CHTO  H102 3149   6.072   9.589   1.139 -0.6968 -0.7431  0.0720
    8CHTO   C63 3150   6.222   9.702   1.401 -0.0988 -0.4253 -0.2809
    8CHTO  H120 3151   6.208   9.785   1.471  0.3863  0.5073 -1.2770
    8CHTO   N11 3152   6.367   9.716   1.377  0.1011  0.1924 -0.2606
    8CHTO  H108 3153   6.393   9.647   1.300  1.6255  0.2088  0.2173
    8CHTO  H109 3154   6.426   9.694   1.464 -1.4334 -1.3058  0.4116
    8CHTO   C61 3155   6.170   9.565   1.482  0.0632  0.9440  0.5377
    8CHTO  H118 3156   6.186   9.588   1.588 -1.2028 -0.7093  1.0977
    8CHTO   O40 3157   6.023   9.545   1.462 -0.4198 -0.0087 -0.3758
    8CHTO   C68 3158   5.939   9.666   1.434 -0.2587  0.4728 -0.4572
    8CHTO  H125 3159   5.950   9.735   1.520 -1.5304  0.0576  0.0559
    8CHTO   C72 3160   5.791   9.623   1.428 -0.5452  0.0198 -0.0754
    8CHTO   O48 3161   5.730   9.594   1.547 -0.7850  0.4766  0.4999
    8CHTO  H105 3162   5.658   9.538   1.527  0.9965 -1.6694 -0.1431
    8CHTO   O38 3163   6.237   9.437   1.450  0.1819 -0.0217  0.4489
    8CHTO   C55 3164   6.169   9.313   1.483 -0.0307 -0.8895  0.1824
    8CHTO  H112 3165   6.070   9.333   1.527 -1.1438  0.1684 -2.6992
    8CHTO   C56 3166   6.266   9.227   1.584  0.0038 -0.1308 -0.6235
    8CHTO  H113 3167   6.356   9.196   1.529  1.4642  2.3835  0.2689
    8CHTO   O42 3168   6.314   9.301   1.693 -0.5988  1.2202 -0.2240
    8CHTO  H100 3169   6.381   9.255   1.740 -0.4926 -0.0339 -1.5860
    8CHTO   C57 3170   6.180   9.099   1.628 -0.3047  0.2038 -0.4869
    8CHTO  H114 3171   6.098   9.134   1.690  0.1131 -0.3518  0.3923
    8CHTO   N10 3172   6.264   9.013   1.717  0.6655 -0.3305 -0.3367
    8CHTO  H106 3173   6.370   9.013   1.693  0.5291  1.3301 -1.0657
    8CHTO  H107 3174   6.247   9.054   1.816  1.8339 -0.1775 -0.1874
    8CHTO   C58 3175   6.124   9.028   1.492 -0.6239 -0.0214 -1.0823
    8CHTO  H115 3176   6.205   8.976   1.437 -1.5415 -0.9042 -1.6149
    8CHTO   O37 3177   6.060   9.120   1.400  0.1439 -0.2872  0.3306
    8CHTO   C59 3178   6.138   9.229   1.362 -0.0940 -0.2813  0.4494
    8CHTO  H116 3179   6.235   9.200   1.324 -1.2309 -4.4977  0.5111
    8CHTO   C70 3180   6.059   9.302   1.248 -0.3836 -0.0119 -0.7579
    8CHTO   O46 3181   5.923   9.326   1.279 -0.4585 -0.0833 -0.0644
    8CHTO  H103 3182   5.899   9.413   1.254  0.3250  0.6689  1.7258
    8CHTO   O39 3183   6.008   8.912   1.528 -0.6521  0.3970  0.1431
    8CHTO   C60 3184   5.878   8.961   1.559 -0.1266  0.6916  0.4613
    8CHTO  H117 3185   5.876   9.060   1.605  0.7700  1.6581 -1.5317
    8CHTO   C62 3186   5.790   8.975   1.429  0.0322  0.3280  0.0375
    8CHTO  H119 3187   5.839   9.055   1.370 -2.0866  1.5145 -0.1873
    8CHTO   O43 3188   5.789   8.849   1.368  0.2361  0.3693  0.4962
    8CHTO  H101 3189   5.744   8.855   1.285  0.2935 -0.2376  0.4160
    8CHTO   C66 3190   5.642   9.023   1.480 -0.2838  0.0246 -0.6379
    8CHTO  H123 3191   5.651   9.117   1.535 -0.6174  1.7073 -3.3773
    8CHTO   N12 3192   5.555   9.044   1.363  0.1111  0.9505 -0.0484
    8CHTO  H110 3193   5.600   9.109   1.289  0.5464  0.0223 -0.6096
    8CHTO  H111 3194   5.457   9.081   1.388  0.5423 -0.2022  3.7141
    8CHTO   C69 3195   5.580   8.923   1.581  0.7121  0.8024  0.1560
    8CHTO  H126 3196   5.575   8.825   1.529 -1.8538  1.1999 -0.4090
    8CHTO   O41 3197   5.673   8.907   1.702 -0.2243 -0.3972 -0.2141
    8CHTO   C64 3198   5.821   8.860   1.662 -0.3333 -0.9173 -0.2651
    8CHTO  H121 3199   5.817   8.762   1.610  1.0102 -0.5932 -1.0043
    8CHTO   C71 3200   5.907   8.838   1.793  0.1245  0.0388 -0.2883
    8CHTO   O47 3201   5.860   8.734   1.875  0.0356 -0.4022  0.6712
    8CHTO  H104 3202   5.768   8.750   1.877  0.3484  2.1683 -1.2087
    8CHTO   O34 3203   5.447   8.965   1.634  0.4536  0.0486  0.1420
    8CHTO   C49 3204   5.340   9.029   1.743  0.3630  0.0063  0.5506
    8CHTO   H91 3205   5.352   8.970   1.833 -0.2918  0.0760  0.6917
    8CHTO   C47 3206   5.194   9.016   1.684  1.1781  0.6349 -0.0565
    8CHTO   H89 3207   5.127   9.060   1.761  2.7440  1.9492  0.5922
    8CHTO   O33 3208   5.166   8.882   1.660  0.3489  0.4777 -0.2457
    8CHTO   H70 3209   5.207   8.838   1.588 -0.7322 -2.6271  0.9089
    8CHTO   C45 3210   5.182   9.096   1.553  0.2304 -0.1368  0.1635
    8CHTO   H87 3211   5.249   9.056   1.476 -1.4580  1.1329 -2.0372
    8CHTO    N8 3212   5.042   9.084   1.497  0.2922  0.5599  0.3150
    8CHTO   H75 3213   5.000   9.184   1.492  1.6867  1.2059  1.1842
    8CHTO   H76 3214   5.035   9.043   1.397 -0.3123  1.0393  0.1547
    8CHTO   C43 3215   5.233   9.255   1.583  1.1162  0.0049  0.2475
    8CHTO   H85 3216   5.254   9.291   1.482 -2.4853  2.5107  0.3097
    8CHTO   O29 3217   5.350   9.268   1.672  0.1599  0.1236 -0.4592
    8CHTO   C50 3218   5.370   9.177   1.780 -0.2844 -0.9595 -0.9684
    8CHTO   H92 3219   5.474   9.192   1.813 -0.2904  0.4680 -1.5978
    8CHTO   C54 3220   5.285   9.220   1.908  0.0859  0.0087  0.7113
    8CHTO   O36 3221   5.320   9.345   1.961 -0.0062 -0.0052 -0.2102
    8CHTO   H72 3222   5.304   9.337   2.053  0.0272  1.3402 -0.0783
    8CHTO   O27 3223   5.141   9.352   1.626 -0.3936  0.3276 -0.5593
    8CHTO   C37 3224   5.087   9.480   1.643  0.1317 -0.3900 -0.4053
    8CHTO   H79 3225   5.038   9.474   1.741  0.6616 -1.8721 -0.2282
    8CHTO   C38 3226   5.198   9.586   1.645  0.4583  0.1707 -0.3298
    8CHTO   H80 3227   5.268   9.576   1.561 -0.1507  2.6156 -1.1734
    8CHTO   O31 3228   5.278   9.570   1.762  0.6467  0.0495 -0.8872
    8CHTO   H68 3229   5.353   9.514   1.755  0.5903  0.0088 -1.1595
    8CHTO   C39 3230   5.146   9.742   1.645  0.9326 -0.3700 -0.3432
    8CHTO   H81 3231   5.105   9.750   1.745 -0.3046 -1.5991 -0.7309
    8CHTO    N7 3232   5.256   9.846   1.620 -0.3101 -0.5856 -0.1989
    8CHTO   H73 3233   5.354   9.805   1.601  0.1436  1.2222 -1.9704
    8CHTO   H74 3234   5.255   9.908   1.709  1.6300  0.7059 -1.0555
    8CHTO   C40 3235   5.026   9.760   1.555  1.0223  0.4325 -0.1219
    8CHTO   H82 3236   5.077   9.757   1.458  0.3173 -0.3027 -0.4769
    8CHTO   O26 3237   4.927   9.654   1.571 -0.2395 -0.1544 -1.0358
    8CHTO   C41 3238   4.976   9.522   1.536 -0.1285  0.2508 -1.2079
    8CHTO   H83 3239   5.014   9.520   1.433 -0.4362 -1.3516 -1.2967
    8CHTO   C52 3240   4.862   9.426   1.536 -0.4459 -0.7625 -0.3491
    8CHTO   O35 3241   4.796   9.456   1.389 -0.1049 -0.3018 -0.3034
    8CHTO   H71 3242   4.735   9.527   1.403  1.2324  0.9961 -0.9368
    8CHTO   O28 3243   4.965   9.890   1.559  0.0343  0.2979  0.1354
    8CHTO   C42 3244   4.906   9.967   1.451  0.1298 -0.1808  0.1267
    8CHTO   H84 3245   4.864  10.053   1.502  1.1602 -1.3721  3.0573
    8CHTO   C44 3246   4.789   9.891   1.379  0.6204 -0.7101  0.8497
    8CHTO   H86 3247   4.827   9.793   1.349  0.0711 -0.6437 -0.0758
    8CHTO   O32 3248   4.689   9.872   1.479 -0.3511 -0.1059  0.2624
    8CHTO   H69 3249   4.657   9.785   1.489 -0.2372  0.0593  2.3225
    8CHTO   C48 3250   4.733   9.955   1.252  0.0395  0.0149 -0.0122
    8CHTO   H90 3251   4.680  10.039   1.298  3.2175  3.9210 -3.0241
    8CHTO    N9 3252   4.625   9.876   1.184  0.1903 -0.2118 -0.4265
    8CHTO   H77 3253   4.534   9.931   1.164  1.0179  0.5883 -1.9749
    8CHTO   H78 3254   4.611   9.782   1.235 -0.3149  0.6811  1.1252
    8CHTO   C51 3255   4.856   9.987   1.157  0.1567  0.6446  0.0263
    8CHTO   H93 3256   4.916   9.896   1.145 -0.1869  0.5530 -1.0617
    8CHTO   O30 3257   4.936  10.088   1.224 -0.1337 -0.2531 -0.1262
    8CHTO   C46 3258   5.018  10.019   1.349  0.8928  0.5547  0.1491
    8CHTO   H88 3259   5.082   9.934   1.326 -0.1506 -0.4559  0.9394
    8CHTO   C53 3260   5.105  10.127   1.411 -0.7108 -0.3362 -0.3763
    8CHTO   O72 3261   5.052  10.258   1.426 -0.1867 -0.2895 -0.3048
    8CHTO  H199 3262   4.959  10.258   1.441 -0.2832 -3.2892 -0.5075
    8CHTO   O22 3263   4.804  10.041   1.035  0.1069 -0.2915  0.4163
    8CHTO   C31 3264   4.872  10.029   0.906  0.0257 -0.2319  0.4401
    8CHTO   H59 3265   4.827  10.106   0.841  1.1156  0.6605  0.7361
    8CHTO   C29 3266   5.025  10.052   0.910  0.6411  0.3617  0.3589
    8CHTO   H57 3267   5.063   9.981   0.984  0.0269  0.2126  0.5383
    8CHTO   O21 3268   5.047  10.192   0.956  0.0773 -0.6873 -0.2891
    8CHTO   H37 3269   5.071  10.244   0.882 -0.5886  2.8857  1.8952
    8CHTO   C27 3270   5.092  10.018   0.770 -0.3596 -0.0528  0.5719
    8CHTO   H55 3271   5.052  10.081   0.690  0.4818  0.0688  0.2436
    8CHTO    N5 3272   5.242  10.041   0.768  0.1526 -0.9926 -0.4914
    8CHTO   H43 3273   5.267  10.098   0.857 -0.0276 -1.6074 -0.0393
    8CHTO   H44 3274   5.276  10.095   0.681  1.4756 -0.7704  0.1520
    8CHTO   C25 3275   5.049   9.877   0.719  0.2103  0.2489 -0.4482
    8CHTO   H53 3276   5.082   9.796   0.785 -3.4355 -0.0137  1.1531
    8CHTO   O17 3277   4.906   9.868   0.711 -0.3685  0.8098 -0.0998
    8CHTO   C32 3278   4.836   9.894   0.831 -0.4173  0.4889  0.2736
    8CHTO   H60 3279   4.853   9.809   0.898  2.4313  0.6825 -0.1581
    8CHTO   C36 3280   4.691   9.880   0.795  0.3030 -0.9682  0.1136
    8CHTO   O25 3281   4.658   9.755   0.724 -0.0144 -0.4739  0.2653
    8CHTO   H40 3282   4.582   9.776   0.673  0.2239  1.9360  0.8058
    8CHTO   O15 3283   5.092   9.851   0.581  0.2926  0.2696 -0.0410
    8CHTO   C19 3284   5.137   9.773   0.468  0.8762 -0.9307 -0.1970
    8CHTO   H47 3285   5.072   9.685   0.465 -1.0515  0.4971 -1.1963
    8CHTO   C20 3286   5.116   9.843   0.330  0.2221 -0.0535 -0.6235
    8CHTO   H48 3287   5.167   9.940   0.329  2.8476 -1.3677 -0.1802
    8CHTO   O19 3288   4.973   9.856   0.330 -0.1465 -0.1205  0.8050
    8CHTO   H35 3289   4.954   9.942   0.297 -2.0018 -0.4970  0.8370
    8CHTO   C21 3290   5.172   9.762   0.207  0.6009  0.2725 -0.3679
    8CHTO   H49 3291   5.104   9.682   0.178  0.5812  0.2402 -0.2304
    8CHTO    N4 3292   5.187   9.849   0.089 -0.4058  0.1312 -0.0182
    8CHTO   H41 3293   5.103   9.845   0.021 -0.3317 -0.1022 -0.0976
    8CHTO   H42 3294   5.281   9.838   0.038 -0.9152 -2.0235 -0.5380
    8CHTO   C22 3295   5.312   9.705   0.245  0.3249  0.7676  0.3469
    8CHTO   H50 3296   5.387   9.784   0.237  0.6807  0.3790 -0.2027
    8CHTO   O14 3297   5.314   9.646   0.371 -0.2526  0.4756 -0.6523
    8CHTO   C23 3298   5.283   9.728   0.482 -0.8262 -0.1810  0.0142
    8CHTO   H51 3299   5.357   9.809   0.484 -0.2213 -0.7254  0.0049
    8CHTO   C34 3300   5.313   9.653   0.617  0.5299 -0.0976  0.0222
    8CHTO   O23 3301   5.223   9.547   0.640  0.6516  0.3090 -0.2431
    8CHTO   H38 3302   5.163   9.568   0.709  1.0142  1.9998 -0.4209
    8CHTO   O16 3303   5.337   9.601   0.147 -0.8976 -0.0936 -0.6891
    8CHTO   C24 3304   5.506   9.581   0.145 -0.1817 -0.1934  0.3807
    8CHTO   H52 3305   5.551   9.627   0.233  0.7052 -1.2564  0.4986
    8CHTO   C26 3306   5.567   9.644   0.016 -0.2499 -0.1597 -0.1702
    8CHTO   H54 3307   5.507   9.613  -0.072 -2.9583  2.7926  0.4960
    8CHTO   O20 3308   5.580   9.786   0.026 -0.2390  0.1463 -0.3388
    8CHTO   H36 3309   5.609   9.822  -0.055 -0.0240  1.0798  0.1414
    8CHTO   C30 3310   5.716   9.588   0.005 -0.4698 -0.2380  0.2892
    8CHTO   H58 3311   5.785   9.639   0.075 -2.0786  1.4901  0.6512
    8CHTO    N6 3312   5.761   9.623  -0.133 -0.5814 -0.4864 -0.4540
    8CHTO   H45 3313   5.848   9.686  -0.124  1.1887 -2.8094 -0.5846
    8CHTO   H46 3314   5.789   9.533  -0.186 -0.9024 -1.7274  1.4577
    8CHTO   C33 3315   5.732   9.440   0.026  0.7610  0.1114 -0.3154
    8CHTO   H61 3316   5.670   9.384  -0.046 -0.1645 -0.3613  0.8192
    8CHTO   O18 3317   5.674   9.411   0.152 -0.0590  0.2050  0.1535
    8CHTO   C28 3318   5.531   9.430   0.157 -0.3549 -0.0670  0.2933
    8CHTO   H56 3319   5.475   9.380   0.077 -0.9366 -1.3482  1.4860
    8CHTO   C35 3320   5.490   9.374   0.289 -0.1648 -0.5000 -0.6886
    8CHTO   O24 3321   5.456   9.240   0.277 -0.3135  0.3728  0.1954
    8CHTO   H39 3322   5.367   9.225   0.252 -0.0502  2.4794 -2.2490
    8CHTO    O9 3323   5.866   9.385   0.015 -0.3514  0.1015 -0.0960
    8CHTO   C13 3324   5.877   9.257  -0.089 -0.3069  0.9140 -0.2872
    8CHTO   H26 3325   5.799   9.263  -0.168 -1.7650  2.0060  1.2246
    8CHTO   C11 3326   5.866   9.123  -0.008 -0.2366 -0.2275 -0.6633
    8CHTO   H24 3327   5.763   9.092   0.016  0.2302 -1.1643  0.1730
    8CHTO    O8 3328   5.927   9.140   0.121  0.6642  0.7732 -0.1335
    8CHTO    H3 3329   5.879   9.091   0.184  0.8451 -1.3160 -1.5569
    8CHTO    C9 3330   5.938   9.008  -0.087  0.0397 -0.0604 -0.0651
    8CHTO   H22 3331   5.897   9.020  -0.188 -0.6787  0.1570  0.2484
    8CHTO    N2 3332   5.894   8.874  -0.051  0.2731  0.6224  0.2008
    8CHTO   H10 3333   5.791   8.857  -0.077  0.6272 -0.5715 -0.4742
    8CHTO   H11 3334   5.949   8.791  -0.094 -0.6238  1.2334 -2.1555
    8CHTO    C7 3335   6.089   9.039  -0.095 -0.1847 -0.0963  0.0563
    8CHTO   H20 3336   6.115   8.987  -0.189 -1.3323 -1.9545  0.7480
    8CHTO    O4 3337   6.126   9.180  -0.091  0.3642 -0.1361 -0.0043
    8CHTO   C14 3338   6.026   9.258  -0.163 -0.3758  0.3446 -0.2830
    8CHTO   H27 3339   6.015   9.217  -0.265  0.5257 -0.0597 -0.2172
    8CHTO   C18 3340   6.075   9.401  -0.178  0.6581  0.5188  0.0617
    8CHTO   O13 3341   6.202   9.414  -0.248 -0.1271 -0.3788  0.5702
    8CHTO    H7 3342   6.259   9.339  -0.240 -0.7184 -0.8916  0.0348
    8CHTO    O2 3343   6.171   8.962   0.019 -0.6500  0.2835  0.1942
    8CHTO    C1 3344   6.317   8.953   0.015 -0.6686 -0.2401 -0.0762
    8CHTO   H14 3345   6.354   9.057   0.004 -0.1042 -0.3097  1.0835
    8CHTO    C2 3346   6.378   8.863  -0.104  0.0232  0.7850 -0.3752
    8CHTO   H15 3347   6.323   8.768  -0.093  0.1745  0.5948 -1.2215
    8CHTO    O6 3348   6.359   8.916  -0.233  0.3980  0.0310 -0.0974
    8CHTO    H1 3349   6.267   8.916  -0.251  0.4041  1.3171 -0.1517
    8CHTO    C3 3350   6.539   8.827  -0.073  0.0264 -1.3037  0.0405
    8CHTO   H16 3351   6.607   8.905  -0.110 -0.4294 -0.1388  1.5874
    8CHTO    N1 3352   6.597   8.713  -0.154  0.1551 -0.6100  0.2404
    8CHTO    H8 3353   6.516   8.699  -0.224 -1.0659  0.7503  1.3566
    8CHTO    H9 3354   6.611   8.618  -0.105  4.0831 -0.0720  0.3725
    8CHTO    C4 3355   6.578   8.802   0.072  0.2981 -0.1208  0.6953
    8CHTO   H17 3356   6.546   8.703   0.103 -0.0782 -0.0140  0.6423
    8CHTO    O1 3357   6.519   8.897   0.157  0.6371 -0.6145  0.0770
    8CHTO    C5 3358   6.372   8.900   0.155 -0.5640 -0.1970 -0.0503
    8CHTO   H18 3359   6.347   8.794   0.161 -0.3201 -0.2467  0.1054
    8CHTO   C16 3360   6.308   8.971   0.266 -0.0256  0.6218 -0.2735
    8CHTO   O11 3361   6.369   8.964   0.396  0.2299 -0.5525  0.3821
    8CHTO    H5 3362   6.404   8.878   0.411  0.6219 -0.1575  1.7669
    8CHTO    O3 3363   6.723   8.810   0.098  0.1919  0.1702  0.4608
    8CHTO    C6 3364   6.766   8.725   0.205 -0.5102 -0.3642  0.4040
    8CHTO   H19 3365   6.685   8.690   0.268  0.4139 -0.7254  1.4047
    8CHTO    C8 3366   6.836   8.596   0.149  0.3073  0.0087  0.5594
    8CHTO   H21 3367   6.907   8.624   0.071  0.2287  0.8539  0.7899
    8CHTO    O7 3368   6.732   8.509   0.094  0.0058 -0.1218 -0.6921
    8CHTO    H2 3369   6.656   8.511   0.150  1.8214  2.9312  1.7847
    8CHTO   C12 3370   6.934   8.517   0.247 -0.7005 -0.2256 -0.2681
    8CHTO   H25 3371   6.870   8.460   0.318 -0.6286 -0.2031 -0.1856
    8CHTO    N3 3372   7.017   8.407   0.188  0.1745  0.3309  0.0153
    8CHTO   H12 3373   6.947   8.339   0.142  0.5795 -0.9174  1.2098
    8CHTO   H13 3374   7.086   8.437   0.111  1.3974  2.8141  2.0090
    8CHTO   C15 3375   7.029   8.615   0.333  0.0112 -0.3836 -0.0313
    8CHTO   H28 3376   7.104   8.662   0.269  0.1873  0.8243  1.0484
    8CHTO   O10 3377   7.101   8.543   0.467 -0.4064  0.0275 -0.2984
    8CHTO    H4 3378   7.177   8.592   0.494 -0.3792  0.7093 -1.5759
    8CHTO    O5 3379   6.941   8.713   0.391 -0.0135 -0.2609  0.7845
    8CHTO   C10 3380   6.874   8.797   0.295  0.7736  0.1060  0.2691
    8CHTO   H23 3381   6.946   8.835   0.223  1.0588 -1.5779 -0.3491
    8CHTO   C17 3382   6.813   8.916   0.375 -0.0986  0.4289 -0.2394
    8CHTO   O12 3383   6.892   8.977   0.474  0.2000 -0.0026  0.0038
    8CHTO    H6 3384   6.975   9.011   0.445  0.9915  1.6102  3.9297
    9CHTO  H203 3385   8.464   4.455   0.715  1.7755  0.0310 -1.3575
    9CHTO   O82 3386   8.525   4.447   0.786 -0.3451  0.3183  0.5322
    9CHTO  C123 3387   8.650   4.391   0.758  0.2383  0.6344 -0.8275
    9CHTO  H227 3388   8.723   4.415   0.836  0.5400 -1.6613 -0.3593
    9CHTO   O77 3389   8.613   4.246   0.758  0.3228 -0.0557 -0.0402
    9CHTO  C118 3390   8.718   4.149   0.745 -1.1692  0.1557  0.3706
    9CHTO  H222 3391   8.783   4.168   0.831 -0.9421  1.8144 -0.1520
    9CHTO  C125 3392   8.652   4.007   0.757 -0.5756  0.8031 -0.0534
    9CHTO   O84 3393   8.568   3.975   0.645  0.2176 -0.5392 -0.7098
    9CHTO  H205 3394   8.607   3.920   0.580  1.3045 -0.7150  0.0780
    9CHTO  C114 3395   8.770   4.170   0.602 -0.2498 -0.5274  0.2506
    9CHTO  H218 3396   8.697   4.145   0.526  2.4450  0.5865 -2.8182
    9CHTO  C116 3397   8.829   4.317   0.595 -0.4879  0.1724  0.0988
    9CHTO  H220 3398   8.915   4.326   0.664  1.0257 -0.2488 -1.6970
    9CHTO   O79 3399   8.889   4.340   0.463  0.4318 -0.5883 -0.3448
    9CHTO  H201 3400   8.911   4.430   0.455  0.0894 -0.7659 -4.7470
    9CHTO  C120 3401   8.712   4.425   0.627 -0.1776  0.4396 -0.1305
    9CHTO  H224 3402   8.645   4.390   0.545  0.5660 -1.7813  0.1743
    9CHTO   N21 3403   8.762   4.566   0.612  0.1492 -0.3075  0.5076
    9CHTO  H211 3404   8.834   4.576   0.532  0.7262  0.4180  1.1101
    9CHTO  H212 3405   8.822   4.595   0.697  1.7507  1.1826 -1.0827
    9CHTO   O75 3406   8.873   4.074   0.594  0.0705  0.4579  0.0978
    9CHTO  C112 3407   8.869   3.979   0.465  0.1838 -0.3897 -0.3745
    9CHTO  H216 3408   8.788   4.013   0.398 -0.0325  2.0938  1.0814
    9CHTO   O73 3409   8.847   3.848   0.520 -0.3001 -0.4623  0.1247
    9CHTO  C113 3410   8.823   3.756   0.418  0.5407 -0.6364  0.5806
    9CHTO  H217 3411   8.734   3.787   0.359  1.7877  1.7261 -0.1161
    9CHTO  C124 3412   8.789   3.629   0.478  0.4525  0.0379  0.4164
    9CHTO   O83 3413   8.725   3.535   0.397 -0.0864  0.2166  0.0094
    9CHTO  H204 3414   8.764   3.535   0.312  0.9040 -0.4054  0.4634
    9CHTO  C109 3415   8.944   3.734   0.325 -0.0743 -0.3208  0.1694
    9CHTO  H213 3416   9.020   3.682   0.385 -1.2567 -0.3080  1.7328
    9CHTO  C110 3417   9.001   3.869   0.269  0.0296 -0.1203  0.6100
    9CHTO  H214 3418   8.937   3.902   0.188  0.9956 -0.8787 -0.4763
    9CHTO   O78 3419   9.130   3.845   0.215 -0.1568  0.3884  0.1319
    9CHTO  H200 3420   9.149   3.912   0.152  0.5711  1.3591  1.3695
    9CHTO  C111 3421   8.999   3.978   0.378  0.4202  0.0291  0.0176
    9CHTO  H215 3422   9.075   3.952   0.453 -0.1240 -0.0151  0.5699
    9CHTO   N19 3423   9.031   4.111   0.330 -0.7793  0.3200  0.3097
    9CHTO  H207 3424   9.137   4.117   0.311 -0.3662  1.0761  2.6157
    9CHTO  H208 3425   8.975   4.120   0.239  3.1327  0.2195 -2.2345
    9CHTO   O74 3426   8.901   3.644   0.219  0.7330  0.1503  0.7794
    9CHTO  C115 3427   9.019   3.548   0.159  0.2406 -0.3872  0.3176
    9CHTO  H219 3428   9.116   3.570   0.204  0.3464  1.9848 -0.9822
    9CHTO   O76 3429   8.986   3.388   0.179  0.3095 -0.1088  0.3211
    9CHTO  C122 3430   8.884   3.329   0.095 -0.5149  0.2526  0.1212
    9CHTO  H226 3431   8.787   3.361   0.134 -0.7502 -0.0720 -0.1920
    9CHTO  C126 3432   8.875   3.172   0.118 -0.3271 -0.5570 -0.8727
    9CHTO   O85 3433   8.864   3.151   0.264  0.1695  0.7902  0.2300
    9CHTO  H206 3434   8.783   3.180   0.302  0.3781  1.1987  0.3733
    9CHTO  C121 3435   8.894   3.368  -0.051 -0.1013  0.2006  0.1370
    9CHTO  H225 3436   8.988   3.324  -0.088  0.0971  0.3524  0.4609
    9CHTO   O81 3437   8.791   3.307  -0.133 -0.0646 -0.0315 -0.4257
    9CHTO  H202 3438   8.765   3.367  -0.201  0.1922 -0.8301 -1.2339
    9CHTO  C119 3439   8.899   3.526  -0.059 -0.2477 -0.1769 -0.0183
    9CHTO  H223 3440   8.901   3.546  -0.167 -1.3642 -0.7219 -0.1446
    9CHTO  C117 3441   9.032   3.588   0.012 -0.0751 -0.0547 -0.0227
    9CHTO  H221 3442   9.024   3.697   0.008  0.7244 -0.0369 -2.9263
    9CHTO   N20 3443   9.160   3.546  -0.058 -0.4871 -0.1813  0.4184
    9CHTO  H209 3444   9.209   3.456  -0.022 -0.5864  0.8374  3.1738
    9CHTO  H210 3445   9.229   3.629  -0.064 -0.6551 -0.1434 -1.2991
    9CHTO   O80 3446   8.754   3.603  -0.014  0.4260 -0.2926  0.4016
    9CHTO  C103 3447   8.707   3.740  -0.088 -0.2599  0.5111  0.2841
    9CHTO  H190 3448   8.646   3.806  -0.027 -0.6406  1.9519 -1.6172
    9CHTO  C101 3449   8.817   3.843  -0.142 -0.5207 -0.4791  0.5692
    9CHTO  H188 3450   8.887   3.777  -0.192 -0.0204 -1.0740  2.0111
    9CHTO   O68 3451   8.874   3.911  -0.043  0.5971  0.6043  0.4664
    9CHTO  H168 3452   8.915   3.848   0.013  1.4338 -0.9421 -1.8155
    9CHTO   C99 3453   8.762   3.946  -0.249 -0.6623  0.0998  0.2615
    9CHTO  H186 3454   8.703   4.021  -0.192 -2.9188 -0.9974 -0.5731
    9CHTO   N17 3455   8.872   4.017  -0.333 -0.2796  0.1204 -0.2429
    9CHTO  H174 3456   8.977   4.003  -0.311 -0.2701 -1.0453 -0.9881
    9CHTO  H175 3457   8.838   4.079  -0.414 -1.2051  0.6085  0.5042
    9CHTO   C97 3458   8.659   3.879  -0.336 -0.5036  0.7340 -0.0855
    9CHTO  H184 3459   8.717   3.813  -0.402  1.7213  1.4620  1.1034
    9CHTO   O64 3460   8.565   3.809  -0.264 -0.1736 -0.7194 -0.3079
    9CHTO  C104 3461   8.618   3.690  -0.202  0.2120 -0.3346 -0.3812
    9CHTO  H191 3462   8.675   3.624  -0.267 -0.8934 -3.2601  1.5393
    9CHTO  C108 3463   8.507   3.605  -0.142  0.5592 -0.4815 -0.3145
    9CHTO   O71 3464   8.539   3.465  -0.128 -0.7262 -0.1592 -0.4630
    9CHTO  H171 3465   8.552   3.432  -0.215 -2.3281  1.2353 -1.2659
    9CHTO   O62 3466   8.594   3.989  -0.408  0.3393  0.2669  0.1654
    9CHTO   C91 3467   8.528   3.951  -0.536  1.1374  0.0294  0.1666
    9CHTO  H178 3468   8.565   3.853  -0.567 -0.4576 -1.0755  1.6581
    9CHTO   C92 3469   8.559   4.055  -0.646  0.1131  0.4055 -0.2704
    9CHTO  H179 3470   8.668   4.062  -0.656  0.4712  0.6269  3.0312
    9CHTO   O66 3471   8.518   4.005  -0.768  0.2774  1.2192 -0.1609
    9CHTO  H166 3472   8.526   4.070  -0.834 -0.5216  2.2733  0.7641
    9CHTO   C93 3473   8.483   4.188  -0.624 -0.2381 -0.4979 -0.2247
    9CHTO  H180 3474   8.480   4.245  -0.718  1.8872  0.9127  0.5141
    9CHTO   N16 3475   8.541   4.289  -0.533 -0.1369  0.6570  0.4270
    9CHTO  H172 3476   8.642   4.273  -0.500  0.2393  1.7382 -0.1822
    9CHTO  H173 3477   8.527   4.390  -0.568 -1.3543  0.0285 -0.9474
    9CHTO   C94 3478   8.338   4.161  -0.577  0.2824 -0.0261  0.4052
    9CHTO  H181 3479   8.319   4.191  -0.474 -2.4738 -1.2578  0.3140
    9CHTO   O61 3480   8.294   4.024  -0.602  0.0448  0.0179 -0.2533
    9CHTO   C95 3481   8.377   3.930  -0.532  0.3004  0.5774  0.0192
    9CHTO  H182 3482   8.351   3.929  -0.426  0.1101 -1.9121 -0.0216
    9CHTO  C106 3483   8.331   3.786  -0.588 -0.8661  0.2460  0.3651
    9CHTO   O69 3484   8.398   3.676  -0.525 -0.2867  0.1886  0.0706
    9CHTO  H169 3485   8.337   3.607  -0.508 -0.6003  0.3857 -0.2667
    9CHTO   O63 3486   8.249   4.259  -0.665  0.3417 -0.0134 -0.6165
    9CHTO   C96 3487   8.089   4.291  -0.602  0.6321  0.4326  0.0640
    9CHTO  H183 3488   8.087   4.263  -0.497 -0.2841 -0.2078 -0.1192
    9CHTO   C98 3489   7.977   4.215  -0.674 -0.2250 -0.7530 -0.0309
    9CHTO  H185 3490   7.988   4.240  -0.780  0.1472  2.2810  0.6746
    9CHTO   O67 3491   8.007   4.070  -0.661  0.5838  0.1034 -0.6324
    9CHTO  H167 3492   8.038   4.033  -0.741 -2.0311  1.2913 -2.2294
    9CHTO  C102 3493   7.830   4.251  -0.619 -0.5388 -0.0354  0.1531
    9CHTO  H189 3494   7.826   4.192  -0.526  1.5408 -1.8504 -0.8611
    9CHTO   N18 3495   7.723   4.193  -0.704 -0.3363 -0.1196 -0.6157
    9CHTO  H176 3496   7.763   4.112  -0.763  0.2812 -0.4804  0.3038
    9CHTO  H177 3497   7.637   4.161  -0.646  0.2202 -0.3500  0.0828
    9CHTO  C105 3498   7.816   4.404  -0.584  0.0909  0.4350 -0.1625
    9CHTO  H192 3499   7.783   4.461  -0.671  0.1702  1.8662  0.7289
    9CHTO   O65 3500   7.938   4.472  -0.541 -0.4141  0.1484  0.2237
    9CHTO  C100 3501   8.058   4.444  -0.613  0.0083  0.7179  0.3921
    9CHTO  H187 3502   8.055   4.473  -0.719  2.8070  0.5409  0.2368
    9CHTO  C107 3503   8.170   4.533  -0.559  0.2074  0.1067  0.5996
    9CHTO   O70 3504   8.209   4.488  -0.431 -0.5671 -0.0662 -0.2184
    9CHTO  H170 3505   8.220   4.395  -0.429 -3.6591 -0.5053 -0.1976
    9CHTO   O57 3506   7.717   4.423  -0.470  0.0223 -0.1568  0.0576
    9CHTO   C85 3507   7.613   4.519  -0.495  0.0957  0.2150  0.0159
    9CHTO  H157 3508   7.599   4.523  -0.605 -0.8246  0.5744  0.1404
    9CHTO   C83 3509   7.665   4.662  -0.467  0.8396 -0.1880  0.1204
    9CHTO  H155 3510   7.743   4.683  -0.539  0.4650 -0.4685 -0.3772
    9CHTO   O56 3511   7.727   4.664  -0.340 -0.5401 -0.4355 -0.2794
    9CHTO  H135 3512   7.677   4.715  -0.278  1.2146  1.0208 -0.0392
    9CHTO   C81 3513   7.544   4.759  -0.476 -0.1871 -0.1899 -0.1794
    9CHTO  H153 3514   7.495   4.741  -0.572  1.1679  1.0221 -1.1028
    9CHTO   N14 3515   7.593   4.899  -0.480  0.1658 -0.4872 -0.4898
    9CHTO  H141 3516   7.532   4.964  -0.420  3.0732  2.4761 -0.6662
    9CHTO  H142 3517   7.592   4.935  -0.580  1.2373 -0.8569 -0.6306
    9CHTO   C79 3518   7.447   4.725  -0.361 -0.1715  0.0413  0.3844
    9CHTO  H151 3519   7.363   4.794  -0.369  0.0564  0.1343 -1.5007
    9CHTO   O52 3520   7.383   4.594  -0.375 -0.2473 -0.1717 -0.7227
    9CHTO   C86 3521   7.472   4.488  -0.419  0.2734 -0.1575  0.6067
    9CHTO  H158 3522   7.496   4.431  -0.327  2.9968 -0.1089 -0.0331
    9CHTO   C90 3523   7.383   4.395  -0.510  0.0059  0.2527 -0.9250
    9CHTO   O60 3524   7.457   4.280  -0.557 -0.2210 -0.7262 -0.3136
    9CHTO  H138 3525   7.397   4.214  -0.585 -0.5578 -0.6741  0.2720
    9CHTO   O50 3526   7.489   4.729  -0.221 -0.1197  0.0731  0.4107
    9CHTO   C73 3527   7.483   4.759  -0.082 -0.4721 -0.6008 -0.5162
    9CHTO  H145 3528   7.377   4.758  -0.050 -1.0539 -0.0209 -2.3723
    9CHTO   C74 3529   7.534   4.907  -0.065  0.1450 -0.2012 -0.2488
    9CHTO  H146 3530   7.475   4.981  -0.121 -2.2433 -1.8155  0.0600
    9CHTO   O54 3531   7.509   4.951   0.072  0.1080 -0.0810  0.3344
    9CHTO  H133 3532   7.417   4.942   0.091  0.0372  0.7545  0.3869
    9CHTO   C75 3533   7.687   4.916  -0.092  0.0328  0.3021 -0.2697
    9CHTO  H147 3534   7.701   4.889  -0.198 -1.2111 -1.8379  0.0878
    9CHTO   N13 3535   7.755   5.053  -0.094 -0.2271  0.5464  0.1338
    9CHTO  H139 3536   7.724   5.110  -0.181  0.2685  2.2644  1.0553
    9CHTO  H140 3537   7.863   5.057  -0.090 -0.2164 -0.5673  1.0279
    9CHTO   C76 3538   7.770   4.805  -0.017  0.0605 -0.2144  0.2139
    9CHTO  H148 3539   7.763   4.840   0.085 -0.8476 -1.6164  0.6509
    9CHTO   O49 3540   7.696   4.668  -0.024 -0.7046 -0.6031  0.0482
    9CHTO   C77 3541   7.560   4.663   0.013 -0.4741 -0.6301 -0.2348
    9CHTO  H149 3542   7.555   4.695   0.117  1.6187 -0.9612 -0.0162
    9CHTO   C88 3543   7.508   4.521   0.003  0.2845  0.5766 -0.0403
    9CHTO   O58 3544   7.358   4.513   0.049 -0.5668  0.3737 -0.3618
    9CHTO  H136 3545   7.307   4.562  -0.013 -2.0046 -1.1157 -0.4152
    9CHTO   O51 3546   7.899   4.783  -0.096 -0.3619  0.0780  0.4996
    9CHTO   C78 3547   8.040   4.728   0.002 -0.0023 -0.7031 -0.0383
    9CHTO  H150 3548   8.006   4.672   0.091 -0.5331 -0.1853  0.0854
    9CHTO   C80 3549   8.115   4.858   0.043  0.9492 -0.1742  0.8919
    9CHTO  H152 3550   8.143   4.914  -0.049 -1.4296 -0.5665 -0.1057
    9CHTO   O55 3551   8.020   4.934   0.125 -0.1317  0.2883  0.7829
    9CHTO  H134 3552   8.066   4.997   0.178  2.6684 -0.1833 -0.9506
    9CHTO   C84 3553   8.241   4.818   0.120  0.0227 -0.6758  0.3883
    9CHTO  H156 3554   8.207   4.760   0.205  0.0039 -1.8004 -0.3683
    9CHTO   N15 3555   8.315   4.938   0.167  0.0639  0.3612  0.1585
    9CHTO  H143 3556   8.295   4.953   0.271  0.1685 -0.8383  0.3618
    9CHTO  H144 3557   8.417   4.906   0.162 -0.2353 -0.7110  0.5921
    9CHTO   C87 3558   8.320   4.730   0.022 -0.3556 -0.2215  0.3028
    9CHTO  H159 3559   8.364   4.786  -0.061 -0.7922 -0.5754 -0.1738
    9CHTO   O53 3560   8.241   4.603  -0.012 -0.2105 -0.4540 -0.4863
    9CHTO   C82 3561   8.133   4.638  -0.092 -0.2065  0.5680  0.2353
    9CHTO  H154 3562   8.175   4.677  -0.185 -0.7138 -1.3755 -0.8391
    9CHTO   C89 3563   8.066   4.506  -0.122 -0.3976 -0.7833  0.4392
    9CHTO   O59 3564   7.974   4.511  -0.232  0.5862  0.2805 -0.1952
    9CHTO  H137 3565   8.018   4.520  -0.314  1.4654  0.2291  0.2597
    9CHTO   O45 3566   8.469   4.664   0.113 -0.1882 -0.0174  0.8743
    9CHTO   C67 3567   8.498   4.524   0.116  0.1834  0.6736 -0.6108
    9CHTO  H124 3568   8.415   4.467   0.073 -1.2956  2.1830  0.1842
    9CHTO   C65 3569   8.626   4.495   0.028 -0.5248  0.0784  0.6374
    9CHTO  H122 3570   8.683   4.589   0.034 -0.9005  0.2935  0.8356
    9CHTO   O44 3571   8.573   4.486  -0.106 -0.1792 -0.5026 -0.2068
    9CHTO  H102 3572   8.635   4.450  -0.167  1.0447  1.0308  0.0998
    9CHTO   C63 3573   8.725   4.388   0.086 -0.2236 -0.0460 -0.4505
    9CHTO  H120 3574   8.776   4.440   0.168 -0.2791 -0.1855 -0.3261
    9CHTO   N11 3575   8.842   4.351  -0.001  0.0109 -0.0078  0.8505
    9CHTO  H108 3576   8.905   4.291   0.061 -1.7331  0.2613  2.9750
    9CHTO  H109 3577   8.880   4.438  -0.050 -1.8905  0.7649  0.7039
    9CHTO   C61 3578   8.641   4.267   0.144  0.0708  0.0660  0.4509
    9CHTO  H118 3579   8.704   4.201   0.206 -1.1867 -1.0034  0.6307
    9CHTO   O40 3580   8.536   4.315   0.237 -0.0155 -0.1281  0.0186
    9CHTO   C68 3581   8.520   4.458   0.257 -0.2486  0.1263  0.2831
    9CHTO  H125 3582   8.602   4.497   0.321 -1.9150  0.7081  2.1223
    9CHTO   C72 3583   8.399   4.463   0.346 -0.7603 -0.1189  0.0449
    9CHTO   O48 3584   8.374   4.602   0.385  0.0864  0.1276 -0.3324
    9CHTO  H105 3585   8.359   4.605   0.477  2.0936 -1.0883  0.0597
    9CHTO   O38 3586   8.589   4.187   0.035 -0.1843 -0.2055  0.0842
    9CHTO   C55 3587   8.459   4.120   0.054 -0.0780  0.0933 -0.6735
    9CHTO  H112 3588   8.381   4.194   0.078  0.0135  0.0601 -0.2788
    9CHTO   C56 3589   8.468   3.998   0.165 -0.4715 -0.8197 -0.3728
    9CHTO  H113 3590   8.557   3.942   0.135 -1.1881  0.1926 -4.8860
    9CHTO   O42 3591   8.501   4.045   0.297  0.2117  0.4778 -0.4604
    9CHTO  H100 3592   8.428   4.096   0.326  1.2735  1.5620  0.3551
    9CHTO   C57 3593   8.339   3.908   0.156 -0.5106  0.2493 -0.4516
    9CHTO  H114 3594   8.257   3.971   0.193 -1.4092 -1.2681  0.1590
    9CHTO   N10 3595   8.351   3.783   0.231  0.4412 -0.1857 -0.0041
    9CHTO  H106 3596   8.307   3.700   0.179 -1.0017  0.7941 -0.3607
    9CHTO  H107 3597   8.308   3.801   0.329  0.9233 -0.1696  0.2070
    9CHTO   C58 3598   8.303   3.875   0.007  0.1614 -0.5048  0.0691
    9CHTO  H115 3599   8.381   3.808  -0.033  0.4377 -1.3830  2.0064
    9CHTO   O37 3600   8.306   3.993  -0.077 -0.1499  0.2393 -0.1804
    9CHTO   C59 3601   8.427   4.064  -0.083  0.0257  0.2027 -0.0672
    9CHTO  H116 3602   8.503   3.991  -0.110  0.3133  1.5643 -3.0508
    9CHTO   C70 3603   8.421   4.170  -0.190 -0.0240 -0.1955 -0.4639
    9CHTO   O46 3604   8.337   4.283  -0.163  0.5602 -0.0928  0.1587
    9CHTO  H103 3605   8.395   4.341  -0.118  0.1785 -0.0409  0.5907
    9CHTO   O39 3606   8.155   3.839  -0.017  0.2940 -0.1746  0.4214
    9CHTO   C60 3607   8.119   3.700  -0.042  0.0295 -0.1782  0.6007
    9CHTO  H117 3608   8.205   3.635  -0.055 -1.6822 -2.3892  0.0811
    9CHTO   C62 3609   8.035   3.639   0.069 -0.3944  0.7172  0.6776
    9CHTO  H119 3610   8.102   3.630   0.158  2.5088  2.2257 -1.2791
    9CHTO   O43 3611   7.928   3.731   0.086  0.3993 -0.3653  0.7741
    9CHTO  H101 3612   7.857   3.704   0.141  0.6170 -0.1648  1.1560
    9CHTO   C66 3613   7.987   3.488   0.026 -0.1779 -0.8243 -0.5322
    9CHTO  H123 3614   8.075   3.424   0.026  0.3046 -0.1889 -2.0420
    9CHTO   N12 3615   7.892   3.443   0.130  0.3054 -0.0940 -0.3958
    9CHTO  H110 3616   7.895   3.335   0.126 -0.3333 -0.1724  1.0340
    9CHTO  H111 3617   7.799   3.497   0.126  1.5760  2.2437  0.6081
    9CHTO   C69 3618   7.927   3.480  -0.115 -0.9043 -0.4903 -0.2972
    9CHTO  H126 3619   7.821   3.513  -0.121 -0.7966 -0.2977 -1.2871
    9CHTO   O41 3620   8.006   3.562  -0.210 -0.5337 -0.0422 -0.0966
    9CHTO   C64 3621   8.049   3.692  -0.176  0.6398  0.0084  0.3058
    9CHTO  H121 3622   7.965   3.764  -0.170  0.8204  0.1413  1.2413
    9CHTO   C71 3623   8.137   3.739  -0.293  0.3243  1.4384 -0.4245
    9CHTO   O47 3624   8.065   3.730  -0.420  0.0474  0.7515 -0.5641
    9CHTO  H104 3625   8.018   3.650  -0.420 -0.6295  1.1175  0.9906
    9CHTO   O34 3626   7.925   3.319  -0.168 -0.0862 -0.4793 -0.4949
    9CHTO   C49 3627   8.014   3.248  -0.256  0.4848 -0.0186  0.5513
    9CHTO   H91 3628   7.993   3.299  -0.350 -1.2912  0.4114  1.1711
    9CHTO   C47 3629   7.974   3.098  -0.276 -0.3379  0.1363 -0.1632
    9CHTO   H89 3630   8.022   3.069  -0.372 -0.5439 -0.4098 -0.1013
    9CHTO   O33 3631   7.831   3.080  -0.297 -0.1117 -0.0115  0.3474
    9CHTO   H70 3632   7.810   3.068  -0.387  0.6834 -2.4936  0.4383
    9CHTO   C45 3633   8.023   3.005  -0.148 -0.4901  0.2107  0.4456
    9CHTO   H87 3634   7.941   2.983  -0.079  0.5957  1.6564  2.2611
    9CHTO    N8 3635   8.081   2.870  -0.198  0.3893 -0.2827  0.1209
    9CHTO   H75 3636   8.187   2.854  -0.182  0.1719 -0.2774  1.6223
    9CHTO   H76 3637   8.022   2.790  -0.156  0.9101 -0.8465 -0.2166
    9CHTO   C43 3638   8.126   3.092  -0.055 -0.1380 -0.3969 -0.4364
    9CHTO   H85 3639   8.059   3.159  -0.001 -2.3223 -1.0889 -2.2176
    9CHTO   O29 3640   8.212   3.164  -0.141  0.0820  0.0354 -0.0000
    9CHTO   C50 3641   8.161   3.269  -0.221 -0.3101  0.4041  0.1315
    9CHTO   H92 3642   8.168   3.371  -0.181  0.4688  0.8285 -1.0589
    9CHTO   C54 3643   8.239   3.280  -0.350  0.3775 -0.2992  0.3786
    9CHTO   O36 3644   8.372   3.330  -0.320 -0.2395 -0.4966  0.3891
    9CHTO   H72 3645   8.351   3.411  -0.278 -1.3491 -0.4669 -0.2104
    9CHTO   O27 3646   8.196   3.013   0.043  0.0716  0.4200  0.1976
    9CHTO   C37 3647   8.269   3.046   0.166 -0.0075 -0.0984 -0.3775
    9CHTO   H79 3648   8.332   2.961   0.196 -0.7662 -0.3300  0.6160
    9CHTO   C38 3649   8.355   3.177   0.141 -0.0622 -0.3815 -0.0136
    9CHTO   H80 3650   8.290   3.253   0.096 -2.3886 -1.1740  1.8953
    9CHTO   O31 3651   8.461   3.137   0.051  0.2508 -0.5321 -0.8073
    9CHTO   H68 3652   8.431   3.148  -0.038  2.3443 -1.9689 -1.7421
    9CHTO   C39 3653   8.411   3.236   0.276  1.1653 -0.3801 -0.0724
    9CHTO   H81 3654   8.479   3.162   0.318  0.7324  0.3548  1.9593
    9CHTO    N7 3655   8.479   3.367   0.261 -0.3109 -0.3502  0.0000
    9CHTO   H73 3656   8.455   3.406   0.163  0.0305 -1.4534 -0.5211
    9CHTO   H74 3657   8.454   3.445   0.332 -0.0722  0.5134 -0.8584
    9CHTO   C40 3658   8.284   3.251   0.379 -0.4721  0.0437 -0.6716
    9CHTO   H82 3659   8.221   3.324   0.328 -1.9053  0.7868  2.0533
    9CHTO   O26 3660   8.216   3.132   0.401 -0.4767  0.3650  0.3313
    9CHTO   C41 3661   8.161   3.075   0.280 -0.8947 -0.2574  0.2609
    9CHTO   H83 3662   8.083   3.147   0.252 -0.4666  0.3094  0.5229
    9CHTO   C52 3663   8.092   2.941   0.329  0.4231 -0.3186  0.5093
    9CHTO   O35 3664   8.018   2.856   0.217  0.6664 -0.3148 -0.4670
    9CHTO   H71 3665   7.931   2.840   0.248  0.7594 -0.1898 -0.1371
    9CHTO   O28 3666   8.320   3.296   0.512 -0.1648 -0.3009  0.2187
    9CHTO   C42 3667   8.236   3.380   0.602  0.6611  0.1606  0.8578
    9CHTO   H84 3668   8.276   3.363   0.702  0.4387  1.3366  1.1504
    9CHTO   C44 3669   8.083   3.353   0.611 -0.9009 -0.2110 -0.0759
    9CHTO   H86 3670   8.043   3.353   0.510 -1.6647 -1.2059  0.2145
    9CHTO   O32 3671   8.080   3.224   0.671  0.1169 -0.2664 -0.1862
    9CHTO   H69 3672   8.083   3.158   0.603 -1.0202  0.3732 -0.8755
    9CHTO   C48 3673   8.006   3.455   0.690  0.6245  0.0845  0.1506
    9CHTO   H90 3674   8.041   3.454   0.793 -2.3607 -1.3741  1.1993
    9CHTO    N9 3675   7.858   3.425   0.703  0.2289  0.2144  0.2601
    9CHTO   H77 3676   7.818   3.444   0.801 -2.4927 -1.2019 -0.5046
    9CHTO   H78 3677   7.793   3.464   0.626  1.4741 -2.0729 -2.0602
    9CHTO   C51 3678   8.037   3.591   0.623  0.2758  0.7470 -0.1210
    9CHTO   H93 3679   8.015   3.562   0.520  0.1446  1.9231 -0.4276
    9CHTO   O30 3680   8.175   3.621   0.647  0.7762 -0.1770  0.6359
    9CHTO   C46 3681   8.266   3.528   0.569 -0.8062 -0.6128  0.1269
    9CHTO   H88 3682   8.256   3.540   0.461 -1.1132  0.6493  0.2883
    9CHTO   C53 3683   8.411   3.560   0.608  0.1164 -0.6752 -0.0403
    9CHTO   O72 3684   8.467   3.689   0.570  0.2180  0.3489 -0.1891
    9CHTO  H199 3685   8.469   3.698   0.476  1.0911  0.0180 -0.2073
    9CHTO   O22 3686   7.960   3.702   0.671  0.2048  0.1095  0.5153
    9CHTO   C31 3687   7.961   3.832   0.594  0.7386  0.7794  0.5218
    9CHTO   H59 3688   7.894   3.901   0.650  1.8305  2.1595  0.1561
    9CHTO   C29 3689   8.099   3.903   0.574  0.2227  0.2385  0.0889
    9CHTO   H57 3690   8.165   3.842   0.510 -1.0640 -2.3197  1.0943
    9CHTO   O21 3691   8.155   3.914   0.709  0.2957  0.0662  0.4541
    9CHTO   H37 3692   8.230   3.859   0.717  0.7351  0.3898 -1.2143
    9CHTO   C27 3693   8.074   4.045   0.507 -0.0911  0.3063 -0.0288
    9CHTO   H55 3694   8.014   4.106   0.575 -1.6805  0.8912 -1.8961
    9CHTO    N5 3695   8.204   4.113   0.469 -0.3027 -0.0677  0.5116
    9CHTO   H43 3696   8.262   4.067   0.390 -0.0260  2.2670 -0.7123
    9CHTO   H44 3697   8.266   4.118   0.557  2.2365 -1.1639 -1.1210
    9CHTO   C25 3698   8.001   4.011   0.365 -0.0824  0.5008 -0.6778
    9CHTO   H53 3699   8.076   3.949   0.314  1.9151  1.3142  1.1836
    9CHTO   O17 3700   7.872   3.942   0.388  0.1611  0.0250 -0.1498
    9CHTO   C32 3701   7.892   3.817   0.453 -0.3596 -0.1382  0.1684
    9CHTO   H60 3702   7.952   3.748   0.393 -0.1712  0.3056 -0.1519
    9CHTO   C36 3703   7.763   3.739   0.454 -0.1474 -0.5482  0.3478
    9CHTO   O25 3704   7.727   3.671   0.332 -0.3116 -0.0978 -0.2251
    9CHTO   H40 3705   7.680   3.591   0.346 -0.3043  0.0416  0.6082
    9CHTO   O15 3706   7.969   4.135   0.283  0.5956 -0.0823 -0.1018
    9CHTO   C19 3707   7.922   4.175   0.153 -0.5259  0.3760 -0.2291
    9CHTO   H47 3708   7.931   4.284   0.157  0.0835  0.3210 -0.0356
    9CHTO   C20 3709   7.995   4.109   0.038  0.6131  0.5411 -1.0569
    9CHTO   H48 3710   7.995   4.000   0.048 -0.2485  0.5768 -0.6643
    9CHTO   O19 3711   8.137   4.152   0.052  0.7232 -0.0250 -0.5831
    9CHTO   H35 3712   8.185   4.094   0.107  0.1235  1.4455  1.5330
    9CHTO   C21 3713   7.931   4.148  -0.101  0.1752 -0.0693 -0.2747
    9CHTO   H49 3714   7.930   4.257  -0.110  0.3681  0.0583  1.1588
    9CHTO    N4 3715   8.003   4.086  -0.216  0.6251  0.1942  0.0633
    9CHTO   H41 3716   7.945   4.081  -0.306  1.3840  2.5335 -0.5863
    9CHTO   H42 3717   8.100   4.128  -0.237  0.3418 -0.0466 -1.8320
    9CHTO   C22 3718   7.782   4.086  -0.101  0.1002 -0.3739  0.2764
    9CHTO   H50 3719   7.789   3.980  -0.079  1.2983 -0.2376  0.5929
    9CHTO   O14 3720   7.720   4.161   0.007  0.4756 -0.1386 -0.1515
    9CHTO   C23 3721   7.772   4.152   0.142 -0.0405  0.3664  0.2439
    9CHTO   H51 3722   7.747   4.053   0.184  3.0655 -0.0106  1.3541
    9CHTO   C34 3723   7.692   4.244   0.227  0.2439  0.0364  0.0853
    9CHTO   O23 3724   7.548   4.227   0.212  0.0615  0.5605  0.3394
    9CHTO   H38 3725   7.520   4.296   0.154  0.2215 -0.8854 -1.4985
    9CHTO   O16 3726   7.696   4.121  -0.212  0.3021  0.1139  0.1642
    9CHTO   C24 3727   7.579   4.012  -0.271  0.2052  0.0725 -0.0703
    9CHTO   H52 3728   7.558   3.929  -0.205 -2.7369 -1.4125 -2.7457
    9CHTO   C26 3729   7.616   3.950  -0.407 -0.1714 -0.3049 -0.3020
    9CHTO   H54 3730   7.640   4.034  -0.476 -2.3724  0.2274 -0.4392
    9CHTO   O20 3731   7.746   3.885  -0.387  1.2318 -0.6312  0.2909
    9CHTO   H36 3732   7.768   3.849  -0.471  1.9175  0.5220 -0.0385
    9CHTO   C30 3733   7.493   3.865  -0.456  0.3334  0.1836  0.3256
    9CHTO   H58 3734   7.487   3.776  -0.392  0.1767 -0.0847 -0.0543
    9CHTO    N6 3735   7.517   3.816  -0.597 -0.1441  0.2710  0.3959
    9CHTO   H45 3736   7.612   3.843  -0.641 -0.9020  1.2027 -0.7221
    9CHTO   H46 3737   7.435   3.840  -0.664 -1.6914  0.3042  2.2734
    9CHTO   C33 3738   7.354   3.935  -0.440  0.1398  0.8024 -0.0614
    9CHTO   H61 3739   7.335   3.995  -0.530 -3.5710 -1.5163 -0.9458
    9CHTO   O18 3740   7.338   4.016  -0.324  0.0156 -0.0615  0.4164
    9CHTO   C28 3741   7.450   4.096  -0.278  0.9873 -0.0124 -0.2053
    9CHTO   H56 3742   7.468   4.183  -0.342  0.8593 -2.3519 -3.5267
    9CHTO   C35 3743   7.406   4.148  -0.139 -0.1108  0.1765  0.1370
    9CHTO   O24 3744   7.317   4.266  -0.153 -0.4198 -0.2694  0.4619
    9CHTO   H39 3745   7.276   4.253  -0.236 -1.3439  0.9133  0.7169
    9CHTO    O9 3746   7.249   3.832  -0.453  0.3652 -0.1327 -0.1315
    9CHTO   C13 3747   7.103   3.896  -0.509  0.0680 -0.2438  0.3110
    9CHTO   H26 3748   7.117   3.943  -0.609 -0.0555  1.0980  0.9120
    9CHTO   C11 3749   7.053   4.005  -0.399 -0.0425  0.0184  0.2679
    9CHTO   H24 3750   7.123   4.090  -0.405 -0.3638  0.2467 -0.2376
    9CHTO    O8 3751   7.057   3.960  -0.261 -0.2984 -0.3124 -0.3794
    9CHTO    H3 3752   7.124   4.011  -0.221  0.7116 -0.6573 -1.6005
    9CHTO    C9 3753   6.911   4.048  -0.450 -0.9120 -0.7071 -0.4677
    9CHTO   H22 3754   6.925   4.075  -0.556  3.5489 -0.7095  0.0559
    9CHTO    N2 3755   6.862   4.173  -0.387 -0.0469 -0.0948 -0.0471
    9CHTO   H10 3756   6.784   4.200  -0.457  0.1559 -2.0435 -1.0520
    9CHTO   H11 3757   6.937   4.249  -0.371 -0.8804  0.8373 -0.4909
    9CHTO    C7 3758   6.819   3.930  -0.445 -1.4180  0.1231  0.2164
    9CHTO   H20 3759   6.724   3.977  -0.478 -1.9818 -1.2795 -0.1717
    9CHTO    O4 3760   6.864   3.825  -0.538  0.6905 -0.0255 -0.2570
    9CHTO   C14 3761   7.002   3.783  -0.536  0.4104 -0.4707  1.3209
    9CHTO   H27 3762   7.017   3.743  -0.639 -0.8742 -2.4540  1.8901
    9CHTO   C18 3763   7.017   3.663  -0.442 -0.0400 -0.2647 -0.0151
    9CHTO   O13 3764   6.924   3.564  -0.476 -0.6090  0.2161  0.2059
    9CHTO    H7 3765   6.850   3.572  -0.420  0.1092 -2.3690  1.6232
    9CHTO    O2 3766   6.798   3.863  -0.300  0.3765  0.1343 -0.4454
    9CHTO    C1 3767   6.674   3.816  -0.256  0.2468 -0.0973  0.6589
    9CHTO   H14 3768   6.703   3.729  -0.194  0.8547  0.3693  1.0380
    9CHTO    C2 3769   6.574   3.763  -0.365 -0.1695  0.0810 -0.2243
    9CHTO   H15 3770   6.565   3.851  -0.431 -0.5651 -0.1931 -0.5414
    9CHTO    O6 3771   6.641   3.659  -0.439 -0.2691  0.9344  0.0981
    9CHTO    H1 3772   6.633   3.580  -0.390  1.9749  0.9141  0.4701
    9CHTO    C3 3773   6.430   3.720  -0.304  0.0017  0.2630  0.7893
    9CHTO   H16 3774   6.442   3.633  -0.239 -0.2682 -0.3792 -0.0119
    9CHTO    N1 3775   6.334   3.697  -0.418  0.3103  0.5880  0.2081
    9CHTO    H8 3776   6.315   3.772  -0.493 -0.5679 -0.6886 -0.8741
    9CHTO    H9 3777   6.242   3.656  -0.378  0.5404  0.4015  0.5574
    9CHTO    C4 3778   6.378   3.830  -0.202 -0.4227  0.0408 -0.5435
    9CHTO   H17 3779   6.353   3.923  -0.253 -1.3910  1.1403  1.8971
    9CHTO    O1 3780   6.484   3.841  -0.100 -0.0496 -0.0849 -0.5970
    9CHTO    C5 3781   6.600   3.909  -0.157 -0.2203  0.4818 -0.1475
    9CHTO   H18 3782   6.569   4.002  -0.206 -0.3787  1.3754  1.5882
    9CHTO   C16 3783   6.691   3.942  -0.045  0.7574  0.3567 -0.4959
    9CHTO   O11 3784   6.797   4.028  -0.082 -0.3515  0.3297 -0.3707
    9CHTO    H5 3785   6.825   4.082  -0.011  0.1803 -0.1162 -0.2411
    9CHTO    O3 3786   6.268   3.784  -0.121  0.2986  0.0892  0.1652
    9CHTO    C6 3787   6.178   3.892  -0.078  0.7914 -0.8580  0.1228
    9CHTO   H19 3788   6.227   3.989  -0.071 -0.7058 -0.2007  1.7606
    9CHTO    C8 3789   6.057   3.883  -0.181  0.1652  0.3027  0.2003
    9CHTO   H21 3790   6.032   3.777  -0.187  0.1913  0.3254 -0.3087
    9CHTO    O7 3791   6.099   3.920  -0.316 -1.0209  0.0813 -0.0267
    9CHTO    H2 3792   6.027   3.923  -0.375 -0.4148  0.8034 -0.7445
    9CHTO   C12 3793   5.929   3.977  -0.135 -1.0093  0.1110 -0.0665
    9CHTO   H25 3794   5.962   4.082  -0.152  1.0178 -0.6895 -1.2935
    9CHTO    N3 3795   5.804   3.963  -0.208 -0.1949  0.2938 -0.5467
    9CHTO   H12 3796   5.760   3.867  -0.190 -1.5746  1.0218 -0.0102
    9CHTO   H13 3797   5.736   4.033  -0.162 -0.3443 -1.8398  2.6201
    9CHTO   C15 3798   5.905   3.969   0.022  0.0091  0.0329 -0.1343
    9CHTO   H28 3799   5.863   3.873   0.051  1.8848 -0.1649  2.0853
    9CHTO   O10 3800   5.809   4.100   0.063 -0.1999  0.5485 -0.0810
    9CHTO    H4 3801   5.767   4.095   0.147 -0.9657  0.9918 -0.4315
    9CHTO    O5 3802   6.022   3.974   0.101 -0.1929  0.4154 -0.3456
    9CHTO   C10 3803   6.121   3.869   0.067  0.0457 -0.4113  0.2113
    9CHTO   H23 3804   6.077   3.770   0.075 -0.7154 -0.3512 -2.5910
    9CHTO   C17 3805   6.238   3.873   0.171  0.5081 -0.1467 -0.5757
    9CHTO   O12 3806   6.192   3.842   0.305  0.2004  0.3375  0.1212
    9CHTO    H6 3807   6.265   3.818   0.359  0.8560 -0.3414 -1.0473
   10CHTO  H203 3808   5.605   6.510   2.255 -0.0928  0.0471 -0.1595
   10CHTO   O82 3809   5.534   6.453   2.232  0.2661 -0.4940  0.0698
   10CHTO  C123 3810   5.420   6.527   2.202  1.2497 -0.2518 -0.0843
   10CHTO  H227 3811   5.408   6.521   2.093 -1.7370 -1.2112  0.2669
   10CHTO   O77 3812   5.314   6.444   2.256 -0.9387 -0.4199 -0.1945
   10CHTO  C118 3813   5.175   6.474   2.229 -0.9701 -0.6664 -0.0388
   10CHTO  H222 3814   5.156   6.483   2.121  0.6941 -0.2395 -0.3177
   10CHTO  C125 3815   5.083   6.356   2.291 -1.2348  0.2280  0.9222
   10CHTO   O84 3816   5.112   6.236   2.228  0.1151 -0.4967 -0.1621
   10CHTO  H205 3817   5.066   6.214   2.150  0.8635 -0.6236 -0.5738
   10CHTO  C114 3818   5.165   6.609   2.302 -0.3660  0.3016  0.3715
   10CHTO  H218 3819   5.187   6.596   2.408 -2.5655 -0.8999  0.7051
   10CHTO  C116 3820   5.264   6.708   2.245  0.2747 -0.3996 -0.1794
   10CHTO  H220 3821   5.238   6.726   2.138 -0.1363  2.4818  0.3583
   10CHTO   O79 3822   5.224   6.828   2.312  0.0256 -0.1447  0.0595
   10CHTO  H201 3823   5.283   6.901   2.306  2.7844 -2.4031 -1.1133
   10CHTO  C120 3824   5.412   6.666   2.264  0.3536  0.6043 -0.2308
   10CHTO  H224 3825   5.435   6.672   2.372 -3.0348 -0.7791  0.6433
   10CHTO   N21 3826   5.508   6.763   2.195  0.1485  0.3786 -0.0066
   10CHTO  H211 3827   5.600   6.711   2.175  0.8729  1.5132  0.3632
   10CHTO  H212 3828   5.535   6.855   2.243 -0.3229  1.5270 -1.8773
   10CHTO   O75 3829   5.027   6.641   2.282  0.1310  0.2336  0.1641
   10CHTO  C112 3830   4.938   6.661   2.422 -0.4239  0.6636 -0.5124
   10CHTO  H216 3831   5.010   6.692   2.500  1.0843 -1.7950 -0.8762
   10CHTO   O73 3832   4.866   6.539   2.454  0.0350 -0.2695 -0.2318
   10CHTO  C113 3833   4.793   6.549   2.582  0.2676 -0.0355 -0.7521
   10CHTO  H217 3834   4.862   6.551   2.669  0.2541  1.4844 -0.7771
   10CHTO  C124 3835   4.708   6.422   2.602 -0.3510 -0.1618 -1.1610
   10CHTO   O83 3836   4.777   6.301   2.576  0.3820  0.0888  0.2288
   10CHTO  H204 3837   4.811   6.292   2.489  0.4151 -0.1413  0.2633
   10CHTO  C109 3838   4.693   6.672   2.579  0.1545  0.0173 -0.3362
   10CHTO  H213 3839   4.613   6.648   2.507 -0.5636 -0.8718  0.7308
   10CHTO  C110 3840   4.765   6.804   2.534 -0.0206 -0.0307 -0.2227
   10CHTO  H214 3841   4.843   6.820   2.609 -1.0919  0.9390  0.6996
   10CHTO   O78 3842   4.663   6.904   2.535  0.1969  0.4822  0.0927
   10CHTO  H200 3843   4.688   6.982   2.491 -0.2379  0.3112 -0.4604
   10CHTO  C111 3844   4.829   6.774   2.397  0.4170 -0.8197 -0.0693
   10CHTO  H215 3845   4.752   6.733   2.330 -0.7483 -0.7971  1.2273
   10CHTO   N19 3846   4.878   6.896   2.334  0.6085  1.2801 -0.2883
   10CHTO  H207 3847   4.930   6.866   2.245  1.0052  1.5530 -0.1501
   10CHTO  H208 3848   4.794   6.957   2.307 -1.2695  0.0975  2.5775
   10CHTO   O74 3849   4.642   6.694   2.715  0.6408  0.5078 -0.9175
   10CHTO  C115 3850   4.482   6.692   2.718  0.1524 -0.4155 -0.3331
   10CHTO  H219 3851   4.439   6.723   2.622  1.3862 -0.1931 -0.8189
   10CHTO   O76 3852   4.432   6.555   2.731 -0.0247  0.4693 -0.0738
   10CHTO  C122 3853   4.467   6.491   2.857  0.4367  0.1505  0.2083
   10CHTO  H226 3854   4.575   6.476   2.855  0.2200 -1.3112 -0.4348
   10CHTO  C126 3855   4.407   6.344   2.832 -0.4049  0.3750  0.4502
   10CHTO   O85 3856   4.483   6.256   2.749  0.1095 -0.4422 -0.1528
   10CHTO  H206 3857   4.423   6.225   2.684 -0.7327  0.8365 -0.0117
   10CHTO  C121 3858   4.419   6.569   2.986 -0.6620 -0.5893 -0.5166
   10CHTO  H225 3859   4.348   6.502   3.038 -0.3899  0.4632  1.2538
   10CHTO   O81 3860   4.532   6.593   3.071  0.1284 -0.1409  0.1910
   10CHTO  H202 3861   4.556   6.684   3.068  0.7300 -0.1820  2.6849
   10CHTO  C119 3862   4.341   6.704   2.942 -0.2202  0.3755 -0.3209
   10CHTO  H223 3863   4.249   6.676   2.890  1.1307  1.6250 -3.5283
   10CHTO  C117 3864   4.424   6.789   2.835  0.4733 -0.0515 -0.4374
   10CHTO  H221 3865   4.511   6.842   2.874  0.0102  0.0671  0.4447
   10CHTO   N20 3866   4.342   6.899   2.772  0.2406 -0.7029 -0.4654
   10CHTO  H209 3867   4.311   6.866   2.674  0.2321 -1.9966 -0.0343
   10CHTO  H210 3868   4.393   6.994   2.774 -1.3960  0.1927 -0.0532
   10CHTO   O80 3869   4.280   6.790   3.070  0.1627  0.2160  0.1533
   10CHTO  C103 3870   4.120   6.777   3.113 -0.4994  0.3039  0.3537
   10CHTO  H190 3871   4.092   6.831   3.204 -1.1981  0.4173  0.0748
   10CHTO  C101 3872   4.022   6.832   2.999  0.7632 -0.5951  0.8953
   10CHTO  H188 3873   4.042   6.786   2.903  1.0950 -1.2623  1.2877
   10CHTO   O68 3874   4.048   6.996   2.994  0.4384  0.0350  0.0414
   10CHTO  H168 3875   4.119   7.016   2.937  0.4875  2.4393  0.9024
   10CHTO   C99 3876   3.872   6.819   3.052 -0.2294 -0.0012  0.1189
   10CHTO  H186 3877   3.859   6.886   3.140 -0.4607  0.9150 -0.6093
   10CHTO   N17 3878   3.770   6.863   2.947 -0.6887 -0.1644 -0.4351
   10CHTO  H174 3879   3.777   6.785   2.872  0.4368  2.6825 -3.4071
   10CHTO  H175 3880   3.674   6.871   2.996  0.2719  4.8132  0.9271
   10CHTO   C97 3881   3.842   6.671   3.098 -0.5228  0.6708  0.4024
   10CHTO  H184 3882   3.809   6.614   3.010 -1.1417  0.1471  0.9724
   10CHTO   O64 3883   3.944   6.602   3.173  0.4774 -0.2884  0.1859
   10CHTO  C104 3884   4.086   6.627   3.141 -0.0220  0.1677  0.9363
   10CHTO  H191 3885   4.118   6.566   3.057  0.5796  2.2800 -0.4196
   10CHTO  C108 3886   4.169   6.577   3.257  0.3225  0.2572 -0.0679
   10CHTO   O71 3887   4.171   6.437   3.247 -0.1020  0.7390  0.1982
   10CHTO  H171 3888   4.244   6.402   3.201 -1.4337 -1.6956 -0.1495
   10CHTO   O62 3889   3.727   6.673   3.187  0.1254 -0.0140  0.7748
   10CHTO   C91 3890   3.645   6.555   3.186 -0.0461  0.4598  0.2933
   10CHTO  H178 3891   3.654   6.519   3.084 -0.9824  0.8288  0.0722
   10CHTO   C92 3892   3.496   6.601   3.208 -0.1696  0.3237  0.0703
   10CHTO  H179 3893   3.471   6.680   3.136  0.5772  0.3642 -0.1441
   10CHTO   O66 3894   3.413   6.495   3.164 -0.6136 -0.1840 -0.2615
   10CHTO  H166 3895   3.393   6.515   3.075 -1.6477 -0.0586 -0.0101
   10CHTO   C93 3896   3.458   6.626   3.351 -0.6314 -0.2636 -0.1476
   10CHTO  H180 3897   3.349   6.612   3.365 -0.4273 -0.0025  1.8942
   10CHTO   N16 3898   3.465   6.770   3.378  0.8593  0.1373 -0.0770
   10CHTO  H172 3899   3.442   6.819   3.472 -2.5527 -1.2265 -0.0995
   10CHTO  H173 3900   3.464   6.830   3.289 -0.2782  1.1906  0.6179
   10CHTO   C94 3901   3.533   6.545   3.466  0.4050  0.1422  0.4313
   10CHTO  H181 3902   3.621   6.598   3.504  0.7988  0.2231 -0.5683
   10CHTO   O61 3903   3.580   6.424   3.409 -0.2278  0.3461 -0.1745
   10CHTO   C95 3904   3.679   6.455   3.306 -0.1243  0.0354 -0.1961
   10CHTO  H182 3905   3.771   6.481   3.360 -0.3944 -0.2136  0.3821
   10CHTO  C106 3906   3.705   6.316   3.237  0.6667 -0.2535 -0.2506
   10CHTO   O69 3907   3.812   6.316   3.152  0.0362 -0.1507  0.0963
   10CHTO  H169 3908   3.841   6.235   3.115 -0.9616 -0.2692 -0.4585
   10CHTO   O63 3909   3.437   6.530   3.585  0.2263 -0.7740  0.3490
   10CHTO   C96 3910   3.521   6.545   3.730 -0.4044  0.3100 -0.5013
   10CHTO  H183 3911   3.590   6.629   3.730  0.3959 -0.2751  2.4955
   10CHTO   C98 3912   3.606   6.422   3.771  0.4187  1.0400 -0.4951
   10CHTO  H185 3913   3.542   6.333   3.761 -0.4995  1.3409  2.1007
   10CHTO   O67 3914   3.718   6.409   3.673 -0.1867 -0.3277  0.2202
   10CHTO  H167 3915   3.789   6.357   3.703 -0.9766 -1.6644 -0.2046
   10CHTO  C102 3916   3.659   6.428   3.927 -0.2922 -0.3591  0.6772
   10CHTO  H189 3917   3.726   6.515   3.938 -0.9743  0.1294  1.0314
   10CHTO   N18 3918   3.736   6.307   3.966 -0.1749  0.4074  0.6637
   10CHTO  H176 3919   3.809   6.327   4.044  0.7705 -1.3872  0.2834
   10CHTO  H177 3920   3.665   6.237   4.007 -1.6094  1.7375  0.4944
   10CHTO  C105 3921   3.530   6.453   4.008 -0.1321 -0.6376 -0.1272
   10CHTO  H192 3922   3.464   6.366   4.003 -1.8831  0.4464  2.8816
   10CHTO   O65 3923   3.460   6.573   3.977 -0.1899 -0.1557 -0.4076
   10CHTO  C100 3924   3.421   6.588   3.842  0.1201  0.4152  0.0986
   10CHTO  H187 3925   3.328   6.529   3.842  0.3745  0.0073 -0.2541
   10CHTO  C107 3926   3.386   6.728   3.822  0.7592 -0.5969  0.0768
   10CHTO   O70 3927   3.255   6.754   3.882 -0.2066 -0.2327  0.6999
   10CHTO  H170 3928   3.182   6.732   3.827  1.0631 -1.3293 -0.5896
   10CHTO   O57 3929   3.575   6.472   4.163 -0.1102 -0.1192 -0.6877
   10CHTO   C85 3930   3.503   6.428   4.280 -0.0581 -0.7484 -0.3013
   10CHTO  H157 3931   3.393   6.425   4.262 -0.2957  1.1087  0.6618
   10CHTO   C83 3932   3.527   6.534   4.392 -0.1102 -0.4149  0.1867
   10CHTO  H155 3933   3.464   6.620   4.370 -1.3532 -1.5616 -0.8811
   10CHTO   O56 3934   3.668   6.562   4.391  0.0217 -0.4825  0.3250
   10CHTO  H135 3935   3.677   6.654   4.373  1.1484 -0.7851 -0.6343
   10CHTO   C81 3936   3.485   6.484   4.531  0.2780 -0.1166  0.3464
   10CHTO  H153 3937   3.379   6.460   4.535 -0.4761  3.1469  2.1143
   10CHTO   N14 3938   3.491   6.580   4.641  0.1943  0.0916  0.3313
   10CHTO  H141 3939   3.587   6.627   4.647  0.6744 -0.7045 -0.9656
   10CHTO  H142 3940   3.413   6.653   4.641 -0.3579 -0.4830  1.4801
   10CHTO   C79 3941   3.565   6.355   4.564 -0.2050  0.4001  0.0119
   10CHTO  H151 3942   3.528   6.322   4.661 -0.5597 -1.7365 -0.8374
   10CHTO   O52 3943   3.536   6.253   4.470 -0.2703  0.1473  0.4117
   10CHTO   C86 3944   3.560   6.292   4.332  0.1654 -0.6890  0.0856
   10CHTO  H158 3945   3.671   6.299   4.335  0.2456 -1.1410 -1.2565
   10CHTO   C90 3946   3.523   6.179   4.236  0.6190 -0.6227  0.0405
   10CHTO   O60 3947   3.626   6.080   4.260 -0.0576 -0.3191  0.4724
   10CHTO  H138 3948   3.639   6.019   4.190 -1.6748 -0.6494  0.4406
   10CHTO   O50 3949   3.708   6.367   4.574 -0.7480 -0.0038 -0.1498
   10CHTO   C73 3950   3.817   6.299   4.648 -0.6207  0.3893 -0.7746
   10CHTO  H145 3951   3.794   6.197   4.680  0.8718 -0.0434 -1.0451
   10CHTO   C74 3952   3.837   6.383   4.779  0.5863  0.3259  0.0495
   10CHTO  H146 3953   3.741   6.382   4.832  1.3063  1.8823  1.4538
   10CHTO   O54 3954   3.930   6.309   4.858 -0.7678 -0.0269  0.0826
   10CHTO  H133 3955   3.884   6.237   4.898 -0.0247 -0.9688 -0.7188
   10CHTO   C75 3956   3.884   6.533   4.741  0.5389  0.0058  0.0008
   10CHTO  H147 3957   3.805   6.573   4.677 -0.0081 -1.4970 -0.2706
   10CHTO   N13 3958   3.897   6.617   4.861  0.1787 -0.2075  0.0670
   10CHTO  H139 3959   3.837   6.703   4.836  1.8510  0.6963 -0.9378
   10CHTO  H140 3960   3.848   6.569   4.944 -0.6379 -3.1585 -2.0850
   10CHTO   C76 3961   4.017   6.522   4.658  0.0838  0.3036  0.0647
   10CHTO  H148 3962   4.091   6.486   4.729  3.7746  0.8729 -3.3205
   10CHTO   O49 3963   4.005   6.441   4.539  0.0660  0.7707  0.4770
   10CHTO   C77 3964   3.955   6.302   4.562  0.4608 -0.7718 -0.2758
   10CHTO  H149 3965   4.039   6.261   4.619  2.2480  0.7152 -1.7875
   10CHTO   C88 3966   3.938   6.230   4.427 -0.3288  0.7208 -0.0260
   10CHTO   O58 3967   3.956   6.090   4.456  0.6191 -0.0419  0.5453
   10CHTO  H136 3968   3.893   6.057   4.517  2.4193 -0.9469  1.9473
   10CHTO   O51 3969   4.067   6.675   4.595  0.4304  0.1774  0.4076
   10CHTO   C78 3970   4.217   6.698   4.610  0.4048 -0.0102 -0.9194
   10CHTO  H150 3971   4.271   6.608   4.573  1.7200 -0.0161  0.9160
   10CHTO   C80 3972   4.256   6.727   4.755  0.6784 -0.4778  0.0876
   10CHTO  H152 3973   4.181   6.791   4.806 -0.5788 -0.5991 -1.5789
   10CHTO   O55 3974   4.252   6.600   4.824 -0.8326 -1.1115  0.3591
   10CHTO  H134 3975   4.175   6.549   4.805  0.0794 -2.5999  0.5226
   10CHTO   C84 3976   4.408   6.787   4.769 -0.2258 -0.0883  0.0233
   10CHTO  H156 3977   4.475   6.702   4.755 -0.7161 -0.5739  0.5964
   10CHTO   N15 3978   4.433   6.826   4.912  0.2357 -0.9392  0.2425
   10CHTO  H143 3979   4.345   6.873   4.951 -0.2612 -1.2628 -0.4699
   10CHTO  H144 3980   4.516   6.892   4.918 -0.3273 -0.3944  2.5080
   10CHTO   C87 3981   4.420   6.904   4.665  0.0521 -0.3361  0.6634
   10CHTO  H159 3982   4.356   6.988   4.693  1.2489  0.5044  0.8885
   10CHTO   O53 3983   4.395   6.847   4.532  0.4100 -0.3694 -0.4718
   10CHTO   C82 3984   4.258   6.817   4.523  0.2186  0.5262 -0.2174
   10CHTO  H154 3985   4.202   6.906   4.550  0.6955  0.7711 -0.0171
   10CHTO   C89 3986   4.219   6.780   4.378  0.0347 -0.2735  0.3439
   10CHTO   O59 3987   4.213   6.891   4.286 -0.3929 -0.0043  0.4640
   10CHTO  H137 3988   4.161   6.964   4.316 -0.7805 -0.3065  0.5294
   10CHTO   O45 3989   4.563   6.959   4.660  0.3209  0.1476  0.0224
   10CHTO   C67 3990   4.571   7.101   4.651 -0.8782 -0.2809  0.9155
   10CHTO  H124 3991   4.512   7.127   4.563  0.4951  1.7699  0.5779
   10CHTO   C65 3992   4.518   7.179   4.780  0.5309  0.6466  0.7775
   10CHTO  H122 3993   4.506   7.108   4.862 -0.0327 -1.6172 -1.2259
   10CHTO   O44 3994   4.397   7.244   4.750  0.3276 -0.4268  0.1354
   10CHTO  H102 3995   4.357   7.289   4.822  0.2400  1.0676 -0.8217
   10CHTO   C63 3996   4.624   7.277   4.846 -0.3416 -0.2400  0.3652
   10CHTO  H120 3997   4.715   7.221   4.868 -0.4875 -0.8245 -0.4916
   10CHTO   N11 3998   4.580   7.344   4.973  0.1808  0.0375  0.2658
   10CHTO  H108 3999   4.518   7.265   5.011  0.6741  0.8804  2.9289
   10CHTO  H109 4000   4.662   7.361   5.040  0.3418 -0.5497  0.2156
   10CHTO   C61 4001   4.672   7.375   4.729  0.1744 -0.0784  0.5972
   10CHTO  H118 4002   4.759   7.427   4.774  1.0100 -1.3770  0.5085
   10CHTO   O40 4003   4.732   7.294   4.626  0.1359  0.0696 -0.6777
   10CHTO   C68 4004   4.719   7.150   4.620  0.1706 -0.0686 -0.8526
   10CHTO  H125 4005   4.791   7.112   4.696  0.4899  1.0840 -0.5717
   10CHTO   C72 4006   4.771   7.107   4.481 -0.2673  0.3449  0.2221
   10CHTO   O48 4007   4.781   6.959   4.472 -0.1348 -0.3311 -0.1617
   10CHTO  H105 4008   4.772   6.921   4.557 -1.0390 -0.1646 -0.1780
   10CHTO   O38 4009   4.567   7.461   4.672  0.1521  0.0787  0.1753
   10CHTO   C55 4010   4.599   7.598   4.631 -0.4967 -0.3567  0.0007
   10CHTO  H112 4011   4.507   7.620   4.575 -0.8015  0.6678  0.8745
   10CHTO   C56 4012   4.728   7.610   4.539 -0.5915 -0.3078 -0.3532
   10CHTO  H113 4013   4.810   7.548   4.579  0.8099 -0.0868 -2.7811
   10CHTO   O42 4014   4.701   7.544   4.422  0.3791  0.1652  0.2600
   10CHTO  H100 4015   4.636   7.595   4.377 -0.6965 -1.5347 -0.1742
   10CHTO   C57 4016   4.788   7.753   4.521 -0.8803 -0.0952 -0.1266
   10CHTO  H114 4017   4.722   7.798   4.447 -2.1284 -0.2329  0.8795
   10CHTO   N10 4018   4.919   7.755   4.462  0.2902 -0.3575  0.5080
   10CHTO  H106 4019   4.944   7.860   4.453 -0.6134 -0.0661  1.3123
   10CHTO  H107 4020   4.999   7.699   4.508  2.5914  0.1843 -2.6672
   10CHTO   C58 4021   4.779   7.836   4.655 -0.3316  0.5774  0.2462
   10CHTO  H115 4022   4.844   7.793   4.734 -1.8731 -0.6867  0.8491
   10CHTO   O37 4023   4.656   7.824   4.716 -0.4149 -0.2486  0.2056
   10CHTO   C59 4024   4.610   7.694   4.755  0.0621  0.4157  0.2921
   10CHTO  H116 4025   4.677   7.650   4.829  0.2980  0.4626  0.1046
   10CHTO   C70 4026   4.472   7.708   4.816 -0.4390  0.7847  0.1245
   10CHTO   O46 4027   4.479   7.731   4.955 -0.5438  0.1246  0.0694
   10CHTO  H103 4028   4.407   7.783   4.984 -1.1901 -0.5346 -0.3669
   10CHTO   O39 4029   4.822   7.993   4.614  0.2068  1.1131 -0.3247
   10CHTO   C60 4030   4.808   8.102   4.703 -0.0359 -0.5725 -0.5388
   10CHTO  H117 4031   4.712   8.096   4.756  0.9896  1.6403  1.6578
   10CHTO   C62 4032   4.942   8.102   4.786  0.8483  0.0071 -0.8216
   10CHTO  H119 4033   4.938   8.008   4.846 -1.3747  1.7752  1.9473
   10CHTO   O43 4034   5.052   8.101   4.695  0.6813  0.3228 -0.5156
   10CHTO  H101 4035   5.052   8.179   4.643  2.2725 -0.7547 -2.2124
   10CHTO   C66 4036   4.947   8.220   4.892  0.2667  0.2361 -0.3361
   10CHTO  H123 4037   4.860   8.216   4.958 -0.3130 -0.7638 -1.1519
   10CHTO   N12 4038   5.067   8.209   4.981  0.0609  0.0440  0.2469
   10CHTO  H110 4039   5.164   8.216   4.935 -1.1733  0.8079 -2.2955
   10CHTO  H111 4040   5.061   8.124   5.048 -0.2434  0.0650  0.2465
   10CHTO   C69 4041   4.951   8.354   4.812  0.4526 -0.4695 -0.4510
   10CHTO  H126 4042   5.039   8.336   4.746 -0.4072 -3.0117 -0.9613
   10CHTO   O41 4043   4.821   8.363   4.714  0.0633  0.1197 -1.1488
   10CHTO   C64 4044   4.800   8.236   4.618  0.0526 -0.3079  0.1008
   10CHTO  H121 4045   4.864   8.244   4.527 -0.2307 -1.3771 -0.2039
   10CHTO   C71 4046   4.657   8.250   4.563  0.5843  0.0467 -0.3614
   10CHTO   O47 4047   4.649   8.381   4.507  0.3994 -0.2322  0.0308
   10CHTO  H104 4048   4.573   8.403   4.456 -0.2017  4.2583  2.6259
   10CHTO   O34 4049   4.954   8.477   4.909  0.0528  0.0278  0.3871
   10CHTO   C49 4050   5.048   8.586   4.884  0.1791  0.0806  0.1914
   10CHTO   H91 4051   5.143   8.538   4.908  0.6672 -0.1097 -2.0425
   10CHTO   C47 4052   5.011   8.699   4.983 -0.2335  0.4880  0.0828
   10CHTO   H89 4053   5.096   8.770   4.976  0.7110 -0.4560  1.6016
   10CHTO   O33 4054   5.024   8.640   5.112 -0.5062 -0.2438 -0.6550
   10CHTO   H70 4055   5.107   8.656   5.150 -0.7368 -0.0989 -0.2102
   10CHTO   C45 4056   4.863   8.768   4.965 -0.4549  0.1886  0.4988
   10CHTO   H87 4057   4.784   8.692   4.956  1.3370 -1.5494 -1.2139
   10CHTO    N8 4058   4.826   8.862   5.073 -0.2544  0.4424  0.4131
   10CHTO   H75 4059   4.739   8.922   5.050  0.6486  1.6066 -0.0088
   10CHTO   H76 4060   4.901   8.917   5.127 -1.2972  1.7441  0.5790
   10CHTO   C43 4061   4.864   8.835   4.825  0.4816  0.6688  0.2336
   10CHTO   H85 4062   4.763   8.872   4.806 -0.9431 -3.1578 -0.2165
   10CHTO   O29 4063   4.906   8.743   4.726 -0.2182  0.3203 -0.3926
   10CHTO   C50 4064   5.028   8.657   4.745 -0.1900  0.0757  0.3908
   10CHTO   H92 4065   5.027   8.576   4.670  2.2509 -0.8095  1.2526
   10CHTO   C54 4066   5.163   8.726   4.717  0.0361  0.2497  0.4400
   10CHTO   O36 4067   5.175   8.773   4.587 -0.1139  0.4381 -0.4555
   10CHTO   H72 4068   5.251   8.828   4.582  0.9816 -1.1681 -2.0905
   10CHTO   O27 4069   4.942   8.951   4.818  0.0044 -0.4409 -0.4398
   10CHTO   C37 4070   4.981   9.074   4.744  0.0412  0.0512 -0.5947
   10CHTO   H79 4071   5.082   9.070   4.702 -0.4925  0.4973 -1.9528
   10CHTO   C38 4072   4.884   9.086   4.625  0.1953  0.2438  0.7108
   10CHTO   H80 4073   4.781   9.064   4.655 -0.5072 -0.3852 -2.0117
   10CHTO   O31 4074   4.923   8.977   4.539  0.2542 -0.2263  0.6105
   10CHTO   H68 4075   4.901   8.976   4.448 -0.2632  0.7770  0.7184
   10CHTO   C39 4076   4.895   9.223   4.549 -0.8253 -0.1199 -0.2307
   10CHTO   H81 4077   4.986   9.214   4.490 -0.2244  0.9688  0.5175
   10CHTO    N7 4078   4.776   9.243   4.469 -0.6791 -0.2817 -0.4703
   10CHTO   H73 4079   4.807   9.305   4.386 -0.6621 -0.2109 -0.4111
   10CHTO   H74 4080   4.739   9.151   4.425  0.7455 -0.1558 -1.9513
   10CHTO   C40 4081   4.914   9.343   4.653  0.3409  0.4934 -0.0540
   10CHTO   H82 4082   4.817   9.368   4.696  0.2158 -2.1688  1.3511
   10CHTO   O26 4083   5.011   9.318   4.759  0.4343 -0.2575 -1.0037
   10CHTO   C41 4084   4.972   9.198   4.831  0.2400  0.5548  0.1780
   10CHTO   H83 4085   4.867   9.206   4.861  0.4497 -1.0684  1.3942
   10CHTO   C52 4086   5.064   9.186   4.957 -0.0093 -0.5819  0.5471
   10CHTO   O35 4087   5.050   9.307   5.030 -0.2988 -0.1176 -0.4275
   10CHTO   H71 4088   5.093   9.375   4.982  2.6424 -0.5429  1.4240
   10CHTO   O28 4089   4.962   9.458   4.589  0.3578 -0.1521  0.3466
   10CHTO   C42 4090   4.938   9.602   4.636  0.3538  1.0035  0.2758
   10CHTO   H84 4091   4.890   9.591   4.733 -1.6546 -1.9736 -0.9439
   10CHTO   C44 4092   4.827   9.671   4.544 -0.3028 -0.2653 -0.1709
   10CHTO   H86 4093   4.859   9.671   4.440 -0.2910  0.1268 -0.1680
   10CHTO   O32 4094   4.702   9.588   4.564  0.1379 -0.0580  0.4131
   10CHTO   H69 4095   4.717   9.503   4.526  0.8110  0.8178 -1.3684
   10CHTO   C48 4096   4.814   9.829   4.589 -0.1945  0.0512  0.1549
   10CHTO   H90 4097   4.761   9.830   4.685  0.7747 -1.3387  0.7267
   10CHTO    N9 4098   4.718   9.894   4.499 -0.0587  0.4433  0.3924
   10CHTO   H77 4099   4.698   9.996   4.528  1.2594 -0.1861  3.7626
   10CHTO   H78 4100   4.758   9.894   4.398  1.0223 -1.6345  0.8107
   10CHTO   C51 4101   4.953   9.900   4.584 -0.2259 -0.0116  0.2007
   10CHTO   H93 4102   4.996   9.896   4.484 -0.7762  0.7157 -0.0679
   10CHTO   O30 4103   5.036   9.836   4.681  0.4881 -0.2935 -0.3833
   10CHTO   C46 4104   5.063   9.692   4.652 -0.0605  0.4115 -0.0490
   10CHTO   H88 4105   5.127   9.692   4.564 -0.0565  0.2645 -0.0460
   10CHTO   C53 4106   5.133   9.630   4.770  0.6066  1.1933  1.0124
   10CHTO   O72 4107   5.247   9.701   4.815 -0.3152 -1.1181 -0.3663
   10CHTO  H199 4108   5.215   9.782   4.850  2.8754  0.2112 -0.2739
   10CHTO   O22 4109   4.950  10.036   4.634  0.2576 -0.6151 -0.5113
   10CHTO   C31 4110   5.045  10.137   4.573  0.0705 -0.5083  0.1615
   10CHTO   H59 4111   5.027  10.229   4.632 -2.3988 -1.1826  0.5260
   10CHTO   C29 4112   5.195  10.106   4.581  0.6055  0.3759 -0.0952
   10CHTO   H57 4113   5.202  10.004   4.541 -1.3158  0.3672 -0.4763
   10CHTO   O21 4114   5.235  10.099   4.717  0.0862  0.1065 -0.2920
   10CHTO   H37 4115   5.213  10.014   4.749 -1.0976  0.8176  0.8454
   10CHTO   C27 4116   5.293  10.202   4.501 -0.2169  0.1237 -0.3693
   10CHTO   H55 4117   5.302  10.294   4.562 -1.1373 -0.9679  1.4556
   10CHTO    N5 4118   5.429  10.139   4.479  0.1143 -1.3558 -0.3011
   10CHTO   H43 4119   5.431  10.044   4.428 -0.3699 -2.8785  2.4443
   10CHTO   H44 4120   5.484  10.138   4.572 -0.5377  0.2211  0.1118
   10CHTO   C25 4121   5.223  10.230   4.363  0.2259  1.1764 -0.1522
   10CHTO   H53 4122   5.235  10.150   4.289 -0.6189  0.6032  0.3148
   10CHTO   O17 4123   5.085  10.279   4.372 -0.9489 -1.0751  0.1313
   10CHTO   C32 4124   5.004  10.176   4.425 -1.1326 -0.3910 -0.2596
   10CHTO   H60 4125   5.007  10.090   4.359  2.7232  1.5723 -2.8104
   10CHTO   C36 4126   4.863  10.242   4.418  0.2887 -0.2829  0.2799
   10CHTO   O25 4127   4.815  10.227   4.283 -0.0944  0.6550 -0.1625
   10CHTO   H40 4128   4.721  10.228   4.285 -0.1060 -1.2161  1.0006
   10CHTO   O15 4129   5.307  10.350   4.297  0.1621  0.3617 -0.4872
   10CHTO   C19 4130   5.347  10.418   4.178 -0.1798  0.3088 -0.2164
   10CHTO   H47 4131   5.311  10.358   4.093  0.3084  1.2052 -1.0694
   10CHTO   C20 4132   5.288  10.562   4.163  0.3515  0.0959 -0.0168
   10CHTO   H48 4133   5.314  10.627   4.247  0.5376 -0.4815  0.3744
   10CHTO   O19 4134   5.146  10.554   4.163  0.0120  0.6323  0.5192
   10CHTO   H35 4135   5.105  10.631   4.128 -1.2400  0.0694  0.7034
   10CHTO   C21 4136   5.342  10.634   4.029 -0.4753 -0.7836  0.2099
   10CHTO   H49 4137   5.314  10.575   3.942  0.1399  0.1943 -0.6779
   10CHTO    N4 4138   5.294  10.779   4.015  0.6415  0.4835 -0.1546
   10CHTO   H41 4139   5.256  10.807   4.112  0.5871  0.8039 -0.2683
   10CHTO   H42 4140   5.214  10.781   3.942  2.1130  2.6790 -1.7536
   10CHTO   C22 4141   5.497  10.625   4.024  0.3491  0.3778  0.8081
   10CHTO   H50 4142   5.540  10.687   4.102 -0.6914 -1.1030  2.5846
   10CHTO   O14 4143   5.544  10.489   4.049 -0.0783  0.4709 -0.1919
   10CHTO   C23 4144   5.503  10.419   4.164  0.2095  0.4451  0.1373
   10CHTO   H51 4145   5.555  10.478   4.241  0.3108  2.4528 -1.4405
   10CHTO   C34 4146   5.560  10.272   4.152 -0.1531 -0.9876 -0.1024
   10CHTO   O23 4147   5.534  10.217   4.020  0.3776  0.5297 -0.0993
   10CHTO   H38 4148   5.543  10.123   4.021  0.8075  0.5606 -0.5842
   10CHTO   O16 4149   5.558  10.654   3.899 -0.3346 -0.6966 -0.1439
   10CHTO   C24 4150   5.711  10.683   3.908 -0.6088 -0.8414 -0.5835
   10CHTO   H52 4151   5.757  10.635   3.995  2.2055 -1.8786 -2.5769
   10CHTO   C26 4152   5.744  10.832   3.912 -0.1349  0.3735  0.0014
   10CHTO   H54 4153   5.689  10.871   3.824 -3.0579  0.5613  1.8640
   10CHTO   O20 4154   5.683  10.902   4.027 -0.3529  0.4649 -0.0891
   10CHTO   H36 4155   5.592  10.885   4.019 -0.4344  1.3373 -1.0192
   10CHTO   C30 4156   5.893  10.860   3.888 -0.3028 -0.6286 -0.7343
   10CHTO   H58 4157   5.942  10.849   3.985 -0.3021  1.1291 -0.5214
   10CHTO    N6 4158   5.919  11.003   3.863  0.1421 -0.4962 -0.0448
   10CHTO   H45 4159   5.873  11.055   3.945  3.1303  1.9416  0.1893
   10CHTO   H46 4160   6.026  11.017   3.873 -0.0038 -0.0226  0.8638
   10CHTO   C33 4161   5.957  10.772   3.776 -0.4687 -0.4137  0.6795
   10CHTO   H61 4162   5.925  10.799   3.674  2.2703  0.0388 -0.1008
   10CHTO   O18 4163   5.920  10.636   3.797  0.0582 -0.4327 -0.3324
   10CHTO   C28 4164   5.780  10.614   3.788 -0.2888 -0.8702 -0.4760
   10CHTO   H56 4165   5.748  10.668   3.699  0.5824 -1.6454 -1.2658
   10CHTO   C35 4166   5.738  10.464   3.772  0.5162  0.6996  0.0130
   10CHTO   O24 4167   5.802  10.417   3.652 -0.5703  0.4663  0.3165
   10CHTO   H39 4168   5.754  10.452   3.579  1.9371  0.1729 -1.5104
   10CHTO    O9 4169   6.103  10.786   3.767 -0.1599 -0.5078  0.1163
   10CHTO   C13 4170   6.162  10.756   3.621 -0.2943  0.9303 -0.1184
   10CHTO   H26 4171   6.119  10.837   3.559 -0.3496  0.5276 -0.6043
   10CHTO   C11 4172   6.131  10.609   3.569 -0.1004 -0.7766  0.3416
   10CHTO   H24 4173   6.026  10.616   3.539 -0.1593  2.5193  1.1790
   10CHTO    O8 4174   6.143  10.509   3.671  0.1218 -0.2508 -0.4137
   10CHTO    H3 4175   6.219  10.525   3.724  0.4648  0.5015 -1.1163
   10CHTO    C9 4176   6.233  10.589   3.448  0.0595 -0.1472  0.2789
   10CHTO   H22 4177   6.233  10.680   3.386 -1.8268 -1.4580 -1.7204
   10CHTO    N2 4178   6.185  10.480   3.356 -0.3759 -0.1867  0.0031
   10CHTO   H10 4179   6.090  10.499   3.308 -0.4959  0.1152  0.3521
   10CHTO   H11 4180   6.259  10.463   3.279 -1.6475 -0.1221 -1.2550
   10CHTO    C7 4181   6.376  10.585   3.514  0.0049 -0.8875 -0.0202
   10CHTO   H20 4182   6.441  10.633   3.438 -0.2088  0.8982  0.8957
   10CHTO    O4 4183   6.400  10.668   3.633  0.2728 -0.0362  0.0257
   10CHTO   C14 4184   6.321  10.783   3.627 -0.3338  0.2727 -0.3728
   10CHTO   H27 4185   6.350  10.837   3.534 -0.4101 -0.0631 -0.5928
   10CHTO   C18 4186   6.373  10.871   3.747  0.0623 -0.3832 -0.3385
   10CHTO   O13 4187   6.495  10.939   3.719 -0.3775  0.0975 -0.3423
   10CHTO    H7 4188   6.531  10.925   3.634 -1.0466 -0.7153 -0.4969
   10CHTO    O2 4189   6.423  10.443   3.538  0.7326 -0.0325  0.5027
   10CHTO    C1 4190   6.557  10.431   3.590 -0.3655 -0.0558 -0.5934
   10CHTO   H14 4191   6.571  10.519   3.655  3.3227  0.2091 -1.6103
   10CHTO    C2 4192   6.676  10.421   3.488  0.0270  0.2243  0.2937
   10CHTO   H15 4193   6.671  10.329   3.428  1.8430  0.1139  0.3112
   10CHTO    O6 4194   6.682  10.537   3.405 -0.3086  0.0245  0.6794
   10CHTO    H1 4195   6.700  10.616   3.453  2.5662  0.0635 -0.3421
   10CHTO    C3 4196   6.820  10.415   3.564 -0.1726  0.0794  0.0077
   10CHTO   H16 4197   6.852  10.507   3.615  3.1651 -1.2404  0.4476
   10CHTO    N1 4198   6.940  10.389   3.475  0.1587 -0.1045 -0.6904
   10CHTO    H8 4199   6.940  10.468   3.401  1.9281  0.0759 -0.5387
   10CHTO    H9 4200   6.929  10.296   3.420 -0.5550  1.0827 -2.6153
   10CHTO    C4 4201   6.814  10.304   3.680  0.2983  0.1037 -0.1786
   10CHTO   H17 4202   6.827  10.206   3.634  0.3956  0.2665 -0.5017
   10CHTO    O1 4203   6.697  10.321   3.758 -0.3618  0.2789 -0.4279
   10CHTO    C5 4204   6.575  10.308   3.691 -0.4253 -0.2312 -0.2395
   10CHTO   H18 4205   6.564  10.215   3.635 -1.5438  0.4276 -1.1428
   10CHTO   C16 4206   6.477  10.308   3.810  0.1521 -0.5294  0.2924
   10CHTO   O11 4207   6.356  10.254   3.766 -0.3162  0.3013 -0.3399
   10CHTO    H5 4208   6.305  10.222   3.837  0.9676 -0.5196  0.2370
   10CHTO    O3 4209   6.924  10.336   3.767  0.1187 -0.2918 -0.6090
   10CHTO    C6 4210   6.980  10.231   3.845  0.5725  0.4265  0.0511
   10CHTO   H19 4211   6.910  10.149   3.862  1.9670 -1.2067 -1.7773
   10CHTO    C8 4212   7.102  10.174   3.773 -0.2240  0.2613 -0.6748
   10CHTO   H21 4213   7.165  10.256   3.741  1.4111 -0.5868  0.2656
   10CHTO    O7 4214   7.062  10.102   3.657  0.4101  0.5326 -0.1842
   10CHTO    H2 4215   7.133  10.051   3.622 -1.9980 -4.1840  1.2619
   10CHTO   C12 4216   7.179  10.079   3.868  0.1109 -0.0663  0.0073
   10CHTO   H25 4217   7.107   9.998   3.894  2.0708 -1.1469  2.2460
   10CHTO    N3 4218   7.297  10.012   3.803 -0.5989  0.3723  0.3815
   10CHTO   H12 4219   7.254   9.930   3.748  0.6546 -1.2665  1.7917
   10CHTO   H13 4220   7.363   9.972   3.879  1.0344  0.8965 -0.7244
   10CHTO   C15 4221   7.214  10.155   4.002 -0.2244 -0.5618 -0.1693
   10CHTO   H28 4222   7.285  10.236   3.983 -1.1089  0.4948  0.8777
   10CHTO   O10 4223   7.264  10.079   4.099 -0.0213 -0.0692  0.6389
   10CHTO    H4 4224   7.280  10.128   4.178 -0.0689 -0.1251  0.6826
   10CHTO    O5 4225   7.095  10.212   4.063  0.4909 -0.7551 -0.1254
   10CHTO   C10 4226   7.014  10.300   3.984  0.9273 -0.2688 -0.2148
   10CHTO   H23 4227   7.066  10.395   3.977 -1.6430  1.1336 -1.2717
   10CHTO   C17 4228   6.880  10.317   4.054 -0.3836  0.1034 -0.5752
   10CHTO   O12 4229   6.893  10.382   4.179  0.6765 -0.1585  0.3892
   10CHTO    H6 4230   6.892  10.474   4.159 -1.4912 -0.3133 -0.3932
   11CHTO  H203 4231   7.837   4.868   0.290  0.2941  1.3662 -1.0314
   11CHTO   O82 4232   7.807   4.919   0.363  0.0218 -0.3192  0.0606
   11CHTO  C123 4233   7.778   5.056   0.331 -0.3237 -0.1566  0.2567
   11CHTO  H227 4234   7.820   5.086   0.234 -2.3460  0.7744 -0.3793
   11CHTO   O77 4235   7.627   5.063   0.329  0.8883 -0.1674 -0.0324
   11CHTO  C118 4236   7.570   5.195   0.312  0.2353 -0.0288 -0.4609
   11CHTO  H222 4237   7.607   5.236   0.217  0.1912 -1.5707 -1.1567
   11CHTO  C125 4238   7.408   5.173   0.307 -0.2016 -0.1120  0.3459
   11CHTO   O84 4239   7.343   5.289   0.259  0.3126 -0.5955  0.0797
   11CHTO  H205 4240   7.293   5.262   0.185  1.7708 -1.2136 -0.6997
   11CHTO  C114 4241   7.611   5.291   0.428 -0.0903  0.8940 -1.0423
   11CHTO  H218 4242   7.584   5.245   0.523 -1.5042  0.8355 -1.4718
   11CHTO  C116 4243   7.767   5.297   0.438  0.5350  0.4269  0.7070
   11CHTO  H220 4244   7.813   5.339   0.346  0.2093 -2.1153 -0.6455
   11CHTO   O79 4245   7.810   5.378   0.546  0.0728  0.0832 -0.7372
   11CHTO  H201 4246   7.890   5.350   0.586  0.5895  3.2471  0.6436
   11CHTO  C120 4247   7.827   5.144   0.451  0.4499  0.0395 -0.3074
   11CHTO  H224 4248   7.792   5.099   0.546 -2.2568 -1.8430 -2.1408
   11CHTO   N21 4249   7.976   5.142   0.452  0.0998 -0.3178 -0.4536
   11CHTO  H211 4250   8.034   5.217   0.399  2.4368 -1.4965  0.3455
   11CHTO  H212 4251   8.015   5.111   0.548  2.1302  0.0429 -1.1402
   11CHTO   O75 4252   7.547   5.418   0.411  0.1321  0.0068  0.4590
   11CHTO  C112 4253   7.419   5.454   0.529  0.3375 -0.1471 -0.4366
   11CHTO  H216 4254   7.399   5.359   0.581  0.2484 -0.1258 -0.4323
   11CHTO   O73 4255   7.295   5.506   0.455 -0.3657  0.1003 -0.3882
   11CHTO  C113 4256   7.194   5.543   0.548 -0.1746 -0.7690  0.1266
   11CHTO  H217 4257   7.170   5.465   0.623  2.1608 -0.7606  0.9048
   11CHTO  C124 4258   7.071   5.558   0.463 -0.3789  0.5895  0.6643
   11CHTO   O83 4259   6.961   5.490   0.526 -0.8091 -0.3842  0.2552
   11CHTO  H204 4260   6.888   5.478   0.468 -0.6085 -2.3055  0.3640
   11CHTO  C109 4261   7.244   5.674   0.625  0.1681  0.1456 -0.3807
   11CHTO  H213 4262   7.274   5.746   0.547  2.9455 -0.0705  0.4387
   11CHTO  C110 4263   7.362   5.627   0.715 -0.0725 -0.2592  0.1339
   11CHTO  H214 4264   7.339   5.557   0.796 -1.3745 -2.1971 -1.8670
   11CHTO   O78 4265   7.410   5.741   0.774  0.3168 -0.0699  0.0944
   11CHTO  H200 4266   7.499   5.735   0.801  0.5324  0.0299 -0.5778
   11CHTO  C111 4267   7.469   5.561   0.625  0.6223  0.1515  0.6596
   11CHTO  H215 4268   7.507   5.637   0.555 -0.8037  0.6246  0.3967
   11CHTO   N19 4269   7.579   5.507   0.707 -0.7461 -0.6244  0.3512
   11CHTO  H207 4270   7.580   5.549   0.807 -1.9241 -0.5545  0.3329
   11CHTO  H208 4271   7.678   5.498   0.665 -0.8499 -2.0824  0.3853
   11CHTO   O74 4272   7.136   5.723   0.706 -0.5517  0.2417 -0.3175
   11CHTO  C115 4273   7.066   5.852   0.640  0.5819  0.3568 -0.1448
   11CHTO  H219 4274   7.123   5.899   0.560 -2.2055  2.3378 -1.0802
   11CHTO   O76 4275   6.926   5.813   0.566  0.0293 -0.4119 -0.0278
   11CHTO  C122 4276   6.834   5.780   0.665  0.4638  0.2799 -0.6382
   11CHTO  H226 4277   6.879   5.699   0.721  0.8293  0.8458 -0.1013
   11CHTO  C126 4278   6.703   5.726   0.607 -0.2533  0.2765 -0.2524
   11CHTO   O85 4279   6.668   5.760   0.473 -0.5532  0.6426 -0.6664
   11CHTO  H206 4280   6.574   5.763   0.465 -1.0716 -1.5477  3.2920
   11CHTO  C121 4281   6.805   5.906   0.761 -0.5194  0.0809  0.2060
   11CHTO  H225 4282   6.713   5.945   0.713  0.1463  0.3514 -0.8706
   11CHTO   O81 4283   6.788   5.853   0.896 -0.1459 -0.4156 -0.0684
   11CHTO  H202 4284   6.697   5.858   0.917 -0.5614 -1.2920 -1.5643
   11CHTO  C119 4285   6.912   6.016   0.761 -0.4090 -0.1330  0.4656
   11CHTO  H223 4286   6.903   6.070   0.667  1.2729 -0.7064 -0.0444
   11CHTO  C117 4287   7.057   5.956   0.758 -0.7199 -0.6297 -0.2575
   11CHTO  H221 4288   7.093   5.914   0.852  0.5643 -0.0508 -0.4787
   11CHTO   N20 4289   7.157   6.065   0.729 -0.7099 -0.5025  0.3475
   11CHTO  H209 4290   7.172   6.071   0.622  1.6683 -1.8115  0.5639
   11CHTO  H210 4291   7.137   6.164   0.765 -1.0012  0.3101 -1.9690
   11CHTO   O80 4292   6.873   6.138   0.875  0.4381  0.3617  0.6078
   11CHTO  C103 4293   6.898   6.131   1.028  0.4002 -0.3867 -0.1627
   11CHTO  H190 4294   6.912   6.030   1.068 -0.1977 -0.3413  0.1666
   11CHTO  C101 4295   7.022   6.217   1.081  0.3518  0.2312 -0.3038
   11CHTO  H188 4296   7.033   6.308   1.021  3.7123 -1.0736 -1.7786
   11CHTO   O68 4297   7.143   6.124   1.050  0.2159 -0.0748 -0.0862
   11CHTO  H168 4298   7.197   6.163   0.984 -0.7969 -1.6307 -1.8902
   11CHTO   C99 4299   7.006   6.257   1.239 -0.9846 -0.4880 -0.0191
   11CHTO  H186 4300   6.997   6.175   1.313  0.0189 -1.2021 -0.6694
   11CHTO   N17 4301   7.121   6.348   1.296 -0.4222  0.5511  0.6889
   11CHTO  H174 4302   7.105   6.397   1.391  0.1015 -1.1149  1.6469
   11CHTO  H175 4303   7.140   6.427   1.225  0.5138 -0.1869  0.1231
   11CHTO   C97 4304   6.868   6.328   1.237 -0.4377 -0.1639  0.2495
   11CHTO  H184 4305   6.872   6.398   1.152  0.7686  1.0426  1.2840
   11CHTO   O64 4306   6.765   6.231   1.226 -0.0142 -0.4111  0.2924
   11CHTO  C104 4307   6.763   6.187   1.089 -0.1336 -0.6446 -0.7009
   11CHTO  H191 4308   6.734   6.269   1.023 -1.1876 -1.1316 -0.8522
   11CHTO  C108 4309   6.649   6.080   1.080  0.7024  0.2953 -0.1712
   11CHTO   O71 4310   6.522   6.141   1.104 -0.4201  0.1113  0.1122
   11CHTO  H171 4311   6.473   6.130   1.025 -0.7026 -1.6007  0.4922
   11CHTO   O62 4312   6.830   6.399   1.356  0.0391  0.4048 -0.2116
   11CHTO   C91 4313   6.757   6.517   1.331 -0.1390  0.0789 -0.2607
   11CHTO  H178 4314   6.705   6.507   1.235 -2.6209 -2.9976  1.3254
   11CHTO   C92 4315   6.857   6.634   1.321  0.2437 -0.4705  0.8699
   11CHTO  H179 4316   6.949   6.606   1.267 -0.6920 -0.3971 -0.7834
   11CHTO   O66 4317   6.802   6.736   1.237  0.0632  0.2587  0.2885
   11CHTO  H166 4318   6.816   6.718   1.146 -0.3838 -1.4473  0.5497
   11CHTO   C93 4319   6.897   6.705   1.456 -0.0439  0.1821  0.2479
   11CHTO  H180 4320   6.943   6.801   1.431 -0.9154  0.3148 -0.9158
   11CHTO   N16 4321   6.996   6.623   1.535  0.1365 -0.5204 -0.7023
   11CHTO  H172 4322   7.053   6.555   1.475  2.0917  1.8060 -1.5673
   11CHTO  H173 4323   7.055   6.693   1.593  0.4596 -0.6427 -0.8871
   11CHTO   C94 4324   6.761   6.739   1.535  0.0954  0.5367  0.4371
   11CHTO  H181 4325   6.767   6.713   1.641 -0.2211 -0.2540  0.2638
   11CHTO   O61 4326   6.640   6.682   1.485  0.0982 -1.0247  0.3143
   11CHTO   C95 4327   6.650   6.544   1.451  0.8012 -0.5774 -0.4858
   11CHTO  H182 4328   6.683   6.490   1.539 -1.3998 -4.1204 -1.7162
   11CHTO  C106 4329   6.508   6.483   1.427  0.2903  0.0098  0.3528
   11CHTO   O69 4330   6.453   6.484   1.560 -0.3712  0.0323 -0.3120
   11CHTO  H169 4331   6.424   6.398   1.585  0.6460 -0.7549 -1.7984
   11CHTO   O63 4332   6.746   6.893   1.527  0.1440 -0.0061 -0.0985
   11CHTO   C96 4333   6.758   6.959   1.660 -0.3390  0.2821 -0.3461
   11CHTO  H183 4334   6.818   6.896   1.726  0.3397  2.2301  0.9376
   11CHTO   C98 4335   6.626   6.984   1.744 -0.5966  0.2775 -0.1748
   11CHTO  H185 4336   6.563   7.052   1.686  1.3408  2.2554 -0.0432
   11CHTO   O67 4337   6.551   6.864   1.760  0.5701  0.1237  0.4183
   11CHTO  H167 4338   6.467   6.877   1.800  0.5555 -0.3052  0.5233
   11CHTO  C102 4339   6.663   7.058   1.882  0.1221  0.0551 -0.5533
   11CHTO  H189 4340   6.715   6.984   1.944  1.1779  0.6837 -0.6595
   11CHTO   N18 4341   6.544   7.107   1.956 -0.5281 -0.0730  0.0652
   11CHTO  H176 4342   6.455   7.076   1.904  0.6279  1.2492 -2.8348
   11CHTO  H177 4343   6.555   7.062   2.054 -0.6692 -1.9260 -0.7488
   11CHTO  C105 4344   6.772   7.169   1.867  0.5597 -0.0571 -0.0605
   11CHTO  H192 4345   6.736   7.261   1.913  1.8052  1.4291 -1.9793
   11CHTO   O65 4346   6.814   7.199   1.727  0.1456 -0.2405 -0.1480
   11CHTO  C100 4347   6.844   7.091   1.635 -0.6111 -0.3638 -0.0399
   11CHTO  H187 4348   6.816   7.125   1.535 -0.6243 -0.3895 -0.0450
   11CHTO  C107 4349   6.996   7.060   1.641  0.7634  0.2165  0.3332
   11CHTO   O70 4350   7.071   7.172   1.598 -0.8372  0.0006 -0.5181
   11CHTO  H170 4351   7.158   7.141   1.581 -0.4312  0.6880  0.2992
   11CHTO   O57 4352   6.913   7.108   1.966  0.2859  0.6033  0.4601
   11CHTO   C85 4353   6.988   7.203   2.048 -0.9843  0.5787 -0.1706
   11CHTO  H157 4354   6.911   7.271   2.090 -2.0105  0.1466 -1.3091
   11CHTO   C83 4355   7.089   7.287   1.958  0.1322 -0.4505 -0.4153
   11CHTO  H155 4356   7.033   7.348   1.886  2.2224  1.1210 -0.7652
   11CHTO   O56 4357   7.175   7.195   1.886  0.0422 -0.4038  0.2391
   11CHTO  H135 4358   7.224   7.138   1.942 -0.7431  1.0585  2.5059
   11CHTO   C81 4359   7.167   7.384   2.055  0.7383 -0.1739 -0.7217
   11CHTO  H153 4360   7.098   7.449   2.108  0.9613 -0.1473 -0.4625
   11CHTO   N14 4361   7.259   7.472   1.973  0.7624  0.4397 -0.0485
   11CHTO  H141 4362   7.257   7.577   1.994  0.3005  0.1547  1.4786
   11CHTO  H142 4363   7.263   7.451   1.869 -2.1796 -1.1824  0.1137
   11CHTO   C79 4364   7.243   7.301   2.167 -0.6984 -0.3440 -0.6698
   11CHTO  H151 4365   7.287   7.378   2.231 -0.0854  0.7878 -2.4057
   11CHTO   O52 4366   7.154   7.217   2.249 -0.2542 -0.2102  0.0447
   11CHTO   C86 4367   7.076   7.126   2.160  0.0229 -0.1801  0.0494
   11CHTO  H158 4368   7.154   7.070   2.103  0.1413  2.4801 -2.5113
   11CHTO   C90 4369   6.994   7.028   2.249 -0.8450 -0.0848  0.8537
   11CHTO   O60 4370   6.914   6.937   2.171 -0.0980 -0.2611 -0.0882
   11CHTO  H138 4371   6.913   6.851   2.207  1.5937 -0.4288 -0.4030
   11CHTO   O50 4372   7.348   7.221   2.123  0.0893  0.1712 -0.0156
   11CHTO   C73 4373   7.451   7.134   2.173 -1.1083 -0.2715 -0.1426
   11CHTO  H145 4374   7.406   7.064   2.246 -2.5723  1.2636  0.4798
   11CHTO   C74 4375   7.565   7.209   2.249 -0.9112  0.2663  0.5304
   11CHTO  H146 4376   7.525   7.249   2.343  0.0533 -3.0536  2.4251
   11CHTO   O54 4377   7.663   7.115   2.297 -0.0085 -0.4455  0.7257
   11CHTO  H133 4378   7.692   7.081   2.214 -0.3982  0.6964  0.1108
   11CHTO   C75 4379   7.625   7.321   2.147  0.6926  0.2090 -0.3402
   11CHTO  H147 4380   7.543   7.388   2.118  0.6216 -0.6333 -2.1664
   11CHTO   N13 4381   7.737   7.390   2.211  0.0826 -0.0375  0.4021
   11CHTO  H139 4382   7.719   7.496   2.213 -0.6791 -0.1295 -0.8338
   11CHTO  H140 4383   7.829   7.371   2.158 -0.2638  0.9109 -0.5602
   11CHTO   C76 4384   7.658   7.241   2.011 -0.1653 -0.3618  0.1537
   11CHTO  H148 4385   7.752   7.187   2.014  0.0541  0.0476  0.5829
   11CHTO   O49 4386   7.556   7.156   1.955  0.7785  1.0728 -0.3120
   11CHTO   C77 4387   7.505   7.057   2.046  0.0166  0.4100 -0.2431
   11CHTO  H149 4388   7.584   6.990   2.080 -1.6477 -1.2008  0.5359
   11CHTO   C88 4389   7.405   6.966   1.974 -0.2919 -0.0085  0.5280
   11CHTO   O58 4390   7.471   6.906   1.832  0.2804 -0.0856 -0.7702
   11CHTO  H136 4391   7.465   6.977   1.772 -0.5094  1.1450  0.7194
   11CHTO   O51 4392   7.669   7.347   1.891  0.5351  0.1345  0.6715
   11CHTO   C78 4393   7.800   7.339   1.797  0.9919  0.2436 -0.2154
   11CHTO  H150 4394   7.875   7.264   1.828  1.9012  1.1734 -0.1102
   11CHTO   C80 4395   7.877   7.477   1.805  0.1821  0.1908 -0.1068
   11CHTO  H152 4396   7.815   7.558   1.762  0.8252 -0.2324 -1.8456
   11CHTO   O55 4397   7.908   7.500   1.942 -0.1944  0.3607 -0.2936
   11CHTO  H134 4398   7.845   7.541   1.998 -1.5400 -0.8224 -0.9159
   11CHTO   C84 4399   8.002   7.460   1.717  0.0666  0.1415  0.1070
   11CHTO  H156 4400   8.060   7.375   1.753  0.2482 -0.7478 -2.2068
   11CHTO   N15 4401   8.104   7.576   1.718 -0.7532 -0.1919  0.2368
   11CHTO  H143 4402   8.182   7.556   1.647 -2.9255 -1.7745 -1.7726
   11CHTO  H144 4403   8.148   7.591   1.815 -1.1903 -0.8526  0.5350
   11CHTO   C87 4404   7.955   7.430   1.570 -0.2703  0.1704  0.5804
   11CHTO  H159 4405   7.888   7.505   1.529 -1.6482 -1.1097  0.4493
   11CHTO   O53 4406   7.881   7.300   1.574 -0.2634  0.3966  0.2147
   11CHTO   C82 4407   7.764   7.303   1.649  0.5081 -0.2516 -0.8811
   11CHTO  H154 4408   7.691   7.375   1.612  0.6525  1.4026  1.9193
   11CHTO   C89 4409   7.698   7.160   1.635 -0.6420 -0.4465 -0.2232
   11CHTO   O59 4410   7.564   7.151   1.594 -0.6310 -0.7079 -0.2772
   11CHTO  H137 4411   7.525   7.074   1.629  1.4881 -1.3298  0.7596
   11CHTO   O45 4412   8.085   7.423   1.472 -0.3909 -0.5357 -0.5233
   11CHTO   C67 4413   8.055   7.418   1.330  0.6031  0.7354 -0.4366
   11CHTO  H124 4414   7.957   7.372   1.317  0.9092  0.5494 -2.1769
   11CHTO   C65 4415   8.055   7.568   1.274 -0.4202 -0.5184  0.6185
   11CHTO  H122 4416   8.132   7.615   1.335 -0.2234  0.6551 -0.5103
   11CHTO   O44 4417   7.929   7.632   1.303 -0.0674 -0.1765 -0.4961
   11CHTO  H102 4418   7.877   7.618   1.227 -0.6439 -1.6092  0.1417
   11CHTO   C63 4419   8.111   7.570   1.128  0.0055 -0.1739 -0.1817
   11CHTO  H120 4420   8.219   7.558   1.138 -0.2033 -0.5591  1.8508
   11CHTO   N11 4421   8.098   7.700   1.054 -0.1793  0.1217 -0.2190
   11CHTO  H108 4422   8.060   7.780   1.114  1.3854  1.1532 -0.5760
   11CHTO  H109 4423   8.044   7.679   0.964  3.1823 -1.3140 -2.0161
   11CHTO   C61 4424   8.069   7.442   1.050  0.3115 -0.6075  0.1194
   11CHTO  H118 4425   8.121   7.442   0.952  1.4362 -1.0443  0.7032
   11CHTO   O40 4426   8.110   7.323   1.119 -0.2581 -0.1129 -0.1137
   11CHTO   C68 4427   8.156   7.332   1.258  0.1044  0.2046 -0.1101
   11CHTO  H125 4428   8.263   7.363   1.266  0.3673 -0.6606 -0.2246
   11CHTO   C72 4429   8.148   7.182   1.312 -0.8724  0.7353  0.5301
   11CHTO   O48 4430   8.234   7.095   1.234  0.4751 -0.1277 -0.6414
   11CHTO  H105 4431   8.213   7.005   1.248 -0.7748  0.1749 -0.5002
   11CHTO   O38 4432   7.926   7.436   1.034 -0.0654 -0.3130  0.0690
   11CHTO   C55 4433   7.880   7.351   0.928 -0.1633  0.0952  0.4269
   11CHTO  H112 4434   7.969   7.291   0.903 -0.6318 -1.4341  2.3448
   11CHTO   C56 4435   7.833   7.452   0.801  0.0666 -0.2093  0.5223
   11CHTO  H113 4436   7.755   7.522   0.832 -1.9517 -1.1261 -2.2093
   11CHTO   O42 4437   7.949   7.526   0.767 -0.4100 -0.3792  0.8265
   11CHTO  H100 4438   7.971   7.576   0.844 -1.7628  2.0587 -0.3298
   11CHTO   C57 4439   7.764   7.361   0.689 -0.2790  0.0612  0.0741
   11CHTO  H114 4440   7.843   7.298   0.648  0.0069 -0.3413  1.2103
   11CHTO   N10 4441   7.714   7.435   0.574 -0.1705  0.0868 -0.1782
   11CHTO  H106 4442   7.645   7.366   0.526 -1.1812 -0.4069  1.9302
   11CHTO  H107 4443   7.795   7.464   0.508  0.9426 -1.0964  0.6321
   11CHTO   C58 4444   7.651   7.275   0.757 -0.1191  0.1625  0.2360
   11CHTO  H115 4445   7.561   7.336   0.777  0.2581  0.4431  1.0804
   11CHTO   O37 4446   7.688   7.199   0.868  0.0612 -0.1640  0.3678
   11CHTO   C59 4447   7.755   7.270   0.974 -0.3825  0.2804 -0.2230
   11CHTO  H116 4448   7.691   7.343   1.024  1.8709  3.0123 -1.1889
   11CHTO   C70 4449   7.793   7.166   1.076 -0.7938 -0.7741 -0.2376
   11CHTO   O46 4450   7.698   7.131   1.172  0.6522 -0.4064  0.0730
   11CHTO  H103 4451   7.638   7.063   1.146  2.0887 -1.6109 -0.1838
   11CHTO   O39 4452   7.610   7.145   0.632  0.3337 -0.5774  0.2099
   11CHTO   C60 4453   7.483   7.088   0.665 -0.2503 -0.3303  0.3784
   11CHTO  H117 4454   7.438   7.147   0.745  0.0871  0.0784  0.2683
   11CHTO   C62 4455   7.387   7.121   0.542  0.2213  0.2332 -0.4763
   11CHTO  H119 4456   7.382   7.232   0.542  1.3350  0.3127 -2.1795
   11CHTO   O43 4457   7.450   7.066   0.427  0.2652  0.1383  0.2110
   11CHTO  H101 4458   7.513   7.131   0.402  1.3364 -2.2972 -3.7656
   11CHTO   C66 4459   7.239   7.069   0.559 -0.4895  0.3893 -0.0513
   11CHTO  H123 4460   7.203   7.119   0.648 -0.8476  0.4760 -0.2415
   11CHTO   N12 4461   7.142   7.104   0.452 -0.1878  0.4789 -0.2774
   11CHTO  H110 4462   7.197   7.164   0.381 -1.8544  0.3828 -1.6677
   11CHTO  H111 4463   7.093   7.019   0.406 -0.3402  0.6403 -0.4133
   11CHTO   C69 4464   7.236   6.920   0.597 -1.1273 -0.1159  0.5324
   11CHTO  H126 4465   7.277   6.870   0.507  0.2607  0.5308  0.7951
   11CHTO   O41 4466   7.326   6.895   0.708 -0.0033  0.3075  0.3810
   11CHTO   C64 4467   7.475   6.934   0.704  1.1458 -0.4633  0.6090
   11CHTO  H121 4468   7.526   6.875   0.626  6.2695  1.7162  2.0833
   11CHTO   C71 4469   7.549   6.904   0.836  0.0196  0.4720 -0.1294
   11CHTO   O47 4470   7.493   6.956   0.952  0.2837 -0.0455 -0.1844
   11CHTO  H104 4471   7.536   7.039   0.959  1.1246 -0.2951 -2.1750
   11CHTO   O34 4472   7.106   6.865   0.639 -0.3805  0.2708  0.0111
   11CHTO   C49 4473   7.058   6.726   0.626  0.3528  0.1199 -0.6894
   11CHTO   H91 4474   7.146   6.663   0.621  0.5933  0.0118  3.0193
   11CHTO   C47 4475   6.974   6.717   0.495 -0.3938  0.0106 -0.9326
   11CHTO   H89 4476   6.935   6.613   0.496 -2.6039  0.8059  0.9366
   11CHTO   O33 4477   7.059   6.737   0.381 -0.1511 -0.1583 -0.2950
   11CHTO   H70 4478   7.126   6.671   0.378 -0.2742 -0.2563 -0.9871
   11CHTO   C45 4479   6.856   6.823   0.514  0.2879  0.8336 -0.8394
   11CHTO   H87 4480   6.888   6.926   0.534  0.6241  0.7538 -0.9758
   11CHTO    N8 4481   6.764   6.826   0.398  0.2591  0.3923  0.7071
   11CHTO   H75 4482   6.709   6.919   0.397  0.6220  0.6136  1.0189
   11CHTO   H76 4483   6.702   6.739   0.384 -1.4762  1.1959  2.9633
   11CHTO   C43 4484   6.767   6.778   0.644 -0.6220  0.0095 -0.7825
   11CHTO   H85 4485   6.692   6.855   0.662 -1.7588 -1.6797  1.9507
   11CHTO   O29 4486   6.852   6.772   0.759  0.1072  0.6102  0.1127
   11CHTO   C50 4487   6.968   6.687   0.743 -0.4005  0.3253 -0.2674
   11CHTO   H92 4488   7.023   6.707   0.836  0.6769 -2.3322 -0.2796
   11CHTO   C54 4489   6.953   6.534   0.764  0.1213  0.5596 -0.0527
   11CHTO   O36 4490   6.896   6.498   0.889 -0.0142  0.7467 -0.0705
   11CHTO   H72 4491   6.965   6.481   0.950  0.2279  1.4744 -0.1304
   11CHTO   O27 4492   6.705   6.650   0.624  0.1856  0.5018  0.2128
   11CHTO   C37 4493   6.596   6.574   0.668  0.1544  1.0294 -0.2234
   11CHTO   H79 4494   6.614   6.537   0.770 -0.9130  2.7172  0.6057
   11CHTO   C38 4495   6.459   6.645   0.674  0.0389 -0.4102 -0.4165
   11CHTO   H80 4496   6.440   6.692   0.577  0.1344  1.4908  0.4712
   11CHTO   O31 4497   6.491   6.751   0.763  0.0321  0.2462  0.5988
   11CHTO   H68 4498   6.411   6.783   0.801  0.2200  0.2432  0.9890
   11CHTO   C39 4499   6.337   6.548   0.708 -0.0366 -0.0377  0.0602
   11CHTO   H81 4500   6.345   6.509   0.809 -0.2335  0.0218  0.1005
   11CHTO    N7 4501   6.202   6.621   0.693  0.2113 -0.3500 -0.5127
   11CHTO   H73 4502   6.192   6.708   0.757  0.5657  0.5530 -1.6762
   11CHTO   H74 4503   6.121   6.552   0.709 -0.9779  1.3090  0.7998
   11CHTO   C40 4504   6.344   6.410   0.633 -0.5769 -0.5233 -0.3052
   11CHTO   H82 4505   6.300   6.422   0.534 -1.8660  1.7522  0.5091
   11CHTO   O26 4506   6.481   6.359   0.631 -0.5747  0.0905 -0.2803
   11CHTO   C41 4507   6.574   6.456   0.569  0.4308  0.1898  0.4618
   11CHTO   H83 4508   6.534   6.486   0.471  3.1054  0.2546 -0.6344
   11CHTO   C52 4509   6.706   6.380   0.538  0.1177  0.3043 -0.2479
   11CHTO   O35 4510   6.697   6.290   0.453 -0.3023  0.1345 -0.4431
   11CHTO   H71 4511   6.775   6.238   0.451 -0.6470 -0.6099  2.5891
   11CHTO   O28 4512   6.283   6.313   0.714  0.0543  0.5490 -0.1840
   11CHTO   C42 4513   6.227   6.191   0.659  0.6290  0.2077  0.1937
   11CHTO   H84 4514   6.262   6.192   0.556 -1.9179  0.5945 -0.7050
   11CHTO   C44 4515   6.074   6.188   0.640 -0.5079 -0.2656 -0.1621
   11CHTO   H86 4516   6.028   6.200   0.739 -2.9544 -0.9629 -1.1860
   11CHTO   O32 4517   6.048   6.295   0.549 -0.1954 -0.0912 -0.0266
   11CHTO   H69 4518   5.966   6.299   0.503  0.3495  2.0309 -0.9173
   11CHTO   C48 4519   6.019   6.049   0.578 -0.1912 -0.6149 -0.5798
   11CHTO   H90 4520   6.054   6.038   0.475  0.7580 -0.2751 -0.2981
   11CHTO    N9 4521   5.867   6.053   0.586  0.0604 -0.2311 -0.1649
   11CHTO   H77 4522   5.820   5.975   0.528 -0.6570 -1.2281  1.7051
   11CHTO   H78 4523   5.819   6.148   0.603  0.4138 -0.1320  0.2783
   11CHTO   C51 4524   6.078   5.934   0.659  0.0351 -0.1485 -0.2192
   11CHTO   H93 4525   6.047   5.941   0.763  2.5383  0.4590  0.5313
   11CHTO   O30 4526   6.220   5.942   0.646 -0.0041 -0.0595  0.3783
   11CHTO   C46 4527   6.276   6.055   0.724  0.2314  0.0814  0.0968
   11CHTO   H88 4528   6.246   6.045   0.829  1.7766  0.7303  0.6202
   11CHTO   C53 4529   6.428   6.043   0.717 -0.3427 -0.2742  0.9949
   11CHTO   O72 4530   6.489   6.145   0.804  0.7169  0.2477  0.5673
   11CHTO  H199 4531   6.574   6.162   0.768  0.3749  2.5429  0.8001
   11CHTO   O22 4532   6.051   5.802   0.609 -0.1367 -0.6194  0.2754
   11CHTO   C31 4533   6.051   5.676   0.689  0.0078 -0.6433 -0.0864
   11CHTO   H59 4534   6.081   5.701   0.793  1.5427 -0.1043 -0.6450
   11CHTO   C29 4535   5.912   5.614   0.688 -0.1196  0.1930 -1.1127
   11CHTO   H57 4536   5.903   5.591   0.581 -0.7401 -1.0298 -0.8065
   11CHTO   O21 4537   5.820   5.717   0.713 -0.7259 -0.6775 -0.2171
   11CHTO   H37 4538   5.821   5.728   0.806  0.1928 -1.4401 -0.1273
   11CHTO   C27 4539   5.899   5.484   0.768  0.1446  0.2550 -0.4880
   11CHTO   H55 4540   5.911   5.504   0.875 -0.4004 -0.1009 -0.3589
   11CHTO    N5 4541   5.767   5.412   0.758 -0.0110  0.0118 -0.3693
   11CHTO   H43 4542   5.741   5.392   0.655  1.1411 -0.7035 -0.5217
   11CHTO   H44 4543   5.689   5.478   0.795  0.1658  0.1063 -0.1672
   11CHTO   C25 4544   6.018   5.389   0.715  0.3957  0.3413  0.4345
   11CHTO   H53 4545   6.000   5.356   0.611 -1.4954  1.9058  0.2363
   11CHTO   O17 4546   6.155   5.447   0.699 -0.1314  0.3624  0.6352
   11CHTO   C32 4547   6.156   5.577   0.631  0.4896  0.2028  0.3626
   11CHTO   H60 4548   6.139   5.560   0.525 -0.5870  1.1011  0.3852
   11CHTO   C36 4549   6.304   5.627   0.647 -0.3309 -0.2428 -0.3337
   11CHTO   O25 4550   6.395   5.531   0.593 -0.3346  0.1204 -0.0655
   11CHTO   H40 4551   6.362   5.445   0.613 -0.9078  0.5677  0.9896
   11CHTO   O15 4552   6.019   5.257   0.815 -0.1482 -0.0881 -0.6140
   11CHTO   C19 4553   5.953   5.130   0.855 -0.0133  0.8387  0.2462
   11CHTO   H47 4554   6.028   5.059   0.892 -0.7908  0.1162  0.4394
   11CHTO   C20 4555   5.867   5.147   0.990 -0.2860 -0.3358  0.7831
   11CHTO   H48 4556   5.816   5.244   0.989  0.6750  0.1965  2.3887
   11CHTO   O19 4557   5.951   5.147   1.108  0.2798 -0.6000 -0.3592
   11CHTO   H35 4558   5.959   5.233   1.144  1.2398  0.3114 -2.6203
   11CHTO   C21 4559   5.751   5.038   0.984  0.3475 -0.1391 -0.0523
   11CHTO   H49 4560   5.793   4.941   1.011 -0.2368 -0.4479 -0.2477
   11CHTO    N4 4561   5.656   5.076   1.089 -0.4760  0.3225  0.0079
   11CHTO   H41 4562   5.562   5.064   1.036 -0.2104  0.3257 -0.4610
   11CHTO   H42 4563   5.666   5.004   1.168 -3.7976 -0.1409  0.0832
   11CHTO   C22 4564   5.683   5.016   0.849 -0.5897  0.1281 -0.5877
   11CHTO   H50 4565   5.639   5.109   0.814 -2.3363  0.3372  2.0448
   11CHTO   O14 4566   5.783   4.969   0.755  0.4963  0.0026  0.1805
   11CHTO   C23 4567   5.888   5.060   0.729  0.9165  0.1849  0.0232
   11CHTO   H51 4568   5.848   5.131   0.654 -0.7607 -2.0486 -1.2532
   11CHTO   C34 4569   5.996   4.980   0.661 -0.6180  0.2736 -0.3501
   11CHTO   O23 4570   6.083   5.070   0.584  0.5749  0.2275 -0.2529
   11CHTO   H38 4571   6.042   5.098   0.505  0.0447  0.6998  0.1858
   11CHTO   O16 4572   5.592   4.906   0.856  0.1918  0.3910  0.4035
   11CHTO   C24 4573   5.488   4.920   0.724  0.8624  0.7400  0.2810
   11CHTO   H52 4574   5.531   4.978   0.642  0.0780 -1.3918 -1.6852
   11CHTO   C26 4575   5.348   4.976   0.781  0.0824 -0.1116  0.0387
   11CHTO   H54 4576   5.310   4.908   0.861  1.9329 -0.9373  0.2571
   11CHTO   O20 4577   5.376   5.103   0.844  0.1134 -0.2167  0.3758
   11CHTO   H36 4578   5.314   5.122   0.912  2.5157 -1.4964  2.9987
   11CHTO   C30 4579   5.246   4.984   0.664  0.1410 -0.1312 -1.4720
   11CHTO   H58 4580   5.271   5.068   0.599 -0.1922 -0.7228 -2.3682
   11CHTO    N6 4581   5.110   5.034   0.718  0.2098  0.7581 -0.5042
   11CHTO   H45 4582   5.085   5.127   0.669  0.5885  1.2934  0.3048
   11CHTO   H46 4583   5.103   5.048   0.825  1.4397  0.6296 -0.4087
   11CHTO   C33 4584   5.234   4.850   0.595  0.5471  0.6539  0.1086
   11CHTO   H61 4585   5.184   4.776   0.660 -0.8844  1.8237  0.3739
   11CHTO   O18 4586   5.359   4.800   0.555  0.0840 -0.5789  0.4878
   11CHTO   C28 4587   5.452   4.783   0.664  0.4724 -0.4137 -0.3017
   11CHTO   H56 4588   5.405   4.716   0.735 -1.6546  1.7250  0.3448
   11CHTO   C35 4589   5.578   4.716   0.615 -0.3275 -0.5273  0.1614
   11CHTO   O24 4590   5.673   4.677   0.718 -0.5307  0.5385  0.2890
   11CHTO   H39 4591   5.748   4.628   0.692 -1.7837 -0.2555 -2.0092
   11CHTO    O9 4592   5.148   4.861   0.480  0.3713 -0.0562 -0.3357
   11CHTO   C13 4593   5.210   4.958   0.354  0.1317  0.1412  0.1156
   11CHTO   H26 4594   5.294   5.013   0.401  0.7094  0.2336 -0.9978
   11CHTO   C11 4595   5.107   5.052   0.285  0.4014 -0.3829 -0.4657
   11CHTO   H24 4596   5.058   5.111   0.364 -1.3822  1.0463 -2.5728
   11CHTO    O8 4597   5.003   4.970   0.220 -0.2167 -0.3685 -0.5441
   11CHTO    H3 4598   5.046   4.908   0.164 -0.6626 -0.3679 -0.8943
   11CHTO    C9 4599   5.180   5.154   0.181  0.7200 -0.2099  0.9582
   11CHTO   H22 4600   5.200   5.244   0.241 -1.5456  1.3027 -0.4664
   11CHTO    N2 4601   5.096   5.211   0.076  0.6221 -0.1625  0.2527
   11CHTO   H10 4602   5.000   5.163   0.084  1.0226 -0.5050  3.6631
   11CHTO   H11 4603   5.154   5.202  -0.015  1.1780 -0.9050  0.6712
   11CHTO    C7 4604   5.309   5.084   0.121 -0.7568  0.1969 -0.0414
   11CHTO   H20 4605   5.385   5.113   0.196  0.9913  0.2548 -1.7872
   11CHTO    O4 4606   5.294   4.946   0.112 -0.3019  0.1459 -0.2054
   11CHTO   C14 4607   5.291   4.875   0.237 -0.2201  0.7364  0.6162
   11CHTO   H27 4608   5.398   4.869   0.267 -0.5471 -1.3059  1.5068
   11CHTO   C18 4609   5.252   4.729   0.202 -0.4195 -0.1969  1.3219
   11CHTO   O13 4610   5.266   4.634   0.311  0.0667  0.3598  0.3432
   11CHTO    H7 4611   5.315   4.558   0.285 -2.6863 -1.3963  0.0468
   11CHTO    O2 4612   5.386   5.152  -0.017 -0.1029  0.2217  0.3592
   11CHTO    C1 4613   5.485   5.256  -0.010  0.3130  0.7560 -0.5530
   11CHTO   H14 4614   5.536   5.259   0.089 -0.4558  1.0604 -0.1579
   11CHTO    C2 4615   5.441   5.404  -0.045  0.6142 -0.3322  0.2189
   11CHTO   H15 4616   5.390   5.403  -0.142  1.1831  1.8754 -0.1308
   11CHTO    O6 4617   5.355   5.436   0.060 -1.0122  0.0164  0.5148
   11CHTO    H1 4618   5.275   5.386   0.054 -1.5092  0.9868 -1.4045
   11CHTO    C3 4619   5.564   5.498  -0.059 -0.0915 -0.5648  0.2582
   11CHTO   H16 4620   5.617   5.513   0.036 -1.0591  0.6478  0.6280
   11CHTO    N1 4621   5.517   5.643  -0.078 -0.4995  0.5211  0.2572
   11CHTO    H8 4622   5.420   5.667  -0.037 -1.4070 -0.4868 -1.2359
   11CHTO    H9 4623   5.515   5.664  -0.184 -2.5575  0.8148  0.3423
   11CHTO    C4 4624   5.667   5.444  -0.154 -0.5176  0.7142 -0.5008
   11CHTO   H17 4625   5.618   5.438  -0.251 -0.7678 -1.7323 -0.2625
   11CHTO    O1 4626   5.701   5.314  -0.096 -0.1035  0.1058  0.1495
   11CHTO    C5 4627   5.601   5.216  -0.101 -0.6881  0.2604  0.1500
   11CHTO   H18 4628   5.553   5.211  -0.198  1.6983  0.9488 -1.0949
   11CHTO   C16 4629   5.658   5.086  -0.061  0.3924  0.3555 -0.0550
   11CHTO   O11 4630   5.780   5.060  -0.132 -0.2874 -0.3147  0.1099
   11CHTO    H5 4631   5.819   5.140  -0.159 -2.6769  0.8805  0.0776
   11CHTO    O3 4632   5.784   5.516  -0.169  0.4573 -0.4070  0.0442
   11CHTO    C6 4633   5.848   5.517  -0.300 -0.2966 -0.2295  0.0613
   11CHTO   H19 4634   5.832   5.423  -0.353  3.0126 -0.7887 -0.0764
   11CHTO    C8 4635   5.802   5.635  -0.390 -0.4832 -0.2060 -0.3753
   11CHTO   H21 4636   5.786   5.725  -0.330 -0.1253 -1.3003  1.4148
   11CHTO    O7 4637   5.675   5.599  -0.434 -0.4898 -0.4764  0.4780
   11CHTO    H2 4638   5.613   5.663  -0.406  0.2504  0.4690 -0.0385
   11CHTO   C12 4639   5.906   5.659  -0.513 -0.2845  0.5660  0.0105
   11CHTO   H25 4640   5.890   5.576  -0.585 -2.0108  0.0593  0.9574
   11CHTO    N3 4641   5.866   5.781  -0.591 -0.7338 -0.2851  0.1649
   11CHTO   H12 4642   5.869   5.871  -0.532  0.5709  0.1545 -0.5527
   11CHTO   H13 4643   5.927   5.794  -0.679  0.9850  0.7773  1.4849
   11CHTO   C15 4644   6.053   5.659  -0.464 -0.3147  0.1367  0.1579
   11CHTO   H28 4645   6.073   5.747  -0.403  2.9144 -1.0199  0.8456
   11CHTO   O10 4646   6.149   5.649  -0.579  0.1376 -0.3432 -0.0082
   11CHTO    H4 4647   6.233   5.685  -0.556 -1.1196  2.5587  0.3453
   11CHTO    O5 4648   6.079   5.539  -0.399  0.3456 -0.4227  0.1097
   11CHTO   C10 4649   5.999   5.527  -0.279 -0.0687 -0.1475  0.0860
   11CHTO   H23 4650   6.008   5.617  -0.219 -3.3219  0.2093  0.1340
   11CHTO   C17 4651   6.049   5.396  -0.212 -0.5778  0.2323  0.0800
   11CHTO   O12 4652   6.179   5.407  -0.170  0.1977  0.3288 -0.7644
   11CHTO    H6 4653   6.221   5.326  -0.193  0.1269  0.1920 -0.4229
   12CHTO  H203 4654   6.053   1.755   2.032  0.2847 -0.0594 -0.7654
   12CHTO   O82 4655   5.971   1.778   2.071  0.3434 -0.4288 -0.4230
   12CHTO  C123 4656   5.922   1.681   2.166  0.2495 -0.5577  0.4148
   12CHTO  H227 4657   5.984   1.685   2.257  2.0138  0.1112 -0.8023
   12CHTO   O77 4658   5.784   1.722   2.198 -0.4729  0.1928  0.0755
   12CHTO  C118 4659   5.713   1.653   2.300  0.0733  0.0842  0.1838
   12CHTO  H222 4660   5.760   1.663   2.399  0.5432  1.9435 -0.2084
   12CHTO  C125 4661   5.565   1.713   2.302 -0.1856 -0.0124 -0.9388
   12CHTO   O84 4662   5.486   1.699   2.186  0.1278  0.0029 -0.3002
   12CHTO  H205 4663   5.538   1.723   2.113 -0.5856 -1.7270 -1.4216
   12CHTO  C114 4664   5.699   1.500   2.270 -0.2205  0.6571 -0.3418
   12CHTO  H218 4665   5.629   1.473   2.191 -1.2451  0.6626  0.5607
   12CHTO  C116 4666   5.843   1.445   2.226 -0.2803 -0.6075  0.7379
   12CHTO  H220 4667   5.902   1.447   2.320 -1.0383 -0.8497  1.2255
   12CHTO   O79 4668   5.823   1.307   2.193 -0.0506  0.1887  0.1186
   12CHTO  H201 4669   5.905   1.275   2.160 -1.9245 -2.7447 -1.8751
   12CHTO  C120 4670   5.915   1.534   2.116  0.6827 -0.2986 -0.4033
   12CHTO  H224 4671   5.840   1.530   2.034  0.1820  0.9891 -0.0287
   12CHTO   N21 4672   6.057   1.483   2.091  0.7366  0.4002 -0.1780
   12CHTO  H211 4673   6.112   1.447   2.177 -1.6509  1.3920  1.8385
   12CHTO  H212 4674   6.058   1.411   2.011 -0.9211 -1.3971  1.3644
   12CHTO   O75 4675   5.654   1.450   2.399  0.0155  0.5887 -0.1843
   12CHTO  C112 4676   5.561   1.323   2.395  0.7531 -0.2496 -0.0437
   12CHTO  H216 4677   5.558   1.279   2.295  0.4485  0.7729 -0.4861
   12CHTO   O73 4678   5.428   1.364   2.431 -0.4568 -0.4949 -0.0842
   12CHTO  C113 4679   5.335   1.255   2.419  0.8303  0.6668  0.7069
   12CHTO  H217 4680   5.334   1.204   2.320  0.6340  0.2523  0.9187
   12CHTO  C124 4681   5.191   1.302   2.439 -0.3013  0.0931 -0.4262
   12CHTO   O83 4682   5.145   1.394   2.346 -0.4452  0.0712 -0.0053
   12CHTO  H204 4683   5.159   1.483   2.373  2.3465 -0.3871  0.1533
   12CHTO  C109 4684   5.364   1.147   2.523  1.2806 -0.0802 -0.3828
   12CHTO  H213 4685   5.343   1.192   2.621 -0.0471  1.2392 -1.2621
   12CHTO  C110 4686   5.512   1.096   2.514 -0.1112 -0.2251 -0.2714
   12CHTO  H214 4687   5.515   1.029   2.428 -4.6944 -1.4578  0.4106
   12CHTO   O78 4688   5.537   1.017   2.632 -0.4461  0.2775 -0.2295
   12CHTO  H200 4689   5.556   1.072   2.706  0.6465 -0.6303  0.1784
   12CHTO  C111 4690   5.606   1.218   2.501  0.1671 -0.3684 -0.2587
   12CHTO  H215 4691   5.614   1.271   2.597 -0.0290 -0.0855 -0.3960
   12CHTO   N19 4692   5.738   1.170   2.472 -0.2689 -0.6969  0.6269
   12CHTO  H207 4693   5.745   1.104   2.387 -2.1911 -1.0140  0.7059
   12CHTO  H208 4694   5.802   1.137   2.552 -1.0667 -0.0659  1.5377
   12CHTO   O74 4695   5.277   1.027   2.505  0.3969 -0.2432 -0.5012
   12CHTO  C115 4696   5.215   0.962   2.648 -0.3257  0.2963  0.3555
   12CHTO  H219 4697   5.290   0.967   2.726  0.0841  1.7756 -0.1136
   12CHTO   O76 4698   5.076   1.037   2.696 -0.4449 -0.2789 -0.0659
   12CHTO  C122 4699   4.999   0.965   2.794 -0.4252  0.3979 -0.2713
   12CHTO  H226 4700   4.898   1.003   2.792 -0.7753 -0.5576 -1.3744
   12CHTO  C126 4701   5.044   0.972   2.942  0.0460  0.3459 -0.3595
   12CHTO   O85 4702   5.104   1.098   2.978 -0.3251  0.2627  0.0861
   12CHTO  H206 4703   5.197   1.096   2.962 -0.1658 -0.8362  1.1318
   12CHTO  C121 4704   4.978   0.819   2.750  0.6641  0.4260 -0.4966
   12CHTO  H225 4705   4.934   0.783   2.845  0.6051  2.3800  0.2389
   12CHTO   O81 4706   4.895   0.818   2.635  0.1735 -0.1224  0.1531
   12CHTO  H202 4707   4.944   0.792   2.559 -0.5690 -1.0339 -0.0320
   12CHTO  C119 4708   5.107   0.746   2.733 -0.6131 -0.1276 -0.7828
   12CHTO  H223 4709   5.165   0.762   2.823 -2.0181 -0.2770  0.1574
   12CHTO  C117 4710   5.195   0.812   2.620  0.0086  0.0248  0.2258
   12CHTO  H221 4711   5.156   0.802   2.519  0.5276 -1.0931  0.1265
   12CHTO   N20 4712   5.328   0.751   2.613 -0.2799  0.0682 -0.3427
   12CHTO  H209 4713   5.326   0.661   2.553 -0.0037  0.0530 -0.3326
   12CHTO  H210 4714   5.410   0.803   2.565 -1.8814  2.1474 -0.8898
   12CHTO   O80 4715   5.094   0.580   2.737 -0.7421 -0.0313 -0.0489
   12CHTO  C103 4716   5.007   0.496   2.616  0.0681 -0.0340 -0.3031
   12CHTO  H190 4717   4.941   0.563   2.561  0.5454 -0.9269 -1.9924
   12CHTO  C101 4718   5.097   0.410   2.511 -0.2441 -0.1423 -0.2577
   12CHTO  H188 4719   5.185   0.367   2.559 -0.2611 -0.3570 -0.4155
   12CHTO   O68 4720   5.166   0.501   2.411 -0.6351  0.1441 -0.1924
   12CHTO  H168 4721   5.259   0.490   2.404 -0.6924 -0.6824  0.2516
   12CHTO   C99 4722   5.020   0.282   2.446 -0.1597  0.5737 -0.5718
   12CHTO  H186 4723   4.941   0.317   2.376 -0.3173  1.1702 -0.1049
   12CHTO   N17 4724   5.104   0.184   2.377 -0.4138  1.0692  0.2734
   12CHTO  H174 4725   5.060   0.089   2.349  0.3716  1.9117 -4.2179
   12CHTO  H175 4726   5.190   0.161   2.439  0.0221 -2.8318 -1.6196
   12CHTO   C97 4727   4.941   0.208   2.563  0.5297  0.1595 -0.0634
   12CHTO  H184 4728   5.008   0.167   2.640  2.2822  2.0703 -0.5329
   12CHTO   O64 4729   4.848   0.308   2.618  0.1435 -0.0509  0.7377
   12CHTO  C104 4730   4.923   0.395   2.709  0.3287 -0.1588  0.0506
   12CHTO  H191 4731   4.987   0.333   2.770  0.8928  1.4327  1.0850
   12CHTO  C108 4732   4.828   0.467   2.804  0.0541  0.1248 -0.1774
   12CHTO   O71 4733   4.715   0.537   2.746 -0.1500 -0.0862 -0.2320
   12CHTO  H171 4734   4.638   0.511   2.793 -0.5545  0.6546 -0.4726
   12CHTO   O62 4735   4.837   0.116   2.521 -0.4683 -0.7721  0.0779
   12CHTO   C91 4736   4.840  -0.008   2.587  0.7398 -0.1706 -0.1455
   12CHTO  H178 4737   4.915  -0.014   2.667  2.7269  2.7687 -1.6970
   12CHTO   C92 4738   4.865  -0.130   2.488  0.3106 -0.3870 -0.0677
   12CHTO  H179 4739   4.792  -0.120   2.406 -0.1363 -2.9342 -0.0110
   12CHTO   O66 4740   4.995  -0.116   2.421 -0.7969 -0.0293  0.4558
   12CHTO  H166 4741   4.987  -0.073   2.338 -0.1177  1.7045  1.2648
   12CHTO   C93 4742   4.862  -0.274   2.557 -0.1684  0.4487  0.0766
   12CHTO  H180 4743   4.954  -0.286   2.616 -0.8318 -1.7173  0.7019
   12CHTO   N16 4744   4.867  -0.383   2.461 -0.3841  0.0122  0.6685
   12CHTO  H172 4745   4.960  -0.396   2.408 -0.8649  0.6595 -0.3351
   12CHTO  H173 4746   4.811  -0.472   2.485  2.2709 -1.0572  3.2603
   12CHTO   C94 4747   4.729  -0.278   2.645 -1.0806 -0.5915 -0.0407
   12CHTO  H181 4748   4.637  -0.276   2.586 -1.3266 -1.2211  0.3196
   12CHTO   O61 4749   4.725  -0.168   2.734 -0.4614 -0.5583  0.1004
   12CHTO   C95 4750   4.700  -0.044   2.671 -0.3845  0.4568  0.1480
   12CHTO  H182 4751   4.616  -0.057   2.602 -1.1141 -4.3811  1.7809
   12CHTO  C106 4752   4.672   0.060   2.786  0.1948 -0.2516 -0.2158
   12CHTO   O69 4753   4.790   0.095   2.861 -0.2135  0.6986  0.4619
   12CHTO  H169 4754   4.840   0.141   2.796  0.6423 -1.0751 -0.1767
   12CHTO   O63 4755   4.710  -0.404   2.739  0.4763  0.0596 -0.4489
   12CHTO   C96 4756   4.824  -0.426   2.853 -0.3286 -0.0649  0.8671
   12CHTO  H183 4757   4.881  -0.333   2.862 -0.0523 -0.2150  0.6668
   12CHTO   C98 4758   4.916  -0.554   2.829 -0.8277 -1.0154  0.4330
   12CHTO  H185 4759   4.852  -0.635   2.790 -0.5338 -0.9772 -0.1411
   12CHTO   O67 4760   5.014  -0.524   2.727 -0.0069  0.2702 -0.3826
   12CHTO  H167 4761   5.068  -0.451   2.748 -0.6993  0.6006  0.2621
   12CHTO  C102 4762   4.996  -0.608   2.964 -0.4404  0.0106 -0.3551
   12CHTO  H189 4763   5.077  -0.535   2.982 -2.5981  2.0408  1.5092
   12CHTO   N18 4764   5.056  -0.742   2.957  0.9332  0.4375 -0.4385
   12CHTO  H176 4765   4.985  -0.823   2.964  2.0279 -0.5542 -0.7345
   12CHTO  H177 4766   5.123  -0.756   3.041 -0.7802 -0.7931  0.7435
   12CHTO  C105 4767   4.896  -0.603   3.086 -0.2931  0.0845 -0.2935
   12CHTO  H192 4768   4.817  -0.677   3.072 -0.3379  0.0239  0.2674
   12CHTO   O65 4769   4.831  -0.472   3.091  0.4828  0.0509 -0.7217
   12CHTO  C100 4770   4.740  -0.446   2.982 -0.1392 -0.0290  0.1241
   12CHTO  H187 4771   4.675  -0.535   2.977 -0.0991 -0.1879  2.1529
   12CHTO  C107 4772   4.640  -0.331   3.007  0.5967 -0.5433 -0.2532
   12CHTO   O70 4773   4.709  -0.212   3.032 -0.1805  0.0747 -0.4829
   12CHTO  H170 4774   4.651  -0.146   3.066  1.2939  0.5640  1.1309
   12CHTO   O57 4775   4.978  -0.610   3.216  0.7183 -0.4921  0.6509
   12CHTO   C85 4776   4.909  -0.646   3.330 -0.3311 -0.8976 -0.3729
   12CHTO  H157 4777   4.813  -0.693   3.303 -1.7065  2.0557 -0.9014
   12CHTO   C83 4778   4.853  -0.517   3.408 -0.4959  0.4867  0.0326
   12CHTO  H155 4779   4.789  -0.468   3.335  1.7012  0.8288 -1.7297
   12CHTO   O56 4780   4.966  -0.424   3.425 -0.5588 -0.2131 -0.0342
   12CHTO  H135 4781   4.940  -0.336   3.407 -0.2257 -1.0823 -5.4102
   12CHTO   C81 4782   4.778  -0.560   3.536 -0.3041 -0.1148  0.6270
   12CHTO  H153 4783   4.706  -0.635   3.502 -0.2939  0.4688 -0.7175
   12CHTO   N14 4784   4.703  -0.445   3.597 -0.2794  0.5119  0.3586
   12CHTO  H141 4785   4.602  -0.462   3.568 -0.0911 -3.8401  1.9378
   12CHTO  H142 4786   4.708  -0.448   3.704  0.6889  0.3517  0.3142
   12CHTO   C79 4787   4.880  -0.643   3.624 -0.9506 -0.2440 -0.1515
   12CHTO  H151 4788   4.823  -0.677   3.710 -1.9289  3.8500  0.9354
   12CHTO   O52 4789   4.923  -0.764   3.553  0.1805 -0.0522 -0.0518
   12CHTO   C86 4790   4.991  -0.733   3.430 -1.0540 -0.1734  0.0608
   12CHTO  H158 4791   5.083  -0.681   3.466 -0.5022  0.3215 -1.9953
   12CHTO   C90 4792   5.048  -0.862   3.363  1.1504 -0.2783  0.3252
   12CHTO   O60 4793   4.945  -0.944   3.305  0.1976  0.4404 -0.5916
   12CHTO  H138 4794   4.876  -0.892   3.269  0.3147  1.3810  0.5073
   12CHTO   O50 4795   4.994  -0.571   3.670 -0.1649  0.1252 -0.0500
   12CHTO   C73 4796   5.078  -0.543   3.782  0.0385  0.3036 -0.0947
   12CHTO  H145 4797   5.016  -0.565   3.870 -1.1364  0.7043 -0.7974
   12CHTO   C74 4798   5.127  -0.392   3.780 -0.2529 -0.1976  0.4762
   12CHTO  H146 4799   5.044  -0.319   3.775  0.0222  0.0338 -0.8671
   12CHTO   O54 4800   5.186  -0.375   3.912  0.5328  0.2678  0.4490
   12CHTO  H133 4801   5.231  -0.293   3.910 -0.3434  0.7198 -0.9825
   12CHTO   C75 4802   5.231  -0.367   3.659  0.2689 -0.0081 -0.2784
   12CHTO  H147 4803   5.176  -0.386   3.566 -1.1941 -1.0136  0.7613
   12CHTO   N13 4804   5.302  -0.237   3.663  0.8422 -0.5181  0.3253
   12CHTO  H139 4805   5.304  -0.175   3.575 -1.0704  1.4358  1.6207
   12CHTO  H140 4806   5.372  -0.212   3.742  1.5481 -0.9401 -0.1570
   12CHTO   C76 4807   5.343  -0.485   3.666  0.2445 -0.1435 -0.3258
   12CHTO  H148 4808   5.410  -0.489   3.751  2.3489 -1.3556 -2.0017
   12CHTO   O49 4809   5.276  -0.624   3.667  0.1938 -0.3625 -0.2338
   12CHTO   C77 4810   5.199  -0.637   3.789 -0.7639  0.0478  0.0649
   12CHTO  H149 4811   5.251  -0.612   3.881 -0.3285  1.6190 -0.5834
   12CHTO   C88 4812   5.149  -0.781   3.811  0.3249 -0.2085  0.6913
   12CHTO   O58 4813   5.263  -0.881   3.807 -0.0059 -0.2265 -0.3689
   12CHTO  H136 4814   5.301  -0.876   3.892 -0.3518 -0.9548 -0.1641
   12CHTO   O51 4815   5.431  -0.485   3.528  0.1460  1.0076  0.5619
   12CHTO   C78 4816   5.571  -0.548   3.538  0.1959  0.2158  0.1075
   12CHTO  H150 4817   5.583  -0.623   3.618  2.9050 -0.6821 -1.1049
   12CHTO   C80 4818   5.674  -0.431   3.555  0.5152 -0.3918 -0.6951
   12CHTO  H152 4819   5.655  -0.360   3.473  2.1258  0.2016 -0.5690
   12CHTO   O55 4820   5.653  -0.368   3.680  0.0785  0.0459  0.0052
   12CHTO  H134 4821   5.561  -0.363   3.701 -0.6563  1.4332 -3.0898
   12CHTO   C84 4822   5.833  -0.477   3.548  0.6186  0.2976  0.7689
   12CHTO  H156 4823   5.861  -0.541   3.631 -0.1986 -1.5923 -0.3747
   12CHTO   N15 4824   5.922  -0.351   3.548  0.0111  0.2329 -0.9556
   12CHTO  H143 4825   5.942  -0.333   3.652 -1.0548 -3.9617  0.0572
   12CHTO  H144 4826   5.873  -0.266   3.505  1.6431  1.8751  0.3395
   12CHTO   C87 4827   5.859  -0.568   3.432 -0.5835  0.3988 -0.2485
   12CHTO  H159 4828   5.865  -0.510   3.340 -1.5782 -1.6288 -1.6452
   12CHTO   O53 4829   5.726  -0.689   3.416 -0.3836 -0.0707  0.1709
   12CHTO   C82 4830   5.601  -0.619   3.403  0.9034  0.0615  0.1821
   12CHTO  H154 4831   5.605  -0.550   3.318 -1.5096  1.2160  0.9479
   12CHTO   C89 4832   5.486  -0.726   3.367  0.3602 -0.1580  0.2736
   12CHTO   O59 4833   5.481  -0.843   3.451 -0.0547 -0.1163  0.0952
   12CHTO  H137 4834   5.448  -0.917   3.404  0.1642  0.5004 -1.0667
   12CHTO   O45 4835   5.997  -0.650   3.456 -0.1532  0.1684 -0.5160
   12CHTO   C67 4836   6.088  -0.650   3.344 -0.4851  0.5279  0.4476
   12CHTO  H124 4837   6.172  -0.712   3.376 -0.2428 -0.0912 -1.3386
   12CHTO   C65 4838   6.023  -0.710   3.215 -0.7073  0.5409 -0.2859
   12CHTO  H122 4839   5.923  -0.748   3.238 -0.6847  0.5489 -0.1714
   12CHTO   O44 4840   6.098  -0.830   3.179  0.1910  0.0514  0.2852
   12CHTO  H102 4841   6.177  -0.822   3.128  1.2928 -0.9161  1.7939
   12CHTO   C63 4842   6.008  -0.604   3.099 -0.3120  1.0222  0.5308
   12CHTO  H120 4843   5.950  -0.520   3.137 -2.9717 -0.0655 -0.9545
   12CHTO   N11 4844   5.926  -0.636   2.989  0.3656  0.3783  0.1612
   12CHTO  H108 4845   5.830  -0.660   3.030  1.3705  0.3793  2.5465
   12CHTO  H109 4846   5.965  -0.719   2.933  1.0572  0.3732  0.6584
   12CHTO   C61 4847   6.151  -0.559   3.063  0.1214  0.1222 -1.0819
   12CHTO  H118 4848   6.143  -0.474   2.995 -2.3483 -0.8801 -2.1025
   12CHTO   O40 4849   6.223  -0.504   3.181 -0.0572 -0.1615 -0.7915
   12CHTO   C68 4850   6.154  -0.507   3.311  0.1302  0.0225  0.1648
   12CHTO  H125 4851   6.073  -0.431   3.305 -0.5196 -0.7372 -0.9836
   12CHTO   C72 4852   6.253  -0.459   3.423 -0.6838  0.0910 -0.6209
   12CHTO   O48 4853   6.293  -0.325   3.411 -0.3632 -0.1553  0.2511
   12CHTO  H105 4854   6.345  -0.304   3.486  1.0712  0.2453 -0.8300
   12CHTO   O38 4855   6.242  -0.666   3.015  0.1332 -0.3825 -0.8031
   12CHTO   C55 4856   6.359  -0.612   2.949 -0.1571 -1.0791  0.5184
   12CHTO  H112 4857   6.385  -0.510   2.979  1.3412 -1.4344  0.4653
   12CHTO   C56 4858   6.335  -0.629   2.793 -0.0674 -0.4841 -0.2873
   12CHTO  H113 4859   6.326  -0.737   2.775  1.8805 -0.6536 -0.3794
   12CHTO   O42 4860   6.222  -0.561   2.738  0.0175  0.6042 -0.6696
   12CHTO  H100 4861   6.197  -0.490   2.795  3.7107  0.8007  0.8801
   12CHTO   C57 4862   6.462  -0.586   2.711 -0.4445 -0.5508 -0.1217
   12CHTO  H114 4863   6.462  -0.477   2.705 -0.4728 -0.6272 -1.4992
   12CHTO   N10 4864   6.455  -0.630   2.570 -0.0607  0.2600  0.2817
   12CHTO  H106 4865   6.400  -0.723   2.565  0.0225 -0.0298  3.7292
   12CHTO  H107 4866   6.401  -0.556   2.513  0.0325 -0.2329 -0.4590
   12CHTO   C58 4867   6.596  -0.633   2.779 -0.3219  0.3324  0.6261
   12CHTO  H115 4868   6.614  -0.741   2.758 -0.9650 -0.0595  2.0156
   12CHTO   O37 4869   6.593  -0.627   2.924 -0.0770 -0.1863 -0.0915
   12CHTO   C59 4870   6.482  -0.694   2.986 -0.3029  0.0746  0.0480
   12CHTO  H116 4871   6.475  -0.798   2.955  0.0204  0.1598 -0.3127
   12CHTO   C70 4872   6.520  -0.689   3.141  0.0924 -0.0114  0.5907
   12CHTO   O46 4873   6.434  -0.767   3.224  0.2251 -0.0580  0.1806
   12CHTO  H103 4874   6.474  -0.852   3.230 -1.2139 -0.7008  0.8905
   12CHTO   O39 4875   6.708  -0.548   2.734 -0.4140  0.4415  0.1428
   12CHTO   C60 4876   6.842  -0.579   2.776 -0.0740  0.1344  1.0876
   12CHTO  H117 4877   6.847  -0.572   2.885  1.5300  1.6654  0.9395
   12CHTO   C62 4878   6.879  -0.727   2.758 -0.4621 -0.3797  0.6100
   12CHTO  H119 4879   6.811  -0.770   2.834 -2.9075  0.1945 -1.1843
   12CHTO   O43 4880   6.835  -0.779   2.636 -0.5198  0.6982 -0.4977
   12CHTO  H101 4881   6.742  -0.791   2.641 -0.4339  0.4739  0.8015
   12CHTO   C66 4882   7.029  -0.748   2.801  0.2742  0.3469  0.2524
   12CHTO  H123 4883   7.045  -0.708   2.900 -1.7852  0.4713  0.5503
   12CHTO   N12 4884   7.053  -0.893   2.803 -0.5357  0.5049  0.1038
   12CHTO  H110 4885   7.005  -0.934   2.891 -1.2992 -2.0221 -1.4426
   12CHTO  H111 4886   7.158  -0.910   2.821 -0.4035  1.0305 -0.1828
   12CHTO   C69 4887   7.116  -0.680   2.700 -0.2213 -1.0497 -0.3016
   12CHTO  H126 4888   7.086  -0.711   2.598  0.0205  1.0174 -1.0168
   12CHTO   O41 4889   7.095  -0.532   2.703 -0.0005 -0.2736  0.7815
   12CHTO   C64 4890   6.944  -0.472   2.718  0.4123 -0.1356 -0.0053
   12CHTO  H121 4891   6.909  -0.431   2.620  0.0775 -0.8679 -0.1990
   12CHTO   C71 4892   6.946  -0.346   2.813  0.1621 -0.3960 -0.6785
   12CHTO   O47 4893   7.046  -0.256   2.762  1.0409 -1.4248 -0.3623
   12CHTO  H104 4894   7.058  -0.267   2.670  1.3331 -0.4512 -0.4391
   12CHTO   O34 4895   7.286  -0.702   2.730  0.2121  0.4242  0.5092
   12CHTO   C49 4896   7.381  -0.617   2.807 -0.0668 -0.1868 -0.3971
   12CHTO   H91 4897   7.393  -0.524   2.751 -1.4004  0.5722  0.5508
   12CHTO   C47 4898   7.516  -0.692   2.801 -0.5522  0.3251  0.0898
   12CHTO   H89 4899   7.586  -0.615   2.838  1.6251 -1.2463 -0.6711
   12CHTO   O33 4900   7.554  -0.727   2.668  0.0944 -0.4300 -0.0618
   12CHTO   H70 4901   7.481  -0.778   2.638 -0.9689  0.1530  1.4427
   12CHTO   C45 4902   7.512  -0.826   2.897 -0.2503 -0.2041 -0.0205
   12CHTO   H87 4903   7.478  -0.913   2.840  0.4828  0.7453 -1.9395
   12CHTO    N8 4904   7.653  -0.847   2.945 -0.2516 -0.1960  0.5865
   12CHTO   H75 4905   7.700  -0.750   2.946 -1.5707  0.5075 -1.5970
   12CHTO   H76 4906   7.638  -0.877   3.048  1.5202  0.9834  1.2089
   12CHTO   C43 4907   7.395  -0.816   3.013 -0.2942 -0.6921 -0.7662
   12CHTO   H85 4908   7.304  -0.865   2.978  0.7561 -4.1240  1.0858
   12CHTO   O29 4909   7.376  -0.682   3.051 -0.1257  0.2968  0.1490
   12CHTO   C50 4910   7.337  -0.584   2.949  0.1234  0.2210 -0.5739
   12CHTO   H92 4911   7.227  -0.577   2.956  0.2836  0.2215  2.3029
   12CHTO   C54 4912   7.385  -0.448   2.997 -0.6505  0.5017  0.2973
   12CHTO   O36 4913   7.293  -0.396   3.087 -0.1332  0.3475  0.4771
   12CHTO   H72 4914   7.321  -0.379   3.174 -2.8139  2.6061  0.9728
   12CHTO   O27 4915   7.424  -0.890   3.137  0.6500  0.5727  0.5199
   12CHTO   C37 4916   7.361  -0.943   3.254  0.5848 -0.5114 -0.1657
   12CHTO   H79 4917   7.436  -0.979   3.327 -0.4788  0.1889  1.3100
   12CHTO   C38 4918   7.300  -0.825   3.329 -0.1637 -0.2972 -0.3354
   12CHTO   H80 4919   7.223  -0.784   3.263  0.9122  0.8997 -0.8661
   12CHTO   O31 4920   7.401  -0.720   3.352  0.1853 -0.0140 -0.0167
   12CHTO   H68 4921   7.360  -0.640   3.378 -2.1116 -0.8008 -1.0045
   12CHTO   C39 4922   7.231  -0.881   3.453 -0.0823 -0.2514  0.2486
   12CHTO   H81 4923   7.311  -0.913   3.520 -1.0516  0.0307  1.5560
   12CHTO    N7 4924   7.156  -0.780   3.537 -0.1298 -0.3904  0.0579
   12CHTO   H73 4925   7.063  -0.767   3.484  1.5162  2.5938 -2.2248
   12CHTO   H74 4926   7.162  -0.811   3.641  1.5072  1.1494  0.4533
   12CHTO   C40 4927   7.142  -1.007   3.425 -0.4159 -0.2304  0.1338
   12CHTO   H82 4928   7.050  -0.978   3.375 -1.4767 -0.2806  1.9975
   12CHTO   O26 4929   7.223  -1.098   3.354  0.1137  0.0514  0.5105
   12CHTO   C41 4930   7.255  -1.050   3.224  0.1332 -0.0776 -0.1090
   12CHTO   H83 4931   7.161  -1.018   3.175 -1.1450 -0.0737  2.2619
   12CHTO   C52 4932   7.317  -1.169   3.148 -0.7719 -0.0587  0.5834
   12CHTO   O35 4933   7.336  -1.139   2.981  0.1199 -0.0193  0.1647
   12CHTO   H71 4934   7.303  -1.055   2.956  0.2632  0.2789  0.9719
   12CHTO   O28 4935   7.095  -1.072   3.548 -0.2402  0.0978  0.6154
   12CHTO   C42 4936   6.984  -1.164   3.532  0.0389 -0.8219 -0.3545
   12CHTO   H84 4937   6.985  -1.213   3.630 -0.3989  1.5521  0.8598
   12CHTO   C44 4938   6.985  -1.284   3.435  0.2723 -0.8688 -0.3800
   12CHTO   H86 4939   6.995  -1.246   3.334 -1.7333 -3.6213 -1.7135
   12CHTO   O32 4940   7.101  -1.359   3.459  0.1877  0.5433  0.1739
   12CHTO   H69 4941   7.179  -1.307   3.459  0.8082 -0.3317 -1.9595
   12CHTO   C48 4942   6.846  -1.366   3.442 -0.4002 -0.8350 -0.4454
   12CHTO   H90 4943   6.847  -1.425   3.533  0.8121  1.5806  1.1528
   12CHTO    N9 4944   6.837  -1.472   3.334 -0.3171  0.4209  0.3477
   12CHTO   H77 4945   6.750  -1.530   3.362 -0.7986 -0.9542 -3.6477
   12CHTO   H78 4946   6.926  -1.532   3.319  0.3448  1.0207  1.7553
   12CHTO   C51 4947   6.719  -1.270   3.444  0.1099 -0.3591  0.2892
   12CHTO   H93 4948   6.711  -1.215   3.350  1.3332 -0.3006  0.2105
   12CHTO   O30 4949   6.728  -1.182   3.554  0.1224 -0.4297  0.3779
   12CHTO   C46 4950   6.851  -1.079   3.532 -0.4203 -0.2352 -1.0411
   12CHTO   H88 4951   6.841  -1.027   3.436  0.3416  3.0218  0.5724
   12CHTO   C53 4952   6.839  -0.974   3.650  0.2155 -0.5233  0.2812
   12CHTO   O72 4953   6.714  -0.915   3.671  0.3864 -0.5313 -0.2964
   12CHTO  H199 4954   6.709  -0.854   3.742 -0.3858 -0.7615 -0.1433
   12CHTO   O22 4955   6.597  -1.343   3.475 -0.3601  0.6540 -0.8326
   12CHTO   C31 4956   6.452  -1.300   3.458 -0.1662  1.0179  0.1963
   12CHTO   H59 4957   6.392  -1.389   3.490 -1.1354  1.0278 -1.5292
   12CHTO   C29 4958   6.403  -1.190   3.554 -0.1044 -0.5276  0.3096
   12CHTO   H57 4959   6.460  -1.100   3.526 -0.3297 -0.5549 -0.2454
   12CHTO   O21 4960   6.451  -1.227   3.676 -0.2080  0.2128 -0.5495
   12CHTO   H37 4961   6.406  -1.295   3.722  0.5090  0.5482  0.7077
   12CHTO   C27 4962   6.253  -1.152   3.537 -0.4882  0.0545 -0.0797
   12CHTO   H55 4963   6.193  -1.230   3.585 -0.7386  0.0651 -0.3765
   12CHTO    N5 4964   6.223  -1.028   3.614  0.7563  0.9005 -0.0504
   12CHTO   H43 4965   6.282  -0.949   3.570  0.0139  1.5429  0.0873
   12CHTO   H44 4966   6.233  -1.024   3.721 -2.5955  0.3040  0.3574
   12CHTO   C25 4967   6.214  -1.142   3.382  0.3881  0.0629 -0.2754
   12CHTO   H53 4968   6.255  -1.050   3.339 -0.3699 -0.2079 -1.6174
   12CHTO   O17 4969   6.267  -1.255   3.309 -0.5277 -0.1208  0.1550
   12CHTO   C32 4970   6.410  -1.269   3.312  0.5570  0.2998 -0.2495
   12CHTO   H60 4971   6.455  -1.174   3.284 -0.4578  0.0997 -2.7488
   12CHTO   C36 4972   6.460  -1.382   3.220 -0.1689 -0.4141  0.5430
   12CHTO   O25 4973   6.429  -1.351   3.080 -0.0327  0.0726 -0.0673
   12CHTO   H40 4974   6.336  -1.343   3.069 -0.0460  0.8088  0.5520
   12CHTO   O15 4975   6.065  -1.146   3.366 -0.7772  0.0657  0.0796
   12CHTO   C19 4976   5.945  -1.088   3.293  0.5782  0.7499 -0.0285
   12CHTO   H47 4977   5.965  -0.980   3.299 -3.7304  1.8992 -3.7014
   12CHTO   C20 4978   5.936  -1.138   3.142  0.4459  0.1754  0.0451
   12CHTO   H48 4979   5.923  -1.247   3.134 -2.0315  0.5006 -0.6692
   12CHTO   O19 4980   6.059  -1.099   3.078  0.6377 -0.1006 -0.1506
   12CHTO   H35 4981   6.045  -1.114   2.986 -0.4505 -0.3463  0.0590
   12CHTO   C21 4982   5.809  -1.077   3.076  0.7139 -0.2989  0.5096
   12CHTO   H49 4983   5.829  -0.971   3.062  1.2088  0.1728  4.3882
   12CHTO    N4 4984   5.781  -1.128   2.938  0.2147 -0.3306 -0.8016
   12CHTO   H41 4985   5.780  -1.065   2.851 -2.7937 -2.0121 -2.0603
   12CHTO   H42 4986   5.706  -1.205   2.925  0.0385 -0.3737  0.4063
   12CHTO   C22 4987   5.687  -1.094   3.168 -0.2370 -0.2358 -0.3696
   12CHTO   H50 4988   5.680  -1.202   3.182  0.4284 -0.4797 -1.7852
   12CHTO   O14 4989   5.720  -1.035   3.294 -0.4791  0.2773 -0.0444
   12CHTO   C23 4990   5.812  -1.112   3.371  0.3628  0.4598 -0.2845
   12CHTO   H51 4991   5.784  -1.218   3.378  1.9344  0.0922  0.7481
   12CHTO   C34 4992   5.817  -1.044   3.512  0.9363 -0.4010  0.0111
   12CHTO   O23 4993   5.682  -1.019   3.568 -0.1249  0.1034 -0.1492
   12CHTO   H38 4994   5.698  -0.989   3.656 -2.7692  0.1176  0.3576
   12CHTO   O16 4995   5.572  -1.023   3.119  0.5564 -0.1496 -0.2917
   12CHTO   C24 4996   5.446  -1.125   3.077  0.2357 -0.5378  0.0086
   12CHTO   H52 4997   5.486  -1.225   3.057  4.1979  1.0450 -0.3867
   12CHTO   C26 4998   5.383  -1.078   2.941 -0.0029  0.3961 -0.0452
   12CHTO   H54 4999   5.358  -0.969   2.945  0.4999  0.5127 -0.1300
   12CHTO   O20 5000   5.490  -1.091   2.841  0.6844 -0.1459 -0.1550
   12CHTO   H36 5001   5.505  -1.181   2.821  0.6392 -0.1630 -0.1106
   12CHTO   C30 5002   5.257  -1.166   2.912  0.8991 -0.5701  0.1621
   12CHTO   H58 5003   5.300  -1.262   2.882 -1.3280 -0.5491 -3.3812
   12CHTO    N6 5004   5.182  -1.114   2.793  0.0792 -0.7171  0.4827
   12CHTO   H45 5005   5.206  -1.011   2.774  1.6979 -1.6998 -3.0659
   12CHTO   H46 5006   5.182  -1.174   2.704 -0.5851  1.4690 -1.0429
   12CHTO   C33 5007   5.158  -1.178   3.035 -0.0778 -0.2300 -0.2343
   12CHTO   H61 5008   5.114  -1.083   3.069 -0.3449 -1.3559  2.7365
   12CHTO   O18 5009   5.241  -1.230   3.144  0.4913 -0.1676 -0.4707
   12CHTO   C28 5010   5.338  -1.140   3.193  0.8118  0.3241 -0.1125
   12CHTO   H56 5011   5.306  -1.038   3.217  1.7694  0.6085 -0.0040
   12CHTO   C35 5012   5.400  -1.207   3.321  0.0525  0.1718  0.5008
   12CHTO   O24 5013   5.479  -1.116   3.392 -0.1698 -0.5170  0.0137
   12CHTO   H39 5014   5.478  -1.125   3.486 -0.5984  1.5965  0.2575
   12CHTO    O9 5015   5.052  -1.267   3.005 -0.6574 -0.1027  0.1415
   12CHTO   C13 5016   5.111  -1.449   2.987 -1.3380  0.0088 -0.4809
   12CHTO   H26 5017   5.214  -1.458   3.028 -1.0230 -2.9844 -1.8322
   12CHTO   C11 5018   5.106  -1.472   2.831  0.0912  0.1536 -0.5036
   12CHTO   H24 5019   5.177  -1.407   2.778  1.3739 -1.1562 -0.4356
   12CHTO    O8 5020   4.977  -1.448   2.767 -0.5322  0.1288 -0.1926
   12CHTO    H3 5021   4.992  -1.482   2.680  2.0138  0.5124  0.0368
   12CHTO    C9 5022   5.153  -1.621   2.812  0.2533  0.4878  0.5478
   12CHTO   H22 5023   5.243  -1.636   2.874 -0.0700  1.0752  1.1632
   12CHTO    N2 5024   5.208  -1.656   2.678 -0.4004 -0.7084  0.2227
   12CHTO   H10 5025   5.151  -1.606   2.601 -0.5730 -1.0072  0.1555
   12CHTO   H11 5026   5.215  -1.763   2.668  1.7945 -0.4275 -1.7983
   12CHTO    C7 5027   5.042  -1.715   2.875  0.9794  0.0466  0.8345
   12CHTO   H20 5028   5.098  -1.811   2.885  0.3514 -0.3827  0.2799
   12CHTO    O4 5029   5.000  -1.681   3.006  0.4919 -0.6543 -0.1872
   12CHTO   C14 5030   5.012  -1.546   3.064  0.4203  0.9247 -0.5965
   12CHTO   H27 5031   5.059  -1.571   3.161 -3.6398  0.2538  1.3270
   12CHTO   C18 5032   4.875  -1.491   3.107 -0.4735  0.5648 -0.6343
   12CHTO   O13 5033   4.797  -1.436   3.004 -0.0563 -0.3970 -0.1053
   12CHTO    H7 5034   4.770  -1.504   2.945 -0.0319 -0.1895 -0.3588
   12CHTO    O2 5035   4.921  -1.731   2.783 -0.1575 -0.0326 -0.8989
   12CHTO    C1 5036   4.877  -1.866   2.774 -0.1037 -0.5614 -0.2728
   12CHTO   H14 5037   4.913  -1.921   2.863 -0.9221  0.9082  1.0040
   12CHTO    C2 5038   4.924  -1.943   2.641  0.0695 -0.1232  0.4748
   12CHTO   H15 5039   4.878  -1.890   2.557 -0.2974 -0.8771  0.1972
   12CHTO    O6 5040   5.069  -1.950   2.637 -0.0941 -0.6888 -0.2609
   12CHTO    H1 5041   5.106  -1.877   2.591 -0.3265 -1.0586 -1.0531
   12CHTO    C3 5042   4.864  -2.095   2.653 -0.2214  0.1530 -0.0888
   12CHTO   H16 5043   4.906  -2.161   2.732  0.4914 -0.2220 -0.7705
   12CHTO    N1 5044   4.897  -2.178   2.528  0.5111  0.3222  0.4287
   12CHTO    H8 5045   5.001  -2.170   2.501  0.5577 -2.4137 -0.3303
   12CHTO    H9 5046   4.862  -2.280   2.534 -0.6619  0.6404 -0.8571
   12CHTO    C4 5047   4.717  -2.093   2.682 -0.1352  0.5492 -0.4089
   12CHTO   H17 5048   4.667  -2.052   2.594 -3.6760 -2.5179 -0.0021
   12CHTO    O1 5049   4.688  -2.011   2.798  0.0261  0.1455 -0.6519
   12CHTO    C5 5050   4.722  -1.870   2.795 -0.1358  0.3391 -0.2085
   12CHTO   H18 5051   4.670  -1.831   2.708 -0.3069 -0.6504 -0.5586
   12CHTO   C16 5052   4.683  -1.803   2.924  0.1229  0.2375 -0.1383
   12CHTO   O11 5053   4.546  -1.770   2.916 -1.0460 -0.9227 -0.4076
   12CHTO    H5 5054   4.528  -1.691   2.963  1.1045  0.5789 -2.0369
   12CHTO    O3 5055   4.663  -2.225   2.708 -0.5379  0.4739  0.1564
   12CHTO    C6 5056   4.583  -2.258   2.826  0.1648 -0.3814 -0.7919
   12CHTO   H19 5057   4.599  -2.193   2.911  1.9350  0.0223 -1.3930
   12CHTO    C8 5058   4.431  -2.238   2.783  0.1405 -0.1209  0.2856
   12CHTO   H21 5059   4.415  -2.293   2.690  0.1937  0.3671 -0.0179
   12CHTO    O7 5060   4.406  -2.100   2.747  0.2838 -0.0171 -0.3949
   12CHTO    H2 5061   4.317  -2.072   2.748 -0.0147 -0.7960 -2.9651
   12CHTO   C12 5062   4.332  -2.292   2.898  0.4201  0.2523 -0.3107
   12CHTO   H25 5063   4.339  -2.219   2.981  0.2389 -0.3565  0.2382
   12CHTO    N3 5064   4.190  -2.291   2.849  0.6050  0.3587  0.0864
   12CHTO   H12 5065   4.115  -2.319   2.921  2.0777 -3.8049  0.1754
   12CHTO   H13 5066   4.189  -2.334   2.750 -0.5510 -0.3924  0.4153
   12CHTO   C15 5067   4.379  -2.429   2.952 -0.8503 -0.1044 -0.1430
   12CHTO   H28 5068   4.348  -2.511   2.888  0.7046 -1.6391  1.0324
   12CHTO   O10 5069   4.322  -2.450   3.071 -0.3123 -0.3631 -0.2492
   12CHTO    H4 5070   4.264  -2.384   3.105 -0.5081 -1.1286  0.9331
   12CHTO    O5 5071   4.523  -2.445   2.986 -0.1424  0.5664 -0.2211
   12CHTO   C10 5072   4.607  -2.403   2.875 -0.3325  0.2349 -0.2448
   12CHTO   H23 5073   4.590  -2.477   2.797  2.1554  1.1219 -1.6941
   12CHTO   C17 5074   4.755  -2.405   2.922 -0.3484  0.2646 -0.6178
   12CHTO   O12 5075   4.790  -2.542   2.967  0.0105 -0.5340  0.2896
   12CHTO    H6 5076   4.735  -2.560   3.041 -0.9121 -4.7588 -1.3021
   13CHTO  H203 5077   8.611   4.345   1.676  1.1233 -0.1963  1.4927
   13CHTO   O82 5078   8.654   4.428   1.673 -0.1173  0.4226  0.3608
   13CHTO  C123 5079   8.585   4.522   1.593 -0.1051 -0.3893  0.1853
   13CHTO  H227 5080   8.569   4.482   1.492  0.8829  2.5631 -1.1753
   13CHTO   O77 5081   8.454   4.549   1.648  0.4060 -0.1121 -0.0231
   13CHTO  C118 5082   8.359   4.612   1.553 -0.2451 -0.0404  0.2826
   13CHTO  H222 5083   8.360   4.579   1.448 -0.0650  0.6485  0.0696
   13CHTO  C125 5084   8.211   4.603   1.617 -0.6847  0.1421  0.3380
   13CHTO   O84 5085   8.181   4.460   1.617 -0.5793 -0.6336  0.2131
   13CHTO  H205 5086   8.095   4.443   1.650 -0.4580 -0.7335  0.4826
   13CHTO  C114 5087   8.413   4.756   1.548  0.0162 -0.5434 -0.1181
   13CHTO  H218 5088   8.420   4.791   1.651  1.3131  1.2745 -0.7776
   13CHTO  C116 5089   8.558   4.769   1.497  0.6401 -0.6587  0.0555
   13CHTO  H220 5090   8.547   4.747   1.389 -2.5433  0.4941  0.0732
   13CHTO   O79 5091   8.596   4.907   1.507 -0.2030  0.3086 -0.5186
   13CHTO  H201 5092   8.536   4.964   1.465 -0.1524  0.6655 -0.1108
   13CHTO  C120 5093   8.652   4.666   1.579  0.0574 -0.5392  0.1215
   13CHTO  H224 5094   8.663   4.709   1.681  2.4280  0.7552 -0.6244
   13CHTO   N21 5095   8.781   4.661   1.510 -0.4279  0.3761 -0.2625
   13CHTO  H211 5096   8.822   4.748   1.460  0.1764 -0.6834 -1.6378
   13CHTO  H212 5097   8.847   4.618   1.585  0.2322 -1.3307 -1.7771
   13CHTO   O75 5098   8.316   4.835   1.471 -0.0632 -0.4901  1.0113
   13CHTO  C112 5099   8.284   4.963   1.543  0.7830  0.4494  0.3843
   13CHTO  H216 5100   8.368   5.017   1.588  1.7415  0.8201 -1.8091
   13CHTO   O73 5101   8.183   4.929   1.647 -0.5303  0.2889  0.3422
   13CHTO  C113 5102   8.110   5.037   1.713 -0.3450  0.1935  0.2734
   13CHTO  H217 5103   8.178   5.103   1.771 -0.0312  2.0457 -2.1067
   13CHTO  C124 5104   8.002   4.975   1.800  0.6747  0.1504 -0.2996
   13CHTO   O83 5105   8.048   4.885   1.901 -0.0476 -0.4179 -0.1148
   13CHTO  H204 5106   8.006   4.801   1.892 -0.2734 -0.0500 -3.0357
   13CHTO  C109 5107   8.046   5.140   1.610  0.2117  0.0450  0.4660
   13CHTO  H213 5108   7.971   5.082   1.554 -0.9587  0.2343  1.8158
   13CHTO  C110 5109   8.150   5.186   1.506  0.4228 -0.0575 -0.2901
   13CHTO  H214 5110   8.216   5.245   1.569  0.3869 -0.0043 -0.3019
   13CHTO   O78 5111   8.080   5.257   1.395  0.1981 -0.0255 -0.0180
   13CHTO  H200 5112   8.058   5.345   1.418  3.5594  0.7831  0.3040
   13CHTO  C111 5113   8.232   5.066   1.442  0.0233  0.2345 -0.0459
   13CHTO  H215 5114   8.163   5.010   1.377  1.8402 -0.0400 -1.7949
   13CHTO   N19 5115   8.340   5.119   1.352 -0.2102 -0.5214  0.0153
   13CHTO  H207 5116   8.391   5.205   1.392  0.6332 -1.4275  0.9325
   13CHTO  H208 5117   8.425   5.054   1.331  0.0135 -0.1976 -0.0831
   13CHTO   O74 5118   7.984   5.257   1.679 -0.2874 -0.5224  0.2438
   13CHTO  C115 5119   7.844   5.305   1.596  0.2064 -0.5355 -0.1139
   13CHTO  H219 5120   7.865   5.384   1.525 -2.3882  0.3693  0.0558
   13CHTO   O76 5121   7.776   5.191   1.513 -0.7497 -0.3898  0.1823
   13CHTO  C122 5122   7.709   5.081   1.590  0.7556 -0.1644  0.1491
   13CHTO  H226 5123   7.787   5.011   1.619  0.1057 -0.2975  1.6050
   13CHTO  C126 5124   7.618   5.011   1.484  0.8929  0.5734  0.3148
   13CHTO   O85 5125   7.508   5.081   1.428  0.3091  0.0617  0.1049
   13CHTO  H206 5126   7.544   5.157   1.386  1.4695  0.7976  2.3183
   13CHTO  C121 5127   7.633   5.135   1.710 -0.7013  0.6116 -0.0974
   13CHTO  H225 5128   7.534   5.084   1.712  0.0560 -0.8642  0.4552
   13CHTO   O81 5129   7.693   5.076   1.828  0.2285  0.4569 -0.3841
   13CHTO  H202 5130   7.703   4.983   1.820 -0.4127  0.3272  0.2470
   13CHTO  C119 5131   7.613   5.286   1.722  0.0922 -0.4732  0.5902
   13CHTO  H223 5132   7.565   5.312   1.627  0.3835  1.1311  0.8696
   13CHTO  C117 5133   7.744   5.364   1.712 -0.3377  0.1660 -0.5528
   13CHTO  H221 5134   7.800   5.352   1.805  1.0397  2.9897 -0.9519
   13CHTO   N20 5135   7.728   5.513   1.693 -0.2066 -0.0176 -0.3610
   13CHTO  H209 5136   7.807   5.535   1.623  0.5765 -1.4162  0.0730
   13CHTO  H210 5137   7.748   5.555   1.790  1.9111 -0.5899 -0.5406
   13CHTO   O80 5138   7.515   5.327   1.818 -0.1357 -0.4196  0.3040
   13CHTO  C103 5139   7.357   5.347   1.789 -0.2774 -0.8557 -0.8424
   13CHTO  H190 5140   7.307   5.391   1.875  1.0698  1.1553 -1.0437
   13CHTO  C101 5141   7.329   5.447   1.671 -0.3546  0.0541 -0.9396
   13CHTO  H188 5142   7.384   5.418   1.581  0.8338  0.2675 -0.2926
   13CHTO   O68 5143   7.374   5.585   1.696  0.7470 -0.1683 -0.1369
   13CHTO  H168 5144   7.467   5.602   1.702  0.4204  2.2306 -1.2894
   13CHTO   C99 5145   7.172   5.447   1.638  0.3045  0.2766 -0.1924
   13CHTO  H186 5146   7.113   5.469   1.729  0.5593  1.0226 -0.2051
   13CHTO   N17 5147   7.131   5.543   1.528 -0.3212  0.1580  0.1694
   13CHTO  H174 5148   7.063   5.619   1.563  2.4419  2.4177  0.7121
   13CHTO  H175 5149   7.096   5.496   1.437 -1.2911 -0.7289  0.9730
   13CHTO   C97 5150   7.131   5.306   1.605  0.0102  1.3567  0.0549
   13CHTO  H184 5151   7.174   5.273   1.509  0.9998  1.7788  0.3577
   13CHTO   O64 5152   7.164   5.213   1.723  0.3841  0.4968  0.3622
   13CHTO  C104 5153   7.297   5.201   1.765  0.3627 -0.4649  1.0015
   13CHTO  H191 5154   7.356   5.150   1.688 -0.4897  1.0286 -0.6846
   13CHTO  C108 5155   7.306   5.118   1.893  0.6588 -0.5959  0.1998
   13CHTO   O71 5156   7.364   4.990   1.879 -0.2434 -0.7033  0.1795
   13CHTO  H171 5157   7.442   4.984   1.931 -0.9880 -0.9861  1.2732
   13CHTO   O62 5158   6.986   5.293   1.584 -0.0634  0.3408 -0.4569
   13CHTO   C91 5159   6.933   5.178   1.514  0.3362  0.3987  0.3839
   13CHTO  H178 5160   7.004   5.098   1.496  0.4812  1.2359 -3.2326
   13CHTO   C92 5161   6.885   5.219   1.368 -0.7476  0.2853 -0.3501
   13CHTO  H179 5162   6.849   5.323   1.372  0.9348  0.9300 -1.3586
   13CHTO   O66 5163   6.997   5.221   1.288  0.1390 -0.1155 -0.5554
   13CHTO  H166 5164   6.998   5.295   1.231 -2.2790 -0.3592 -0.9551
   13CHTO   C93 5165   6.778   5.122   1.308  0.5936 -0.0190 -0.6521
   13CHTO  H180 5166   6.834   5.035   1.272  2.2405  1.2528 -1.2851
   13CHTO   N16 5167   6.709   5.174   1.191  0.6190  0.2284  0.5856
   13CHTO  H172 5168   6.649   5.099   1.142 -1.2984  2.1418 -0.0875
   13CHTO  H173 5169   6.776   5.215   1.116 -1.5221  1.3953 -0.7486
   13CHTO   C94 5170   6.666   5.077   1.410  0.2132  0.0514  0.3478
   13CHTO  H181 5171   6.604   5.160   1.444 -0.7170 -1.2857  2.0501
   13CHTO   O61 5172   6.744   5.013   1.518 -0.2215 -0.3329 -0.5582
   13CHTO   C95 5173   6.820   5.106   1.601 -0.8290 -0.2752 -0.7059
   13CHTO  H182 5174   6.759   5.189   1.636 -1.4236 -0.2889 -1.7186
   13CHTO  C106 5175   6.857   5.025   1.733 -0.1745  0.3751 -0.8216
   13CHTO   O69 5176   6.939   4.913   1.689 -0.7927 -0.4152 -0.0172
   13CHTO  H169 5177   6.945   4.855   1.763  2.7449  1.1596  1.0347
   13CHTO   O63 5178   6.564   4.943   1.347  0.2361  0.0198 -0.1512
   13CHTO   C96 5179   6.417   4.955   1.407 -0.0931 -0.1308 -0.1159
   13CHTO  H183 5180   6.356   4.872   1.372 -0.3498  0.4033 -0.9525
   13CHTO   C98 5181   6.343   5.086   1.373 -0.6364 -0.7184  0.5077
   13CHTO  H185 5182   6.395   5.168   1.424 -0.1061 -0.5990 -0.2216
   13CHTO   O67 5183   6.354   5.116   1.226  0.4702  0.3058 -0.0341
   13CHTO  H167 5184   6.300   5.188   1.202  0.1960  0.3193  0.6030
   13CHTO  C102 5185   6.196   5.095   1.420 -0.2334  0.5309  0.2043
   13CHTO  H189 5186   6.142   5.012   1.372  0.1137 -0.8432  2.1257
   13CHTO   N18 5187   6.118   5.215   1.400 -0.0461  0.0700  0.1329
   13CHTO  H176 5188   6.175   5.288   1.344 -0.2130 -0.4050 -0.6586
   13CHTO  H177 5189   6.030   5.183   1.347  1.1419 -2.9028 -0.1336
   13CHTO  C105 5190   6.202   5.054   1.574 -0.9171  0.2298  0.3648
   13CHTO  H192 5191   6.252   5.132   1.632 -1.8486  1.3615 -0.3224
   13CHTO   O65 5192   6.274   4.929   1.590  0.1131  0.1501  0.2135
   13CHTO  C100 5193   6.415   4.942   1.567  0.3399  0.1933  0.0530
   13CHTO  H187 5194   6.461   5.024   1.624  1.6819 -0.8054  0.4407
   13CHTO  C107 5195   6.480   4.811   1.600  0.0939  0.7263 -0.3763
   13CHTO   O70 5196   6.465   4.772   1.736  0.7423 -0.2741 -0.4251
   13CHTO  H170 5197   6.431   4.685   1.733 -1.6994  0.6287 -0.7136
   13CHTO   O57 5198   6.049   5.038   1.620  0.2708 -0.1553 -0.4121
   13CHTO   C85 5199   5.974   4.918   1.597 -0.8756  0.1429 -0.2041
   13CHTO  H157 5200   6.039   4.839   1.552 -0.6413  0.3511 -0.2271
   13CHTO   C83 5201   5.857   4.954   1.493 -0.2303  0.4635  0.4707
   13CHTO  H155 5202   5.893   4.983   1.395 -0.0423  1.4978  0.8357
   13CHTO   O56 5203   5.786   5.074   1.536  0.0487  0.2623  0.2072
   13CHTO  H135 5204   5.740   5.116   1.466 -0.1108 -2.4333 -1.3586
   13CHTO   C81 5205   5.765   4.826   1.479 -0.1207 -0.1422 -0.2980
   13CHTO  H153 5206   5.833   4.749   1.441  0.5881  0.0143  0.6239
   13CHTO   N14 5207   5.665   4.835   1.373  0.4733  0.2012 -0.1445
   13CHTO  H141 5208   5.656   4.741   1.322 -1.4009  0.6104 -0.6153
   13CHTO  H142 5209   5.568   4.871   1.400 -0.0114 -0.1015 -1.4255
   13CHTO   C79 5210   5.705   4.779   1.610 -0.3066 -0.0836  0.2543
   13CHTO  H151 5211   5.657   4.683   1.590  1.6517 -0.8052 -1.1967
   13CHTO   O52 5212   5.815   4.751   1.699 -0.2451  0.3763  0.2090
   13CHTO   C86 5213   5.900   4.863   1.722 -0.2519  0.2080  1.0265
   13CHTO  H158 5214   5.827   4.938   1.758 -0.4338  0.3330  0.4043
   13CHTO   C90 5215   5.993   4.831   1.837 -0.3106 -0.1086 -0.5865
   13CHTO   O60 5216   5.929   4.788   1.960  0.9035  0.0838 -0.2581
   13CHTO  H138 5217   5.892   4.867   1.993  0.4115  0.5818 -1.9554
   13CHTO   O50 5218   5.614   4.869   1.677  0.0203 -0.0428  0.7628
   13CHTO   C73 5219   5.478   4.847   1.721 -0.6162  0.4199 -0.1075
   13CHTO  H145 5220   5.462   4.740   1.702 -0.2817  0.5734 -1.2677
   13CHTO   C74 5221   5.375   4.930   1.634  0.2009  1.1889 -0.5667
   13CHTO  H146 5222   5.395   4.910   1.528  2.6936  1.9133 -0.2657
   13CHTO   O54 5223   5.244   4.882   1.667 -0.3997  0.3423  0.0499
   13CHTO  H133 5224   5.188   4.907   1.596 -2.4517  0.6092  1.7321
   13CHTO   C75 5225   5.394   5.086   1.667 -0.1784  0.4401  0.1022
   13CHTO  H147 5226   5.493   5.111   1.628  0.4873 -0.2777  1.3056
   13CHTO   N13 5227   5.310   5.171   1.585  0.1188  0.3077 -0.5707
   13CHTO  H139 5228   5.205   5.158   1.606  0.1632  1.3902  0.3616
   13CHTO  H140 5229   5.323   5.152   1.480 -1.3650 -0.7023 -0.5854
   13CHTO   C76 5230   5.389   5.111   1.826  0.3006 -0.5405  0.0150
   13CHTO  H148 5231   5.286   5.087   1.852  0.3712  2.1656  2.9557
   13CHTO   O49 5232   5.487   5.020   1.888 -0.0610  0.1892  0.6127
   13CHTO   C77 5233   5.468   4.882   1.872 -0.0513  0.7552 -0.1589
   13CHTO  H149 5234   5.369   4.849   1.906  0.6397 -1.9753 -0.6636
   13CHTO   C88 5235   5.573   4.820   1.961 -0.3952 -0.0735 -0.6608
   13CHTO   O58 5236   5.579   4.677   1.957 -0.3101  0.0691  0.1326
   13CHTO  H136 5237   5.599   4.645   2.043  0.2558 -1.6329 -0.6193
   13CHTO   O51 5238   5.424   5.252   1.865  0.0085  0.1126 -0.7003
   13CHTO   C78 5239   5.577   5.315   1.899  0.1777  0.6018 -0.0446
   13CHTO  H150 5240   5.559   5.418   1.935  3.6123  1.2933 -0.1011
   13CHTO   C80 5241   5.675   5.318   1.780  0.0306  0.3518  0.5764
   13CHTO  H152 5242   5.674   5.223   1.723  4.4798 -0.1917  1.2095
   13CHTO   O55 5243   5.616   5.421   1.695  0.7379  0.4751  0.1911
   13CHTO  H134 5244   5.675   5.482   1.656  0.0323  2.2549  1.8266
   13CHTO   C84 5245   5.829   5.359   1.832  0.2534 -0.0245  0.0463
   13CHTO  H156 5246   5.816   5.464   1.858 -0.7078  0.0521 -0.7248
   13CHTO   N15 5247   5.933   5.343   1.723  0.6070  0.3076  0.6956
   13CHTO  H143 5248   5.877   5.373   1.636 -2.7659 -1.3342  2.2035
   13CHTO  H144 5249   6.021   5.403   1.729  0.4583  0.8349 -1.5947
   13CHTO   C87 5250   5.871   5.281   1.958 -0.0668  0.0967  0.8610
   13CHTO  H159 5251   5.859   5.176   1.932  2.1060 -0.0201  0.2414
   13CHTO   O53 5252   5.771   5.324   2.063  0.2550 -0.2198 -0.0060
   13CHTO   C82 5253   5.639   5.261   2.031  0.3871  0.5695  0.1767
   13CHTO  H154 5254   5.642   5.152   2.030 -1.4745  0.5062 -0.9174
   13CHTO   C89 5255   5.543   5.295   2.150  0.6650  0.0263 -0.3596
   13CHTO   O59 5256   5.411   5.229   2.139  0.4137 -0.4042  0.5842
   13CHTO  H137 5257   5.409   5.145   2.181  3.7841 -0.7684  0.1334
   13CHTO   O45 5258   6.043   5.310   2.008  0.2184  0.2424 -0.0322
   13CHTO   C67 5259   6.117   5.189   2.016  0.3200  0.3641 -1.1443
   13CHTO  H124 5260   6.064   5.108   1.966  0.7834 -0.5213 -0.2143
   13CHTO   C65 5261   6.262   5.200   1.948 -0.0659  0.3762 -0.4404
   13CHTO  H122 5262   6.253   5.258   1.856  0.7006  1.1455 -0.0477
   13CHTO   O44 5263   6.304   5.067   1.919  0.4073  0.0363 -0.1226
   13CHTO  H102 5264   6.371   5.058   1.854 -0.3008 -3.6179 -0.4502
   13CHTO   C63 5265   6.359   5.291   2.027 -0.3652  0.2313  0.3348
   13CHTO  H120 5266   6.305   5.384   2.045  1.4694  1.8459 -2.1021
   13CHTO   N11 5267   6.492   5.322   1.965  0.1469 -0.7193  0.2765
   13CHTO  H108 5268   6.488   5.383   1.877 -1.3448 -1.7298 -0.3721
   13CHTO  H109 5269   6.541   5.233   1.931 -0.6050 -1.0403  0.0061
   13CHTO   C61 5270   6.372   5.231   2.167  0.3717  0.2139 -0.4773
   13CHTO  H118 5271   6.418   5.308   2.231 -1.5083  1.2207 -0.3008
   13CHTO   O40 5272   6.243   5.209   2.231  0.1868 -0.1020  0.0473
   13CHTO   C68 5273   6.132   5.144   2.168 -0.0586 -0.2722 -0.7069
   13CHTO  H125 5274   6.049   5.183   2.231 -0.8349 -1.2327 -1.1122
   13CHTO   C72 5275   6.135   4.987   2.190 -0.0468 -0.5187 -0.4592
   13CHTO   O48 5276   6.120   4.960   2.332  0.2003  0.1518  0.3454
   13CHTO  H105 5277   6.199   4.937   2.377 -0.5321  0.3181  1.7717
   13CHTO   O38 5278   6.435   5.096   2.170 -0.5064  0.2991 -0.4962
   13CHTO   C55 5279   6.522   5.059   2.281 -0.1903  0.4658  0.0984
   13CHTO  H112 5280   6.523   4.949   2.273 -1.2266  0.3765  1.0778
   13CHTO   C56 5281   6.480   5.106   2.425  0.7574 -0.1047  0.3938
   13CHTO  H113 5282   6.444   5.210   2.423  1.9502  0.3225  0.8635
   13CHTO   O42 5283   6.364   5.033   2.458  0.0442  0.1049 -0.7396
   13CHTO  H100 5284   6.324   5.067   2.535 -0.2725  1.1376 -1.3635
   13CHTO   C57 5285   6.608   5.088   2.531  1.2216  0.1683 -0.8319
   13CHTO  H114 5286   6.624   4.980   2.534  1.4545  0.2068 -0.7043
   13CHTO   N10 5287   6.573   5.137   2.668  0.2540  0.1700 -0.2629
   13CHTO  H106 5288   6.629   5.225   2.697 -0.7330  1.0844 -1.0721
   13CHTO  H107 5289   6.468   5.147   2.690  0.0413 -0.4678 -0.9650
   13CHTO   C58 5290   6.734   5.152   2.471 -0.3532  0.2075 -0.1916
   13CHTO  H115 5291   6.718   5.258   2.443 -0.9875 -1.0493 -5.1424
   13CHTO   O37 5292   6.762   5.078   2.348 -0.6568 -0.0998 -0.8292
   13CHTO   C59 5293   6.662   5.113   2.246 -0.3534  0.0868  0.0426
   13CHTO  H116 5294   6.657   5.222   2.241  0.8631  0.2353  1.8073
   13CHTO   C70 5295   6.710   5.038   2.125 -0.3077 -0.7360  0.1584
   13CHTO   O46 5296   6.828   5.100   2.071  0.2392 -0.1863  0.0408
   13CHTO  H103 5297   6.895   5.100   2.137  0.4366  0.8847 -0.1377
   13CHTO   O39 5298   6.871   5.142   2.575 -0.1670 -0.2109  0.1559
   13CHTO   C60 5299   6.953   5.262   2.576  0.3830 -0.4067 -0.5339
   13CHTO  H117 5300   6.961   5.299   2.474 -2.4438 -0.0445 -0.6755
   13CHTO   C62 5301   6.886   5.374   2.661 -0.0065 -0.2398 -0.9316
   13CHTO  H119 5302   6.790   5.389   2.607  0.9538  0.6899 -2.4558
   13CHTO   O43 5303   6.853   5.328   2.794  0.1561 -0.0240  0.3385
   13CHTO  H101 5304   6.845   5.399   2.855  1.9047 -1.1072  1.8932
   13CHTO   C66 5305   6.978   5.505   2.644  0.2130  0.0000 -0.0070
   13CHTO  H123 5306   6.965   5.536   2.540 -2.7258 -2.1732 -0.3573
   13CHTO   N12 5307   6.925   5.620   2.718 -0.3106  0.0233 -0.2058
   13CHTO  H110 5308   6.917   5.588   2.821  1.5699 -0.6509 -0.2545
   13CHTO  H111 5309   6.827   5.642   2.677 -0.8038  2.1624  1.9183
   13CHTO   C69 5310   7.125   5.481   2.686  0.2999 -0.2924 -0.7756
   13CHTO  H126 5311   7.126   5.472   2.797 -0.4298 -0.9059 -0.8161
   13CHTO   O41 5312   7.175   5.333   2.621 -0.4579 -0.2565  0.3121
   13CHTO   C64 5313   7.089   5.219   2.631  0.1981  0.2375 -0.4121
   13CHTO  H121 5314   7.075   5.187   2.736  1.9118 -1.3716 -0.6490
   13CHTO   C71 5315   7.154   5.104   2.554 -1.3255 -0.4685  0.0023
   13CHTO   O47 5316   7.216   5.144   2.433  0.1009  0.5372  0.5032
   13CHTO  H104 5317   7.295   5.095   2.422  0.1786  0.9666 -0.9693
   13CHTO   O34 5318   7.216   5.595   2.638 -0.4566  0.2013  0.2323
   13CHTO   C49 5319   7.342   5.675   2.597 -0.1856 -0.4491  0.8895
   13CHTO   H91 5320   7.380   5.639   2.502  0.4399  2.1802  0.0880
   13CHTO   C47 5321   7.442   5.659   2.715  0.0409 -0.0752  0.1376
   13CHTO   H89 5322   7.537   5.696   2.670 -0.4139 -0.5631 -1.2466
   13CHTO   O33 5323   7.466   5.516   2.732  0.6094 -0.0234  0.0685
   13CHTO   H70 5324   7.540   5.489   2.681  0.7008  1.8951 -0.8656
   13CHTO   C45 5325   7.395   5.726   2.848 -0.2502  0.0482  0.0178
   13CHTO   H87 5326   7.358   5.648   2.916 -0.1951  1.2942  1.4910
   13CHTO    N8 5327   7.502   5.799   2.917  0.1411 -0.4426 -0.1667
   13CHTO   H75 5328   7.468   5.897   2.947 -1.3456 -0.6078 -1.2999
   13CHTO   H76 5329   7.539   5.748   3.005  0.1702 -0.2834 -0.0861
   13CHTO   C43 5330   7.269   5.820   2.817  0.2963 -0.1812 -0.8014
   13CHTO   H85 5331   7.187   5.751   2.801  0.1341 -0.3869  0.8122
   13CHTO   O29 5332   7.295   5.901   2.702 -0.0382 -0.1278 -0.2615
   13CHTO   C50 5333   7.306   5.822   2.581  0.0685 -0.3423 -0.4930
   13CHTO   H92 5334   7.211   5.832   2.527 -0.4758  0.3329  0.5640
   13CHTO   C54 5335   7.410   5.893   2.485  0.2920 -0.0597  0.6180
   13CHTO   O36 5336   7.361   6.012   2.425 -0.5393 -0.6253 -0.4187
   13CHTO   H72 5337   7.297   5.999   2.358 -2.0900  1.2299  0.6249
   13CHTO   O27 5338   7.211   5.897   2.920 -0.4301  0.4210  0.5258
   13CHTO   C37 5339   7.170   6.035   2.951 -0.7893  0.5175 -0.0341
   13CHTO   H79 5340   7.132   6.043   3.054 -1.2560 -1.2700 -0.0540
   13CHTO   C38 5341   7.291   6.134   2.948  0.1513 -0.3009  0.0997
   13CHTO   H80 5342   7.340   6.123   2.850 -1.1864 -3.6228 -0.2694
   13CHTO   O31 5343   7.376   6.103   3.056 -0.6550  0.1273 -0.5642
   13CHTO   H68 5344   7.339   6.088   3.141 -0.1413 -1.0835 -0.5378
   13CHTO   C39 5345   7.255   6.289   2.941  0.1558  0.2377  0.0750
   13CHTO   H81 5346   7.212   6.310   3.038  0.5373 -2.9003  0.9744
   13CHTO    N7 5347   7.376   6.378   2.919  0.1912  0.3622 -0.2974
   13CHTO   H73 5348   7.448   6.372   2.999  0.9537 -5.6912 -1.1931
   13CHTO   H74 5349   7.412   6.349   2.821 -0.3937 -0.0622 -0.3881
   13CHTO   C40 5350   7.140   6.312   2.838 -0.5237 -0.2893 -0.4467
   13CHTO   H82 5351   7.173   6.293   2.736 -1.6949 -2.1033 -0.5132
   13CHTO   O26 5352   7.028   6.225   2.874 -0.2958  0.0530  0.1518
   13CHTO   C41 5353   7.055   6.075   2.854 -0.8676  0.0429 -0.1655
   13CHTO   H83 5354   7.093   6.044   2.756 -0.7110 -1.7589  0.4489
   13CHTO   C52 5355   6.932   5.998   2.883  0.3842 -0.7632 -0.2406
   13CHTO   O35 5356   6.823   6.059   2.806  0.0218 -0.1465  0.0102
   13CHTO   H71 5357   6.770   5.988   2.775  0.3998 -0.1085 -0.7535
   13CHTO   O28 5358   7.085   6.448   2.851  0.0564 -0.1208 -0.0233
   13CHTO   C42 5359   7.032   6.518   2.738 -0.3426 -0.7713 -0.1136
   13CHTO   H84 5360   7.034   6.442   2.660  1.8826 -0.5069 -0.3440
   13CHTO   C44 5361   7.124   6.635   2.684  0.4398  0.5341 -0.3253
   13CHTO   H86 5362   7.152   6.698   2.768 -0.5174 -1.9472  1.9424
   13CHTO   O32 5363   7.239   6.567   2.629  0.0764  0.0200  0.6402
   13CHTO   H69 5364   7.289   6.540   2.704 -0.6982 -0.1431  1.1015
   13CHTO   C48 5365   7.058   6.723   2.577 -0.3471 -0.3998 -0.2855
   13CHTO   H90 5366   7.052   6.656   2.491  0.8822  0.1059 -0.7730
   13CHTO    N9 5367   7.146   6.838   2.541  0.8446  0.0610 -0.4140
   13CHTO   H77 5368   7.098   6.927   2.577  0.3965  0.1132 -1.1154
   13CHTO   H78 5369   7.159   6.841   2.434 -3.0974  1.3419 -0.9284
   13CHTO   C51 5370   6.913   6.763   2.620  0.0065  0.6728 -0.0251
   13CHTO   H93 5371   6.928   6.828   2.706 -0.5373  2.1448 -1.0244
   13CHTO   O30 5372   6.828   6.649   2.645  0.2289  0.7108 -1.0892
   13CHTO   C46 5373   6.878   6.560   2.760  0.3129  0.0223 -0.1459
   13CHTO   H88 5374   6.882   6.620   2.851  0.8423  0.4641 -0.4545
   13CHTO   C53 5375   6.784   6.440   2.776 -0.0703 -0.2363  0.2546
   13CHTO   O72 5376   6.649   6.482   2.785 -0.1233  0.2436  0.1157
   13CHTO  H199 5377   6.595   6.405   2.783 -0.5033  0.5265 -0.3198
   13CHTO   O22 5378   6.840   6.828   2.517  0.5428  0.0942 -0.2378
   13CHTO   C31 5379   6.741   6.935   2.522 -0.0553  0.1111 -0.7137
   13CHTO   H59 5380   6.737   6.989   2.425 -1.2806  0.7316 -0.3285
   13CHTO   C29 5381   6.593   6.882   2.540  0.1691 -0.4217  0.4033
   13CHTO   H57 5382   6.583   6.816   2.627 -2.0228  1.8715  1.9634
   13CHTO   O21 5383   6.557   6.813   2.419 -0.5229  1.0514  0.1847
   13CHTO   H37 5384   6.624   6.749   2.405  0.5889  2.2709 -0.1700
   13CHTO   C27 5385   6.483   7.003   2.544  0.2128 -0.3474 -0.0287
   13CHTO   H55 5386   6.492   7.060   2.451 -0.8009 -0.5782 -0.2705
   13CHTO    N5 5387   6.341   6.959   2.564 -0.4371  0.0976 -0.3247
   13CHTO   H43 5388   6.287   7.028   2.627 -0.2887  0.3508 -0.4695
   13CHTO   H44 5389   6.292   6.941   2.469  0.2689  1.2352 -0.9095
   13CHTO   C25 5390   6.518   7.100   2.665  0.0551  0.3194  0.8438
   13CHTO   H53 5391   6.525   7.049   2.762 -3.8090 -0.3536  0.8611
   13CHTO   O17 5392   6.658   7.149   2.642 -0.5705 -0.4017  0.4347
   13CHTO   C32 5393   6.755   7.044   2.635 -0.1195 -0.0107 -0.3690
   13CHTO   H60 5394   6.744   6.997   2.732 -0.6707  1.0466  0.0899
   13CHTO   C36 5395   6.896   7.112   2.628  0.7891  0.0703  0.2459
   13CHTO   O25 5396   6.919   7.183   2.750  0.4417 -0.3870  0.3534
   13CHTO   H40 5397   6.921   7.141   2.833 -0.1481 -0.7229  0.1991
   13CHTO   O15 5398   6.399   7.241   2.669  0.8521 -0.1899  0.6440
   13CHTO   C19 5399   6.292   7.338   2.671  0.0835  0.0574  0.7136
   13CHTO   H47 5400   6.309   7.397   2.762  0.1238  1.5162 -0.2217
   13CHTO   C20 5401   6.313   7.437   2.556 -0.3310  0.2759 -0.2952
   13CHTO   H48 5402   6.328   7.383   2.461 -2.2368  0.7164 -0.8661
   13CHTO   O19 5403   6.434   7.507   2.591  0.0097 -0.0885 -0.0664
   13CHTO   H35 5404   6.505   7.449   2.575 -1.5944 -2.1767  0.1260
   13CHTO   C21 5405   6.194   7.534   2.537  0.2006  0.4564  1.0464
   13CHTO   H49 5406   6.182   7.601   2.622 -0.2619  2.2486 -0.3918
   13CHTO    N4 5407   6.218   7.628   2.426 -0.0331  0.1187  0.0605
   13CHTO   H41 5408   6.204   7.580   2.331 -0.2318  0.4945 -0.1039
   13CHTO   H42 5409   6.155   7.715   2.434  0.1869  0.3498 -0.6526
   13CHTO   C22 5410   6.066   7.451   2.525 -0.0024 -0.0733 -0.6885
   13CHTO   H50 5411   6.093   7.383   2.444 -0.3146 -0.2692 -0.6286
   13CHTO   O14 5412   6.051   7.381   2.647  0.2748 -0.6428 -0.3431
   13CHTO   C23 5413   6.146   7.280   2.673 -0.3929 -0.6072 -0.6666
   13CHTO   H51 5414   6.134   7.202   2.597 -0.6467 -0.0797 -1.1752
   13CHTO   C34 5415   6.128   7.225   2.812 -0.8769  0.4390 -0.2477
   13CHTO   O23 5416   6.017   7.137   2.825 -0.0161  0.2688  0.3702
   13CHTO   H38 5417   5.947   7.200   2.832  0.7282  1.2407 -0.7367
   13CHTO   O16 5418   5.950   7.524   2.492 -0.2920  0.3821  0.5479
   13CHTO   C24 5419   5.801   7.458   2.518  0.8018 -0.3205  0.2914
   13CHTO   H52 5420   5.791   7.424   2.621  1.3828 -3.3660 -0.6093
   13CHTO   C26 5421   5.777   7.346   2.419 -0.6051  0.1293 -0.3657
   13CHTO   H54 5422   5.799   7.375   2.314  0.9994 -1.0752 -0.3896
   13CHTO   O20 5423   5.874   7.239   2.438 -1.0815  0.1060 -0.5706
   13CHTO   H36 5424   5.876   7.174   2.370 -0.7499 -1.0895  0.5654
   13CHTO   C30 5425   5.633   7.291   2.425 -0.1366  0.2774 -0.0579
   13CHTO   H58 5426   5.603   7.236   2.515  1.9030 -0.2236  0.3540
   13CHTO    N6 5427   5.605   7.206   2.312 -0.0187 -0.3049 -0.6975
   13CHTO   H45 5428   5.621   7.101   2.329 -1.7752 -0.2252  1.7434
   13CHTO   H46 5429   5.501   7.219   2.287 -0.4016 -0.7522  0.6299
   13CHTO   C33 5430   5.530   7.411   2.414 -0.1172  0.2657  0.2628
   13CHTO   H61 5431   5.541   7.462   2.317  2.9994  2.0480  1.4581
   13CHTO   O18 5432   5.557   7.504   2.523  0.4920  0.4318 -0.5549
   13CHTO   C28 5433   5.688   7.568   2.504  0.9200  0.1004  0.4461
   13CHTO   H56 5434   5.697   7.616   2.407  0.6878  1.5889  1.1511
   13CHTO   C35 5435   5.699   7.670   2.610  0.5741  0.0254 -0.1888
   13CHTO   O24 5436   5.822   7.759   2.591 -0.1595  0.0402 -0.4231
   13CHTO   H39 5437   5.814   7.826   2.657  1.7117  0.4672 -0.6019
   13CHTO    O9 5438   5.388   7.375   2.417 -0.5659 -0.1045  0.4782
   13CHTO   C13 5439   5.327   7.304   2.540  1.2891  0.4324  0.5368
   13CHTO   H26 5440   5.410   7.307   2.613 -0.5928 -3.1532  2.9844
   13CHTO   C11 5441   5.284   7.157   2.507  0.2792 -0.1463 -0.4829
   13CHTO   H24 5442   5.377   7.103   2.485 -0.0598 -1.0175  0.1647
   13CHTO    O8 5443   5.197   7.159   2.385  0.0213 -0.0799  0.4476
   13CHTO    H3 5444   5.200   7.073   2.349  0.5301  0.2417 -0.2937
   13CHTO    C9 5445   5.231   7.087   2.630  0.0616  0.4228  0.5095
   13CHTO   H22 5446   5.319   7.070   2.695  0.9811 -3.4548 -1.6131
   13CHTO    N2 5447   5.197   6.946   2.597 -0.1869 -0.1272 -0.4062
   13CHTO   H10 5448   5.269   6.891   2.540  1.6035  0.5541  1.1398
   13CHTO   H11 5449   5.175   6.895   2.690  0.5945 -3.2018 -1.8543
   13CHTO    C7 5450   5.116   7.174   2.687 -0.5834 -0.0762 -0.0610
   13CHTO   H20 5451   5.150   7.195   2.791  2.3434 -0.3908 -0.9191
   13CHTO    O4 5452   5.094   7.304   2.622 -0.0598  0.1442 -0.3334
   13CHTO   C14 5453   5.212   7.387   2.622  0.0517  0.2833 -0.3487
   13CHTO   H27 5454   5.254   7.414   2.721  0.5040  1.0336 -0.7446
   13CHTO   C18 5455   5.172   7.513   2.550  0.0021 -1.0786 -0.5730
   13CHTO   O13 5456   5.280   7.607   2.564  0.7236  0.5786  0.1490
   13CHTO    H7 5457   5.246   7.685   2.524 -2.1110 -1.0735 -0.8455
   13CHTO    O2 5458   4.962   7.087   2.688  0.2796 -0.5519  0.0114
   13CHTO    C1 5459   4.905   7.084   2.818  0.0543 -0.2406 -0.5509
   13CHTO   H14 5460   4.923   7.184   2.863  1.1859 -0.4593 -0.5037
   13CHTO    C2 5461   4.961   6.966   2.914 -0.4786  0.0987 -0.7846
   13CHTO   H15 5462   4.926   6.870   2.872 -1.8679 -0.1846  0.9526
   13CHTO    O6 5463   5.102   6.960   2.933 -0.2279  0.2016 -0.6199
   13CHTO    H1 5464   5.148   6.896   2.883 -1.5781 -0.6265 -0.8317
   13CHTO    C3 5465   4.874   6.980   3.064  0.7121 -0.0471  0.4023
   13CHTO   H16 5466   4.899   7.073   3.117  0.2862  0.7446 -0.7885
   13CHTO    N1 5467   4.907   6.866   3.157 -0.3159  0.4929  0.0706
   13CHTO    H8 5468   4.985   6.893   3.227 -1.0767  2.1373  0.3193
   13CHTO    H9 5469   4.915   6.769   3.111 -0.5037  0.7488 -0.5000
   13CHTO    C4 5470   4.717   6.988   3.041  0.1171 -0.5731  0.2630
   13CHTO   H17 5471   4.683   6.888   3.012  3.0627 -1.3819 -0.5797
   13CHTO    O1 5472   4.692   7.085   2.938 -0.3896 -0.3006 -0.0533
   13CHTO    C5 5473   4.752   7.063   2.803 -1.1246  0.5661 -0.5656
   13CHTO   H18 5474   4.735   6.958   2.781  1.7979 -0.5358  2.1338
   13CHTO   C16 5475   4.685   7.161   2.702 -0.3364 -0.5349 -0.8777
   13CHTO   O11 5476   4.701   7.300   2.742 -0.1092 -0.1029 -0.5563
   13CHTO    H5 5477   4.662   7.302   2.827 -2.8641 -0.1142 -1.7734
   13CHTO    O3 5478   4.656   7.031   3.158  0.6480 -0.0263  0.2653
   13CHTO    C6 5479   4.529   6.981   3.186  0.4692  0.3469 -0.1193
   13CHTO   H19 5480   4.490   6.907   3.116 -0.1797 -0.4320  1.0414
   13CHTO    C8 5481   4.532   6.914   3.329 -0.2844 -0.0967  0.3690
   13CHTO   H21 5482   4.573   6.994   3.392  2.0917  0.8333 -2.2798
   13CHTO    O7 5483   4.606   6.795   3.313 -0.2335  0.4339  0.6830
   13CHTO    H2 5484   4.693   6.819   3.290 -0.3058 -1.8631 -2.4008
   13CHTO   C12 5485   4.387   6.888   3.390 -0.1051  0.1637  0.2526
   13CHTO   H25 5486   4.340   6.810   3.326  0.4619  0.4802 -0.5509
   13CHTO    N3 5487   4.393   6.830   3.527  0.0726  0.2379  0.1584
   13CHTO   H12 5488   4.304   6.841   3.588 -0.6969 -0.2900 -0.8592
   13CHTO   H13 5489   4.484   6.862   3.577 -1.1688  1.5142  1.6636
   13CHTO   C15 5490   4.304   7.016   3.376  0.5934  0.4990  0.3439
   13CHTO   H28 5491   4.356   7.099   3.423 -1.6339  0.9330  2.1087
   13CHTO   O10 5492   4.156   7.004   3.399  0.2350 -0.3789  0.1744
   13CHTO    H4 5493   4.144   7.009   3.492 -0.4823 -0.1813  0.0779
   13CHTO    O5 5494   4.297   7.050   3.237  0.0462 -0.3390 -0.3827
   13CHTO   C10 5495   4.427   7.100   3.190 -0.2954 -0.1408  0.1330
   13CHTO   H23 5496   4.470   7.173   3.258  0.5243 -1.8869  1.5252
   13CHTO   C17 5497   4.411   7.174   3.063  0.2300 -0.1210  0.1910
   13CHTO   O12 5498   4.305   7.268   3.066 -0.1537 -0.1199 -0.3432
   13CHTO    H6 5499   4.291   7.307   2.982  1.2147 -0.1370 -0.5805
   14CHTO  H203 5500   7.128   4.510   2.437 -0.3992  1.0291 -0.5654
   14CHTO   O82 5501   7.112   4.496   2.346  0.2389  0.1097 -0.5434
   14CHTO  C123 5502   7.034   4.609   2.293  0.5521 -1.1445 -0.7288
   14CHTO  H227 5503   7.103   4.692   2.268  2.6123 -2.2972  0.8991
   14CHTO   O77 5504   6.987   4.557   2.172  0.0555  0.0297 -0.1448
   14CHTO  C118 5505   6.892   4.634   2.090  0.3242 -0.0784 -0.6335
   14CHTO  H222 5506   6.920   4.738   2.067 -0.8969  0.6661  1.1197
   14CHTO  C125 5507   6.858   4.539   1.955 -0.0504 -1.0034  0.0922
   14CHTO   O84 5508   6.971   4.510   1.879 -0.2352  0.8673  0.4507
   14CHTO  H205 5509   6.943   4.438   1.825  1.1969  0.7251 -0.1347
   14CHTO  C114 5510   6.759   4.644   2.172 -0.1071  0.1650  0.0883
   14CHTO  H218 5511   6.734   4.550   2.221  0.5318 -0.2053 -0.2981
   14CHTO  C116 5512   6.805   4.724   2.299 -0.3135 -0.3593  0.1201
   14CHTO  H220 5513   6.847   4.823   2.269  1.1481 -1.1853 -0.6209
   14CHTO   O79 5514   6.692   4.749   2.381 -0.1182  0.0457 -0.5387
   14CHTO  H201 5515   6.708   4.746   2.474 -0.5554 -0.5246 -0.4774
   14CHTO  C120 5516   6.910   4.640   2.383 -0.1450 -0.8738 -0.8259
   14CHTO  H224 5517   6.870   4.545   2.424  1.6744 -1.5950 -0.7217
   14CHTO   N21 5518   6.964   4.718   2.501  0.8147 -0.2819  0.3674
   14CHTO  H211 5519   6.959   4.822   2.472  3.7917 -0.4237 -0.7655
   14CHTO  H212 5520   6.898   4.706   2.586 -1.7333 -1.1626 -1.6561
   14CHTO   O75 5521   6.654   4.690   2.096  0.0937  0.9597  0.1935
   14CHTO  C112 5522   6.503   4.585   2.116  0.2970  0.4551  0.7937
   14CHTO  H216 5523   6.456   4.600   2.214 -0.2218  2.4642  0.2753
   14CHTO   O73 5524   6.545   4.444   2.095  0.1510 -0.6038  0.4597
   14CHTO  C113 5525   6.439   4.346   2.099 -0.4536  0.8009 -0.1340
   14CHTO  H217 5526   6.388   4.366   2.196 -0.0266  0.0327  0.2491
   14CHTO  C124 5527   6.506   4.204   2.093 -0.0202  0.0317 -0.0536
   14CHTO   O83 5528   6.409   4.111   2.138 -0.1450 -0.6159  0.2310
   14CHTO  H204 5529   6.351   4.104   2.065 -1.3940 -1.3854  1.2685
   14CHTO  C109 5530   6.345   4.368   1.981 -0.5509  0.7773  0.4294
   14CHTO  H213 5531   6.406   4.358   1.890 -1.4074  0.3483 -0.1026
   14CHTO  C110 5532   6.290   4.518   1.976  0.1562 -0.4791 -0.2615
   14CHTO  H214 5533   6.207   4.532   2.045  0.7015  3.5405 -0.3216
   14CHTO   O78 5534   6.244   4.541   1.839 -0.0004 -0.4520 -0.1746
   14CHTO  H200 5535   6.163   4.494   1.830 -0.5632  0.6089 -0.6832
   14CHTO  C111 5536   6.404   4.617   2.006  0.4075  0.4630 -0.0518
   14CHTO  H215 5537   6.462   4.623   1.913  0.5484 -1.5787 -0.1119
   14CHTO   N19 5538   6.350   4.751   2.029  0.0056 -0.0565 -0.3692
   14CHTO  H207 5539   6.279   4.768   2.108  1.1012  1.1676  0.3661
   14CHTO  H208 5540   6.303   4.797   1.943  1.6529 -1.1208 -1.8978
   14CHTO   O74 5541   6.238   4.265   1.973  0.4128 -0.5793 -0.3348
   14CHTO  C115 5542   6.191   4.237   1.817 -0.1035  0.5489 -0.3796
   14CHTO  H219 5543   6.251   4.295   1.747 -1.8976 -0.5823 -2.9360
   14CHTO   O76 5544   6.212   4.074   1.774  0.3072 -0.3751 -0.5744
   14CHTO  C122 5545   6.147   3.994   1.871  0.8733  0.1418 -0.0810
   14CHTO  H226 5546   6.212   3.998   1.959 -0.0600  1.2625  0.5806
   14CHTO  C126 5547   6.155   3.844   1.822 -0.0990 -0.1252  0.6442
   14CHTO   O85 5548   6.129   3.745   1.917  0.3142 -0.5751 -0.2277
   14CHTO  H206 5549   6.101   3.663   1.880  0.2900 -0.3823 -0.6339
   14CHTO  C121 5550   5.992   4.034   1.901 -0.5248  0.1243  0.5566
   14CHTO  H225 5551   5.925   3.946   1.898  0.7380 -0.8089 -0.2947
   14CHTO   O81 5552   5.984   4.082   2.037 -0.2461  0.2889 -0.1232
   14CHTO  H202 5553   5.891   4.086   2.040 -0.2947 -1.0169  0.5052
   14CHTO  C119 5554   5.945   4.143   1.799  0.7773 -0.2596  0.2361
   14CHTO  H223 5555   5.963   4.106   1.698  3.1235 -1.0399  0.9230
   14CHTO  C117 5556   6.035   4.268   1.813 -0.0882 -0.6331  0.1892
   14CHTO  H221 5557   6.010   4.323   1.903  1.3457  1.3870 -0.5882
   14CHTO   N20 5558   6.001   4.369   1.706 -0.0193 -0.5433  0.7328
   14CHTO  H209 5559   5.944   4.446   1.755  1.0265  0.7489 -0.0666
   14CHTO  H210 5560   5.943   4.327   1.625  3.3203  0.1814 -2.1460
   14CHTO   O80 5561   5.778   4.169   1.801  0.5087 -0.5105  0.8349
   14CHTO  C103 5562   5.672   4.178   1.652 -0.6172 -0.4152  0.4295
   14CHTO  H190 5563   5.718   4.248   1.582 -0.7915  0.7273  1.4270
   14CHTO  C101 5564   5.642   4.039   1.588 -0.0118 -0.2822  0.4859
   14CHTO  H188 5565   5.606   3.966   1.660 -1.0772 -0.2844 -0.0423
   14CHTO   O68 5566   5.763   3.985   1.534  0.9360 -0.0424  0.9810
   14CHTO  H168 5567   5.792   3.904   1.569  0.8715 -0.5798 -0.1714
   14CHTO   C99 5568   5.527   4.056   1.480 -0.0487  0.3351 -0.3762
   14CHTO  H186 5569   5.568   4.113   1.393  3.0874 -0.6349  0.4073
   14CHTO   N17 5570   5.483   3.930   1.410  0.2573  0.4740  0.4322
   14CHTO  H174 5571   5.534   3.851   1.464 -0.8491 -0.4104  0.2055
   14CHTO  H175 5572   5.525   3.930   1.310 -1.9788 -0.3710 -0.5443
   14CHTO   C97 5573   5.404   4.142   1.528  0.2376 -1.0270  0.1802
   14CHTO  H184 5574   5.345   4.079   1.596  0.4778 -2.1002 -0.5821
   14CHTO   O64 5575   5.448   4.267   1.593 -0.2237 -0.3140 -0.3732
   14CHTO  C104 5576   5.537   4.250   1.700 -0.3717  0.3141  0.4129
   14CHTO  H191 5577   5.491   4.188   1.778 -1.7946 -0.9398 -1.3758
   14CHTO  C108 5578   5.572   4.390   1.764  0.2084 -0.1173  0.7818
   14CHTO   O71 5579   5.463   4.463   1.818 -0.1411  0.1073  0.0767
   14CHTO  H171 5580   5.481   4.553   1.837 -0.2313  0.4739 -1.4844
   14CHTO   O62 5581   5.322   4.192   1.418  0.2018 -0.0408  0.4951
   14CHTO   C91 5582   5.200   4.241   1.467 -0.6660 -0.8162 -0.5984
   14CHTO  H178 5583   5.178   4.207   1.568  0.5134  3.1387  1.0682
   14CHTO   C92 5584   5.095   4.182   1.371  0.8790 -0.2591  0.2520
   14CHTO  H179 5585   5.093   4.072   1.371 -0.7401 -0.2441 -1.1951
   14CHTO   O66 5586   4.971   4.206   1.439  0.0872 -0.6208  0.0681
   14CHTO  H166 5587   4.964   4.299   1.433 -1.2866 -0.8269 -1.8280
   14CHTO   C93 5588   5.092   4.246   1.225  0.2165 -0.2833 -0.4764
   14CHTO  H180 5589   4.994   4.231   1.177  0.3348 -2.6724 -0.0648
   14CHTO   N16 5590   5.186   4.173   1.133 -0.2302 -0.5358  0.1585
   14CHTO  H172 5591   5.131   4.144   1.045  0.4321  0.8108 -0.7083
   14CHTO  H173 5592   5.274   4.231   1.112 -0.9345  0.7255  0.6556
   14CHTO   C94 5593   5.118   4.403   1.243 -0.1225  0.2472  0.7150
   14CHTO  H181 5594   5.223   4.428   1.226 -0.1818  1.1776  1.6486
   14CHTO   O61 5595   5.084   4.452   1.372  0.4820 -0.1991  0.2782
   14CHTO   C95 5596   5.188   4.406   1.466 -0.4373  0.5410  0.1944
   14CHTO  H182 5597   5.286   4.445   1.441  0.8038 -2.5735 -0.0034
   14CHTO  C106 5598   5.145   4.457   1.608  0.1426 -0.0718 -0.0492
   14CHTO   O69 5599   5.161   4.597   1.616 -0.0461 -0.1321  0.7068
   14CHTO  H169 5600   5.242   4.631   1.583 -0.3204 -0.3730 -0.2332
   14CHTO   O63 5601   5.023   4.472   1.137  0.4684  0.2018 -0.6854
   14CHTO   C96 5602   5.040   4.648   1.132  0.7310  0.1297 -0.3429
   14CHTO  H183 5603   4.985   4.686   1.046 -2.0674 -2.9368 -0.0103
   14CHTO   C98 5604   5.187   4.693   1.114  0.2015 -0.0777 -0.3828
   14CHTO  H185 5605   5.246   4.631   1.183 -0.4276 -0.9753 -0.6500
   14CHTO   O67 5606   5.238   4.662   0.983  0.1193  0.4722 -0.0872
   14CHTO  H167 5607   5.233   4.569   0.979 -1.4310  0.5554 -0.9928
   14CHTO  C102 5608   5.221   4.851   1.141 -0.2101 -0.1181 -0.4949
   14CHTO  H189 5609   5.180   4.913   1.060  0.9652  0.8809 -0.3449
   14CHTO   N18 5610   5.366   4.881   1.148  0.5212  0.7163  0.0491
   14CHTO  H176 5611   5.399   4.872   1.046 -2.2320  0.8708 -0.9099
   14CHTO  H177 5612   5.417   4.823   1.223  0.9449 -1.3220 -1.7703
   14CHTO  C105 5613   5.151   4.895   1.274  0.2712 -0.0523  0.1114
   14CHTO  H192 5614   5.196   4.845   1.360  1.3643  2.6649  1.1631
   14CHTO   O65 5615   5.013   4.858   1.262 -0.5825 -0.5049 -0.0498
   14CHTO  C100 5616   4.979   4.722   1.262  0.7712  0.0446 -0.0212
   14CHTO  H187 5617   5.009   4.675   1.356 -1.4605 -0.7304  0.3237
   14CHTO  C107 5618   4.828   4.711   1.260  0.8746  0.3638  0.3900
   14CHTO   O70 5619   4.788   4.576   1.263 -0.3809 -0.4203 -0.1335
   14CHTO  H170 5620   4.865   4.527   1.242 -0.0355  0.1917 -0.3052
   14CHTO   O57 5621   5.158   5.062   1.282  0.7988 -0.0202  0.4738
   14CHTO   C85 5622   5.081   5.153   1.203 -0.1156 -0.2225  0.1629
   14CHTO  H157 5623   5.005   5.095   1.146  0.7296 -1.0002 -0.1922
   14CHTO   C83 5624   5.180   5.204   1.093 -0.0620 -0.0792 -0.6686
   14CHTO  H155 5625   5.195   5.118   1.027  0.7371  0.2042 -0.8644
   14CHTO   O56 5626   5.307   5.248   1.153 -0.3492 -0.3934  0.1902
   14CHTO  H135 5627   5.346   5.166   1.175 -1.2769 -1.0898 -0.6817
   14CHTO   C81 5628   5.113   5.321   1.008  0.1732  0.2246 -0.2203
   14CHTO  H153 5629   5.023   5.279   0.962  0.8051 -1.4690  0.0774
   14CHTO   N14 5630   5.196   5.366   0.889  0.8301  0.3555 -0.4986
   14CHTO  H141 5631   5.182   5.292   0.814  1.0102  0.2364 -0.4158
   14CHTO  H142 5632   5.160   5.459   0.850 -0.5370 -0.2394 -0.6751
   14CHTO   C79 5633   5.073   5.430   1.102  0.3058 -0.4836  0.5196
   14CHTO  H151 5634   5.007   5.498   1.047  0.1642  0.0786  1.3790
   14CHTO   O52 5635   4.972   5.379   1.193 -0.3737  0.0437 -0.2326
   14CHTO   C86 5636   5.018   5.276   1.281 -0.0470  0.8588 -0.3066
   14CHTO  H158 5637   5.087   5.328   1.350 -1.6041 -1.9883  3.5913
   14CHTO   C90 5638   4.901   5.220   1.366 -0.9190  0.5399  0.8081
   14CHTO   O60 5639   4.822   5.324   1.419  0.1062  0.0877 -0.5539
   14CHTO  H138 5640   4.870   5.403   1.436  0.5406 -0.0075 -1.3552
   14CHTO   O50 5641   5.178   5.510   1.155  0.1659 -0.2875  0.2126
   14CHTO   C73 5642   5.218   5.639   1.215 -0.4832 -0.2078 -0.0807
   14CHTO  H145 5643   5.132   5.686   1.265  0.4239  1.1153  0.2548
   14CHTO   C74 5644   5.255   5.733   1.098 -0.4829 -0.8479  0.2479
   14CHTO  H146 5645   5.177   5.731   1.020 -0.8270  1.1167  0.5085
   14CHTO   O54 5646   5.260   5.869   1.124  0.0496 -0.0956  0.2136
   14CHTO  H133 5647   5.206   5.888   1.199  2.4877  0.0813  1.9730
   14CHTO   C75 5648   5.392   5.674   1.041  0.0003 -0.0952 -0.5307
   14CHTO  H147 5649   5.378   5.572   1.001  0.9223 -0.2131 -0.5623
   14CHTO   N13 5650   5.447   5.735   0.917 -0.9719 -0.0436  0.0876
   14CHTO  H139 5651   5.531   5.672   0.893 -0.9511  0.5301 -1.4263
   14CHTO  H140 5652   5.470   5.839   0.934  3.7284 -1.2672  1.7389
   14CHTO   C76 5653   5.505   5.679   1.154  0.6412  0.2980  0.2480
   14CHTO  H148 5654   5.520   5.776   1.201 -1.4868  0.4623  0.6095
   14CHTO   O49 5655   5.454   5.592   1.256 -0.2045  0.3818 -0.6901
   14CHTO   C77 5656   5.326   5.626   1.321 -0.1054 -0.1167 -0.0884
   14CHTO  H149 5657   5.334   5.721   1.374  0.5689  0.0797 -0.5314
   14CHTO   C88 5658   5.296   5.525   1.431  0.3794 -0.0067  0.5305
   14CHTO   O58 5659   5.406   5.543   1.541  0.5849  0.5784  0.4442
   14CHTO  H136 5660   5.400   5.628   1.580 -1.1480  1.6929 -2.0742
   14CHTO   O51 5661   5.631   5.614   1.120  0.0820  0.0179  0.5941
   14CHTO   C78 5662   5.771   5.661   1.196  0.1692 -0.0137  0.0294
   14CHTO  H150 5663   5.739   5.728   1.278 -4.0606 -1.2125 -0.5215
   14CHTO   C80 5664   5.858   5.730   1.087 -0.4479 -0.3072 -0.1383
   14CHTO  H152 5665   5.864   5.662   1.000  0.8204 -1.1973  0.6310
   14CHTO   O55 5666   5.778   5.847   1.036 -0.0409 -0.2691 -0.7647
   14CHTO  H134 5667   5.811   5.873   0.952  0.1815 -1.2311 -0.9824
   14CHTO   C84 5668   6.000   5.771   1.144  0.0345  0.0390  0.5603
   14CHTO  H156 5669   6.000   5.840   1.228  2.1423  1.0841 -0.2554
   14CHTO   N15 5670   6.079   5.826   1.024  0.0476  0.8337 -0.1326
   14CHTO  H143 5671   6.121   5.750   0.962  2.3413  0.8510  1.3331
   14CHTO  H144 5672   6.154   5.900   1.044  0.7672  0.3742 -1.1254
   14CHTO   C87 5673   6.069   5.646   1.209  1.2031 -0.4230 -0.3130
   14CHTO  H159 5674   6.101   5.571   1.136  0.3468  1.7420 -3.0303
   14CHTO   O53 5675   5.966   5.584   1.321  0.2772 -0.0310 -0.7882
   14CHTO   C82 5676   5.851   5.541   1.251  0.0985 -0.4172 -0.4674
   14CHTO  H154 5677   5.883   5.483   1.165 -2.6591 -1.1531 -1.0648
   14CHTO   C89 5678   5.757   5.446   1.343 -0.6002 -0.0970 -0.0723
   14CHTO   O59 5679   5.675   5.360   1.264  0.6075  0.0005  0.1896
   14CHTO  H137 5680   5.740   5.299   1.237  2.1555  1.3352  0.8213
   14CHTO   O45 5681   6.213   5.672   1.277  0.0685 -0.2693 -0.1627
   14CHTO   C67 5682   6.310   5.566   1.278 -0.4325 -0.3283 -0.2197
   14CHTO  H124 5683   6.258   5.473   1.300 -2.1929  0.1539 -2.2279
   14CHTO   C65 5684   6.378   5.560   1.136  0.5725  0.2658 -0.0910
   14CHTO  H122 5685   6.294   5.567   1.067  0.0772  1.3263  0.5978
   14CHTO   O44 5686   6.456   5.442   1.116  0.8211 -0.3247  0.8050
   14CHTO  H102 5687   6.494   5.437   1.030  1.2161  0.5265  0.9248
   14CHTO   C63 5688   6.463   5.691   1.121 -0.3797  0.3614  0.3443
   14CHTO  H120 5689   6.400   5.779   1.133 -0.6728  0.1193  0.5674
   14CHTO   N11 5690   6.499   5.724   0.982  0.6311 -0.3622  0.1310
   14CHTO  H108 5691   6.576   5.657   0.948 -0.4737 -1.1750 -0.8101
   14CHTO  H109 5692   6.529   5.826   0.973  1.2397 -0.7525 -2.5718
   14CHTO   C61 5693   6.578   5.699   1.232 -0.0990 -0.2610 -0.0035
   14CHTO  H118 5694   6.611   5.803   1.221  2.9019 -0.9861  1.7300
   14CHTO   O40 5695   6.511   5.696   1.363 -0.2338  0.1852 -0.5603
   14CHTO   C68 5696   6.416   5.588   1.396  0.0049 -0.2917  0.3745
   14CHTO  H125 5697   6.358   5.612   1.487  1.4728 -0.3259  1.3419
   14CHTO   C72 5698   6.490   5.458   1.421 -0.8175  0.2118 -0.5491
   14CHTO   O48 5699   6.582   5.456   1.525  0.6175  0.3110  0.4119
   14CHTO  H105 5700   6.532   5.469   1.604 -0.5160 -1.4345  0.0064
   14CHTO   O38 5701   6.697   5.612   1.228 -0.1899 -0.1938  0.0412
   14CHTO   C55 5702   6.821   5.643   1.162  0.1872 -0.7103 -0.5043
   14CHTO  H112 5703   6.813   5.741   1.113 -0.4487  1.3024  3.3948
   14CHTO   C56 5704   6.873   5.527   1.059 -0.0447 -0.2248 -0.7644
   14CHTO  H113 5705   6.868   5.426   1.101  0.9287 -0.4635 -1.1900
   14CHTO   O42 5706   6.785   5.521   0.945  0.0481  0.5217  0.0102
   14CHTO  H100 5707   6.703   5.477   0.957 -0.2937  0.9772 -0.6350
   14CHTO   C57 5708   7.025   5.558   1.014  0.3085  0.4092  0.4968
   14CHTO  H114 5709   7.032   5.642   0.944  2.0308  1.2532  1.6443
   14CHTO   N10 5710   7.083   5.449   0.931 -0.1124 -0.5983  0.0352
   14CHTO  H106 5711   7.046   5.349   0.947  0.6567 -1.1150 -1.3235
   14CHTO  H107 5712   7.095   5.471   0.826  0.4250  1.2246  0.4691
   14CHTO   C58 5713   7.115   5.597   1.132  0.1909 -0.1889 -0.7856
   14CHTO  H115 5714   7.144   5.510   1.195 -0.7435  1.0656  1.4512
   14CHTO   O37 5715   7.048   5.700   1.200 -0.0368 -0.4301 -0.0196
   14CHTO   C59 5716   6.926   5.668   1.271 -0.3320  0.5220 -0.0363
   14CHTO  H116 5717   6.944   5.568   1.312 -1.0965  0.1952 -0.4766
   14CHTO   C70 5718   6.878   5.768   1.366  0.2515  0.1718  0.3107
   14CHTO   O46 5719   6.968   5.823   1.460 -0.2421 -0.2332 -0.1226
   14CHTO  H103 5720   6.923   5.900   1.490  2.9242  0.6871  2.5185
   14CHTO   O39 5721   7.247   5.675   1.070 -0.5693 -0.1445 -0.0229
   14CHTO   C60 5722   7.356   5.665   1.162  0.0539 -0.0135 -0.4006
   14CHTO  H117 5723   7.318   5.671   1.264  1.0990  0.3280 -0.0227
   14CHTO   C62 5724   7.423   5.526   1.147  0.3319  0.9450  0.7102
   14CHTO  H119 5725   7.353   5.445   1.179  1.5497 -1.2306 -1.8688
   14CHTO   O43 5726   7.447   5.495   1.009  0.0683  0.3519 -0.2937
   14CHTO  H101 5727   7.439   5.401   1.003 -3.8533  0.4877  1.1911
   14CHTO   C66 5728   7.556   5.523   1.240 -0.1345 -0.3842  0.4752
   14CHTO  H123 5729   7.527   5.536   1.344 -1.3789 -1.6683  0.3082
   14CHTO   N12 5730   7.624   5.390   1.243 -0.0383  0.8632 -1.1984
   14CHTO  H110 5731   7.613   5.335   1.335  0.2932 -0.4807 -1.9493
   14CHTO  H111 5732   7.582   5.327   1.166  1.8549  0.8256 -2.2371
   14CHTO   C69 5733   7.646   5.647   1.210 -0.0161  0.0845 -0.8344
   14CHTO  H126 5734   7.690   5.640   1.108 -0.2536 -1.2122 -0.8587
   14CHTO   O41 5735   7.573   5.780   1.216  0.2508  0.2892 -0.7595
   14CHTO   C64 5736   7.452   5.784   1.139  0.2814  0.4272  0.2518
   14CHTO  H121 5737   7.477   5.765   1.033  4.8807 -5.7160  2.1585
   14CHTO   C71 5738   7.377   5.909   1.155  0.2864 -0.6590 -0.5646
   14CHTO   O47 5739   7.424   6.029   1.101  0.1845 -0.5560 -0.2751
   14CHTO  H104 5740   7.442   6.099   1.160 -1.9758  0.0014 -0.2364
   14CHTO   O34 5741   7.769   5.666   1.319 -0.4813  0.2912  0.1636
   14CHTO   C49 5742   7.915   5.745   1.276  0.1265  0.6463  0.4623
   14CHTO   H91 5743   7.971   5.674   1.215 -0.6994  1.8948 -1.7839
   14CHTO   C47 5744   7.988   5.753   1.411 -0.0025 -0.4036  0.0093
   14CHTO   H89 5745   8.090   5.789   1.384 -0.1859  1.3565  1.5455
   14CHTO   O33 5746   8.000   5.624   1.463 -0.5993  0.4213 -0.0532
   14CHTO   H70 5747   8.052   5.573   1.404 -0.4638  1.9203 -1.2389
   14CHTO   C45 5748   7.914   5.862   1.506 -0.2331  0.6510  0.6072
   14CHTO   H87 5749   7.847   5.799   1.567  2.6052 -1.1119  2.0308
   14CHTO    N8 5750   8.005   5.929   1.598 -0.2587  0.0327  0.8326
   14CHTO   H75 5751   8.063   6.009   1.554  0.2611 -0.7830  0.0031
   14CHTO   H76 5752   7.964   5.957   1.694 -1.1587 -0.6274  0.6408
   14CHTO   C43 5753   7.813   5.958   1.420 -0.7106 -0.5860  0.1467
   14CHTO   H85 5754   7.724   5.900   1.396 -1.5863  1.4678 -1.6495
   14CHTO   O29 5755   7.884   6.003   1.300 -0.0221  0.3405 -0.2785
   14CHTO   C50 5756   7.909   5.895   1.211 -0.5949 -0.2536  0.0070
   14CHTO   H92 5757   7.831   5.889   1.134  0.8124 -3.0229 -1.2979
   14CHTO   C54 5758   8.042   5.924   1.139 -0.0433 -0.1465 -0.1557
   14CHTO   O36 5759   8.083   5.834   1.035  0.1262  0.5398 -0.2049
   14CHTO   H72 5760   8.171   5.803   1.046 -0.3312 -0.3808  1.0163
   14CHTO   O27 5761   7.778   6.074   1.502  0.5720 -0.9265  0.8477
   14CHTO   C37 5762   7.665   6.120   1.587  0.0110 -0.0966  0.6376
   14CHTO   H79 5763   7.698   6.154   1.686  0.5051  1.0911  0.0767
   14CHTO   C38 5764   7.589   6.242   1.529  0.0584 -0.5838  1.1949
   14CHTO   H80 5765   7.537   6.211   1.437 -0.7946 -1.1936  1.8649
   14CHTO   O31 5766   7.684   6.351   1.501  0.2313 -0.4189  0.3208
   14CHTO   H68 5767   7.707   6.373   1.589 -1.0915 -1.6484  0.9980
   14CHTO   C39 5768   7.477   6.285   1.632  0.5037 -0.0015 -0.0748
   14CHTO   H81 5769   7.522   6.318   1.726 -0.6284  1.5498 -0.0595
   14CHTO    N7 5770   7.398   6.403   1.579  0.7231  0.1127 -0.5660
   14CHTO   H73 5771   7.331   6.380   1.498 -2.7346  0.3397  2.1045
   14CHTO   H74 5772   7.343   6.465   1.648  0.9234  1.2017 -1.3751
   14CHTO   C40 5773   7.385   6.159   1.664 -0.3423  0.2599 -0.0280
   14CHTO   H82 5774   7.320   6.135   1.580  1.7853  0.3165 -1.7183
   14CHTO   O26 5775   7.459   6.049   1.708  0.0645 -0.1358  0.4268
   14CHTO   C41 5776   7.553   6.007   1.606 -0.5953 -0.3576  0.1533
   14CHTO   H83 5777   7.499   5.984   1.513 -0.1019 -0.4491 -0.1144
   14CHTO   C52 5778   7.603   5.869   1.658 -0.3959  0.2696 -0.4339
   14CHTO   O35 5779   7.641   5.885   1.823 -0.6363  0.1977  0.0869
   14CHTO   H71 5780   7.664   5.973   1.845 -0.9818  0.4000 -0.3602
   14CHTO   O28 5781   7.288   6.173   1.768  0.0288 -0.6104  0.0023
   14CHTO   C42 5782   7.175   6.099   1.806 -0.1735 -0.3569 -0.7830
   14CHTO   H84 5783   7.172   6.121   1.913 -0.8023  1.6948 -1.2133
   14CHTO   C44 5784   7.166   5.947   1.784  1.3970 -0.7482 -0.2266
   14CHTO   H86 5785   7.171   5.929   1.677  2.3738 -2.7059  0.1167
   14CHTO   O32 5786   7.276   5.898   1.871 -0.3808 -0.1484 -0.5343
   14CHTO   H69 5787   7.352   5.901   1.817 -0.3848 -0.3725 -0.5548
   14CHTO   C48 5788   7.031   5.893   1.828  0.4147  0.3053  0.1608
   14CHTO   H90 5789   7.035   5.910   1.935  1.0886 -3.0703  0.7355
   14CHTO    N9 5790   7.020   5.745   1.817  0.9561 -0.0349 -0.3449
   14CHTO   H77 5791   6.915   5.718   1.814  0.6855  0.9290  0.1391
   14CHTO   H78 5792   7.077   5.708   1.734  1.4722 -1.0284  0.4337
   14CHTO   C51 5793   6.909   5.965   1.759 -0.1628  0.5031  0.4804
   14CHTO   H93 5794   6.932   5.940   1.655  0.6503  1.8400  0.3350
   14CHTO   O30 5795   6.916   6.104   1.778 -0.6453 -0.0356 -0.4239
   14CHTO   C46 5796   7.050   6.167   1.744 -0.0699 -0.6229  0.2278
   14CHTO   H88 5797   7.061   6.172   1.636 -0.1716 -1.3591  0.1820
   14CHTO   C53 5798   7.029   6.314   1.789  0.0595  0.1057  0.6661
   14CHTO   O72 5799   6.924   6.373   1.706 -0.4321  0.5732 -0.2763
   14CHTO  H199 5800   6.845   6.329   1.733 -0.1067 -1.1046 -1.9761
   14CHTO   O22 5801   6.776   5.931   1.813  0.2265 -0.0966  0.2329
   14CHTO   C31 5802   6.669   5.879   1.725  0.5758  0.4885 -0.7620
   14CHTO   H59 5803   6.718   5.823   1.643  0.1430  0.2575 -0.8667
   14CHTO   C29 5804   6.573   5.779   1.797 -0.2328  0.5332 -0.2879
   14CHTO   H57 5805   6.538   5.838   1.883  0.9051  0.9024 -0.0661
   14CHTO   O21 5806   6.644   5.663   1.855 -0.3889  0.1692  0.1287
   14CHTO   H37 5807   6.652   5.681   1.947  3.1130 -1.5602  0.2416
   14CHTO   C27 5808   6.443   5.731   1.714  0.4627  0.0548  0.2671
   14CHTO   H55 5809   6.470   5.668   1.628 -1.9213  0.0591 -0.5295
   14CHTO    N5 5810   6.351   5.656   1.802 -0.4962 -0.3145  0.8976
   14CHTO   H43 5811   6.370   5.550   1.814  0.7022 -0.1476  0.5829
   14CHTO   H44 5812   6.358   5.691   1.904  0.1497 -1.3279  1.2127
   14CHTO   C25 5813   6.373   5.864   1.652  0.0714 -0.0185 -1.1697
   14CHTO   H53 5814   6.338   5.924   1.738 -0.9906 -0.3609 -1.3599
   14CHTO   O17 5815   6.484   5.936   1.579 -0.2132  0.1351 -0.9297
   14CHTO   C32 5816   6.585   5.994   1.652 -0.1625  0.4588 -0.8421
   14CHTO   H60 5817   6.549   6.063   1.729  0.6992  1.1232 -1.0284
   14CHTO   C36 5818   6.667   6.090   1.559  0.3244 -0.0723 -0.3848
   14CHTO   O25 5819   6.583   6.191   1.523  0.8517  0.0702  0.1595
   14CHTO   H40 5820   6.632   6.270   1.533  2.3892 -0.8315 -0.0009
   14CHTO   O15 5821   6.253   5.827   1.564 -0.0678  0.4079 -0.2173
   14CHTO   C19 5822   6.125   5.874   1.511 -0.5886 -0.2571 -0.0010
   14CHTO   H47 5823   6.114   5.824   1.413 -1.7567  0.8111 -0.4264
   14CHTO   C20 5824   5.999   5.842   1.594 -0.0857 -0.4657 -0.6407
   14CHTO   H48 5825   6.008   5.868   1.701 -2.8167 -0.2597 -0.4312
   14CHTO   O19 5826   5.985   5.700   1.589 -0.3005 -0.7027 -0.5247
   14CHTO   H35 5827   6.007   5.673   1.502  1.9714 -2.1043  0.4586
   14CHTO   C21 5828   5.860   5.905   1.544  0.0285 -0.0861 -0.0850
   14CHTO   H49 5829   5.831   5.857   1.450  1.1146 -1.5992  0.3300
   14CHTO    N4 5830   5.740   5.880   1.635 -0.4697  0.0295 -0.1379
   14CHTO   H41 5831   5.662   5.946   1.601  1.3975  1.6424 -1.4252
   14CHTO   H42 5832   5.706   5.777   1.639 -2.1878  0.4761 -2.1348
   14CHTO   C22 5833   5.887   6.050   1.505  0.2289  0.1290  0.5173
   14CHTO   H50 5834   5.902   6.111   1.594 -0.8543 -0.4670  1.1139
   14CHTO   O14 5835   6.001   6.059   1.419 -0.2821 -0.2230  0.3441
   14CHTO   C23 5836   6.121   6.022   1.481 -0.1017 -0.4880  0.2142
   14CHTO   H51 5837   6.129   6.085   1.571 -3.2994  0.0192  0.1838
   14CHTO   C34 5838   6.227   6.059   1.375  0.3142  0.0865  0.2712
   14CHTO   O23 5839   6.239   6.202   1.376  0.2468 -0.4324  0.3610
   14CHTO   H38 5840   6.331   6.219   1.388 -0.1193  1.3915  0.7241
   14CHTO   O16 5841   5.787   6.107   1.422  0.5043 -0.3470 -0.0195
   14CHTO   C24 5842   5.768   6.286   1.420  0.1008  0.5096  0.1437
   14CHTO   H52 5843   5.719   6.315   1.327  2.0283 -0.2076 -1.1416
   14CHTO   C26 5844   5.890   6.369   1.456 -0.2673 -0.3999 -0.2200
   14CHTO   H54 5845   5.941   6.324   1.544  0.5291  0.0020 -0.4692
   14CHTO   O20 5846   5.982   6.355   1.351 -0.0350  0.4134  0.7644
   14CHTO   H36 5847   6.024   6.272   1.361 -0.3216  0.2978  1.0055
   14CHTO   C30 5848   5.855   6.520   1.476  0.1452  0.6704 -0.3420
   14CHTO   H58 5849   5.829   6.568   1.381  1.3541  1.2855 -0.3728
   14CHTO    N6 5850   5.972   6.607   1.513 -0.1565 -0.5073 -0.4759
   14CHTO   H45 5851   5.987   6.603   1.620  0.5914 -2.0409 -0.6276
   14CHTO   H46 5852   6.060   6.571   1.463  0.0042  0.1995 -0.7026
   14CHTO   C33 5853   5.731   6.533   1.578  1.2586  0.4398  0.1063
   14CHTO   H61 5854   5.763   6.493   1.676  0.8357  2.4748  1.0990
   14CHTO   O18 5855   5.633   6.440   1.533  0.2093  0.0996 -0.1573
   14CHTO   C28 5856   5.665   6.303   1.525 -0.6990 -0.3321 -0.4714
   14CHTO   H56 5857   5.700   6.262   1.619  0.6309 -1.9374 -1.6373
   14CHTO   C35 5858   5.529   6.236   1.486  0.4564 -0.6983  0.0328
   14CHTO   O24 5859   5.417   6.261   1.564  0.0503 -0.6021  0.4142
   14CHTO   H39 5860   5.436   6.293   1.650 -1.3112 -0.3016  0.6191
   14CHTO    O9 5861   5.673   6.660   1.600  0.2070 -0.0274  0.2298
   14CHTO   C13 5862   5.580   6.669   1.743  0.2911  0.1986 -0.9597
   14CHTO   H26 5863   5.592   6.571   1.795 -1.6008  0.2391 -0.3893
   14CHTO   C11 5864   5.429   6.694   1.694  0.4399  0.2238  0.3991
   14CHTO   H24 5865   5.386   6.597   1.667 -0.5073  0.4383  1.0985
   14CHTO    O8 5866   5.404   6.794   1.591 -0.3275  0.4719  0.2880
   14CHTO    H3 5867   5.326   6.844   1.605 -1.1538 -0.9730  0.8927
   14CHTO    C9 5868   5.365   6.744   1.824 -0.4284  0.4124 -0.7546
   14CHTO   H22 5869   5.399   6.680   1.906 -0.3284  1.1308 -0.2230
   14CHTO    N2 5870   5.214   6.722   1.836  0.0601  0.8611  0.6686
   14CHTO   H10 5871   5.165   6.806   1.789 -0.0583 -0.0350 -0.8337
   14CHTO   H11 5872   5.165   6.690   1.926 -1.1512  2.3306  0.5502
   14CHTO    C7 5873   5.422   6.888   1.861 -0.1189  0.5173 -0.8781
   14CHTO   H20 5874   5.398   6.900   1.969  1.9451 -0.1954 -0.3177
   14CHTO    O4 5875   5.563   6.902   1.844  0.3838  0.5771 -0.0400
   14CHTO   C14 5876   5.635   6.781   1.848  0.0530  0.0120 -0.6596
   14CHTO   H27 5877   5.638   6.730   1.947 -2.2619  0.2234 -0.4418
   14CHTO   C18 5878   5.784   6.816   1.808  0.0350 -0.0051  0.3422
   14CHTO   O13 5879   5.832   6.919   1.887  0.3758 -0.7256  0.0182
   14CHTO    H7 5880   5.908   6.956   1.845 -1.3320  1.2800 -1.4244
   14CHTO    O2 5881   5.338   7.007   1.782 -0.0903 -0.0972  0.1288
   14CHTO    C1 5882   5.363   7.146   1.830 -0.5010 -0.6648  0.7548
   14CHTO   H14 5883   5.335   7.216   1.749  1.2469  0.2408  0.9247
   14CHTO    C2 5884   5.512   7.193   1.870  0.6481  0.4757 -0.0778
   14CHTO   H15 5885   5.539   7.126   1.953  0.8196 -0.5730 -0.9717
   14CHTO    O6 5886   5.611   7.173   1.766 -0.0838  0.5130 -0.2825
   14CHTO    H1 5887   5.623   7.084   1.741  1.5008  0.6465 -0.0124
   14CHTO    C3 5888   5.504   7.356   1.908  0.3343 -1.0413  0.1019
   14CHTO   H16 5889   5.468   7.408   1.818 -2.0544  2.8797  3.1669
   14CHTO    N1 5890   5.641   7.408   1.940  0.6744  0.2621 -0.2292
   14CHTO    H8 5891   5.675   7.373   2.037  0.1510 -1.4161 -0.6313
   14CHTO    H9 5892   5.718   7.380   1.869 -0.2591 -1.7167 -0.4792
   14CHTO    C4 5893   5.391   7.384   2.013  0.4662  0.3281 -0.3959
   14CHTO   H17 5894   5.430   7.369   2.114 -0.9609  0.6008  0.2076
   14CHTO    O1 5895   5.265   7.313   1.980 -0.0401  0.1961  0.0953
   14CHTO    C5 5896   5.271   7.173   1.952  0.2861 -0.9676 -0.1464
   14CHTO   H18 5897   5.318   7.126   2.039  0.2711  0.1415  0.4740
   14CHTO   C16 5898   5.127   7.138   1.935 -0.3048 -0.2534 -0.5090
   14CHTO   O11 5899   5.048   7.147   2.053  0.1755  0.5387  0.5275
   14CHTO    H5 5900   4.964   7.178   2.024  0.6573  1.6764  0.3025
   14CHTO    O3 5901   5.337   7.520   2.008 -0.1858  0.1499 -0.3958
   14CHTO    C6 5902   5.330   7.588   2.139  0.7310 -0.1801 -0.2288
   14CHTO   H19 5903   5.356   7.525   2.224  3.8809 -2.8274 -3.0090
   14CHTO    C8 5904   5.430   7.717   2.135 -1.4205 -0.4607  0.4746
   14CHTO   H21 5905   5.411   7.775   2.045 -2.2755 -0.7669  0.4511
   14CHTO    O7 5906   5.563   7.668   2.131  0.0108  0.0918  0.4130
   14CHTO    H2 5907   5.584   7.614   2.205  1.0144 -0.7580 -0.4543
   14CHTO   C12 5908   5.420   7.806   2.272  0.2017  0.6769 -0.8174
   14CHTO   H25 5909   5.464   7.743   2.352 -2.2711 -0.5907 -0.4106
   14CHTO    N3 5910   5.490   7.939   2.264 -0.6713  0.0468 -0.1198
   14CHTO   H12 5911   5.420   8.012   2.302 -0.1752  0.7137 -0.4839
   14CHTO   H13 5912   5.580   7.939   2.324 -1.7617 -1.1672  1.5635
   14CHTO   C15 5913   5.267   7.821   2.307  1.2616  0.5247 -0.6302
   14CHTO   H28 5914   5.218   7.902   2.252  1.4575  1.1845  0.1497
   14CHTO   O10 5915   5.247   7.864   2.462 -0.1353 -0.3413  0.3565
   14CHTO    H4 5916   5.299   7.937   2.490  0.2579 -0.8484  0.9398
   14CHTO    O5 5917   5.187   7.703   2.293  0.4411  0.0141  0.4251
   14CHTO   C10 5918   5.186   7.638   2.164 -0.0856 -0.1549  0.4908
   14CHTO   H23 5919   5.158   7.715   2.093 -1.2301 -0.4592  0.6011
   14CHTO   C17 5920   5.080   7.527   2.179  0.1691 -0.5859  0.1535
   14CHTO   O12 5921   4.960   7.572   2.247  0.0350 -0.3271  0.0910
   14CHTO    H6 5922   4.891   7.510   2.233 -0.9094  0.3072  1.7735
   15CHTO  H203 5923   7.818   4.689   1.832  0.0757  1.9177 -3.4994
   15CHTO   O82 5924   7.730   4.719   1.840 -0.4546 -0.0769 -0.5796
   15CHTO  C123 5925   7.662   4.626   1.759  0.7218 -0.6331 -0.1949
   15CHTO  H227 5926   7.664   4.525   1.803 -0.6470 -1.2357 -1.4638
   15CHTO   O77 5927   7.522   4.679   1.774 -0.0878  0.1088  0.1627
   15CHTO  C118 5928   7.422   4.615   1.698  0.7003 -0.0845 -0.7769
   15CHTO  H222 5929   7.426   4.507   1.718 -0.3396 -0.2403 -1.3883
   15CHTO  C125 5930   7.285   4.670   1.760 -0.7133 -0.2598  0.4387
   15CHTO   O84 5931   7.245   4.598   1.877  0.3051 -0.9745  0.3438
   15CHTO  H205 5932   7.158   4.570   1.854  0.8489 -2.9074  0.5402
   15CHTO  C114 5933   7.449   4.642   1.549  0.4603 -0.1506 -0.5325
   15CHTO  H218 5934   7.454   4.750   1.533  0.5760  0.2448  2.0385
   15CHTO  C116 5935   7.591   4.588   1.508 -0.3271 -0.2421 -0.4000
   15CHTO  H220 5936   7.589   4.478   1.495 -0.3929 -0.3664  0.5903
   15CHTO   O79 5937   7.625   4.639   1.377  0.5025  0.3481 -0.7117
   15CHTO  H201 5938   7.664   4.573   1.323  0.2476 -1.4975  1.2474
   15CHTO  C120 5939   7.713   4.622   1.609  0.4858  0.2949 -0.4017
   15CHTO  H224 5940   7.752   4.718   1.571  1.7095  0.6620  1.7370
   15CHTO   N21 5941   7.839   4.543   1.594  0.3586  0.1528  0.3362
   15CHTO  H211 5942   7.915   4.603   1.643  0.4260  0.5506 -0.2420
   15CHTO  H212 5943   7.836   4.443   1.635  0.2268  0.5310  1.2568
   15CHTO   O75 5944   7.339   4.596   1.474  0.3726 -0.1150 -0.1141
   15CHTO  C112 5945   7.322   4.443   1.455 -0.3221 -0.1979  0.1600
   15CHTO  H216 5946   7.349   4.385   1.544  2.1741 -2.1061 -1.7712
   15CHTO   O73 5947   7.405   4.403   1.346 -0.4553 -0.5065 -0.4144
   15CHTO  C113 5948   7.402   4.266   1.311  0.0106  0.5214 -0.1117
   15CHTO  H217 5949   7.448   4.212   1.396  0.0755  1.9258  0.7624
   15CHTO  C124 5950   7.516   4.231   1.215 -0.1797  0.5792  0.5536
   15CHTO   O83 5951   7.463   4.265   1.084 -0.2014  0.1314  0.3238
   15CHTO  H204 5952   7.375   4.236   1.075  0.0485 -0.4675 -0.1959
   15CHTO  C109 5953   7.254   4.220   1.271  0.1907 -0.2827 -0.0455
   15CHTO  H213 5954   7.235   4.262   1.171  0.4513  0.3612  0.1663
   15CHTO  C110 5955   7.142   4.270   1.378  0.0319 -0.1393 -0.3103
   15CHTO  H214 5956   7.142   4.199   1.461  0.3618  0.3741  0.1311
   15CHTO   O78 5957   7.012   4.245   1.325 -0.4423  0.0352 -0.4955
   15CHTO  H200 5958   7.020   4.178   1.260 -1.2236 -1.7596  1.1887
   15CHTO  C111 5959   7.166   4.414   1.420  0.0418 -0.2306 -0.0858
   15CHTO  H215 5960   7.139   4.476   1.334 -1.9964  0.9262  1.3223
   15CHTO   N19 5961   7.072   4.455   1.529  0.1852 -0.5945 -0.1128
   15CHTO  H207 5962   7.071   4.396   1.620 -0.6287  2.3025  1.8285
   15CHTO  H208 5963   7.089   4.558   1.555  2.6120 -1.6117  2.5689
   15CHTO   O74 5964   7.262   4.076   1.267 -0.1312 -0.2675  0.4781
   15CHTO  C115 5965   7.181   4.006   1.146  0.2098  0.2768  0.3789
   15CHTO  H219 5966   7.105   4.071   1.103 -0.2266  0.1254  0.9168
   15CHTO   O76 5967   7.283   3.971   1.019  0.1900 -0.6930  0.4015
   15CHTO  C122 5968   7.381   3.874   1.063 -0.4543  0.5433 -0.7947
   15CHTO  H226 5969   7.445   3.925   1.134  1.7686 -1.1369 -1.5268
   15CHTO  C126 5970   7.471   3.835   0.941 -0.0020 -0.5581 -0.1086
   15CHTO   O85 5971   7.560   3.938   0.895  0.3906 -0.0386  0.6588
   15CHTO  H206 5972   7.627   3.957   0.958 -0.8004 -1.1533  2.3149
   15CHTO  C121 5973   7.321   3.747   1.137  0.0928 -0.3513  0.6105
   15CHTO  H225 5974   7.358   3.656   1.085 -0.7593 -1.7398  2.3666
   15CHTO   O81 5975   7.378   3.734   1.269 -0.1259 -0.0485  0.2185
   15CHTO  H202 5976   7.471   3.728   1.262 -0.0193 -0.4304  1.6694
   15CHTO  C119 5977   7.167   3.742   1.144 -0.3071  0.2451 -0.0186
   15CHTO  H223 5978   7.140   3.737   1.038  0.1186 -0.2767 -0.1024
   15CHTO  C117 5979   7.113   3.879   1.200 -0.1715 -0.3702  0.5750
   15CHTO  H221 5980   7.124   3.888   1.308 -0.8821  1.1321  0.5266
   15CHTO   N20 5981   6.969   3.871   1.187  0.0094  0.1611 -0.4980
   15CHTO  H209 5982   6.932   3.775   1.221 -1.3351  0.3483 -1.3880
   15CHTO  H210 5983   6.940   3.901   1.087 -1.3778 -1.2549 -0.5490
   15CHTO   O80 5984   7.111   3.599   1.205  0.1681 -0.2130  0.4654
   15CHTO  C103 5985   7.047   3.491   1.111  0.4234 -0.6113 -0.5123
   15CHTO  H190 5986   6.993   3.417   1.170 -0.6875 -0.5583 -1.4605
   15CHTO  C101 5987   6.959   3.540   1.001  0.8231  0.3176 -0.0170
   15CHTO  H188 5988   7.017   3.605   0.937  1.2290 -0.7093 -0.7092
   15CHTO   O68 5989   6.833   3.619   1.075 -0.1362  0.4895 -0.1534
   15CHTO  H168 5990   6.862   3.700   1.112  0.1952 -0.4129  1.6023
   15CHTO   C99 5991   6.903   3.426   0.905  0.0381  0.1991 -0.3848
   15CHTO  H186 5992   6.856   3.347   0.968 -1.0789 -1.0743 -2.7522
   15CHTO   N17 5993   6.805   3.479   0.805  0.0232 -0.2638 -0.2415
   15CHTO  H174 5994   6.839   3.556   0.737 -2.2680 -0.2234 -1.3734
   15CHTO  H175 5995   6.757   3.397   0.752  0.8197 -0.0923 -1.2508
   15CHTO   C97 5996   7.024   3.359   0.843 -0.1542 -0.0936 -0.0859
   15CHTO  H184 5997   7.075   3.419   0.766  1.7530  1.0695  2.0233
   15CHTO   O64 5998   7.118   3.316   0.942  0.3475  0.2470 -0.8214
   15CHTO  C104 5999   7.160   3.415   1.040  0.1345  0.7461  0.2394
   15CHTO  H191 6000   7.229   3.486   0.994  0.5223 -0.1422 -0.5610
   15CHTO  C108 6001   7.243   3.332   1.142  0.1063 -0.2723  0.0479
   15CHTO   O71 6002   7.364   3.293   1.078 -0.3090 -0.9378  0.2682
   15CHTO  H171 6003   7.356   3.203   1.052  1.7675 -0.7234 -1.1766
   15CHTO   O62 6004   6.981   3.232   0.793 -0.5928  0.1608 -0.3431
   15CHTO   C91 6005   7.067   3.161   0.700  0.8877  0.1323  0.4733
   15CHTO  H178 6006   7.157   3.220   0.680  0.2988  1.1896  0.9083
   15CHTO   C92 6007   7.010   3.155   0.551  0.2996 -0.0351 -0.5316
   15CHTO  H179 6008   6.986   3.259   0.524  1.3956 -0.0555 -1.6192
   15CHTO   O66 6009   7.111   3.111   0.462 -0.1409 -0.1238  0.2463
   15CHTO  H166 6010   7.163   3.040   0.494  0.4821  0.1668 -0.1266
   15CHTO   C93 6011   6.884   3.058   0.545  0.4543 -0.0995  0.2637
   15CHTO  H180 6012   6.883   3.027   0.439  1.5247  1.0124 -0.0888
   15CHTO   N16 6013   6.754   3.115   0.581  0.1423  0.2923 -0.6826
   15CHTO  H172 6014   6.690   3.137   0.496 -1.3373  1.2210  0.6563
   15CHTO  H173 6015   6.765   3.198   0.648  0.1272 -0.7385  0.6056
   15CHTO   C94 6016   6.911   2.932   0.628  0.3364 -0.9573  0.6468
   15CHTO  H181 6017   6.848   2.923   0.717 -1.0321 -2.8535 -0.4574
   15CHTO   O61 6018   7.051   2.916   0.667  0.2340 -0.2672  0.5992
   15CHTO   C95 6019   7.107   3.016   0.749  0.0962  0.0901 -0.2485
   15CHTO  H182 6020   7.074   2.999   0.851 -0.7941 -0.6456 -0.6462
   15CHTO  C106 6021   7.267   3.006   0.758  0.9200  0.6828 -0.2555
   15CHTO   O69 6022   7.312   3.068   0.876  0.0742 -0.1544  0.1780
   15CHTO  H169 6023   7.350   3.153   0.868  1.3242 -0.5857  1.3774
   15CHTO   O63 6024   6.880   2.812   0.536 -0.2148 -0.1842 -0.1928
   15CHTO   C96 6025   6.843   2.677   0.632  0.3917 -0.7377  0.3347
   15CHTO  H183 6026   6.858   2.709   0.735  1.8419 -2.9902  0.8574
   15CHTO   C98 6027   6.929   2.557   0.589 -0.2279 -0.0632 -0.1759
   15CHTO  H185 6028   6.930   2.552   0.479  0.1686  0.0132 -0.1766
   15CHTO   O67 6029   7.063   2.591   0.629 -0.2125  0.1867 -0.2673
   15CHTO  H167 6030   7.116   2.517   0.606 -0.6588 -0.2766  0.1782
   15CHTO  C102 6031   6.878   2.414   0.643  0.1393  0.4631 -0.3351
   15CHTO  H189 6032   6.889   2.413   0.753  0.7888  1.8177 -0.3772
   15CHTO   N18 6033   6.946   2.292   0.590  0.2817 -0.2087  0.0838
   15CHTO  H176 6034   6.884   2.211   0.555  1.2785 -1.0100  0.1338
   15CHTO  H177 6035   7.022   2.260   0.661 -2.5387 -1.9085  2.4450
   15CHTO  C105 6036   6.728   2.415   0.614 -0.5290  0.0589 -0.1022
   15CHTO  H192 6037   6.710   2.432   0.508 -1.4444 -0.5154 -0.0428
   15CHTO   O65 6038   6.668   2.525   0.686 -0.0126  0.1843  0.0972
   15CHTO  C100 6039   6.693   2.652   0.629 -0.0834  0.1052 -0.2045
   15CHTO  H187 6040   6.655   2.649   0.526 -1.5663  2.1318  0.2619
   15CHTO  C107 6041   6.603   2.755   0.700 -0.0225  0.0117  0.2037
   15CHTO   O70 6042   6.467   2.748   0.680  0.5712  0.1806 -0.2009
   15CHTO  H170 6043   6.428   2.832   0.668 -0.1169  0.0811  1.2653
   15CHTO   O57 6044   6.652   2.272   0.661 -0.3073 -0.1803  0.1233
   15CHTO   C85 6045   6.634   2.244   0.804  0.6175 -0.0517 -0.1798
   15CHTO  H157 6046   6.655   2.346   0.843  1.7228  0.2853 -1.6268
   15CHTO   C83 6047   6.734   2.142   0.864 -0.0818  0.4722 -0.6463
   15CHTO  H155 6048   6.835   2.181   0.859  1.4466 -2.9405  2.1681
   15CHTO   O56 6049   6.732   2.027   0.782  0.6390 -0.3676  0.2758
   15CHTO  H135 6050   6.787   1.954   0.802 -0.7598 -1.9699 -1.4967
   15CHTO   C81 6051   6.698   2.120   1.010  0.4519  0.1138  0.5176
   15CHTO  H153 6052   6.700   2.212   1.068 -1.7421  0.0780  0.6870
   15CHTO   N14 6053   6.808   2.043   1.070  0.7182  0.9583  0.2864
   15CHTO  H141 6054   6.900   2.089   1.040  1.4747 -0.9837 -0.4070
   15CHTO  H142 6055   6.805   2.035   1.177 -0.6436  0.8651  0.2459
   15CHTO   C79 6056   6.551   2.055   1.018 -0.0052 -0.0637 -0.2677
   15CHTO  H151 6057   6.532   2.050   1.125  1.8526 -0.9742  0.0357
   15CHTO   O52 6058   6.460   2.154   0.970 -0.3962  0.2211  0.5226
   15CHTO   C86 6059   6.481   2.197   0.834 -0.3415 -0.3196 -0.0224
   15CHTO  H158 6060   6.445   2.110   0.775  1.1762 -0.9005 -0.1126
   15CHTO   C90 6061   6.378   2.307   0.825  0.0828  0.2927 -0.1475
   15CHTO   O60 6062   6.367   2.377   0.702 -0.1419  0.2467  0.6644
   15CHTO  H138 6063   6.286   2.421   0.688 -1.6624 -2.6446 -0.0264
   15CHTO   O50 6064   6.540   1.922   0.962 -0.0240 -1.1375  0.8374
   15CHTO   C73 6065   6.438   1.825   0.986  0.2033 -0.7568 -0.1900
   15CHTO  H145 6066   6.342   1.871   0.957 -0.0132 -0.2182  1.3194
   15CHTO   C74 6067   6.420   1.788   1.133 -0.0516 -0.6198  0.2514
   15CHTO  H146 6068   6.391   1.882   1.181  1.0143  0.3576 -0.9876
   15CHTO   O54 6069   6.308   1.702   1.149  0.0793  0.3005 -0.2984
   15CHTO  H133 6070   6.334   1.620   1.111  2.8444 -0.3863  2.8046
   15CHTO   C75 6071   6.549   1.731   1.199 -0.1568  0.5433  0.3942
   15CHTO  H147 6072   6.629   1.802   1.175 -1.4554  1.1124 -2.3862
   15CHTO   N13 6073   6.545   1.690   1.341 -0.1476  0.2594  0.4120
   15CHTO  H139 6074   6.453   1.641   1.369 -0.0202  0.8787  1.9378
   15CHTO  H140 6075   6.612   1.607   1.359 -0.9505 -0.4321  0.2226
   15CHTO   C76 6076   6.589   1.606   1.102  0.0096 -0.3871  0.3881
   15CHTO  H148 6077   6.543   1.512   1.133  0.7121 -1.8349 -2.6880
   15CHTO   O49 6078   6.576   1.625   0.955  0.5860 -0.8131  0.4343
   15CHTO   C77 6079   6.456   1.697   0.909  0.2085 -0.0602 -0.1442
   15CHTO  H149 6080   6.368   1.635   0.924 -0.4744  1.2362  1.4280
   15CHTO   C88 6081   6.478   1.720   0.763 -0.3662  0.4127 -0.6267
   15CHTO   O58 6082   6.358   1.785   0.681  0.2425 -0.2052 -0.7631
   15CHTO  H136 6083   6.278   1.737   0.690 -2.1026  3.9194  1.8077
   15CHTO   O51 6084   6.740   1.585   1.128  0.4558  0.1981 -0.5519
   15CHTO   C78 6085   6.815   1.480   1.051 -0.1048  0.0506  0.3792
   15CHTO  H150 6086   6.769   1.467   0.951  2.0026  1.6857 -0.8490
   15CHTO   C80 6087   6.816   1.346   1.128 -0.2274 -0.2873 -1.4840
   15CHTO  H152 6088   6.845   1.367   1.233 -3.3784  0.9881 -0.8414
   15CHTO   O55 6089   6.685   1.288   1.136 -0.4913  0.1384 -0.4337
   15CHTO  H134 6090   6.680   1.220   1.072 -0.4310  0.1239 -0.4232
   15CHTO   C84 6091   6.921   1.244   1.056 -0.4442  0.4549  0.3644
   15CHTO  H156 6092   6.880   1.205   0.963 -3.4374  3.2111  0.4122
   15CHTO   N15 6093   6.947   1.125   1.150 -0.5093  0.5891  0.1981
   15CHTO  H143 6094   6.992   1.144   1.245 -1.0644  0.1307  0.5627
   15CHTO  H144 6095   6.854   1.074   1.165  0.7792 -2.1312 -0.7236
   15CHTO   C87 6096   7.051   1.329   1.026  0.0215  0.2959  0.1986
   15CHTO  H159 6097   7.105   1.352   1.118 -0.5006  3.1286 -0.1431
   15CHTO   O53 6098   7.028   1.446   0.952 -0.1860 -0.2059  0.5167
   15CHTO   C82 6099   6.953   1.537   1.033 -0.4385  0.4521  0.3641
   15CHTO  H154 6100   7.005   1.548   1.128 -0.2249  2.2886  0.0616
   15CHTO   C89 6101   6.959   1.684   0.962 -0.4788 -0.6560  0.2237
   15CHTO   O59 6102   6.919   1.683   0.830  0.9101  0.1854  0.0097
   15CHTO  H137 6103   6.987   1.657   0.771 -0.2795  1.0479 -1.8383
   15CHTO   O45 6104   7.144   1.223   0.932 -0.1361  0.5204 -0.2883
   15CHTO   C67 6105   7.282   1.256   0.952 -0.4084  0.7315 -0.7912
   15CHTO  H124 6106   7.299   1.363   0.961  0.5075  0.4065  1.9727
   15CHTO   C65 6107   7.342   1.183   1.079 -0.1317  0.1977  0.2703
   15CHTO  H122 6108   7.267   1.109   1.109 -0.4430  0.0665 -0.8237
   15CHTO   O44 6109   7.336   1.273   1.189  0.0542 -0.3100 -0.2413
   15CHTO  H102 6110   7.391   1.345   1.167 -0.2809 -0.6966 -2.3980
   15CHTO   C63 6111   7.485   1.124   1.047  0.3872  1.0535  0.4968
   15CHTO  H120 6112   7.472   1.041   0.977  1.1269  0.3899  1.1251
   15CHTO   N11 6113   7.566   1.068   1.157  0.4941  0.0686  0.3978
   15CHTO  H108 6114   7.664   1.110   1.161 -0.4549  2.4564 -0.6825
   15CHTO  H109 6115   7.566   0.961   1.158 -0.4177  0.0614 -0.2801
   15CHTO   C61 6116   7.562   1.228   0.957 -0.1071  0.6037 -0.4723
   15CHTO  H118 6117   7.657   1.181   0.926 -0.4769 -0.1076 -0.5151
   15CHTO   O40 6118   7.496   1.260   0.834  0.4111 -0.2057  1.1353
   15CHTO   C68 6119   7.361   1.215   0.818 -0.2615 -0.5753 -0.1680
   15CHTO  H125 6120   7.349   1.106   0.801  0.1077 -0.4286 -1.4160
   15CHTO   C72 6121   7.294   1.282   0.701 -0.7051 -0.1775  0.6753
   15CHTO   O48 6122   7.382   1.272   0.592  0.0199 -0.0462 -0.0714
   15CHTO  H105 6123   7.411   1.358   0.571  2.4331  0.3831  4.3369
   15CHTO   O38 6124   7.589   1.355   1.025 -0.5526  0.0953 -0.3681
   15CHTO   C55 6125   7.662   1.453   0.946 -0.0189 -0.7919  0.2686
   15CHTO  H112 6126   7.636   1.443   0.840  1.5692 -2.2997  0.0135
   15CHTO   C56 6127   7.811   1.430   0.972  0.3823  0.1909 -0.3368
   15CHTO  H113 6128   7.830   1.415   1.079 -2.6213 -2.8383 -0.1554
   15CHTO   O42 6129   7.846   1.313   0.896 -0.3007 -0.3047 -0.0456
   15CHTO  H100 6130   7.835   1.232   0.943  0.1888 -2.2342 -3.1237
   15CHTO   C57 6131   7.893   1.548   0.906  0.2385 -0.9777  0.5877
   15CHTO  H114 6132   7.887   1.557   0.798  0.5929 -0.0728  0.6362
   15CHTO   N10 6133   8.035   1.539   0.939 -0.5834  0.1885 -0.2507
   15CHTO  H106 6134   8.095   1.629   0.947  2.0802 -1.6973  2.2321
   15CHTO  H107 6135   8.089   1.464   0.884  0.8428  0.0701  1.2519
   15CHTO   C58 6136   7.837   1.682   0.966 -0.3293  0.1364 -0.8272
   15CHTO  H115 6137   7.845   1.679   1.076  0.3737 -1.3579 -0.9089
   15CHTO   O37 6138   7.698   1.701   0.930 -0.9307  0.2062 -0.6645
   15CHTO   C59 6139   7.615   1.602   0.983  0.5266  0.4888  0.3233
   15CHTO  H116 6140   7.609   1.612   1.091  0.2094  0.5317  0.3008
   15CHTO   C70 6141   7.473   1.606   0.929  0.2244  0.1408  0.0425
   15CHTO   O46 6142   7.461   1.610   0.786  0.6683  0.3663 -0.1018
   15CHTO  H103 6143   7.482   1.522   0.759 -0.3994  0.0006  0.2272
   15CHTO   O39 6144   7.921   1.805   0.913 -0.4158  0.1633  0.1741
   15CHTO   C60 6145   7.887   1.870   0.791 -1.0073  0.0321 -0.0515
   15CHTO  H117 6146   7.847   1.796   0.722  0.8730 -1.5214  0.4872
   15CHTO   C62 6147   7.777   1.982   0.823  0.8842  0.1076  0.3993
   15CHTO  H119 6148   7.695   1.942   0.886  1.8550 -2.7639 -0.0846
   15CHTO   O43 6149   7.846   2.074   0.905  0.1167  0.0279  0.3308
   15CHTO  H101 6150   7.861   2.048   0.994  0.0220  2.3477  1.0695
   15CHTO   C66 6151   7.722   2.030   0.683 -0.6362 -0.1498  0.8621
   15CHTO  H123 6152   7.682   1.940   0.636  1.7071 -2.5162  3.1772
   15CHTO   N12 6153   7.608   2.126   0.694 -0.2283  0.6719  0.8048
   15CHTO  H110 6154   7.523   2.099   0.754 -0.7906 -1.4730 -0.9180
   15CHTO  H111 6155   7.576   2.134   0.591  0.6974  0.2291  0.4753
   15CHTO   C69 6156   7.836   2.085   0.592  0.1016  0.0683  0.1878
   15CHTO  H126 6157   7.865   2.181   0.639 -0.2885  0.5963 -0.6334
   15CHTO   O41 6158   7.962   1.998   0.581 -0.3902  0.3039  0.0302
   15CHTO   C64 6159   8.014   1.937   0.718 -0.2133 -0.2082  0.5063
   15CHTO  H121 6160   8.070   2.004   0.786  0.4905 -1.7324  1.4559
   15CHTO   C71 6161   8.111   1.817   0.677  0.0882  0.0043 -0.2099
   15CHTO   O47 6162   8.052   1.721   0.586 -0.2122 -0.5274 -0.3542
   15CHTO  H104 6163   8.007   1.771   0.521  1.0281  1.7981  0.5240
   15CHTO   O34 6164   7.794   2.123   0.450 -0.3051 -0.1081 -0.7604
   15CHTO   C49 6165   7.737   2.192   0.325  0.9526 -0.0758 -1.0712
   15CHTO   H91 6166   7.750   2.120   0.244 -0.7715 -2.0853  0.4131
   15CHTO   C47 6167   7.827   2.314   0.288  1.1491  0.8073  0.2145
   15CHTO   H89 6168   7.775   2.336   0.192  0.2753 -0.6574  0.3387
   15CHTO   O33 6169   7.969   2.279   0.263  0.3030 -0.0198 -0.3010
   15CHTO   H70 6170   7.990   2.216   0.329 -2.1682  0.5654  1.1483
   15CHTO   C45 6171   7.808   2.424   0.397 -1.0178  0.3321  0.2475
   15CHTO   H87 6172   7.846   2.373   0.487 -0.2882 -0.8059 -0.6832
   15CHTO    N8 6173   7.894   2.542   0.371  0.4757 -0.4851  0.2931
   15CHTO   H75 6174   7.912   2.547   0.264  1.7976  0.1889  0.5392
   15CHTO   H76 6175   7.994   2.529   0.407  0.1670  0.9333  1.7067
   15CHTO   C43 6176   7.651   2.462   0.418 -1.3438  0.1171  0.1625
   15CHTO   H85 6177   7.646   2.525   0.507 -1.3184 -2.9559  2.4498
   15CHTO   O29 6178   7.565   2.347   0.429 -0.1976  0.7386  0.7011
   15CHTO   C50 6179   7.589   2.229   0.347  0.5870  0.0009  0.7231
   15CHTO   H92 6180   7.539   2.147   0.402 -1.0313  1.3536  1.3054
   15CHTO   C54 6181   7.509   2.230   0.223  0.4842  0.0842  0.5346
   15CHTO   O36 6182   7.522   2.105   0.140  0.5976 -0.1392  0.5830
   15CHTO   H72 6183   7.484   2.122   0.057 -0.8189 -0.4076  1.1638
   15CHTO   O27 6184   7.605   2.544   0.312  0.1762 -0.0753 -0.2876
   15CHTO   C37 6185   7.504   2.621   0.245  0.1941 -0.5810  1.1928
   15CHTO   H79 6186   7.444   2.561   0.175 -0.9422  0.6036  1.1312
   15CHTO   C38 6187   7.398   2.681   0.334 -0.4294 -0.8111 -0.0673
   15CHTO   H80 6188   7.450   2.740   0.411 -2.0246 -0.3399  0.6718
   15CHTO   O31 6189   7.333   2.570   0.405 -0.5941 -0.1736 -0.0517
   15CHTO   H68 6190   7.285   2.519   0.343 -1.1967 -1.8171  1.7383
   15CHTO   C39 6191   7.292   2.768   0.261  0.3894 -0.2469 -0.2191
   15CHTO   H81 6192   7.241   2.703   0.189 -1.6869  0.7788  0.2924
   15CHTO    N7 6193   7.182   2.829   0.344 -0.1202 -0.6288 -0.7609
   15CHTO   H73 6194   7.145   2.751   0.408 -0.2782 -1.9463 -2.4196
   15CHTO   H74 6195   7.207   2.911   0.410 -1.6295 -2.7360  2.5697
   15CHTO   C40 6196   7.347   2.873   0.167 -0.4458 -0.0044  0.6918
   15CHTO   H82 6197   7.382   2.963   0.217  2.2982  0.0235 -1.1644
   15CHTO   O26 6198   7.460   2.810   0.099  0.2551 -0.6239 -0.5045
   15CHTO   C41 6199   7.565   2.743   0.170  1.2021  0.1107  0.6912
   15CHTO   H83 6200   7.610   2.808   0.247 -0.0270 -1.6967  2.9881
   15CHTO   C52 6201   7.672   2.704   0.059 -0.2329 -0.2524 -0.6346
   15CHTO   O35 6202   7.738   2.820  -0.004 -0.1811 -0.8349 -0.3267
   15CHTO   H71 6203   7.684   2.854  -0.073 -2.3278 -0.0782  1.6753
   15CHTO   O28 6204   7.261   2.897   0.056  0.4669  0.3795  0.1269
   15CHTO   C42 6205   7.272   3.009  -0.041 -0.0500  0.3970 -0.0026
   15CHTO   H84 6206   7.226   2.974  -0.133 -1.1101  1.5110  0.0948
   15CHTO   C44 6207   7.422   3.047  -0.084  0.4368 -0.9431 -0.5927
   15CHTO   H86 6208   7.473   3.064   0.011 -1.6976 -0.0915  0.4449
   15CHTO   O32 6209   7.500   2.935  -0.137 -0.5049  0.5403  0.0076
   15CHTO   H69 6210   7.495   2.855  -0.089  0.1972 -0.7543 -2.0201
   15CHTO   C48 6211   7.429   3.175  -0.177 -0.2428  0.0547  0.3015
   15CHTO   H90 6212   7.389   3.146  -0.274 -1.1690 -0.5632  0.8612
   15CHTO    N9 6213   7.564   3.221  -0.218  0.1068  0.0272 -0.0482
   15CHTO   H77 6214   7.574   3.215  -0.325  1.6346  0.4328  0.0510
   15CHTO   H78 6215   7.588   3.324  -0.193 -0.9214  0.2200  0.1532
   15CHTO   C51 6216   7.338   3.291  -0.119 -0.1345  0.1577  0.7390
   15CHTO   H93 6217   7.378   3.332  -0.026  0.0440 -0.1456  0.7951
   15CHTO   O30 6218   7.203   3.242  -0.102  0.3983  0.3195 -1.0308
   15CHTO   C46 6219   7.190   3.140   0.002  0.5717  0.2728 -0.1279
   15CHTO   H88 6220   7.230   3.184   0.093  1.6096 -1.0936  0.0938
   15CHTO   C53 6221   7.038   3.110   0.010 -0.0865  0.4577  0.2954
   15CHTO   O72 6222   6.996   3.037   0.122 -0.2684  0.2913  0.3207
   15CHTO  H199 6223   6.966   2.953   0.093  0.1317  0.5693 -0.9542
   15CHTO   O22 6224   7.320   3.397  -0.211  0.0604  0.6825 -0.0720
   15CHTO   C31 6225   7.267   3.527  -0.168  0.2926 -0.0320  0.6976
   15CHTO   H59 6226   7.264   3.587  -0.261 -2.3271  0.1324  0.8418
   15CHTO   C29 6227   7.125   3.519  -0.118  0.5502  0.1263  0.2275
   15CHTO   H57 6228   7.142   3.460  -0.026  0.9610 -0.6380 -0.3342
   15CHTO   O21 6229   7.037   3.446  -0.205  0.5171  0.5467  0.5358
   15CHTO   H37 6230   7.002   3.491  -0.280 -0.4249  0.3003  0.8309
   15CHTO   C27 6231   7.066   3.661  -0.073  0.1370  0.1529  0.3173
   15CHTO   H55 6232   7.051   3.719  -0.166  0.6830 -0.9734 -0.4904
   15CHTO    N5 6233   6.941   3.659  -0.001 -0.5504  0.0302  0.1619
   15CHTO   H43 6234   6.876   3.605  -0.068 -0.2730 -1.0604  0.7495
   15CHTO   H44 6235   6.922   3.762   0.026  2.6320  0.4461  1.0377
   15CHTO   C25 6236   7.168   3.740   0.017 -0.2728  0.1542  0.9729
   15CHTO   H53 6237   7.167   3.685   0.112  0.0094 -1.6437 -0.0403
   15CHTO   O17 6238   7.302   3.739  -0.050  0.1807  0.7149  0.3789
   15CHTO   C32 6239   7.353   3.605  -0.068  0.2686 -0.3015 -0.1722
   15CHTO   H60 6240   7.353   3.555   0.029 -2.4589 -1.2917 -0.6274
   15CHTO   C36 6241   7.500   3.621  -0.116  0.6939 -0.7925 -0.6474
   15CHTO   O25 6242   7.578   3.707  -0.025  0.3464 -0.0580  0.4018
   15CHTO   H40 6243   7.669   3.689  -0.032  0.4574  0.4523  0.5277
   15CHTO   O15 6244   7.127   3.894   0.062  0.1674  0.0790  0.2193
   15CHTO   C19 6245   7.196   3.999   0.144  0.3996 -0.2112  0.1314
   15CHTO   H47 6246   7.282   4.028   0.081 -1.1886 -1.8577 -2.9159
   15CHTO   C20 6247   7.103   4.121   0.166  0.4397 -1.5117  0.3142
   15CHTO   H48 6248   7.007   4.094   0.212 -0.0684 -0.7512 -0.2968
   15CHTO   O19 6249   7.077   4.165   0.034  0.2926 -0.1173  0.5574
   15CHTO   H35 6250   7.002   4.220   0.022  1.3998  1.5876  1.1581
   15CHTO   C21 6251   7.168   4.234   0.258  0.0937 -0.7039 -0.0967
   15CHTO   H49 6252   7.249   4.282   0.202  0.8387  2.3651  3.4131
   15CHTO    N4 6253   7.075   4.345   0.296  0.5527 -0.2446 -0.6845
   15CHTO   H41 6254   7.111   4.416   0.370  0.9262  0.2401 -1.3285
   15CHTO   H42 6255   6.976   4.316   0.329  0.7576  1.4762  1.5773
   15CHTO   C22 6256   7.249   4.178   0.380  0.8419 -0.5099  0.7944
   15CHTO   H50 6257   7.178   4.159   0.460 -0.7527  1.5984 -0.0531
   15CHTO   O14 6258   7.333   4.068   0.338 -0.1871  0.2469  0.4074
   15CHTO   C23 6259   7.260   3.961   0.277  0.8265 -0.0098  0.7938
   15CHTO   H51 6260   7.181   3.940   0.350 -0.7709  2.8550 -0.0330
   15CHTO   C34 6261   7.358   3.842   0.253 -0.1234 -0.2751  0.8698
   15CHTO   O23 6262   7.476   3.892   0.204 -0.3148 -0.2906  0.1797
   15CHTO   H38 6263   7.542   3.825   0.196  1.1143  0.9743  1.0418
   15CHTO   O16 6264   7.346   4.274   0.425  0.1795  0.4370 -0.0910
   15CHTO   C24 6265   7.371   4.262   0.579  0.4423 -0.1876 -0.9444
   15CHTO   H52 6266   7.318   4.180   0.626 -1.6548  1.1697 -0.8853
   15CHTO   C26 6267   7.330   4.396   0.632  0.4542  0.6217  0.0431
   15CHTO   H54 6268   7.372   4.476   0.567  3.9801 -0.1828  1.1710
   15CHTO   O20 6269   7.188   4.412   0.615  0.9605  0.5535 -0.3601
   15CHTO   H36 6270   7.158   4.473   0.549 -2.5545 -0.6221  0.0511
   15CHTO   C30 6271   7.385   4.417   0.779 -0.3203 -0.3375 -0.3460
   15CHTO   H58 6272   7.346   4.333   0.837 -1.6811  0.4121 -0.1460
   15CHTO    N6 6273   7.329   4.538   0.845  0.0916 -0.8372 -0.2266
   15CHTO   H45 6274   7.329   4.510   0.949  1.7098  0.2667  0.0916
   15CHTO   H46 6275   7.228   4.544   0.808  0.1614  0.5230 -0.2379
   15CHTO   C33 6276   7.542   4.408   0.777  0.0988 -0.3533  0.1494
   15CHTO   H61 6277   7.584   4.481   0.707 -0.2265 -0.1375  0.1778
   15CHTO   O18 6278   7.575   4.275   0.730 -1.1825 -0.0196  0.8278
   15CHTO   C28 6279   7.528   4.245   0.596  0.2739  0.0276 -0.6613
   15CHTO   H56 6280   7.584   4.310   0.528 -0.4607  2.0600  0.6456
   15CHTO   C35 6281   7.571   4.101   0.563 -0.9280 -0.1994  0.2900
   15CHTO   O24 6282   7.493   4.005   0.638  0.5651  0.1884 -0.9944
   15CHTO   H39 6283   7.520   4.007   0.728  3.4560  0.3614 -1.8451
   15CHTO    O9 6284   7.600   4.435   0.905  0.2377  0.0880  0.0809
   15CHTO   C13 6285   7.770   4.505   0.898  0.1769 -0.4688 -0.2828
   15CHTO   H26 6286   7.762   4.603   0.846  2.2178 -0.3711 -0.4262
   15CHTO   C11 6287   7.860   4.403   0.817 -0.1522 -0.0080  0.5775
   15CHTO   H24 6288   7.823   4.396   0.713 -0.1417  2.5958  0.3594
   15CHTO    O8 6289   7.837   4.271   0.869 -0.2359  0.1011  0.0299
   15CHTO    H3 6290   7.751   4.246   0.897  0.0905 -4.7913 -2.7194
   15CHTO    C9 6291   8.001   4.463   0.805  0.1378 -0.4192  0.0985
   15CHTO   H22 6292   7.982   4.560   0.756 -0.7004  0.2243  1.6671
   15CHTO    N2 6293   8.072   4.381   0.708 -0.3447 -0.1909 -0.3743
   15CHTO   H10 6294   8.051   4.428   0.613 -0.6081  0.5270  0.0371
   15CHTO   H11 6295   8.179   4.394   0.719 -0.3550  2.9207 -3.2515
   15CHTO    C7 6296   8.070   4.489   0.939 -0.3084  0.2531 -0.6095
   15CHTO   H20 6297   8.160   4.547   0.910  0.1405  1.1234  2.3280
   15CHTO    O4 6298   7.984   4.560   1.035 -0.1946 -0.1508  0.3983
   15CHTO   C14 6299   7.838   4.531   1.041  0.1443  0.1306  0.6177
   15CHTO   H27 6300   7.789   4.625   1.074  2.5948  1.1389  1.5006
   15CHTO   C18 6301   7.808   4.419   1.142 -0.2565  0.2993  0.1273
   15CHTO   O13 6302   7.860   4.444   1.279 -0.2748  0.6581 -0.9441
   15CHTO    H7 6303   7.841   4.532   1.305 -1.2500  0.5311 -1.1889
   15CHTO    O2 6304   8.122   4.339   1.021 -0.4249 -0.1042 -0.0086
   15CHTO    C1 6305   8.208   4.350   1.134 -0.0100  0.4779 -0.0965
   15CHTO   H14 6306   8.156   4.408   1.214 -2.0926 -0.6911 -0.5736
   15CHTO    C2 6307   8.345   4.425   1.108 -0.3301 -0.7509  0.3914
   15CHTO   H15 6308   8.384   4.398   1.009 -0.2809 -0.1396  0.2389
   15CHTO    O6 6309   8.313   4.566   1.102  0.0836 -0.3813 -0.0611
   15CHTO    H1 6310   8.269   4.579   1.184  0.3037 -0.5401  0.0809
   15CHTO    C3 6311   8.452   4.403   1.217 -0.3296  0.3348  0.9135
   15CHTO   H16 6312   8.419   4.443   1.314 -0.7923  1.0070  0.4866
   15CHTO    N1 6313   8.587   4.476   1.203  0.3945  0.6004 -0.0625
   15CHTO    H8 6314   8.634   4.493   1.299 -0.8259 -0.8793  0.8256
   15CHTO    H9 6315   8.655   4.426   1.136 -0.8971  1.2901 -1.9203
   15CHTO    C4 6316   8.469   4.247   1.236  0.3990 -0.1516 -0.2238
   15CHTO   H17 6317   8.494   4.205   1.139  1.2024 -1.2753  0.4594
   15CHTO    O1 6318   8.336   4.208   1.286  0.0615  0.1121  0.1786
   15CHTO    C5 6319   8.238   4.210   1.176 -0.4481  0.5576 -0.7518
   15CHTO   H18 6320   8.263   4.159   1.083 -2.6397 -2.0427  0.0069
   15CHTO   C16 6321   8.114   4.141   1.233  0.1961 -0.5806  0.5997
   15CHTO   O11 6322   8.140   3.996   1.245  0.0733 -0.5574  0.1676
   15CHTO    H5 6323   8.196   3.972   1.316 -0.3060 -1.4805  0.1663
   15CHTO    O3 6324   8.569   4.214   1.341 -0.2914 -0.0628  0.1249
   15CHTO    C6 6325   8.597   4.069   1.353  0.0636  0.2361 -0.0951
   15CHTO   H19 6326   8.516   4.005   1.319  0.6428  0.3038 -1.6304
   15CHTO    C8 6327   8.724   4.034   1.264 -0.0215 -0.4787 -0.5443
   15CHTO   H21 6328   8.800   4.110   1.281 -0.6665 -0.1478  0.8996
   15CHTO    O7 6329   8.679   4.045   1.127  0.1694  0.3179 -0.8424
   15CHTO    H2 6330   8.677   4.130   1.087  2.7116  0.3403 -1.0147
   15CHTO   C12 6331   8.771   3.884   1.308  0.5312  0.0958 -0.2627
   15CHTO   H25 6332   8.698   3.806   1.276  1.8448 -0.3952 -2.1646
   15CHTO    N3 6333   8.899   3.850   1.227  0.4872  0.2984  1.1616
   15CHTO   H12 6334   8.869   3.788   1.143  1.8934  1.7842 -0.4788
   15CHTO   H13 6335   8.952   3.939   1.197  0.2775  1.0170  2.8793
   15CHTO   C15 6336   8.781   3.886   1.470  0.7844  0.1337  0.3940
   15CHTO   H28 6337   8.847   3.965   1.506 -0.8149  0.3269  3.0660
   15CHTO   O10 6338   8.825   3.765   1.527  0.0502 -0.1396  0.1033
   15CHTO    H4 6339   8.823   3.705   1.455  1.1391  1.0773 -0.9607
   15CHTO    O5 6340   8.644   3.908   1.523  0.1623 -0.2657  0.4768
   15CHTO   C10 6341   8.608   4.046   1.506 -0.0651  0.4155 -0.0067
   15CHTO   H23 6342   8.679   4.108   1.561 -0.7995 -1.3410  3.0217
   15CHTO   C17 6343   8.473   4.070   1.583 -0.0250 -0.3555  0.4452
   15CHTO   O12 6344   8.458   4.198   1.657  0.4694 -0.1818 -0.3199
   15CHTO    H6 6345   8.520   4.267   1.644 -1.2293  1.0494 -2.2171
   16CHTO  H203 6346   6.010   4.397   0.482  0.5869  1.3176  3.4010
   16CHTO   O82 6347   6.058   4.316   0.477 -0.0567  1.0347  0.4997
   16CHTO  C123 6348   6.191   4.341   0.439  0.9281 -0.2970  0.0062
   16CHTO  H227 6349   6.206   4.448   0.418 -0.4736 -0.2318 -0.6946
   16CHTO   O77 6350   6.271   4.314   0.565 -0.2789  0.0821  0.4595
   16CHTO  C118 6351   6.410   4.343   0.556 -0.3062  0.5778 -0.2164
   16CHTO  H222 6352   6.431   4.438   0.505 -1.1402  1.4151  0.9889
   16CHTO  C125 6353   6.481   4.353   0.690 -0.1282  0.4519  0.4233
   16CHTO   O84 6354   6.441   4.461   0.769  0.1362  0.2520 -0.6787
   16CHTO  H205 6355   6.503   4.511   0.819 -2.5807  1.3515  1.7092
   16CHTO  C114 6356   6.464   4.236   0.459 -0.2052 -0.8206  0.1603
   16CHTO  H218 6357   6.442   4.136   0.496  0.7275 -1.1906 -0.2907
   16CHTO  C116 6358   6.391   4.239   0.317 -0.2579 -0.2381 -0.1252
   16CHTO  H220 6359   6.421   4.331   0.263 -1.9867  0.6882  0.4458
   16CHTO   O79 6360   6.432   4.121   0.245 -0.5939  0.3755  0.1373
   16CHTO  H201 6361   6.442   4.153   0.158  0.5207 -0.8718 -0.2000
   16CHTO  C120 6362   6.237   4.242   0.330 -0.0039  1.1975  0.7283
   16CHTO  H224 6363   6.213   4.138   0.360  0.1593  0.5961 -1.1254
   16CHTO   N21 6364   6.182   4.273   0.198 -0.7880  0.0038 -0.5856
   16CHTO  H211 6365   6.086   4.227   0.183 -1.4929  1.8041 -1.7729
   16CHTO  H212 6366   6.182   4.379   0.175 -0.0690  0.3041  0.7750
   16CHTO   O75 6367   6.607   4.263   0.449 -0.1983  0.5552 -0.2296
   16CHTO  C112 6368   6.714   4.131   0.427 -0.6190  0.1975 -0.3758
   16CHTO  H216 6369   6.780   4.154   0.342 -0.9674 -1.3724 -1.0993
   16CHTO   O73 6370   6.637   4.012   0.401 -0.3072 -0.3378 -0.8421
   16CHTO  C113 6371   6.720   3.903   0.351 -0.6367 -0.0124 -0.6885
   16CHTO  H217 6372   6.759   3.935   0.252 -0.2963  0.9581 -0.2526
   16CHTO  C124 6373   6.620   3.792   0.321  0.5834  0.5484  0.1436
   16CHTO   O83 6374   6.536   3.821   0.214  0.5796  0.2577 -0.0675
   16CHTO  H204 6375   6.545   3.908   0.181 -0.9342  0.9115  1.1697
   16CHTO  C109 6376   6.829   3.868   0.456  0.2217  0.0398  0.1216
   16CHTO  H213 6377   6.775   3.825   0.541  0.3461  3.3322  1.9026
   16CHTO  C110 6378   6.906   3.990   0.515 -0.3560  0.1057  0.2223
   16CHTO  H214 6379   6.981   4.017   0.441 -0.1720  0.0234  0.3793
   16CHTO   O78 6380   6.981   3.947   0.633 -0.1577 -0.1666  0.2635
   16CHTO  H200 6381   7.065   3.988   0.637  0.1354 -0.7609  0.1573
   16CHTO  C111 6382   6.807   4.107   0.551  0.5317 -0.7715 -0.3767
   16CHTO  H215 6383   6.748   4.074   0.638  0.6716 -1.0950 -0.4016
   16CHTO   N19 6384   6.874   4.231   0.595 -0.8112  0.1715  0.3711
   16CHTO  H207 6385   6.980   4.214   0.600 -0.9986 -1.7041 -1.3250
   16CHTO  H208 6386   6.846   4.255   0.697  1.9860  3.0996  0.5105
   16CHTO   O74 6387   6.927   3.780   0.404 -0.4328 -0.2610  0.5040
   16CHTO  C115 6388   6.966   3.665   0.503  0.5666  0.1620 -0.3803
   16CHTO  H219 6389   6.929   3.689   0.603  1.4495  3.0335 -0.6834
   16CHTO   O76 6390   6.898   3.519   0.463 -0.3864  0.1375  0.4698
   16CHTO  C122 6391   6.943   3.475   0.337 -0.3643  0.0813 -0.0898
   16CHTO  H226 6392   6.935   3.551   0.259  2.4768  0.3305 -0.1987
   16CHTO  C126 6393   6.854   3.355   0.293 -0.4787 -0.2597 -0.4977
   16CHTO   O85 6394   6.719   3.389   0.297  0.1597 -0.2548  0.2623
   16CHTO  H206 6395   6.671   3.314   0.326 -2.9700  1.5151 -0.0472
   16CHTO  C121 6396   7.103   3.437   0.357  0.2562 -0.1364 -0.1854
   16CHTO  H225 6397   7.119   3.328   0.376 -0.8202  0.0410  1.8377
   16CHTO   O81 6398   7.170   3.474   0.237 -0.0348  0.2856  0.0500
   16CHTO  H202 6399   7.187   3.567   0.236  0.4478  0.1971 -0.5047
   16CHTO  C119 6400   7.167   3.507   0.479 -0.5462  0.4581  0.1408
   16CHTO  H223 6401   7.132   3.452   0.566 -2.3384 -0.6626 -1.2386
   16CHTO  C117 6402   7.121   3.658   0.498 -0.7042  0.5907  0.0102
   16CHTO  H221 6403   7.154   3.723   0.417  0.6240  0.5950  0.5552
   16CHTO   N20 6404   7.184   3.712   0.626  0.0116  0.2559 -0.7991
   16CHTO  H209 6405   7.289   3.687   0.627  0.1905  0.9225 -2.4097
   16CHTO  H210 6406   7.161   3.817   0.620  4.1413  1.1283 -3.3181
   16CHTO   O80 6407   7.341   3.473   0.481 -0.2906 -0.1936  0.3542
   16CHTO  C103 6408   7.396   3.334   0.497  0.5008 -0.3846  0.8555
   16CHTO  H190 6409   7.322   3.256   0.514 -0.1254 -0.1080 -0.5069
   16CHTO  C101 6410   7.492   3.280   0.369  0.4782 -0.2600 -0.0930
   16CHTO  H188 6411   7.569   3.355   0.355  1.4060 -1.2746 -0.5118
   16CHTO   O68 6412   7.406   3.286   0.228  0.3187  0.3982  0.0373
   16CHTO  H168 6413   7.320   3.248   0.225  0.8730 -1.0695  1.8092
   16CHTO   C99 6414   7.553   3.134   0.403  0.0566  0.8316  0.0473
   16CHTO  H186 6415   7.467   3.066   0.419 -0.0988  1.3616  1.4682
   16CHTO   N17 6416   7.639   3.067   0.299 -0.1786  0.5608 -0.1431
   16CHTO  H174 6417   7.653   2.962   0.320 -2.2187  0.4757  0.9653
   16CHTO  H175 6418   7.619   3.098   0.198  0.2046  0.1437 -0.3492
   16CHTO   C97 6419   7.621   3.138   0.543  0.5812 -0.3970  0.0467
   16CHTO  H184 6420   7.723   3.179   0.529  0.5765 -0.5649 -0.4759
   16CHTO   O64 6421   7.544   3.217   0.645 -0.0417 -0.0394 -0.8447
   16CHTO  C104 6422   7.490   3.348   0.626  0.1369 -0.5355 -0.7067
   16CHTO  H191 6423   7.565   3.423   0.600 -1.4845  2.1472  1.9094
   16CHTO  C108 6424   7.420   3.395   0.757 -0.3886  0.6367  0.3443
   16CHTO   O71 6425   7.511   3.366   0.868  0.0082  0.2923 -0.8773
   16CHTO  H171 6426   7.455   3.350   0.942 -2.8657  0.4880 -2.9036
   16CHTO   O62 6427   7.635   3.009   0.593  0.5760 -0.0892  0.4513
   16CHTO   C91 6428   7.735   2.973   0.688 -0.8633  0.8291  0.2543
   16CHTO  H178 6429   7.830   3.023   0.670  0.2856 -0.9450  1.2571
   16CHTO   C92 6430   7.754   2.818   0.685 -0.9145  1.2436  0.1848
   16CHTO  H179 6431   7.764   2.792   0.579  1.1746 -0.5929  0.7976
   16CHTO   O66 6432   7.875   2.775   0.755  0.3140 -0.2238 -0.1034
   16CHTO  H166 6433   7.949   2.813   0.714  0.0538 -1.1188 -1.4238
   16CHTO   C93 6434   7.640   2.731   0.756  0.3687  0.4052 -0.3985
   16CHTO  H180 6435   7.667   2.627   0.776 -0.7898  0.3671  1.0476
   16CHTO   N16 6436   7.526   2.715   0.662  0.0001  0.0767 -0.3768
   16CHTO  H172 6437   7.473   2.621   0.668 -0.4045  0.4377  2.1844
   16CHTO  H173 6438   7.462   2.802   0.661 -2.6287 -1.7560  1.8750
   16CHTO   C94 6439   7.586   2.802   0.892 -0.0131  0.3235  0.8403
   16CHTO  H181 6440   7.489   2.849   0.879  0.6975  1.5045 -0.3869
   16CHTO   O61 6441   7.682   2.903   0.931 -0.2120  0.1463  0.4311
   16CHTO   C95 6442   7.685   3.013   0.837  0.5995  0.1777 -0.7866
   16CHTO  H182 6443   7.583   3.051   0.829 -0.2072 -1.4840  1.1970
   16CHTO  C106 6444   7.767   3.129   0.902  0.5563  0.1200 -0.0703
   16CHTO   O69 6445   7.725   3.181   1.027  0.1475  0.0104  0.0728
   16CHTO  H169 6446   7.638   3.213   1.015  0.0692  0.0463  0.6962
   16CHTO   O63 6447   7.582   2.705   1.012 -0.2422 -0.1723 -0.1550
   16CHTO   C96 6448   7.435   2.658   1.081 -0.2764  0.7663 -0.2245
   16CHTO  H183 6449   7.456   2.608   1.175  0.6774 -0.4653 -1.0797
   16CHTO   C98 6450   7.354   2.561   0.981  0.2455 -0.8003 -0.6444
   16CHTO  H185 6451   7.335   2.611   0.885  0.2060  1.9585  0.7596
   16CHTO   O67 6452   7.439   2.445   0.958  0.1680 -0.0562  0.1198
   16CHTO  H167 6453   7.412   2.404   0.878 -2.0243 -1.3845  1.4773
   16CHTO  C102 6454   7.204   2.528   1.044 -0.6777  0.3236 -0.5931
   16CHTO  H189 6455   7.230   2.479   1.139  1.2222  2.4172  0.0249
   16CHTO   N18 6456   7.118   2.432   0.975  0.1358  0.4510 -0.2710
   16CHTO  H176 6457   7.027   2.426   1.032  1.0326  0.7533  1.2214
   16CHTO  H177 6458   7.103   2.453   0.870  0.6038 -0.2673 -0.4853
   16CHTO  C105 6459   7.132   2.663   1.084  0.0079  0.7711  0.4854
   16CHTO  H192 6460   7.123   2.727   0.996 -0.4207 -1.0573 -0.8299
   16CHTO   O65 6461   7.208   2.741   1.176 -0.3750  0.6634 -0.2788
   16CHTO  C100 6462   7.334   2.779   1.113  0.1454 -0.1528  0.4904
   16CHTO  H187 6463   7.316   2.831   1.017 -0.0949  1.2658  1.2890
   16CHTO  C107 6464   7.397   2.874   1.216 -0.3952 -0.0512 -0.0720
   16CHTO   O70 6465   7.317   2.989   1.246  0.8106 -0.4678  0.1292
   16CHTO  H170 6466   7.223   2.984   1.251  0.7138  1.8762  1.3381
   16CHTO   O57 6467   6.985   2.637   1.128  0.2419  0.6556  0.2553
   16CHTO   C85 6468   6.882   2.717   1.070 -1.0064 -0.2216  0.6758
   16CHTO  H157 6469   6.904   2.721   0.961  3.1813  2.1825  1.4974
   16CHTO   C83 6470   6.889   2.869   1.120  0.4626  0.0613  0.7281
   16CHTO  H155 6471   6.990   2.900   1.093  0.2820  1.4137  1.5726
   16CHTO   O56 6472   6.875   2.887   1.256  0.3946  0.0920 -0.4291
   16CHTO  H135 6473   6.958   2.884   1.300 -0.3295 -0.1909  0.9428
   16CHTO   C81 6474   6.786   2.945   1.032  0.1683 -0.7938 -0.4548
   16CHTO  H153 6475   6.811   2.924   0.928 -0.6764 -1.6308 -0.4931
   16CHTO   N14 6476   6.801   3.092   1.040 -0.1781 -0.1532  0.9541
   16CHTO  H141 6477   6.788   3.134   1.138  0.9859  1.3887  0.4557
   16CHTO  H142 6478   6.889   3.131   0.994 -1.6440  0.5867 -1.2921
   16CHTO   C79 6479   6.632   2.897   1.049  0.3087  0.0264 -0.5417
   16CHTO  H151 6480   6.579   2.940   0.964 -1.2077 -1.7057 -0.4826
   16CHTO   O52 6481   6.622   2.743   1.040 -0.1062 -0.1986 -0.2131
   16CHTO   C86 6482   6.730   2.662   1.099 -0.3015 -0.3663  0.6040
   16CHTO  H158 6483   6.706   2.660   1.208 -2.6570  0.5545  0.1510
   16CHTO   C90 6484   6.721   2.520   1.051 -0.2540 -0.0243 -0.4933
   16CHTO   O60 6485   6.601   2.455   1.095  0.4546 -0.3693  0.2243
   16CHTO  H138 6486   6.612   2.412   1.178 -0.0137  1.1570  1.0845
   16CHTO   O50 6487   6.571   2.945   1.172 -0.2349 -0.3606 -0.3696
   16CHTO   C73 6488   6.428   2.962   1.190  0.0892 -0.1920  0.2771
   16CHTO  H145 6489   6.380   2.865   1.212  1.2884 -1.2472 -1.6686
   16CHTO   C74 6490   6.353   3.030   1.065 -0.9591 -0.5978  0.4519
   16CHTO  H146 6491   6.367   2.965   0.977 -0.6030 -1.0203  0.8192
   16CHTO   O54 6492   6.209   3.021   1.086 -0.2151 -0.0985  0.4340
   16CHTO  H133 6493   6.169   3.086   1.141 -4.1505 -1.9331 -0.1216
   16CHTO   C75 6494   6.412   3.175   1.046  0.3091 -1.1928  0.5822
   16CHTO  H147 6495   6.514   3.163   1.007  0.1404  2.8990 -1.3644
   16CHTO   N13 6496   6.350   3.249   0.931 -0.3813  0.2446  0.3935
   16CHTO  H139 6497   6.364   3.203   0.835  0.2227  0.4554  0.3778
   16CHTO  H140 6498   6.381   3.352   0.931  0.3900  0.0156 -0.0973
   16CHTO   C76 6499   6.403   3.269   1.186  0.1953 -0.0350 -0.3214
   16CHTO  H148 6500   6.297   3.289   1.196 -0.2052 -1.2832 -1.8005
   16CHTO   O49 6501   6.450   3.190   1.299  0.2089  0.1031 -0.3057
   16CHTO   C77 6502   6.411   3.051   1.315 -0.7155  0.2281 -0.0326
   16CHTO  H149 6503   6.306   3.060   1.341 -0.4637  2.4504  0.2749
   16CHTO   C88 6504   6.483   2.997   1.437 -0.0992  0.2816 -0.2070
   16CHTO   O58 6505   6.641   3.070   1.451  0.1136  0.2812 -0.1445
   16CHTO  H136 6506   6.625   3.156   1.417 -2.8746  0.0993  0.7125
   16CHTO   O51 6507   6.502   3.392   1.187 -0.4775  0.3389  0.0095
   16CHTO   C78 6508   6.459   3.489   1.333  0.4688  0.4403  0.6240
   16CHTO  H150 6509   6.429   3.419   1.414  1.2565 -1.1039 -0.3949
   16CHTO   C80 6510   6.348   3.591   1.301 -0.0995 -0.4798  0.4646
   16CHTO  H152 6511   6.374   3.644   1.207 -0.1548 -0.7016  0.3226
   16CHTO   O55 6512   6.224   3.515   1.276  0.0801  0.2424 -0.0296
   16CHTO  H134 6513   6.150   3.569   1.255 -1.0022 -1.1679  0.0348
   16CHTO   C84 6514   6.330   3.684   1.434 -0.0299 -0.7675 -0.4461
   16CHTO  H156 6515   6.289   3.637   1.524 -3.0296  2.9653  0.2590
   16CHTO   N15 6516   6.228   3.791   1.407  0.4497  0.5107 -0.1714
   16CHTO  H143 6517   6.168   3.749   1.329 -1.8785  0.5093  1.5787
   16CHTO  H144 6518   6.163   3.793   1.492  0.8145 -0.4793  0.1455
   16CHTO   C87 6519   6.464   3.740   1.483 -0.5296  0.5719 -0.2803
   16CHTO  H159 6520   6.515   3.803   1.411  0.4384 -1.0774 -1.0732
   16CHTO   O53 6521   6.545   3.625   1.511 -0.2349 -0.1651  0.5349
   16CHTO   C82 6522   6.584   3.558   1.392 -0.3149  0.4240  0.4849
   16CHTO  H154 6523   6.625   3.633   1.325 -0.5751 -0.0342 -0.1896
   16CHTO   C89 6524   6.696   3.461   1.413  0.1672 -0.0112  0.1180
   16CHTO   O59 6525   6.743   3.411   1.293 -0.2633 -0.7517 -0.2839
   16CHTO  H137 6526   6.685   3.441   1.225  0.4955  0.1963 -0.5339
   16CHTO   O45 6527   6.444   3.826   1.612 -0.2103 -0.9313 -0.0015
   16CHTO   C67 6528   6.556   3.898   1.663 -0.0844  0.6669 -0.0973
   16CHTO  H124 6529   6.646   3.856   1.618 -1.2843 -0.3112 -1.6411
   16CHTO   C65 6530   6.553   4.053   1.624 -0.5269  0.0510  0.1313
   16CHTO  H122 6531   6.449   4.086   1.625 -0.9585 -1.2961  0.5827
   16CHTO   O44 6532   6.592   4.061   1.490  0.1481  0.2316  0.2436
   16CHTO  H102 6533   6.569   3.982   1.445 -0.0316 -0.5636  1.7068
   16CHTO   C63 6534   6.620   4.157   1.727  0.8769 -0.2033  0.0805
   16CHTO  H120 6535   6.551   4.176   1.809  1.5385 -0.4485  0.6997
   16CHTO   N11 6536   6.639   4.294   1.678 -0.6540 -0.0584  0.8248
   16CHTO  H108 6537   6.647   4.299   1.572 -0.3794  1.2634  0.8923
   16CHTO  H109 6538   6.731   4.338   1.713 -0.6083 -0.1748  0.8489
   16CHTO   C61 6539   6.748   4.084   1.785  0.0237  0.4811  0.3381
   16CHTO  H118 6540   6.793   4.145   1.864 -0.6086 -0.1303  1.1788
   16CHTO   O40 6541   6.709   3.958   1.851  0.3935 -1.1496 -0.2139
   16CHTO   C68 6542   6.582   3.893   1.817 -0.3590  1.4417  0.2196
   16CHTO  H125 6543   6.504   3.952   1.871  1.2909  1.4385  2.6832
   16CHTO   C72 6544   6.575   3.748   1.871 -1.0881  0.6050 -0.3396
   16CHTO   O48 6545   6.441   3.701   1.888 -0.6335 -0.6601 -0.3792
   16CHTO  H105 6546   6.416   3.736   1.971  0.7833 -0.8222  0.1334
   16CHTO   O38 6547   6.846   4.051   1.685  0.3762  0.1621 -0.4274
   16CHTO   C55 6548   6.964   3.987   1.734 -0.6849  0.3970  0.1010
   16CHTO  H112 6549   6.952   3.926   1.825 -0.7162 -0.5645 -0.5389
   16CHTO   C56 6550   7.072   4.100   1.752  0.3828  0.0638 -0.0084
   16CHTO  H113 6551   7.069   4.164   1.662 -0.1461  0.5260  0.3376
   16CHTO   O42 6552   7.038   4.180   1.860 -0.0252  0.1616  0.4903
   16CHTO  H100 6553   7.107   4.241   1.877  0.0912  0.4602 -1.0335
   16CHTO   C57 6554   7.214   4.032   1.777 -0.2299 -0.3619 -0.2888
   16CHTO  H114 6555   7.214   3.982   1.873  0.7689  1.4287  0.6693
   16CHTO   N10 6556   7.325   4.129   1.788  1.1229 -0.3071 -0.7373
   16CHTO  H106 6557   7.341   4.190   1.701 -1.3079  1.0540 -0.2661
   16CHTO  H107 6558   7.416   4.080   1.820 -1.2251 -3.1573  1.9313
   16CHTO   C58 6559   7.243   3.919   1.681  0.0479 -0.1207  0.0640
   16CHTO  H115 6560   7.256   3.964   1.580  1.4438  2.6414  1.3950
   16CHTO   O37 6561   7.134   3.826   1.676  0.5112  0.3676  0.0907
   16CHTO   C59 6562   7.011   3.884   1.627 -0.8456  0.0529  0.5742
   16CHTO  H116 6563   7.022   3.931   1.530  1.7941 -1.9035 -0.1122
   16CHTO   C70 6564   6.908   3.775   1.608  0.1303  0.7270 -0.1593
   16CHTO   O46 6565   6.940   3.676   1.503  0.1009 -0.0052 -0.3834
   16CHTO  H103 6566   7.017   3.629   1.528  0.6854  1.2957  0.2856
   16CHTO   O39 6567   7.361   3.840   1.727  0.0335  0.5362 -0.1283
   16CHTO   C60 6568   7.443   3.791   1.619  0.5545  0.1247 -0.0875
   16CHTO  H117 6569   7.393   3.810   1.524  2.7221 -0.2339 -1.3344
   16CHTO   C62 6570   7.572   3.878   1.598 -0.1987 -0.2763  0.0364
   16CHTO  H119 6571   7.538   3.980   1.573  0.5454  0.1097  0.5958
   16CHTO   O43 6572   7.644   3.906   1.720  0.0437 -0.1483  0.5873
   16CHTO  H101 6573   7.733   3.921   1.692  0.2265  0.4680  1.4559
   16CHTO   C66 6574   7.663   3.820   1.479  0.1086 -0.4120 -0.1934
   16CHTO  H123 6575   7.606   3.822   1.386  0.0904  0.0170 -0.1744
   16CHTO   N12 6576   7.784   3.907   1.450  0.0303  0.4671  0.0490
   16CHTO  H110 6577   7.784   3.941   1.348 -1.6433  1.0837  0.2266
   16CHTO  H111 6578   7.777   3.996   1.511 -0.2605  0.5872 -0.1572
   16CHTO   C69 6579   7.695   3.675   1.503  0.1534 -0.3494  0.1888
   16CHTO  H126 6580   7.754   3.670   1.596 -4.0663  0.0902  3.0420
   16CHTO   O41 6581   7.565   3.586   1.517  0.2591 -0.0729 -0.0357
   16CHTO   C64 6582   7.471   3.641   1.628  0.6536 -0.1719  0.2879
   16CHTO  H121 6583   7.515   3.624   1.728 -0.3213 -1.6304  0.4922
   16CHTO   C71 6584   7.335   3.558   1.627  0.3482 -0.1163  0.9799
   16CHTO   O47 6585   7.365   3.424   1.663  0.3568  0.5351  0.2778
   16CHTO  H104 6586   7.405   3.391   1.584 -1.4031 -4.2348  1.2275
   16CHTO   O34 6587   7.775   3.625   1.391  0.4047 -0.0691  0.1117
   16CHTO   C49 6588   7.826   3.517   1.281  0.1407  0.7641  0.8106
   16CHTO   H91 6589   7.842   3.582   1.195 -1.4782  0.6696  0.4147
   16CHTO   C47 6590   7.713   3.413   1.246 -0.1642  0.0201 -1.0466
   16CHTO   H89 6591   7.753   3.358   1.158 -0.5531  0.1051 -1.2752
   16CHTO   O33 6592   7.596   3.489   1.209  0.2188 -0.2175  0.5240
   16CHTO   H70 6593   7.545   3.507   1.286  2.0820  1.9391  1.3023
   16CHTO   C45 6594   7.688   3.306   1.366 -0.2250 -0.1344  0.2186
   16CHTO   H87 6595   7.641   3.372   1.440  0.8493  2.2232 -1.1427
   16CHTO    N8 6596   7.596   3.199   1.326 -0.7315 -0.2769  0.1113
   16CHTO   H75 6597   7.609   3.108   1.383  3.7965 -0.4389 -0.9659
   16CHTO   H76 6598   7.596   3.187   1.219  0.4121  1.2873 -0.0882
   16CHTO   C43 6599   7.826   3.245   1.422 -0.9922 -0.0170 -0.3257
   16CHTO   H85 6600   7.798   3.204   1.519  0.3321 -2.3667 -0.8974
   16CHTO   O29 6601   7.927   3.347   1.433 -0.6052 -0.4968  0.0965
   16CHTO   C50 6602   7.951   3.440   1.330 -0.9421  0.3734 -0.1829
   16CHTO   H92 6603   8.023   3.507   1.379 -0.0840 -0.1084 -0.7744
   16CHTO   C54 6604   8.029   3.373   1.215 -0.5582 -0.7380  0.4355
   16CHTO   O36 6605   8.059   3.464   1.112  0.5749 -0.3051  0.2512
   16CHTO   H72 6606   7.974   3.488   1.078  0.7341  1.3895  0.9987
   16CHTO   O27 6607   7.885   3.137   1.342 -0.2652  0.0758  0.1233
   16CHTO   C37 6608   7.955   3.013   1.371 -0.4098 -0.0393  0.0978
   16CHTO   H79 6609   8.060   3.040   1.386 -0.6753  1.0898 -0.0403
   16CHTO   C38 6610   7.907   2.935   1.501  0.5389  0.7710 -0.1721
   16CHTO   H80 6611   7.797   2.938   1.503  0.5544  0.9953  1.0831
   16CHTO   O31 6612   7.966   2.998   1.615  1.0288 -0.5244  0.4262
   16CHTO   H68 6613   8.054   2.971   1.633  2.7457  4.3796  0.2299
   16CHTO   C39 6614   7.955   2.789   1.504  0.1552 -0.0671  0.1339
   16CHTO   H81 6615   8.062   2.793   1.526  0.4998 -0.0661 -1.5308
   16CHTO    N7 6616   7.896   2.712   1.618 -0.3607  0.3136 -0.3250
   16CHTO   H73 6617   7.880   2.609   1.591 -1.9525 -0.3374  2.8251
   16CHTO   H74 6618   7.959   2.723   1.705 -0.3000 -1.4690 -0.1241
   16CHTO   C40 6619   7.933   2.712   1.371  0.2394 -0.2676  0.2903
   16CHTO   H82 6620   7.828   2.701   1.342 -0.2652  0.1766  1.9024
   16CHTO   O26 6621   8.005   2.786   1.272  0.3491  0.2642 -0.0097
   16CHTO   C41 6622   7.950   2.917   1.246 -0.6734 -0.1770 -0.2804
   16CHTO   H83 6623   7.843   2.924   1.221 -1.2293  1.8535  2.3523
   16CHTO   C52 6624   8.033   2.978   1.122  0.3670  0.0082 -0.3189
   16CHTO   O35 6625   8.176   3.009   1.141  0.2335  0.2678  0.0223
   16CHTO   H71 6626   8.200   3.093   1.107 -0.5264  0.5959  0.2859
   16CHTO   O28 6627   7.999   2.586   1.365 -0.5368  0.1578  0.4637
   16CHTO   C42 6628   7.952   2.472   1.280  0.7462 -0.1656  0.4240
   16CHTO   H84 6629   8.044   2.420   1.253  1.1990  0.5515  0.5754
   16CHTO   C44 6630   7.882   2.502   1.146  0.4181 -0.3162  0.3810
   16CHTO   H86 6631   7.806   2.580   1.155  1.1266  0.5702 -1.2280
   16CHTO   O32 6632   7.967   2.571   1.049  0.5125  0.2519 -0.1203
   16CHTO   H69 6633   8.052   2.532   1.035  1.2235  1.5798  0.4067
   16CHTO   C48 6634   7.819   2.379   1.076  0.2552 -0.2344 -0.1043
   16CHTO   H90 6635   7.894   2.306   1.048 -0.2732 -2.3031  3.5281
   16CHTO    N9 6636   7.742   2.398   0.948 -0.1996  0.1457 -0.5176
   16CHTO   H77 6637   7.651   2.454   0.961  0.4467  0.9228  0.6754
   16CHTO   H78 6638   7.799   2.448   0.871  0.2850  1.8161  0.8967
   16CHTO   C51 6639   7.734   2.302   1.186 -0.3395 -0.1585 -0.7350
   16CHTO   H93 6640   7.652   2.362   1.224 -0.6422 -1.3516  0.5415
   16CHTO   O30 6641   7.826   2.271   1.290 -0.1400 -0.0247 -0.1884
   16CHTO   C46 6642   7.865   2.378   1.368 -0.3983  0.1775 -0.7935
   16CHTO   H88 6643   7.780   2.419   1.422  1.5504  2.3752  0.7105
   16CHTO   C53 6644   7.952   2.309   1.476  0.2716 -0.1954 -0.0833
   16CHTO   O72 6645   8.051   2.213   1.421  0.1670 -0.2526  0.1687
   16CHTO  H199 6646   8.026   2.152   1.355 -0.9260  0.2809  0.0889
   16CHTO   O22 6647   7.688   2.178   1.145 -0.7551 -0.5119  0.2472
   16CHTO   C31 6648   7.589   2.098   1.221  0.1410  0.2134 -0.1999
   16CHTO   H59 6649   7.592   2.131   1.327 -0.0491 -1.9489  0.5119
   16CHTO   C29 6650   7.441   2.112   1.169  0.3241 -0.3807 -0.2498
   16CHTO   H57 6651   7.442   2.087   1.062  0.1860 -0.4922 -0.2255
   16CHTO   O21 6652   7.402   2.250   1.174 -1.0761 -0.4259  0.4138
   16CHTO   H37 6653   7.481   2.298   1.154 -1.3362 -0.0880  0.2023
   16CHTO   C27 6654   7.331   2.022   1.252 -0.4525  0.0452 -0.1670
   16CHTO   H55 6655   7.325   2.062   1.355 -1.7061 -0.9864  0.1629
   16CHTO    N5 6656   7.193   2.030   1.199 -0.5209  0.2189  0.1274
   16CHTO   H43 6657   7.172   2.121   1.145  1.4916  1.0760  0.7323
   16CHTO   H44 6658   7.179   1.944   1.136  0.8854  0.1916 -0.1552
   16CHTO   C25 6659   7.388   1.880   1.272 -0.0870 -0.3635  0.0587
   16CHTO   H53 6660   7.385   1.822   1.178  1.5420 -0.3224 -0.0271
   16CHTO   O17 6661   7.530   1.888   1.322 -0.2690 -0.1161  0.3679
   16CHTO   C32 6662   7.620   1.944   1.233 -0.1150  0.0719  0.6683
   16CHTO   H60 6663   7.604   1.902   1.134 -0.9882  1.8640  0.0189
   16CHTO   C36 6664   7.761   1.911   1.291  0.0531 -0.8316  0.2249
   16CHTO   O25 6665   7.866   1.940   1.198 -0.5601 -0.1675  0.2340
   16CHTO   H40 6666   7.902   2.025   1.217  0.1282 -0.4808  0.3293
   16CHTO   O15 6667   7.313   1.786   1.370 -0.3414 -0.0910 -0.5553
   16CHTO   C19 6668   7.240   1.772   1.497  0.2853  0.0330 -0.9472
   16CHTO   H47 6669   7.244   1.664   1.515  0.1902  0.4005  1.3906
   16CHTO   C20 6670   7.313   1.843   1.619 -0.0122 -0.0603 -0.7185
   16CHTO   H48 6671   7.342   1.947   1.595 -0.8985  1.0481  2.7302
   16CHTO   O19 6672   7.436   1.774   1.646 -0.4439 -0.2426 -0.0157
   16CHTO   H35 6673   7.451   1.694   1.599  2.5784  0.8280 -0.9915
   16CHTO   C21 6674   7.229   1.841   1.755 -0.6046  0.3161  0.4044
   16CHTO   H49 6675   7.239   1.741   1.797 -0.8940  0.2672  0.3603
   16CHTO    N4 6676   7.288   1.910   1.865  0.2605 -0.0580 -0.1729
   16CHTO   H41 6677   7.231   1.907   1.957  2.5154 -2.3634  1.2414
   16CHTO   H42 6678   7.386   1.877   1.897  0.1676 -0.2271 -0.0633
   16CHTO   C22 6679   7.081   1.873   1.714 -0.2228  0.1496  0.1439
   16CHTO   H50 6680   7.067   1.977   1.682  1.2711 -0.0394 -1.2429
   16CHTO   O14 6681   7.039   1.791   1.606  0.0211  0.6549 -0.7372
   16CHTO   C23 6682   7.095   1.818   1.483 -0.3186 -0.3649 -0.2785
   16CHTO   H51 6683   7.088   1.926   1.467  0.8679  0.4912  4.3583
   16CHTO   C34 6684   7.030   1.738   1.365  0.2663 -0.3142  0.2917
   16CHTO   O23 6685   6.886   1.751   1.364 -0.4040 -0.1236  0.4046
   16CHTO   H38 6686   6.849   1.668   1.386  1.0015 -1.4751 -2.1959
   16CHTO   O16 6687   6.995   1.852   1.829 -0.1783  0.8461 -0.0529
   16CHTO   C24 6688   6.850   1.944   1.820 -0.1072  0.0897 -0.8288
   16CHTO   H52 6689   6.837   1.996   1.725 -1.5614 -0.9872 -1.2323
   16CHTO   C26 6690   6.840   2.031   1.950  0.3311 -0.5307  0.0449
   16CHTO   H54 6691   6.840   1.959   2.035 -0.5379 -1.1620 -0.4766
   16CHTO   O20 6692   6.953   2.127   1.959 -0.4059  0.4206  0.0183
   16CHTO   H36 6693   6.997   2.110   2.041  1.3683  0.1727 -0.9641
   16CHTO   C30 6694   6.700   2.104   1.940 -0.6938  0.4832  0.1556
   16CHTO   H58 6695   6.694   2.164   1.847  0.7512 -0.8739 -0.8396
   16CHTO    N6 6696   6.672   2.199   2.049 -0.2517  0.4117  0.4106
   16CHTO   H45 6697   6.571   2.236   2.059 -0.2456  1.0124 -1.5139
   16CHTO   H46 6698   6.705   2.168   2.147  0.4164  0.7848  0.3099
   16CHTO   C33 6699   6.578   2.006   1.916  0.1912  0.4849  0.3172
   16CHTO   H61 6700   6.549   1.953   2.007  1.1844 -1.0547 -0.2472
   16CHTO   O18 6701   6.616   1.906   1.817  0.0182 -0.1677  0.9076
   16CHTO   C28 6702   6.741   1.835   1.826 -0.5111  0.3716  0.8310
   16CHTO   H56 6703   6.751   1.781   1.920 -0.6071 -0.0445  0.6036
   16CHTO   C35 6704   6.752   1.732   1.708 -0.3609  0.2831 -0.2521
   16CHTO   O24 6705   6.672   1.616   1.718  0.2599  0.2087 -0.3585
   16CHTO   H39 6706   6.649   1.596   1.630  1.0067  0.7219 -0.6740
   16CHTO    O9 6707   6.461   2.075   1.876  0.0161 -0.2132 -0.7037
   16CHTO   C13 6708   6.321   2.014   1.877 -0.4512 -0.1537  0.1334
   16CHTO   H26 6709   6.303   1.982   1.982 -0.1958 -0.5824  0.0507
   16CHTO   C11 6710   6.322   1.893   1.781 -0.1742  0.1979  0.5267
   16CHTO   H24 6711   6.388   1.813   1.818 -0.2033 -0.2599 -0.4011
   16CHTO    O8 6712   6.366   1.931   1.648  0.0302 -0.2553 -0.8479
   16CHTO    H3 6713   6.294   1.934   1.587 -1.4066 -1.1718  0.7571
   16CHTO    C9 6714   6.182   1.826   1.785  0.6048 -0.2210  0.1880
   16CHTO   H22 6715   6.167   1.792   1.889 -0.3234 -1.1272 -0.2206
   16CHTO    N2 6716   6.185   1.705   1.701 -0.0477  0.8798 -0.2275
   16CHTO   H10 6717   6.217   1.734   1.602  0.4612  1.0609 -0.0170
   16CHTO   H11 6718   6.094   1.648   1.701  1.4653 -1.6590  2.3121
   16CHTO    C7 6719   6.066   1.928   1.759 -0.1276 -0.6975 -0.1323
   16CHTO   H20 6720   6.015   1.943   1.857 -0.6547 -1.1624 -0.3331
   16CHTO    O4 6721   6.123   2.057   1.718 -0.1066  0.0558 -0.1182
   16CHTO   C14 6722   6.208   2.108   1.819  0.3232  0.0639 -1.4616
   16CHTO   H27 6723   6.139   2.118   1.905  0.7609  0.3579 -1.1467
   16CHTO   C18 6724   6.248   2.250   1.776  0.2050  0.1094  0.7004
   16CHTO   O13 6725   6.306   2.324   1.884  0.1969 -0.2667 -0.9315
   16CHTO    H7 6726   6.399   2.308   1.885  0.4297  1.0389 -0.5511
   16CHTO    O2 6727   5.957   1.886   1.644  0.3551  0.0262 -0.2366
   16CHTO    C1 6728   5.814   1.897   1.679  0.0723  0.4190  0.7069
   16CHTO   H14 6729   5.804   1.955   1.773 -1.4174  0.3665  0.5836
   16CHTO    C2 6730   5.744   1.756   1.697  0.2001  0.3774 -0.4280
   16CHTO   H15 6731   5.794   1.701   1.615  3.2747  2.1174  0.2108
   16CHTO    O6 6732   5.800   1.704   1.824  0.1054  0.0198  0.7568
   16CHTO    H1 6733   5.833   1.617   1.819  0.9542  0.2781  1.7096
   16CHTO    C3 6734   5.589   1.755   1.689  0.1466  0.0255 -0.1978
   16CHTO   H16 6735   5.549   1.802   1.780  0.7204  0.8982 -0.3958
   16CHTO    N1 6736   5.533   1.613   1.685 -0.6369 -0.1278  0.0628
   16CHTO    H8 6737   5.430   1.616   1.652 -0.4502 -1.6452 -0.6923
   16CHTO    H9 6738   5.587   1.565   1.604 -0.9547 -0.0230 -0.2116
   16CHTO    C4 6739   5.553   1.844   1.570 -0.5803  0.5198 -0.0213
   16CHTO   H17 6740   5.584   1.792   1.480 -2.6762  0.0683 -0.5059
   16CHTO    O1 6741   5.605   1.973   1.585  0.5057  0.1074  0.4263
   16CHTO    C5 6742   5.746   1.994   1.573  0.5058 -0.2148  0.2428
   16CHTO   H18 6743   5.793   1.966   1.478 -2.6186 -2.8151 -0.6183
   16CHTO   C16 6744   5.766   2.146   1.597  0.0864 -0.5582 -0.3537
   16CHTO   O11 6745   5.700   2.219   1.499 -0.0639  0.4835 -0.5348
   16CHTO    H5 6746   5.609   2.193   1.500 -0.2301  1.0323  1.1583
   16CHTO    O3 6747   5.412   1.870   1.558 -0.3237  0.6034  0.1093
   16CHTO    C6 6748   5.358   1.918   1.425  0.0783  0.1736 -0.5126
   16CHTO   H19 6749   5.445   1.951   1.367  0.7715 -1.7696 -0.6246
   16CHTO    C8 6750   5.291   1.801   1.356 -0.6873  0.8573  0.0103
   16CHTO   H21 6751   5.205   1.770   1.416 -0.8196  0.1275 -0.5579
   16CHTO    O7 6752   5.392   1.698   1.343  0.1819 -0.0383  0.0799
   16CHTO    H2 6753   5.349   1.618   1.317  0.4349  0.4698 -2.0099
   16CHTO   C12 6754   5.232   1.853   1.215  0.7467  0.3312  0.5615
   16CHTO   H25 6755   5.317   1.885   1.151  1.8599  3.9206  3.6548
   16CHTO    N3 6756   5.159   1.740   1.142  0.0751 -0.4234 -0.1482
   16CHTO   H12 6757   5.149   1.657   1.211  1.3362 -0.3312  0.1693
   16CHTO   H13 6758   5.224   1.699   1.066  0.8378  0.4563  0.0155
   16CHTO   C15 6759   5.139   1.982   1.240  0.1931  0.1572 -0.2858
   16CHTO   H28 6760   5.045   1.965   1.292  0.5413  0.7098  0.5429
   16CHTO   O10 6761   5.113   2.044   1.129 -0.1192 -0.0719 -0.1761
   16CHTO    H4 6762   5.034   2.013   1.090 -0.4460 -0.5128  0.8300
   16CHTO    O5 6763   5.213   2.083   1.309  0.5629  0.3947 -0.1399
   16CHTO   C10 6764   5.262   2.031   1.438  0.5457  0.5149 -0.0242
   16CHTO   H23 6765   5.175   1.996   1.494  0.0220 -1.3142 -1.9454
   16CHTO   C17 6766   5.311   2.156   1.515  0.6363 -0.2631 -0.0025
   16CHTO   O12 6767   5.200   2.229   1.571  0.3838  0.1341  0.7267
   16CHTO    H6 6768   5.238   2.266   1.648 -1.3455 -0.2193  1.7745
   17CHTO  H203 6769   5.859   4.349   0.215 -0.4377  1.2894 -0.5915
   17CHTO   O82 6770   5.828   4.366   0.301  0.5135  0.3178 -0.0488
   17CHTO  C123 6771   5.807   4.513   0.330 -0.1876  0.4978 -0.7733
   17CHTO  H227 6772   5.745   4.526   0.419 -0.0274 -0.6716 -0.4810
   17CHTO   O77 6773   5.940   4.566   0.337 -0.5245  0.1859  0.0064
   17CHTO  C118 6774   5.944   4.705   0.383 -0.5667 -0.3441  0.6008
   17CHTO  H222 6775   5.903   4.702   0.485 -1.5540 -2.2703  0.1824
   17CHTO  C125 6776   6.102   4.739   0.386  0.1413 -0.9829 -0.6316
   17CHTO   O84 6777   6.170   4.695   0.503 -0.0778  0.5775  0.4406
   17CHTO  H205 6778   6.254   4.735   0.513 -1.0684  2.1580  2.8922
   17CHTO  C114 6779   5.868   4.796   0.290 -0.0970  0.4332 -0.0185
   17CHTO  H218 6780   5.934   4.810   0.205 -0.9390 -1.3080 -0.9850
   17CHTO  C116 6781   5.735   4.739   0.239  0.1746 -0.3650  0.1878
   17CHTO  H220 6782   5.662   4.756   0.321 -0.7058 -3.4360  0.1013
   17CHTO   O79 6783   5.690   4.826   0.128  1.0128  0.0600  0.0202
   17CHTO  H201 6784   5.709   4.917   0.134 -0.0658  0.1394  2.7129
   17CHTO  C120 6785   5.749   4.587   0.210 -0.6396 -0.0759  0.2549
   17CHTO  H224 6786   5.817   4.584   0.123 -0.6496 -0.8050  0.2653
   17CHTO   N21 6787   5.612   4.538   0.169 -0.1391  0.3917  0.5784
   17CHTO  H211 6788   5.634   4.461   0.096  0.8075  0.0737  1.1951
   17CHTO  H212 6789   5.562   4.617   0.115 -0.2785 -0.1564 -0.1103
   17CHTO   O75 6790   5.858   4.919   0.358  0.6814 -0.1093  0.3138
   17CHTO  C112 6791   5.877   5.059   0.272  0.2834 -0.1634  0.1803
   17CHTO  H216 6792   5.832   5.053   0.172  1.6661 -1.1021 -0.3860
   17CHTO   O73 6793   6.018   5.084   0.269  0.5359  0.1114 -0.2311
   17CHTO  C113 6794   6.056   5.197   0.191  1.0221  0.4985  0.1171
   17CHTO  H217 6795   6.021   5.187   0.087  0.2904 -1.3428  0.5079
   17CHTO  C124 6796   6.206   5.191   0.185 -0.0570 -0.4908  0.0501
   17CHTO   O83 6797   6.265   5.198   0.314  0.5311 -0.5028  0.1734
   17CHTO  H204 6798   6.273   5.112   0.351 -1.6510 -1.3665 -1.3201
   17CHTO  C109 6799   5.999   5.325   0.251  0.3748 -0.1241  0.5892
   17CHTO  H213 6800   6.053   5.346   0.344 -1.1147 -0.5144  1.5516
   17CHTO  C110 6801   5.848   5.317   0.291  0.6587  0.1276  0.1513
   17CHTO  H214 6802   5.792   5.323   0.198  0.8290 -0.9746 -0.0311
   17CHTO   O78 6803   5.825   5.433   0.371 -0.4354 -0.2244 -0.5456
   17CHTO  H200 6804   5.765   5.494   0.335 -0.8120 -0.1978  0.1273
   17CHTO  C111 6805   5.808   5.179   0.355 -0.3148 -0.2043 -0.1616
   17CHTO  H215 6806   5.839   5.176   0.461 -0.3898  3.9178  0.0613
   17CHTO   N19 6807   5.662   5.161   0.347 -0.2773  0.1664  0.0126
   17CHTO  H207 6808   5.623   5.127   0.252  0.7205  0.6468 -0.5683
   17CHTO  H208 6809   5.598   5.244   0.375  0.4953  0.4155  1.0326
   17CHTO   O74 6810   6.031   5.431   0.154 -0.2445  0.2537 -0.0199
   17CHTO  C115 6811   6.082   5.564   0.250 -0.6829 -1.1247 -0.4886
   17CHTO  H219 6812   6.039   5.558   0.350 -0.4996  0.7993 -0.2782
   17CHTO   O76 6813   6.237   5.563   0.272  0.0349  0.2638  0.7430
   17CHTO  C122 6814   6.317   5.588   0.159 -0.3298 -0.6259  0.3758
   17CHTO  H226 6815   6.307   5.501   0.094  0.6112 -0.5623  0.1425
   17CHTO  C126 6816   6.468   5.589   0.217 -0.7205 -0.1837  0.1086
   17CHTO   O85 6817   6.550   5.489   0.147  0.6884  0.1381 -0.2561
   17CHTO  H206 6818   6.584   5.517   0.064 -0.5324 -0.6545 -1.0327
   17CHTO  C121 6819   6.277   5.719   0.088 -0.1503  0.4962  0.0015
   17CHTO  H225 6820   6.365   5.787   0.083 -0.3860  0.6553 -2.1439
   17CHTO   O81 6821   6.242   5.681  -0.047  0.0182 -0.6803 -0.2615
   17CHTO  H202 6822   6.158   5.640  -0.047 -0.5301  0.4267  1.4858
   17CHTO  C119 6823   6.149   5.795   0.145 -0.3433  0.5189 -0.5017
   17CHTO  H223 6824   6.180   5.825   0.245 -2.4038  2.1690 -0.3288
   17CHTO  C117 6825   6.030   5.692   0.165  0.6558  0.5484  0.2051
   17CHTO  H221 6826   5.990   5.654   0.071 -1.9132 -1.4097  2.0211
   17CHTO   N20 6827   5.915   5.748   0.239  0.1479  0.1070  0.0328
   17CHTO  H209 6828   5.857   5.815   0.178 -1.2045 -0.5390  0.5982
   17CHTO  H210 6829   5.865   5.675   0.301 -1.3713  0.6070 -0.5757
   17CHTO   O80 6830   6.112   5.940   0.084 -0.1217  0.2012  0.6904
   17CHTO  C103 6831   6.113   6.050   0.168  0.8446 -0.7076 -0.8038
   17CHTO  H190 6832   6.079   6.030   0.269 -0.1473 -0.0571 -1.0049
   17CHTO  C101 6833   6.254   6.118   0.170  0.2447  0.4574  0.6925
   17CHTO  H188 6834   6.273   6.147   0.067 -0.2809  0.0770  0.4798
   17CHTO   O68 6835   6.353   6.011   0.221  0.4987  0.4009 -1.0125
   17CHTO  H168 6836   6.382   6.020   0.310 -1.8033 -0.1341 -0.1688
   17CHTO   C99 6837   6.247   6.250   0.259 -0.0597  0.5691 -0.2005
   17CHTO  H186 6838   6.217   6.235   0.365  0.7024 -1.2816 -0.2256
   17CHTO   N17 6839   6.379   6.316   0.275 -0.3611  0.3575  0.9073
   17CHTO  H174 6840   6.384   6.423   0.288  1.8567  0.1363  2.0484
   17CHTO  H175 6841   6.450   6.258   0.332  0.3939  0.1718 -0.2273
   17CHTO   C97 6842   6.148   6.354   0.200 -0.4072  0.5243 -0.4257
   17CHTO  H184 6843   6.192   6.382   0.104  1.8346  0.8372  0.6584
   17CHTO   O64 6844   6.017   6.288   0.186 -0.2246  0.2050  0.0403
   17CHTO  C104 6845   6.013   6.167   0.109  0.0875 -0.0446 -0.2630
   17CHTO  H191 6846   6.034   6.183   0.003 -1.1255 -1.7269 -0.8000
   17CHTO  C108 6847   5.863   6.134   0.113  0.5196  0.1941 -0.0634
   17CHTO   O71 6848   5.839   6.007   0.047  0.4973  0.2078 -0.4738
   17CHTO  H171 6849   5.843   5.934   0.106  3.6303 -0.5667 -1.5327
   17CHTO   O62 6850   6.131   6.473   0.285  0.1057  0.9533  0.4211
   17CHTO   C91 6851   6.044   6.576   0.232  0.2650 -0.3068 -0.4555
   17CHTO  H178 6852   5.987   6.535   0.148  0.2130  1.7648 -1.4828
   17CHTO   C92 6853   6.123   6.680   0.158  0.0282  0.0993 -0.2835
   17CHTO  H179 6854   6.187   6.626   0.087  0.3774 -1.2918  1.0704
   17CHTO   O66 6855   6.041   6.762   0.079  0.0583  0.3985  0.2565
   17CHTO  H166 6856   6.093   6.808   0.017  0.4121  1.4254  1.3014
   17CHTO   C93 6857   6.210   6.768   0.255 -0.0027 -1.0107 -0.3239
   17CHTO  H180 6858   6.227   6.859   0.196  0.7985 -0.0783  1.3197
   17CHTO   N16 6859   6.347   6.718   0.278  0.2939  0.1689  0.3305
   17CHTO  H172 6860   6.364   6.622   0.231 -1.0059 -0.1205  0.4381
   17CHTO  H173 6861   6.369   6.715   0.384  0.7375  0.8024  0.2582
   17CHTO   C94 6862   6.129   6.800   0.388 -0.0076  0.2155  1.1092
   17CHTO  H181 6863   6.167   6.745   0.474 -1.6614 -1.1634  0.9908
   17CHTO   O61 6864   5.987   6.772   0.376 -0.0106 -0.1073 -0.2465
   17CHTO   C95 6865   5.954   6.635   0.355 -0.5476  0.1222  0.2001
   17CHTO  H182 6866   5.983   6.582   0.445 -0.1518  0.9533  0.5746
   17CHTO  C106 6867   5.802   6.623   0.324  0.2518 -0.7958  0.2883
   17CHTO   O69 6868   5.766   6.491   0.287  0.0462 -0.2208  0.6012
   17CHTO  H169 6869   5.713   6.487   0.210  0.5859  1.6160  0.0949
   17CHTO   O63 6870   6.140   6.963   0.410 -0.8624 -0.1022 -0.0584
   17CHTO   C96 6871   6.123   7.023   0.542  0.1716  0.3912  0.0325
   17CHTO  H183 6872   6.127   6.940   0.612  1.6066  1.7016  1.5379
   17CHTO   C98 6873   5.979   7.093   0.550  0.1387 -0.0351  0.0598
   17CHTO  H185 6874   5.971   7.154   0.458  2.7869 -0.9856 -0.8534
   17CHTO   O67 6875   5.871   6.997   0.545  0.0194 -0.0208 -0.2915
   17CHTO  H167 6876   5.838   6.967   0.627  0.9145 -0.3101 -0.0401
   17CHTO  C102 6877   5.962   7.187   0.681 -0.0149  0.3102 -0.0571
   17CHTO  H189 6878   5.923   7.120   0.759  0.6157 -0.9932 -0.8445
   17CHTO   N18 6879   5.852   7.282   0.662  0.0570 -0.3748 -0.1334
   17CHTO  H176 6880   5.758   7.244   0.624  0.1172 -0.2913 -0.3704
   17CHTO  H177 6881   5.839   7.338   0.754 -0.9951  1.3917 -1.3187
   17CHTO  C105 6882   6.098   7.251   0.726 -0.1561 -0.2665  0.0992
   17CHTO  H192 6883   6.119   7.337   0.664 -0.5051  0.2875  0.7387
   17CHTO   O65 6884   6.218   7.168   0.710  0.3558 -0.4773 -0.0964
   17CHTO  C100 6885   6.235   7.123   0.578  0.3028  0.4170  0.5187
   17CHTO  H187 6886   6.233   7.203   0.504  0.2469 -0.5387 -0.5312
   17CHTO  C107 6887   6.382   7.068   0.571 -0.6747 -0.1248 -0.7069
   17CHTO   O70 6888   6.422   6.995   0.453  0.0417 -0.1007  0.9945
   17CHTO  H170 6889   6.406   7.046   0.376 -1.4293 -1.5445  0.3000
   17CHTO   O57 6890   6.079   7.301   0.887 -0.1892  0.7175 -0.1912
   17CHTO   C85 6891   6.171   7.388   0.958 -1.0689 -0.2646  1.2340
   17CHTO  H157 6892   6.156   7.490   0.918 -1.4204 -0.1551  1.6440
   17CHTO   C83 6893   6.321   7.370   0.909 -0.0580 -0.2022 -0.0020
   17CHTO  H155 6894   6.328   7.413   0.809  2.9857  0.6729  0.5377
   17CHTO   O56 6895   6.366   7.233   0.912  0.3406  0.5047 -0.4007
   17CHTO  H135 6896   6.379   7.199   0.998 -1.3350  0.3685 -0.1882
   17CHTO   C81 6897   6.413   7.457   1.003  0.0138  0.4415 -0.0790
   17CHTO  H153 6898   6.389   7.563   0.995  2.3189  1.0825  1.1280
   17CHTO   N14 6899   6.560   7.468   0.971  0.3786  0.3961 -0.2306
   17CHTO  H141 6900   6.606   7.373   0.987 -2.5364 -1.0466 -0.0758
   17CHTO  H142 6901   6.580   7.492   0.868  1.5019  0.5702  0.0213
   17CHTO   C79 6902   6.398   7.420   1.150  0.4129  0.2190 -0.1419
   17CHTO  H151 6903   6.466   7.486   1.203 -1.1705  2.0591 -0.3499
   17CHTO   O52 6904   6.266   7.444   1.197 -0.2351 -0.2151 -0.0725
   17CHTO   C86 6905   6.159   7.384   1.120  0.1277  0.1313 -0.2508
   17CHTO  H158 6906   6.167   7.279   1.155  2.5157  0.1910 -0.5076
   17CHTO   C90 6907   6.021   7.443   1.175  0.0300 -0.0798 -0.2796
   17CHTO   O60 6908   5.902   7.362   1.164  0.2793 -0.1982 -0.1142
   17CHTO  H138 6909   5.824   7.414   1.163 -0.1286 -0.7613 -3.4890
   17CHTO   O50 6910   6.437   7.293   1.191 -0.2584 -0.3783  0.1203
   17CHTO   C73 6911   6.532   7.235   1.275  0.6505  0.6364 -0.5948
   17CHTO  H145 6912   6.578   7.308   1.343 -1.0621 -0.0106  1.3056
   17CHTO   C74 6913   6.644   7.177   1.185  0.4257  0.3003  0.0770
   17CHTO  H146 6914   6.685   7.259   1.124 -1.4580  2.4668  1.6330
   17CHTO   O54 6915   6.754   7.115   1.260 -0.1035  0.1011 -0.0172
   17CHTO  H133 6916   6.809   7.189   1.279  0.2580 -0.5136  1.3837
   17CHTO   C75 6917   6.591   7.064   1.091 -0.5640  0.1560 -0.4454
   17CHTO  H147 6918   6.534   7.116   1.013 -1.1890  0.8359  0.4449
   17CHTO   N13 6919   6.688   6.994   1.003  0.0971  0.2546 -0.1118
   17CHTO  H139 6920   6.751   7.066   0.954  1.2168  0.8087  2.0745
   17CHTO  H140 6921   6.624   6.943   0.932 -0.7630  2.6076 -1.0500
   17CHTO   C76 6922   6.496   6.956   1.177  0.2183  0.1585  0.4285
   17CHTO  H148 6923   6.551   6.877   1.229 -1.9190 -0.9694  1.0214
   17CHTO   O49 6924   6.410   7.014   1.286  0.2775  0.2308 -1.0572
   17CHTO   C77 6925   6.473   7.116   1.358  0.2257 -0.2157  0.1468
   17CHTO  H149 6926   6.555   7.070   1.413  2.2074  0.6635 -1.9503
   17CHTO   C88 6927   6.370   7.176   1.459 -0.2561  0.4094 -0.1393
   17CHTO   O58 6928   6.245   7.246   1.405  0.3339  0.6925  0.0981
   17CHTO  H136 6929   6.167   7.195   1.417 -0.2552  1.7664  0.9635
   17CHTO   O51 6930   6.398   6.910   1.077  0.2484  0.4117  0.0082
   17CHTO   C78 6931   6.304   6.816   1.121 -0.5974  0.3508  0.3766
   17CHTO  H150 6932   6.298   6.817   1.232  1.0322 -1.4180  0.5262
   17CHTO   C80 6933   6.345   6.677   1.081 -0.5308  0.2765  0.2557
   17CHTO  H152 6934   6.365   6.680   0.971  0.0631 -1.7994  0.2912
   17CHTO   O55 6935   6.472   6.653   1.144  0.0173  0.2054 -0.2623
   17CHTO  H134 6936   6.522   6.586   1.102 -0.7325 -0.5066 -0.0264
   17CHTO   C84 6937   6.229   6.578   1.123 -0.6211  0.1407 -0.0720
   17CHTO  H156 6938   6.213   6.570   1.230 -0.0794 -0.7765 -0.0589
   17CHTO   N15 6939   6.278   6.442   1.080  0.5087  0.3717  0.1745
   17CHTO  H143 6940   6.207   6.363   1.091 -1.3263  1.7489 -1.3444
   17CHTO  H144 6941   6.372   6.417   1.124 -0.0226  0.5834  1.4344
   17CHTO   C87 6942   6.094   6.615   1.054  0.8929 -0.6611  0.6224
   17CHTO  H159 6943   6.088   6.607   0.946  1.1153  1.6576  0.4223
   17CHTO   O53 6944   6.065   6.770   1.094 -0.0605 -0.0237 -0.1222
   17CHTO   C82 6945   6.174   6.862   1.054 -0.6429  0.2495 -0.2353
   17CHTO  H154 6946   6.179   6.858   0.945  2.1729 -1.8743 -0.0640
   17CHTO   C89 6947   6.135   7.000   1.094  0.2224 -0.0291  0.0818
   17CHTO   O59 6948   6.013   7.049   1.035 -0.5998 -0.2003 -0.3491
   17CHTO  H137 6949   5.939   7.025   1.087  0.7097  0.2497  1.7658
   17CHTO   O45 6950   5.970   6.530   1.109  0.1890 -0.6788  0.4239
   17CHTO   C67 6951   5.854   6.513   1.027  0.2244  0.4463  0.5509
   17CHTO  H124 6952   5.773   6.514   1.099 -1.4822 -0.5787 -1.3046
   17CHTO   C65 6953   5.812   6.621   0.921 -1.4105  0.0941 -0.1250
   17CHTO  H122 6954   5.900   6.669   0.879 -0.5847 -1.2921 -0.0240
   17CHTO   O44 6955   5.753   6.724   1.003  0.0298 -0.5737 -0.9834
   17CHTO  H102 6956   5.665   6.703   1.027  1.3787 -1.2169  3.9411
   17CHTO   C63 6957   5.728   6.560   0.796  0.4480 -0.1013  0.8438
   17CHTO  H120 6958   5.793   6.519   0.718 -0.9373 -0.2938 -0.2333
   17CHTO   N11 6959   5.652   6.656   0.720  0.7279 -0.7605  0.0294
   17CHTO  H108 6960   5.558   6.611   0.697 -0.2199  0.7606  0.8750
   17CHTO  H109 6961   5.644   6.745   0.779  1.1079 -1.1944  0.7456
   17CHTO   C61 6962   5.646   6.436   0.842  0.1351 -0.0596  0.0305
   17CHTO  H118 6963   5.607   6.389   0.750  1.9982 -0.3917 -0.6025
   17CHTO   O40 6964   5.733   6.340   0.904 -0.3101 -0.2659 -0.0401
   17CHTO   C68 6965   5.853   6.370   0.973 -0.6504  0.2362  0.0063
   17CHTO  H125 6966   5.938   6.344   0.907  1.6555  1.7832  2.2549
   17CHTO   C72 6967   5.862   6.271   1.082  0.1444  0.5135  0.0519
   17CHTO   O48 6968   5.929   6.147   1.046  0.0336  0.4567  0.1523
   17CHTO  H105 6969   5.870   6.093   0.999  0.3814  2.7215 -2.9998
   17CHTO   O38 6970   5.543   6.473   0.942  0.2787  0.4617 -0.3977
   17CHTO   C55 6971   5.474   6.386   1.033 -0.2471  0.2531  0.3875
   17CHTO  H112 6972   5.538   6.342   1.110  0.6568  0.5429 -0.1875
   17CHTO   C56 6973   5.402   6.273   0.947  0.0044  0.0010 -0.1972
   17CHTO  H113 6974   5.363   6.330   0.861  1.9907  0.1973 -0.9900
   17CHTO   O42 6975   5.507   6.188   0.897 -0.2169 -0.1608  0.2522
   17CHTO  H100 6976   5.554   6.167   0.976 -1.1272  0.9161  1.0946
   17CHTO   C57 6977   5.288   6.197   1.018  0.3830  0.0967 -0.1139
   17CHTO  H114 6978   5.339   6.144   1.099 -1.6754  1.0141  1.8500
   17CHTO   N10 6979   5.211   6.111   0.918  0.0605  0.0397 -0.4381
   17CHTO  H106 6980   5.138   6.174   0.869  0.2437  0.4783 -0.1529
   17CHTO  H107 6981   5.163   6.027   0.967 -0.9011  0.0222 -1.3762
   17CHTO   C58 6982   5.197   6.295   1.092  0.1678 -0.2461 -0.1091
   17CHTO  H115 6983   5.151   6.365   1.019  0.8879 -1.0402 -1.3323
   17CHTO   O37 6984   5.274   6.371   1.182  0.2855  0.2186  0.0007
   17CHTO   C59 6985   5.361   6.467   1.115  0.0017  0.3420 -0.2361
   17CHTO  H116 6986   5.301   6.530   1.050  1.6159  1.9492 -0.1995
   17CHTO   C70 6987   5.436   6.561   1.216  0.0510 -0.4328 -0.4000
   17CHTO   O46 6988   5.367   6.621   1.328  0.0297  0.3544 -0.6782
   17CHTO  H103 6989   5.411   6.704   1.329 -1.5905  1.1994  1.5273
   17CHTO   O39 6990   5.063   6.209   1.174  0.1478  0.3940 -0.0690
   17CHTO   C60 6991   4.953   6.304   1.198 -0.3259 -0.6505 -0.3308
   17CHTO  H117 6992   4.986   6.406   1.181 -0.7284 -0.4623  0.0053
   17CHTO   C62 6993   4.836   6.290   1.096 -0.1318  0.9111 -0.0394
   17CHTO  H119 6994   4.884   6.310   0.998  1.2381 -0.9028  0.2271
   17CHTO   O43 6995   4.773   6.161   1.088 -0.0469  0.0404 -0.5582
   17CHTO  H101 6996   4.834   6.095   1.061  0.2886 -0.4155  1.2587
   17CHTO   C66 6997   4.727   6.408   1.119  0.0500  0.6722 -0.3006
   17CHTO  H123 6998   4.775   6.506   1.122 -0.0208  0.7079 -0.3509
   17CHTO   N12 6999   4.623   6.419   1.016 -0.4047 -0.0921  0.6432
   17CHTO  H110 7000   4.674   6.428   0.921 -2.8833 -1.0217 -0.8129
   17CHTO  H111 7001   4.559   6.332   1.008 -0.8647  0.4360 -1.9038
   17CHTO   C69 7002   4.669   6.397   1.265  0.8885 -0.2665  0.2679
   17CHTO  H126 7003   4.613   6.304   1.289 -2.5088  1.7772  0.4897
   17CHTO   O41 7004   4.790   6.402   1.355  0.0851  0.0740 -0.1636
   17CHTO   C64 7005   4.897   6.306   1.338  0.7088  0.2747  0.0446
   17CHTO  H121 7006   4.854   6.204   1.347 -0.6427  0.9601  1.3961
   17CHTO   C71 7007   4.992   6.325   1.458  0.2955 -0.5955 -0.0515
   17CHTO   O47 7008   5.111   6.252   1.450  0.5375  0.2688 -0.0714
   17CHTO  H104 7009   5.146   6.251   1.363  1.0385  0.7299  0.1235
   17CHTO   O34 7010   4.571   6.503   1.316 -0.3866  0.1043 -0.1707
   17CHTO   C49 7011   4.437   6.580   1.352  0.5534 -0.5471  0.8429
   17CHTO   H91 7012   4.463   6.683   1.375  1.3430 -1.1903  2.9554
   17CHTO   C47 7013   4.362   6.519   1.474 -0.4985 -0.8859  0.2183
   17CHTO   H89 7014   4.287   6.597   1.501  1.8165  1.5933 -0.3363
   17CHTO   O33 7015   4.444   6.496   1.590 -0.2585 -0.1250 -0.1305
   17CHTO   H70 7016   4.379   6.471   1.653  0.0962 -1.1886 -0.1901
   17CHTO   C45 7017   4.300   6.376   1.433  0.5539 -0.3344 -0.1187
   17CHTO   H87 7018   4.378   6.305   1.466  0.0746 -0.1561  1.4321
   17CHTO    N8 7019   4.179   6.351   1.521  0.2814 -0.6247  0.4404
   17CHTO   H75 7020   4.104   6.393   1.456  0.7992 -1.4807 -0.7103
   17CHTO   H76 7021   4.177   6.418   1.606 -2.3253  0.0308 -0.0951
   17CHTO   C43 7022   4.278   6.353   1.274 -0.6853 -0.6571 -0.7607
   17CHTO   H85 7023   4.378   6.320   1.245  0.2083  1.8943 -0.7140
   17CHTO   O29 7024   4.246   6.479   1.219  0.5464  0.3828 -0.1483
   17CHTO   C50 7025   4.336   6.586   1.238 -0.8473 -0.1735  0.2728
   17CHTO   H92 7026   4.403   6.586   1.150 -0.3229  0.7813  0.6693
   17CHTO   C54 7027   4.240   6.698   1.213  0.2217  0.2148  0.4508
   17CHTO   O36 7028   4.311   6.827   1.209 -0.0404  0.2520  0.1194
   17CHTO   H72 7029   4.247   6.894   1.223  0.5811  0.3946  2.5803
   17CHTO   O27 7030   4.192   6.245   1.232 -0.5843 -0.1938  0.3479
   17CHTO   C37 7031   4.192   6.104   1.224  0.4654 -1.0342 -0.1471
   17CHTO   H79 7032   4.279   6.072   1.283 -0.1386 -2.5667 -0.0504
   17CHTO   C38 7033   4.065   6.042   1.284 -0.1382  0.8977 -0.0114
   17CHTO   H80 7034   3.981   6.088   1.231 -0.2065  0.5358 -0.2137
   17CHTO   O31 7035   4.041   6.076   1.421  0.4389  0.7036  0.3698
   17CHTO   H68 7036   3.972   6.140   1.417  0.7833  0.9900 -2.0460
   17CHTO   C39 7037   4.070   5.885   1.275 -0.4418 -0.1966 -0.0671
   17CHTO   H81 7038   4.148   5.858   1.346 -0.8209 -4.6681 -1.1622
   17CHTO    N7 7039   3.956   5.811   1.328 -0.5828 -0.1426  0.5520
   17CHTO   H73 7040   3.937   5.714   1.284  1.4883 -0.4802  0.3771
   17CHTO   H74 7041   3.879   5.887   1.327 -2.0193 -1.5284 -2.8538
   17CHTO   C40 7042   4.094   5.838   1.124 -0.0955  0.4927  0.1971
   17CHTO   H82 7043   4.012   5.834   1.052 -0.9415 -0.7350  1.2055
   17CHTO   O26 7044   4.208   5.912   1.071  0.0138  0.2655  0.7260
   17CHTO   C41 7045   4.212   6.056   1.078 -0.1568 -0.2551 -0.0324
   17CHTO   H83 7046   4.135   6.099   1.012 -2.2562 -4.1200 -0.2374
   17CHTO   C52 7047   4.349   6.103   1.011 -0.0157  0.3511 -0.4451
   17CHTO   O35 7048   4.461   6.050   1.096 -0.3136 -0.3338  0.5127
   17CHTO   H71 7049   4.538   6.045   1.042  0.5234 -2.0402  1.7769
   17CHTO   O28 7050   4.131   5.700   1.111 -0.2179 -0.2907 -0.3224
   17CHTO   C42 7051   4.270   5.642   1.114  0.0881 -0.0773  0.7561
   17CHTO   H84 7052   4.256   5.535   1.130 -0.4725 -0.2975 -1.0622
   17CHTO   C44 7053   4.368   5.689   1.223  0.6281  0.5249  0.2611
   17CHTO   H86 7054   4.388   5.796   1.218 -0.8904  0.8280  0.4934
   17CHTO   O32 7055   4.309   5.655   1.356 -0.1392 -0.2695  0.0803
   17CHTO   H69 7056   4.272   5.728   1.402  0.7351  0.8888 -0.9956
   17CHTO   C48 7057   4.511   5.623   1.208  0.3048 -0.1614 -0.0251
   17CHTO   H90 7058   4.500   5.515   1.216  1.2876 -0.1304  1.9972
   17CHTO    N9 7059   4.607   5.664   1.312 -0.1727 -0.5493 -0.4307
   17CHTO   H77 7060   4.631   5.579   1.374 -1.7314 -1.3592 -0.9137
   17CHTO   H78 7061   4.585   5.757   1.363  0.3649 -0.3533 -0.5452
   17CHTO   C51 7062   4.563   5.645   1.057 -0.8229 -0.6844  0.4225
   17CHTO   H93 7063   4.568   5.753   1.044  2.9874 -0.7712  0.5403
   17CHTO   O30 7064   4.472   5.583   0.966 -0.0667 -0.3106 -0.1880
   17CHTO   C46 7065   4.339   5.652   0.963  0.3118  0.1598  0.1835
   17CHTO   H88 7066   4.348   5.754   0.927 -0.0440 -0.2030 -0.9661
   17CHTO   C53 7067   4.258   5.563   0.851  0.3806 -0.3471 -0.6566
   17CHTO   O72 7068   4.124   5.613   0.840 -0.3692  0.0753  0.0684
   17CHTO  H199 7069   4.075   5.594   0.917 -3.1558  0.8920 -1.4117
   17CHTO   O22 7070   4.687   5.582   1.028  0.2443  0.0780 -0.2181
   17CHTO   C31 7071   4.770   5.619   0.906  0.0312  0.3470 -0.1987
   17CHTO   H59 7072   4.866   5.563   0.901  1.0763  2.1264 -0.6019
   17CHTO   C29 7073   4.693   5.589   0.776 -0.2500 -0.2641  0.4292
   17CHTO   H57 7074   4.604   5.654   0.775 -1.6869 -2.1874 -0.0423
   17CHTO   O21 7075   4.639   5.460   0.788 -0.1100  0.9153 -0.0199
   17CHTO   H37 7076   4.594   5.448   0.706 -0.2786 -1.5172  0.3930
   17CHTO   C27 7077   4.780   5.615   0.650 -0.1681 -0.4455  0.7583
   17CHTO   H55 7078   4.869   5.550   0.652  0.6537  0.6776  1.7029
   17CHTO    N5 7079   4.697   5.591   0.521 -0.3811 -0.1241  0.8266
   17CHTO   H43 7080   4.680   5.677   0.458  1.6264 -1.2355 -1.2656
   17CHTO   H44 7081   4.602   5.542   0.541 -0.5415 -0.0012  0.3667
   17CHTO   C25 7082   4.832   5.764   0.657 -0.3884 -0.4099 -0.6054
   17CHTO   H53 7083   4.746   5.832   0.652 -0.6993 -0.6682  0.8029
   17CHTO   O17 7084   4.896   5.797   0.784 -0.1938 -0.0486 -0.0531
   17CHTO   C32 7085   4.814   5.774   0.899 -0.0092  0.3778  0.1086
   17CHTO   H60 7086   4.721   5.830   0.896 -0.5257 -0.4646  0.2478
   17CHTO   C36 7087   4.894   5.801   1.032  0.1636 -0.3356 -0.1118
   17CHTO   O25 7088   4.943   5.934   1.040  0.2075 -0.2290  0.0030
   17CHTO   H40 7089   4.881   5.994   1.002  2.0624  0.4639 -1.9945
   17CHTO   O15 7090   4.919   5.791   0.548  0.0584  0.7911 -0.1446
   17CHTO   C19 7091   4.958   5.920   0.496 -0.0408 -0.2573  1.0770
   17CHTO   H47 7092   5.016   5.892   0.407  0.6641  0.8460  1.1824
   17CHTO   C20 7093   4.842   6.015   0.452  0.5315  0.0946 -0.2213
   17CHTO   H48 7094   4.767   6.031   0.530 -0.2971  0.4221 -1.0747
   17CHTO   O19 7095   4.772   5.958   0.344  0.1311  0.1740  0.1287
   17CHTO   H35 7096   4.718   5.896   0.390  0.6972 -1.2314 -1.0450
   17CHTO   C21 7097   4.896   6.163   0.411 -0.0213 -0.0705 -0.0591
   17CHTO   H49 7098   4.960   6.154   0.323 -0.6430  0.4946 -0.5764
   17CHTO    N4 7099   4.783   6.256   0.376 -1.0168 -0.0830 -0.4687
   17CHTO   H41 7100   4.779   6.346   0.435 -0.8457  1.4598 -2.7923
   17CHTO   H42 7101   4.778   6.282   0.272  1.9674 -0.7021 -0.8103
   17CHTO   C22 7102   4.989   6.213   0.528 -0.2912  0.5006 -0.3246
   17CHTO   H50 7103   4.923   6.221   0.614  0.4663 -0.0898  0.3122
   17CHTO   O14 7104   5.089   6.118   0.546 -0.9339 -0.0053  0.2593
   17CHTO   C23 7105   5.057   5.991   0.599  0.1854 -0.1990 -0.6046
   17CHTO   H51 7106   5.007   6.010   0.695 -1.2878  0.7924 -1.5582
   17CHTO   C34 7107   5.187   5.905   0.610  0.0474  0.1048 -0.2857
   17CHTO   O23 7108   5.151   5.776   0.664  0.3726 -0.2496 -0.3618
   17CHTO   H38 7109   5.103   5.738   0.592 -2.0887 -1.8227  2.0270
   17CHTO   O16 7110   5.040   6.348   0.509  0.0993  0.4106 -0.3923
   17CHTO   C24 7111   5.091   6.426   0.651 -0.2207  0.3165 -0.1491
   17CHTO   H52 7112   5.115   6.353   0.729 -0.0533 -0.2968 -0.7727
   17CHTO   C26 7113   4.979   6.522   0.703 -0.7075 -0.5078  0.2904
   17CHTO   H54 7114   4.948   6.591   0.622  0.9332 -0.9915 -0.7681
   17CHTO   O20 7115   4.869   6.439   0.740 -0.1911  0.2120 -0.0178
   17CHTO   H36 7116   4.892   6.388   0.816 -1.8418 -1.1425 -0.4152
   17CHTO   C30 7117   5.041   6.609   0.820 -0.1247 -0.4396 -0.3944
   17CHTO   H58 7118   5.066   6.540   0.902  2.3137 -0.1570 -0.8647
   17CHTO    N6 7119   4.948   6.712   0.863  0.2751  0.4037  0.1371
   17CHTO   H45 7120   4.897   6.756   0.779 -0.8528  1.4552  1.3548
   17CHTO   H46 7121   4.876   6.670   0.932  0.9193 -2.4718 -0.8398
   17CHTO   C33 7122   5.173   6.680   0.773 -0.5881  0.7681  0.5863
   17CHTO   H61 7123   5.147   6.753   0.695  0.0326  2.1406  1.6307
   17CHTO   O18 7124   5.272   6.590   0.721 -0.9152 -0.6158  0.4167
   17CHTO   C28 7125   5.224   6.500   0.614 -0.2642  0.5918  0.3738
   17CHTO   H56 7126   5.199   6.559   0.526 -0.9809  1.0472  0.8755
   17CHTO   C35 7127   5.338   6.402   0.561  1.0433 -0.2550  0.0765
   17CHTO   O24 7128   5.451   6.477   0.524  0.1635  0.6036 -1.0980
   17CHTO   H39 7129   5.523   6.441   0.571 -2.6189 -1.2377  1.9199
   17CHTO    O9 7130   5.229   6.760   0.877  0.3137 -0.1973  0.6887
   17CHTO   C13 7131   5.336   6.862   0.819 -0.2466 -0.0548  1.0645
   17CHTO   H26 7132   5.386   6.810   0.735 -0.0202  0.2396  1.0148
   17CHTO   C11 7133   5.447   6.910   0.930 -0.0206  0.2626 -0.0943
   17CHTO   H24 7134   5.503   6.821   0.963 -1.0098  0.1157  1.2231
   17CHTO    O8 7135   5.386   6.973   1.045 -0.0823  0.6824 -0.1761
   17CHTO    H3 7136   5.337   7.046   1.014 -4.4914 -1.9346  0.2664
   17CHTO    C9 7137   5.534   7.003   0.849 -0.5072  0.6651  0.3561
   17CHTO   H22 7138   5.548   6.950   0.753 -2.9317 -0.2001  0.4363
   17CHTO    N2 7139   5.664   7.023   0.917  0.7290 -0.5851  0.1911
   17CHTO   H10 7140   5.664   7.109   0.982 -0.2082  1.2273 -2.1212
   17CHTO   H11 7141   5.692   6.934   0.970 -0.6326 -1.2649 -0.2187
   17CHTO    C7 7142   5.461   7.138   0.812 -0.2247  0.0264 -0.1309
   17CHTO   H20 7143   5.534   7.203   0.758  0.0525  0.5430  0.8554
   17CHTO    O4 7144   5.353   7.099   0.725  0.3826  0.2043  0.6476
   17CHTO   C14 7145   5.264   6.993   0.759  0.0159  0.0365  0.7268
   17CHTO   H27 7146   5.218   6.957   0.665  1.2080  0.1145  0.1054
   17CHTO   C18 7147   5.153   7.060   0.839 -0.1355  0.2379  0.3138
   17CHTO   O13 7148   5.067   7.148   0.755  0.1251 -0.1380 -0.4262
   17CHTO    H7 7149   5.104   7.234   0.755 -1.3085  0.5068 -1.2657
   17CHTO    O2 7150   5.401   7.233   0.949  0.6593 -0.0449 -0.1211
   17CHTO    C1 7151   5.411   7.381   0.955 -0.4207  0.3456 -0.1054
   17CHTO   H14 7152   5.352   7.435   0.877  0.0455 -0.6664 -1.1811
   17CHTO    C2 7153   5.558   7.453   0.957  0.1553  0.4879 -0.4707
   17CHTO   H15 7154   5.627   7.378   0.998 -0.5150 -0.0781 -0.3638
   17CHTO    O6 7155   5.592   7.466   0.817 -0.1554  0.1062  0.4549
   17CHTO    H1 7156   5.517   7.467   0.761 -0.5049  2.3448  0.9162
   17CHTO    C3 7157   5.563   7.594   1.038 -0.1129  0.1618  0.2438
   17CHTO   H16 7158   5.523   7.675   0.975 -1.0665 -0.1471  0.4369
   17CHTO    N1 7159   5.708   7.629   1.067 -0.2598 -0.0434  0.0562
   17CHTO    H8 7160   5.712   7.690   1.156 -0.6867 -0.2351  0.2078
   17CHTO    H9 7161   5.774   7.545   1.080 -0.2337 -0.1806 -0.9390
   17CHTO    C4 7162   5.472   7.598   1.164  0.0797  0.7979  0.1169
   17CHTO   H17 7163   5.504   7.534   1.246  0.3438  0.9387  0.1215
   17CHTO    O1 7164   5.344   7.560   1.122  0.4365 -0.1089  0.0947
   17CHTO    C5 7165   5.329   7.421   1.081  0.3075  0.4855  0.5505
   17CHTO   H18 7166   5.355   7.347   1.156  0.4207 -2.5384 -2.3293
   17CHTO   C16 7167   5.184   7.403   1.050  0.4943 -0.5736  0.1088
   17CHTO   O11 7168   5.108   7.421   1.166 -0.6005 -0.1760  0.1108
   17CHTO    H5 7169   5.096   7.345   1.221 -2.7800  0.9729  1.3094
   17CHTO    O3 7170   5.455   7.734   1.215  0.1960  0.7120 -0.0760
   17CHTO    C6 7171   5.449   7.764   1.359  0.2548 -0.4375 -0.5104
   17CHTO   H19 7172   5.419   7.867   1.378  1.6847 -0.5285  2.4678
   17CHTO    C8 7173   5.346   7.673   1.433  0.2467 -0.2749  0.2261
   17CHTO   H21 7174   5.374   7.571   1.409 -0.9445 -0.0718 -2.1213
   17CHTO    O7 7175   5.219   7.698   1.374  0.0725  0.8738 -0.2749
   17CHTO    H2 7176   5.172   7.618   1.374 -0.1512  1.0030  0.0081
   17CHTO   C12 7177   5.350   7.693   1.592  0.3621 -0.6573 -0.0863
   17CHTO   H25 7178   5.312   7.796   1.609  2.4377 -0.0118  0.7269
   17CHTO    N3 7179   5.242   7.610   1.662 -0.4712 -0.1754 -0.0721
   17CHTO   H12 7180   5.152   7.670   1.674 -1.1167 -1.2672  0.6671
   17CHTO   H13 7181   5.279   7.578   1.758 -2.9115 -1.2247  0.5559
   17CHTO   C15 7182   5.493   7.684   1.640  0.1159  0.2695 -0.0233
   17CHTO   H28 7183   5.530   7.582   1.629  0.9561  0.6291 -0.5863
   17CHTO   O10 7184   5.508   7.716   1.793  0.2828 -0.0322  0.1149
   17CHTO    H4 7185   5.489   7.808   1.792  0.2037 -0.0528 -1.9359
   17CHTO    O5 7186   5.568   7.782   1.569  0.1698 -0.5933  0.2708
   17CHTO   C10 7187   5.586   7.755   1.429  0.5498  0.5548  0.3489
   17CHTO   H23 7188   5.623   7.653   1.421 -0.4488  0.2650 -0.6890
   17CHTO   C17 7189   5.684   7.860   1.385 -0.3548 -0.5007  0.0102
   17CHTO   O12 7190   5.634   7.996   1.406 -0.7611  0.1886  0.8415
   17CHTO    H6 7191   5.668   8.050   1.337 -1.0746 -0.6729 -0.0017
   18CHTO  H203 7192   6.838   7.627   2.052  0.8196  2.0555 -2.5320
   18CHTO   O82 7193   6.823   7.554   1.995 -0.4736 -0.0078  0.2980
   18CHTO  C123 7194   6.861   7.604   1.864  0.7572  0.4397  0.2384
   18CHTO  H227 7195   6.970   7.611   1.860  0.7762 -0.3571 -0.9863
   18CHTO   O77 7196   6.801   7.516   1.767 -0.1837  0.3037 -0.1867
   18CHTO  C118 7197   6.825   7.526   1.627  0.6523 -0.9774  0.4481
   18CHTO  H222 7198   6.931   7.509   1.605  0.4137  0.9310 -2.4521
   18CHTO  C125 7199   6.743   7.432   1.546  0.1111  0.5285  0.7639
   18CHTO   O84 7200   6.605   7.455   1.578 -0.3195 -0.2014 -0.0258
   18CHTO  H205 7201   6.553   7.385   1.545 -2.7326  1.1804  0.6316
   18CHTO  C114 7202   6.779   7.668   1.582  0.0406 -0.2172  0.0642
   18CHTO  H218 7203   6.672   7.680   1.595 -0.2937 -2.5439 -0.4203
   18CHTO  C116 7204   6.849   7.778   1.673  0.8094  0.1859 -0.5601
   18CHTO  H220 7205   6.959   7.780   1.658  1.4467  0.8797  3.6933
   18CHTO   O79 7206   6.799   7.908   1.639 -0.7828  0.3239 -0.0773
   18CHTO  H201 7207   6.867   7.969   1.619  1.9040 -2.0999  1.2608
   18CHTO  C120 7208   6.804   7.750   1.826  0.3953  0.6872  0.5809
   18CHTO  H224 7209   6.693   7.744   1.820  0.5032 -2.3790  0.7350
   18CHTO   N21 7210   6.845   7.855   1.926  0.2853 -0.1928 -0.4611
   18CHTO  H211 7211   6.939   7.897   1.895 -0.2886  1.6859  0.2446
   18CHTO  H212 7212   6.851   7.826   2.029  0.4468 -1.8362 -0.9180
   18CHTO   O75 7213   6.816   7.691   1.448  0.0774  0.3390 -0.5178
   18CHTO  C112 7214   6.979   7.692   1.390 -0.2331  0.3003  0.9383
   18CHTO  H216 7215   7.033   7.606   1.434  2.3413  2.0881  1.4261
   18CHTO   O73 7216   7.038   7.818   1.426  0.3173 -0.2866 -0.4386
   18CHTO  C113 7217   7.150   7.872   1.358 -0.5896 -0.0790 -0.5330
   18CHTO  H217 7218   7.240   7.818   1.394 -1.6967 -1.3692  0.3290
   18CHTO  C124 7219   7.184   8.018   1.398 -0.0385  0.2176 -0.0244
   18CHTO   O83 7220   7.309   8.062   1.344 -0.0138 -0.0280 -0.5169
   18CHTO  H204 7221   7.304   8.098   1.258  1.0804 -0.9500 -0.9738
   18CHTO  C109 7222   7.142   7.850   1.200 -0.8380  0.4407 -0.4682
   18CHTO  H213 7223   7.065   7.920   1.163  0.2148  1.1019 -1.4717
   18CHTO  C110 7224   7.098   7.706   1.158  0.3167  0.0679 -0.0217
   18CHTO  H214 7225   7.171   7.632   1.192  0.3636 -0.5469 -1.4622
   18CHTO   O78 7226   7.087   7.680   1.015  0.3544 -0.1901 -0.0713
   18CHTO  H200 7227   7.173   7.664   0.982  0.0555  1.5686 -1.7907
   18CHTO  C111 7228   6.966   7.673   1.230  0.6850  0.0895 -0.2724
   18CHTO  H215 7229   6.892   7.750   1.203 -0.1676  0.0188  1.7631
   18CHTO   N19 7230   6.910   7.538   1.200 -0.0755 -0.1019  0.0542
   18CHTO  H207 7231   6.853   7.534   1.108 -0.3854  2.9074  0.0620
   18CHTO  H208 7232   6.853   7.503   1.284  0.1728  0.9040  0.6458
   18CHTO   O74 7233   7.278   7.890   1.143  0.0860  0.0688 -0.6732
   18CHTO  C115 7234   7.277   7.952   1.004  0.0734 -0.8755  0.3503
   18CHTO  H219 7235   7.206   7.904   0.937  0.8630 -0.6240 -0.6746
   18CHTO   O76 7236   7.212   8.123   1.011 -0.2611 -0.9087 -0.3157
   18CHTO  C122 7237   7.177   8.172   0.881  0.4949 -0.2100 -0.6902
   18CHTO  H226 7238   7.143   8.275   0.893  3.4773  0.5510  1.7827
   18CHTO  C126 7239   7.050   8.093   0.829  0.3011 -0.2797  0.2759
   18CHTO   O85 7240   6.954   8.161   0.754 -0.8099  0.1648  0.2808
   18CHTO  H206 7241   6.910   8.224   0.809 -0.1025 -0.0414  1.0935
   18CHTO  C121 7242   7.290   8.149   0.778  0.0749 -0.1192  0.5056
   18CHTO  H225 7243   7.245   8.169   0.679 -2.2349 -1.2253  1.3148
   18CHTO   O81 7244   7.389   8.250   0.802  0.5527  0.0088  0.1184
   18CHTO  H202 7245   7.407   8.308   0.730  0.2170 -1.6297 -1.3062
   18CHTO  C119 7246   7.372   8.013   0.773  0.7881  0.4413 -0.5646
   18CHTO  H223 7247   7.307   7.931   0.743  1.7816 -0.1418 -1.1594
   18CHTO  C117 7248   7.410   7.969   0.924 -0.1225  0.1156  0.3707
   18CHTO  H221 7249   7.472   8.039   0.979  0.9026 -1.3545  1.1124
   18CHTO   N20 7250   7.481   7.833   0.930  0.2382 -0.1376 -0.0540
   18CHTO  H209 7251   7.567   7.847   0.993  0.0225  0.5412  0.1008
   18CHTO  H210 7252   7.489   7.791   0.831  2.8375  0.6445 -0.1988
   18CHTO   O80 7253   7.474   8.000   0.676 -0.3429 -0.5808  0.0182
   18CHTO  C103 7254   7.454   7.905   0.539 -0.2294  0.2055  0.4619
   18CHTO  H190 7255   7.536   7.923   0.469 -2.7897  1.2676 -2.4078
   18CHTO  C101 7256   7.441   7.764   0.571  0.0135 -0.4383 -0.1997
   18CHTO  H188 7257   7.359   7.755   0.642 -0.2466  0.7472 -0.3364
   18CHTO   O68 7258   7.585   7.708   0.636 -0.8757 -0.3625 -0.1454
   18CHTO  H168 7259   7.649   7.688   0.571 -0.8992 -0.8087 -0.0346
   18CHTO   C99 7260   7.379   7.680   0.438 -0.2571  0.2943  0.3278
   18CHTO  H186 7261   7.455   7.683   0.358 -0.8217 -2.0017 -0.3515
   18CHTO   N17 7262   7.349   7.539   0.468  0.3520  0.0061  0.4325
   18CHTO  H174 7263   7.442   7.486   0.488 -0.2695 -0.3659  2.3816
   18CHTO  H175 7264   7.284   7.550   0.553 -3.2961 -2.0659 -1.9831
   18CHTO   C97 7265   7.245   7.754   0.378  0.0248  0.1201 -0.2885
   18CHTO  H184 7266   7.174   7.762   0.462 -0.5943  0.3574 -0.8255
   18CHTO   O64 7267   7.302   7.883   0.351  0.0890  0.2409  0.8529
   18CHTO  C104 7268   7.329   7.966   0.465 -0.2163  0.0291  0.0282
   18CHTO  H191 7269   7.243   7.971   0.532 -0.3261 -1.8686  0.0637
   18CHTO  C108 7270   7.348   8.107   0.406  0.8623 -0.4278 -0.2931
   18CHTO   O71 7271   7.220   8.162   0.371 -0.0719  0.1782 -0.3156
   18CHTO  H171 7272   7.194   8.131   0.287  2.2965 -1.0096 -0.6450
   18CHTO   O62 7273   7.183   7.690   0.262 -0.0161  0.7471  0.0060
   18CHTO   C91 7274   7.041   7.714   0.251 -0.3045 -0.6949 -0.4130
   18CHTO  H178 7275   7.005   7.770   0.338 -2.4936 -0.1637 -1.6351
   18CHTO   C92 7276   6.966   7.581   0.249 -0.2726  0.1145  0.1406
   18CHTO  H179 7277   6.993   7.518   0.162 -0.3986  1.6004 -1.0046
   18CHTO   O66 7278   7.013   7.498   0.357 -0.0560 -0.5245 -0.0951
   18CHTO  H166 7279   7.086   7.453   0.318 -0.0837  0.2104 -1.0035
   18CHTO   C93 7280   6.807   7.595   0.250 -0.5370  0.7481 -0.4367
   18CHTO  H180 7281   6.797   7.628   0.354  1.8247 -0.0339  0.0905
   18CHTO   N16 7282   6.742   7.466   0.227 -0.2569  0.0439  0.2695
   18CHTO  H172 7283   6.776   7.430   0.131  0.5013 -0.0033  0.5548
   18CHTO  H173 7284   6.765   7.396   0.305 -1.7604 -1.0022 -0.2195
   18CHTO   C94 7285   6.759   7.709   0.160  0.6713 -0.3792  0.8713
   18CHTO  H181 7286   6.717   7.666   0.069 -1.4309  0.9436  1.1799
   18CHTO   O61 7287   6.856   7.803   0.114 -0.3289  0.2995  0.1372
   18CHTO   C95 7288   6.996   7.772   0.112 -0.0750 -0.5360  0.2837
   18CHTO  H182 7289   7.008   7.700   0.031  2.9566  1.9458 -1.6057
   18CHTO  C106 7290   7.079   7.904   0.078 -0.1243 -0.0437  0.4059
   18CHTO   O69 7291   7.219   7.903   0.060  0.6272 -0.1620 -0.0518
   18CHTO  H169 7292   7.242   7.827   0.010  2.3360  0.4570 -0.2464
   18CHTO   O63 7293   6.650   7.781   0.249  0.2935 -0.2877 -0.0830
   18CHTO   C96 7294   6.622   7.934   0.208 -0.4376  0.1746  0.4308
   18CHTO  H183 7295   6.675   7.944   0.113 -1.0492 -2.4988 -0.2279
   18CHTO   C98 7296   6.699   8.028   0.312  0.9336  0.1872 -0.2826
   18CHTO  H185 7297   6.670   7.998   0.414  0.9188  0.1318 -0.3031
   18CHTO   O67 7298   6.844   8.012   0.309  0.2597  0.0630 -0.0966
   18CHTO  H167 7299   6.877   7.929   0.338  1.4306  0.2747 -0.7653
   18CHTO  C102 7300   6.647   8.182   0.290  0.6953 -0.1561 -0.3788
   18CHTO  H189 7301   6.726   8.228   0.227 -0.6157  2.2748 -0.3009
   18CHTO   N18 7302   6.653   8.263   0.415 -0.5792 -0.0660 -0.2679
   18CHTO  H176 7303   6.607   8.360   0.405  0.4885  0.3058 -1.6904
   18CHTO  H177 7304   6.754   8.272   0.452 -0.7844 -0.1961  0.3431
   18CHTO  C105 7305   6.509   8.195   0.217  0.1734  0.1064  0.6450
   18CHTO  H192 7306   6.430   8.210   0.291 -0.7962 -0.6997 -0.2115
   18CHTO   O65 7307   6.459   8.089   0.137 -0.1212 -0.4945 -0.2061
   18CHTO  C100 7308   6.465   7.959   0.190 -0.3702  0.1300 -0.7212
   18CHTO  H187 7309   6.421   7.955   0.291  1.5130  1.4984  0.1817
   18CHTO  C107 7310   6.405   7.849   0.100  0.0719 -0.4445  0.1921
   18CHTO   O70 7311   6.262   7.870   0.106 -0.1585 -0.4212  0.0914
   18CHTO  H170 7312   6.220   7.835   0.029  1.2110 -0.7079 -0.5512
   18CHTO   O57 7313   6.516   8.331   0.122 -0.2521  0.0548 -0.2054
   18CHTO   C85 7314   6.405   8.394   0.061  0.1175  0.2819  0.8916
   18CHTO  H157 7315   6.438   8.491   0.018  1.1854 -0.0230  1.0122
   18CHTO   C83 7316   6.302   8.452   0.167 -0.5030 -0.8773 -0.0726
   18CHTO  H155 7317   6.367   8.519   0.224 -0.7179 -1.2090  0.5661
   18CHTO   O56 7318   6.253   8.356   0.265 -0.8293 -0.8178 -0.4451
   18CHTO  H135 7319   6.289   8.270   0.256 -0.3767 -0.7169  0.3174
   18CHTO   C81 7320   6.197   8.532   0.091 -0.2154 -0.3185  1.2511
   18CHTO  H153 7321   6.247   8.606   0.028  3.3693 -1.7806  2.3114
   18CHTO   N14 7322   6.116   8.622   0.180  0.4651  0.2882 -0.7748
   18CHTO  H141 7323   6.181   8.643   0.263 -1.1414  2.1263  0.0659
   18CHTO  H142 7324   6.082   8.715   0.140 -0.9395  0.4594  0.7730
   18CHTO   C79 7325   6.112   8.439  -0.001 -0.1107  0.0478 -0.3192
   18CHTO  H151 7326   6.048   8.506  -0.059  0.7876  1.9022  0.7814
   18CHTO   O52 7327   6.204   8.381  -0.102 -0.0894  0.0369 -0.0878
   18CHTO   C86 7328   6.319   8.302  -0.042  0.5878  0.6692  0.2394
   18CHTO  H158 7329   6.267   8.218   0.007  1.7893  0.7341  1.6468
   18CHTO   C90 7330   6.413   8.247  -0.156  0.2872  0.1884  0.1350
   18CHTO   O60 7331   6.460   8.358  -0.236 -0.6450 -0.4404  0.1061
   18CHTO  H138 7332   6.527   8.327  -0.293 -0.2268  1.4855 -0.4621
   18CHTO   O50 7333   6.042   8.339   0.071  0.3101  0.0551  0.2665
   18CHTO   C73 7334   5.917   8.265   0.056  0.1431 -0.4717  0.2955
   18CHTO  H145 7335   5.932   8.193  -0.025  0.2000  1.5143 -1.5041
   18CHTO   C74 7336   5.786   8.353   0.033 -0.0516 -0.0078  0.4794
   18CHTO  H146 7337   5.805   8.404  -0.063  1.8727 -1.4224  0.0591
   18CHTO   O54 7338   5.670   8.262   0.002 -0.2920  0.1212  0.1682
   18CHTO  H133 7339   5.650   8.202   0.071 -1.4251  0.1812 -0.0967
   18CHTO   C75 7340   5.764   8.462   0.149 -0.4059 -0.0984  0.8852
   18CHTO  H147 7341   5.855   8.522   0.161 -0.6499  0.5598 -0.4517
   18CHTO   N13 7342   5.646   8.554   0.136 -0.4290 -0.0293 -0.7950
   18CHTO  H139 7343   5.683   8.650   0.104  1.1783 -1.1623 -2.3855
   18CHTO  H140 7344   5.580   8.516   0.059  0.0467 -0.8866 -0.7785
   18CHTO   C76 7345   5.763   8.380   0.287  0.8814  0.2880 -0.0233
   18CHTO  H148 7346   5.670   8.323   0.287  0.3828  1.0698 -0.9091
   18CHTO   O49 7347   5.875   8.286   0.299  0.5337  0.5425 -0.2400
   18CHTO   C77 7348   5.893   8.194   0.188  0.4876 -0.5264 -0.3669
   18CHTO  H149 7349   5.803   8.133   0.183 -0.1245  0.2587  0.8276
   18CHTO   C88 7350   6.001   8.090   0.210 -0.4425  0.3533  0.4723
   18CHTO   O58 7351   5.990   7.981   0.098  0.0985 -0.0079  0.1717
   18CHTO  H136 7352   5.918   7.989   0.039  1.0705  0.4930 -0.9820
   18CHTO   O51 7353   5.785   8.491   0.400  0.1041 -0.1597  0.2768
   18CHTO   C78 7354   5.779   8.429   0.547 -0.6181  0.3105 -0.3877
   18CHTO  H150 7355   5.773   8.320   0.533 -2.2512  0.6850 -2.7053
   18CHTO   C80 7356   5.657   8.481   0.620  0.7696  0.1234  0.0857
   18CHTO  H152 7357   5.665   8.592   0.625 -2.8651  0.4151  0.6442
   18CHTO   O55 7358   5.547   8.436   0.542  0.2527  0.2912  0.5992
   18CHTO  H134 7359   5.518   8.508   0.489  1.1476 -1.8273 -2.9514
   18CHTO   C84 7360   5.646   8.438   0.767 -0.0566  0.8022 -0.2239
   18CHTO  H156 7361   5.633   8.329   0.770 -0.5062  0.8849  1.8273
   18CHTO   N15 7362   5.532   8.495   0.847 -0.2240 -0.4837  0.4047
   18CHTO  H143 7363   5.551   8.599   0.856  1.4002 -0.5701 -1.7197
   18CHTO  H144 7364   5.438   8.480   0.798 -1.0326  1.8366  1.1918
   18CHTO   C87 7365   5.782   8.463   0.840  0.3818  0.1656  0.7383
   18CHTO  H159 7366   5.795   8.571   0.830  0.8525  0.0968  0.5880
   18CHTO   O53 7367   5.901   8.382   0.750 -0.2094  0.3774 -0.3502
   18CHTO   C82 7368   5.908   8.456   0.625 -0.0317 -0.0516  0.1466
   18CHTO  H154 7369   5.919   8.561   0.653 -1.6037  0.4861 -1.1791
   18CHTO   C89 7370   6.032   8.425   0.538  0.3812 -0.2442  0.6946
   18CHTO   O59 7371   6.068   8.293   0.492 -0.2044 -1.0019 -0.2355
   18CHTO  H137 7372   6.133   8.307   0.426  0.3055 -1.3398  0.1985
   18CHTO   O45 7373   5.780   8.408   1.012  0.6772 -0.0730  0.3066
   18CHTO   C67 7374   5.915   8.429   1.065  0.4065 -0.3366  0.5352
   18CHTO  H124 7375   5.988   8.392   0.994  0.0286 -0.3055  0.1325
   18CHTO   C65 7376   5.940   8.580   1.100 -0.5230  0.3646 -0.0478
   18CHTO  H122 7377   5.842   8.623   1.118  0.2507  2.5671 -0.9242
   18CHTO   O44 7378   5.987   8.627   0.972  0.7224 -0.2484 -0.2544
   18CHTO  H102 7379   5.986   8.720   0.962  1.7182 -0.1837  0.2297
   18CHTO   C63 7380   6.022   8.597   1.239  0.0742 -0.5261  0.0643
   18CHTO  H120 7381   5.950   8.582   1.319  0.1403  0.0279  0.2279
   18CHTO   N11 7382   6.077   8.730   1.261  0.0861  0.0093 -0.3147
   18CHTO  H108 7383   6.035   8.765   1.353  1.6876 -0.0385  0.4455
   18CHTO  H109 7384   6.052   8.788   1.174 -0.0861 -1.3622 -1.1967
   18CHTO   C61 7385   6.129   8.482   1.253  0.3285  0.0782  0.1195
   18CHTO  H118 7386   6.177   8.498   1.351  1.7893 -1.6352 -0.2988
   18CHTO   O40 7387   6.062   8.351   1.258 -0.1296 -0.2171  0.7624
   18CHTO   C68 7388   5.926   8.340   1.192 -1.0516  0.1269  0.2213
   18CHTO  H125 7389   5.850   8.376   1.264 -1.7401  0.7954 -0.8244
   18CHTO   C72 7390   5.905   8.189   1.168  0.1109  0.1541  0.3628
   18CHTO   O48 7391   5.859   8.116   1.279 -0.1174  0.4863  0.3630
   18CHTO  H105 7392   5.842   8.030   1.244  0.3325 -0.4075  2.2745
   18CHTO   O38 7393   6.234   8.493   1.149 -0.2865 -0.2177  0.7288
   18CHTO   C55 7394   6.345   8.406   1.162  0.3340  0.5496 -0.0630
   18CHTO  H112 7395   6.317   8.311   1.210 -0.5186  0.4890 -0.6803
   18CHTO   C56 7396   6.452   8.487   1.251  0.1690 -1.1254  0.9696
   18CHTO  H113 7397   6.441   8.591   1.215  1.9113 -0.1346  3.2168
   18CHTO   O42 7398   6.414   8.478   1.386  0.0492  0.5438  0.0454
   18CHTO  H100 7399   6.429   8.392   1.420  0.5064  1.0309  1.1247
   18CHTO   C57 7400   6.601   8.437   1.235 -0.6870  0.0902 -0.6581
   18CHTO  H114 7401   6.615   8.372   1.321  0.2524  0.5431 -0.4615
   18CHTO   N10 7402   6.701   8.550   1.252 -0.0598  0.2648  0.1985
   18CHTO  H106 7403   6.662   8.645   1.219 -1.1876  0.0303  0.8174
   18CHTO  H107 7404   6.745   8.561   1.351 -0.9688 -0.6602  0.7126
   18CHTO   C58 7405   6.627   8.356   1.105 -0.2571  0.7416 -0.4901
   18CHTO  H115 7406   6.666   8.422   1.025 -1.0030  2.2386  0.3534
   18CHTO   O37 7407   6.508   8.281   1.053  0.0358  0.3091  0.1042
   18CHTO   C59 7408   6.398   8.364   1.024 -0.3750  0.6298  0.1093
   18CHTO  H116 7409   6.433   8.453   0.971 -3.4537  1.2849 -0.9708
   18CHTO   C70 7410   6.286   8.296   0.940 -0.3734 -0.0015 -0.0862
   18CHTO   O46 7411   6.191   8.382   0.878 -0.5130 -0.2918 -0.7083
   18CHTO  H103 7412   6.205   8.469   0.910 -2.4581 -0.7095  1.4487
   18CHTO   O39 7413   6.735   8.240   1.139  0.1094 -0.1712  0.4695
   18CHTO   C60 7414   6.687   8.122   1.202 -0.2540 -0.7312 -0.0346
   18CHTO  H117 7415   6.595   8.150   1.252 -0.0660  1.0555 -0.6486
   18CHTO   C62 7416   6.647   8.004   1.104  0.4590 -0.7031 -0.2757
   18CHTO  H119 7417   6.587   8.053   1.025 -2.1851 -2.1816  0.7628
   18CHTO   O43 7418   6.749   7.933   1.041  0.6831  0.0006  0.1190
   18CHTO  H101 7419   6.734   7.941   0.948  1.8838  3.5850  0.1489
   18CHTO   C66 7420   6.543   7.908   1.176  0.4914 -0.2160  0.2765
   18CHTO  H123 7421   6.476   7.975   1.229  1.6048 -0.7132  2.3912
   18CHTO   N12 7422   6.455   7.822   1.092 -0.0814 -0.8286 -0.0384
   18CHTO  H110 7423   6.507   7.748   1.034  0.9370  1.4947 -2.1553
   18CHTO  H111 7424   6.399   7.883   1.022 -0.7348  1.7031  2.5942
   18CHTO   C69 7425   6.630   7.831   1.283 -0.1122 -0.2382  0.1679
   18CHTO  H126 7426   6.691   7.756   1.228 -1.5328 -1.2690 -0.0226
   18CHTO   O41 7427   6.739   7.931   1.369  0.6037  0.1581 -0.2347
   18CHTO   C64 7428   6.780   8.063   1.317 -0.3846  0.0930 -0.3741
   18CHTO  H121 7429   6.881   8.061   1.271 -0.0424  1.6274  0.2670
   18CHTO   C71 7430   6.793   8.171   1.427 -0.4975 -0.1115 -0.0056
   18CHTO   O47 7431   6.884   8.272   1.390  0.4829  0.0178 -0.0042
   18CHTO  H104 7432   6.852   8.360   1.381  1.7710  0.2354 -2.7097
   18CHTO   O34 7433   6.512   7.762   1.382 -0.6800  0.0478 -0.0125
   18CHTO   C49 7434   6.434   7.808   1.514 -0.2700 -0.9423 -0.6399
   18CHTO   H91 7435   6.471   7.759   1.604 -1.1715  1.2284  0.9416
   18CHTO   C47 7436   6.282   7.756   1.509  0.4198 -0.7768  0.5254
   18CHTO   H89 7437   6.240   7.779   1.610  2.1257  0.4778  0.9732
   18CHTO   O33 7438   6.286   7.615   1.493 -0.0645  0.4487  0.2213
   18CHTO   H70 7439   6.341   7.578   1.559 -1.1422 -0.5833  0.5540
   18CHTO   C45 7440   6.206   7.849   1.397  0.7235  0.5411 -0.3458
   18CHTO   H87 7441   6.256   7.853   1.299 -0.5082  0.9221 -0.9705
   18CHTO    N8 7442   6.068   7.800   1.372 -0.3207 -0.6630  0.4758
   18CHTO   H75 7443   6.062   7.693   1.363 -0.9139 -0.6774  0.9692
   18CHTO   H76 7444   6.016   7.853   1.294  0.7336  1.1143  0.9401
   18CHTO   C43 7445   6.206   8.003   1.438 -0.2410  0.8012  0.1870
   18CHTO   H85 7446   6.167   8.053   1.349  0.0066 -0.3939 -0.6017
   18CHTO   O29 7447   6.345   8.045   1.463 -0.0575  0.1884 -0.5786
   18CHTO   C50 7448   6.430   7.956   1.540 -0.6820  0.6187 -0.3044
   18CHTO   H92 7449   6.529   8.003   1.526 -0.4622  0.3584  0.3698
   18CHTO   C54 7450   6.410   7.987   1.687  0.1674  0.3844 -0.6915
   18CHTO   O36 7451   6.468   8.119   1.720  0.1956  0.5518  0.0522
   18CHTO   H72 7452   6.481   8.143   1.810  0.2581 -0.0425  0.1994
   18CHTO   O27 7453   6.127   8.038   1.555 -0.1384 -0.3565 -0.1896
   18CHTO   C37 7454   6.059   8.132   1.641  0.3462 -0.3100  0.2481
   18CHTO   H79 7455   6.115   8.135   1.735 -0.3282 -1.6316  0.7043
   18CHTO   C38 7456   6.046   8.276   1.588  0.1581 -0.4470 -0.0721
   18CHTO   H80 7457   6.007   8.272   1.485 -0.8667 -0.9714  0.3302
   18CHTO   O31 7458   6.176   8.337   1.588  0.1942  0.0847 -0.1894
   18CHTO   H68 7459   6.174   8.419   1.542 -0.9752 -0.2741 -0.7991
   18CHTO   C39 7460   5.943   8.374   1.667 -0.3314  0.3927  0.2857
   18CHTO   H81 7461   5.999   8.404   1.755  1.3124  2.1109 -1.2953
   18CHTO    N7 7462   5.909   8.501   1.600  0.2702  0.5449  0.2863
   18CHTO   H73 7463   5.830   8.535   1.665  1.9280  3.0145  1.0662
   18CHTO   H74 7464   5.996   8.564   1.594 -0.7846  1.7934 -3.6122
   18CHTO   C40 7465   5.812   8.296   1.713 -0.3299 -0.2793 -0.4851
   18CHTO   H82 7466   5.741   8.283   1.631 -0.2962  1.2270 -0.7648
   18CHTO   O26 7467   5.847   8.168   1.773 -0.1645  0.0172 -0.1148
   18CHTO   C41 7468   5.917   8.076   1.679  0.4984  0.1444 -0.2678
   18CHTO   H83 7469   5.857   8.073   1.587  0.6573 -0.9928 -0.3481
   18CHTO   C52 7470   5.927   7.938   1.735  0.7608  0.1464  0.2133
   18CHTO   O35 7471   5.771   7.877   1.749 -0.8062  0.1634 -0.2227
   18CHTO   H71 7472   5.735   7.906   1.831  2.0255  0.7984  0.8334
   18CHTO   O28 7473   5.755   8.364   1.831 -0.8042  0.2826 -0.1434
   18CHTO   C42 7474   5.613   8.353   1.863  0.7476  0.1057 -0.1856
   18CHTO   H84 7475   5.602   8.390   1.966 -0.8598 -1.1438  0.0987
   18CHTO   C44 7476   5.553   8.208   1.860  0.1036  0.1796 -0.2616
   18CHTO   H86 7477   5.555   8.173   1.757 -1.2955  0.0582 -0.2612
   18CHTO   O32 7478   5.623   8.119   1.958 -0.4766 -0.0383  0.2931
   18CHTO   H69 7479   5.691   8.070   1.915 -1.2493  1.2118 -2.4179
   18CHTO   C48 7480   5.395   8.211   1.896 -0.1708  0.0732 -0.1359
   18CHTO   H90 7481   5.378   8.242   2.000  1.5138 -1.3120  0.5938
   18CHTO    N9 7482   5.336   8.076   1.893  0.4274  0.0012 -0.5588
   18CHTO   H77 7483   5.337   8.046   1.997  0.3731 -0.3447 -0.6585
   18CHTO   H78 7484   5.241   8.064   1.843 -0.4873 -2.2956  1.6363
   18CHTO   C51 7485   5.328   8.304   1.791 -1.0977 -0.1974  0.2986
   18CHTO   H93 7486   5.353   8.255   1.697 -0.4001 -0.8246  0.7965
   18CHTO   O30 7487   5.380   8.439   1.801 -0.4592  0.3009  0.5707
   18CHTO   C46 7488   5.522   8.452   1.779 -0.1494  0.1973  0.1441
   18CHTO   H88 7489   5.541   8.439   1.672 -1.2129  0.3462 -0.0686
   18CHTO   C53 7490   5.551   8.598   1.814  0.1769 -0.0652 -0.0604
   18CHTO   O72 7491   5.458   8.700   1.777 -0.1895 -0.5278 -1.0790
   18CHTO  H199 7492   5.413   8.677   1.698 -1.8612  1.2495 -0.7094
   18CHTO   O22 7493   5.186   8.320   1.807  0.0780 -0.1253 -0.8351
   18CHTO   C31 7494   5.094   8.332   1.692 -0.0055  0.6633 -0.2660
   18CHTO   H59 7495   4.994   8.320   1.738 -0.2709  2.3808 -0.3683
   18CHTO   C29 7496   5.099   8.475   1.635  0.0101  1.4024 -0.4695
   18CHTO   H57 7497   5.205   8.499   1.620  0.5520 -2.1878 -3.2382
   18CHTO   O21 7498   5.043   8.562   1.731 -0.1047  0.4008  0.3233
   18CHTO   H37 7499   5.095   8.581   1.806  0.8534  0.4273 -0.3475
   18CHTO   C27 7500   5.025   8.499   1.501  0.0787  0.0276 -0.4307
   18CHTO   H55 7501   4.918   8.479   1.515  0.2146 -2.1082 -2.0625
   18CHTO    N5 7502   5.041   8.630   1.439  0.6792  0.0957 -0.1171
   18CHTO   H43 7503   5.144   8.653   1.415  0.6781  0.7462  0.4897
   18CHTO   H44 7504   4.983   8.646   1.349 -1.4899 -4.0978  0.4180
   18CHTO   C25 7505   5.073   8.386   1.407 -0.5076 -0.3910 -0.4467
   18CHTO   H53 7506   5.183   8.380   1.408 -0.3544  1.8133 -1.7502
   18CHTO   O17 7507   5.034   8.257   1.454  0.4109  0.4672  0.0376
   18CHTO   C32 7508   5.097   8.226   1.579  0.3051  0.1465 -0.0981
   18CHTO   H60 7509   5.199   8.197   1.553  0.6070  0.6256  0.5498
   18CHTO   C36 7510   5.036   8.093   1.629  0.0395 -0.2110 -0.1532
   18CHTO   O25 7511   5.053   7.986   1.537  0.0190  0.0563  0.0310
   18CHTO   H40 7512   5.116   7.923   1.567  0.2330  0.7937  1.1319
   18CHTO   O15 7513   5.023   8.401   1.240  0.6603  0.3120  0.1743
   18CHTO   C19 7514   5.051   8.317   1.129 -0.7617 -0.6293 -0.4235
   18CHTO   H47 7515   5.020   8.219   1.167  0.3194  0.4155  3.3986
   18CHTO   C20 7516   4.970   8.348   1.007  0.1338  0.4107 -0.1992
   18CHTO   H48 7517   4.996   8.447   0.967  1.1045  0.4850  0.5913
   18CHTO   O19 7518   4.825   8.344   1.036  0.1971 -0.2449 -0.5645
   18CHTO   H35 7519   4.793   8.408   1.097  0.3859 -0.0294 -0.6905
   18CHTO   C21 7520   4.994   8.245   0.891 -0.1787  0.7604  0.1028
   18CHTO   H49 7521   4.975   8.147   0.933  0.3505  1.0470  1.0344
   18CHTO    N4 7522   4.918   8.268   0.767  0.4911  0.1257  0.4542
   18CHTO   H41 7523   4.812   8.280   0.788  0.2894 -0.8846  0.0720
   18CHTO   H42 7524   4.931   8.184   0.699  0.0295  0.1282  0.3581
   18CHTO   C22 7525   5.151   8.236   0.862  0.6297  0.1601 -0.5396
   18CHTO   H50 7526   5.197   8.325   0.821  2.3106 -0.7366 -0.6587
   18CHTO   O14 7527   5.223   8.213   0.983 -0.1683  0.1931 -0.3100
   18CHTO   C23 7528   5.205   8.302   1.087 -0.1605  0.0893  0.2986
   18CHTO   H51 7529   5.250   8.399   1.062 -1.9340  1.0054  0.5888
   18CHTO   C34 7530   5.291   8.248   1.201  0.3801  0.1223 -0.6391
   18CHTO   O23 7531   5.255   8.111   1.232  0.2566 -0.0268  0.2242
   18CHTO   H38 7532   5.282   8.086   1.319  1.9068  0.4727 -0.1155
   18CHTO   O16 7533   5.192   8.116   0.796  0.0901 -0.0147 -0.4962
   18CHTO   C24 7534   5.343   8.102   0.739 -0.5419  0.8700  0.8387
   18CHTO   H52 7535   5.403   8.184   0.779  0.3442  1.7727 -2.1628
   18CHTO   C26 7536   5.346   8.120   0.581  0.1083  0.3980 -0.1763
   18CHTO   H54 7537   5.263   8.058   0.541 -0.1230 -1.0690  2.4643
   18CHTO   O20 7538   5.310   8.249   0.533 -0.5527  0.1902 -0.1925
   18CHTO   H36 7539   5.293   8.253   0.441 -1.8314 -0.5433  0.0055
   18CHTO   C30 7540   5.479   8.075   0.521  0.9765  0.1714  0.7449
   18CHTO   H58 7541   5.550   8.159   0.533  0.2257  0.9423 -0.1425
   18CHTO    N6 7542   5.485   8.044   0.376  0.5260 -0.8819  0.0222
   18CHTO   H45 7543   5.582   8.000   0.354  0.5365 -0.1088 -1.5812
   18CHTO   H46 7544   5.414   7.966   0.353  0.9473 -0.9975 -0.9257
   18CHTO   C33 7545   5.553   7.958   0.602  0.3955  0.1407  0.1200
   18CHTO   H61 7546   5.509   7.861   0.576  3.0644 -1.0698 -0.0111
   18CHTO   O18 7547   5.541   7.984   0.742 -0.7868 -0.0288  0.1838
   18CHTO   C28 7548   5.410   7.975   0.787 -0.0739  0.0192 -0.2935
   18CHTO   H56 7549   5.363   7.891   0.736 -0.1326 -0.8516  1.1847
   18CHTO   C35 7550   5.407   7.951   0.939  0.5941  0.9140 -0.0734
   18CHTO   O24 7551   5.277   7.922   0.998 -0.3286 -0.2284  0.3280
   18CHTO   H39 7552   5.207   7.966   0.954  0.7382  1.4717  0.2716
   18CHTO    O9 7553   5.688   7.943   0.560  0.7051  0.4011 -0.0638
   18CHTO   C13 7554   5.757   7.839   0.629  0.0226 -0.0426 -0.6338
   18CHTO   H26 7555   5.684   7.784   0.692 -0.5852 -0.0184 -1.3112
   18CHTO   C11 7556   5.865   7.917   0.721 -0.4411  0.1009 -0.3760
   18CHTO   H24 7557   5.815   7.989   0.788 -0.0766  0.1214 -0.1249
   18CHTO    O8 7558   5.938   8.012   0.642 -0.3235 -0.5048 -0.1514
   18CHTO    H3 7559   6.025   8.019   0.677 -0.3508  0.2565 -0.2368
   18CHTO    C9 7560   5.954   7.808   0.793  0.1673 -0.0856 -0.1817
   18CHTO   H22 7561   5.882   7.743   0.845  2.1544  0.3139  3.1648
   18CHTO    N2 7562   6.044   7.855   0.901 -0.1742 -0.8014  0.3624
   18CHTO   H10 7563   6.149   7.835   0.884  0.2039  0.5992  0.9100
   18CHTO   H11 7564   6.017   7.951   0.944 -1.1732 -0.5713 -0.7515
   18CHTO    C7 7565   6.033   7.728   0.681  0.4965 -0.5252  0.5331
   18CHTO   H20 7566   6.092   7.655   0.740  1.6275 -0.6092 -0.6773
   18CHTO    O4 7567   5.944   7.660   0.589  0.6679  0.3023 -0.2197
   18CHTO   C14 7568   5.832   7.732   0.535  0.7642  0.4276  0.5729
   18CHTO   H27 7569   5.769   7.646   0.507  1.9857 -0.5148  0.6919
   18CHTO   C18 7570   5.873   7.800   0.402 -0.3360 -0.2947 -0.2356
   18CHTO   O13 7571   5.919   7.702   0.302  0.4772 -0.7005 -0.1263
   18CHTO    H7 7572   5.918   7.753   0.224 -0.0538  0.1808  0.4466
   18CHTO    O2 7573   6.136   7.824   0.593 -0.8143  0.1091 -0.1023
   18CHTO    C1 7574   6.264   7.767   0.551 -0.5384  0.1892 -0.2289
   18CHTO   H14 7575   6.298   7.820   0.460 -1.0615  0.0211 -0.5265
   18CHTO    C2 7576   6.268   7.614   0.518  0.5645 -0.7236  0.2885
   18CHTO   H15 7577   6.228   7.572   0.611  1.2876  2.9256  2.3322
   18CHTO    O6 7578   6.174   7.587   0.410  0.1137 -0.1237  0.2409
   18CHTO    H1 7579   6.093   7.634   0.422 -0.3959 -0.3025 -2.2578
   18CHTO    C3 7580   6.411   7.571   0.472  0.0396  0.1631 -0.0844
   18CHTO   H16 7581   6.440   7.626   0.381  0.6927 -0.4459 -0.2509
   18CHTO    N1 7582   6.420   7.430   0.436 -0.3025  0.2551 -0.0825
   18CHTO    H8 7583   6.449   7.419   0.332  0.7466  1.9939  0.0049
   18CHTO    H9 7584   6.482   7.365   0.495 -0.4437  0.7994  0.6649
   18CHTO    C4 7585   6.513   7.606   0.586 -0.7140  0.0002  0.4776
   18CHTO   H17 7586   6.494   7.547   0.676 -0.0759  0.3755  0.8595
   18CHTO    O1 7587   6.502   7.740   0.629  0.2245  0.4272 -0.5026
   18CHTO    C5 7588   6.377   7.799   0.658 -0.3964  0.5475 -0.3150
   18CHTO   H18 7589   6.352   7.767   0.760 -1.3554  0.2316 -0.6451
   18CHTO   C16 7590   6.389   7.955   0.655  0.2728  0.8467 -0.1079
   18CHTO   O11 7591   6.456   8.017   0.765  0.4999 -0.6995  0.1764
   18CHTO    H5 7592   6.507   8.086   0.728 -0.2664 -0.4299 -0.3826
   18CHTO    O3 7593   6.649   7.586   0.540  0.1585  0.5171 -0.2796
   18CHTO    C6 7594   6.741   7.538   0.642  0.3093  0.5376  0.2502
   18CHTO   H19 7595   6.707   7.558   0.744  0.7089  1.2465  0.2525
   18CHTO    C8 7596   6.765   7.381   0.620 -0.4424  0.2583  0.6022
   18CHTO   H21 7597   6.801   7.369   0.518 -0.7509 -1.3281  0.6634
   18CHTO    O7 7598   6.641   7.313   0.635  0.0678  0.4680 -0.0587
   18CHTO    H2 7599   6.621   7.263   0.558 -1.4633  0.6935  0.1936
   18CHTO   C12 7600   6.880   7.322   0.725  0.6927 -0.6524 -0.7833
   18CHTO   H25 7601   6.844   7.335   0.830  1.5191  0.7168 -0.6633
   18CHTO    N3 7602   6.901   7.174   0.716 -0.1088 -0.1321  0.5359
   18CHTO   H12 7603   6.888   7.125   0.811 -1.3924 -1.0524 -0.0974
   18CHTO   H13 7604   7.000   7.159   0.675  0.0439  0.2061  0.7793
   18CHTO   C15 7605   7.008   7.410   0.703  0.3312  0.1730 -0.3088
   18CHTO   H28 7606   7.047   7.386   0.604  2.2587 -1.0622  0.7079
   18CHTO   O10 7607   7.115   7.397   0.813 -0.9282  0.0236 -0.6076
   18CHTO    H4 7608   7.148   7.310   0.826  0.6603  0.4921 -1.3128
   18CHTO    O5 7609   6.971   7.549   0.714 -0.1753 -0.0582  0.1805
   18CHTO   C10 7610   6.874   7.614   0.634  0.3463 -0.1212 -0.3717
   18CHTO   H23 7611   6.924   7.619   0.537  1.5257  0.8402  0.2672
   18CHTO   C17 7612   6.867   7.753   0.687 -0.1978  0.1022  0.1196
   18CHTO   O12 7613   6.811   7.844   0.587  0.2598  0.0340 -0.1901
   18CHTO    H6 7614   6.877   7.868   0.525  0.1862  1.1027  0.1475
   19CHTO  H203 7615   5.525   9.348   2.424 -1.0853  0.0300  0.1942
   19CHTO   O82 7616   5.531   9.319   2.335  0.3864 -0.1439  0.3508
   19CHTO  C123 7617   5.496   9.185   2.311  0.0763  0.0829  0.8325
   19CHTO  H227 7618   5.392   9.182   2.274 -1.0243  1.6266  3.6010
   19CHTO   O77 7619   5.577   9.151   2.207  0.4457 -0.3726  0.3627
   19CHTO  C118 7620   5.539   9.021   2.157 -0.9442  0.2581 -0.2525
   19CHTO  H222 7621   5.431   9.026   2.135 -1.1500 -1.3280  0.3236
   19CHTO  C125 7622   5.620   9.001   2.023  0.4686 -0.0302 -0.5574
   19CHTO   O84 7623   5.759   8.999   2.058 -0.8449  0.4923 -0.2362
   19CHTO  H205 7624   5.813   9.009   1.982  0.9577  0.8191  1.0498
   19CHTO  C114 7625   5.563   8.912   2.264  0.3709  0.3113  0.5035
   19CHTO  H218 7626   5.665   8.927   2.300  0.4882 -1.5043  0.9871
   19CHTO  C116 7627   5.475   8.948   2.387 -0.6091  0.1157 -0.3475
   19CHTO  H220 7628   5.370   8.938   2.353  0.4332 -3.9741 -2.7053
   19CHTO   O79 7629   5.483   8.845   2.485  0.2498  0.4276  0.1661
   19CHTO  H201 7630   5.573   8.831   2.509 -0.2754 -0.3427  1.7581
   19CHTO  C120 7631   5.518   9.089   2.438  0.5471  0.6548 -0.6048
   19CHTO  H224 7632   5.628   9.087   2.458  0.6053 -0.5015 -0.9748
   19CHTO   N21 7633   5.442   9.132   2.558 -0.2269 -0.4676  0.1160
   19CHTO  H211 7634   5.497   9.200   2.622  1.3800 -1.6763  0.0551
   19CHTO  H212 7635   5.380   9.060   2.610 -0.1543 -0.6444 -0.0459
   19CHTO   O75 7636   5.538   8.789   2.197 -0.9252  0.0601  0.8451
   19CHTO  C112 7637   5.617   8.682   2.249  1.2807 -0.2142  0.2074
   19CHTO  H216 7638   5.614   8.685   2.359 -2.1876  1.1255  0.1273
   19CHTO   O73 7639   5.755   8.699   2.196 -0.6873  0.5277 -0.2699
   19CHTO  C113 7640   5.854   8.611   2.256 -0.2088 -0.2060  0.1956
   19CHTO  H217 7641   5.845   8.619   2.366  4.4863 -0.3260  0.6730
   19CHTO  C124 7642   5.991   8.652   2.208  0.1760  0.6041 -0.5718
   19CHTO   O83 7643   6.026   8.776   2.265 -0.3264 -0.3828  0.0731
   19CHTO  H204 7644   6.096   8.816   2.217 -0.3017 -1.5573 -0.9090
   19CHTO  C109 7645   5.814   8.466   2.213  0.7104  0.0283  0.1574
   19CHTO  H213 7646   5.811   8.469   2.103  1.2484  0.4269  0.1505
   19CHTO  C110 7647   5.668   8.435   2.268  0.2817 -1.0598 -0.1835
   19CHTO  H214 7648   5.665   8.437   2.377  0.4339  0.8500 -0.1977
   19CHTO   O78 7649   5.641   8.299   2.244 -0.0040  0.0204  0.1071
   19CHTO  H200 7650   5.548   8.290   2.253  0.0379 -3.1321 -1.7467
   19CHTO  C111 7651   5.563   8.537   2.214  0.4425 -0.8777 -0.5505
   19CHTO  H215 7652   5.549   8.530   2.105 -2.3747  2.1153 -0.4643
   19CHTO   N19 7653   5.425   8.516   2.271  0.7806 -0.5940  0.5889
   19CHTO  H207 7654   5.364   8.599   2.237  0.6061 -1.4080 -1.1314
   19CHTO  H208 7655   5.381   8.432   2.220 -0.4444 -0.1502  0.8774
   19CHTO   O74 7656   5.915   8.372   2.261  0.0776 -0.3351 -0.8244
   19CHTO  C115 7657   5.950   8.250   2.153  0.1738 -0.7950  0.8563
   19CHTO  H219 7658   5.863   8.213   2.099  0.9385 -2.9103  1.0176
   19CHTO   O76 7659   6.031   8.297   2.044 -0.1165 -0.6264 -0.0701
   19CHTO  C122 7660   6.177   8.281   2.060 -0.0432  0.2759 -0.7648
   19CHTO  H226 7661   6.220   8.324   2.151  0.1784  0.5460 -0.9965
   19CHTO  C126 7662   6.237   8.352   1.941  0.6789 -0.7077  0.0306
   19CHTO   O85 7663   6.210   8.483   1.893 -0.1254 -0.5935  0.1812
   19CHTO  H206 7664   6.263   8.499   1.817  0.7607 -1.4095  0.6086
   19CHTO  C121 7665   6.215   8.131   2.072  0.4543  0.4366 -0.0676
   19CHTO  H225 7666   6.246   8.100   1.971 -0.1143 -0.9454  0.1745
   19CHTO   O81 7667   6.318   8.116   2.165  0.0054 -0.0126 -0.2670
   19CHTO  H202 7668   6.352   8.029   2.160 -1.3678 -0.5663 -0.3149
   19CHTO  C119 7669   6.090   8.045   2.114  0.7039 -0.1233 -0.5179
   19CHTO  H223 7670   6.031   8.032   2.023 -2.9043  0.1719  1.6715
   19CHTO  C117 7671   6.007   8.129   2.226 -0.5856 -0.2971  0.2226
   19CHTO  H221 7672   6.062   8.172   2.310 -2.0829 -0.1255  1.1408
   19CHTO   N20 7673   5.907   8.040   2.288  0.0310 -0.8864 -0.1466
   19CHTO  H209 7674   5.854   8.003   2.201  0.4275  0.4148 -0.9606
   19CHTO  H210 7675   5.971   7.968   2.336  1.7921  0.7462  0.0113
   19CHTO   O80 7676   6.138   7.879   2.146  0.3465  0.6359 -0.4835
   19CHTO  C103 7677   6.149   7.773   2.025  0.5850 -0.2138 -0.2893
   19CHTO  H190 7678   6.122   7.813   1.927  3.4911  1.8343 -0.3029
   19CHTO  C101 7679   6.289   7.715   1.999 -0.2150 -0.2506 -0.5818
   19CHTO  H188 7680   6.326   7.674   2.092 -1.7608  0.0812  0.1983
   19CHTO   O68 7681   6.393   7.813   1.962  0.7373  0.7345 -0.2500
   19CHTO  H168 7682   6.383   7.828   1.870 -0.1270  1.6814 -0.0019
   19CHTO   C99 7683   6.284   7.617   1.878 -0.1156 -0.0057  0.5175
   19CHTO  H186 7684   6.253   7.682   1.794  2.6910  0.2838 -0.3269
   19CHTO   N17 7685   6.413   7.545   1.839  0.7846  0.0272 -0.0978
   19CHTO  H174 7686   6.433   7.470   1.914 -0.0532  1.3421  1.4804
   19CHTO  H175 7687   6.396   7.500   1.742  0.7970  0.6054 -0.3673
   19CHTO   C97 7688   6.177   7.505   1.889  0.4449  0.0891  0.1135
   19CHTO  H184 7689   6.218   7.432   1.960  1.1953  2.1252  1.8288
   19CHTO   O64 7690   6.049   7.559   1.934 -0.0191 -0.1184 -0.6281
   19CHTO  C104 7691   6.056   7.647   2.052  0.0297  0.3571  0.1587
   19CHTO  H191 7692   6.098   7.592   2.136  0.0756 -1.6616 -1.1665
   19CHTO  C108 7693   5.915   7.686   2.089  0.0828 -0.1623 -0.3903
   19CHTO   O71 7694   5.851   7.577   2.165 -0.2971  0.2471  0.6410
   19CHTO  H171 7695   5.909   7.503   2.166  0.3983  0.7918  2.0524
   19CHTO   O62 7696   6.146   7.454   1.759 -0.0131 -0.4987  0.1981
   19CHTO   C91 7697   6.034   7.358   1.739  0.2900  0.3461  0.2614
   19CHTO  H178 7698   5.975   7.350   1.830 -0.1656 -1.4933 -0.1583
   19CHTO   C92 7699   6.090   7.212   1.710  0.0681  0.0196 -0.5661
   19CHTO  H179 7700   6.172   7.222   1.638 -0.5838 -1.0843 -1.4782
   19CHTO   O66 7701   6.160   7.167   1.828  0.2985 -0.1413 -0.1012
   19CHTO  H166 7702   6.104   7.175   1.903  1.1000  2.0995  0.3063
   19CHTO   C93 7703   5.985   7.110   1.660 -0.0170 -0.4146  0.1820
   19CHTO  H180 7704   5.927   7.075   1.746 -0.2692 -0.1422  0.1248
   19CHTO   N16 7705   6.052   6.997   1.600 -0.2818  0.7323  0.8861
   19CHTO  H172 7706   6.025   6.898   1.635 -1.1281  1.4432  2.2539
   19CHTO  H173 7707   6.103   6.988   1.504 -0.2023  1.7724  0.8317
   19CHTO   C94 7708   5.891   7.179   1.559  0.0119  0.5285  0.3318
   19CHTO  H181 7709   5.941   7.211   1.468  0.3708  1.0253  0.7069
   19CHTO   O61 7710   5.831   7.296   1.619  0.4232  0.2835 -0.1321
   19CHTO   C95 7711   5.938   7.397   1.619 -0.2841 -0.2188 -0.1699
   19CHTO  H182 7712   5.991   7.401   1.524  2.5759  1.1395  1.4163
   19CHTO  C106 7713   5.871   7.533   1.625 -0.7653 -0.0367 -0.3674
   19CHTO   O69 7714   5.800   7.566   1.743 -0.1142 -0.7909 -0.5210
   19CHTO  H169 7715   5.821   7.657   1.757 -0.5254 -0.7600 -0.0691
   19CHTO   O63 7716   5.772   7.089   1.534 -0.1536 -0.0866  0.2395
   19CHTO   C96 7717   5.728   7.094   1.403 -0.1888 -0.0130  1.5031
   19CHTO  H183 7718   5.808   7.081   1.330  0.8130 -1.2180  2.7877
   19CHTO   C98 7719   5.646   7.222   1.359 -0.3989 -0.3056  0.2326
   19CHTO  H185 7720   5.704   7.311   1.385  1.3959 -1.7671  1.3817
   19CHTO   O67 7721   5.642   7.222   1.212  0.2817 -0.4037  0.0342
   19CHTO  H167 7722   5.701   7.287   1.178  2.7945 -1.9109  1.3167
   19CHTO  C102 7723   5.494   7.232   1.408 -0.2179 -0.2691 -1.0237
   19CHTO  H189 7724   5.445   7.276   1.319  0.7749 -1.6753 -2.3003
   19CHTO   N18 7725   5.473   7.320   1.525 -0.0987 -0.5790  0.2474
   19CHTO  H176 7726   5.368   7.314   1.551 -0.6214 -0.9615 -1.8576
   19CHTO  H177 7727   5.502   7.421   1.502 -0.1129 -1.2648 -3.0703
   19CHTO  C105 7728   5.435   7.085   1.430  0.0365 -0.8994  0.2342
   19CHTO  H192 7729   5.437   7.064   1.537  2.8639 -1.5548  0.0817
   19CHTO   O65 7730   5.502   6.992   1.345 -0.1510  0.1951 -0.1327
   19CHTO  C100 7731   5.639   6.962   1.391  1.1100 -0.5179 -0.1902
   19CHTO  H187 7732   5.627   6.909   1.486  2.4906 -0.4587  0.0184
   19CHTO  C107 7733   5.695   6.855   1.292 -0.1973  0.2576 -0.4797
   19CHTO   O70 7734   5.832   6.837   1.323  0.6793  0.0070  0.1118
   19CHTO  H170 7735   5.846   6.804   1.410  1.2302 -0.9529 -0.3215
   19CHTO   O57 7736   5.282   7.100   1.383 -0.3338  0.2958 -0.2427
   19CHTO   C85 7737   5.184   6.998   1.419 -0.3490 -0.3318  0.1953
   19CHTO  H157 7738   5.228   6.930   1.494 -0.7203  0.2150  0.9113
   19CHTO   C83 7739   5.149   6.902   1.297  0.4588  0.6546 -1.0822
   19CHTO  H155 7740   5.236   6.851   1.255 -0.9303  1.5211 -5.3267
   19CHTO   O56 7741   5.099   6.981   1.191  0.1088 -0.0605  0.3091
   19CHTO  H135 7742   5.124   7.070   1.176  0.9767 -0.1083  1.4288
   19CHTO   C81 7743   5.059   6.789   1.355  1.4662  0.4944  0.2378
   19CHTO  H153 7744   5.112   6.743   1.439  1.7604  0.8644  0.2541
   19CHTO   N14 7745   5.016   6.681   1.262  0.3628 -0.0692 -0.1040
   19CHTO  H141 7746   4.919   6.703   1.223 -0.3442 -0.1059  1.5782
   19CHTO  H142 7747   5.081   6.673   1.178  0.8338 -0.9132  0.3341
   19CHTO   C79 7748   4.920   6.856   1.407  0.1818  0.7956  0.4639
   19CHTO  H151 7749   4.872   6.778   1.466  1.4742 -0.7498 -0.4792
   19CHTO   O52 7750   4.943   6.955   1.514  0.0502 -0.1027 -0.1361
   19CHTO   C86 7751   5.040   7.057   1.471 -0.1737 -0.2998  0.0680
   19CHTO  H158 7752   4.994   7.109   1.384  2.2853 -1.8839 -2.2562
   19CHTO   C90 7753   5.050   7.159   1.575  0.7998 -0.1249  0.1024
   19CHTO   O60 7754   4.932   7.240   1.597  1.3159  0.4070 -0.4388
   19CHTO  H138 7755   4.907   7.288   1.521 -0.9222 -0.1094 -0.0825
   19CHTO   O50 7756   4.832   6.913   1.305 -0.0801 -0.2030 -0.3251
   19CHTO   C73 7757   4.697   6.937   1.263 -0.3493 -0.0260  1.0955
   19CHTO  H145 7758   4.642   6.841   1.256 -2.0799  0.8731  2.0518
   19CHTO   C74 7759   4.712   7.010   1.125  0.4803 -0.3633  0.3935
   19CHTO  H146 7760   4.767   6.943   1.057  0.4734 -1.6770  1.6666
   19CHTO   O54 7761   4.583   7.039   1.067  0.1287  0.0262  0.3916
   19CHTO  H133 7762   4.529   7.084   1.130 -0.5814  0.7952 -0.7408
   19CHTO   C75 7763   4.787   7.152   1.143 -0.4082 -0.2849 -0.1552
   19CHTO  H147 7764   4.879   7.138   1.201 -0.5686  0.1033  0.1963
   19CHTO   N13 7765   4.816   7.239   1.026 -0.1172  0.7447 -0.1129
   19CHTO  H139 7766   4.869   7.185   0.950  1.6478  0.2135  1.4461
   19CHTO  H140 7767   4.874   7.325   1.056  0.7140  0.4286 -0.7852
   19CHTO   C76 7768   4.706   7.230   1.256  0.1119 -0.3043 -0.5294
   19CHTO  H148 7769   4.602   7.249   1.231 -0.5749 -0.1532  2.3033
   19CHTO   O49 7770   4.694   7.155   1.381 -0.2804  0.3622  0.0909
   19CHTO   C77 7771   4.633   7.019   1.363  0.1372 -0.5076  0.0186
   19CHTO  H149 7772   4.530   7.035   1.329  0.5036  0.0872 -0.8306
   19CHTO   C88 7773   4.607   6.932   1.490  0.3968  0.3673 -0.0558
   19CHTO   O58 7774   4.522   7.005   1.586 -0.4153  0.2721 -0.2337
   19CHTO  H136 7775   4.447   7.035   1.537  0.7366  2.2047 -0.8830
   19CHTO   O51 7776   4.785   7.354   1.309 -0.0497  0.1638 -0.2653
   19CHTO   C78 7777   4.716   7.495   1.286 -1.1098 -0.3106  0.4110
   19CHTO  H150 7778   4.633   7.490   1.212 -0.3182  0.1499 -0.5193
   19CHTO   C80 7779   4.828   7.589   1.225 -0.1028 -0.3412  1.0621
   19CHTO  H152 7780   4.923   7.578   1.281  0.4941 -1.8868 -0.2228
   19CHTO   O55 7781   4.858   7.545   1.091 -0.5460 -0.2362  0.2855
   19CHTO  H134 7782   4.944   7.569   1.063 -0.9939  0.5891 -0.4174
   19CHTO   C84 7783   4.797   7.742   1.210 -0.0219 -0.1677 -0.3716
   19CHTO  H156 7784   4.718   7.747   1.134 -0.4866  1.4311  0.2037
   19CHTO   N15 7785   4.914   7.830   1.170  0.6878 -0.1501  0.1075
   19CHTO  H143 7786   4.892   7.933   1.149 -0.8315 -0.2001  1.3779
   19CHTO  H144 7787   4.957   7.788   1.081  1.5681  3.0937 -1.0808
   19CHTO   C87 7788   4.723   7.804   1.334  0.0317  0.0006 -0.1489
   19CHTO  H159 7789   4.797   7.830   1.410  0.6501 -0.8035 -0.4601
   19CHTO   O53 7790   4.609   7.701   1.389 -0.7709 -0.6102 -0.0745
   19CHTO   C82 7791   4.659   7.566   1.414 -0.6623  0.0903 -0.2148
   19CHTO  H154 7792   4.738   7.574   1.489  0.0774  1.5386 -1.1275
   19CHTO   C89 7793   4.544   7.474   1.481  0.0209 -0.4864 -0.5440
   19CHTO   O59 7794   4.416   7.479   1.416 -0.4839  0.4769  0.1709
   19CHTO  H137 7795   4.369   7.411   1.462 -0.3549  1.4456  1.7735
   19CHTO   O45 7796   4.649   7.937   1.295  0.0414 -0.4498  0.4704
   19CHTO   C67 7797   4.566   7.982   1.403 -0.2270 -0.3158  0.6423
   19CHTO  H124 7798   4.573   7.907   1.483 -2.8473 -0.4827  0.7803
   19CHTO   C65 7799   4.628   8.112   1.458 -0.2364 -0.3928  0.8855
   19CHTO  H122 7800   4.695   8.145   1.378  1.3515 -1.2917  1.8106
   19CHTO   O44 7801   4.709   8.080   1.573 -0.0854  0.0604  0.1706
   19CHTO  H102 7802   4.798   8.062   1.553 -0.5458 -0.3682 -1.6231
   19CHTO   C63 7803   4.522   8.228   1.473 -0.5971  0.0965  0.2292
   19CHTO  H120 7804   4.489   8.257   1.374  2.7249  1.4092 -0.5355
   19CHTO   N11 7805   4.578   8.361   1.520 -0.5188 -0.0830  0.0781
   19CHTO  H108 7806   4.562   8.434   1.444  1.5726  0.6815  0.3337
   19CHTO  H109 7807   4.525   8.404   1.603 -0.3126  0.0956  0.1188
   19CHTO   C61 7808   4.401   8.174   1.558 -0.3824 -0.6971  0.0194
   19CHTO  H118 7809   4.322   8.250   1.558 -4.9255 -4.9483 -5.2103
   19CHTO   O40 7810   4.341   8.053   1.489 -0.5402 -0.0119  0.1022
   19CHTO   C68 7811   4.413   8.000   1.370  0.6482 -0.1648  0.8824
   19CHTO  H125 7812   4.384   8.074   1.293  1.9558 -1.9042 -1.3377
   19CHTO   C72 7813   4.353   7.868   1.325  0.3247  0.0733 -0.3322
   19CHTO   O48 7814   4.214   7.876   1.285 -0.0870  0.0573  0.2334
   19CHTO  H105 7815   4.217   7.949   1.226 -1.2259 -0.0335  0.0624
   19CHTO   O38 7816   4.438   8.149   1.691 -0.3128 -0.3673  0.7218
   19CHTO   C55 7817   4.345   8.075   1.768 -0.5170  0.0812  0.1963
   19CHTO  H112 7818   4.276   8.027   1.697 -1.7007 -0.1121  1.4670
   19CHTO   C56 7819   4.267   8.157   1.873  0.0784 -0.0079  0.0784
   19CHTO  H113 7820   4.337   8.214   1.936  1.3032  0.7146 -1.8776
   19CHTO   O42 7821   4.195   8.258   1.796 -0.4819 -0.0658 -0.2305
   19CHTO  H100 7822   4.157   8.319   1.856 -0.6477 -0.3762 -0.0168
   19CHTO   C57 7823   4.179   8.060   1.956 -0.5126  0.5440 -0.2879
   19CHTO  H114 7824   4.097   8.026   1.893 -0.8944 -1.7012  1.3858
   19CHTO   N10 7825   4.103   8.136   2.059  0.6554  0.3431  0.1487
   19CHTO  H106 7826   4.004   8.091   2.065 -0.3803  2.4884 -0.4708
   19CHTO  H107 7827   4.148   8.118   2.156  2.7339  0.9060 -0.7025
   19CHTO   C58 7828   4.254   7.937   2.015 -0.6779  0.1138  0.5550
   19CHTO  H115 7829   4.318   7.975   2.098  0.4328 -0.3107 -0.1025
   19CHTO   O37 7830   4.339   7.873   1.917  0.2835 -0.6881 -0.5313
   19CHTO   C59 7831   4.425   7.958   1.837  0.3396  0.3683  0.0694
   19CHTO  H116 7832   4.510   7.991   1.896  0.1779 -1.3280  1.2941
   19CHTO   C70 7833   4.486   7.857   1.736 -0.5339 -0.2140  0.5955
   19CHTO   O46 7834   4.406   7.755   1.672 -0.2387  0.6061 -0.2304
   19CHTO  H103 7835   4.454   7.696   1.618  2.1661  2.7101 -0.4761
   19CHTO   O39 7836   4.130   7.814   2.077  0.1834  0.2238 -0.3995
   19CHTO   C60 7837   4.104   7.720   1.968  0.6586  0.2477 -0.8941
   19CHTO  H117 7838   4.127   7.771   1.875 -0.7724 -1.2660 -2.1127
   19CHTO   C62 7839   4.189   7.588   1.975  0.1097  0.3890 -0.0769
   19CHTO  H119 7840   4.294   7.623   1.969 -0.5085  2.3306  0.0185
   19CHTO   O43 7841   4.174   7.535   2.106 -0.3582  0.5809 -0.7659
   19CHTO  H101 7842   4.240   7.468   2.116 -0.6513  0.1523 -1.6344
   19CHTO   C66 7843   4.154   7.508   1.849  0.3552  0.0251  0.4091
   19CHTO  H123 7844   4.166   7.571   1.761 -0.1050  2.2847  1.9355
   19CHTO   N12 7845   4.245   7.383   1.835  0.4130 -0.0144  0.5424
   19CHTO  H110 7846   4.340   7.403   1.882  2.2264 -0.4054 -2.8419
   19CHTO  H111 7847   4.257   7.353   1.732  0.9059 -0.1315  0.6344
   19CHTO   C69 7848   4.010   7.465   1.846 -0.0490 -0.1199 -0.1882
   19CHTO  H126 7849   3.978   7.393   1.924 -0.0595 -0.3674 -0.4181
   19CHTO   O41 7850   3.924   7.585   1.836  0.1568  0.0304 -0.1262
   19CHTO   C64 7851   3.952   7.675   1.963  0.2251  0.6284 -0.1148
   19CHTO  H121 7852   3.922   7.612   2.050 -3.7258  1.9880 -0.4279
   19CHTO   C71 7853   3.852   7.785   1.958  0.2936 -0.6900  0.0314
   19CHTO   O47 7854   3.721   7.720   1.976 -0.0545 -0.7689 -0.1557
   19CHTO  H104 7855   3.654   7.781   1.998 -0.4895 -0.9323 -0.9865
   19CHTO   O34 7856   3.973   7.374   1.708 -0.1098 -0.0043 -0.2791
   19CHTO   C49 7857   3.911   7.411   1.569 -0.1354 -0.3481 -0.6209
   19CHTO   H91 7858   3.807   7.438   1.583  0.3156  0.2664  1.6691
   19CHTO   C47 7859   3.925   7.287   1.480 -0.3064  0.3046 -0.1266
   19CHTO   H89 7860   3.886   7.310   1.379  3.9636  1.7109 -1.5621
   19CHTO   O33 7861   3.851   7.182   1.543 -0.0154  0.1861  0.2592
   19CHTO   H70 7862   3.878   7.177   1.633  0.9968  2.0100  0.0697
   19CHTO   C45 7863   4.071   7.253   1.449  0.2267  0.0654  0.5158
   19CHTO   H87 7864   4.126   7.257   1.544  1.3424  0.9285 -0.1522
   19CHTO    N8 7865   4.107   7.117   1.391 -0.5813 -0.1514  0.3888
   19CHTO   H75 7866   4.203   7.082   1.426 -0.4887  0.5619  0.8854
   19CHTO   H76 7867   4.109   7.121   1.284  0.2504  2.8459  0.4557
   19CHTO   C43 7868   4.127   7.379   1.365  0.3278 -1.1526 -0.8449
   19CHTO   H85 7869   4.234   7.359   1.374  0.7811  0.8712 -1.4929
   19CHTO   O29 7870   4.097   7.507   1.418  0.0972 -0.5696 -0.1251
   19CHTO   C50 7871   3.983   7.534   1.504  0.2082 -0.0303  0.1559
   19CHTO   H92 7872   4.018   7.599   1.586  0.7234 -2.0198  1.5428
   19CHTO   C54 7873   3.875   7.625   1.432 -0.6008  0.1398  0.2267
   19CHTO   O36 7874   3.821   7.725   1.507  0.0970 -0.1315  0.1535
   19CHTO   H72 7875   3.727   7.731   1.506 -0.0909 -2.6219  0.3388
   19CHTO   O27 7876   4.087   7.371   1.227 -0.0558 -0.2965 -0.0366
   19CHTO   C37 7877   4.120   7.441   1.104 -0.8366  0.3952  0.9405
   19CHTO   H79 7878   4.060   7.395   1.024  0.0986 -1.4300  1.2805
   19CHTO   C38 7879   4.085   7.596   1.112  0.1456 -0.2172  0.2919
   19CHTO   H80 7880   4.147   7.640   1.191 -0.4003  2.8075 -0.8826
   19CHTO   O31 7881   3.943   7.615   1.138  0.8477  0.1552 -0.1436
   19CHTO   H68 7882   3.893   7.649   1.066 -1.2767  1.9928  2.1333
   19CHTO   C39 7883   4.129   7.673   0.984  0.0085  0.0534  0.4444
   19CHTO   H81 7884   4.075   7.638   0.896  1.0456 -0.0977 -0.1317
   19CHTO    N7 7885   4.106   7.821   0.986 -0.4892  0.7708 -0.6061
   19CHTO   H73 7886   4.001   7.828   1.012 -0.2394  0.8860  0.4040
   19CHTO   H74 7887   4.142   7.871   1.075 -1.5760  0.5992 -0.0592
   19CHTO   C40 7888   4.280   7.633   0.946  0.1648 -0.3843  0.8681
   19CHTO   H82 7889   4.347   7.678   1.019 -1.4050  0.6933  1.6643
   19CHTO   O26 7890   4.297   7.492   0.936  0.0194  0.1508 -0.0081
   19CHTO   C41 7891   4.269   7.430   1.068  0.0746 -0.5810  0.0726
   19CHTO   H83 7892   4.346   7.456   1.141  1.0834  0.3468 -1.3102
   19CHTO   C52 7893   4.298   7.283   1.043 -0.0637 -0.3687  0.3272
   19CHTO   O35 7894   4.345   7.208   1.167  0.1716 -0.5204  0.1170
   19CHTO   H71 7895   4.324   7.118   1.154 -0.1244 -0.5543  0.8204
   19CHTO   O28 7896   4.311   7.683   0.815  0.3715 -0.0004  0.5976
   19CHTO   C42 7897   4.446   7.740   0.796  0.0538  0.1753 -0.9795
   19CHTO   H84 7898   4.492   7.731   0.894  0.4642 -0.4402 -1.2269
   19CHTO   C44 7899   4.451   7.889   0.764 -0.8341  0.0637 -0.1364
   19CHTO   H86 7900   4.401   7.899   0.667  2.2477  0.2990 -1.7578
   19CHTO   O32 7901   4.370   7.948   0.868 -0.3560 -0.0353 -0.2143
   19CHTO   H69 7902   4.280   7.946   0.842  0.1364  0.8787 -2.1221
   19CHTO   C48 7903   4.600   7.950   0.751  0.2058  0.0441  0.7628
   19CHTO   H90 7904   4.651   7.970   0.845  1.5981  0.7750 -0.1321
   19CHTO    N9 7905   4.588   8.091   0.686 -0.0802  0.2034 -0.4021
   19CHTO   H77 7906   4.687   8.135   0.684  0.0728 -0.1248 -0.1107
   19CHTO   H78 7907   4.546   8.079   0.587  0.6315  0.7919 -0.7808
   19CHTO   C51 7908   4.689   7.859   0.661  0.4021  0.3563  0.2269
   19CHTO   H93 7909   4.652   7.867   0.559 -0.1385 -3.1020  0.0871
   19CHTO   O30 7910   4.674   7.731   0.713 -0.8217  0.0271  0.2129
   19CHTO   C46 7911   4.544   7.670   0.698  0.5246 -0.0253 -0.1245
   19CHTO   H88 7912   4.511   7.702   0.599  1.8820 -1.0341 -0.9227
   19CHTO   C53 7913   4.553   7.520   0.710 -0.3648 -0.2838  0.3376
   19CHTO   O72 7914   4.631   7.490   0.829  0.2304 -0.1552 -0.2388
   19CHTO  H199 7915   4.603   7.408   0.865  1.5023  1.1619  3.9635
   19CHTO   O22 7916   4.832   7.887   0.672  0.1448  0.0963  0.2151
   19CHTO   C31 7917   4.937   7.804   0.603  0.5613 -0.6551  0.1110
   19CHTO   H59 7918   4.891   7.705   0.583 -0.2281 -0.2538 -0.0562
   19CHTO   C29 7919   4.990   7.870   0.467  0.1014 -0.8206 -0.6089
   19CHTO   H57 7920   5.038   7.965   0.493 -1.1163 -0.2149 -0.5487
   19CHTO   O21 7921   4.879   7.892   0.384  0.3458  0.0810  0.1271
   19CHTO   H37 7922   4.854   7.982   0.394  0.9153  0.2412  0.1047
   19CHTO   C27 7923   5.098   7.771   0.397  0.6636  0.5112  0.2826
   19CHTO   H55 7924   5.047   7.682   0.356  0.9892  0.4422  0.0276
   19CHTO    N5 7925   5.165   7.841   0.279 -0.5353  0.1196 -0.1517
   19CHTO   H43 7926   5.088   7.874   0.211  0.2820  2.9624  0.2474
   19CHTO   H44 7927   5.232   7.915   0.319 -2.1645  1.5773 -0.0536
   19CHTO   C25 7928   5.210   7.742   0.507 -0.1804 -0.7576 -0.7632
   19CHTO   H53 7929   5.268   7.832   0.534  0.5914 -2.2219  2.7634
   19CHTO   O17 7930   5.149   7.687   0.629  0.1170 -0.7118  0.9441
   19CHTO   C32 7931   5.056   7.769   0.697  0.3337  0.3475  0.4820
   19CHTO   H60 7932   5.100   7.862   0.735 -0.4345  0.3709  1.3315
   19CHTO   C36 7933   5.009   7.686   0.821 -0.9861 -0.2380  0.4922
   19CHTO   O25 7934   4.926   7.579   0.787 -0.3996  0.3335  0.0687
   19CHTO   H40 7935   4.864   7.583   0.858  1.5663  1.2420  1.7674
   19CHTO   O15 7936   5.323   7.652   0.450  0.1317  0.0879 -0.5982
   19CHTO   C19 7937   5.363   7.532   0.388  0.3574 -0.2310 -0.1720
   19CHTO   H47 7938   5.335   7.548   0.282 -0.1701  0.0408  0.0049
   19CHTO   C20 7939   5.517   7.518   0.385 -0.4995  0.2909 -0.2545
   19CHTO   H48 7940   5.556   7.516   0.487 -1.0962 -1.5841 -0.0417
   19CHTO   O19 7941   5.573   7.628   0.313  1.1101 -0.4080 -0.3769
   19CHTO   H35 7942   5.632   7.681   0.363  1.6169 -0.7045 -0.6473
   19CHTO   C21 7943   5.556   7.388   0.300  0.1933  0.3851  0.3330
   19CHTO   H49 7944   5.545   7.410   0.194 -2.2381  2.0340  0.8938
   19CHTO    N4 7945   5.703   7.361   0.317 -0.1447 -0.1622 -0.6001
   19CHTO   H41 7946   5.750   7.437   0.377 -0.2349 -1.3101  0.9617
   19CHTO   H42 7947   5.709   7.268   0.372  0.2417  0.1750 -0.0679
   19CHTO   C22 7948   5.472   7.263   0.333  0.6269  0.4199 -0.0523
   19CHTO   H50 7949   5.514   7.210   0.419  0.2207 -3.2333 -1.9693
   19CHTO   O14 7950   5.330   7.288   0.344 -0.2884 -0.0048 -0.9768
   19CHTO   C23 7951   5.293   7.398   0.433 -0.1689 -0.3337 -0.1554
   19CHTO   H51 7952   5.314   7.374   0.539  1.7427  4.1917  0.5752
   19CHTO   C34 7953   5.143   7.402   0.432  0.1676 -0.3648  0.6052
   19CHTO   O23 7954   5.103   7.400   0.300  0.1721  0.1683  0.0047
   19CHTO   H38 7955   5.017   7.437   0.296 -0.6924 -1.8483 -1.2295
   19CHTO   O16 7956   5.478   7.167   0.223  0.1384 -0.3199 -0.5450
   19CHTO   C24 7957   5.560   7.030   0.237 -0.8188  0.8256 -0.3540
   19CHTO   H52 7958   5.631   7.034   0.320 -1.1394  0.2374 -0.0560
   19CHTO   C26 7959   5.624   7.007   0.096 -0.2667  0.4162  0.5189
   19CHTO   H54 7960   5.550   7.042   0.021  2.4655  1.6152 -1.6968
   19CHTO   O20 7961   5.732   7.099   0.079  0.2823 -0.2328  0.5583
   19CHTO   H36 7962   5.785   7.058   0.014 -0.0762  0.0099  0.1105
   19CHTO   C30 7963   5.671   6.860   0.057  0.1046 -0.3277  0.4981
   19CHTO   H58 7964   5.762   6.826   0.109  1.2876  1.5446 -0.3022
   19CHTO    N6 7965   5.706   6.839  -0.086 -0.7653  0.0003  0.7803
   19CHTO   H45 7966   5.761   6.748  -0.101 -2.2561 -0.8901  0.6067
   19CHTO   H46 7967   5.620   6.829  -0.151  1.4052 -1.9786 -1.9491
   19CHTO   C33 7968   5.553   6.768   0.093 -0.0122 -0.3256 -0.8006
   19CHTO   H61 7969   5.465   6.800   0.034  1.2007  1.0724 -1.8670
   19CHTO   O18 7970   5.529   6.786   0.230  0.0926 -0.5319  0.6073
   19CHTO   C28 7971   5.466   6.908   0.268  0.7600 -0.8051 -0.0867
   19CHTO   H56 7972   5.373   6.923   0.214  0.7527  1.7135  0.5474
   19CHTO   C35 7973   5.449   6.900   0.416  0.0683 -0.1062  0.3419
   19CHTO   O24 7974   5.323   6.830   0.442 -0.0111 -0.4764  0.3040
   19CHTO   H39 7975   5.328   6.799   0.530 -1.7968 -1.0861  0.1996
   19CHTO    O9 7976   5.576   6.630   0.061 -0.2205  0.4792  0.1617
   19CHTO   C13 7977   5.423   6.569   0.012 -0.1750 -0.1273 -0.3623
   19CHTO   H26 7978   5.391   6.637  -0.071  1.3569 -1.4210 -2.0620
   19CHTO   C11 7979   5.326   6.574   0.133  0.2993  1.1122  0.4592
   19CHTO   H24 7980   5.308   6.680   0.153 -0.5021  1.2070 -0.7113
   19CHTO    O8 7981   5.391   6.514   0.249  0.1587  0.3467 -0.2402
   19CHTO    H3 7982   5.342   6.438   0.275 -0.6273  0.8223 -0.3181
   19CHTO    C9 7983   5.185   6.518   0.101 -0.1580  0.1090 -0.1961
   19CHTO   H22 7984   5.145   6.583   0.022  1.4538  0.3406 -0.8227
   19CHTO    N2 7985   5.086   6.527   0.207  0.1962 -0.3472  0.2327
   19CHTO   H10 7986   5.129   6.509   0.305  1.7234  1.5732 -0.0635
   19CHTO   H11 7987   5.040   6.624   0.217 -1.2773 -1.0509  0.4599
   19CHTO    C7 7988   5.207   6.368   0.051 -0.6717  0.0378  0.1597
   19CHTO   H20 7989   5.109   6.332   0.013 -0.7078 -0.2726  0.5533
   19CHTO    O4 7990   5.303   6.360  -0.060 -0.0293  0.6038 -0.4157
   19CHTO   C14 7991   5.431   6.426  -0.049 -0.3851  0.9654  1.3758
   19CHTO   H27 7992   5.480   6.443  -0.147 -2.1537 -1.8444 -0.0949
   19CHTO   C18 7993   5.527   6.339   0.034  1.5387 -0.1133 -0.4037
   19CHTO   O13 7994   5.576   6.229  -0.041 -0.3148 -0.7241  0.2436
   19CHTO    H7 7995   5.509   6.163  -0.047 -0.5335 -0.5043  0.2214
   19CHTO    O2 7996   5.250   6.271   0.169  0.2271 -0.2483  0.1563
   19CHTO    C1 7997   5.278   6.133   0.138 -0.5703 -0.3473  0.2301
   19CHTO   H14 7998   5.356   6.130   0.060 -2.4950 -1.1045 -1.6919
   19CHTO    C2 7999   5.158   6.046   0.069 -0.3146  0.1509  0.6422
   19CHTO   H15 8000   5.073   6.053   0.139 -0.0996 -0.4265  0.9612
   19CHTO    O6 8001   5.114   6.095  -0.061 -0.6618  0.3108 -0.3288
   19CHTO    H1 8002   5.189   6.085  -0.115 -1.1856 -0.0774 -0.9888
   19CHTO    C3 8003   5.204   5.885   0.058 -0.4084  0.0632  0.6893
   19CHTO   H16 8004   5.286   5.875  -0.014 -2.6209 -0.6522 -1.8103
   19CHTO    N1 8005   5.101   5.790   0.007 -0.0975 -0.0404  0.4004
   19CHTO    H8 8006   5.151   5.695  -0.004 -0.6479 -0.4496  1.3745
   19CHTO    H9 8007   5.010   5.781   0.065 -0.9657 -0.2639 -0.9714
   19CHTO    C4 8008   5.256   5.842   0.201 -0.1898  0.3417 -0.3024
   19CHTO   H17 8009   5.180   5.862   0.276 -0.5138 -1.0122 -0.2564
   19CHTO    O1 8010   5.364   5.932   0.243  0.3849  0.5580  0.3851
   19CHTO    C5 8011   5.313   6.066   0.267 -0.4435 -0.0192  0.2805
   19CHTO   H18 8012   5.218   6.065   0.320 -0.1747  0.6085  0.7859
   19CHTO   C16 8013   5.424   6.129   0.353  0.1900  0.3971 -0.2015
   19CHTO   O11 8014   5.462   6.056   0.467 -0.4157 -0.2221 -0.1592
   19CHTO    H5 8015   5.390   6.012   0.507 -1.7131  0.8346 -1.2962
   19CHTO    O3 8016   5.315   5.709   0.207 -1.5522  0.2686 -0.0191
   19CHTO    C6 8017   5.309   5.648   0.338  0.2867 -0.1610  0.0101
   19CHTO   H19 8018   5.300   5.725   0.415 -1.3109  2.2560 -2.5225
   19CHTO    C8 8019   5.195   5.541   0.353  0.1793  0.2864 -0.0261
   19CHTO   H21 8020   5.194   5.472   0.269 -0.2175 -1.3847  1.3341
   19CHTO    O7 8021   5.073   5.614   0.350  0.0226 -0.6347 -0.3717
   19CHTO    H2 8022   5.047   5.650   0.433 -0.1285  0.2678 -0.7936
   19CHTO   C12 8023   5.208   5.462   0.496 -0.4401  0.1220 -0.3212
   19CHTO   H25 8024   5.178   5.538   0.572  0.4930  1.5872 -1.3832
   19CHTO    N3 8025   5.110   5.351   0.517  0.6176 -0.3885  0.5857
   19CHTO   H12 8026   5.109   5.286   0.431 -1.3870 -0.0588  0.3296
   19CHTO   H13 8027   5.144   5.289   0.599  2.4068 -2.3653 -1.5886
   19CHTO   C15 8028   5.355   5.419   0.515  0.2952  0.4561 -0.5378
   19CHTO   H28 8029   5.367   5.329   0.454 -2.0414  1.0630 -1.9731
   19CHTO   O10 8030   5.405   5.375   0.675  0.3631 -0.1985  0.0104
   19CHTO    H4 8031   5.389   5.282   0.678  1.4979 -0.3515  2.0051
   19CHTO    O5 8032   5.452   5.525   0.495  0.7408 -0.6005 -0.0707
   19CHTO   C10 8033   5.444   5.571   0.360  1.0333 -0.0385 -0.0395
   19CHTO   H23 8034   5.448   5.489   0.289 -0.6051 -0.9963  0.9388
   19CHTO   C17 8035   5.565   5.656   0.333  0.5135  0.0338  0.1791
   19CHTO   O12 8036   5.589   5.756   0.429 -0.2690 -0.5513 -0.1836
   19CHTO    H6 8037   5.656   5.810   0.393 -1.9063  0.8095 -1.2420
   20CHTO  H203 8038   5.329   0.875   2.215 -0.1735 -1.4717 -1.2984
   20CHTO   O82 8039   5.238   0.886   2.196 -0.2590  0.7435  0.1636
   20CHTO  C123 8040   5.236   0.953   2.068  0.0105  0.4490  0.2111
   20CHTO  H227 8041   5.132   0.985   2.056 -0.6667 -1.9877 -0.7280
   20CHTO   O77 8042   5.329   1.060   2.078 -0.9083  0.2740  0.3046
   20CHTO  C118 8043   5.345   1.159   1.969  0.6433 -0.0000  0.2013
   20CHTO  H222 8044   5.246   1.198   1.939  1.1604  1.0737 -0.1187
   20CHTO  C125 8045   5.441   1.280   2.002 -0.0932  0.2100 -0.2651
   20CHTO   O84 8046   5.569   1.227   2.019  0.1717 -0.2576 -0.3025
   20CHTO  H205 8047   5.625   1.291   2.059  0.3723 -0.3618 -0.4185
   20CHTO  C114 8048   5.390   1.072   1.853  0.5847  0.6448 -0.1503
   20CHTO  H218 8049   5.489   1.030   1.870 -0.7706 -3.9684 -2.7238
   20CHTO  C116 8050   5.297   0.946   1.824  0.1536 -0.1349 -0.2893
   20CHTO  H220 8051   5.200   0.978   1.779  0.7410  2.1115 -0.0060
   20CHTO   O79 8052   5.365   0.864   1.728 -0.7432 -0.0931 -0.0514
   20CHTO  H201 8053   5.414   0.800   1.775  0.9404  0.7978 -0.5390
   20CHTO  C120 8054   5.275   0.858   1.955  0.3778 -0.1579  0.6332
   20CHTO  H224 8055   5.365   0.800   1.982  1.0337  0.1813 -0.8075
   20CHTO   N21 8056   5.170   0.755   1.933  0.5880  0.0173  0.1351
   20CHTO  H211 8057   5.091   0.800   1.875 -0.3380  0.2968  1.5898
   20CHTO  H212 8058   5.132   0.704   2.020  0.9321 -0.9765 -0.2971
   20CHTO   O75 8059   5.395   1.159   1.738 -1.2852 -0.2822  0.5852
   20CHTO  C112 8060   5.529   1.151   1.639  0.7699  0.1614 -0.3284
   20CHTO  H216 8061   5.553   1.043   1.638 -0.4091 -0.1050 -0.4587
   20CHTO   O73 8062   5.628   1.226   1.702 -0.0147 -0.0285  0.0498
   20CHTO  C113 8063   5.755   1.234   1.641 -0.3795 -0.6222  0.3545
   20CHTO  H217 8064   5.782   1.128   1.627 -1.5267 -0.7291 -1.1753
   20CHTO  C124 8065   5.862   1.297   1.728  0.0619 -0.6268  0.0042
   20CHTO   O83 8066   5.900   1.242   1.855 -0.0101 -0.0279 -0.0425
   20CHTO  H204 8067   5.929   1.153   1.849 -0.1357 -0.0031 -1.0470
   20CHTO  C109 8068   5.729   1.311   1.516 -0.1336  0.0601 -0.9694
   20CHTO  H213 8069   5.682   1.407   1.544 -0.4397 -0.3756  0.0550
   20CHTO  C110 8070   5.628   1.232   1.423  0.0367 -0.3320 -0.2763
   20CHTO  H214 8071   5.659   1.129   1.404  2.3146  0.1359  0.7039
   20CHTO   O78 8072   5.611   1.308   1.300  0.3528 -0.1596 -0.2524
   20CHTO  H200 8073   5.606   1.400   1.316 -0.1770 -0.5630  1.9716
   20CHTO  C111 8074   5.496   1.218   1.502  0.3505  0.2429 -0.2083
   20CHTO  H215 8075   5.458   1.320   1.521  0.4073  0.2825 -0.3083
   20CHTO   N19 8076   5.394   1.149   1.426 -0.3122  0.1562 -0.2985
   20CHTO  H207 8077   5.426   1.053   1.390  1.8281  1.1009 -0.9881
   20CHTO  H208 8078   5.357   1.205   1.341 -3.6695  0.3662  1.2157
   20CHTO   O74 8079   5.850   1.331   1.447 -0.3643  0.2512  0.2555
   20CHTO  C115 8080   5.933   1.479   1.421  0.3761 -0.0152  0.6992
   20CHTO  H219 8081   5.936   1.543   1.509  1.9650 -0.1641  0.7722
   20CHTO   O76 8082   6.102   1.452   1.388  0.5996 -0.2241 -0.2679
   20CHTO  C122 8083   6.117   1.365   1.278 -0.1327  0.9122  0.2068
   20CHTO  H226 8084   6.078   1.266   1.300 -0.5657  0.7852 -1.0561
   20CHTO  C126 8085   6.271   1.342   1.246 -0.1338  0.1109 -0.6835
   20CHTO   O85 8086   6.294   1.224   1.167 -0.3812  0.2018 -0.4739
   20CHTO  H206 8087   6.382   1.194   1.184  0.1290  1.5183 -0.7801
   20CHTO  C121 8088   6.042   1.412   1.148  0.1285  0.3043 -0.2020
   20CHTO  H225 8089   6.122   1.423   1.072 -2.1273  0.2338 -2.6293
   20CHTO   O81 8090   5.976   1.296   1.096  0.0230  0.1781  0.0875
   20CHTO  H202 8091   5.944   1.314   1.010  0.4015  1.4801  0.2072
   20CHTO  C119 8092   5.965   1.551   1.167  0.4719 -0.0895  0.1402
   20CHTO  H223 8093   6.044   1.621   1.195  0.7628 -0.4845  0.3197
   20CHTO  C117 8094   5.868   1.551   1.292  0.0421 -0.5000 -0.0539
   20CHTO  H221 8095   5.776   1.495   1.282 -0.6309  0.4044  0.8831
   20CHTO   N20 8096   5.825   1.690   1.325 -0.1188 -0.8323  0.0984
   20CHTO  H209 8097   5.755   1.725   1.251 -1.6841 -0.5532  1.6921
   20CHTO  H210 8098   5.773   1.681   1.419 -1.7684 -0.6782 -0.7858
   20CHTO   O80 8099   5.905   1.617   1.039 -0.2962  0.0595 -0.0195
   20CHTO  C103 8100   5.985   1.640   0.926  0.0179  0.2529 -0.3186
   20CHTO  H190 8101   6.089   1.618   0.945 -0.1308  1.2262  1.7929
   20CHTO  C101 8102   5.941   1.555   0.811  0.0273  0.0524  0.2586
   20CHTO  H188 8103   5.833   1.568   0.804  0.2750  2.0856 -0.4340
   20CHTO   O68 8104   5.975   1.414   0.835 -0.1482 -0.1657  0.2449
   20CHTO  H168 8105   5.910   1.358   0.796 -2.2587  1.7174  0.9460
   20CHTO   C99 8106   6.011   1.598   0.672  0.0816 -0.0977 -0.6181
   20CHTO  H186 8107   6.120   1.580   0.685  0.3755  1.7377 -0.4827
   20CHTO   N17 8108   5.966   1.535   0.546 -0.3443 -1.0340  0.7646
   20CHTO  H174 8109   5.858   1.524   0.548 -0.6923  1.5712 -1.1702
   20CHTO  H175 8110   6.026   1.452   0.514 -0.4451 -0.0544 -2.0878
   20CHTO   C97 8111   5.997   1.750   0.661 -0.4062 -0.0609 -0.3146
   20CHTO  H184 8112   5.890   1.769   0.641 -0.3401 -0.2364 -0.8325
   20CHTO   O64 8113   6.039   1.827   0.775  0.5144 -0.2065 -0.5206
   20CHTO  C104 8114   5.981   1.799   0.899  0.5089  0.2910 -0.1591
   20CHTO  H191 8115   5.877   1.833   0.899  0.5458  0.4097 -0.4272
   20CHTO  C108 8116   6.050   1.878   1.010 -0.1743 -0.4746  0.4257
   20CHTO   O71 8117   6.035   2.020   0.986  0.3370  0.7302 -0.7413
   20CHTO  H171 8118   6.018   2.063   1.068 -1.9290 -0.8663 -0.3328
   20CHTO   O62 8119   6.072   1.810   0.550 -0.0272 -0.2031 -0.4895
   20CHTO   C91 8120   6.008   1.931   0.500 -0.4188 -0.2319  0.4431
   20CHTO  H178 8121   5.944   1.970   0.579 -0.5178  0.3181  0.0939
   20CHTO   C92 8122   5.914   1.903   0.379  0.1592 -0.3142 -0.7862
   20CHTO  H179 8123   5.961   1.837   0.304  1.1576  0.9276 -1.2599
   20CHTO   O66 8124   5.806   1.828   0.430 -0.3233  0.1332  0.1618
   20CHTO  H166 8125   5.752   1.880   0.486 -1.8501  2.4266 -3.3051
   20CHTO   C93 8126   5.858   2.039   0.307  1.0149  0.2446  0.0153
   20CHTO  H180 8127   5.786   2.083   0.378 -0.0498  1.1473 -1.6009
   20CHTO   N16 8128   5.778   2.017   0.183  0.4404 -0.0953 -0.1766
   20CHTO  H172 8129   5.737   1.917   0.186  0.5347 -0.0850  4.6948
   20CHTO  H173 8130   5.845   2.026   0.098 -0.2117 -2.0117 -0.9180
   20CHTO   C94 8131   5.976   2.140   0.276 -1.2292 -0.3734 -0.2185
   20CHTO  H181 8132   6.035   2.109   0.190  1.0683 -3.6788  2.4212
   20CHTO   O61 8133   6.057   2.161   0.395 -0.0305  0.2999 -0.1441
   20CHTO   C95 8134   6.111   2.040   0.449  0.5773 -0.0731  0.5556
   20CHTO  H182 8135   6.182   1.994   0.380  1.2756 -0.5646  1.5885
   20CHTO  C106 8136   6.207   2.085   0.564  0.1503 -0.2176  0.0335
   20CHTO   O69 8137   6.141   2.142   0.680  0.1621 -0.3084  0.4650
   20CHTO  H169 8138   6.050   2.160   0.671  0.1300 -0.0229  1.3018
   20CHTO   O63 8139   5.903   2.290   0.244  0.0327 -0.1849  0.4733
   20CHTO   C96 8140   5.938   2.336   0.099  0.2081  0.6027  0.4699
   20CHTO  H183 8141   5.968   2.247   0.043 -0.0697 -0.9510  2.6965
   20CHTO   C98 8142   6.064   2.423   0.092 -0.5566  0.3002  0.0980
   20CHTO  H185 8143   6.047   2.518   0.146 -0.2918  2.6139 -3.7071
   20CHTO   O67 8144   6.174   2.348   0.154  0.4840 -0.5363  0.3492
   20CHTO  H167 8145   6.174   2.370   0.245  0.2331  0.6021  0.0854
   20CHTO  C102 8146   6.103   2.455  -0.058 -0.6844 -0.0820  0.1193
   20CHTO  H189 8147   6.125   2.357  -0.103  0.9150  0.1029  0.4551
   20CHTO   N18 8148   6.228   2.536  -0.084  0.0364  0.2599 -0.3398
   20CHTO  H176 8149   6.246   2.541  -0.190  1.9456  1.8866  0.0309
   20CHTO  H177 8150   6.222   2.637  -0.047  0.1507  0.9464 -2.1612
   20CHTO  C105 8151   5.972   2.517  -0.121 -0.2608  0.0447  0.2961
   20CHTO  H192 8152   5.951   2.610  -0.067 -2.4129 -0.6885  0.7913
   20CHTO   O65 8153   5.856   2.431  -0.107 -0.7293 -0.4622 -0.5454
   20CHTO  C100 8154   5.816   2.417   0.031  0.3345 -0.0680  0.7041
   20CHTO  H187 8155   5.803   2.515   0.078 -1.4640  0.3888 -0.7031
   20CHTO  C107 8156   5.684   2.341   0.031  0.2845  0.5577  0.6453
   20CHTO   O70 8157   5.571   2.420  -0.019 -0.1484  0.3564  0.1323
   20CHTO  H170 8158   5.554   2.432  -0.111 -0.6466 -0.6456  0.0869
   20CHTO   O57 8159   6.008   2.544  -0.283  0.1699 -0.4208 -0.6049
   20CHTO   C85 8160   6.013   2.680  -0.325  0.3503 -0.2570 -0.1840
   20CHTO  H157 8161   6.092   2.714  -0.255  0.4870  1.1317 -0.9851
   20CHTO   C83 8162   5.886   2.767  -0.282  0.4619  0.6128 -0.4518
   20CHTO  H155 8163   5.877   2.772  -0.174  2.4462  2.5827 -0.3344
   20CHTO   O56 8164   5.763   2.708  -0.330 -0.0185  0.6315 -0.0285
   20CHTO  H135 8165   5.751   2.615  -0.322 -0.9950  0.4367 -3.2241
   20CHTO   C81 8166   5.910   2.911  -0.335 -0.2857  0.0320 -0.4012
   20CHTO  H153 8167   5.997   2.952  -0.285 -1.0120 -2.1434  2.7806
   20CHTO   N14 8168   5.807   3.012  -0.296  0.0853 -0.3365  0.1491
   20CHTO  H141 8169   5.709   2.970  -0.304 -0.7310  1.3371  1.2117
   20CHTO  H142 8170   5.821   3.029  -0.191 -1.7326  0.0646  0.3408
   20CHTO   C79 8171   5.932   2.904  -0.491 -0.5208 -0.3575  0.3478
   20CHTO  H151 8172   5.951   3.005  -0.528  1.5438 -0.8318  0.0152
   20CHTO   O52 8173   6.047   2.830  -0.531 -0.4419  0.4308 -0.4141
   20CHTO   C86 8174   6.048   2.696  -0.474  0.0899 -0.8897 -0.2702
   20CHTO  H158 8175   5.973   2.639  -0.533 -2.6195  1.1300  1.1098
   20CHTO   C90 8176   6.184   2.629  -0.508 -0.6984 -0.3415 -0.5374
   20CHTO   O60 8177   6.295   2.695  -0.454 -0.6111 -0.1468  0.2159
   20CHTO  H138 8178   6.285   2.704  -0.362 -3.4540  0.1947 -0.0752
   20CHTO   O50 8179   5.811   2.858  -0.557  0.1900  0.2739 -0.2172
   20CHTO   C73 8180   5.805   2.846  -0.698 -0.8805 -0.0003 -0.2070
   20CHTO  H145 8181   5.901   2.803  -0.731 -0.4960 -0.0791  0.9580
   20CHTO   C74 8182   5.769   2.985  -0.746 -0.7086 -0.5144  0.4478
   20CHTO  H146 8183   5.846   3.056  -0.711 -0.6920 -0.5141  0.4111
   20CHTO   O54 8184   5.788   2.984  -0.888 -0.1092 -0.2994 -0.0870
   20CHTO  H133 8185   5.791   3.072  -0.921 -2.0662 -0.9198 -2.0451
   20CHTO   C75 8186   5.624   3.023  -0.693 -0.8036  0.3902  0.3024
   20CHTO  H147 8187   5.630   3.030  -0.583  0.8332 -1.3122  0.3459
   20CHTO   N13 8188   5.573   3.156  -0.717 -0.5015  0.0034  0.3277
   20CHTO  H139 8189   5.632   3.228  -0.662 -0.8278 -0.1758  0.9164
   20CHTO  H140 8190   5.585   3.178  -0.822  0.5767 -1.9017  0.0252
   20CHTO   C76 8191   5.521   2.921  -0.734  0.6685  0.0728 -0.2358
   20CHTO  H148 8192   5.514   2.928  -0.842 -1.9473  0.0751 -0.1008
   20CHTO   O49 8193   5.564   2.793  -0.691 -0.8062 -0.9293 -0.5348
   20CHTO   C77 8194   5.694   2.742  -0.734  0.1695 -0.3933 -0.2327
   20CHTO  H149 8195   5.696   2.724  -0.842 -0.1643  0.7309 -0.4422
   20CHTO   C88 8196   5.705   2.607  -0.659 -0.6874  0.1033 -0.3388
   20CHTO   O58 8197   5.566   2.515  -0.677 -0.4015 -0.2525 -0.0765
   20CHTO  H136 8198   5.544   2.517  -0.768  0.9215  2.5869 -0.3773
   20CHTO   O51 8199   5.360   2.950  -0.663  0.3513  0.6188 -0.4375
   20CHTO   C78 8200   5.370   2.919  -0.498  0.1187  1.0548  0.3556
   20CHTO  H150 8201   5.479   2.929  -0.476 -0.2943  1.1840  2.4408
   20CHTO   C80 8202   5.321   2.786  -0.451  0.2676  0.0901  0.4022
   20CHTO  H152 8203   5.210   2.784  -0.455  0.3105 -0.3407 -0.8095
   20CHTO   O55 8204   5.379   2.679  -0.535  0.2344  0.4861 -0.7078
   20CHTO  H134 8205   5.472   2.677  -0.522  0.2332  1.0161 -0.5961
   20CHTO   C84 8206   5.356   2.769  -0.298 -0.0878  0.4277 -0.2367
   20CHTO  H156 8207   5.464   2.782  -0.294 -0.3214  2.0810  1.1083
   20CHTO   N15 8208   5.321   2.636  -0.245 -0.5697  0.4844  0.6858
   20CHTO  H143 8209   5.274   2.633  -0.149  0.7317 -1.1411  1.2758
   20CHTO  H144 8210   5.266   2.575  -0.313 -0.1445  1.5903 -0.6892
   20CHTO   C87 8211   5.279   2.877  -0.224  0.5328  0.4500  0.2168
   20CHTO  H159 8212   5.171   2.872  -0.234  0.5627  0.0519  0.0684
   20CHTO   O53 8213   5.332   3.011  -0.280 -0.0348 -0.4040  0.0687
   20CHTO   C82 8214   5.292   3.022  -0.415 -0.0731  0.1765 -0.0690
   20CHTO  H154 8215   5.185   3.000  -0.420 -0.0725  0.3018 -0.5990
   20CHTO   C89 8216   5.308   3.168  -0.447  0.1383 -0.2099 -0.3999
   20CHTO   O59 8217   5.249   3.207  -0.569 -0.8210  0.5034  0.3017
   20CHTO  H137 8218   5.241   3.296  -0.598  2.1778  0.3067 -1.4349
   20CHTO   O45 8219   5.292   2.896  -0.057  0.2699 -0.0802  1.1291
   20CHTO   C67 8220   5.428   2.904  -0.007 -0.9120 -0.6931 -0.0482
   20CHTO  H124 8221   5.497   2.912  -0.091 -1.8346 -1.4065 -0.8869
   20CHTO   C65 8222   5.443   3.024   0.085  0.0414  0.0167 -0.0341
   20CHTO  H122 8223   5.395   3.106   0.032  1.4541 -0.2022 -1.6828
   20CHTO   O44 8224   5.580   3.058   0.102  0.1963  0.3094 -0.4604
   20CHTO  H102 8225   5.590   3.146   0.072  0.5460  0.4339  0.0151
   20CHTO   C63 8226   5.357   3.000   0.214 -0.7260 -0.4966  0.2947
   20CHTO  H120 8227   5.259   2.968   0.180 -1.2858  1.5320 -0.0545
   20CHTO   N11 8228   5.323   3.123   0.297 -0.2353  0.7181 -0.5874
   20CHTO  H108 8229   5.381   3.209   0.272 -0.7064  1.2951  0.2413
   20CHTO  H109 8230   5.341   3.105   0.401  1.0017 -0.2386 -0.9691
   20CHTO   C61 8231   5.421   2.868   0.288 -0.6278 -0.2089  0.1000
   20CHTO  H118 8232   5.348   2.853   0.369  0.0143  2.1482  1.1614
   20CHTO   O40 8233   5.413   2.756   0.199 -0.0032  0.0720 -0.1882
   20CHTO   C68 8234   5.453   2.765   0.057  0.0313  0.6558  0.0167
   20CHTO  H125 8235   5.398   2.683   0.006  1.7900 -0.8407  0.4770
   20CHTO   C72 8236   5.601   2.721   0.052  0.0152  0.2820 -0.6211
   20CHTO   O48 8237   5.653   2.699  -0.082  0.7050  0.3571 -0.0546
   20CHTO  H105 8238   5.587   2.718  -0.146  1.3315 -0.6085 -1.0169
   20CHTO   O38 8239   5.554   2.897   0.340  0.1715 -0.8678  0.4104
   20CHTO   C55 8240   5.587   2.843   0.466 -0.5458  0.0898  0.0533
   20CHTO  H112 8241   5.509   2.768   0.488 -2.5708  1.7050 -1.3625
   20CHTO   C56 8242   5.577   2.968   0.567 -0.4878  0.5615  0.9465
   20CHTO  H113 8243   5.623   3.056   0.519  2.4323 -0.9623  0.8057
   20CHTO   O42 8244   5.435   2.996   0.581 -0.0791  0.1652 -0.7606
   20CHTO  H100 8245   5.394   2.930   0.633  0.2840  0.6620  0.1636
   20CHTO   C57 8246   5.637   2.932   0.706 -0.5959 -0.0616 -0.1167
   20CHTO  H114 8247   5.573   2.867   0.765  2.0367 -0.0425  2.8800
   20CHTO   N10 8248   5.639   3.053   0.794 -0.0683 -0.4881  0.8155
   20CHTO  H106 8249   5.652   3.027   0.898  3.3302 -1.8311  0.1479
   20CHTO  H107 8250   5.715   3.125   0.765  0.2713 -1.4898 -0.8399
   20CHTO   C58 8251   5.771   2.864   0.686 -0.0101  0.1658  0.2776
   20CHTO  H115 8252   5.842   2.939   0.645  2.4432 -2.6130 -0.7225
   20CHTO   O37 8253   5.761   2.748   0.597  0.2746  0.6326 -0.7110
   20CHTO   C59 8254   5.732   2.789   0.461  0.4500  0.0841  0.1273
   20CHTO  H116 8255   5.801   2.863   0.421  1.9274 -1.8225 -0.9462
   20CHTO   C70 8256   5.752   2.668   0.375  0.0538  0.5290  0.0062
   20CHTO   O46 8257   5.882   2.618   0.371 -0.4139  0.1631 -0.1944
   20CHTO  H103 8258   5.874   2.524   0.364  0.0985  0.2090 -1.5766
   20CHTO   O39 8259   5.832   2.789   0.826 -0.6355  0.0338 -0.3200
   20CHTO   C60 8260   5.779   2.658   0.858  0.1845  0.3704 -0.8074
   20CHTO  H117 8261   5.679   2.648   0.816 -1.0996  0.6451  2.0776
   20CHTO   C62 8262   5.871   2.545   0.796  0.3683 -0.0320 -0.2571
   20CHTO  H119 8263   5.874   2.567   0.687 -1.1233  0.9012 -0.1236
   20CHTO   O43 8264   6.003   2.545   0.856  0.0568 -0.4089  0.3341
   20CHTO  H101 8265   6.059   2.487   0.808  4.6712  3.8667  0.1731
   20CHTO   C66 8266   5.792   2.407   0.816  0.4645 -0.4629  0.0028
   20CHTO  H123 8267   5.691   2.417   0.777 -0.2365  0.1406  1.9002
   20CHTO   N12 8268   5.854   2.302   0.739 -0.4931  0.2798 -0.0838
   20CHTO  H110 8269   5.954   2.284   0.775 -1.0255 -1.3783  0.6053
   20CHTO  H111 8270   5.847   2.316   0.632 -1.4091 -0.2442 -0.1006
   20CHTO   C69 8271   5.785   2.382   0.971  0.4123 -0.1381  0.1018
   20CHTO  H126 8272   5.888   2.376   1.012  0.3983 -1.7175 -0.0496
   20CHTO   O41 8273   5.714   2.512   1.041 -0.1271  0.6874 -0.4398
   20CHTO   C64 8274   5.773   2.629   1.015  0.5727 -0.0543 -0.7686
   20CHTO  H121 8275   5.874   2.638   1.058  1.4218 -0.9600 -2.5191
   20CHTO   C71 8276   5.684   2.732   1.092  0.0696  0.0186  0.9946
   20CHTO   O47 8277   5.751   2.863   1.100 -0.1099 -0.3817 -0.6395
   20CHTO  H104 8278   5.705   2.913   1.035  0.6981  2.0477  0.5721
   20CHTO   O34 8279   5.708   2.255   0.999  0.4357  0.3768 -0.4617
   20CHTO   C49 8280   5.601   2.214   1.097 -0.0002 -0.5775  0.1709
   20CHTO   H91 8281   5.613   2.274   1.187  1.3225 -0.7533  0.1215
   20CHTO   C47 8282   5.631   2.073   1.141 -0.1784 -0.7074  0.5547
   20CHTO   H89 8283   5.553   2.042   1.215 -1.4464 -0.1025 -0.5017
   20CHTO   O33 8284   5.760   2.068   1.202  0.7216  0.3733  0.2422
   20CHTO   H70 8285   5.789   1.979   1.209 -1.3201 -0.1329  3.3814
   20CHTO   C45 8286   5.611   1.973   1.008 -0.0965  0.2327 -0.8281
   20CHTO   H87 8287   5.705   1.971   0.951  0.8231 -0.5127  0.6800
   20CHTO    N8 8288   5.592   1.834   1.069  0.3450  0.1860 -0.1440
   20CHTO   H75 8289   5.504   1.832   1.132  1.6053  1.5868  1.7189
   20CHTO   H76 8290   5.580   1.759   0.992  0.7606  0.8054 -0.8326
   20CHTO   C43 8291   5.501   2.029   0.908  0.3800 -0.3043  0.0573
   20CHTO   H85 8292   5.556   2.095   0.841  0.2371 -0.3519 -0.1061
   20CHTO   O29 8293   5.401   2.099   0.984 -0.0487 -0.1654  0.4365
   20CHTO   C50 8294   5.460   2.221   1.034  1.0922  0.1712  0.4225
   20CHTO   H92 8295   5.468   2.292   0.950 -2.1090  0.0333 -0.0637
   20CHTO   C54 8296   5.362   2.295   1.118  0.0283  0.0790  0.1951
   20CHTO   O36 8297   5.386   2.431   1.116 -0.5056 -0.1695  0.9563
   20CHTO   H72 8298   5.337   2.465   1.189  0.5176  1.6932  0.8237
   20CHTO   O27 8299   5.446   1.929   0.814 -0.2657 -0.0965 -0.2064
   20CHTO   C37 8300   5.385   1.869   0.696  0.0733  0.1692  0.3129
   20CHTO   H79 8301   5.276   1.868   0.704  0.1505  0.3166  1.4441
   20CHTO   C38 8302   5.414   1.961   0.572 -0.7068  0.6419  0.8445
   20CHTO   H80 8303   5.522   1.981   0.577  0.1203 -2.5283 -2.4384
   20CHTO   O31 8304   5.344   2.086   0.594 -0.0434 -0.6727 -0.4125
   20CHTO   H68 8305   5.368   2.131   0.673 -1.1805  0.3286 -0.6137
   20CHTO   C39 8306   5.369   1.895   0.437  0.2867 -0.1130 -0.6928
   20CHTO   H81 8307   5.260   1.898   0.445  0.2794 -1.9609  0.0653
   20CHTO    N7 8308   5.421   1.984   0.326 -0.5701  0.5529  0.1189
   20CHTO   H73 8309   5.364   1.954   0.239 -1.9342  0.2720  1.0949
   20CHTO   H74 8310   5.528   1.974   0.315 -0.8001  0.1580 -1.8776
   20CHTO   C40 8311   5.422   1.749   0.425 -0.0758  0.1371 -0.2967
   20CHTO   H82 8312   5.529   1.757   0.406 -0.0695  0.9070  0.0470
   20CHTO   O26 8313   5.394   1.671   0.544 -0.6431 -0.5018  0.2599
   20CHTO   C41 8314   5.452   1.732   0.667 -0.5896  0.1836  0.3042
   20CHTO   H83 8315   5.558   1.760   0.663 -0.1507 -1.4133  0.5390
   20CHTO   C52 8316   5.436   1.630   0.785 -0.4840 -0.8569  0.1636
   20CHTO   O35 8317   5.304   1.647   0.845 -0.0306  0.5318  0.2519
   20CHTO   H71 8318   5.303   1.652   0.939  0.7131 -1.5796  0.3989
   20CHTO   O28 8319   5.368   1.676   0.310 -0.0612 -0.7262 -0.2784
   20CHTO   C42 8320   5.450   1.575   0.249  0.2297  0.3181  0.5718
   20CHTO   H84 8321   5.375   1.515   0.197 -0.4398  0.3520  1.4803
   20CHTO   C44 8322   5.532   1.475   0.348  0.4073 -0.2960 -0.1761
   20CHTO   H86 8323   5.586   1.539   0.418 -1.7243  1.1582  0.2177
   20CHTO   O32 8324   5.421   1.406   0.412 -0.0041 -0.0247  0.3558
   20CHTO   H69 8325   5.423   1.441   0.498  1.4409 -1.2539  0.8559
   20CHTO   C48 8326   5.634   1.386   0.270 -0.0701 -0.1008 -0.3394
   20CHTO   H90 8327   5.574   1.317   0.210 -0.5291  0.9115 -1.0581
   20CHTO    N9 8328   5.700   1.301   0.375  0.2566  0.4390 -0.4560
   20CHTO   H77 8329   5.807   1.313   0.363  0.4678  0.9707  1.8664
   20CHTO   H78 8330   5.678   1.327   0.477  1.3844  2.3114 -0.6582
   20CHTO   C51 8331   5.727   1.482   0.182 -0.1077  0.4203 -0.1455
   20CHTO   H93 8332   5.773   1.558   0.246  0.7095 -1.9979  2.2662
   20CHTO   O30 8333   5.645   1.537   0.083  0.2338  0.3614  0.2168
   20CHTO   C46 8334   5.535   1.643   0.141 -0.5855 -0.0895 -0.0350
   20CHTO   H88 8335   5.589   1.721   0.195  1.6210 -0.2624 -1.8991
   20CHTO   C53 8336   5.447   1.697   0.023 -0.6040  0.2236 -0.9202
   20CHTO   O72 8337   5.369   1.596  -0.051 -0.1586 -0.8766  0.0167
   20CHTO  H199 8338   5.326   1.640  -0.122 -1.4668  1.2885  2.0738
   20CHTO   O22 8339   5.829   1.410   0.111  0.5558  0.2500 -0.2955
   20CHTO   C31 8340   5.977   1.424   0.128  0.7259  0.5243 -0.0704
   20CHTO   H59 8341   6.015   1.397   0.027  0.4064 -0.7599  0.1468
   20CHTO   C29 8342   6.037   1.563   0.161  0.0767  0.1252 -0.2979
   20CHTO   H57 8343   6.004   1.590   0.263  1.2411  0.5120 -0.0083
   20CHTO   O21 8344   5.979   1.658   0.076 -0.0193 -0.0427  0.3789
   20CHTO   H37 8345   5.895   1.687   0.104  0.6445  0.4743  1.9147
   20CHTO   C27 8346   6.196   1.561   0.164  0.4031 -0.5405  0.2159
   20CHTO   H55 8347   6.233   1.530   0.065 -1.0159 -0.6428 -0.2989
   20CHTO    N5 8348   6.252   1.695   0.208 -0.4954  0.2296 -0.5625
   20CHTO   H43 8349   6.216   1.781   0.153 -0.3248 -0.4339 -1.7218
   20CHTO   H44 8350   6.283   1.702   0.311  1.5804  0.2769 -1.1848
   20CHTO   C25 8351   6.245   1.450   0.255 -0.8080 -0.0352  0.1884
   20CHTO   H53 8352   6.212   1.462   0.359 -0.7471 -0.8148  0.2991
   20CHTO   O17 8353   6.187   1.327   0.216 -0.2169 -0.1347 -0.0064
   20CHTO   C32 8354   6.046   1.316   0.225  0.3414  0.1509 -0.3217
   20CHTO   H60 8355   6.002   1.330   0.324 -1.1460 -0.4877 -0.8797
   20CHTO   C36 8356   6.017   1.162   0.186  0.3507 -0.7620  0.3765
   20CHTO   O25 8357   6.038   1.128   0.049 -0.5357 -0.0749  0.6521
   20CHTO   H40 8358   6.063   1.038   0.053  1.7011  0.4007 -1.3819
   20CHTO   O15 8359   6.407   1.436   0.248  0.5248 -0.7836 -0.5003
   20CHTO   C19 8360   6.504   1.388   0.153  0.4450 -0.0529  0.0452
   20CHTO   H47 8361   6.456   1.365   0.057  0.2608 -0.5768  0.2645
   20CHTO   C20 8362   6.614   1.493   0.116  0.2318  0.5389 -0.1578
   20CHTO   H48 8363   6.677   1.519   0.203  0.2520  2.3383 -0.6915
   20CHTO   O19 8364   6.542   1.605   0.057  0.4633  0.2698 -0.3784
   20CHTO   H35 8365   6.597   1.673   0.025 -2.1695  2.3740 -0.6093
   20CHTO   C21 8366   6.714   1.444   0.006 -1.2260 -0.4218 -0.5096
   20CHTO   H49 8367   6.660   1.426  -0.087 -1.6058  0.5286 -0.4845
   20CHTO    N4 8368   6.818   1.547  -0.012 -0.1176 -0.5661 -0.1952
   20CHTO   H41 8369   6.868   1.533  -0.107 -0.6597 -0.6924 -0.4600
   20CHTO   H42 8370   6.890   1.536   0.069  0.2044 -1.2152 -0.5631
   20CHTO   C22 8371   6.754   1.301   0.051  0.5083 -0.2266  0.2449
   20CHTO   H50 8372   6.823   1.315   0.134  0.7724 -0.3156  0.0444
   20CHTO   O14 8373   6.643   1.213   0.084 -0.3268  0.7308 -0.6655
   20CHTO   C23 8374   6.573   1.262   0.198 -0.1565  0.2027  0.4467
   20CHTO   H51 8375   6.645   1.281   0.279 -1.6621 -0.7649  2.0528
   20CHTO   C34 8376   6.477   1.154   0.250 -0.2233 -0.3712  0.1004
   20CHTO   O23 8377   6.460   1.151   0.386 -0.6248 -0.3032 -0.3452
   20CHTO   H38 8378   6.413   1.075   0.413 -3.4857  1.2292 -0.7807
   20CHTO   O16 8379   6.825   1.229  -0.052  0.8430  0.0633 -0.2992
   20CHTO   C24 8380   6.981   1.186  -0.002  0.4441  0.1883  0.4908
   20CHTO   H52 8381   7.001   1.226   0.097 -1.3741 -0.3190  1.0786
   20CHTO   C26 8382   7.096   1.241  -0.090 -0.2673  0.1338  0.0780
   20CHTO   H54 8383   7.071   1.215  -0.195  2.6747  2.1613 -1.1796
   20CHTO   O20 8384   7.088   1.387  -0.090  0.1689  0.2058  0.2156
   20CHTO   H36 8385   7.163   1.430  -0.127  0.1096  0.0564 -0.0782
   20CHTO   C30 8386   7.231   1.173  -0.045 -0.3346 -0.4680 -0.5347
   20CHTO   H58 8387   7.243   1.212   0.057  0.9937  0.9709 -1.2067
   20CHTO    N6 8388   7.357   1.226  -0.116  0.4230 -0.2174  0.0367
   20CHTO   H45 8389   7.342   1.240  -0.222 -3.1117  1.7276  0.7227
   20CHTO   H46 8390   7.386   1.319  -0.070 -0.5036 -0.7429  1.7306
   20CHTO   C33 8391   7.231   1.018  -0.041  0.0626 -0.0788 -0.3752
   20CHTO   H61 8392   7.210   0.988  -0.145  0.6954  2.3504 -1.2333
   20CHTO   O18 8393   7.122   0.979   0.041 -0.2320  0.1124 -0.1228
   20CHTO   C28 8394   6.994   1.027  -0.003  0.0169  0.4096 -0.3815
   20CHTO   H56 8395   6.959   0.988  -0.098 -0.1278 -0.2991 -0.0391
   20CHTO   C35 8396   6.877   0.963   0.081  0.0957  1.3194  0.0394
   20CHTO   O24 8397   6.879   1.001   0.219  0.0445  0.3258  0.0188
   20CHTO   H39 8398   6.883   1.092   0.239  0.4966  0.5407 -1.0225
   20CHTO    O9 8399   7.353   0.954   0.006 -0.0068 -0.1318 -0.0473
   20CHTO   C13 8400   7.359   0.792  -0.002 -0.3295 -0.4692  0.1083
   20CHTO   H26 8401   7.464   0.756  -0.000 -0.0999  0.1821 -0.1949
   20CHTO   C11 8402   7.280   0.728  -0.126  0.1312 -0.0993 -0.4477
   20CHTO   H24 8403   7.326   0.778  -0.213 -1.6825  1.0680 -0.7508
   20CHTO    O8 8404   7.139   0.758  -0.128  0.0202 -0.2497  0.1762
   20CHTO    H3 8405   7.101   0.747  -0.213 -0.4267 -1.3475  0.5159
   20CHTO    C9 8406   7.307   0.577  -0.115  0.6447 -0.0814 -0.1485
   20CHTO   H22 8407   7.414   0.568  -0.090 -0.4921 -3.3074  4.1249
   20CHTO    N2 8408   7.286   0.512  -0.244  0.4003  0.0813 -0.3837
   20CHTO   H10 8409   7.358   0.533  -0.322  0.6729  0.8958  0.0731
   20CHTO   H11 8410   7.261   0.408  -0.233  0.3617 -0.0444 -1.6280
   20CHTO    C7 8411   7.226   0.518   0.009  0.0889  0.1466 -0.3500
   20CHTO   H20 8412   7.302   0.447   0.048  1.4682  0.6517 -2.0365
   20CHTO    O4 8413   7.197   0.619   0.107  0.1343 -0.1995 -0.6758
   20CHTO   C14 8414   7.305   0.709   0.136  1.1773 -0.7067 -0.4058
   20CHTO   H27 8415   7.378   0.637   0.179 -0.6100 -1.4944  1.3290
   20CHTO   C18 8416   7.253   0.797   0.252  0.5337 -0.2586  0.3672
   20CHTO   O13 8417   7.348   0.895   0.312  0.0581 -0.5336 -0.0516
   20CHTO    H7 8418   7.306   0.936   0.386  2.2501 -1.2115  1.6103
   20CHTO    O2 8419   7.088   0.466  -0.035  0.1030 -0.5767 -0.0079
   20CHTO    C1 8420   7.040   0.342   0.007  0.6872  0.3463 -0.7028
   20CHTO   H14 8421   7.050   0.333   0.117  2.4260 -2.4096 -1.0377
   20CHTO    C2 8422   7.112   0.219  -0.069  0.1476 -0.1645  0.1000
   20CHTO   H15 8423   7.111   0.251  -0.174 -0.2421  1.1843  0.5126
   20CHTO    O6 8424   7.249   0.217  -0.024 -0.8784  0.4731 -0.1100
   20CHTO    H1 8425   7.300   0.235  -0.100 -1.4141  0.7948 -0.3944
   20CHTO    C3 8426   7.041   0.079  -0.040  0.0556 -0.3736 -0.2198
   20CHTO   H16 8427   7.051   0.064   0.069  0.5983  1.8010  0.0539
   20CHTO    N1 8428   7.102  -0.038  -0.122 -0.5523  0.2100 -0.5316
   20CHTO    H8 8429   7.033  -0.096  -0.182  0.6595  0.2064 -1.9278
   20CHTO    H9 8430   7.184  -0.005  -0.184 -1.1377  3.1465  0.1565
   20CHTO    C4 8431   6.885   0.109  -0.066 -0.8821  0.7171  0.1368
   20CHTO   H17 8432   6.868   0.142  -0.169  2.6018  1.5275 -0.2427
   20CHTO    O1 8433   6.835   0.211   0.015  0.5408  0.5682  0.1575
   20CHTO    C5 8434   6.885   0.338  -0.024 -0.0565 -0.4805 -0.0833
   20CHTO   H18 8435   6.866   0.350  -0.131  0.4012 -0.3288 -0.1499
   20CHTO   C16 8436   6.810   0.445   0.048 -0.5059 -0.5425  0.1526
   20CHTO   O11 8437   6.818   0.581  -0.002  0.2175 -0.2520 -0.0616
   20CHTO    H5 8438   6.834   0.642   0.068 -1.0963  0.3259 -0.2352
   20CHTO    O3 8439   6.803  -0.007  -0.042 -0.1647 -0.5453  0.0894
   20CHTO    C6 8440   6.687  -0.020  -0.134 -0.2610 -0.3061 -0.0590
   20CHTO   H19 8441   6.660   0.076  -0.178  0.2306  1.0815  2.5280
   20CHTO    C8 8442   6.734  -0.137  -0.226  0.8512  0.3179 -0.2904
   20CHTO   H21 8443   6.762  -0.220  -0.161 -0.1835 -0.1511 -0.4317
   20CHTO    O7 8444   6.848  -0.080  -0.296  0.3273 -0.3277  0.1149
   20CHTO    H2 8445   6.862  -0.131  -0.373  1.7980  1.9825 -1.2233
   20CHTO   C12 8446   6.613  -0.186  -0.316 -0.4725 -0.3767 -0.2838
   20CHTO   H25 8447   6.589  -0.094  -0.373 -1.3803 -0.4172  0.0322
   20CHTO    N3 8448   6.663  -0.286  -0.404  0.0057  0.3456  0.3093
   20CHTO   H12 8449   6.601  -0.296  -0.492 -0.2728  1.4165  0.3758
   20CHTO   H13 8450   6.664  -0.379  -0.349 -2.2142  0.9212  1.3806
   20CHTO   C15 8451   6.490  -0.220  -0.225 -0.1673 -0.1671  0.3053
   20CHTO   H28 8452   6.501  -0.311  -0.167 -0.6331  0.8663  2.0484
   20CHTO   O10 8453   6.364  -0.234  -0.299 -0.0853  0.0246  0.1593
   20CHTO    H4 8454   6.351  -0.321  -0.333 -0.2821 -0.4400  1.3868
   20CHTO    O5 8455   6.450  -0.111  -0.141  0.0438 -0.2868  0.0073
   20CHTO   C10 8456   6.559  -0.069  -0.059 -0.4337  0.3842  0.5573
   20CHTO   H23 8457   6.587  -0.148   0.011 -0.4763 -0.1126  0.0194
   20CHTO   C17 8458   6.519   0.053   0.026  0.5561 -0.4213  0.0465
   20CHTO   O12 8459   6.441   0.001   0.130 -0.4420  0.3398 -0.4367
   20CHTO    H6 8460   6.352   0.026   0.118 -0.4609  0.2427 -0.4983
   21GLOH   H03 8461   1.255   6.023   1.530 -0.4100 -0.6379  0.4472
   21GLOH    O1 8462   1.209   6.075   1.462  0.2934 -0.2286  0.2835
   21GLOH    C1 8463   1.248   6.218   1.481 -0.1427  0.4295 -0.4202
   21GLOH   H02 8464   1.356   6.230   1.470  0.2500 -0.7408  1.8220
   21GLOH   H08 8465   1.224   6.247   1.583 -1.1195  0.8687 -0.7710
   21GLOH    C2 8466   1.174   6.319   1.386 -0.4990  0.2545 -0.4672
   21GLOH   H04 8467   1.068   6.311   1.418  0.2884 -0.9818  2.0078
   21GLOH    O2 8468   1.219   6.448   1.405  0.4505 -0.1391 -0.1418
   21GLOH   H05 8469   1.187   6.507   1.334  1.3508  3.4034  2.2344
   21GLOH    C3 8470   1.191   6.273   1.243 -0.0169  0.0131 -0.3854
   21GLOH   H06 8471   1.169   6.354   1.173 -1.4616  1.0407  1.2007
   21GLOH   H07 8472   1.111   6.201   1.225  1.7936 -1.9327 -0.8181
   21GLOH    O3 8473   1.319   6.216   1.213  0.3324  0.3135 -0.1044
   21GLOH   H01 8474   1.334   6.228   1.117  0.4996  1.0105  0.0039
   22GLOH   H03 8475   1.044   2.033   2.012  0.4785  0.0308 -0.1277
   22GLOH    O1 8476   1.093   2.116   1.999  0.8664 -0.1450  0.2146
   22GLOH    C1 8477   1.132   2.114   1.863 -0.4667  0.8591 -0.2286
   22GLOH   H02 8478   1.155   2.216   1.832 -2.4371  1.0701 -1.0954
   22GLOH   H08 8479   1.056   2.071   1.798  1.0927 -0.1729 -1.4211
   22GLOH    C2 8480   1.247   2.021   1.848 -0.3153 -0.1742  0.3764
   22GLOH   H04 8481   1.214   1.923   1.886 -0.8624  0.3558  1.2889
   22GLOH    O2 8482   1.286   1.998   1.714 -0.3162  0.2783 -0.4367
   22GLOH   H05 8483   1.352   2.063   1.687 -0.7043  0.6346 -0.5275
   22GLOH    C3 8484   1.378   2.065   1.924  0.2542  0.5767  0.1081
   22GLOH   H06 8485   1.406   2.164   1.889  1.5560 -0.6173 -2.3362
   22GLOH   H07 8486   1.458   1.995   1.900  0.2544  0.4687  0.4200
   22GLOH    O3 8487   1.354   2.063   2.069  0.0334  0.1333  0.2812
   22GLOH   H01 8488   1.258   2.075   2.081 -0.2074 -2.7442  1.5021
   23GLOH   H03 8489   4.041   5.221   2.431  0.4244  0.0032  1.2060
   23GLOH    O1 8490   3.944   5.219   2.446  0.1928 -0.5362 -0.3017
   23GLOH    C1 8491   3.885   5.154   2.339 -0.3198 -0.0562  0.1615
   23GLOH   H02 8492   3.897   5.200   2.241 -1.1846 -0.0643  0.0485
   23GLOH   H08 8493   3.777   5.153   2.353 -0.4967 -1.5613 -1.0930
   23GLOH    C2 8494   3.929   5.011   2.312 -0.2548  0.7890 -0.0411
   23GLOH   H04 8495   3.871   4.989   2.221 -0.9427  1.4497  0.2372
   23GLOH    O2 8496   4.071   4.993   2.281  0.5960  0.3061  0.2063
   23GLOH   H05 8497   4.083   5.050   2.203 -1.9873 -0.7445 -1.0341
   23GLOH    C3 8498   3.882   4.920   2.430 -0.0085 -0.8034 -0.1232
   23GLOH   H06 8499   3.897   4.979   2.520  1.4977 -0.2958 -0.7065
   23GLOH   H07 8500   3.962   4.847   2.444  1.0380  0.4119  0.2646
   23GLOH    O3 8501   3.745   4.871   2.424  0.3042 -0.2220  0.3444
   23GLOH   H01 8502   3.754   4.776   2.445  0.6291 -0.2844 -0.0786
   24GLOH   H03 8503   0.723   3.115   2.018  0.1508  0.7626 -0.0482
   24GLOH    O1 8504   0.632   3.146   2.031  0.1487  0.8239 -0.2186
   24GLOH    C1 8505   0.611   3.241   1.919  0.3181  0.7916 -0.3743
   24GLOH   H02 8506   0.641   3.195   1.825  2.2420 -1.5717  1.3411
   24GLOH   H08 8507   0.685   3.320   1.926 -0.7243  1.5687  2.8413
   24GLOH    C2 8508   0.470   3.300   1.919 -0.6374 -0.0712 -0.4137
   24GLOH   H04 8509   0.398   3.235   1.869 -0.8037 -2.3947  2.6630
   24GLOH    O2 8510   0.420   3.326   2.050 -0.2883  0.5049  0.1709
   24GLOH   H05 8511   0.486   3.289   2.111  0.0140  2.0802  0.8271
   24GLOH    C3 8512   0.482   3.423   1.828  0.1702 -0.2805  0.0820
   24GLOH   H06 8513   0.535   3.411   1.733  0.5529  0.4973  0.1898
   24GLOH   H07 8514   0.543   3.491   1.887  2.4386 -1.6252 -0.6381
   24GLOH    O3 8515   0.354   3.480   1.794  0.3760  0.2995  0.0022
   24GLOH   H01 8516   0.317   3.412   1.735  2.1633  1.6871 -2.8457
   25GLOH   H03 8517   3.860   5.648   2.663 -1.6311 -0.2104 -0.8502
   25GLOH    O1 8518   3.804   5.642   2.742 -0.0191 -0.1355  0.3203
   25GLOH    C1 8519   3.750   5.506   2.739  0.2414 -0.0050  0.3761
   25GLOH   H02 8520   3.702   5.488   2.643  1.6737 -1.7178 -0.0355
   25GLOH   H08 8521   3.684   5.504   2.825 -0.4287  2.5257 -0.0259
   25GLOH    C2 8522   3.867   5.404   2.741 -0.5154  0.3701 -0.1205
   25GLOH   H04 8523   3.931   5.413   2.652  2.4066  0.8026  1.9615
   25GLOH    O2 8524   3.941   5.410   2.867 -0.3453 -0.5731 -0.2904
   25GLOH   H05 8525   3.964   5.501   2.892 -1.5839 -0.5335  0.7401
   25GLOH    C3 8526   3.821   5.256   2.723  0.4152 -0.2304 -0.2599
   25GLOH   H06 8527   3.748   5.247   2.803  1.0629 -0.3721  0.3156
   25GLOH   H07 8528   3.907   5.190   2.733  0.1841 -0.3905  0.6810
   25GLOH    O3 8529   3.740   5.238   2.605  0.2649 -0.1605  0.2863
   25GLOH   H01 8530   3.801   5.245   2.530  1.3121  0.1032  1.1540
   26GLOH   H03 8531   9.245   3.627   0.394 -2.2184 -1.5434  0.1715
   26GLOH    O1 8532   9.235   3.665   0.484 -0.6029 -0.1517 -0.2002
   26GLOH    C1 8533   9.323   3.776   0.504 -0.8989 -0.5883 -0.5280
   26GLOH   H02 8534   9.287   3.867   0.457  0.5066  1.1958  1.7399
   26GLOH   H08 8535   9.422   3.754   0.463 -0.5776 -1.5782  0.7369
   26GLOH    C2 8536   9.336   3.808   0.653 -0.4037  0.7590  0.0586
   26GLOH   H04 8537   9.369   3.717   0.705 -2.3181 -0.1495 -0.2799
   26GLOH    O2 8538   9.430   3.915   0.682 -0.3151 -0.5001  0.0814
   26GLOH   H05 8539   9.429   3.979   0.609  1.6962 -0.7288 -0.1760
   26GLOH    C3 8540   9.192   3.846   0.694 -0.5408 -0.6236 -0.5269
   26GLOH   H06 8541   9.162   3.943   0.654  2.5336  1.1868  1.4185
   26GLOH   H07 8542   9.197   3.853   0.802 -0.0741 -1.0606 -0.5189
   26GLOH    O3 8543   9.097   3.744   0.656  0.1115  0.3890 -0.3579
   26GLOH   H01 8544   9.132   3.701   0.576  0.1329  0.0385 -0.1578
   27GLOH   H03 8545   2.891   6.312   1.094  0.3634  0.7349  1.6636
   27GLOH    O1 8546   2.882   6.234   1.151  0.0678 -0.3026  0.2403
   27GLOH    C1 8547   3.003   6.215   1.224  0.4291  0.1815  0.0195
   27GLOH   H02 8548   3.000   6.112   1.260  0.5634 -0.9814 -3.0904
   27GLOH   H08 8549   3.017   6.277   1.312  3.4748 -1.4572  0.7664
   27GLOH    C2 8550   3.133   6.228   1.138  0.3191 -0.0320  0.3740
   27GLOH   H04 8551   3.135   6.160   1.052  1.9090  1.4345 -0.7738
   27GLOH    O2 8552   3.141   6.356   1.073  0.4283 -0.8527 -0.4025
   27GLOH   H05 8553   3.096   6.423   1.128  2.6260 -0.2066  0.6700
   27GLOH    C3 8554   3.254   6.196   1.233 -0.1749  0.1867  0.9011
   27GLOH   H06 8555   3.239   6.270   1.312  1.2272  0.1049  1.2517
   27GLOH   H07 8556   3.348   6.216   1.182 -0.2240 -3.8240 -0.9960
   27GLOH    O3 8557   3.252   6.056   1.277 -0.0204  0.1271 -0.4019
   27GLOH   H01 8558   3.293   6.000   1.208 -0.9116  1.2703 -1.8881
   28GLOH   H03 8559   1.074   4.589   0.948 -2.2955 -1.9097 -0.4485
   28GLOH    O1 8560   1.031   4.626   0.869 -0.6437  0.4351 -0.2955
   28GLOH    C1 8561   1.030   4.515   0.775  0.5615  0.2292  0.8805
   28GLOH   H02 8562   1.011   4.424   0.832  0.1143 -0.3158 -0.1315
   28GLOH   H08 8563   1.130   4.520   0.730  0.4869 -2.0604  0.4223
   28GLOH    C2 8564   0.920   4.535   0.667 -0.1161 -0.4276 -0.5920
   28GLOH   H04 8565   0.953   4.624   0.612 -0.6788  0.1652  0.0204
   28GLOH    O2 8566   0.921   4.414   0.581  0.4772  0.0096 -0.6572
   28GLOH   H05 8567   1.004   4.369   0.558  0.6120 -0.0006 -0.1463
   28GLOH    C3 8568   0.786   4.547   0.737 -0.2032  0.2405 -0.0411
   28GLOH   H06 8569   0.769   4.452   0.788  0.5298  0.8770  1.4302
   28GLOH   H07 8570   0.704   4.538   0.666  0.3115  2.3208 -0.9352
   28GLOH    O3 8571   0.770   4.658   0.825 -0.0162  0.4504  0.4855
   28GLOH   H01 8572   0.857   4.662   0.867  1.2206 -2.2711 -1.6762
   29GLOH   H03 8573   1.471   7.002   2.679 -1.5039  0.2037 -0.4910
   29GLOH    O1 8574   1.438   6.930   2.736 -0.5664  0.0255 -0.1758
   29GLOH    C1 8575   1.307   6.890   2.685  0.4844  0.3942 -0.0661
   29GLOH   H02 8576   1.327   6.802   2.625  0.7252 -0.0809  0.6979
   29GLOH   H08 8577   1.264   6.970   2.624  0.7141  0.6484  0.1029
   29GLOH    C2 8578   1.200   6.845   2.789 -0.3828  0.6048 -0.7551
   29GLOH   H04 8579   1.100   6.833   2.745 -0.3531 -3.0397  0.0029
   29GLOH    O2 8580   1.223   6.730   2.873 -0.4785  0.2106 -0.1202
   29GLOH   H05 8581   1.142   6.679   2.888  0.6154 -1.3362  0.6727
   29GLOH    C3 8582   1.201   6.962   2.890 -0.4924  0.1543 -0.9750
   29GLOH   H06 8583   1.299   6.990   2.927 -0.7756 -0.4719  0.2601
   29GLOH   H07 8584   1.135   6.934   2.972  0.4010 -0.2280 -0.3818
   29GLOH    O3 8585   1.135   7.075   2.826 -0.1801 -0.2128 -0.1140
   29GLOH   H01 8586   1.111   7.138   2.896 -1.5716 -1.1777  0.2841
   30GLOH   H03 8587   4.277   8.215   0.394  0.7965  0.1850 -0.5436
   30GLOH    O1 8588   4.280   8.162   0.476 -0.3677 -0.3079 -0.8038
   30GLOH    C1 8589   4.235   8.026   0.462  0.2824  0.6066 -0.2791
   30GLOH   H02 8590   4.316   7.959   0.494 -0.1777  0.7271  1.1800
   30GLOH   H08 8591   4.203   8.021   0.358  1.2934  1.4569 -0.6372
   30GLOH    C2 8592   4.116   7.981   0.550  0.5593  0.1580  0.0536
   30GLOH   H04 8593   4.143   8.009   0.653 -1.2244  0.7057  0.3907
   30GLOH    O2 8594   3.995   8.057   0.514  0.0414 -0.0681  0.6058
   30GLOH   H05 8595   3.941   8.069   0.594 -3.2134 -1.2535 -1.3244
   30GLOH    C3 8596   4.083   7.827   0.538 -0.2146  0.2127  0.0448
   30GLOH   H06 8597   4.173   7.767   0.525  0.9120  2.5590 -3.6269
   30GLOH   H07 8598   4.026   7.803   0.448  2.1010 -0.0442 -1.3961
   30GLOH    O3 8599   3.999   7.784   0.642 -0.5957 -0.1983  0.0505
   30GLOH   H01 8600   3.935   7.855   0.662 -0.2385  0.5622 -1.3844
   31GLOH   H03 8601   1.217   1.478   0.422 -0.8645 -0.4414  0.0296
   31GLOH    O1 8602   1.248   1.522   0.504  0.0411  0.0646 -0.5734
   31GLOH    C1 8603   1.395   1.503   0.512 -0.5601 -0.1261  0.3296
   31GLOH   H02 8604   1.447   1.599   0.508 -0.4781 -0.1002  1.6196
   31GLOH   H08 8605   1.426   1.447   0.424 -0.8350  0.2577 -0.0161
   31GLOH    C2 8606   1.430   1.435   0.636  0.1511  0.3206  0.3405
   31GLOH   H04 8607   1.399   1.329   0.628  0.8123 -0.0845  2.6209
   31GLOH    O2 8608   1.572   1.428   0.643 -0.2715  0.2574 -0.0445
   31GLOH   H05 8609   1.600   1.520   0.632 -0.5012  0.3479  0.1223
   31GLOH    C3 8610   1.377   1.503   0.769 -0.1256  0.7309 -0.2999
   31GLOH   H06 8611   1.269   1.522   0.766 -0.2923  0.3644  2.3852
   31GLOH   H07 8612   1.427   1.599   0.759  0.4186  0.5665  0.8302
   31GLOH    O3 8613   1.399   1.438   0.892 -0.3712 -0.4040  0.2100
   31GLOH   H01 8614   1.493   1.431   0.920 -0.4883 -0.2140  0.6664
   32GLOH   H03 8615   9.684   2.752   1.632 -0.4978  1.0088 -0.2447
   32GLOH    O1 8616   9.731   2.722   1.552  0.0209  0.7609  0.1425
   32GLOH    C1 8617   9.832   2.640   1.613  0.4400  0.0689 -0.1424
   32GLOH   H02 8618   9.921   2.696   1.641  1.2715 -1.3027  0.0141
   32GLOH   H08 8619   9.871   2.573   1.536 -0.3786 -2.7810  1.8286
   32GLOH    C2 8620   9.779   2.560   1.734 -0.9554 -0.1942 -0.1406
   32GLOH   H04 8621   9.720   2.475   1.696 -1.0103 -1.6532  2.9994
   32GLOH    O2 8622   9.894   2.505   1.809 -0.6632  0.4903  0.2159
   32GLOH   H05 8623   9.856   2.454   1.882 -3.0150 -0.7575 -1.7985
   32GLOH    C3 8624   9.697   2.640   1.836 -1.4856 -0.1022  0.2292
   32GLOH   H06 8625   9.772   2.691   1.897 -1.3742 -0.0145  0.0230
   32GLOH   H07 8626   9.635   2.568   1.888 -2.4880  0.9201  0.4474
   32GLOH    O3 8627   9.608   2.747   1.783 -0.3777  0.7205 -0.3607
   32GLOH   H01 8628   9.518   2.722   1.810  0.0859  0.7838  1.2727
   33GLOH   H03 8629   1.710   9.891   1.409 -1.0947 -1.7201 -2.1777
   33GLOH    O1 8630   1.656   9.845   1.476 -0.3148  0.1734 -0.2104
   33GLOH    C1 8631   1.522   9.871   1.445  0.1563  0.6750  0.2383
   33GLOH   H02 8632   1.458   9.827   1.521  0.8925 -0.0877  0.4257
   33GLOH   H08 8633   1.488   9.820   1.355 -0.2741  1.0737  0.1749
   33GLOH    C2 8634   1.479  10.020   1.454  0.0898  0.3807  0.0699
   33GLOH   H04 8635   1.546  10.084   1.395 -0.3634  0.4838 -0.3344
   33GLOH    O2 8636   1.345  10.034   1.394  0.0373 -0.2224  0.0111
   33GLOH   H05 8637   1.278  10.066   1.457 -0.5542 -0.3646 -0.5417
   33GLOH    C3 8638   1.490  10.073   1.595  0.0793 -0.1606 -0.0630
   33GLOH   H06 8639   1.455  10.177   1.598  0.3130 -0.0426 -1.2304
   33GLOH   H07 8640   1.597  10.082   1.611  0.1275 -0.3971 -0.2545
   33GLOH    O3 8641   1.421   9.993   1.690  0.2678  0.2904  0.1014
   33GLOH   H01 8642   1.384  10.050   1.760  0.2986 -1.5941  1.7314
   34GLOH   H03 8643   4.828   2.030   0.817  0.1201 -3.8492 -3.8561
   34GLOH    O1 8644   4.903   1.987   0.861  0.5865  0.6144  0.1319
   34GLOH    C1 8645   5.022   2.051   0.803  0.0574  0.1098 -0.5750
   34GLOH   H02 8646   5.028   2.024   0.698  0.7227  0.2194 -0.5657
   34GLOH   H08 8647   5.110   2.007   0.851 -0.7565  0.6204  1.4345
   34GLOH    C2 8648   5.026   2.210   0.829  0.1047 -0.1720  0.7288
   34GLOH   H04 8649   4.953   2.259   0.763  1.4309 -0.5422 -1.0419
   34GLOH    O2 8650   4.991   2.263   0.958  0.1831 -0.0145 -0.3289
   34GLOH   H05 8651   4.925   2.208   1.002  0.3921 -1.0232 -1.2469
   34GLOH    C3 8652   5.165   2.278   0.793 -0.3297 -0.8091 -0.0102
   34GLOH   H06 8653   5.170   2.270   0.684  1.8921  1.9151 -0.1659
   34GLOH   H07 8654   5.247   2.225   0.841 -0.2190 -1.0532 -0.4664
   34GLOH    O3 8655   5.185   2.420   0.820  0.4678 -0.2510 -0.0580
   34GLOH   H01 8656   5.137   2.433   0.904 -0.2132  2.7982 -0.8591
   35GLOH   H03 8657   9.458   4.900   1.622  1.3545  0.2532 -0.0307
   35GLOH    O1 8658   9.459   4.895   1.720 -0.5995 -0.0147 -0.0068
   35GLOH    C1 8659   9.424   4.771   1.771  0.0099 -0.6530 -1.1247
   35GLOH   H02 8660   9.507   4.710   1.805  1.1701  1.8477  0.7139
   35GLOH   H08 8661   9.368   4.722   1.691 -1.0293 -2.2610  0.5558
   35GLOH    C2 8662   9.348   4.787   1.907  0.9210 -0.1493  0.3198
   35GLOH   H04 8663   9.255   4.843   1.888  0.6592 -0.1031  1.6935
   35GLOH    O2 8664   9.300   4.664   1.957 -0.6239 -0.1468 -0.8856
   35GLOH   H05 8665   9.383   4.619   1.981 -0.5834  0.7596  0.7534
   35GLOH    C3 8666   9.424   4.880   2.005  0.4024 -0.1124  0.0061
   35GLOH   H06 8667   9.521   4.831   2.016  0.1145 -0.8934 -0.8123
   35GLOH   H07 8668   9.374   4.875   2.101  1.3410  0.7476  0.5469
   35GLOH    O3 8669   9.433   5.011   1.956 -0.3439 -0.2393 -0.6337
   35GLOH   H01 8670   9.448   4.992   1.861  0.1705 -0.7668 -0.4520
   36GLOH   H03 8671   9.939   2.679   0.522  1.2843  0.8496 -0.5557
   36GLOH    O1 8672   9.947   2.738   0.599  0.0628  0.6938 -0.3008
   36GLOH    C1 8673   9.896   2.659   0.708  0.1413 -1.0730 -0.5663
   36GLOH   H02 8674   9.959   2.571   0.720 -0.1877 -1.4507 -1.5533
   36GLOH   H08 8675   9.797   2.620   0.688  0.0819 -0.0962 -2.2448
   36GLOH    C2 8676   9.899   2.711   0.852  0.0550 -0.3413  0.3818
   36GLOH   H04 8677   9.826   2.793   0.852 -0.3254 -0.6865 -0.6493
   36GLOH    O2 8678   9.839   2.623   0.947  0.0086 -0.4626  0.3239
   36GLOH   H05 8679   9.845   2.651   1.040 -1.4004 -3.1018  1.2665
   36GLOH    C3 8680  10.037   2.758   0.904 -0.1642  0.3379 -0.4143
   36GLOH   H06 8681  10.028   2.813   0.998 -1.0755  1.7464 -1.2952
   36GLOH   H07 8682  10.074   2.838   0.838 -1.6549  1.9474  0.6620
   36GLOH    O3 8683  10.127   2.647   0.920  0.0610 -0.3396 -0.0085
   36GLOH   H01 8684  10.159   2.616   0.833  1.0488  0.0624  0.1983
   37GLOH   H03 8685   2.556   4.806   2.063  2.2154  0.9917  0.2185
   37GLOH    O1 8686   2.564   4.729   2.123 -0.1262  0.4810 -0.0774
   37GLOH    C1 8687   2.678   4.641   2.092 -0.2018 -0.6954 -0.2748
   37GLOH   H02 8688   2.766   4.685   2.139  0.4075 -0.4476 -1.6146
   37GLOH   H08 8689   2.698   4.648   1.985 -1.5099 -0.9129 -0.5439
   37GLOH    C2 8690   2.654   4.498   2.133 -0.4198  0.0457  0.4390
   37GLOH   H04 8691   2.555   4.468   2.095  0.7247 -0.3011 -2.4197
   37GLOH    O2 8692   2.754   4.417   2.067  0.1993 -0.2563 -0.2602
   37GLOH   H05 8693   2.768   4.332   2.111 -0.6698 -1.8258 -2.9012
   37GLOH    C3 8694   2.660   4.479   2.282  0.6363 -0.8758 -0.5400
   37GLOH   H06 8695   2.748   4.521   2.330 -1.4145 -1.7060  4.2423
   37GLOH   H07 8696   2.661   4.374   2.312  1.2393 -0.8453 -0.4429
   37GLOH    O3 8697   2.549   4.549   2.335 -0.2261  0.6757  0.1780
   37GLOH   H01 8698   2.527   4.614   2.266  3.0048  0.3637 -1.1946
   38GLOH   H03 8699   2.088   9.200   0.365 -1.1112 -1.7950  1.3015
   38GLOH    O1 8700   2.015   9.173   0.307 -0.3811 -0.5779 -0.2174
   38GLOH    C1 8701   2.067   9.101   0.195  0.4016 -0.9428 -1.2160
   38GLOH   H02 8702   2.111   9.009   0.234 -1.9302 -1.2018  1.0211
   38GLOH   H08 8703   2.153   9.149   0.151 -0.0687 -0.1456 -1.2732
   38GLOH    C2 8704   1.961   9.069   0.099 -0.3719 -0.1795  0.1067
   38GLOH   H04 8705   1.923   9.159   0.048  0.1105  0.3049  0.5998
   38GLOH    O2 8706   2.021   9.000  -0.011  0.2915 -0.5905  0.3711
   38GLOH   H05 8707   2.000   8.906  -0.023 -1.6481 -0.0446 -0.5900
   38GLOH    C3 8708   1.861   8.973   0.167  0.3430  0.4228 -0.3730
   38GLOH   H06 8709   1.828   9.018   0.261 -0.0542  0.6697 -0.6250
   38GLOH   H07 8710   1.912   8.882   0.196  0.7109  1.6133  2.9704
   38GLOH    O3 8711   1.754   8.946   0.079 -0.4406  0.0467  0.2602
   38GLOH   H01 8712   1.784   8.919  -0.009  1.2608  1.2714  0.4463
   39GLOH   H03 8713   2.475   4.462   1.885  1.4035 -3.4269  2.5560
   39GLOH    O1 8714   2.396   4.476   1.940  0.0758 -0.4351  0.0722
   39GLOH    C1 8715   2.344   4.610   1.913  0.5885 -0.8726 -0.1325
   39GLOH   H02 8716   2.285   4.607   1.821 -0.2771 -0.6749  0.4131
   39GLOH   H08 8717   2.418   4.689   1.900  0.3962 -0.6700 -0.0008
   39GLOH    C2 8718   2.234   4.655   2.012  0.0063  0.1691  0.1058
   39GLOH   H04 8719   2.276   4.654   2.114  1.1348 -1.7424 -0.3468
   39GLOH    O2 8720   2.195   4.786   1.959  0.0048 -0.3193 -0.3597
   39GLOH   H05 8721   2.167   4.850   2.027 -2.0675 -0.6285 -0.9028
   39GLOH    C3 8722   2.113   4.564   1.997  0.2507 -0.0402  0.3204
   39GLOH   H06 8723   2.069   4.589   1.901  3.2631  1.7394 -0.6489
   39GLOH   H07 8724   2.033   4.580   2.069 -1.1205 -1.4127 -0.8588
   39GLOH    O3 8725   2.150   4.429   2.015 -0.7835 -0.2037 -0.2738
   39GLOH   H01 8726   2.244   4.429   1.990 -1.0901  1.2618 -1.5495
   40GLOH   H03 8727   5.062   2.635   2.437  0.4774 -0.4373  1.0877
   40GLOH    O1 8728   5.030   2.584   2.513  0.0560 -1.0140  0.5243
   40GLOH    C1 8729   5.008   2.673   2.623 -0.1152  0.3182 -0.2775
   40GLOH   H02 8730   4.948   2.758   2.588  1.5134  0.9698 -1.5942
   40GLOH   H08 8731   5.102   2.704   2.669  0.7630 -0.0754 -1.7573
   40GLOH    C2 8732   4.929   2.608   2.744  0.1676  0.2703  0.1029
   40GLOH   H04 8733   4.981   2.515   2.771 -2.8453 -1.4263  0.2521
   40GLOH    O2 8734   4.915   2.699   2.858 -0.1700 -0.4040  0.0121
   40GLOH   H05 8735   4.824   2.717   2.887 -0.3964 -1.1854 -0.2036
   40GLOH    C3 8736   4.789   2.558   2.707 -0.3067 -0.0632  0.1346
   40GLOH   H06 8737   4.725   2.646   2.703 -0.1194  0.0804  0.2696
   40GLOH   H07 8738   4.745   2.499   2.787  1.6261  0.3314  1.5220
   40GLOH    O3 8739   4.781   2.493   2.580  0.1508 -0.4608  0.0431
   40GLOH   H01 8740   4.870   2.482   2.540 -0.2827  4.3905 -2.7044
   41GLOH   H03 8741   3.558   9.227   2.487  0.4811 -0.8306  1.0655
   41GLOH    O1 8742   3.480   9.169   2.489 -0.2200  0.0489 -0.5144
   41GLOH    C1 8743   3.471   9.086   2.608 -0.3807 -0.7340 -0.0801
   41GLOH   H02 8744   3.449   9.142   2.698  1.7239 -2.5583  1.6126
   41GLOH   H08 8745   3.565   9.033   2.626 -0.5147 -1.2378 -0.8416
   41GLOH    C2 8746   3.356   8.982   2.593 -0.0154  0.0256  0.3166
   41GLOH   H04 8747   3.387   8.913   2.513 -0.9046 -1.6575  1.4001
   41GLOH    O2 8748   3.336   8.903   2.714 -0.2950 -0.0459 -0.0857
   41GLOH   H05 8749   3.336   8.808   2.693 -2.2682 -0.3931  1.3537
   41GLOH    C3 8750   3.226   9.043   2.556 -0.8153 -0.1876  0.0387
   41GLOH   H06 8751   3.188   9.101   2.640  0.7902  2.2447 -0.8620
   41GLOH   H07 8752   3.151   8.968   2.529 -0.8101 -0.4495  0.7207
   41GLOH    O3 8753   3.245   9.116   2.432  0.0342 -0.3972 -0.2146
   41GLOH   H01 8754   3.328   9.165   2.443 -0.0005 -0.0814 -1.3441
   42GLOH   H03 8755   4.463   8.766   2.297 -0.5854  1.7091 -0.0031
   42GLOH    O1 8756   4.495   8.793   2.209 -0.0452 -0.4458 -0.4981
   42GLOH    C1 8757   4.405   8.899   2.157  0.7841  0.0850 -0.3147
   42GLOH   H02 8758   4.304   8.864   2.137  0.6781  1.2048 -1.8511
   42GLOH   H08 8759   4.453   8.943   2.069  0.9828 -1.7627 -1.1354
   42GLOH    C2 8760   4.386   9.028   2.246 -0.6382 -0.0972  0.9351
   42GLOH   H04 8761   4.324   9.096   2.187 -1.5564 -0.0061  1.9953
   42GLOH    O2 8762   4.311   9.006   2.367  1.7287 -0.2910  0.2227
   42GLOH   H05 8763   4.350   8.928   2.408  2.7179 -0.8113 -1.6197
   42GLOH    C3 8764   4.516   9.111   2.265 -0.0338 -0.1021  0.1522
   42GLOH   H06 8765   4.596   9.037   2.278 -0.7938 -0.8643  0.5155
   42GLOH   H07 8766   4.507   9.174   2.354  1.7922 -0.5965  0.7248
   42GLOH    O3 8767   4.549   9.203   2.156 -0.4067 -0.6536  0.1940
   42GLOH   H01 8768   4.542   9.292   2.195 -3.2918 -1.8499  2.6309
   43GLOH   H03 8769   3.221   2.546   2.359  0.2613  2.5099 -0.0211
   43GLOH    O1 8770   3.231   2.527   2.264  0.5407 -0.2930  0.5308
   43GLOH    C1 8771   3.264   2.393   2.239 -0.0298 -0.7924 -0.1882
   43GLOH   H02 8772   3.181   2.332   2.274 -2.2068  1.5345 -1.1142
   43GLOH   H08 8773   3.360   2.363   2.281  0.4144  0.8149 -0.0151
   43GLOH    C2 8774   3.274   2.371   2.086 -0.3624  0.2127 -0.1185
   43GLOH   H04 8775   3.285   2.261   2.082 -0.3370  0.2498 -1.2898
   43GLOH    O2 8776   3.150   2.394   2.019  0.1466  0.7410  0.7653
   43GLOH   H05 8777   3.099   2.311   2.026 -1.4178  1.4716 -1.5550
   43GLOH    C3 8778   3.395   2.440   2.027 -0.1864 -0.0876 -0.1880
   43GLOH   H06 8779   3.388   2.542   2.065  1.6944 -0.2849  0.7533
   43GLOH   H07 8780   3.383   2.455   1.920  0.6059  0.3932 -0.2191
   43GLOH    O3 8781   3.518   2.380   2.059 -0.0282 -0.4757 -0.2091
   43GLOH   H01 8782   3.520   2.291   2.019 -1.9362 -0.8612  0.5067
   44GLOH   H03 8783   4.287   5.173   2.412  0.2410 -0.3454  0.2471
   44GLOH    O1 8784   4.212   5.235   2.418  0.4704 -0.0156 -0.2180
   44GLOH    C1 8785   4.244   5.318   2.531  0.0390  0.4398  0.8906
   44GLOH   H02 8786   4.152   5.348   2.581  0.5992 -0.5108  2.5257
   44GLOH   H08 8787   4.302   5.403   2.496  2.7659 -1.2236  1.2369
   44GLOH    C2 8788   4.321   5.237   2.637 -0.1946 -0.2513 -0.2459
   44GLOH   H04 8789   4.416   5.213   2.587  0.6503  0.2479  1.0722
   44GLOH    O2 8790   4.350   5.317   2.749 -0.0663  0.1636 -0.6834
   44GLOH   H05 8791   4.271   5.337   2.802 -0.8352 -2.8795 -0.5988
   44GLOH    C3 8792   4.262   5.108   2.692  0.6516  0.1326  0.1763
   44GLOH   H06 8793   4.177   5.144   2.749 -0.9831  0.5084 -2.4010
   44GLOH   H07 8794   4.336   5.061   2.756  3.0627  1.7905 -1.2718
   44GLOH    O3 8795   4.215   5.021   2.586 -0.1942 -0.2335 -0.1524
   44GLOH   H01 8796   4.283   5.031   2.517 -0.0312  1.8036  0.2754
   45GLOH   H03 8797   9.594   5.402   1.679  0.6458 -0.6411  0.2721
   45GLOH    O1 8798   9.544   5.386   1.597 -0.3325  0.6823  0.6012
   45GLOH    C1 8799   9.642   5.364   1.492  0.2634  1.1044  0.0062
   45GLOH   H02 8800   9.705   5.453   1.486  1.8054  0.0080 -0.5430
   45GLOH   H08 8801   9.587   5.352   1.399 -0.2649 -1.3864  0.6227
   45GLOH    C2 8802   9.739   5.250   1.513  0.3463  0.1196 -0.6338
   45GLOH   H04 8803   9.795   5.263   1.607 -1.3555 -0.0300  0.4362
   45GLOH    O2 8804   9.667   5.122   1.519  0.0191 -0.2547 -0.0447
   45GLOH   H05 8805   9.579   5.115   1.559 -0.9073  0.7387 -1.8588
   45GLOH    C3 8806   9.842   5.246   1.398  0.2036 -0.4397  0.5494
   45GLOH   H06 8807   9.791   5.229   1.304  0.6136  2.6443 -0.2748
   45GLOH   H07 8808   9.895   5.151   1.405  0.3688 -0.4989 -1.2814
   45GLOH    O3 8809   9.937   5.347   1.368 -0.1540  0.1459  0.4200
   45GLOH   H01 8810   9.979   5.398   1.440  1.3693  0.3603 -0.5870
   46GLOH   H03 8811   3.763   8.568   2.131  0.3121  0.0802 -0.8513
   46GLOH    O1 8812   3.749   8.471   2.127 -0.3302  0.1410 -0.2520
   46GLOH    C1 8813   3.812   8.403   2.237 -0.0946  0.2287 -0.4195
   46GLOH   H02 8814   3.920   8.414   2.234 -0.0441 -0.5721 -1.6622
   46GLOH   H08 8815   3.792   8.296   2.229  1.8074 -0.1937  0.2204
   46GLOH    C2 8816   3.764   8.461   2.375  0.1068  0.0902 -0.3416
   46GLOH   H04 8817   3.811   8.393   2.448 -0.7777 -0.4137 -0.2237
   46GLOH    O2 8818   3.809   8.595   2.390  0.3883  0.4547 -0.1703
   46GLOH   H05 8819   3.794   8.640   2.305 -0.2826 -1.1356 -0.9240
   46GLOH    C3 8820   3.610   8.451   2.387  0.5381 -0.0352  0.9042
   46GLOH   H06 8821   3.567   8.522   2.316 -0.7385 -0.7449  0.9616
   46GLOH   H07 8822   3.576   8.469   2.489 -2.3166 -1.0338  0.1585
   46GLOH    O3 8823   3.563   8.321   2.353  0.2798 -0.0452  0.3362
   46GLOH   H01 8824   3.552   8.279   2.441  2.5673 -1.7473 -0.1409
   47GLOH   H03 8825   3.021   9.682   0.257  0.0591  0.6856  0.3231
   47GLOH    O1 8826   3.098   9.717   0.306  0.4178  0.0867  0.1984
   47GLOH    C1 8827   3.143   9.828   0.224  0.1446 -0.1958 -0.6245
   47GLOH   H02 8828   3.096   9.919   0.261  1.7969  0.7247 -0.7568
   47GLOH   H08 8829   3.105   9.810   0.123  0.1994 -2.0251 -0.3353
   47GLOH    C2 8830   3.294   9.850   0.221 -0.6002  0.1881  0.1279
   47GLOH   H04 8831   3.313   9.944   0.166 -1.5081  0.0968 -0.3579
   47GLOH    O2 8832   3.346   9.875   0.354 -0.2292  0.3220  0.2031
   47GLOH   H05 8833   3.313   9.815   0.423  2.0969  0.8215  1.8135
   47GLOH    C3 8834   3.358   9.743   0.143 -0.4958 -0.3463 -0.6401
   47GLOH   H06 8835   3.332   9.649   0.192 -1.7508  0.0418 -0.5482
   47GLOH   H07 8836   3.463   9.770   0.148 -0.6616  0.1063  0.5389
   47GLOH    O3 8837   3.311   9.753   0.003  0.0000  0.2343 -0.0095
   47GLOH   H01 8838   3.334   9.838  -0.038  1.4048 -1.6244 -3.3493
   48GLOH   H03 8839   4.717   3.394   1.883 -2.0147 -0.2219 -1.4396
   48GLOH    O1 8840   4.739   3.299   1.874  0.1672  0.1150 -0.1439
   48GLOH    C1 8841   4.628   3.221   1.834 -0.0266 -0.0081  0.5085
   48GLOH   H02 8842   4.541   3.283   1.814  0.6867  0.5161 -1.0049
   48GLOH   H08 8843   4.605   3.157   1.919 -0.6962  1.4420  1.4429
   48GLOH    C2 8844   4.654   3.132   1.711  0.4583 -0.2156 -0.1658
   48GLOH   H04 8845   4.556   3.091   1.683 -0.2988  1.2549  0.2893
   48GLOH    O2 8846   4.688   3.217   1.604 -0.2065 -0.1749  0.6947
   48GLOH   H05 8847   4.772   3.256   1.632  0.5625 -0.1917 -1.5102
   48GLOH    C3 8848   4.750   3.010   1.739 -0.3908 -0.1103  0.4559
   48GLOH   H06 8849   4.832   3.047   1.801  0.2500 -1.8537  0.6695
   48GLOH   H07 8850   4.795   2.977   1.646 -3.1068 -0.2308 -0.8805
   48GLOH    O3 8851   4.686   2.898   1.812 -0.0585 -0.4877  0.4030
   48GLOH   H01 8852   4.726   2.814   1.782  0.4656  0.2972 -1.1539
   49GLOH   H03 8853   1.920   2.065   2.439  0.3514 -0.1004  1.0254
   49GLOH    O1 8854   1.922   2.162   2.426 -0.0597 -0.3183 -0.8248
   49GLOH    C1 8855   2.065   2.194   2.427  0.3288  0.5866  0.4340
   49GLOH   H02 8856   2.112   2.169   2.331  1.0571 -0.6934  1.1053
   49GLOH   H08 8857   2.121   2.140   2.503 -3.3796 -1.7653  1.6279
   49GLOH    C2 8858   2.087   2.344   2.452 -0.1185 -0.0292  0.0731
   49GLOH   H04 8859   2.032   2.373   2.543  1.0378 -2.6887  1.6922
   49GLOH    O2 8860   2.230   2.362   2.472  0.4091 -0.3399 -0.3663
   49GLOH   H05 8861   2.286   2.355   2.392 -0.1805 -0.3464 -0.7835
   49GLOH    C3 8862   2.046   2.432   2.334 -0.3059 -1.0137  1.0839
   49GLOH   H06 8863   2.099   2.416   2.239 -0.7904  0.2638  0.5844
   49GLOH   H07 8864   2.087   2.531   2.358  1.6722 -1.0730 -1.6596
   49GLOH    O3 8865   1.911   2.438   2.300  0.2502 -0.1926 -0.8903
   49GLOH   H01 8866   1.862   2.354   2.305 -1.1578  0.6196 -0.7684
   50GLOH   H03 8867   4.595   1.207   0.823 -0.0515  1.1697  0.2701
   50GLOH    O1 8868   4.542   1.160   0.889  0.1427  0.5188 -0.0377
   50GLOH    C1 8869   4.605   1.182   1.016  0.3956  0.1457 -0.4194
   50GLOH   H02 8870   4.542   1.163   1.103 -0.0705 -3.8798 -1.5214
   50GLOH   H08 8871   4.654   1.279   1.030  0.6257 -0.5427  4.3491
   50GLOH    C2 8872   4.718   1.077   1.038 -0.5209 -0.2990 -0.3876
   50GLOH   H04 8873   4.785   1.103   0.955  0.8943  1.6707  1.3156
   50GLOH    O2 8874   4.789   1.103   1.163  0.9838 -0.0218  0.1932
   50GLOH   H05 8875   4.745   1.174   1.212 -3.5947 -0.9754 -2.2068
   50GLOH    C3 8876   4.689   0.925   1.026 -0.2831 -0.0368  0.5502
   50GLOH   H06 8877   4.618   0.891   1.101  0.1075 -2.1983 -0.0452
   50GLOH   H07 8878   4.781   0.871   1.049  0.3673  1.6002  1.9621
   50GLOH    O3 8879   4.630   0.905   0.890 -0.6182  0.0947  0.0425
   50GLOH   H01 8880   4.552   0.964   0.882 -0.5186  0.1925 -0.2208
   51GLOH   H03 8881   0.850   1.374   1.474  1.6919  1.7489  0.5224
   51GLOH    O1 8882   0.895   1.296   1.510 -0.4513  0.3749  0.2591
   51GLOH    C1 8883   1.026   1.343   1.566 -0.6007  0.0023  0.4536
   51GLOH   H02 8884   1.001   1.392   1.660  0.9305 -0.8167  1.3067
   51GLOH   H08 8885   1.078   1.403   1.492 -0.9705 -0.3590 -0.1025
   51GLOH    C2 8886   1.104   1.217   1.604 -0.2395 -0.2361 -0.1256
   51GLOH   H04 8887   1.091   1.148   1.519 -1.0890  1.2096 -1.1901
   51GLOH    O2 8888   1.239   1.250   1.624 -0.7619 -0.4335 -0.2267
   51GLOH   H05 8889   1.289   1.170   1.598 -3.1206 -1.3380 -2.1916
   51GLOH    C3 8890   1.042   1.151   1.729  0.1737  0.2370  0.2597
   51GLOH   H06 8891   1.102   1.062   1.747  0.2920  0.2838  0.0922
   51GLOH   H07 8892   0.938   1.122   1.709  0.7273 -1.0537 -0.7818
   51GLOH    O3 8893   1.045   1.234   1.844 -0.0325 -0.0510 -0.3438
   51GLOH   H01 8894   0.983   1.308   1.837  0.9287  0.7332 -0.6450
   52GLOH   H03 8895   3.013   7.517   1.091  0.1447  0.7379 -1.5017
   52GLOH    O1 8896   3.096   7.543   1.134 -0.1398 -0.6252 -0.1029
   52GLOH    C1 8897   3.077   7.685   1.163  0.2860 -0.3635 -0.3112
   52GLOH   H02 8898   2.984   7.725   1.124  0.1846 -0.0212  0.2711
   52GLOH   H08 8899   3.156   7.746   1.118 -1.3212 -0.4099 -3.3216
   52GLOH    C2 8900   3.072   7.700   1.317  0.0381 -0.4472  0.0332
   52GLOH   H04 8901   3.175   7.684   1.353  0.5950 -2.4323 -2.2495
   52GLOH    O2 8902   3.034   7.832   1.346 -0.0231 -0.0846 -0.2311
   52GLOH   H05 8903   3.091   7.901   1.311 -1.0999  1.0970  0.2992
   52GLOH    C3 8904   2.972   7.602   1.380 -0.3486 -0.7243  0.2645
   52GLOH   H06 8905   2.980   7.503   1.335  1.2417 -0.2887 -0.4277
   52GLOH   H07 8906   2.871   7.634   1.354 -0.0664  0.7616  0.9822
   52GLOH    O3 8907   2.981   7.586   1.524  0.1197 -0.2246 -0.6025
   52GLOH   H01 8908   3.003   7.676   1.557  0.3230 -0.7132  0.6435
   53GLOH   H03 8909   9.747   4.356   2.609  0.7272 -1.9246 -1.2750
   53GLOH    O1 8910   9.687   4.283   2.634 -0.6084 -0.6267 -0.5786
   53GLOH    C1 8911   9.711   4.241   2.773 -0.3889  0.2950  1.0476
   53GLOH   H02 8912   9.647   4.301   2.838  0.6171  1.1500  1.2700
   53GLOH   H08 8913   9.816   4.255   2.800 -0.4933  1.8096  0.6991
   53GLOH    C2 8914   9.659   4.096   2.804  0.4322  0.2333  0.4599
   53GLOH   H04 8915   9.711   4.029   2.735  0.0525  0.9483 -0.5324
   53GLOH    O2 8916   9.688   4.063   2.944  0.3284 -0.0994 -0.0546
   53GLOH   H05 8917   9.601   4.075   2.987 -0.4723  1.9205 -2.1441
   53GLOH    C3 8918   9.510   4.077   2.782  0.4294 -0.6989  0.0250
   53GLOH   H06 8919   9.497   3.969   2.776 -2.3562 -0.3379 -1.2723
   53GLOH   H07 8920   9.476   4.114   2.685  1.2209 -0.7561 -0.2853
   53GLOH    O3 8921   9.426   4.141   2.874  0.4519  0.0101 -0.1741
   53GLOH   H01 8922   9.384   4.218   2.831 -0.7235 -1.3958 -1.6095
   54GLOH   H03 8923   3.413   4.888   0.302  0.2718  0.1322 -0.0370
   54GLOH    O1 8924   3.457   4.973   0.319 -0.0384  0.3099 -0.1249
   54GLOH    C1 8925   3.594   4.950   0.352 -0.2641 -0.2168 -0.6452
   54GLOH   H02 8926   3.604   4.854   0.404  0.9826 -0.2818 -0.9877
   54GLOH   H08 8927   3.634   5.030   0.414  0.1004 -0.1266 -1.0010
   54GLOH    C2 8928   3.679   4.942   0.222 -0.3720  1.0638 -0.2843
   54GLOH   H04 8929   3.659   5.027   0.155  0.6809  0.2078 -1.7091
   54GLOH    O2 8930   3.809   4.966   0.260 -0.0564 -0.4154  0.7223
   54GLOH   H05 8931   3.867   4.965   0.182 -0.0352  0.0372  0.7338
   54GLOH    C3 8932   3.673   4.812   0.138  0.6095  0.0446  0.0086
   54GLOH   H06 8933   3.731   4.735   0.189 -0.0710  0.6125  1.6746
   54GLOH   H07 8934   3.731   4.818   0.046 -1.1248  1.1537 -1.0364
   54GLOH    O3 8935   3.543   4.757   0.106 -0.5506 -0.4243 -0.5938
   54GLOH   H01 8936   3.512   4.815   0.033  0.8959 -0.0488 -0.9427
   55GLOH   H03 8937   4.492   8.738   0.485 -1.1525  0.5714  1.0576
   55GLOH    O1 8938   4.528   8.826   0.506  0.6425  0.0556  0.1856
   55GLOH    C1 8939   4.425   8.910   0.571 -0.0316 -0.6334 -0.3594
   55GLOH   H02 8940   4.365   8.848   0.638  0.8979  0.4508  1.5072
   55GLOH   H08 8941   4.353   8.957   0.505 -0.5348  0.1846  0.7575
   55GLOH    C2 8942   4.484   9.015   0.662 -0.2772  0.1848 -0.0951
   55GLOH   H04 8943   4.529   9.093   0.599 -0.9485 -0.9869 -2.0947
   55GLOH    O2 8944   4.377   9.074   0.738  0.2128 -0.6633 -0.2798
   55GLOH   H05 8945   4.416   9.122   0.813 -0.5811 -1.1940  0.4803
   55GLOH    C3 8946   4.590   8.950   0.755 -0.5265  0.0899 -0.2479
   55GLOH   H06 8947   4.685   8.941   0.702 -1.1209  1.8046 -1.6751
   55GLOH   H07 8948   4.556   8.854   0.794 -0.9077 -0.0765 -0.9921
   55GLOH    O3 8949   4.626   9.033   0.869 -0.3275 -0.2560  0.0314
   55GLOH   H01 8950   4.574   9.012   0.949  1.8842  0.3965  1.6851
   56GLOH   H03 8951   9.873   3.264   1.530  0.8824 -1.3758 -0.9196
   56GLOH    O1 8952   9.913   3.248   1.617  0.1057 -0.6887 -0.4306
   56GLOH    C1 8953   9.964   3.112   1.614  0.0362 -0.3556  0.1206
   56GLOH   H02 8954   9.987   3.099   1.508 -3.1810 -0.1301 -0.6809
   56GLOH   H08 8955   9.890   3.033   1.627  0.4389 -0.2218  3.6835
   56GLOH    C2 8956  10.082   3.081   1.693 -0.7864  0.1845 -0.0706
   56GLOH   H04 8957  10.059   3.117   1.794  0.6780  2.5776 -0.5329
   56GLOH    O2 8958  10.110   2.939   1.681 -0.4728  0.3440  0.4543
   56GLOH   H05 8959  10.136   2.909   1.770  1.1097 -0.9860 -0.4451
   56GLOH    C3 8960  10.209   3.154   1.638  0.4887 -0.5364  0.0400
   56GLOH   H06 8961  10.212   3.133   1.531 -0.4651  1.9103 -0.4972
   56GLOH   H07 8962  10.300   3.109   1.677  1.5306 -0.1184 -1.8293
   56GLOH    O3 8963  10.215   3.299   1.666 -0.1236 -0.1673  0.1295
   56GLOH   H01 8964  10.151   3.353   1.615 -1.7282 -1.6246  0.5493
   57GLOH   H03 8965   3.011   7.428   0.922  1.6824 -0.9421  1.6662
   57GLOH    O1 8966   3.075   7.456   0.854  0.2223  0.1654  0.7273
   57GLOH    C1 8967   3.008   7.486   0.732 -0.6452  0.3904 -0.2495
   57GLOH   H02 8968   2.929   7.559   0.747 -0.2032  1.0158 -0.9246
   57GLOH   H08 8969   2.967   7.399   0.681  0.3897 -0.2529  0.0085
   57GLOH    C2 8970   3.115   7.539   0.629  0.6977  0.0299  0.4776
   57GLOH   H04 8971   3.158   7.633   0.667  1.9807  0.3475 -1.6916
   57GLOH    O2 8972   3.220   7.442   0.613 -0.5769  0.2137  0.1995
   57GLOH   H05 8973   3.201   7.360   0.565  1.6420  0.3927 -1.0848
   57GLOH    C3 8974   3.044   7.569   0.494 -0.1244  0.5597 -0.3626
   57GLOH   H06 8975   3.040   7.482   0.428 -0.9073 -0.2808  0.7739
   57GLOH   H07 8976   3.116   7.639   0.452 -0.2525  0.6862 -0.3694
   57GLOH    O3 8977   2.914   7.630   0.508 -0.5932 -0.3276  0.2081
   57GLOH   H01 8978   2.921   7.727   0.516  2.0209 -0.3975 -0.6618
   58GLOH   H03 8979   2.434  10.366   1.878  2.5412 -2.9399 -0.6567
   58GLOH    O1 8980   2.347  10.326   1.859  0.3695  1.2875 -0.2041
   58GLOH    C1 8981   2.292  10.390   1.742 -0.3092  0.3882 -0.3809
   58GLOH   H02 8982   2.268  10.494   1.764  0.0798 -0.2162  3.0928
   58GLOH   H08 8983   2.198  10.339   1.718  0.4742 -0.7581 -1.0662
   58GLOH    C2 8984   2.369  10.379   1.608 -0.3269  0.6196  0.0950
   58GLOH   H04 8985   2.314  10.435   1.530 -1.4292 -2.5136 -1.4893
   58GLOH    O2 8986   2.506  10.419   1.627 -0.1895 -0.3049 -0.3004
   58GLOH   H05 8987   2.549  10.349   1.679 -2.1401 -1.5611 -0.3464
   58GLOH    C3 8988   2.352  10.233   1.547 -0.0780 -0.6069 -0.4955
   58GLOH   H06 8989   2.412  10.169   1.611  0.6877  1.1092  0.5565
   58GLOH   H07 8990   2.411  10.237   1.456  0.8412 -0.8810  0.0879
   58GLOH    O3 8991   2.217  10.191   1.533 -0.2295  0.2169  0.1762
   58GLOH   H01 8992   2.218  10.099   1.501 -0.4055 -0.2760  1.5590
   59GLOH   H03 8993   3.629   4.845   1.473  1.6775  0.1505  0.8248
   59GLOH    O1 8994   3.670   4.814   1.390 -0.8988 -0.4703 -0.2702
   59GLOH    C1 8995   3.784   4.730   1.428  0.1995 -0.4277  0.5365
   59GLOH   H02 8996   3.862   4.749   1.355  0.1246  0.4054  0.6638
   59GLOH   H08 8997   3.758   4.624   1.427  0.3443 -0.4551  0.0450
   59GLOH    C2 8998   3.843   4.756   1.564 -0.1743 -0.1249  0.3958
   59GLOH   H04 8999   3.846   4.865   1.577 -0.4280  0.2197 -2.0109
   59GLOH    O2 9000   3.753   4.698   1.663 -0.6493 -0.5138  0.1173
   59GLOH   H05 9001   3.755   4.752   1.744  1.3131 -3.0925  1.8941
   59GLOH    C3 9002   3.977   4.682   1.562 -0.4582 -0.8541 -0.1242
   59GLOH   H06 9003   3.966   4.576   1.538  0.7296 -0.9750 -0.1690
   59GLOH   H07 9004   4.019   4.682   1.662  3.0145  1.0074 -1.4652
   59GLOH    O3 9005   4.072   4.736   1.466 -0.6876 -0.3235  0.3892
   59GLOH   H01 9006   4.123   4.658   1.438  1.0493  1.3047 -1.0519
   60GLOH   H03 9007   5.317   2.512   0.779  1.2264  1.8530  2.6913
   60GLOH    O1 9008   5.368   2.575   0.725  0.2409  0.1633 -0.3501
   60GLOH    C1 9009   5.284   2.680   0.676  0.0573  0.9209  0.3362
   60GLOH   H02 9010   5.186   2.645   0.644 -0.1289  0.4993  1.3650
   60GLOH   H08 9011   5.333   2.715   0.584 -0.6324 -0.7502 -0.6735
   60GLOH    C2 9012   5.275   2.796   0.775  0.0008  0.2104 -0.3185
   60GLOH   H04 9013   5.381   2.829   0.775  0.7572 -2.1053  1.2278
   60GLOH    O2 9014   5.188   2.907   0.741 -0.4260 -0.1143  0.2134
   60GLOH   H05 9015   5.108   2.865   0.705 -0.5238  0.5786 -0.3868
   60GLOH    C3 9016   5.233   2.752   0.917 -0.6105  0.0346 -0.5900
   60GLOH   H06 9017   5.237   2.844   0.977  2.5638 -0.8781  0.6960
   60GLOH   H07 9018   5.317   2.693   0.954 -0.6322  0.5236  0.2701
   60GLOH    O3 9019   5.108   2.689   0.946  0.1725  0.2519  0.0010
   60GLOH   H01 9020   5.071   2.643   0.869 -1.1746 -0.5913  1.1270
   61GLOH   H03 9021   2.197   5.850   0.704  2.5678 -0.0497 -0.2549
   61GLOH    O1 9022   2.185   5.767   0.753 -0.4165  0.6119  0.2121
   61GLOH    C1 9023   2.314   5.744   0.816  0.6495 -0.3832 -0.1497
   61GLOH   H02 9024   2.386   5.801   0.757  0.1518  0.8003  0.3728
   61GLOH   H08 9025   2.335   5.638   0.809 -0.0299 -0.5979  0.9191
   61GLOH    C2 9026   2.309   5.796   0.962  0.2461 -1.2446 -0.3474
   61GLOH   H04 9027   2.270   5.899   0.973  1.0905 -1.0502  1.0078
   61GLOH    O2 9028   2.219   5.717   1.036  0.2787  0.1018 -0.0177
   61GLOH   H05 9029   2.156   5.776   1.081 -2.0722 -0.1200 -2.8834
   61GLOH    C3 9030   2.445   5.783   1.036 -0.2815  0.7878 -0.6555
   61GLOH   H06 9031   2.475   5.679   1.026 -0.2511  0.5529  1.6153
   61GLOH   H07 9032   2.433   5.805   1.142  2.2787 -0.2486 -0.1295
   61GLOH    O3 9033   2.541   5.872   0.984 -0.5223 -0.1001 -0.5075
   61GLOH   H01 9034   2.498   5.913   0.907  1.0678 -1.2909 -2.0651
   62GLOH   H03 9035   1.575   4.048   0.211 -0.0568  0.4050 -0.0816
   62GLOH    O1 9036   1.588   3.955   0.186 -0.0698  0.2589  0.4444
   62GLOH    C1 9037   1.534   3.868   0.284  0.2911  0.1608 -0.9707
   62GLOH   H02 9038   1.522   3.918   0.380  0.2850 -1.0924 -0.3135
   62GLOH   H08 9039   1.591   3.776   0.292 -1.6029 -1.2497 -2.8956
   62GLOH    C2 9040   1.393   3.808   0.245 -0.0922 -0.5971  0.0897
   62GLOH   H04 9041   1.416   3.745   0.158 -3.4825  0.8950 -2.0129
   62GLOH    O2 9042   1.333   3.737   0.356 -0.3541  0.0172  0.5911
   62GLOH   H05 9043   1.242   3.768   0.370 -0.1389  0.6547  0.5769
   62GLOH    C3 9044   1.306   3.919   0.191  1.0991  0.0266  0.5692
   62GLOH   H06 9045   1.359   3.990   0.128 -1.0587  1.5107  0.3802
   62GLOH   H07 9046   1.272   3.970   0.281 -2.2147  0.5883 -0.9147
   62GLOH    O3 9047   1.191   3.868   0.131  0.0993 -0.0565 -0.2041
   62GLOH   H01 9048   1.116   3.930   0.138  1.3330  1.3903  0.5015
   63GLOH   H03 9049   1.299   6.467   2.524  0.2714 -1.0313 -1.1882
   63GLOH    O1 9050   1.313   6.381   2.568 -0.1988 -0.2789  0.4519
   63GLOH    C1 9051   1.297   6.389   2.710 -0.1185  0.0996  0.0638
   63GLOH   H02 9052   1.303   6.291   2.756  0.2173 -0.5910 -1.4182
   63GLOH   H08 9053   1.196   6.426   2.727 -0.4064 -0.1944 -1.0056
   63GLOH    C2 9054   1.402   6.492   2.770  0.8072 -0.0783  0.1036
   63GLOH   H04 9055   1.399   6.581   2.706  0.9332  0.3092  0.6351
   63GLOH    O2 9056   1.373   6.529   2.908  0.3236 -0.3888 -0.8911
   63GLOH   H05 9057   1.321   6.611   2.907 -1.0278 -1.1563  1.7189
   63GLOH    C3 9058   1.536   6.425   2.756  0.1750  0.5372  0.2832
   63GLOH   H06 9059   1.543   6.399   2.650 -0.6900 -1.5258  0.6993
   63GLOH   H07 9060   1.537   6.341   2.826  0.0658  1.3436  1.2592
   63GLOH    O3 9061   1.652   6.498   2.799  0.2332  0.5770 -0.2627
   63GLOH   H01 9062   1.690   6.539   2.719  0.0103 -1.8636 -1.6734
   64GLOH   H03 9063   9.038   2.936   0.385  0.7269 -1.2323  1.5151
   64GLOH    O1 9064   9.120   2.916   0.337  0.0736  0.2762 -0.2948
   64GLOH    C1 9065   9.222   2.964   0.421 -0.2014  0.5306 -0.5731
   64GLOH   H02 9066   9.315   2.963   0.364 -0.9867  5.0118 -2.1472
   64GLOH   H08 9067   9.233   2.890   0.500 -1.4755 -0.8103 -1.6298
   64GLOH    C2 9068   9.198   3.101   0.475 -0.0592  0.2024  0.6401
   64GLOH   H04 9069   9.095   3.118   0.510 -0.0522 -0.2214  0.8682
   64GLOH    O2 9070   9.278   3.120   0.595  0.8481  0.5776  0.5405
   64GLOH   H05 9071   9.361   3.162   0.567  0.9167  0.9665  1.3069
   64GLOH    C3 9072   9.224   3.198   0.356 -0.5033 -0.6004  0.2533
   64GLOH   H06 9073   9.187   3.158   0.262 -1.1110  0.4245  0.0501
   64GLOH   H07 9074   9.331   3.201   0.336 -0.6419 -0.4264 -0.4655
   64GLOH    O3 9075   9.172   3.331   0.376  0.2145 -0.3258 -0.4139
   64GLOH   H01 9076   9.236   3.394   0.339 -0.4054  0.3395 -0.3557
   65GLOH   H03 9077   4.595   8.856   0.354 -1.9652 -1.4858 -0.4736
   65GLOH    O1 9078   4.625   8.872   0.263  0.2903  0.2857  0.5276
   65GLOH    C1 9079   4.635   9.012   0.237  0.2558 -0.1203 -0.5945
   65GLOH   H02 9080   4.706   9.036   0.157 -1.4467 -1.3974 -2.5357
   65GLOH   H08 9081   4.655   9.065   0.330 -1.6308 -0.7800  0.1995
   65GLOH    C2 9082   4.499   9.068   0.194 -0.0050 -0.4708 -0.1113
   65GLOH   H04 9083   4.423   9.024   0.260  0.7574 -0.1791  0.9743
   65GLOH    O2 9084   4.493   9.211   0.193  0.3635 -0.0812 -0.0493
   65GLOH   H05 9085   4.413   9.241   0.239 -0.0181  0.0782 -0.8088
   65GLOH    C3 9086   4.467   9.012   0.054  1.2103 -0.1857  0.8060
   65GLOH   H06 9087   4.543   9.057  -0.011 -0.1591  0.7042 -0.2097
   65GLOH   H07 9088   4.373   9.060   0.027  1.5324 -1.0621 -2.0897
   65GLOH    O3 9089   4.453   8.870   0.045 -0.5455 -0.1952  0.0171
   65GLOH   H01 9090   4.512   8.844   0.118 -0.1750 -1.4789 -0.7158
   66GLOH   H03 9091   5.154   3.109   1.301 -0.8243  1.3696  0.6589
   66GLOH    O1 9092   5.226   3.112   1.366  0.1074  0.0232 -0.2750
   66GLOH    C1 9093   5.356   3.067   1.311 -0.1600 -0.5594 -0.4013
   66GLOH   H02 9094   5.398   3.144   1.247  2.4485 -1.3202  0.3385
   66GLOH   H08 9095   5.349   2.976   1.251  0.0430 -0.5085 -0.4988
   66GLOH    C2 9096   5.465   3.028   1.415  0.1953  0.3718  0.2113
   66GLOH   H04 9097   5.425   2.955   1.487 -1.8419  1.5223  0.2898
   66GLOH    O2 9098   5.584   2.973   1.358  0.0273 -0.4670  0.0273
   66GLOH   H05 9099   5.619   3.019   1.280  1.8630 -2.2361 -0.2408
   66GLOH    C3 9100   5.500   3.151   1.496  0.0070 -0.4549  0.0886
   66GLOH   H06 9101   5.554   3.220   1.432  0.3155 -0.5739  0.2175
   66GLOH   H07 9102   5.563   3.134   1.584 -0.6246  2.0357  1.0854
   66GLOH    O3 9103   5.379   3.215   1.547 -0.3942  0.4024 -0.0896
   66GLOH   H01 9104   5.305   3.194   1.487 -0.3450 -0.2638  0.0748
   67GLOH   H03 9105   1.030   6.363   2.092  0.2984 -0.8307  1.4402
   67GLOH    O1 9106   1.072   6.290   2.044  0.1709 -0.3555  0.6089
   67GLOH    C1 9107   1.003   6.165   2.065 -1.0658  1.1177 -0.4165
   67GLOH   H02 9108   0.895   6.174   2.077 -1.1652 -0.6830  0.1955
   67GLOH   H08 9109   1.039   6.128   2.161 -2.0823  2.8023  0.6408
   67GLOH    C2 9110   1.026   6.063   1.957  0.1693  0.1221  0.8359
   67GLOH   H04 9111   1.134   6.045   1.946  0.3851  2.2789 -0.9729
   67GLOH    O2 9112   0.969   5.937   1.987  0.1673  0.2115 -0.0884
   67GLOH   H05 9113   0.935   5.898   1.905 -0.1266 -0.4352  0.3342
   67GLOH    C3 9114   0.976   6.117   1.815  0.0083 -0.4758 -0.0664
   67GLOH   H06 9115   1.056   6.182   1.782  1.9408 -2.3944  0.7372
   67GLOH   H07 9116   0.887   6.176   1.836  0.4653 -0.4054  1.7415
   67GLOH    O3 9117   0.946   6.010   1.726  0.0358  0.3717  0.3914
   67GLOH   H01 9118   1.034   5.980   1.697 -0.5757 -1.0344 -0.0486
   68GLOH   H03 9119   9.580   1.794   1.602 -0.8517 -0.9970  3.1812
   68GLOH    O1 9120   9.502   1.853   1.605 -0.0268  0.3046  0.3987
   68GLOH    C1 9121   9.416   1.841   1.489 -0.1216  0.2267 -0.4219
   68GLOH   H02 9122   9.325   1.897   1.512 -0.6170 -0.7001 -0.1026
   68GLOH   H08 9123   9.398   1.735   1.476 -3.3462  0.4641  1.5696
   68GLOH    C2 9124   9.485   1.907   1.369 -0.0449 -0.2473 -0.0200
   68GLOH   H04 9125   9.584   1.862   1.351 -0.5023 -2.0284  1.7094
   68GLOH    O2 9126   9.408   1.889   1.243  0.1224  0.1455 -0.4718
   68GLOH   H05 9127   9.394   1.981   1.215 -2.9593 -0.4803 -1.1697
   68GLOH    C3 9128   9.505   2.052   1.396  0.4365 -0.2509  0.0563
   68GLOH   H06 9129   9.559   2.058   1.490  0.5089 -0.4302  0.0273
   68GLOH   H07 9130   9.407   2.096   1.415  1.0139  0.2002  2.0951
   68GLOH    O3 9131   9.572   2.129   1.300  0.1776 -0.5675 -0.0981
   68GLOH   H01 9132   9.529   2.160   1.219  2.6949  2.2528 -0.4425
   69GLOH   H03 9133   4.616   4.619   2.515  0.7729  2.8781  0.9797
   69GLOH    O1 9134   4.551   4.628   2.588 -0.2829 -0.4273  0.5017
   69GLOH    C1 9135   4.622   4.683   2.701  0.0585 -0.5905 -0.4752
   69GLOH   H02 9136   4.725   4.647   2.693 -0.1962 -0.9685 -2.3976
   69GLOH   H08 9137   4.574   4.651   2.793 -1.9879 -1.8018 -1.9045
   69GLOH    C2 9138   4.633   4.836   2.711  0.5510  0.0874 -0.3479
   69GLOH   H04 9139   4.535   4.886   2.716  0.2700 -0.6754  3.3908
   69GLOH    O2 9140   4.700   4.857   2.837 -0.3218  0.1892 -0.6417
   69GLOH   H05 9141   4.692   4.950   2.863  1.4284  0.6410 -1.6642
   69GLOH    C3 9142   4.697   4.882   2.580  0.3344 -0.8055  0.9850
   69GLOH   H06 9143   4.787   4.822   2.565 -0.1620 -0.6014 -3.3316
   69GLOH   H07 9144   4.725   4.988   2.581  2.4259 -1.3466  1.4201
   69GLOH    O3 9145   4.614   4.855   2.465 -0.2360  0.2459  0.1500
   69GLOH   H01 9146   4.571   4.768   2.478  0.4085 -0.3780 -1.6888
   70GLOH   H03 9147   4.129   5.090   0.368  0.1126 -0.0473  2.0851
   70GLOH    O1 9148   4.144   4.994   0.369  0.2417 -0.0464  0.7616
   70GLOH    C1 9149   4.251   4.965   0.454  0.0250 -0.0081 -0.0981
   70GLOH   H02 9150   4.221   4.938   0.555 -1.1917  0.8317 -0.2227
   70GLOH   H08 9151   4.322   5.048   0.459  0.4131 -0.3692  0.4813
   70GLOH    C2 9152   4.332   4.837   0.404  0.2951  0.3260 -0.2655
   70GLOH   H04 9153   4.364   4.848   0.300 -1.3316 -0.2576 -0.8489
   70GLOH    O2 9154   4.445   4.810   0.488 -0.5228 -0.1366 -0.6116
   70GLOH   H05 9155   4.417   4.793   0.579 -0.6315  0.3257 -0.5576
   70GLOH    C3 9156   4.228   4.723   0.412 -0.6233  0.8182 -0.2547
   70GLOH   H06 9157   4.275   4.636   0.367  1.3949  1.7891 -0.0664
   70GLOH   H07 9158   4.155   4.747   0.334 -0.9300  0.9423  0.0704
   70GLOH    O3 9159   4.164   4.700   0.542  0.4204 -0.1774  1.0151
   70GLOH   H01 9160   4.084   4.753   0.560 -0.7588 -1.3203 -0.6212
   71GLOH   H03 9161   9.485   5.099   0.761 -2.0546  0.3472 -1.6310
   71GLOH    O1 9162   9.432   5.149   0.826 -0.3145 -0.5548  0.5349
   71GLOH    C1 9163   9.511   5.233   0.913 -0.1912  0.2547  1.0162
   71GLOH   H02 9164   9.514   5.336   0.876  0.0476  0.9238  2.8359
   71GLOH   H08 9165   9.611   5.191   0.904 -0.8695 -1.7259  2.5376
   71GLOH    C2 9166   9.466   5.232   1.059 -0.4668  0.2289  0.2325
   71GLOH   H04 9167   9.442   5.126   1.078  1.0449 -0.4470 -1.4628
   71GLOH    O2 9168   9.577   5.269   1.147  0.0721 -0.3609  0.4138
   71GLOH   H05 9169   9.622   5.352   1.122 -1.9418  1.3422  2.3328
   71GLOH    C3 9170   9.349   5.325   1.086  0.2948 -0.0550 -0.4358
   71GLOH   H06 9171   9.334   5.325   1.194  2.3385 -1.0299 -0.1145
   71GLOH   H07 9172   9.266   5.278   1.034  0.2085 -0.8306  0.3947
   71GLOH    O3 9173   9.372   5.465   1.053  0.1071  0.6976  0.0458
   71GLOH   H01 9174   9.437   5.497   1.117 -0.7160  4.4071 -0.8633
   72GLOH   H03 9175   8.682   2.698   1.577 -1.8583  1.1488 -3.0647
   72GLOH    O1 9176   8.615   2.744   1.630  0.2580  0.6382  0.2313
   72GLOH    C1 9177   8.528   2.802   1.531  0.4069  0.5377 -0.4451
   72GLOH   H02 9178   8.571   2.791   1.432  0.4447  1.1218 -0.4955
   72GLOH   H08 9179   8.536   2.909   1.552  2.8410  0.3201 -0.0121
   72GLOH    C2 9180   8.385   2.748   1.545  0.3709  0.1554  0.2921
   72GLOH   H04 9181   8.382   2.648   1.590 -0.0739  0.1092  0.1657
   72GLOH    O2 9182   8.305   2.835   1.628 -0.3754  0.3043  0.4731
   72GLOH   H05 9183   8.348   2.843   1.715  0.5999  0.1690  0.0116
   72GLOH    C3 9184   8.325   2.730   1.403  0.1080 -0.3374 -0.2538
   72GLOH   H06 9185   8.319   2.828   1.356 -1.7888  0.7184  2.0863
   72GLOH   H07 9186   8.222   2.693   1.402 -0.3416  0.8638  0.0252
   72GLOH    O3 9187   8.413   2.639   1.334 -0.0926 -0.4863  0.3836
   72GLOH   H01 9188   8.353   2.580   1.284 -0.6939  0.7600 -0.3866
   73GLOH   H03 9189   1.481   2.309   1.054  1.8150 -0.0216 -1.1958
   73GLOH    O1 9190   1.504   2.215   1.041  0.0702 -0.7001  0.4573
   73GLOH    C1 9191   1.481   2.137   1.152  0.3903  0.1464 -0.3789
   73GLOH   H02 9192   1.471   2.034   1.118  0.9954 -0.7070  1.8718
   73GLOH   H08 9193   1.395   2.168   1.211  0.2236 -0.5439 -0.2527
   73GLOH    C2 9194   1.592   2.134   1.263  0.1402 -0.2786  0.5093
   73GLOH   H04 9195   1.581   2.232   1.310 -0.9025  1.1347 -2.5628
   73GLOH    O2 9196   1.558   2.032   1.362  0.4813  0.6554 -0.3353
   73GLOH   H05 9197   1.534   1.945   1.326 -0.2403  2.5869 -4.9553
   73GLOH    C3 9198   1.730   2.107   1.200  0.4082 -0.7028 -0.1447
   73GLOH   H06 9199   1.746   2.199   1.144 -0.1423  0.2156  1.1630
   73GLOH   H07 9200   1.722   2.033   1.121 -2.5367  0.3543 -0.9029
   73GLOH    O3 9201   1.840   2.085   1.282 -0.1540 -0.3334 -0.8593
   73GLOH   H01 9202   1.831   2.001   1.331  1.2770  0.0793  0.1539
   74GLOH   H03 9203   1.488   5.161   1.004 -0.5486 -2.4163  0.7229
   74GLOH    O1 9204   1.420   5.178   1.071 -0.3506 -0.4740  0.4531
   74GLOH    C1 9205   1.449   5.314   1.108 -0.1643 -0.7893 -0.2166
   74GLOH   H02 9206   1.404   5.377   1.031  2.8534  1.5365 -0.1295
   74GLOH   H08 9207   1.557   5.326   1.112 -0.1345 -1.1331  0.0187
   74GLOH    C2 9208   1.376   5.354   1.237 -0.3922 -0.0112  0.5547
   74GLOH   H04 9209   1.420   5.284   1.310  2.3243  2.6397  1.5705
   74GLOH    O2 9210   1.406   5.489   1.271 -0.1372  0.3999 -0.0669
   74GLOH   H05 9211   1.435   5.490   1.364  2.7885  0.5978 -0.9450
   74GLOH    C3 9212   1.226   5.339   1.226 -0.2802  0.0286  0.0446
   74GLOH   H06 9213   1.191   5.415   1.157 -1.2863  3.2553  3.8801
   74GLOH   H07 9214   1.177   5.366   1.320  0.1918 -0.8340  0.5578
   74GLOH    O3 9215   1.185   5.210   1.184 -0.0515  0.2230 -0.2084
   74GLOH   H01 9216   1.261   5.166   1.143  1.0694  1.6392  0.3178
   75GLOH   H03 9217   2.178   1.346   0.593  0.6861 -0.2376 -1.0929
   75GLOH    O1 9218   2.138   1.281   0.653  0.0820  0.3998 -0.7987
   75GLOH    C1 9219   2.012   1.314   0.707  0.6126 -0.2764 -0.8654
   75GLOH   H02 9220   2.025   1.388   0.785 -1.8791  0.7203 -1.3452
   75GLOH   H08 9221   1.964   1.226   0.750 -3.4384  1.8936 -0.7547
   75GLOH    C2 9222   1.924   1.382   0.605  0.3099 -0.6549 -0.0392
   75GLOH   H04 9223   1.828   1.405   0.654  0.5744  0.1387  0.1169
   75GLOH    O2 9224   1.981   1.504   0.549 -0.0559 -0.0810  0.5461
   75GLOH   H05 9225   2.045   1.549   0.607 -2.5321  2.0307  1.8188
   75GLOH    C3 9226   1.886   1.281   0.496  0.0181  0.3514 -0.4632
   75GLOH   H06 9227   1.976   1.226   0.467  0.3554  1.0287 -0.7280
   75GLOH   H07 9228   1.848   1.346   0.418 -0.7849 -1.2433 -1.4089
   75GLOH    O3 9229   1.782   1.191   0.544 -0.1395 -1.1063 -0.4302
   75GLOH   H01 9230   1.711   1.246   0.580  1.0669  0.1658  0.0647
   76GLOH   H03 9231   3.515   2.809   2.526 -0.7732  0.2171  0.1554
   76GLOH    O1 9232   3.511   2.864   2.446 -0.6655  0.9413  0.6471
   76GLOH    C1 9233   3.558   2.994   2.491 -0.0305  0.2539  0.2043
   76GLOH   H02 9234   3.536   3.071   2.417  1.3286 -1.7325 -2.3251
   76GLOH   H08 9235   3.666   3.000   2.504  0.0982 -1.1603 -0.1893
   76GLOH    C2 9236   3.492   3.047   2.617  0.5287 -0.2184 -0.2906
   76GLOH   H04 9237   3.535   2.997   2.706  0.4095  1.8457  0.9374
   76GLOH    O2 9238   3.522   3.186   2.634 -1.0898 -0.3307 -0.2998
   76GLOH   H05 9239   3.499   3.214   2.725 -1.4993 -0.0290 -0.4930
   76GLOH    C3 9240   3.346   3.003   2.625  0.0457 -0.3741  0.1117
   76GLOH   H06 9241   3.342   2.896   2.648  0.8800 -0.3753  0.2688
   76GLOH   H07 9242   3.305   3.012   2.524 -0.0179 -1.2898  0.0487
   76GLOH    O3 9243   3.271   3.071   2.728 -0.0178 -0.0536 -0.1439
   76GLOH   H01 9244   3.305   3.039   2.813  3.8624  0.7167 -1.3052
   77GLOH   H03 9245   9.579   1.938   0.401 -1.1843 -0.2051  0.0041
   77GLOH    O1 9246   9.594   1.946   0.497  0.3040  0.2136 -0.2524
   77GLOH    C1 9247   9.464   1.935   0.566 -0.1751 -0.5402  0.5815
   77GLOH   H02 9248   9.407   1.850   0.528  0.7358 -0.8613 -0.1211
   77GLOH   H08 9249   9.400   2.021   0.550  1.5323  0.6056 -0.2231
   77GLOH    C2 9250   9.478   1.926   0.715 -0.2934 -0.3399  0.3103
   77GLOH   H04 9251   9.559   1.859   0.747 -1.1346 -0.7778  1.5926
   77GLOH    O2 9252   9.501   2.061   0.761  0.1274  0.5817  0.0340
   77GLOH   H05 9253   9.570   2.098   0.703 -1.2769  3.1761 -0.0442
   77GLOH    C3 9254   9.366   1.854   0.783 -0.4602 -1.0468 -0.1682
   77GLOH   H06 9255   9.278   1.916   0.773  1.0907  1.0488 -1.1562
   77GLOH   H07 9256   9.373   1.845   0.892 -1.2583 -0.3745 -0.0590
   77GLOH    O3 9257   9.347   1.727   0.726 -0.4620 -0.4067  1.0095
   77GLOH   H01 9258   9.289   1.679   0.788 -1.4338 -0.5468  0.0013
   78GLOH   H03 9259   2.393   6.661   0.627 -2.4283 -1.6006 -0.7236
   78GLOH    O1 9260   2.438   6.595   0.572  0.1003 -0.5624 -0.0044
   78GLOH    C1 9261   2.502   6.652   0.457 -0.1832 -0.0408  0.1716
   78GLOH   H02 9262   2.557   6.738   0.494  0.6995 -1.1708  1.5269
   78GLOH   H08 9263   2.424   6.688   0.389  1.3832  3.0831 -0.0454
   78GLOH    C2 9264   2.597   6.562   0.384  0.2829 -0.2609  0.5462
   78GLOH   H04 9265   2.532   6.484   0.343  1.0298 -1.3706  1.4337
   78GLOH    O2 9266   2.651   6.628   0.268  0.1276 -0.6678 -0.5685
   78GLOH   H05 9267   2.592   6.614   0.192  0.9271  1.5476 -1.6354
   78GLOH    C3 9268   2.711   6.493   0.465  0.2690 -0.7820  0.2364
   78GLOH   H06 9269   2.786   6.567   0.493 -0.8282 -0.2966  1.9763
   78GLOH   H07 9270   2.761   6.408   0.419  1.1716 -1.4470  2.3857
   78GLOH    O3 9271   2.651   6.444   0.585  0.1031  0.0417  0.5117
   78GLOH   H01 9272   2.563   6.486   0.590  0.5214  1.4028 -2.6049
   79GLOH   H03 9273   4.843   2.074   2.602  0.5740  0.6266 -2.2683
   79GLOH    O1 9274   4.851   2.161   2.645  0.2385 -0.3721 -0.1311
   79GLOH    C1 9275   4.769   2.155   2.763 -0.8196  0.0687 -0.7502
   79GLOH   H02 9276   4.781   2.247   2.819 -1.0399 -0.2074 -0.2416
   79GLOH   H08 9277   4.803   2.072   2.827 -0.0589  0.0524 -1.1702
   79GLOH    C2 9278   4.618   2.139   2.722  0.1262 -0.0941 -0.1156
   79GLOH   H04 9279   4.604   2.035   2.687 -1.9790 -0.0315  0.5038
   79GLOH    O2 9280   4.535   2.167   2.836 -0.1306 -0.0285  0.0357
   79GLOH   H05 9281   4.538   2.264   2.844 -1.6912 -0.0944  1.6930
   79GLOH    C3 9282   4.580   2.239   2.614  0.3453 -0.4897  0.1266
   79GLOH   H06 9283   4.477   2.215   2.588  0.4993  0.0615 -1.0868
   79GLOH   H07 9284   4.641   2.232   2.523  0.2974  0.1009  0.0460
   79GLOH    O3 9285   4.577   2.372   2.663 -0.0629  0.0511 -0.0096
   79GLOH   H01 9286   4.656   2.421   2.632 -0.2084 -1.3367 -2.6946
   80GLOH   H03 9287  10.109   6.815   0.386 -1.6052  0.4735  2.4342
   80GLOH    O1 9288  10.183   6.838   0.445 -0.1071 -0.2700  0.8847
   80GLOH    C1 9289  10.206   6.725   0.523 -0.3551 -0.2927 -0.0462
   80GLOH   H02 9290  10.155   6.743   0.618 -1.7893 -0.6947 -0.7360
   80GLOH   H08 9291  10.309   6.693   0.537 -0.4403 -0.1528  0.9599
   80GLOH    C2 9292  10.129   6.599   0.478 -0.5668 -1.0372  0.5237
   80GLOH   H04 9293  10.195   6.565   0.397 -1.0011  0.8179 -0.6310
   80GLOH    O2 9294  10.136   6.496   0.575  0.7387 -0.3093 -0.3133
   80GLOH   H05 9295  10.226   6.459   0.577  0.3283 -1.2861  0.1395
   80GLOH    C3 9296   9.986   6.626   0.440 -0.1394  0.3323 -0.1561
   80GLOH   H06 9297   9.938   6.667   0.528 -0.0063  0.7996 -0.2960
   80GLOH   H07 9298   9.942   6.533   0.406 -0.1219  0.5229 -0.7154
   80GLOH    O3 9299   9.974   6.706   0.324 -0.4319  0.3411  0.3865
   80GLOH   H01 9300  10.012   6.656   0.249  0.6199  1.8095 -0.0914
   81GLOH   H03 9301   1.833   2.587   2.322 -1.1654 -1.5625  1.5648
   81GLOH    O1 9302   1.811   2.663   2.379 -0.3464  0.0476 -0.2265
   81GLOH    C1 9303   1.910   2.762   2.357 -0.3821  0.2956 -0.4568
   81GLOH   H02 9304   2.010   2.720   2.363  0.0531  1.4516  0.5635
   81GLOH   H08 9305   1.905   2.838   2.436  0.1252  0.6811 -0.7965
   81GLOH    C2 9306   1.890   2.841   2.222  0.7347  0.1304  0.1643
   81GLOH   H04 9307   1.904   2.768   2.142  0.7201 -2.0603  2.1019
   81GLOH    O2 9308   1.758   2.911   2.211  0.0962 -0.0075 -0.0507
   81GLOH   H05 9309   1.728   2.925   2.119  0.2662 -1.3519 -0.3299
   81GLOH    C3 9310   2.001   2.944   2.222 -0.5867 -0.7432  0.7512
   81GLOH   H06 9311   1.981   3.005   2.135  1.6701  1.2573  1.5667
   81GLOH   H07 9312   2.092   2.888   2.202 -0.5685 -0.2783 -0.5007
   81GLOH    O3 9313   2.021   3.026   2.340  0.1386 -0.0441  0.7287
   81GLOH   H01 9314   1.947   3.089   2.338  0.4322  0.2999  0.4879
   82GLOH   H03 9315   9.158   4.238   0.792  0.5525  0.8957  2.2386
   82GLOH    O1 9316   9.241   4.270   0.751 -0.2322  0.5874  0.3127
   82GLOH    C1 9317   9.219   4.264   0.607 -0.0884 -0.6339 -0.1007
   82GLOH   H02 9318   9.133   4.322   0.574  1.6105  1.9119 -0.1373
   82GLOH   H08 9319   9.208   4.156   0.597 -1.3459 -0.6479  1.2685
   82GLOH    C2 9320   9.339   4.305   0.521 -0.5635 -0.0037  1.0376
   82GLOH   H04 9321   9.303   4.307   0.417 -0.4708  0.7341  1.0189
   82GLOH    O2 9322   9.382   4.437   0.547  0.1101 -0.2622 -0.4776
   82GLOH   H05 9323   9.306   4.490   0.519  1.5211  2.1610  0.1583
   82GLOH    C3 9324   9.455   4.203   0.542  0.6484  0.0858 -0.1607
   82GLOH   H06 9325   9.459   4.193   0.651  0.4784 -1.2456 -0.2723
   82GLOH   H07 9326   9.547   4.249   0.508  1.3619 -0.0331  1.5526
   82GLOH    O3 9327   9.428   4.077   0.477  0.3230  0.0066  0.4862
   82GLOH   H01 9328   9.418   4.099   0.383  0.3655  2.0372  0.9364
   83GLOH   H03 9329   2.637   0.745   1.696  0.3113 -1.1642  0.3194
   83GLOH    O1 9330   2.574   0.719   1.766 -0.3875  0.2977  0.2579
   83GLOH    C1 9331   2.454   0.797   1.744  0.3031  0.1150 -0.1324
   83GLOH   H02 9332   2.464   0.896   1.788 -0.9859 -1.5034  4.0363
   83GLOH   H08 9333   2.369   0.751   1.793  1.3402 -1.1412  0.5279
   83GLOH    C2 9334   2.424   0.812   1.593  0.1361 -0.0937  0.3991
   83GLOH   H04 9335   2.411   0.708   1.559 -0.4985  0.1330 -0.0556
   83GLOH    O2 9336   2.305   0.894   1.562  0.6223 -0.0568  0.1179
   83GLOH   H05 9337   2.291   0.905   1.467  1.4964  0.8295  0.0799
   83GLOH    C3 9338   2.547   0.873   1.524  0.1399 -0.1808  0.3193
   83GLOH   H06 9339   2.574   0.971   1.564 -0.0617  0.6184 -1.4145
   83GLOH   H07 9340   2.531   0.888   1.417  0.9366  0.5220  0.2912
   83GLOH    O3 9341   2.664   0.798   1.546 -0.2615  0.1249 -0.0710
   83GLOH   H01 9342   2.745   0.850   1.530  0.2023 -1.1663 -2.0670
   84GLOH   H03 9343   0.790   4.026   0.987 -0.4261 -1.9397 -1.9318
   84GLOH    O1 9344   0.885   4.028   0.967 -0.0941 -1.1161 -0.3904
   84GLOH    C1 9345   0.908   4.043   0.826 -0.3588  0.0347  0.7164
   84GLOH   H02 9346   0.872   4.139   0.789  0.4922  0.2417  0.4339
   84GLOH   H08 9347   0.854   3.969   0.768  1.0877 -2.0948  2.0175
   84GLOH    C2 9348   1.063   4.034   0.788  0.5110  0.3263 -0.5965
   84GLOH   H04 9349   1.094   3.931   0.814  1.6700  1.6581  3.7790
   84GLOH    O2 9350   1.101   4.066   0.655 -0.3002  0.0666  0.1591
   84GLOH   H05 9351   1.070   3.993   0.599  0.6294  1.2632 -1.9583
   84GLOH    C3 9352   1.134   4.130   0.878 -0.6637  0.2753  0.3605
   84GLOH   H06 9353   1.094   4.231   0.869 -0.2474  0.7307  3.1224
   84GLOH   H07 9354   1.240   4.131   0.851 -0.6855 -0.4691  0.2380
   84GLOH    O3 9355   1.116   4.110   1.024 -0.1108 -0.2475  0.2623
   84GLOH   H01 9356   1.024   4.077   1.029 -0.0468 -0.7541 -1.5667
   85GLOH   H03 9357   3.113   3.328   2.230 -1.6091 -0.4562  0.1866
   85GLOH    O1 9358   3.109   3.304   2.135 -0.0326 -0.1739  0.0391
   85GLOH    C1 9359   3.006   3.367   2.062 -0.2148  0.3982  0.4720
   85GLOH   H02 9360   2.949   3.438   2.122 -0.6610 -0.3949  1.0013
   85GLOH   H08 9361   2.932   3.295   2.027 -0.6551  0.5448  1.1007
   85GLOH    C2 9362   3.066   3.443   1.937  0.9588  0.1911 -0.1425
   85GLOH   H04 9363   3.110   3.358   1.883 -0.3472 -1.0366  0.7014
   85GLOH    O2 9364   2.966   3.512   1.864  0.5432  0.2707 -0.1101
   85GLOH   H05 9365   2.884   3.498   1.913  0.9579 -1.3278  0.1718
   85GLOH    C3 9366   3.183   3.531   1.977 -0.0432  0.3393  0.8942
   85GLOH   H06 9367   3.221   3.592   1.895  0.2258 -0.2854  0.5528
   85GLOH   H07 9368   3.267   3.463   1.994 -1.7900 -2.0020  0.4070
   85GLOH    O3 9369   3.146   3.618   2.090  0.2232 -0.5862  0.3977
   85GLOH   H01 9370   3.187   3.705   2.072 -1.9200  0.6050  1.2097
   86GLOH   H03 9371   0.763   1.979   1.280  0.3118  1.4289  0.1729
   86GLOH    O1 9372   0.838   1.957   1.221 -0.0193  0.2855  0.1677
   86GLOH    C1 9373   0.791   1.834   1.155 -0.6022 -0.3641  0.2314
   86GLOH   H02 9374   0.708   1.867   1.093 -0.5275  2.7028  1.6631
   86GLOH   H08 9375   0.758   1.759   1.227 -1.7374 -1.0068 -0.9523
   86GLOH    C2 9376   0.908   1.766   1.074 -0.9477 -0.7467 -0.3282
   86GLOH   H04 9377   0.981   1.737   1.152 -1.8322  0.2125  0.8743
   86GLOH    O2 9378   0.862   1.649   1.011  0.0503  0.3650 -0.0971
   86GLOH   H05 9379   0.874   1.576   1.074  3.2219  1.9792  1.3020
   86GLOH    C3 9380   0.976   1.857   0.972 -0.3586  1.0540  0.1781
   86GLOH   H06 9381   0.901   1.861   0.893  0.9622 -0.0400 -1.1640
   86GLOH   H07 9382   1.055   1.795   0.931 -1.4548 -0.3216  0.0710
   86GLOH    O3 9383   1.012   1.981   1.024 -0.5939  0.0635  0.5748
   86GLOH   H01 9384   0.951   1.995   1.099  0.0105  3.2475  0.5451
   87GLOH   H03 9385   9.756   0.993   1.633  0.2047  0.6873  0.6301
   87GLOH    O1 9386   9.805   1.053   1.573 -0.1072  0.4796  0.1644
   87GLOH    C1 9387   9.883   1.142   1.653 -0.5198  0.1867 -0.4711
   87GLOH   H02 9388   9.929   1.215   1.586 -0.2999 -0.0804 -0.6123
   87GLOH   H08 9389   9.967   1.087   1.695 -0.2359  0.1861 -1.0336
   87GLOH    C2 9390   9.800   1.215   1.770  0.0151  0.4298 -0.1445
   87GLOH   H04 9391   9.709   1.252   1.720 -1.3045  1.0553  2.6381
   87GLOH    O2 9392   9.761   1.126   1.870  0.1190 -0.0552  0.1006
   87GLOH   H05 9393   9.697   1.175   1.925 -0.3371 -0.6462  0.0987
   87GLOH    C3 9394   9.881   1.329   1.832 -0.4793 -0.3172  0.4264
   87GLOH   H06 9395   9.967   1.278   1.877 -0.3556  1.8491  2.7755
   87GLOH   H07 9396   9.827   1.381   1.911 -2.5198 -0.8928 -0.5561
   87GLOH    O3 9397   9.921   1.411   1.717  0.2287 -0.0410  0.0181
   87GLOH   H01 9398   9.842   1.420   1.660  0.2567  0.3055  0.0345
   88GLOH   H03 9399   4.890   3.918   1.265 -0.1556 -2.0395 -1.7505
   88GLOH    O1 9400   4.832   3.983   1.220  0.0160 -0.5211  0.1560
   88GLOH    C1 9401   4.704   3.969   1.291  0.8112 -0.7631 -0.2219
   88GLOH   H02 9402   4.719   3.975   1.399 -2.3474  1.7719  0.1273
   88GLOH   H08 9403   4.656   3.873   1.270 -1.2814 -0.0405  1.1785
   88GLOH    C2 9404   4.592   4.070   1.269  0.1254  0.2062 -0.4350
   88GLOH   H04 9405   4.559   4.050   1.166 -1.1017  0.3274 -0.0790
   88GLOH    O2 9406   4.477   4.056   1.354 -0.9100 -0.1779  0.4786
   88GLOH   H05 9407   4.478   4.124   1.424 -0.4372 -0.8962  1.1791
   88GLOH    C3 9408   4.644   4.209   1.270  0.3397  0.1149  0.1029
   88GLOH   H06 9409   4.714   4.204   1.186 -0.1342  0.4751 -0.3214
   88GLOH   H07 9410   4.706   4.229   1.357 -1.2745 -0.0610  1.3129
   88GLOH    O3 9411   4.551   4.314   1.245 -0.3660 -0.2969  0.2970
   88GLOH   H01 9412   4.531   4.312   1.149 -1.5124 -0.2914  0.5232
   89GLOH   H03 9413   2.518   6.221   1.914 -2.2389  0.7362 -1.7124
   89GLOH    O1 9414   2.470   6.248   1.995 -0.0600 -0.0844 -0.0891
   89GLOH    C1 9415   2.552   6.295   2.102 -0.4775  0.2847  0.3235
   89GLOH   H02 9416   2.629   6.223   2.126 -0.0687  0.5890 -0.0704
   89GLOH   H08 9417   2.490   6.315   2.189  0.3021 -1.8913  1.4126
   89GLOH    C2 9418   2.630   6.415   2.055 -0.4041  0.1505 -0.1931
   89GLOH   H04 9419   2.573   6.487   1.995 -0.3316 -1.7803 -2.6577
   89GLOH    O2 9420   2.667   6.492   2.173 -0.2095  0.4060 -0.3766
   89GLOH   H05 9421   2.721   6.569   2.147  2.4628 -1.2780  0.0301
   89GLOH    C3 9422   2.761   6.375   1.982  0.0068 -0.8740  0.1991
   89GLOH   H06 9423   2.824   6.307   2.039 -0.9603 -1.3118  0.7534
   89GLOH   H07 9424   2.821   6.466   1.980  0.2456 -1.0570 -1.6201
   89GLOH    O3 9425   2.725   6.321   1.853  0.5333 -0.2889  0.2303
   89GLOH   H01 9426   2.677   6.392   1.808 -1.8247 -2.3468 -0.6636
   90GLOH   H03 9427   3.760   5.426   1.709 -1.6906 -1.5593 -2.5528
   90GLOH    O1 9428   3.712   5.354   1.756 -1.0999 -0.1412  0.3545
   90GLOH    C1 9429   3.617   5.411   1.857 -0.5987  0.3128  0.1327
   90GLOH   H02 9430   3.516   5.391   1.822 -0.4888  1.3174 -0.7840
   90GLOH   H08 9431   3.620   5.518   1.872  0.4754  0.5093 -1.3403
   90GLOH    C2 9432   3.624   5.337   1.994 -0.0035  0.3537 -0.0223
   90GLOH   H04 9433   3.720   5.355   2.045  0.4930  1.8469 -1.4536
   90GLOH    O2 9434   3.525   5.382   2.085 -0.0787  0.5700  0.1918
   90GLOH   H05 9435   3.545   5.342   2.171  2.0072 -1.3218 -1.0976
   90GLOH    C3 9436   3.618   5.184   1.973 -0.8519 -0.2262  0.1597
   90GLOH   H06 9437   3.547   5.167   1.891 -1.1836 -1.8246  0.7586
   90GLOH   H07 9438   3.600   5.135   2.068  1.0190  1.1101  1.2310
   90GLOH    O3 9439   3.738   5.133   1.909  0.1622 -0.9247  0.2902
   90GLOH   H01 9440   3.771   5.195   1.841 -2.0957 -0.2241 -0.2338
   91GLOH   H03 9441   4.356   2.540   0.366  2.1465  1.6165 -0.4169
   91GLOH    O1 9442   4.299   2.612   0.398  0.1230 -0.0290 -0.1661
   91GLOH    C1 9443   4.335   2.731   0.325  0.1282 -0.2307  0.2550
   91GLOH   H02 9444   4.426   2.770   0.370  0.0851  0.5886 -0.3574
   91GLOH   H08 9445   4.252   2.802   0.327  0.8869  0.6513  2.5112
   91GLOH    C2 9446   4.374   2.688   0.178  0.2274  0.0925 -0.5218
   91GLOH   H04 9447   4.384   2.777   0.114  2.0000 -1.1883 -2.0915
   91GLOH    O2 9448   4.503   2.624   0.183 -0.6036  0.4965  0.0854
   91GLOH   H05 9449   4.507   2.567   0.104 -0.1073  1.8550 -0.8879
   91GLOH    C3 9450   4.272   2.597   0.106 -0.0490 -0.5181 -0.1285
   91GLOH   H06 9451   4.275   2.495   0.144 -0.4124 -0.2890  0.5111
   91GLOH   H07 9452   4.303   2.604   0.002 -0.8720 -1.2065 -0.4236
   91GLOH    O3 9453   4.141   2.637   0.124 -0.2619 -0.0846  0.0171
   91GLOH   H01 9454   4.092   2.567   0.171 -1.7506  1.0729  0.2001
   92GLOH   H03 9455   3.586   5.720   1.335  0.0147 -0.4943  0.2831
   92GLOH    O1 9456   3.534   5.738   1.416  0.2412 -0.5421  0.4400
   92GLOH    C1 9457   3.402   5.710   1.378  0.0796  0.5080  0.0480
   92GLOH   H02 9458   3.384   5.609   1.416 -1.1206  0.3601 -0.8843
   92GLOH   H08 9459   3.397   5.711   1.270  2.7210 -0.3789 -0.1178
   92GLOH    C2 9460   3.297   5.790   1.452 -0.8447 -0.1799 -0.3229
   92GLOH   H04 9461   3.328   5.892   1.424  4.0601 -1.6376 -0.7148
   92GLOH    O2 9462   3.162   5.771   1.401 -0.2668  0.4966  0.3317
   92GLOH   H05 9463   3.141   5.812   1.315  0.5030  0.4624  0.1250
   92GLOH    C3 9464   3.298   5.773   1.604 -0.2865 -0.1910  0.3519
   92GLOH   H06 9465   3.218   5.828   1.653 -0.8779 -0.3109 -0.4627
   92GLOH   H07 9466   3.386   5.819   1.649 -1.8095  2.8678  0.3334
   92GLOH    O3 9467   3.290   5.637   1.641  0.2498  0.4639 -0.1392
   92GLOH   H01 9468   3.313   5.618   1.734 -2.0367 -1.6664  0.0732
   93GLOH   H03 9469   2.335   7.799   1.368  0.1728 -1.7977  1.5419
   93GLOH    O1 9470   2.423   7.839   1.381 -0.0966 -0.5124 -0.2876
   93GLOH    C1 9471   2.446   7.914   1.499 -0.1164 -0.4968  0.2270
   93GLOH   H02 9472   2.354   7.928   1.556  0.2553 -0.1466  0.7388
   93GLOH   H08 9473   2.490   8.011   1.477 -0.9120 -0.4287 -1.1111
   93GLOH    C2 9474   2.542   7.836   1.598  0.2631 -0.5875 -0.5099
   93GLOH   H04 9475   2.645   7.827   1.563  1.3157  2.1763  1.6422
   93GLOH    O2 9476   2.552   7.904   1.723 -0.0878 -0.0751 -0.6799
   93GLOH   H05 9477   2.630   7.877   1.775  0.1235 -1.4415 -1.6801
   93GLOH    C3 9478   2.475   7.700   1.629  0.0472  0.3764 -0.7501
   93GLOH   H06 9479   2.476   7.648   1.533 -0.9092 -0.7149 -0.1800
   93GLOH   H07 9480   2.369   7.718   1.650  0.1303 -1.6213  1.4761
   93GLOH    O3 9481   2.542   7.616   1.726 -0.0757  0.6334  0.0823
   93GLOH   H01 9482   2.616   7.579   1.674 -0.0749 -0.8022  1.0866
   94GLOH   H03 9483   1.690   8.118   1.331 -2.6581  1.4435  0.1491
   94GLOH    O1 9484   1.746   8.197   1.334 -0.1421 -0.3065  0.1926
   94GLOH    C1 9485   1.862   8.193   1.254  0.6091  0.1847 -0.0353
   94GLOH   H02 9486   1.927   8.277   1.277  0.6094 -0.2354  1.5078
   94GLOH   H08 9487   1.827   8.211   1.152 -0.4394 -0.2381  0.2414
   94GLOH    C2 9488   1.954   8.069   1.263 -0.4558  0.2043 -0.2200
   94GLOH   H04 9489   1.997   8.067   1.364  0.7626 -3.4066 -0.7187
   94GLOH    O2 9490   1.897   7.940   1.230  0.0688  0.4258  0.2318
   94GLOH   H05 9491   1.818   7.941   1.172  0.1998 -1.7558 -0.0218
   94GLOH    C3 9492   2.080   8.084   1.173  0.1854  0.1695  0.4599
   94GLOH   H06 9493   2.041   8.128   1.081  1.2892  0.8350  0.2989
   94GLOH   H07 9494   2.122   7.989   1.142  0.5863 -0.0838  1.7582
   94GLOH    O3 9495   2.187   8.165   1.224  0.2616 -0.0192 -0.1911
   94GLOH   H01 9496   2.268   8.135   1.178  0.0975  0.9530 -1.1689
   95GLOH   H03 9497   1.621   3.691   2.520  0.9543 -1.5211 -2.4116
   95GLOH    O1 9498   1.635   3.760   2.452  0.3769  0.5131 -0.5028
   95GLOH    C1 9499   1.542   3.864   2.494  0.2992 -0.4510  0.3409
   95GLOH   H02 9500   1.595   3.923   2.568 -0.3158 -3.0309  2.9534
   95GLOH   H08 9501   1.461   3.830   2.559 -0.7239 -0.3209 -0.8514
   95GLOH    C2 9502   1.495   3.948   2.380  0.4343  0.2684  0.3060
   95GLOH   H04 9503   1.576   3.969   2.309 -0.6583  1.8375 -0.5079
   95GLOH    O2 9504   1.385   3.893   2.302 -0.3342 -0.2910 -0.9053
   95GLOH   H05 9505   1.386   3.802   2.336  0.9298  0.5206  1.3668
   95GLOH    C3 9506   1.452   4.086   2.423  0.0035 -0.0585  0.7144
   95GLOH   H06 9507   1.365   4.073   2.489  0.9015 -4.3511  1.2223
   95GLOH   H07 9508   1.417   4.141   2.335 -0.5174  0.2440  1.1006
   95GLOH    O3 9509   1.543   4.150   2.501 -0.3810 -0.0152  0.0267
   95GLOH   H01 9510   1.491   4.221   2.543  1.9493  0.9608  1.3025
   96GLOH   H03 9511   3.309   9.350   2.099 -1.3353 -0.7218  1.8518
   96GLOH    O1 9512   3.306   9.258   2.064  0.1290  0.0402 -0.4008
   96GLOH    C1 9513   3.436   9.195   2.088 -0.5224  0.9765  0.1872
   96GLOH   H02 9514   3.428   9.092   2.125  0.3518  0.8335 -0.0087
   96GLOH   H08 9515   3.489   9.246   2.169  0.2495 -0.1630  0.4240
   96GLOH    C2 9516   3.530   9.187   1.961  0.5571 -0.0760  0.0619
   96GLOH   H04 9517   3.551   9.291   1.932 -0.3464 -0.1327 -0.8428
   96GLOH    O2 9518   3.647   9.104   1.987  0.2018 -0.4183 -0.2113
   96GLOH   H05 9519   3.708   9.168   2.028 -1.5160  0.9840  0.1590
   96GLOH    C3 9520   3.463   9.123   1.838  0.3372  0.6879  0.3318
   96GLOH   H06 9521   3.429   9.026   1.874  0.2668  0.4302 -0.4197
   96GLOH   H07 9522   3.524   9.099   1.751  1.1437 -2.2660  1.6480
   96GLOH    O3 9523   3.356   9.207   1.796  0.0739  0.3284 -0.0281
   96GLOH   H01 9524   3.304   9.233   1.875  2.0070  2.5134  0.6035
   97GLOH   H03 9525   4.731   4.600   2.294  0.5557  2.5850  0.0239
   97GLOH    O1 9526   4.740   4.605   2.391  0.2480 -0.5304  0.2474
   97GLOH    C1 9527   4.876   4.565   2.430 -0.4626  0.9287  0.0448
   97GLOH   H02 9528   4.888   4.580   2.537 -1.4167 -0.8004  0.4234
   97GLOH   H08 9529   4.953   4.616   2.371  1.4185 -0.1811  1.4930
   97GLOH    C2 9530   4.895   4.414   2.404 -0.1267 -0.2590 -0.4032
   97GLOH   H04 9531   4.826   4.366   2.475 -1.8402  0.7683 -1.3426
   97GLOH    O2 9532   4.871   4.377   2.265  0.2586 -0.0735  0.2861
   97GLOH   H05 9533   4.787   4.328   2.259  0.9100 -1.1612 -0.0975
   97GLOH    C3 9534   5.042   4.378   2.453  0.7578  0.2883  0.0255
   97GLOH   H06 9535   5.060   4.429   2.548  3.4957 -3.8721  1.9181
   97GLOH   H07 9536   5.106   4.417   2.374 -0.5207  1.9729 -0.2120
   97GLOH    O3 9537   5.056   4.235   2.466  0.0807 -0.0897  0.6123
   97GLOH   H01 9538   5.064   4.216   2.561 -2.6376  0.2563  0.9600
   98GLOH   H03 9539   2.077   9.158   0.636  0.5604 -0.3865 -1.9309
   98GLOH    O1 9540   2.065   9.064   0.660 -0.0411  0.2661  0.3955
   98GLOH    C1 9541   2.108   8.977   0.552 -0.0724 -0.2025  0.2881
   98GLOH   H02 9542   2.035   8.963   0.473  0.1268  0.6868 -0.0570
   98GLOH   H08 9543   2.132   8.878   0.591 -0.7291 -0.4364  0.1017
   98GLOH    C2 9544   2.246   9.010   0.489  0.1049 -0.3335 -0.6318
   98GLOH   H04 9545   2.259   8.936   0.408  0.2970 -0.4165 -0.5262
   98GLOH    O2 9546   2.239   9.144   0.427 -0.4327 -0.8430 -0.0573
   98GLOH   H05 9547   2.297   9.136   0.349 -0.4435  0.1212 -0.1635
   98GLOH    C3 9548   2.352   9.008   0.601 -0.0674 -0.6652 -0.1744
   98GLOH   H06 9549   2.315   9.071   0.682 -0.1579  0.3783 -1.0182
   98GLOH   H07 9550   2.444   9.063   0.582  0.8473 -1.7548  0.9981
   98GLOH    O3 9551   2.382   8.869   0.644 -0.2184 -0.7707  0.5895
   98GLOH   H01 9552   2.477   8.868   0.664  0.2223  0.3008 -1.2920
   99GLOH   H03 9553   8.293   2.783   0.621  1.3215 -0.2957  0.2925
   99GLOH    O1 9554   8.244   2.761   0.702  0.2292 -0.5477 -0.4320
   99GLOH    C1 9555   8.264   2.840   0.824  0.5592 -0.4481 -0.1730
   99GLOH   H02 9556   8.167   2.858   0.870  0.8067  2.2019 -0.5909
   99GLOH   H08 9557   8.314   2.931   0.791 -0.3950 -0.1291 -0.7814
   99GLOH    C2 9558   8.346   2.759   0.924 -0.0163  0.3414  0.0913
   99GLOH   H04 9559   8.346   2.823   1.013  0.8649  0.8292 -0.2500
   99GLOH    O2 9560   8.293   2.637   0.965  0.8585  0.0142 -0.0842
   99GLOH   H05 9561   8.217   2.610   0.911  0.3425 -0.3277  0.8009
   99GLOH    C3 9562   8.497   2.756   0.890 -0.1235 -0.2197  0.8456
   99GLOH   H06 9563   8.502   2.736   0.783 -1.8571  0.6380  0.5829
   99GLOH   H07 9564   8.552   2.669   0.926  3.2988  0.4238 -2.5190
   99GLOH    O3 9565   8.571   2.879   0.919  0.0209  0.4512  0.2137
   99GLOH   H01 9566   8.570   2.897   1.015 -1.1994  1.3943  0.0379
  100GLOH   H03 9567   1.825   9.650   2.159  0.9256  1.4093 -0.8747
  100GLOH    O1 9568   1.734   9.685   2.169  0.3625 -0.2493 -0.0558
  100GLOH    C1 9569   1.735   9.816   2.227 -0.1620  0.8180  0.4101
  100GLOH   H02 9570   1.814   9.820   2.302 -0.9076 -0.5049  1.2798
  100GLOH   H08 9571   1.635   9.839   2.263 -1.1399 -0.3424 -1.5231
  100GLOH    C2 9572   1.775   9.918   2.125  0.0842  0.0001  0.0877
  100GLOH   H04 9573   1.854   9.873   2.063  1.1044  1.6926  0.1174
  100GLOH    O2 9574   1.664   9.955   2.034  0.0867  0.5792  0.3902
  100GLOH   H05 9575   1.623  10.035   2.073 -0.1706  0.7767 -0.2757
  100GLOH    C3 9576   1.825  10.046   2.194 -0.6021  0.4632  0.4956
  100GLOH   H06 9577   1.766  10.072   2.282 -0.2924 -1.3554  1.2715
  100GLOH   H07 9578   1.811  10.129   2.126  0.0741 -1.4325 -2.0532
  100GLOH    O3 9579   1.968  10.034   2.234  0.5253 -0.4353  0.4070
  100GLOH   H01 9580   2.016  10.115   2.211  3.7896 -1.9128  1.6861
  101GLOH   H03 9581   3.149   5.562   0.923 -1.5373  0.0795  0.1976
  101GLOH    O1 9582   3.132   5.576   0.828 -0.2843 -0.2871 -0.0998
  101GLOH    C1 9583   3.089   5.443   0.785 -0.6234 -0.3357  0.4721
  101GLOH   H02 9584   3.025   5.391   0.857  0.5237 -1.8365  0.4298
  101GLOH   H08 9585   3.179   5.382   0.778 -1.6646 -1.7315 -1.2838
  101GLOH    C2 9586   3.021   5.444   0.647 -0.8193  0.0932 -0.2149
  101GLOH   H04 9587   3.093   5.474   0.570  0.1038 -3.8060 -0.9476
  101GLOH    O2 9588   2.985   5.309   0.623  0.1196  0.2989  0.3541
  101GLOH   H05 9589   3.041   5.272   0.552 -0.3558 -1.6343  0.9458
  101GLOH    C3 9590   2.905   5.544   0.647  0.0426  0.2160 -0.0146
  101GLOH   H06 9591   2.838   5.521   0.565  1.8580  0.2456 -1.5575
  101GLOH   H07 9592   2.944   5.644   0.628  1.2428 -0.3377 -0.5430
  101GLOH    O3 9593   2.824   5.539   0.763  0.5510 -0.4917 -0.4872
  101GLOH   H01 9594   2.764   5.463   0.754  1.4460 -1.3009  0.2651
  102GLOH   H03 9595   4.240  10.719   0.367 -0.1481  0.6867  1.8773
  102GLOH    O1 9596   4.333  10.691   0.359 -0.4130  0.1632  0.5407
  102GLOH    C1 9597   4.382  10.689   0.216  0.0332  0.3074 -0.1962
  102GLOH   H02 9598   4.336  10.604   0.166 -0.2002 -0.4729  1.3209
  102GLOH   H08 9599   4.488  10.672   0.204 -0.2553 -0.5173 -1.6145
  102GLOH    C2 9600   4.355  10.822   0.144 -0.1321  0.1467 -0.3367
  102GLOH   H04 9601   4.429  10.894   0.183  0.1273  0.1758 -0.8770
  102GLOH    O2 9602   4.394  10.811   0.005 -0.1696  0.7896 -0.2357
  102GLOH   H05 9603   4.406  10.720  -0.027 -0.6333  1.3551 -2.0723
  102GLOH    C3 9604   4.217  10.882   0.154 -0.7650  0.1336  0.3775
  102GLOH   H06 9605   4.205  10.969   0.090 -1.1411  0.9594  1.5702
  102GLOH   H07 9606   4.201  10.919   0.255  0.3186  0.4045  0.4629
  102GLOH    O3 9607   4.107  10.795   0.112 -0.5396 -0.4293 -0.2997
  102GLOH   H01 9608   4.078  10.733   0.181 -1.2211  1.2257  0.9133
  103GLOH   H03 9609   2.657   2.845   1.416  0.6929 -0.2867  0.2304
  103GLOH    O1 9610   2.651   2.927   1.469 -0.0346  0.0432 -0.3453
  103GLOH    C1 9611   2.645   3.039   1.371 -0.0343 -0.2211  0.6361
  103GLOH   H02 9612   2.654   3.011   1.266  1.0391  2.3272  0.0145
  103GLOH   H08 9613   2.736   3.099   1.379  0.4419 -0.7870 -0.4866
  103GLOH    C2 9614   2.525   3.133   1.393  0.4434 -0.3378  0.1004
  103GLOH   H04 9615   2.430   3.080   1.374  0.4900 -0.1475 -0.6827
  103GLOH    O2 9616   2.515   3.189   1.529 -0.0198  0.0676 -0.2046
  103GLOH   H05 9617   2.421   3.213   1.540 -0.1866 -1.6814  2.9546
  103GLOH    C3 9618   2.534   3.245   1.286  0.4659  0.3269  0.2689
  103GLOH   H06 9619   2.618   3.308   1.313  0.8581 -0.3360  0.5979
  103GLOH   H07 9620   2.446   3.309   1.290  0.8630  0.9010 -0.0359
  103GLOH    O3 9621   2.552   3.209   1.150  0.0796  0.0157 -0.8387
  103GLOH   H01 9622   2.471   3.167   1.116 -1.2151  1.1410  0.8046
  104GLOH   H03 9623   4.166   1.546   2.712  0.3256  0.0742 -0.7308
  104GLOH    O1 9624   4.145   1.454   2.686  0.1989 -0.2837  0.6179
  104GLOH    C1 9625   4.173   1.426   2.547  0.0344  0.7244  0.2846
  104GLOH   H02 9626   4.263   1.475   2.509 -1.3700  1.7406 -1.8839
  104GLOH   H08 9627   4.092   1.466   2.486 -0.1815 -0.7296 -0.4042
  104GLOH    C2 9628   4.180   1.273   2.511  0.0439 -0.7030 -0.0250
  104GLOH   H04 9629   4.096   1.226   2.565  1.4262 -1.8469  1.2047
  104GLOH    O2 9630   4.175   1.262   2.366 -0.0733  0.4129 -0.2725
  104GLOH   H05 9631   4.249   1.314   2.329  1.2809  0.6383  2.6198
  104GLOH    C3 9632   4.309   1.214   2.576  0.2356  0.0433 -0.1595
  104GLOH   H06 9633   4.306   1.106   2.561 -1.0171 -0.1325  1.1829
  104GLOH   H07 9634   4.302   1.227   2.684  2.5713 -1.1235  0.1843
  104GLOH    O3 9635   4.428   1.269   2.524  0.1079  0.2785 -0.0303
  104GLOH   H01 9636   4.452   1.217   2.445 -0.4821  1.5615 -1.0752
  105GLOH   H03 9637   4.037   9.443   1.921  0.9599  0.8997  0.0023
  105GLOH    O1 9638   4.075   9.376   1.981  0.0957 -0.0801 -0.5365
  105GLOH    C1 9639   4.220   9.359   1.975 -0.0196  0.4910 -0.0110
  105GLOH   H02 9640   4.237   9.258   2.011  1.2507  1.0705  1.0485
  105GLOH   H08 9641   4.276   9.433   2.034  1.7424 -1.5501  0.9381
  105GLOH    C2 9642   4.281   9.359   1.829 -0.3913  0.6523 -0.0035
  105GLOH   H04 9643   4.237   9.286   1.759  2.7193  0.2948 -1.6688
  105GLOH    O2 9644   4.272   9.492   1.778  0.1145  0.1843 -0.3998
  105GLOH   H05 9645   4.180   9.511   1.801  0.1704 -1.4625  1.2786
  105GLOH    C3 9646   4.423   9.319   1.845  0.5690  0.2628  0.6419
  105GLOH   H06 9647   4.484   9.387   1.905 -0.1416  0.4024  1.2144
  105GLOH   H07 9648   4.467   9.314   1.745  0.0177 -0.2508  0.4216
  105GLOH    O3 9649   4.442   9.185   1.903  0.0291 -0.4911  0.1095
  105GLOH   H01 9650   4.495   9.198   1.984  0.5372 -0.2090 -0.2664
  106GLOH   H03 9651   3.328   7.188   2.286  0.6031 -0.9892 -1.3479
  106GLOH    O1 9652   3.255   7.212   2.226 -0.2158 -0.2777 -0.0925
  106GLOH    C1 9653   3.206   7.335   2.281  0.6664  0.5846  0.1891
  106GLOH   H02 9654   3.160   7.394   2.201  2.1027 -0.3705 -1.3825
  106GLOH   H08 9655   3.290   7.394   2.315  0.9797 -0.0763  0.5611
  106GLOH    C2 9656   3.099   7.326   2.396  0.7238  0.5473 -0.2331
  106GLOH   H04 9657   3.106   7.423   2.447  0.9967  1.4411 -1.9268
  106GLOH    O2 9658   2.967   7.281   2.345  0.2332  0.7986  0.9361
  106GLOH   H05 9659   2.945   7.339   2.271 -1.1648 -1.2911 -0.3226
  106GLOH    C3 9660   3.134   7.216   2.496  1.0685 -0.1398 -1.0428
  106GLOH   H06 9661   3.174   7.130   2.442 -0.2065 -1.2112 -0.3302
  106GLOH   H07 9662   3.043   7.180   2.545  2.0760  1.3645  2.1039
  106GLOH    O3 9663   3.241   7.252   2.584 -0.2123  0.0939 -0.2711
  106GLOH   H01 9664   3.232   7.199   2.665 -1.0817  1.6876  0.6939
  107GLOH   H03 9665   8.864   3.210   0.543  0.6253 -0.8981  0.7613
  107GLOH    O1 9666   8.798   3.173   0.604 -0.1603 -0.3461  0.2618
  107GLOH    C1 9667   8.850   3.215   0.736 -0.0194 -0.4728  0.0915
  107GLOH   H02 9668   8.922   3.142   0.771 -1.4563 -1.5243  0.9147
  107GLOH   H08 9669   8.764   3.207   0.802 -1.7725  0.3817 -2.0136
  107GLOH    C2 9670   8.922   3.358   0.741  0.0450 -0.6336 -0.3906
  107GLOH   H04 9671   8.844   3.433   0.720 -0.0383 -1.3262 -2.7315
  107GLOH    O2 9672   8.985   3.386   0.867 -0.1850 -0.2521  0.2197
  107GLOH   H05 9673   8.980   3.483   0.869  0.5820 -0.2391  1.6751
  107GLOH    C3 9674   9.013   3.382   0.617 -0.4600  0.3650 -0.2366
  107GLOH   H06 9675   9.116   3.349   0.632 -0.3397  1.1374  0.6902
  107GLOH   H07 9676   9.027   3.489   0.603  2.0198  0.1504  0.2442
  107GLOH    O3 9677   8.952   3.330   0.495 -0.1791 -0.1936 -0.5304
  107GLOH   H01 9678   9.025   3.340   0.431  1.8324  0.3497  1.7350
  108GLOH   H03 9679   3.652   9.980   1.031  0.5108  2.3095  2.1799
  108GLOH    O1 9680   3.560   9.958   1.055  0.4413  0.5224  0.4443
  108GLOH    C1 9681   3.577   9.844   1.143 -0.6811  0.3523 -0.0915
  108GLOH   H02 9682   3.657   9.859   1.216 -1.1771 -1.0022  0.7684
  108GLOH   H08 9683   3.597   9.751   1.090 -2.9495 -0.4730  0.4392
  108GLOH    C2 9684   3.451   9.804   1.214  0.4147  0.0448  0.1961
  108GLOH   H04 9685   3.483   9.713   1.267  1.3550 -0.9177 -1.9488
  108GLOH    O2 9686   3.413   9.901   1.314  0.1665 -0.2682 -0.4938
  108GLOH   H05 9687   3.488   9.952   1.350  0.6519 -0.6298 -1.0014
  108GLOH    C3 9688   3.320   9.779   1.124  0.5902  0.2039  0.0855
  108GLOH   H06 9689   3.305   9.868   1.064 -3.0697 -1.5470 -1.7437
  108GLOH   H07 9690   3.234   9.758   1.187 -0.1190 -0.7535 -1.1769
  108GLOH    O3 9691   3.338   9.664   1.050 -0.3241  0.0895 -0.4741
  108GLOH   H01 9692   3.317   9.588   1.107  1.6729  0.1821  0.4341
  109GLOH   H03 9693   4.731   4.477   0.926 -3.2787 -2.5741 -1.4432
  109GLOH    O1 9694   4.690   4.557   0.889  0.4930  0.0362 -0.2176
  109GLOH    C1 9695   4.715   4.563   0.746 -0.5145 -0.0607 -0.1130
  109GLOH   H02 9696   4.638   4.633   0.712  0.4020  1.4190  0.8274
  109GLOH   H08 9697   4.708   4.466   0.695  1.6336 -0.6060  0.6136
  109GLOH    C2 9698   4.855   4.615   0.715  0.0734  0.1173 -0.3961
  109GLOH   H04 9699   4.913   4.542   0.773  0.4209  1.3173  0.7815
  109GLOH    O2 9700   4.884   4.607   0.573 -0.4862 -0.1747 -0.0529
  109GLOH   H05 9701   4.801   4.626   0.525  0.0745  2.1487 -0.1610
  109GLOH    C3 9702   4.882   4.756   0.761  0.8174  0.5810  0.2275
  109GLOH   H06 9703   4.833   4.817   0.686  0.2660  0.6097  0.6092
  109GLOH   H07 9704   4.989   4.777   0.759  0.8358  0.3855 -0.8964
  109GLOH    O3 9705   4.830   4.773   0.894  0.6185 -0.0808  0.2152
  109GLOH   H01 9706   4.776   4.694   0.913  2.0241 -0.6636  1.9501
  110GLOH   H03 9707   8.833   3.463   1.708  1.0876  2.4398 -0.2736
  110GLOH    O1 9708   8.759   3.499   1.761  0.1077  0.1483 -0.0566
  110GLOH    C1 9709   8.796   3.631   1.800 -0.6470  0.1959 -0.5574
  110GLOH   H02 9710   8.712   3.699   1.784  0.2057  1.6096  0.7764
  110GLOH   H08 9711   8.871   3.675   1.735 -1.2228  1.0377 -0.6638
  110GLOH    C2 9712   8.835   3.640   1.953 -0.4184  0.0545 -0.0834
  110GLOH   H04 9713   8.925   3.578   1.968 -1.6032 -1.3853  1.1431
  110GLOH    O2 9714   8.862   3.778   1.996 -0.8837 -0.6401 -0.4626
  110GLOH   H05 9715   8.920   3.767   2.074 -1.7123 -1.5946  0.0225
  110GLOH    C3 9716   8.735   3.586   2.045  0.3932  0.9677 -0.0427
  110GLOH   H06 9717   8.648   3.651   2.056 -1.2516 -0.9809 -1.0875
  110GLOH   H07 9718   8.778   3.574   2.144  1.1458  3.4461 -0.0545
  110GLOH    O3 9719   8.685   3.451   2.005  0.0992  0.3274  0.6265
  110GLOH   H01 9720   8.705   3.439   1.910  1.9292  0.7215  0.9335
  111GLOH   H03 9721   8.473   2.093   0.471  1.1808  1.1525  1.0118
  111GLOH    O1 9722   8.502   2.007   0.507  0.3641  0.4572  0.0387
  111GLOH    C1 9723   8.420   1.956   0.617 -0.2395  0.3623 -0.0977
  111GLOH   H02 9724   8.383   1.855   0.597  1.1760 -0.1904  0.0161
  111GLOH   H08 9725   8.331   2.014   0.641 -1.8024 -2.0786  0.1988
  111GLOH    C2 9726   8.504   1.938   0.750 -0.0677  0.9264 -0.1079
  111GLOH   H04 9727   8.443   1.888   0.826  0.7358  1.9932  1.2597
  111GLOH    O2 9728   8.625   1.852   0.730 -0.3800 -0.3101  0.0265
  111GLOH   H05 9729   8.652   1.862   0.638  1.2910 -0.2466  0.5163
  111GLOH    C3 9730   8.539   2.075   0.808  0.6130  0.3288 -0.1586
  111GLOH   H06 9731   8.582   2.135   0.728 -0.6505  1.1348 -0.2511
  111GLOH   H07 9732   8.627   2.060   0.869  0.9838 -0.1685 -0.8107
  111GLOH    O3 9733   8.435   2.155   0.869  0.2217 -0.2637 -0.0252
  111GLOH   H01 9734   8.465   2.247   0.875 -1.9984  0.3771  1.6307
  112GLOH   H03 9735   0.839   4.437   0.445  0.8092 -1.5543 -1.4596
  112GLOH    O1 9736   0.778   4.465   0.374  0.3455  0.5036 -0.2897
  112GLOH    C1 9737   0.664   4.380   0.367  0.2886 -0.2681  0.4098
  112GLOH   H02 9738   0.609   4.374   0.461  0.6384 -0.5716  0.5990
  112GLOH   H08 9739   0.704   4.279   0.356 -0.1057 -0.5039  1.0742
  112GLOH    C2 9740   0.584   4.410   0.237 -0.3879 -0.1802 -0.1099
  112GLOH   H04 9741   0.583   4.520   0.224  1.4978 -0.1244  0.0692
  112GLOH    O2 9742   0.658   4.352   0.119 -0.1096  0.5628 -0.2339
  112GLOH   H05 9743   0.674   4.265   0.160 -1.8513  1.3042  2.1578
  112GLOH    C3 9744   0.441   4.348   0.261  0.2466 -0.8116 -0.1440
  112GLOH   H06 9745   0.458   4.255   0.316 -1.1463 -1.3449 -0.5860
  112GLOH   H07 9746   0.403   4.327   0.161 -0.6234  0.8977 -0.1824
  112GLOH    O3 9747   0.354   4.431   0.338 -0.0832  0.1988 -0.0792
  112GLOH   H01 9748   0.294   4.378   0.393  1.0185  0.5233  1.4357
  113GLOH   H03 9749   2.996   3.900   1.748 -1.1263 -0.6117 -0.5788
  113GLOH    O1 9750   3.033   3.937   1.666  0.1982 -0.6391 -0.0113
  113GLOH    C1 9751   3.178   3.946   1.667 -0.1572 -0.2269  0.2348
  113GLOH   H02 9752   3.208   3.922   1.769 -2.5166 -1.3816  0.6989
  113GLOH   H08 9753   3.218   4.043   1.638 -1.3992  0.5409  1.0552
  113GLOH    C2 9754   3.229   3.838   1.577 -0.7728  0.2673  0.3129
  113GLOH   H04 9755   3.169   3.841   1.485  1.4405 -0.3928 -1.1962
  113GLOH    O2 9756   3.367   3.864   1.548 -0.3012  0.4371 -0.3116
  113GLOH   H05 9757   3.404   3.778   1.524 -1.9405 -0.8298  1.5160
  113GLOH    C3 9758   3.218   3.706   1.651 -0.9241 -0.3434  0.2438
  113GLOH   H06 9759   3.128   3.689   1.710 -1.1512 -1.0392 -0.2913
  113GLOH   H07 9760   3.304   3.709   1.718 -0.7322 -0.3382 -0.0035
  113GLOH    O3 9761   3.249   3.592   1.567  0.6337  0.1961  0.2785
  113GLOH   H01 9762   3.261   3.509   1.617  1.7343 -0.5679 -1.1887
  114GLOH   H03 9763   9.113   4.933   2.612 -0.9707 -2.1011 -3.0186
  114GLOH    O1 9764   9.086   4.865   2.677 -0.1624  0.0837 -0.2776
  114GLOH    C1 9765   9.120   4.736   2.625  0.4027  0.2768  0.1314
  114GLOH   H02 9766   9.042   4.705   2.555  0.4578  1.5631 -0.5183
  114GLOH   H08 9767   9.110   4.665   2.707 -1.9477 -2.1804 -2.1688
  114GLOH    C2 9768   9.257   4.733   2.557 -0.1386  0.1088 -0.0889
  114GLOH   H04 9769   9.331   4.738   2.638 -0.2991  1.3001 -0.0086
  114GLOH    O2 9770   9.278   4.608   2.482  0.0236  0.2697 -0.2103
  114GLOH   H05 9771   9.285   4.608   2.385 -2.0565 -1.3506 -0.3957
  114GLOH    C3 9772   9.275   4.850   2.464  0.1613 -0.4298  0.3168
  114GLOH   H06 9773   9.204   4.839   2.383 -0.6700 -4.0433  1.4290
  114GLOH   H07 9774   9.374   4.847   2.419 -0.8924 -0.3543 -2.0707
  114GLOH    O3 9775   9.265   4.977   2.535 -0.4273  0.6072 -0.1685
  114GLOH   H01 9776   9.318   5.034   2.476 -1.0744  0.0463 -1.3114
  115GLOH   H03 9777   1.251   2.402   0.724  2.9492 -1.0737  3.6949
  115GLOH    O1 9778   1.299   2.484   0.701 -0.5196  0.1574  0.1269
  115GLOH    C1 9779   1.216   2.562   0.612  0.3273  0.0850  0.0995
  115GLOH   H02 9780   1.141   2.499   0.564  0.4367 -0.1938  0.2933
  115GLOH   H08 9781   1.271   2.607   0.530  2.2167  0.1706  1.3825
  115GLOH    C2 9782   1.142   2.676   0.687  0.4464  0.1190 -0.0722
  115GLOH   H04 9783   1.072   2.630   0.758 -0.1746 -2.0493 -2.0251
  115GLOH    O2 9784   1.244   2.759   0.755  0.2272 -0.0159  0.0231
  115GLOH   H05 9785   1.311   2.782   0.688 -0.2160  0.1579 -0.3690
  115GLOH    C3 9786   1.052   2.754   0.587 -1.4572  0.4861 -0.5542
  115GLOH   H06 9787   1.115   2.806   0.515 -0.4636 -1.5796 -1.2146
  115GLOH   H07 9788   0.994   2.820   0.652 -0.5857 -0.5792  1.3708
  115GLOH    O3 9789   0.963   2.676   0.506  0.2525 -0.0656  0.4580
  115GLOH   H01 9790   0.923   2.744   0.449  1.9788  0.8088  0.2581
  116GLOH   H03 9791   3.106   4.263   1.928  0.3304 -0.2819 -0.0360
  116GLOH    O1 9792   3.117   4.350   1.885 -0.2154 -0.2711 -0.1597
  116GLOH    C1 9793   3.246   4.399   1.931  0.1437 -0.1875  0.6099
  116GLOH   H02 9794   3.297   4.311   1.972  1.1434 -0.3689 -0.9763
  116GLOH   H08 9795   3.237   4.475   2.008  0.9198  0.8641 -0.3228
  116GLOH    C2 9796   3.333   4.454   1.815 -0.2093 -0.1323 -0.5187
  116GLOH   H04 9797   3.281   4.525   1.750  0.9328  1.9641  0.7985
  116GLOH    O2 9798   3.444   4.530   1.865 -0.0719  0.1351  0.1815
  116GLOH   H05 9799   3.529   4.513   1.821  0.4789  0.2825  1.1748
  116GLOH    C3 9800   3.372   4.330   1.733  0.1423  0.7181  0.0610
  116GLOH   H06 9801   3.431   4.360   1.647 -1.5777 -0.0484 -1.4129
  116GLOH   H07 9802   3.280   4.281   1.700  0.8293 -2.1222  2.1300
  116GLOH    O3 9803   3.437   4.224   1.805 -0.0516 -0.0284  0.0673
  116GLOH   H01 9804   3.514   4.207   1.748 -1.9894  2.3225 -3.3430
  117GLOH   H03 9805   2.154   5.913   0.340 -0.2120 -0.6494 -0.5019
  117GLOH    O1 9806   2.117   5.984   0.285  0.0857  0.5119  0.7747
  117GLOH    C1 9807   2.058   6.087   0.365  0.1426  0.5409  0.4814
  117GLOH   H02 9808   1.992   6.039   0.437  0.4769 -1.7044 -0.6882
  117GLOH   H08 9809   1.999   6.156   0.304 -0.4666  2.3940  3.0917
  117GLOH    C2 9810   2.173   6.164   0.429 -0.1484  0.0686 -0.0873
  117GLOH   H04 9811   2.244   6.182   0.347 -1.0015 -3.5195 -1.6923
  117GLOH    O2 9812   2.131   6.280   0.499 -0.0256 -0.5458  0.1130
  117GLOH   H05 9813   2.080   6.344   0.446  1.2518  0.0849 -0.3642
  117GLOH    C3 9814   2.248   6.073   0.531 -0.6816  0.2325 -0.4746
  117GLOH   H06 9815   2.333   6.132   0.564 -0.8611 -0.3550  1.0741
  117GLOH   H07 9816   2.282   5.981   0.483  0.2109 -0.0124  0.5993
  117GLOH    O3 9817   2.163   6.031   0.636  0.0541  0.1571 -0.2228
  117GLOH   H01 9818   2.140   6.100   0.701 -3.4433  0.9046 -2.1336
  118GLOH   H03 9819   4.877   3.678   0.178  0.5313 -0.4285 -0.7359
  118GLOH    O1 9820   4.933   3.750   0.213 -0.1831  0.0741 -0.6164
  118GLOH    C1 9821   5.010   3.702   0.324  0.0494 -0.5971 -0.4410
  118GLOH   H02 9822   5.069   3.783   0.367  1.1721 -0.0713 -2.8694
  118GLOH   H08 9823   5.083   3.625   0.296  0.5109 -0.1286 -0.5380
  118GLOH    C2 9824   4.924   3.645   0.442 -0.4172 -0.2828  1.6045
  118GLOH   H04 9825   4.876   3.553   0.405  1.3045 -0.4416 -0.3044
  118GLOH    O2 9826   5.017   3.616   0.550 -0.3195 -0.2311  0.0468
  118GLOH   H05 9827   4.970   3.581   0.628  0.3943  0.0589  0.6201
  118GLOH    C3 9828   4.815   3.758   0.479 -0.2553  0.3778  0.5607
  118GLOH   H06 9829   4.737   3.749   0.403 -0.1927  4.0761 -0.0659
  118GLOH   H07 9830   4.859   3.856   0.459  2.0764 -0.6673  0.4851
  118GLOH    O3 9831   4.751   3.734   0.606 -1.0635  0.1353 -0.1013
  118GLOH   H01 9832   4.818   3.744   0.676  0.2593 -0.9454 -1.1733
  119GLOH   H03 9833   2.785   6.961   0.366 -1.2808  0.3729 -1.1767
  119GLOH    O1 9834   2.755   7.009   0.445  0.0210 -0.5593 -0.1005
  119GLOH    C1 9835   2.809   6.926   0.551  0.2787  0.4682 -0.3174
  119GLOH   H02 9836   2.797   6.821   0.528 -0.0744  0.4130  0.1002
  119GLOH   H08 9837   2.751   6.944   0.642  0.2963  0.2223 -0.2580
  119GLOH    C2 9838   2.959   6.947   0.579  0.5547 -0.1210 -0.0199
  119GLOH   H04 9839   3.014   6.951   0.484  2.5397 -0.8036  1.0626
  119GLOH    O2 9840   2.976   7.072   0.647  0.4918 -0.1705  0.2495
  119GLOH   H05 9841   2.904   7.136   0.633 -0.0970 -1.1369 -1.2456
  119GLOH    C3 9842   3.021   6.830   0.662  0.0942  0.1633  0.4179
  119GLOH   H06 9843   3.121   6.858   0.697  0.3536  0.5259 -0.5857
  119GLOH   H07 9844   3.038   6.749   0.591 -0.7419 -1.0450  1.5913
  119GLOH    O3 9845   2.941   6.789   0.774  0.8638 -0.5614 -0.6362
  119GLOH   H01 9846   2.949   6.858   0.842  0.9877 -0.3403 -0.8717
  120GLOH   H03 9847   0.997   2.281   1.380 -1.4209  1.2160  0.8759
  120GLOH    O1 9848   1.033   2.275   1.471 -0.1521 -0.1681  0.3005
  120GLOH    C1 9849   1.163   2.341   1.467 -1.1526 -0.2182  0.6654
  120GLOH   H02 9850   1.231   2.286   1.402 -0.3328 -1.3408  2.4380
  120GLOH   H08 9851   1.212   2.334   1.564  3.0380  0.1420 -1.3192
  120GLOH    C2 9852   1.154   2.493   1.449  1.2304 -0.7001 -0.4206
  120GLOH   H04 9853   1.257   2.532   1.447  0.4525  1.3494 -2.0903
  120GLOH    O2 9854   1.081   2.539   1.330  0.1453  0.6897  0.2091
  120GLOH   H05 9855   1.141   2.543   1.254  0.6797  0.3816  0.6084
  120GLOH    C3 9856   1.093   2.561   1.575  0.2140 -0.2522  0.0899
  120GLOH   H06 9857   1.136   2.501   1.656  2.9359 -0.6229 -1.5497
  120GLOH   H07 9858   0.988   2.533   1.569  0.1607  0.3182 -1.8310
  120GLOH    O3 9859   1.109   2.696   1.584  0.1973  0.2081 -0.2211
  120GLOH   H01 9860   1.066   2.741   1.509 -1.1605 -0.9859 -0.1674
  121ACOH    H4 9861   4.211   9.909   1.917  0.4464  1.7569 -0.6894
  121ACOH    O2 9862   4.152   9.933   1.991  0.0427 -0.2506 -0.3280
  121ACOH    C2 9863   4.100   9.809   2.016  0.1518  0.0265  0.9314
  121ACOH    O1 9864   4.158   9.700   2.013  0.3214  0.0678  0.3128
  121ACOH    C1 9865   3.969   9.830   2.086  0.1940  0.0702  0.0296
  121ACOH    H1 9866   3.984   9.811   2.193  1.4279  2.2728  0.2741
  121ACOH    H2 9867   3.883   9.772   2.053  1.8973 -2.9415  0.6192
  121ACOH    H3 9868   3.952   9.937   2.078 -2.1524 -0.2289  0.7252
  122ACOH    H4 9869   3.545   7.512   0.707 -0.6519  0.9660 -0.4593
  122ACOH    O2 9870   3.622   7.562   0.676 -0.0632  0.2801 -0.1366
  122ACOH    C2 9871   3.599   7.613   0.555 -0.7538  0.1626 -1.0229
  122ACOH    O1 9872   3.498   7.595   0.490  0.3753 -0.4632 -0.1266
  122ACOH    C1 9873   3.697   7.711   0.517 -0.1245 -0.3831  1.0499
  122ACOH    H1 9874   3.653   7.810   0.530 -3.6018 -1.2813 -2.8408
  122ACOH    H2 9875   3.721   7.694   0.412 -0.9725  0.1845  0.7583
  122ACOH    H3 9876   3.789   7.697   0.573  1.9405  0.6068 -2.0368
  123ACOH    H4 9877   4.606  10.381   1.106 -0.5174  1.3363  1.3803
  123ACOH    O2 9878   4.676  10.428   1.057 -0.6681  0.0882 -0.0647
  123ACOH    C2 9879   4.743  10.494   1.146  0.2781  0.5159 -0.5354
  123ACOH    O1 9880   4.727  10.492   1.268  0.4769  0.4891 -0.0206
  123ACOH    C1 9881   4.851  10.576   1.090 -0.2701  0.3676 -0.0087
  123ACOH    H1 9882   4.819  10.672   1.050 -1.7491  0.1446  0.6257
  123ACOH    H2 9883   4.901  10.517   1.012  2.9602  1.1507  1.3950
  123ACOH    H3 9884   4.921  10.597   1.171  0.9511  1.5297 -1.3340
  124ACOH    H4 9885   8.370   1.706   1.461  1.5392  1.5558  1.5577
  124ACOH    O2 9886   8.393   1.618   1.496 -0.1999  0.4537 -0.0138
  124ACOH    C2 9887   8.512   1.573   1.443 -0.1753 -0.2769 -0.2695
  124ACOH    O1 9888   8.575   1.623   1.356  0.1032 -0.5348  0.9117
  124ACOH    C1 9889   8.562   1.454   1.516  0.3332  0.7359  0.3422
  124ACOH    H1 9890   8.475   1.399   1.553 -0.1763  0.9549 -0.5130
  124ACOH    H2 9891   8.622   1.483   1.602  2.8992 -1.6925 -0.5709
  124ACOH    H3 9892   8.631   1.404   1.449 -0.4088 -1.3886  1.1213
  125ACOH    H4 9893  10.061   6.025   1.652  0.3908  1.3098  0.2345
  125ACOH    O2 9894   9.981   6.080   1.643 -0.1698  0.4387 -0.2163
  125ACOH    C2 9895  10.015   6.195   1.705 -0.8609 -0.4291  0.1303
  125ACOH    O1 9896  10.109   6.211   1.784 -0.2966 -0.3329 -0.3624
  125ACOH    C1 9897   9.914   6.294   1.673  0.3314  0.4721 -0.1110
  125ACOH    H1 9898   9.816   6.255   1.698 -0.1110  2.6034  1.6152
  125ACOH    H2 9899   9.911   6.317   1.567 -1.1589 -2.5769 -0.7889
  125ACOH    H3 9900   9.938   6.387   1.724 -0.8470  0.3534  0.6908
  126ACOH    H4 9901   3.765   6.114   0.948  0.1058 -0.7191 -0.7245
  126ACOH    O2 9902   3.817   6.178   0.896 -0.0699 -0.0561 -0.0940
  126ACOH    C2 9903   3.926   6.105   0.843  0.6780  0.3005  0.6593
  126ACOH    O1 9904   3.935   5.986   0.820  0.0801 -0.1587 -0.0035
  126ACOH    C1 9905   4.033   6.197   0.791  0.0490 -0.4093  0.2622
  126ACOH    H1 9906   4.011   6.253   0.699 -1.6597  1.5350  1.8114
  126ACOH    H2 9907   4.123   6.140   0.769 -1.3123 -1.0904 -4.1425
  126ACOH    H3 9908   4.060   6.272   0.865  0.1022  0.5874 -0.7559
  127ACOH    H4 9909   8.307   2.278   0.220 -2.5532 -0.8947  1.7312
  127ACOH    O2 9910   8.283   2.221   0.146  0.2553 -0.3564  0.3539
  127ACOH    C2 9911   8.400   2.182   0.094  0.5368 -0.4306 -0.3986
  127ACOH    O1 9912   8.504   2.197   0.144 -0.6044 -0.0874  0.1476
  127ACOH    C1 9913   8.388   2.103  -0.027  0.2480 -0.5690  0.0761
  127ACOH    H1 9914   8.284   2.088  -0.054  0.5205  2.0668 -2.8257
  127ACOH    H2 9915   8.443   2.010  -0.016  1.0352  0.1828  2.8659
  127ACOH    H3 9916   8.442   2.150  -0.110  1.0208 -2.1258 -0.3215
  128ACOH    H4 9917   3.313   8.320   1.471  0.0411  1.6741  0.9703
  128ACOH    O2 9918   3.286   8.373   1.394  0.1623  0.7756  0.2991
  128ACOH    C2 9919   3.151   8.379   1.398 -0.6883 -0.2313  0.0532
  128ACOH    O1 9920   3.088   8.280   1.425  0.5774 -0.2205  0.0579
  128ACOH    C1 9921   3.099   8.494   1.321 -0.6216 -0.2447  0.0203
  128ACOH    H1 9922   2.995   8.518   1.346 -0.0918  3.8106 -1.1937
  128ACOH    H2 9923   3.103   8.475   1.214  0.8461  0.3725 -0.0409
  128ACOH    H3 9924   3.151   8.588   1.342  1.3308 -1.1630 -0.5989
  129ACOH    H4 9925   2.741   1.262   2.163 -0.3895  1.6246 -1.0262
  129ACOH    O2 9926   2.821   1.314   2.183  0.3577  0.0479  0.1700
  129ACOH    C2 9927   2.802   1.427   2.116  0.6833 -0.5015 -0.6093
  129ACOH    O1 9928   2.697   1.469   2.069  0.2180  0.6290 -0.2479
  129ACOH    C1 9929   2.907   1.521   2.157  0.3493  0.7996  0.2861
  129ACOH    H1 9930   2.994   1.488   2.100 -0.9824 -3.2084  0.4235
  129ACOH    H2 9931   2.928   1.513   2.264  0.8311  0.5286  0.1752
  129ACOH    H3 9932   2.879   1.626   2.151 -3.1607 -0.0447  0.7052
  130ACOH    H4 9933   1.202   1.860   2.599 -2.1600 -0.5182 -1.4158
  130ACOH    O2 9934   1.192   1.957   2.598  0.0492 -0.2326  0.4869
  130ACOH    C2 9935   1.293   2.009   2.668 -0.2062 -0.2286 -0.5176
  130ACOH    O1 9936   1.396   1.951   2.704  0.3586  0.2552 -0.1228
  130ACOH    C1 9937   1.281   2.154   2.688 -0.2050  0.2631 -0.0713
  130ACOH    H1 9938   1.342   2.194   2.770 -2.6421  2.1774  0.8668
  130ACOH    H2 9939   1.178   2.186   2.702  0.2312  2.1356 -0.9998
  130ACOH    H3 9940   1.310   2.209   2.599 -1.1599  1.8857  0.5950
  131ACOH    H4 9941   5.546   9.565   1.953  0.5980  0.7320 -0.9741
  131ACOH    O2 9942   5.521   9.611   2.035  0.0865 -0.1424 -0.6390
  131ACOH    C2 9943   5.528   9.737   2.002 -0.4655  0.4450 -0.3608
  131ACOH    O1 9944   5.542   9.778   1.888  0.4146  0.0109 -0.0332
  131ACOH    C1 9945   5.506   9.834   2.111  0.1570 -0.0481 -0.3270
  131ACOH    H1 9946   5.502   9.766   2.196  0.1965  0.4238  0.0556
  131ACOH    H2 9947   5.414   9.893   2.112 -0.0028 -0.3059  0.5459
  131ACOH    H3 9948   5.595   9.897   2.125 -0.0460 -0.1389  1.3563
  132ACOH    H4 9949   4.404  10.573   0.446 -1.1439 -1.0149  0.3094
  132ACOH    O2 9950   4.465  10.514   0.494 -0.0535 -0.3233 -0.2002
  132ACOH    C2 9951   4.453  10.385   0.458 -0.7468  0.1286 -0.3373
  132ACOH    O1 9952   4.370  10.333   0.385  0.2013 -0.0111 -0.7894
  132ACOH    C1 9953   4.563  10.310   0.524 -0.3241  0.3115 -0.7124
  132ACOH    H1 9954   4.553  10.203   0.506 -3.0159  0.5112 -0.5332
  132ACOH    H2 9955   4.554  10.321   0.632 -3.5440  2.0987 -1.1129
  132ACOH    H3 9956   4.657  10.349   0.484 -0.4409 -0.7538 -2.0837
  133ACOH    H4 9957   9.897   3.872   1.468 -3.4983  0.8443  1.0190
  133ACOH    O2 9958   9.875   3.925   1.389 -0.0793  0.3232 -0.3528
  133ACOH    C2 9959   9.743   3.918   1.369  0.8050  0.4191  0.3087
  133ACOH    O1 9960   9.671   3.825   1.411  0.4478  0.1265 -0.0529
  133ACOH    C1 9961   9.703   3.997   1.250  0.7798  0.1892 -0.2483
  133ACOH    H1 9962   9.666   3.940   1.165  0.8788 -0.4413  0.1257
  133ACOH    H2 9963   9.791   4.050   1.212  0.7300  0.3855 -0.0931
  133ACOH    H3 9964   9.638   4.081   1.274  0.8899  0.1266  0.2882
  134ACOH    H4 9965   1.056   9.482   2.135  0.0625 -0.0011  1.1325
  134ACOH    O2 9966   1.005   9.563   2.120 -0.1923 -0.4987 -0.8486
  134ACOH    C2 9967   0.900   9.531   2.044  0.1570 -0.5437 -0.3981
  134ACOH    O1 9968   0.869   9.434   1.978  0.2062  0.1019  0.1118
  134ACOH    C1 9969   0.818   9.652   2.043 -0.0616 -0.1861  0.4693
  134ACOH    H1 9970   0.876   9.741   2.015  0.4466 -0.6363  0.0689
  134ACOH    H2 9971   0.782   9.665   2.145 -3.0616 -1.9797 -0.3104
  134ACOH    H3 9972   0.736   9.647   1.971  0.5246  0.0707 -0.2202
  135ACOH    H4 9973   5.064   2.829   1.956  0.8076  1.5966 -0.7740
  135ACOH    O2 9974   5.089   2.774   1.880 -0.4405  0.2773 -0.2611
  135ACOH    C2 9975   5.130   2.859   1.786 -0.6041  0.1523 -0.4891
  135ACOH    O1 9976   5.066   2.958   1.756  0.0897  0.1184 -0.5443
  135ACOH    C1 9977   5.229   2.803   1.693 -0.4541 -0.3147 -0.1083
  135ACOH    H1 9978   5.287   2.887   1.654 -2.2213  1.2324  0.5187
  135ACOH    H2 9979   5.173   2.764   1.608  0.9285 -2.7147  0.0225
  135ACOH    H3 9980   5.294   2.728   1.738 -1.3906 -1.0031  0.1170
  136ACOH    H4 9981   8.632   2.218   2.036 -0.8411  2.5343  1.1235
  136ACOH    O2 9982   8.588   2.158   2.098 -0.2650  0.5972 -0.3056
  136ACOH    C2 9983   8.665   2.051   2.110  0.1095 -0.7733 -0.0689
  136ACOH    O1 9984   8.783   2.059   2.090 -0.5399  0.6799  0.0113
  136ACOH    C1 9985   8.609   1.965   2.215 -0.7190  0.3074 -1.1419
  136ACOH    H1 9986   8.561   2.018   2.298 -1.1535  0.9459 -1.7992
  136ACOH    H2 9987   8.684   1.905   2.268 -1.5427  1.9824  2.0708
  136ACOH    H3 9988   8.535   1.895   2.177 -0.5573  1.1657 -3.0738
  137ACOH    H4 9989   4.508   1.039   0.423  0.0758 -1.7571 -0.5721
  137ACOH    O2 9990   4.506   1.075   0.333 -0.6175  0.2193  0.1880
  137ACOH    C2 9991   4.613   1.153   0.316 -0.0493  0.9673  0.1729
  137ACOH    O1 9992   4.678   1.200   0.409  0.1060 -0.0042  0.1890
  137ACOH    C1 9993   4.627   1.213   0.185 -0.3434  0.0162  0.0962
  137ACOH    H1 9994   4.696   1.297   0.187  1.7686 -1.5740 -2.3386
  137ACOH    H2 9995   4.527   1.249   0.162  0.1130  1.8491  0.9108
  137ACOH    H3 9996   4.649   1.134   0.113  2.0518  0.6844  0.0557
  138ACOH    H4 9997   5.233   3.302   0.584  0.1322  0.6276  0.3780
  138ACOH    O2 9998   5.262   3.372   0.524 -0.1202  0.1625 -0.2842
  138ACOH    C2 9999   5.356   3.447   0.584 -0.2781 -0.0550 -0.1533
  138ACOH    O110000   5.370   3.466   0.705  0.0482  0.5062 -0.2684
  138ACOH    C110001   5.437   3.523   0.484 -0.3590 -0.0030 -0.5148
  138ACOH    H110002   5.503   3.445   0.443 -0.6316 -0.2233 -0.5354
  138ACOH    H210003   5.489   3.603   0.536 -0.3227  0.0028 -0.5597
  138ACOH    H310004   5.363   3.552   0.410 -3.2598 -0.3419  2.1432
  139ACOH    H410005   2.180   2.761   2.027  1.2690 -0.3841 -1.1685
  139ACOH    O210006   2.113   2.788   1.961  0.3767  0.0983 -0.0897
  139ACOH    C210007   2.024   2.686   1.941  0.2432 -0.4541 -0.4250
  139ACOH    O110008   2.018   2.577   1.993  0.4656  0.1986 -0.7434
  139ACOH    C110009   1.925   2.732   1.843 -0.1250 -0.3940 -0.2252
  139ACOH    H110010   1.934   2.676   1.751  2.2071 -0.4420 -0.0103
  139ACOH    H210011   1.922   2.836   1.811  0.9602  0.2090  1.5616
  139ACOH    H310012   1.833   2.715   1.899 -0.3897  2.1707  0.1802
  140ACOH    H410013   8.646   3.353   2.122 -1.2501  1.8167  1.5321
  140ACOH    O210014   8.631   3.289   2.193 -0.5948  0.4421  0.4353
  140ACOH    C210015   8.681   3.162   2.165  0.3704  0.2137  0.1066
  140ACOH    O110016   8.745   3.127   2.069  0.3280 -0.2610  0.1712
  140ACOH    C110017   8.626   3.062   2.258  0.1574  0.7113 -0.7966
  140ACOH    H110018   8.692   2.979   2.282  1.6946  2.0248 -0.4324
  140ACOH    H210019   8.524   3.035   2.229 -0.2375  0.7434  0.5094
  140ACOH    H310020   8.601   3.116   2.349  2.3706 -1.3572  1.0988
  141ACOH    H410021   1.194   3.066   0.455 -0.3121  1.8909 -0.7595
  141ACOH    O210022   1.168   3.008   0.382 -0.0203 -0.1583  0.7151
  141ACOH    C210023   1.258   2.974   0.294  0.2162 -0.4400 -0.2249
  141ACOH    O110024   1.373   3.014   0.281 -0.3966 -0.2204  0.2245
  141ACOH    C110025   1.191   2.882   0.196 -0.0110 -0.0338 -0.9199
  141ACOH    H110026   1.238   2.784   0.189  3.6142  1.2480  3.2888
  141ACOH    H210027   1.191   2.929   0.098  1.8459  0.9972 -0.4502
  141ACOH    H310028   1.088   2.871   0.230  0.0913  0.6665 -0.3760
  142ACOH    H410029   5.445   8.629   1.125  1.3995  3.1681 -0.1588
  142ACOH    O210030   5.513   8.591   1.184 -0.3771  0.3182  0.1293
  142ACOH    C210031   5.488   8.602   1.311 -0.9904  0.4271 -0.2228
  142ACOH    O110032   5.385   8.642   1.361 -0.5064 -0.6473 -0.5980
  142ACOH    C110033   5.599   8.538   1.389 -0.3065  0.0685 -0.3697
  142ACOH    H110034   5.613   8.435   1.358 -0.6482  0.2378 -1.0929
  142ACOH    H210035   5.587   8.543   1.497  0.3240  2.0603 -0.3680
  142ACOH    H310036   5.691   8.595   1.377  0.7822 -2.0643 -2.4980
  143ACOH    H410037   5.323   3.959   2.380  0.5156  0.3947 -0.4238
  143ACOH    O210038   5.376   3.895   2.430 -0.1601  0.2940  0.1684
  143ACOH    C210039   5.415   3.956   2.548  0.2064  0.0735 -0.2988
  143ACOH    O110040   5.372   4.059   2.596  0.1005  0.0392  0.1840
  143ACOH    C110041   5.502   3.862   2.623 -0.3922  0.2550 -0.3356
  143ACOH    H110042   5.501   3.897   2.727  0.1601  0.4757 -0.4059
  143ACOH    H210043   5.600   3.866   2.576  0.6859 -0.1462  1.8141
  143ACOH    H310044   5.472   3.758   2.629  1.9999 -0.4501 -0.5162
  144ACOH    H410045   4.985   1.311   1.787 -0.3251 -1.3447  1.2906
  144ACOH    O210046   5.037   1.254   1.727 -0.0102  0.6975 -0.4541
  144ACOH    C210047   4.959   1.172   1.662 -0.1555  0.6744  0.5178
  144ACOH    O110048   4.845   1.141   1.697 -0.5626 -0.3282  0.9245
  144ACOH    C110049   5.041   1.098   1.562  0.0324  0.0655  0.0096
  144ACOH    H110050   5.034   1.143   1.463 -1.4835 -0.5794 -0.1889
  144ACOH    H210051   5.020   0.992   1.552  1.7913 -0.0934 -2.3284
  144ACOH    H310052   5.145   1.107   1.595 -0.9588  0.5715  3.1777
  145ACOH    H410053   0.828   6.981   1.749  0.2624 -1.8475  0.3474
  145ACOH    O210054   0.736   6.956   1.770 -0.3454  0.1005  0.0573
  145ACOH    C210055   0.757   6.862   1.867  0.1608  1.0051  0.0136
  145ACOH    O110056   0.862   6.804   1.884  0.2861  0.0747  0.6927
  145ACOH    C110057   0.629   6.814   1.924 -0.1882  0.1322  0.5949
  145ACOH    H110058   0.641   6.711   1.957 -0.1183 -0.4078 -1.0655
  145ACOH    H210059   0.551   6.815   1.847 -1.6033 -4.1410  1.8222
  145ACOH    H310060   0.611   6.881   2.008 -3.1026 -1.2551  1.1607
  146ACOH    H410061   5.470   2.543   0.624  0.5937  0.9269  0.2778
  146ACOH    O210062   5.548   2.510   0.576 -0.5681 -0.1299 -0.9375
  146ACOH    C210063   5.501   2.423   0.492  0.1861 -0.3031  0.8445
  146ACOH    O110064   5.383   2.392   0.463 -0.0942 -0.0906  0.2775
  146ACOH    C110065   5.611   2.344   0.432  0.4673  0.0644  0.0197
  146ACOH    H110066   5.674   2.414   0.376 -1.3445 -0.4768 -2.8480
  146ACOH    H210067   5.578   2.263   0.366  0.4071  1.0293 -1.1586
  146ACOH    H310068   5.669   2.309   0.517 -0.9462 -0.8772  0.6204
  147ACOH    H410069   8.306   2.004   1.214  2.4123  0.6399  1.4639
  147ACOH    O210070   8.253   2.029   1.291  0.0881 -0.1741  0.1629
  147ACOH    C210071   8.280   1.953   1.397  0.4421 -0.0976 -1.0299
  147ACOH    O110072   8.352   1.853   1.407  0.0238 -0.5830 -0.1227
  147ACOH    C110073   8.232   2.014   1.527  0.0462 -0.1866  0.0043
  147ACOH    H110074   8.285   1.979   1.615  0.1525  1.7912  0.7529
  147ACOH    H210075   8.124   2.005   1.521  0.0832 -0.5038 -0.2218
  147ACOH    H310076   8.261   2.119   1.515 -0.5351 -0.0960 -0.6607
  148ACOH    H410077   1.409   2.805   1.306 -2.2370 -0.5161  2.6486
  148ACOH    O210078   1.353   2.878   1.274 -0.4767 -0.3616 -0.2532
  148ACOH    C210079   1.439   2.979   1.259 -0.0286 -0.0147  0.1549
  148ACOH    O110080   1.557   2.986   1.260  0.8100 -0.0623  0.3073
  148ACOH    C110081   1.359   3.101   1.232  0.1435 -0.0244 -0.6843
  148ACOH    H110082   1.323   3.096   1.129  1.5870  0.1039 -1.2151
  148ACOH    H210083   1.417   3.194   1.234  0.4148 -0.2168  0.5277
  148ACOH    H310084   1.282   3.112   1.309  0.4430  0.2253 -0.4175
  149ACOH    H410085   0.972   9.794   1.335 -1.6988 -1.3471 -0.6846
  149ACOH    O210086   0.928   9.877   1.312  0.7281  0.1340 -0.1863
  149ACOH    C210087   0.842   9.845   1.212 -0.2978  0.1193 -0.2554
  149ACOH    O110088   0.820   9.733   1.170  0.2918 -0.1878  0.4010
  149ACOH    C110089   0.758   9.959   1.161 -0.4440  0.6069 -0.4525
  149ACOH    H110090   0.818  10.037   1.113 -0.2881 -0.7914 -2.5925
  149ACOH    H210091   0.722   9.998   1.256  2.5884  2.2371  0.0975
  149ACOH    H310092   0.675   9.921   1.102 -0.6285  0.7061 -0.2554
  150ACOH    H410093   0.634  10.675   0.237  0.6628  0.1894  1.4946
  150ACOH    O210094   0.682  10.591   0.230  0.0093 -0.0611 -0.0785
  150ACOH    C210095   0.584  10.499   0.230  0.0195 -0.5408  0.3313
  150ACOH    O110096   0.471  10.513   0.267  0.5777 -0.1474  0.1353
  150ACOH    C110097   0.629  10.361   0.217  0.3585  0.0633  0.4838
  150ACOH    H110098   0.694  10.341   0.302  0.8398 -2.8645 -0.5079
  150ACOH    H210099   0.688  10.350   0.126 -0.5510  0.8274 -0.2050
  150ACOH    H310100   0.545  10.292   0.214  1.5254 -1.3578 -0.0587
  151ACOH    H410101   4.655  10.229   2.239  0.3226 -0.5508 -0.0793
  151ACOH    O210102   4.725  10.264   2.181  0.6033  0.1700  0.6798
  151ACOH    C210103   4.734  10.395   2.196 -0.1911 -0.5341 -0.3329
  151ACOH    O110104   4.669  10.471   2.267 -0.1789 -0.0208  0.2249
  151ACOH    C110105   4.856  10.445   2.128 -0.5694 -0.8216  0.9434
  151ACOH    H110106   4.942  10.384   2.155  0.8195 -0.3965 -2.3311
  151ACOH    H210107   4.885  10.542   2.166  0.3977 -0.7360  0.0195
  151ACOH    H310108   4.844  10.437   2.020 -0.2813  1.0429  0.7577
  152ACOH    H410109   4.850   1.544   1.032  1.2482 -0.6424 -2.4184
  152ACOH    O210110   4.924   1.504   1.081  0.2683 -0.0125 -0.4031
  152ACOH    C210111   4.973   1.417   0.994 -0.3582 -0.2273 -0.4139
  152ACOH    O110112   4.941   1.405   0.875  0.5897  0.0483 -0.5202
  152ACOH    C110113   5.075   1.322   1.052  0.1611  0.5319  0.4497
  152ACOH    H110114   5.164   1.298   0.994  0.8984  2.2457  0.8522
  152ACOH    H210115   5.024   1.233   1.087  0.2566  0.5336  0.5943
  152ACOH    H310116   5.099   1.365   1.149  0.7274  2.1613 -0.3906
  153ACOH    H410117   3.918   7.989   0.192 -2.4839  1.4545  0.0343
  153ACOH    O210118   3.876   7.903   0.177  0.1978 -0.0868  0.9516
  153ACOH    C210119   3.751   7.941   0.149 -0.0309  0.9258  0.3342
  153ACOH    O110120   3.713   8.053   0.122 -0.0272  0.6401  0.3592
  153ACOH    C110121   3.661   7.828   0.113  0.4294  0.1114  0.1390
  153ACOH    H110122   3.560   7.865   0.102  0.4168  0.8833  2.4618
  153ACOH    H210123   3.663   7.751   0.191 -2.4653 -0.8798 -0.7238
  153ACOH    H310124   3.698   7.786   0.020 -0.8655  1.2636 -0.8971
  154ACOH    H410125   2.236   4.483   2.647 -2.4264 -2.3201  0.2243
  154ACOH    O210126   2.177   4.560   2.655  0.2670 -0.1605  0.0352
  154ACOH    C210127   2.250   4.659   2.593 -0.2700 -0.1042  0.4045
  154ACOH    O110128   2.365   4.651   2.554  0.1519 -0.5555  0.0605
  154ACOH    C110129   2.161   4.775   2.580  0.0317 -0.2175 -0.7898
  154ACOH    H110130   2.151   4.823   2.482  0.0483 -1.6907 -1.5292
  154ACOH    H210131   2.190   4.844   2.659  0.6409 -0.8738 -0.4362
  154ACOH    H310132   2.059   4.741   2.598  0.7749 -1.8858  0.3866
  155ACOH    H410133   4.065   5.227   1.835  0.3623  0.5962  0.0661
  155ACOH    O210134   4.056   5.133   1.814 -0.4909  0.7842 -0.4268
  155ACOH    C210135   4.063   5.061   1.925  0.5570 -0.5118 -0.8794
  155ACOH    O110136   4.093   5.109   2.035 -0.2622 -0.1307 -0.1648
  155ACOH    C110137   4.032   4.911   1.903  0.4013  0.2651 -0.2692
  155ACOH    H110138   4.120   4.850   1.922  2.1615  1.6247 -3.7012
  155ACOH    H210139   3.992   4.892   1.803  0.1162 -0.9669  0.0699
  155ACOH    H310140   3.964   4.886   1.985 -0.3551 -2.3668 -1.6194
  156ACOH    H410141   4.624   8.467   2.254  1.9937  0.6025  0.3523
  156ACOH    O210142   4.609   8.429   2.342  0.8649  0.4735  0.1074
  156ACOH    C210143   4.541   8.314   2.337  0.8281 -0.0092  0.1959
  156ACOH    O110144   4.485   8.260   2.244  0.6354 -0.7020 -0.0090
  156ACOH    C110145   4.552   8.250   2.469 -0.3199 -0.0119 -0.1487
  156ACOH    H110146   4.515   8.147   2.468 -1.8409  0.5263 -1.8113
  156ACOH    H210147   4.498   8.305   2.546  1.6000  0.7388  0.6989
  156ACOH    H310148   4.656   8.253   2.502 -0.8889 -1.0785  1.8663
  157ACOH    H410149   9.318   3.915   2.330 -0.1789 -0.4799  0.7765
  157ACOH    O210150   9.261   3.990   2.354 -0.1781 -0.2505  0.0594
  157ACOH    C210151   9.237   3.980   2.489 -0.1360 -0.1011  0.7802
  157ACOH    O110152   9.241   3.882   2.556  0.0446  0.6132 -0.1915
  157ACOH    C110153   9.175   4.112   2.534 -0.2865  0.3067 -0.5585
  157ACOH    H110154   9.131   4.110   2.634  1.0468  0.9042  0.0426
  157ACOH    H210155   9.098   4.135   2.460 -0.6219 -0.8529 -0.5843
  157ACOH    H310156   9.255   4.185   2.527  0.6306 -0.5374  0.8560
  158ACOH    H410157   9.312   1.477   2.684 -1.2159 -0.3854 -3.1989
  158ACOH    O210158   9.251   1.412   2.722 -0.1232  0.4502  0.1366
  158ACOH    C210159   9.129   1.447   2.670  0.6856 -0.9028 -0.2317
  158ACOH    O110160   9.103   1.546   2.606  0.1338 -0.4609  0.0228
  158ACOH    C110161   9.016   1.352   2.700  0.0114  0.0005 -0.3902
  158ACOH    H110162   8.926   1.413   2.706 -0.0474  0.2018 -2.9289
  158ACOH    H210163   9.028   1.296   2.793  0.5136  1.2015  0.2772
  158ACOH    H310164   9.013   1.283   2.616  1.1874 -1.8274  1.0301
  159ACOH    H410165   0.904   8.253   1.265  0.8479 -1.0020  0.0177
  159ACOH    O210166   0.892   8.271   1.170  0.3876  0.3917  0.3194
  159ACOH    C210167   1.013   8.298   1.120 -0.6927  0.5328 -0.4902
  159ACOH    O110168   1.105   8.347   1.184 -0.2434 -0.0987 -0.4691
  159ACOH    C110169   1.008   8.281   0.971  0.0368 -0.4024 -0.0500
  159ACOH    H110170   0.919   8.225   0.940  0.2735 -0.4890 -0.5804
  159ACOH    H210171   1.095   8.220   0.944 -0.5341 -1.5403  0.6397
  159ACOH    H310172   1.024   8.373   0.915 -1.0436 -0.0525  0.1975
  160ACOH    H410173   1.849   4.488   2.176  0.8497  0.6056 -1.2897
  160ACOH    O210174   1.921   4.435   2.213 -0.1390 -0.1027 -0.3357
  160ACOH    C210175   1.993   4.513   2.300  0.2758  0.0076  0.2185
  160ACOH    O110176   1.964   4.618   2.349 -0.0435 -0.0571  0.3677
  160ACOH    C110177   2.110   4.436   2.352 -0.1650 -0.7996 -0.0538
  160ACOH    H110178   2.104   4.336   2.310  1.0128 -0.3218 -1.3886
  160ACOH    H210179   2.105   4.415   2.459  1.6855  1.2395  0.4788
  160ACOH    H310180   2.201   4.490   2.325  0.5748 -2.2729 -0.5251
  161ACOH    H410181   3.681   4.439   0.421 -0.8621  2.0224 -0.4810
  161ACOH    O210182   3.606   4.387   0.387  0.2448 -0.2631  0.4822
  161ACOH    C210183   3.582   4.281   0.467  0.6938 -0.3132 -0.5745
  161ACOH    O110184   3.646   4.250   0.565  0.1773 -0.5923  0.7761
  161ACOH    C110185   3.450   4.215   0.444  0.3384  0.2683 -0.7033
  161ACOH    H110186   3.382   4.237   0.527 -0.9468  0.0952 -1.6785
  161ACOH    H210187   3.470   4.108   0.438 -0.1556  0.2793 -3.0120
  161ACOH    H310188   3.405   4.249   0.350 -1.2831 -1.4818 -0.5968
  162ACOH    H410189   9.605   3.293   1.053  0.6222 -0.0555 -0.2734
  162ACOH    O210190   9.566   3.363   0.997 -0.3108 -0.0762  0.3493
  162ACOH    C210191   9.606   3.341   0.872 -0.2211  0.4550 -0.2935
  162ACOH    O110192   9.664   3.246   0.823 -0.1641  0.2474 -0.3423
  162ACOH    C110193   9.575   3.467   0.796  0.4622  0.3370 -0.3373
  162ACOH    H110194   9.504   3.533   0.846  0.0745 -1.0534  1.0001
  162ACOH    H210195   9.530   3.435   0.701  3.4362  0.6738 -1.9305
  162ACOH    H310196   9.665   3.525   0.775  1.5309 -0.9298  0.6943
  163ACOH    H410197   5.143   1.838   1.789  1.9118  0.5058 -0.0705
  163ACOH    O210198   5.191   1.756   1.812  0.5474 -0.2108  0.2736
  163ACOH    C210199   5.125   1.665   1.884 -0.0834  0.4430 -0.5413
  163ACOH    O110200   5.009   1.669   1.924  0.0776 -0.4690 -0.0850
  163ACOH    C110201   5.219   1.554   1.916 -0.6918  1.0195  0.2115
  163ACOH    H110202   5.240   1.496   1.826 -0.5003  1.7941 -0.2487
  163ACOH    H210203   5.171   1.498   1.996  0.2978 -0.8443 -0.4749
  163ACOH    H310204   5.311   1.595   1.959 -1.2933  1.7662  0.8293
  164ACOH    H410205   4.400   1.240   1.252 -0.1025  0.8570 -0.7152
  164ACOH    O210206   4.414   1.336   1.242 -0.2696  0.9668  0.0239
  164ACOH    C210207   4.530   1.384   1.241  0.0703 -0.0877  0.4894
  164ACOH    O110208   4.631   1.345   1.291  0.2056  0.2560 -0.2953
  164ACOH    C110209   4.507   1.525   1.206 -0.3129 -0.3700  0.6795
  164ACOH    H110210   4.588   1.574   1.261 -2.4823  0.2805  3.4309
  164ACOH    H210211   4.415   1.568   1.245  0.5132  1.3344  0.8149
  164ACOH    H310212   4.512   1.540   1.098  0.7805 -2.6226  0.3905
  165ACOH    H410213   8.542   2.827   1.748  0.6293  0.7873 -0.5562
  165ACOH    O210214   8.488   2.889   1.799 -0.3804 -0.3052 -0.2868
  165ACOH    C210215   8.550   3.012   1.803  0.5736  0.0180  0.0310
  165ACOH    O110216   8.657   3.038   1.753  0.4556 -0.0378  0.1202
  165ACOH    C110217   8.459   3.112   1.866  0.3621  0.2157 -0.5562
  165ACOH    H110218   8.465   3.201   1.804  1.8534  0.4747 -0.0648
  165ACOH    H210219   8.499   3.149   1.961  0.3909 -0.0294 -0.4711
  165ACOH    H310220   8.361   3.068   1.886  0.5329 -0.4127 -1.0843
  166ACOH    H410221   4.318  10.129   0.403 -3.0364 -0.2693  0.9452
  166ACOH    O210222   4.331  10.047   0.352  0.2540  0.4290  0.5977
  166ACOH    C210223   4.211   9.989   0.351  0.3933  0.1552 -0.3345
  166ACOH    O110224   4.104  10.034   0.399  0.3523 -0.3406 -0.0431
  166ACOH    C110225   4.228   9.851   0.301  0.1073 -0.6305  0.1978
  166ACOH    H110226   4.217   9.781   0.383  0.7979 -1.8678 -0.7420
  166ACOH    H210227   4.330   9.832   0.266 -0.0656 -0.9678 -0.1282
  166ACOH    H310228   4.152   9.840   0.223 -1.3326  2.9959  0.9573
  167ACOH    H410229   5.326   3.408   1.182  0.6434 -0.9949  1.5667
  167ACOH    O210230   5.343   3.474   1.251  0.6959  0.2630  0.3633
  167ACOH    C210231   5.236   3.498   1.327  0.3063  0.0104 -0.1302
  167ACOH    O110232   5.125   3.457   1.300  0.5409  0.5826  0.5418
  167ACOH    C110233   5.257   3.607   1.431 -0.6975 -0.1375  0.4350
  167ACOH    H110234   5.230   3.570   1.530  1.0742  0.8182  1.3186
  167ACOH    H210235   5.190   3.682   1.389  0.7295  1.2119  0.4886
  167ACOH    H310236   5.361   3.639   1.423 -0.5987 -1.2096 -3.9254
  168ACOH    H410237   0.809   9.907   2.279 -0.5946 -0.9655 -1.9371
  168ACOH    O210238   0.740   9.848   2.314 -0.5195  0.2514  0.3851
  168ACOH    C210239   0.707   9.883   2.433  0.1684  0.0785 -0.1924
  168ACOH    O110240   0.775   9.926   2.522  0.0797 -0.3421 -0.1529
  168ACOH    C110241   0.576   9.832   2.476 -0.6013  0.3741  0.6081
  168ACOH    H110242   0.525   9.886   2.556 -2.3615 -1.4876  0.7789
  168ACOH    H210243   0.584   9.732   2.519 -1.7979  0.7286  1.6951
  168ACOH    H310244   0.512   9.835   2.388 -1.0429  3.9418  0.9730
  169ACOH    H410245   3.341   7.326   1.123  0.4422 -2.0890  1.8721
  169ACOH    O210246   3.362   7.282   1.039 -0.1187  0.1395  0.5505
  169ACOH    C210247   3.282   7.171   1.031  0.0271 -0.0538 -0.1881
  169ACOH    O110248   3.201   7.124   1.112 -0.3508  0.2964  0.0734
  169ACOH    C110249   3.300   7.119   0.892  0.3777 -0.3778 -0.0238
  169ACOH    H110250   3.327   7.013   0.891 -0.6911 -0.6992  2.2047
  169ACOH    H210251   3.372   7.172   0.829  1.2258 -2.6029 -0.9698
  169ACOH    H310252   3.202   7.138   0.848 -0.2065 -0.6454  1.1419
  170ACOH    H410253   4.842   0.997   2.089  2.6447  0.2810 -2.5698
  170ACOH    O210254   4.901   0.964   2.159  0.0689  0.3529 -0.2747
  170ACOH    C210255   4.882   0.833   2.176  0.1623 -0.1964 -0.6129
  170ACOH    O110256   4.796   0.772   2.114  0.6635  0.3331  0.2810
  170ACOH    C110257   4.962   0.768   2.288 -0.3024  0.0026  0.8885
  170ACOH    H110258   5.013   0.678   2.253 -3.6906 -1.8801  0.5749
  170ACOH    H210259   4.906   0.747   2.379  1.3363 -0.4083  1.8043
  170ACOH    H310260   5.038   0.844   2.305  0.5383 -0.3974 -0.9284
  171ACOH    H410261   3.778   5.817   1.996  0.7935  0.1354 -0.5598
  171ACOH    O210262   3.756   5.887   2.059  0.3666 -0.0983 -0.4445
  171ACOH    C210263   3.629   5.917   2.059  0.0646 -0.5314 -0.1526
  171ACOH    O110264   3.544   5.892   1.974 -0.9212 -0.4549  0.2315
  171ACOH    C110265   3.591   5.986   2.187 -0.6501  0.1203 -0.0262
  171ACOH    H110266   3.578   5.910   2.264  2.3648  0.7478  1.1371
  171ACOH    H210267   3.507   6.053   2.167  1.0334  2.2590 -0.0732
  171ACOH    H310268   3.673   6.053   2.210  0.2955 -0.5627 -1.3260
  172ACOH    H410269   9.080   4.505   1.005 -1.4599  0.7310  1.0465
  172ACOH    O210270   9.032   4.423   1.022  0.0413 -0.4320 -0.1772
  172ACOH    C210271   9.031   4.422   1.158  0.2325 -0.0085  1.0016
  172ACOH    O110272   9.072   4.511   1.231 -0.2441 -0.4291 -0.3988
  172ACOH    C110273   8.953   4.310   1.214  0.5137 -0.0067 -0.7297
  172ACOH    H110274   8.915   4.329   1.315  2.9225  0.1065  0.2103
  172ACOH    H210275   9.016   4.222   1.208  0.6301  0.1247 -1.3980
  172ACOH    H310276   8.868   4.285   1.152  1.2034 -3.4255 -0.3938
  173ACOH    H410277   4.325  10.190   2.395 -1.5186 -0.1364  0.0330
  173ACOH    O210278   4.319  10.094   2.377  0.0312 -0.1657 -0.4125
  173ACOH    C210279   4.440  10.053   2.343  0.1334  0.2213 -0.0523
  173ACOH    O110280   4.537  10.127   2.335 -0.0741 -0.1615  0.1137
  173ACOH    C110281   4.448   9.908   2.323 -0.3230  0.4978  0.2274
  173ACOH    H110282   4.547   9.866   2.342  0.2568  1.1456 -1.3063
  173ACOH    H210283   4.422   9.881   2.221  0.5403  1.4023 -0.2423
  173ACOH    H310284   4.383   9.873   2.403  0.3656  0.2178  0.6769
  174ACOH    H410285   8.932   4.868   0.101 -0.4802 -1.0830 -0.4444
  174ACOH    O210286   8.846   4.878   0.146 -0.1209  0.2731 -0.0671
  174ACOH    C210287   8.866   4.839   0.272  0.8482  0.0453  0.8453
  174ACOH    O110288   8.920   4.733   0.302 -0.2940  0.4834  0.0296
  174ACOH    C110289   8.763   4.910   0.356 -0.3564  0.3293  0.6454
  174ACOH    H110290   8.659   4.886   0.333 -0.9476  2.8625  0.5108
  174ACOH    H210291   8.769   5.019   0.360  2.0579  0.2347  0.4462
  174ACOH    H310292   8.791   4.879   0.456 -2.9711 -1.1700  0.9599
  175ACOH    H410293   4.513   1.431   0.566 -0.3696  0.9799 -1.9233
  175ACOH    O210294   4.448   1.372   0.525  0.1451 -0.8065 -0.2096
  175ACOH    C210295   4.427   1.424   0.402  0.6998 -0.0619 -0.5672
  175ACOH    O110296   4.492   1.516   0.354  0.0755  0.4307  0.2980
  175ACOH    C110297   4.317   1.362   0.321  0.4576 -0.2783 -0.0250
  175ACOH    H110298   4.327   1.403   0.221  0.3747  0.3804  0.2385
  175ACOH    H210299   4.226   1.392   0.372 -0.0508 -2.1900  0.2224
  175ACOH    H310300   4.329   1.253   0.325 -1.6193 -0.5393 -0.6559
  176ACOH    H410301   4.976   2.236   2.670  0.7393 -1.5230 -0.5349
  176ACOH    O210302   5.048   2.301   2.677 -0.7235  0.0642 -0.0127
  176ACOH    C210303   5.167   2.246   2.650  0.2703 -0.0028 -0.7948
  176ACOH    O110304   5.188   2.133   2.689  0.3240  0.0865 -0.0163
  176ACOH    C110305   5.283   2.333   2.611  0.5343  0.1957 -0.1852
  176ACOH    H110306   5.327   2.301   2.517 -0.0834 -4.5033  1.0062
  176ACOH    H210307   5.355   2.335   2.693  0.7536  0.2132 -0.3792
  176ACOH    H310308   5.241   2.431   2.586 -0.5761 -0.2971 -0.3013
  177ACOH    H410309   5.588   3.528   1.660 -0.3502  1.3892  1.2866
  177ACOH    O210310   5.675   3.570   1.672  0.2939  0.4397  0.1162
  177ACOH    C210311   5.737   3.564   1.549 -0.1417 -0.0038  0.2638
  177ACOH    O110312   5.680   3.543   1.447 -0.8603  0.3534 -0.6817
  177ACOH    C110313   5.880   3.593   1.534 -1.4162 -0.3390  0.2388
  177ACOH    H110314   5.921   3.520   1.464 -1.8528  0.9641 -1.4069
  177ACOH    H210315   5.935   3.568   1.625 -1.7247 -2.6144 -0.1675
  177ACOH    H310316   5.888   3.698   1.504  0.2403 -0.2669  0.8875
  178ACOH    H410317   4.705   0.856   0.761  2.6508  0.0762  1.1936
  178ACOH    O210318   4.749   0.839   0.676 -0.1119  0.4879 -0.3990
  178ACOH    C210319   4.673   0.861   0.567 -0.0973 -0.1327  0.3529
  178ACOH    O110320   4.573   0.934   0.570 -0.5562 -0.3184  0.4893
  178ACOH    C110321   4.713   0.796   0.435 -0.0143  0.1614  0.4448
  178ACOH    H110322   4.719   0.864   0.350 -2.0129 -1.0451 -0.7118
  178ACOH    H210323   4.638   0.721   0.412 -1.4657  1.3686  1.1458
  178ACOH    H310324   4.814   0.757   0.447 -0.0008 -0.3635 -1.3250
  179ACOH    H410325   0.721  10.144   0.918  0.2947 -1.4095  1.1819
  179ACOH    O210326   0.626  10.142   0.936 -0.0499 -0.3147 -0.4412
  179ACOH    C210327   0.575  10.187   0.815 -0.1817  0.1238 -0.1364
  179ACOH    O110328   0.620  10.255   0.724  1.1164 -0.6392 -0.2675
  179ACOH    C110329   0.429  10.164   0.839 -0.8823 -0.1127  0.4107
  179ACOH    H110330   0.369  10.221   0.768 -0.4900  1.8236  1.6114
  179ACOH    H210331   0.403  10.200   0.938  0.6217 -0.9067  1.1054
  179ACOH    H310332   0.407  10.057   0.843  0.9828 -0.4345  2.8172
  180ACOH    H410333   4.465   9.633   1.483  1.2222 -0.5445 -1.1339
  180ACOH    O210334   4.435   9.693   1.412  0.3976  0.1665 -0.2084
  180ACOH    C210335   4.342   9.632   1.337 -0.2964 -0.5220  0.5764
  180ACOH    O110336   4.316   9.517   1.340  0.4401  0.2438 -0.2631
  180ACOH    C110337   4.274   9.724   1.245  0.8306  0.2524 -0.6527
  180ACOH    H110338   4.176   9.682   1.222  0.2644  1.4270 -0.4033
  180ACOH    H210339   4.342   9.717   1.160  0.2311 -1.2283 -1.0337
  180ACOH    H310340   4.260   9.828   1.274  0.7307  0.3337 -0.9862
  181ACOH    H410341   8.177   2.629   0.727  0.2586  0.4306  0.8778
  181ACOH    O210342   8.137   2.556   0.778 -0.7325  0.6128  0.3881
  181ACOH    C210343   8.174   2.441   0.712 -0.3240 -0.0713  0.0113
  181ACOH    O110344   8.262   2.432   0.627  0.3389 -0.8849  0.1703
  181ACOH    C110345   8.105   2.318   0.761  0.0330  0.3078  0.1801
  181ACOH    H110346   8.180   2.241   0.780  0.4676  1.1154  1.8960
  181ACOH    H210347   8.027   2.281   0.695 -1.5021 -0.4588  2.3461
  181ACOH    H310348   8.057   2.333   0.858 -2.3449  1.1825 -1.1082
  182ACOH    H410349   4.326  10.416   2.389 -0.4028 -0.7910  0.2528
  182ACOH    O210350   4.354  10.348   2.452 -0.1429 -0.1675  0.8237
  182ACOH    C210351   4.398  10.415   2.561 -0.4453  0.5521 -0.2696
  182ACOH    O110352   4.415  10.537   2.565 -0.8781 -0.3701  0.0595
  182ACOH    C110353   4.452  10.324   2.668  0.2615 -0.1077 -0.4296
  182ACOH    H110354   4.535  10.266   2.627 -0.8024 -0.4979 -2.0784
  182ACOH    H210355   4.379  10.250   2.701  1.2565 -1.1525 -0.5129
  182ACOH    H310356   4.469  10.375   2.763  1.3917  0.6337 -1.0322
  183ACOH    H410357   4.212   9.515   0.449  0.0440  0.0736 -0.2769
  183ACOH    O210358   4.299   9.491   0.487 -0.0143 -0.2638 -0.3625
  183ACOH    C210359   4.317   9.565   0.598 -0.2905  0.7206  0.4696
  183ACOH    O110360   4.251   9.660   0.634 -0.4097 -0.6740  0.0175
  183ACOH    C110361   4.426   9.513   0.687  0.3168  0.0548 -0.3347
  183ACOH    H110362   4.471   9.586   0.753 -4.2573  2.5307  0.1786
  183ACOH    H210363   4.499   9.474   0.615  1.2800 -0.4057  0.8807
  183ACOH    H310364   4.386   9.430   0.746 -1.3328  0.8265 -0.3509
  184ACOH    H410365   4.450   5.038   1.556 -4.7283 -1.9097  0.6423
  184ACOH    O210366   4.432   5.131   1.579  0.5556 -0.4312 -0.5223
  184ACOH    C210367   4.402   5.125   1.710  0.8825  0.0772  0.5160
  184ACOH    O110368   4.394   5.024   1.778 -0.0435  0.0644  0.5716
  184ACOH    C110369   4.376   5.259   1.755  0.3293 -0.1875  0.2157
  184ACOH    H110370   4.472   5.307   1.738  0.9377 -0.5676  2.4906
  184ACOH    H210371   4.347   5.286   1.856  1.5220  2.0251 -0.0046
  184ACOH    H310372   4.304   5.313   1.693  1.0579  0.2832 -0.2261
  185ACOH    H410373   5.300   4.136   0.792  2.1888 -2.2879 -0.4518
  185ACOH    O210374   5.374   4.199   0.788 -0.0301  0.3794 -0.5100
  185ACOH    C210375   5.330   4.328   0.776 -0.5523  0.3650 -0.7785
  185ACOH    O110376   5.219   4.369   0.762  0.3254 -0.0719 -0.1454
  185ACOH    C110377   5.440   4.419   0.759 -0.2655 -0.4598  0.1992
  185ACOH    H110378   5.533   4.381   0.802  0.6214  0.6140 -0.7131
  185ACOH    H210379   5.425   4.510   0.817 -0.8331 -0.3400 -0.1254
  185ACOH    H310380   5.461   4.452   0.657 -0.8900  5.6492  1.8698
  186ACOH    H410381   3.022   6.333   2.158  0.5022 -0.9681  1.0459
  186ACOH    O210382   3.053   6.262   2.100 -0.4975 -0.1635 -0.4962
  186ACOH    C210383   3.174   6.229   2.139  0.2348  0.4925 -0.4106
  186ACOH    O110384   3.253   6.165   2.070  0.0816  0.3336  0.0876
  186ACOH    C110385   3.224   6.302   2.255 -0.3806 -0.3476  0.4593
  186ACOH    H110386   3.154   6.287   2.337  0.0285 -1.9510  0.5263
  186ACOH    H210387   3.224   6.409   2.235 -3.9789 -0.0404  1.9030
  186ACOH    H310388   3.324   6.273   2.289 -0.8584 -0.8399  1.4526
  187ACOH    H410389   3.512   5.902   0.253 -1.1587 -0.2240 -0.7259
  187ACOH    O210390   3.474   5.966   0.315 -0.1717 -0.4853  0.1554
  187ACOH    C210391   3.435   6.070   0.246 -0.4167 -0.2009  0.0545
  187ACOH    O110392   3.424   6.082   0.129  0.6322  0.1280 -0.1194
  187ACOH    C110393   3.431   6.183   0.342  0.9262 -0.1418 -0.3858
  187ACOH    H110394   3.349   6.177   0.414  0.7543 -1.4513 -0.6837
  187ACOH    H210395   3.418   6.273   0.282  1.8319 -0.0219 -0.4111
  187ACOH    H310396   3.532   6.190   0.383  0.1499 -1.0765  1.7393
  188ACOH    H410397   5.243   3.371   2.435  1.3359 -1.5647 -1.3507
  188ACOH    O210398   5.298   3.448   2.416  0.1882 -0.5094 -0.4857
  188ACOH    C210399   5.428   3.414   2.425 -0.1700 -0.1589 -0.4304
  188ACOH    O110400   5.476   3.311   2.459 -0.1718  0.0342 -0.0668
  188ACOH    C110401   5.515   3.534   2.419 -0.5623 -0.2696  0.1670
  188ACOH    H110402   5.605   3.523   2.479 -1.1139  0.0099  1.0482
  188ACOH    H210403   5.459   3.626   2.437 -0.8752 -0.1730 -1.2165
  188ACOH    H310404   5.545   3.542   2.314 -1.0866  1.0452  0.1041
  189ACOH    H410405   9.955   3.149   0.437  0.2064 -0.1055  0.2210
  189ACOH    O210406   9.966   3.194   0.352 -0.7845 -0.6087 -0.1912
  189ACOH    C210407   9.871   3.290   0.335 -0.0608 -0.3808  0.6987
  189ACOH    O110408   9.811   3.346   0.427  0.2617  0.3622 -0.1737
  189ACOH    C110409   9.862   3.339   0.196 -0.3281 -0.8834  0.2894
  189ACOH    H110410   9.900   3.275   0.117  1.3343 -1.3943  1.4808
  189ACOH    H210411   9.928   3.426   0.196 -1.8386  0.3080  2.0851
  189ACOH    H310412   9.760   3.364   0.167  0.5576 -0.1576 -2.2787
  190ACOH    H410413   4.537   4.921   0.745 -0.0050  1.0793  0.6059
  190ACOH    O210414   4.605   4.945   0.680  0.0863  0.2587  0.3927
  190ACOH    C210415   4.572   5.080   0.661 -0.1050  0.3997  0.2640
  190ACOH    O110416   4.505   5.148   0.736 -0.6138 -0.1101 -0.0139
  190ACOH    C110417   4.648   5.145   0.545 -0.2188  0.2035 -0.5314
  190ACOH    H110418   4.756   5.137   0.552 -0.3805 -2.4734 -0.7616
  190ACOH    H210419   4.620   5.250   0.530 -0.7940 -0.0278 -1.0940
  190ACOH    H310420   4.621   5.078   0.464 -0.0687 -1.2253  0.5808
  191ACOH    H410421   3.845   4.513   2.535 -3.3821  0.3388  0.1110
  191ACOH    O210422   3.837   4.591   2.477  0.2429  0.5801 -0.2286
  191ACOH    C210423   3.927   4.570   2.380  0.2826  0.2918 -0.1480
  191ACOH    O110424   4.020   4.495   2.393  0.0334  0.0320  0.1390
  191ACOH    C110425   3.911   4.652   2.259  0.0519  0.0337  0.4122
  191ACOH    H110426   3.808   4.687   2.255  0.3134  0.9883  1.5818
  191ACOH    H210427   3.908   4.581   2.176 -0.6392  0.5154  0.0222
  191ACOH    H310428   3.978   4.734   2.236  1.9909 -0.6573  3.3438
  192ACOH    H410429   3.140   6.594   0.291 -2.2778  0.0965  0.9358
  192ACOH    O210430   3.174   6.674   0.335 -0.5892  0.2124 -0.5309
  192ACOH    C210431   3.294   6.690   0.278 -0.4907 -1.2205  0.1847
  192ACOH    O110432   3.364   6.614   0.211  0.5476 -0.2690 -0.0320
  192ACOH    C110433   3.353   6.822   0.314  0.0585  0.4297  0.3184
  192ACOH    H110434   3.312   6.856   0.409 -2.1739  1.0875 -0.8432
  192ACOH    H210435   3.325   6.886   0.231  0.8473  1.3057  0.7154
  192ACOH    H310436   3.461   6.831   0.314  0.1359 -0.3746 -0.9688
  193ACOH    H410437   3.766   2.005   2.195 -0.1364 -1.1098  0.3400
  193ACOH    O210438   3.769   2.088   2.246 -0.2701 -0.7270 -0.2718
  193ACOH    C210439   3.815   2.172   2.146  0.8331  0.1559 -0.3955
  193ACOH    O110440   3.879   2.138   2.047  0.1257 -0.7152  0.4132
  193ACOH    C110441   3.834   2.304   2.215  0.7557  0.5283 -0.0763
  193ACOH    H110442   3.888   2.370   2.147 -0.9368  0.3711 -1.6176
  193ACOH    H210443   3.884   2.295   2.311 -0.5991 -0.6551  0.5370
  193ACOH    H310444   3.738   2.351   2.234  0.5088 -0.2790  0.6745
  194ACOH    H410445   4.826   4.935   0.983  1.1657  0.3143  0.8445
  194ACOH    O210446   4.777   4.990   1.047 -0.6639 -0.2784 -0.0158
  194ACOH    C210447   4.770   5.107   0.978 -0.2699  0.7631  0.9836
  194ACOH    O110448   4.804   5.119   0.861  0.1766  0.0632  0.3309
  194ACOH    C110449   4.681   5.208   1.042  0.6173  0.1292  0.1246
  194ACOH    H110450   4.696   5.206   1.150  0.3425 -0.0682  0.1618
  194ACOH    H210451   4.581   5.179   1.011  1.5572 -0.2900 -2.6482
  194ACOH    H310452   4.710   5.305   1.003 -1.7774  0.6387 -0.4359
  195ACOH    H410453   4.493   5.349   0.219 -0.8449  1.2668  0.0566
  195ACOH    O210454   4.579   5.364   0.261 -0.5786 -0.0024 -0.0258
  195ACOH    C210455   4.658   5.256   0.241  0.8460 -0.2439  0.1525
  195ACOH    O110456   4.627   5.147   0.210  0.3966  0.0361  0.1116
  195ACOH    C110457   4.794   5.290   0.283  0.0322 -0.4304  0.3739
  195ACOH    H110458   4.831   5.387   0.251  2.6898 -1.7277 -0.6857
  195ACOH    H210459   4.863   5.220   0.236  0.3851  0.4299 -0.3970
  195ACOH    H310460   4.799   5.291   0.392 -1.1458  1.1659  0.4196
  196ACOH    H410461   5.226   4.048   1.823  0.6022  0.0616  2.5317
  196ACOH    O210462   5.287   3.972   1.826  0.9358  0.1969  0.2435
  196ACOH    C210463   5.220   3.872   1.771  0.0900 -0.0732  0.8009
  196ACOH    O110464   5.104   3.868   1.747  0.1536  0.3365 -0.9280
  196ACOH    C110465   5.308   3.765   1.736  0.9216 -0.1095 -0.0981
  196ACOH    H110466   5.264   3.673   1.772  0.1571  0.9937  1.8217
  196ACOH    H210467   5.407   3.776   1.779  1.2961 -2.8208 -0.1972
  196ACOH    H310468   5.319   3.765   1.627  0.5967 -1.7838 -0.1390
  197ACOH    H410469   9.291   5.146   0.836  0.1360  0.5225 -0.7024
  197ACOH    O210470   9.194   5.158   0.837  0.0771  0.0626 -0.2938
  197ACOH    C210471   9.151   5.188   0.708  0.2604 -0.2457  0.4916
  197ACOH    O110472   9.217   5.240   0.617 -0.3622  0.3338  0.3955
  197ACOH    C110473   9.006   5.170   0.701  0.3485 -0.5080  0.0673
  197ACOH    H110474   8.960   5.222   0.785 -1.4840  0.7734 -1.6749
  197ACOH    H210475   8.992   5.062   0.708 -1.4831 -0.2761  0.2580
  197ACOH    H310476   8.959   5.211   0.611  0.2226  0.0372  0.3817
  198ACOH    H410477   3.229   7.552   1.839  0.0969  1.6546  0.1804
  198ACOH    O210478   3.326   7.547   1.834  0.0065 -0.2971 -0.0029
  198ACOH    C210479   3.331   7.580   1.703 -0.9492  0.0127  0.1656
  198ACOH    O110480   3.250   7.643   1.637  0.2984  0.4834  0.4950
  198ACOH    C110481   3.473   7.570   1.660 -0.2778 -0.7269 -0.2022
  198ACOH    H110482   3.528   7.663   1.644 -0.1442 -0.6181  0.8486
  198ACOH    H210483   3.484   7.492   1.585 -2.4434 -0.1535 -1.1597
  198ACOH    H310484   3.529   7.532   1.745  0.6704 -2.8139 -1.7105
  199ACOH    H410485   3.960   2.412   1.348  1.9253 -1.4593  0.4392
  199ACOH    O210486   3.913   2.356   1.284  0.1066  0.3747  0.1264
  199ACOH    C210487   4.010   2.297   1.202 -0.0154  0.1743  0.1749
  199ACOH    O110488   4.115   2.339   1.159 -0.4257  0.0283 -0.0875
  199ACOH    C110489   3.948   2.183   1.133 -0.5717 -0.3378  0.0094
  199ACOH    H110490   3.855   2.224   1.092 -1.3775 -1.9650  0.1683
  199ACOH    H210491   3.939   2.099   1.202 -0.9469 -1.2408 -1.1355
  199ACOH    H310492   4.009   2.151   1.049  0.3835  1.3661  0.0213
  200ACOH    H410493   5.610   2.821   1.423 -2.5396 -1.8173 -2.7004
  200ACOH    O210494   5.633   2.734   1.459 -0.1818  0.1412  0.8458
  200ACOH    C210495   5.517   2.668   1.464  0.5300  0.3493  0.0454
  200ACOH    O110496   5.419   2.673   1.393 -0.3421 -0.3085 -0.0522
  200ACOH    C110497   5.532   2.555   1.568  0.3295  0.2376  0.1700
  200ACOH    H110498   5.569   2.603   1.659 -0.4859 -0.3842  0.8333
  200ACOH    H210499   5.603   2.478   1.539 -0.9228 -1.4888  1.5511
  200ACOH    H310500   5.430   2.520   1.586  0.2100  0.0272 -0.9208
  201ACOH    H410501   4.147   5.528   1.550 -1.1014 -0.2894  0.0262
  201ACOH    O210502   4.123   5.617   1.579  0.2558  0.1436 -0.1489
  201ACOH    C210503   4.207   5.659   1.672 -0.3081  0.7941  0.3253
  201ACOH    O110504   4.249   5.581   1.759 -0.2880 -0.1181  0.6632
  201ACOH    C110505   4.219   5.809   1.682 -0.2466 -0.1867  0.8206
  201ACOH    H110506   4.324   5.833   1.699  0.1169 -1.0662 -0.1630
  201ACOH    H210507   4.159   5.844   1.766 -0.1316 -2.9836  2.1368
  201ACOH    H310508   4.187   5.849   1.586 -0.5885 -1.0081  0.5874
  202ACOH    H410509   5.565   4.131   0.380 -0.7508  0.1845 -1.7317
  202ACOH    O210510   5.647   4.081   0.365 -0.2653  0.5173 -0.2649
  202ACOH    C210511   5.742   4.111   0.453 -0.6452  0.0755 -0.1773
  202ACOH    O110512   5.726   4.184   0.550  0.1048  0.1260  0.2851
  202ACOH    C110513   5.861   4.028   0.430  0.1676  0.0268  0.4054
  202ACOH    H110514   5.879   3.982   0.527 -0.5072  1.7066  1.3416
  202ACOH    H210515   5.948   4.086   0.398 -0.4412  1.0020  0.5123
  202ACOH    H310516   5.841   3.946   0.360  0.6528 -0.4038  0.7631
  203ACOH    H410517   8.961   1.490   1.816  1.4414  3.4555  1.0434
  203ACOH    O210518   8.877   1.530   1.787 -0.1565 -0.1026  0.4421
  203ACOH    C210519   8.844   1.618   1.877  0.2736  0.0257 -0.2229
  203ACOH    O110520   8.923   1.665   1.958  0.3004 -0.5930  0.6229
  203ACOH    C110521   8.713   1.676   1.845 -0.8661  0.3041 -0.0226
  203ACOH    H110522   8.711   1.712   1.742 -0.7186 -1.9933 -0.8403
  203ACOH    H210523   8.702   1.759   1.915  1.6274  1.2404 -0.7060
  203ACOH    H310524   8.645   1.591   1.855  1.1383 -1.2720  0.4093
  204ACOH    H410525   4.304   8.552   1.028  0.2398  0.5368  1.3235
  204ACOH    O210526   4.318   8.471   1.079  0.7054 -0.2129  0.0505
  204ACOH    C210527   4.411   8.408   1.008 -0.5357 -0.0404 -0.3130
  204ACOH    O110528   4.522   8.456   0.994  0.0649  0.1585 -0.4533
  204ACOH    C110529   4.388   8.263   1.028 -0.3061 -0.6712  0.3744
  204ACOH    H110530   4.431   8.241   1.125 -0.3125 -3.1581 -0.1385
  204ACOH    H210531   4.435   8.213   0.943  2.0473  1.4286  0.3860
  204ACOH    H310532   4.284   8.228   1.028 -0.3765 -0.4710 -0.5073
  205ACOH    H410533   3.759   5.603   2.306  2.2071 -1.5622 -0.0500
  205ACOH    O210534   3.819   5.671   2.269  0.1955  0.0678 -0.4011
  205ACOH    C210535   3.904   5.708   2.363  0.1329 -0.0573 -0.0969
  205ACOH    O110536   3.917   5.654   2.468  0.1606  0.2534 -0.0077
  205ACOH    C110537   3.978   5.828   2.328  0.2227  0.4256 -0.2704
  205ACOH    H110538   3.936   5.907   2.390 -2.5376 -1.1459 -0.0537
  205ACOH    H210539   3.964   5.851   2.222  0.3839  0.6810 -0.2363
  205ACOH    H310540   4.086   5.819   2.343  0.2655  0.8045 -0.3252
  206ACOH    H410541   9.272   5.217   1.541  0.4356  0.1130  3.0077
  206ACOH    O210542   9.268   5.127   1.577  0.3370 -0.8529  0.6919
  206ACOH    C210543   9.180   5.066   1.499 -0.8900  0.0943  0.3594
  206ACOH    O110544   9.131   5.090   1.393  0.0739  0.0700 -0.0942
  206ACOH    C110545   9.153   4.940   1.564  0.1210 -0.4114 -0.9565
  206ACOH    H110546   9.245   4.900   1.607 -0.5138  0.8848  1.7286
  206ACOH    H210547   9.105   4.869   1.497 -0.7994 -0.4441 -0.2603
  206ACOH    H310548   9.083   4.954   1.646  0.6352 -0.0261 -0.5757
  207ACOH    H410549   2.175   5.651   0.654  2.1672 -0.1403 -1.0167
  207ACOH    O210550   2.141   5.580   0.596  0.6413 -0.0806 -0.1940
  207ACOH    C210551   2.168   5.629   0.475  1.1454 -0.4266 -0.1427
  207ACOH    O110552   2.177   5.749   0.451 -0.8682  0.1186  0.1248
  207ACOH    C110553   2.133   5.536   0.371 -0.3329 -0.9073 -0.3359
  207ACOH    H110554   2.196   5.450   0.395  1.5930  0.1136 -1.6052
  207ACOH    H210555   2.147   5.571   0.269  0.2910  1.1674  0.4311
  207ACOH    H310556   2.029   5.506   0.378  0.0856 -2.4545 -0.4781
  208ACOH    H410557   1.472   3.067   0.427 -0.3983 -0.5380  0.2977
  208ACOH    O210558   1.536   3.076   0.500  0.1849 -0.0805 -0.2674
  208ACOH    C210559   1.502   2.981   0.593  0.2510 -0.2568 -0.8233
  208ACOH    O110560   1.418   2.898   0.589  0.5072  0.0691  0.4746
  208ACOH    C110561   1.600   2.987   0.702  0.1275 -0.3009  0.2894
  208ACOH    H110562   1.549   3.013   0.794 -0.0055  0.9113 -0.1165
  208ACOH    H210563   1.676   3.062   0.679  0.1557 -0.1562  0.8415
  208ACOH    H310564   1.642   2.888   0.717  0.9160  0.1030  0.8281
  209ACOH    H410565   2.856   4.817   0.397 -1.8883  0.2120 -4.4586
  209ACOH    O210566   2.773   4.824   0.447  0.5972  0.0996 -0.0878
  209ACOH    C210567   2.736   4.956   0.449 -0.5021  0.2196  0.2718
  209ACOH    O110568   2.811   5.052   0.434  0.0840  0.3026  0.1228
  209ACOH    C110569   2.597   4.975   0.495 -0.0521  0.9978  1.0598
  209ACOH    H110570   2.585   4.914   0.585  0.3781 -0.7217 -0.0407
  209ACOH    H210571   2.528   4.935   0.421  1.1892 -2.4343  1.6858
  209ACOH    H310572   2.575   5.081   0.509 -3.4590  0.6867 -1.1961
  210ACOH    H410573  10.397   0.724   2.316 -0.4998  2.5596 -0.6827
  210ACOH    O210574  10.376   0.736   2.410  0.1744 -0.5004 -0.0807
  210ACOH    C210575  10.245   0.749   2.428 -0.1866 -1.3012  0.5541
  210ACOH    O110576  10.159   0.719   2.348  0.0827 -0.0441  0.0136
  210ACOH    C110577  10.213   0.791   2.568 -0.7010  0.5716 -0.0015
  210ACOH    H110578  10.238   0.709   2.635  1.1061  1.0624 -0.0588
  210ACOH    H210579  10.105   0.808   2.570 -0.6822  1.0719 -2.2712
  210ACOH    H310580  10.262   0.880   2.608 -0.6565  0.9732 -0.9305
  211ACOH    H410581   1.147  10.103   1.801  0.8189 -2.0860 -0.8416
  211ACOH    O210582   1.059  10.082   1.765 -0.1331 -0.3872  0.4452
  211ACOH    C210583   1.052  10.121   1.641 -0.2529 -0.9477  0.4940
  211ACOH    O110584   1.146  10.135   1.562 -0.1072 -0.2367 -0.0155
  211ACOH    C110585   0.918  10.085   1.590  0.5925 -0.0732 -0.4257
  211ACOH    H110586   0.888  10.159   1.516  0.7694  0.8204  0.3784
  211ACOH    H210587   0.840  10.076   1.666  0.9172 -0.6907 -0.1621
  211ACOH    H310588   0.922   9.989   1.539 -0.1460  0.5554 -1.6810
  212ACOH    H410589   4.061   7.635   0.635  2.0201  0.3376 -0.8133
  212ACOH    O210590   4.093   7.544   0.621 -0.0835 -0.4700 -0.4797
  212ACOH    C210591   4.023   7.471   0.713  0.2216  0.4946 -0.5150
  212ACOH    O110592   3.916   7.492   0.770 -0.1086  0.2207  0.7125
  212ACOH    C110593   4.077   7.332   0.730 -0.3589  0.7396  0.0921
  212ACOH    H110594   4.043   7.285   0.822  0.8697  0.5160  0.4385
  212ACOH    H210595   4.184   7.336   0.747 -0.4963  0.2635  1.0671
  212ACOH    H310596   4.057   7.271   0.642  1.3293  0.5438 -0.1538
  213ACOH    H410597   3.752   4.923   1.297 -1.8363 -0.4921 -3.5926
  213ACOH    O210598   3.815   4.992   1.270  0.4802 -0.7526  0.5871
  213ACOH    C210599   3.787   5.022   1.139  0.3637  0.2152 -0.5315
  213ACOH    O110600   3.701   4.960   1.083 -0.1091  0.0175 -0.1617
  213ACOH    C110601   3.890   5.107   1.076 -0.3490 -0.1813  0.3669
  213ACOH    H110602   3.887   5.210   1.110 -1.3830 -0.1413  0.1551
  213ACOH    H210603   3.876   5.117   0.969  0.4598 -0.2187  0.2517
  213ACOH    H310604   3.987   5.059   1.092 -1.1606 -1.3978  1.8244
  214ACOH    H410605   8.543   2.252   1.446 -0.4618 -0.3011 -1.1280
  214ACOH    O210606   8.513   2.190   1.515 -0.0550  0.7817  0.0526
  214ACOH    C210607   8.568   2.218   1.635 -0.5769 -0.2120  0.2022
  214ACOH    O110608   8.651   2.308   1.651  0.7612 -0.3061 -0.3768
  214ACOH    C110609   8.539   2.108   1.734 -0.2495  0.8909 -0.1901
  214ACOH    H110610   8.441   2.125   1.777 -0.3168 -0.9692  0.4349
  214ACOH    H210611   8.610   2.119   1.817  1.4643  2.4369 -1.8132
  214ACOH    H310612   8.549   2.006   1.697  1.6745  0.3207  1.7549
  215ACOH    H410613   5.202   8.768   1.270  0.0138  0.2693  0.6147
  215ACOH    O210614   5.159   8.828   1.206  0.4860 -0.1275 -0.0850
  215ACOH    C210615   5.229   8.811   1.094  0.7321  0.4540 -0.1323
  215ACOH    O110616   5.307   8.721   1.064 -0.5971 -0.1288  0.0858
  215ACOH    C110617   5.181   8.901   0.985 -0.2654  0.5770 -0.1933
  215ACOH    H110618   5.168   8.847   0.891  0.4788  0.6978 -0.3686
  215ACOH    H210619   5.253   8.981   0.970  3.0336 -2.5474 -1.9333
  215ACOH    H310620   5.086   8.945   1.015  1.7381  3.4710  2.1178
  216ACOH    H410621   9.283   5.503   0.929 -0.0527  0.8866  0.0368
  216ACOH    O210622   9.244   5.519   0.842 -0.8507 -0.4700  0.1308
  216ACOH    C210623   9.334   5.552   0.747 -0.6491  0.6688  0.0560
  216ACOH    O110624   9.453   5.552   0.761  0.2402  0.2421  0.0700
  216ACOH    C110625   9.269   5.585   0.616 -0.2866 -0.3074 -0.7265
  216ACOH    H110626   9.246   5.692   0.617 -1.4315 -0.4961 -3.0455
  216ACOH    H210627   9.170   5.540   0.616 -0.8197  0.8486 -0.3368
  216ACOH    H310628   9.328   5.566   0.526  3.0261 -0.2138  1.3210
  217ACOH    H410629   1.650   2.751   1.608  0.6459 -0.0871  0.0333
  217ACOH    O210630   1.725   2.809   1.587 -0.2112  0.9622 -0.1583
  217ACOH    C210631   1.697   2.935   1.624 -0.6786  0.4642  0.3808
  217ACOH    O110632   1.625   2.963   1.715  0.2750 -0.4067 -0.3648
  217ACOH    C110633   1.799   3.032   1.571  0.1165 -0.4601  0.2106
  217ACOH    H110634   1.860   3.087   1.643 -0.0104 -0.9034  0.6566
  217ACOH    H210635   1.760   3.116   1.513  2.1091  4.0911  4.9570
  217ACOH    H310636   1.870   2.971   1.515  1.4198  0.2912  1.0135
  218ACOH    H410637   5.511   3.896   2.073 -1.1630 -1.6261  2.5555
  218ACOH    O210638   5.580   3.828   2.062  0.2242  0.1145 -0.4020
  218ACOH    C210639   5.523   3.710   2.042 -0.1785  0.4137 -0.3012
  218ACOH    O110640   5.400   3.686   2.049  0.2409 -0.4111  0.4443
  218ACOH    C110641   5.626   3.612   2.006 -0.5852 -0.4238  0.4274
  218ACOH    H110642   5.695   3.598   2.090  0.7194 -0.7858 -0.6962
  218ACOH    H210643   5.677   3.655   1.921  0.7604 -1.2227  0.8072
  218ACOH    H310644   5.579   3.516   1.985 -1.7597  0.5224 -1.3671
  219ACOH    H410645   5.078   1.531   0.432 -1.6046 -1.0562 -1.6423
  219ACOH    O210646   5.134   1.465   0.388  0.3513 -0.4656 -0.1088
  219ACOH    C210647   5.102   1.479   0.255 -0.0251 -0.8195 -0.4208
  219ACOH    O110648   5.086   1.587   0.202 -0.4324  0.0193 -0.1300
  219ACOH    C110649   5.106   1.354   0.178  0.3656 -0.6707 -0.6166
  219ACOH    H110650   5.005   1.315   0.170 -0.7431  1.8672  0.6874
  219ACOH    H210651   5.165   1.278   0.229  2.1153  0.6052 -0.6889
  219ACOH    H310652   5.145   1.366   0.077  1.6092  0.7834  0.0170
  220ACOH    H410653   9.598   4.252   2.523  1.0198  1.0593 -0.9973
  220ACOH    O210654   9.534   4.224   2.455  0.1112  0.1810  0.2054
  220ACOH    C210655   9.599   4.233   2.337 -0.0533  0.9120  0.2363
  220ACOH    O110656   9.717   4.255   2.316 -0.2340  0.1772  0.0640
  220ACOH    C110657   9.502   4.220   2.226 -0.0315  0.2562  0.2463
  220ACOH    H110658   9.474   4.317   2.182 -1.3904  1.0062  2.6875
  220ACOH    H210659   9.410   4.177   2.266  0.9488 -0.7543  1.4286
  220ACOH    H310660   9.541   4.154   2.149  1.2447  1.4271 -0.1320
  221ACOH    H410661   3.326   6.685   1.574 -0.1561 -0.3179 -1.2365
  221ACOH    O210662   3.351   6.778   1.564  0.1200 -0.2795 -0.2685
  221ACOH    C210663   3.283   6.857   1.655 -0.4656  0.0250  0.6129
  221ACOH    O110664   3.221   6.812   1.752 -0.7149 -0.7409  0.2937
  221ACOH    C110665   3.289   7.000   1.617 -0.4785  0.0999  0.2718
  221ACOH    H110666   3.393   7.032   1.607 -0.4443  1.0382  2.9982
  221ACOH    H210667   3.240   7.064   1.690 -1.4277 -0.2176 -0.0742
  221ACOH    H310668   3.223   7.002   1.531  0.4437  0.2542 -0.4387
  222ACOH    H410669   0.607   6.421   1.648  0.5472  0.3904  0.6109
  222ACOH    O210670   0.512   6.441   1.651  0.6244  0.9184 -0.1622
  222ACOH    C210671   0.490   6.568   1.610 -0.7701 -0.5886  0.4857
  222ACOH    O110672   0.579   6.639   1.559  0.6028 -0.6507  0.0914
  222ACOH    C110673   0.344   6.589   1.618  0.4765  0.0240  0.2065
  222ACOH    H110674   0.306   6.555   1.521 -1.2293  0.1057  0.8253
  222ACOH    H210675   0.322   6.695   1.629  1.8055  0.2620  0.6209
  222ACOH    H310676   0.301   6.531   1.700 -2.9617 -1.5157 -2.4939
  223ACOH    H410677   4.454   6.037   0.564  0.2446  1.1149 -1.7938
  223ACOH    O210678   4.523   6.090   0.606 -0.1703  0.2874  0.0067
  223ACOH    C210679   4.550   6.033   0.724 -0.5543  0.2313  0.1662
  223ACOH    O110680   4.471   5.955   0.779 -0.5936  0.2914  0.3792
  223ACOH    C110681   4.657   6.101   0.802 -0.3535  0.0164  0.1821
  223ACOH    H110682   4.754   6.059   0.774  0.8519  1.8426  1.4429
  223ACOH    H210683   4.634   6.090   0.908 -1.3784 -1.9044 -0.2232
  223ACOH    H310684   4.673   6.205   0.773 -0.7202 -0.5870 -2.2685
  224ACOH    H410685   5.698   3.485   0.959  0.2346  1.6604  0.0017
  224ACOH    O210686   5.742   3.472   0.873 -0.2006  0.2341 -0.0212
  224ACOH    C210687   5.826   3.364   0.889  0.1475 -0.1127 -0.0455
  224ACOH    O110688   5.836   3.295   0.989  0.3117  0.2915  0.0221
  224ACOH    C110689   5.921   3.359   0.779 -0.3579 -0.2119  0.3691
  224ACOH    H110690   6.019   3.364   0.827  0.2171  0.9875 -0.8832
  224ACOH    H210691   5.899   3.443   0.713  1.5882  0.8605  1.0311
  224ACOH    H310692   5.924   3.262   0.730  0.3277 -0.3037  0.5980
  225ACOH    H410693   4.600   4.919   2.324 -2.7497  1.3183 -0.1459
  225ACOH    O210694   4.583   4.948   2.233 -0.3429  0.0868 -1.0351
  225ACOH    C210695   4.465   5.016   2.264  0.6462 -0.1063 -0.0432
  225ACOH    O110696   4.434   5.065   2.373 -0.0115 -0.1429 -0.1842
  225ACOH    C110697   4.393   5.030   2.132 -0.5334 -0.5380  0.3452
  225ACOH    H110698   4.447   4.971   2.058 -0.3157  0.7801 -0.5589
  225ACOH    H210699   4.396   5.130   2.089  2.5282 -0.6476  0.1613
  225ACOH    H310700   4.292   4.994   2.150 -0.3551 -0.9387  0.5617
  226ACOH    H410701   4.863   0.972   1.209  0.1286 -0.1513 -1.2220
  226ACOH    O210702   4.912   0.912   1.269 -0.4619 -0.1807 -0.7640
  226ACOH    C210703   4.830   0.874   1.364  0.1634  0.1285 -0.7168
  226ACOH    O110704   4.709   0.900   1.362  0.2565  0.4927 -0.4872
  226ACOH    C110705   4.895   0.776   1.451 -0.5659  0.7272  0.0063
  226ACOH    H110706   4.864   0.675   1.425 -1.5480  0.7738  0.9259
  226ACOH    H210707   4.850   0.802   1.548 -1.0241  1.2266 -0.3339
  226ACOH    H310708   5.001   0.799   1.456 -0.5292  0.3966  0.8295
  227ACOH    H410709   4.512  10.311   1.659  0.3940  1.2911  0.7156
  227ACOH    O210710   4.504  10.248   1.732  0.0503  0.2962 -0.1846
  227ACOH    C210711   4.509  10.320   1.845 -0.2437 -0.2476  0.1465
  227ACOH    O110712   4.554  10.435   1.855 -0.2122  0.0030 -0.2035
  227ACOH    C110713   4.492  10.232   1.961  0.1657 -0.3957 -0.7151
  227ACOH    H110714   4.432  10.273   2.042  2.0280  2.1244 -0.5548
  227ACOH    H210715   4.591  10.205   1.996  0.0980  1.5949  1.0892
  227ACOH    H310716   4.442  10.141   1.929  0.4335  0.1869 -2.8806
  228ACOH    H410717   3.966   8.408   1.578 -2.7434 -1.0681  0.0272
  228ACOH    O210718   3.990   8.320   1.546 -0.4637 -0.6384  0.4285
  228ACOH    C210719   3.919   8.236   1.618  0.4983  0.7669  0.5361
  228ACOH    O110720   3.857   8.274   1.718 -0.4257 -0.6062  0.0466
  228ACOH    C110721   3.964   8.095   1.595 -0.0726  0.3737 -0.3258
  228ACOH    H110722   3.885   8.046   1.537  0.3989  1.0326 -1.5513
  228ACOH    H210723   3.976   8.036   1.686 -1.0013 -0.8374 -0.9688
  228ACOH    H310724   4.049   8.093   1.528 -0.0194 -0.8974 -0.2462
  229SOL     OW10725   1.436   4.209   0.203  0.0271 -0.2219 -0.5710
  229SOL    HW110726   1.428   4.271   0.125  1.9829 -0.4990 -1.0111
  229SOL    HW210727   1.499   4.248   0.270  0.8562 -1.4978 -0.6109
  230SOL     OW10728   1.958   1.527   1.862  0.3684 -1.1897 -0.1011
  230SOL    HW110729   1.865   1.492   1.868 -0.6570  1.3604 -0.0900
  230SOL    HW210730   2.013   1.494   1.939 -1.7431  0.5888  2.2479
  231SOL     OW10731   3.675   8.813   0.751 -0.2997  0.5735 -0.4208
  231SOL    HW110732   3.577   8.817   0.731 -0.2175  0.6968 -0.7935
  231SOL    HW210733   3.720   8.751   0.687 -0.1157  0.6080 -0.3257
  232SOL     OW10734   2.075   5.026   1.783  0.3792 -0.4128 -0.5272
  232SOL    HW110735   2.139   4.980   1.722 -0.9821 -0.5762 -1.8580
  232SOL    HW210736   1.992   5.049   1.733 -0.8658 -0.7540  1.3359
  233SOL     OW10737   0.964   2.452   1.812  0.3797  0.4256 -0.3932
  233SOL    HW110738   0.915   2.534   1.839  1.0523  1.0173 -0.9628
  233SOL    HW210739   1.026   2.425   1.886  2.2839  2.0989 -1.3150
  234SOL     OW10740  10.547   5.861   0.538 -0.7805 -0.3727 -0.2270
  234SOL    HW110741  10.645   5.868   0.516 -0.7388 -1.6810 -0.4647
  234SOL    HW210742  10.493   5.888   0.459 -0.6161 -0.3125 -0.3196
  235SOL     OW10743   9.861   2.153   1.648  0.7753  0.0678  0.0580
  235SOL    HW110744   9.871   2.064   1.694 -0.5275  0.0660  0.3410
  235SOL    HW210745   9.895   2.145   1.554 -0.4876 -1.0877 -0.3265
  236SOL     OW10746   3.459   4.916   2.534 -0.4788 -0.3423 -0.2243
  236SOL    HW110747   3.528   4.897   2.464 -3.2593  0.2865 -3.2186
  236SOL    HW210748   3.472   5.009   2.569  0.7405 -0.5540 -0.0841
  237SOL     OW10749   2.147   6.327   2.449 -0.8688 -0.1132  0.1824
  237SOL    HW110750   2.146   6.403   2.385 -1.8425  1.1751  1.6899
  237SOL    HW210751   2.241   6.314   2.483 -0.2486 -1.1252 -1.8077
  238SOL     OW10752   4.150   3.681   2.258  0.2623  0.2606 -0.2276
  238SOL    HW110753   4.130   3.779   2.256 -0.3184  0.1312 -1.1648
  238SOL    HW210754   4.080   3.634   2.313  0.9093  0.4544  0.7575
  239SOL     OW10755   2.795  10.446   0.314 -0.4120  1.3452 -0.1714
  239SOL    HW110756   2.836  10.461   0.405 -0.5201  0.9836 -0.0622
  239SOL    HW210757   2.699  10.473   0.316 -0.8285 -0.1178  0.2557
  240SOL     OW10758   4.702   8.694   1.847 -0.1693 -0.0180 -0.2862
  240SOL    HW110759   4.774   8.762   1.831 -0.3927  0.3255  0.1687
  240SOL    HW210760   4.614   8.730   1.818 -0.4315  0.2462  0.7987
  241SOL     OW10761   1.290   4.776   0.539 -0.3028  0.6438 -0.0246
  241SOL    HW110762   1.262   4.698   0.483  0.4723  0.4816 -0.1835
  241SOL    HW210763   1.210   4.834   0.556 -0.7897  0.0636 -0.2881
  242SOL     OW10764   9.605   5.013   1.285 -0.3356 -0.1101  0.1232
  242SOL    HW110765   9.555   5.067   1.217 -0.7327 -0.1819  0.3597
  242SOL    HW210766   9.655   5.074   1.346 -1.1420  0.0188  0.6723
  243SOL     OW10767   2.058   5.363   2.335 -0.0691  0.2674 -0.3885
  243SOL    HW110768   1.996   5.419   2.390 -2.0789  0.3487 -2.6414
  243SOL    HW210769   2.080   5.278   2.384 -1.2128  0.6655  0.8316
  244SOL     OW10770   1.602   8.316   2.283  1.0091 -0.0947 -0.0719
  244SOL    HW110771   1.577   8.323   2.380  0.3312 -1.0118 -0.1638
  244SOL    HW210772   1.592   8.405   2.239 -0.8572 -0.1531  0.2006
  245SOL     OW10773   4.040   9.218   0.465  0.1184  0.5558 -0.2839
  245SOL    HW110774   3.974   9.151   0.430  1.3266 -0.9578  0.2851
  245SOL    HW210775   4.066   9.195   0.558  1.1441  1.3829 -0.3500
  246SOL     OW10776   1.539   8.700   0.520 -0.9189  0.3243 -0.2492
  246SOL    HW110777   1.577   8.695   0.428  0.1536  2.0220  0.0721
  246SOL    HW210778   1.497   8.790   0.534 -0.3117  0.4010  1.2067
  247SOL     OW10779   9.697   2.702   2.138  0.3984  0.4925 -0.0730
  247SOL    HW110780   9.628   2.660   2.078  0.6565 -0.4301  0.2658
  247SOL    HW210781   9.677   2.677   2.233  1.2521  0.1528  0.0169
  248SOL     OW10782   4.822   4.338   0.916 -0.1843 -0.4257  0.8641
  248SOL    HW110783   4.920   4.321   0.904  0.2649  1.3700  1.8247
  248SOL    HW210784   4.771   4.256   0.892  1.4029 -0.6935 -1.8231
  249SOL     OW10785   4.029   2.659   0.430  0.1588 -0.1389  0.2131
  249SOL    HW110786   4.016   2.736   0.492  0.0873  0.9981 -1.1871
  249SOL    HW210787   4.126   2.636   0.423  0.1702 -0.2349  0.6959
  250SOL     OW10788  10.303   1.069   1.293  0.2056  0.3592  0.0537
  250SOL    HW110789  10.274   1.118   1.375  0.9170  1.8487 -0.5677
  250SOL    HW210790  10.254   1.104   1.213  0.7791  0.1374 -0.4042
  251SOL     OW10791  10.570   7.063   0.486 -0.2520  0.0430  0.3041
  251SOL    HW110792  10.483   7.087   0.528 -0.9438 -1.2237 -0.3982
  251SOL    HW210793  10.554   7.008   0.404  1.1613  0.7417 -0.4611
  252SOL     OW10794   3.019  10.338   2.649 -0.5450  0.0310  0.6444
  252SOL    HW110795   3.108  10.357   2.690  0.4555 -0.1908 -1.3860
  252SOL    HW210796   2.966  10.423   2.643  1.1474  0.9631 -1.8756
  253SOL     OW10797   3.134   5.571   1.082 -0.4014  0.1493  0.0735
  253SOL    HW110798   3.081   5.510   1.142 -1.2222  0.4573 -0.3404
  253SOL    HW210799   3.114   5.666   1.106  0.1147  0.2661  0.0420
  254SOL     OW10800   3.518   8.411   0.143 -0.7026  0.7285  0.1513
  254SOL    HW110801   3.517   8.355   0.060  0.8886  1.7952 -0.6126
  254SOL    HW210802   3.452   8.374   0.209  0.0560 -1.8115 -0.4630
  255SOL     OW10803   3.276   7.648   0.939  0.1678 -0.1303  0.4318
  255SOL    HW110804   3.285   7.636   1.038 -0.2860  1.8500  0.7443
  255SOL    HW210805   3.219   7.575   0.901  1.9359 -2.0093  1.3167
  256SOL     OW10806   0.735  10.469   2.437  0.3199 -0.8149  0.2106
  256SOL    HW110807   0.791  10.536   2.485 -1.3095  0.4653  0.4069
  256SOL    HW210808   0.718  10.502   2.343  0.5108 -1.5361 -0.0772
  257SOL     OW10809  10.523   4.420   2.501  0.2330  0.0261 -0.4555
  257SOL    HW110810  10.578   4.391   2.580  0.8999  1.8151 -0.2138
  257SOL    HW210811  10.463   4.346   2.472  0.9141 -1.0900  0.9286
  258SOL     OW10812   9.793   5.616   0.516  0.7824  0.4991 -0.3024
  258SOL    HW110813   9.711   5.558   0.514  1.5665 -0.7806  2.5342
  258SOL    HW210814   9.871   5.565   0.481  0.7155  1.1683 -1.4518
  259SOL     OW10815   2.215   9.624   2.578  0.0988  0.1443  0.6362
  259SOL    HW110816   2.157   9.586   2.649  1.3947 -0.5836  1.3357
  259SOL    HW210817   2.307   9.584   2.586  0.1316 -0.3240 -1.7444
  260SOL     OW10818   4.798   1.461   0.357  0.1737  0.3065  0.1614
  260SOL    HW110819   4.778   1.375   0.403 -0.1647  0.2941 -0.0111
  260SOL    HW210820   4.715   1.516   0.349  0.7625  1.5382  2.0984
  261SOL     OW10821   9.753   3.545   1.284 -0.0912  0.0367 -0.1855
  261SOL    HW110822   9.771   3.457   1.329  0.3729 -0.4236 -1.2683
  261SOL    HW210823   9.685   3.596   1.338 -0.6587 -1.1509  0.2518
  262SOL     OW10824  10.507   5.944   0.187  0.3553 -0.6030 -0.1269
  262SOL    HW110825  10.449   6.000   0.245  0.1273 -0.2119 -0.7185
  262SOL    HW210826  10.462   5.857   0.168 -0.3567 -0.0186 -1.1563
  263SOL     OW10827   0.723   5.451   0.187 -0.2570  0.3550  0.9084
  263SOL    HW110828   0.734   5.436   0.285 -0.7486 -0.0054  0.9091
  263SOL    HW210829   0.758   5.372   0.137  0.9401  0.9744  0.7460
  264SOL     OW10830   2.563  10.685   2.659 -0.4389  0.4146 -0.0357
  264SOL    HW110831   2.550  10.612   2.725  1.9314  0.8306  0.9316
  264SOL    HW210832   2.625  10.754   2.696  0.4946  0.9441 -2.4397
  265SOL     OW10833   8.933   1.812   2.709 -0.2911  0.2045 -0.0197
  265SOL    HW110834   8.977   1.891   2.750 -0.5636 -0.2371  1.1544
  265SOL    HW210835   9.002   1.742   2.689 -0.2408  0.1668  0.2842
  266SOL     OW10836   1.960   8.838   0.993 -0.2730  0.5206  0.2258
  266SOL    HW110837   2.033   8.783   1.034  0.3587 -0.2476 -1.8507
  266SOL    HW210838   1.880   8.781   0.976 -0.5183  0.8188  0.3956
  267SOL     OW10839   3.745   0.779   0.679 -0.2643  0.1332  0.4100
  267SOL    HW110840   3.722   0.729   0.596 -2.2441 -0.1206  1.0747
  267SOL    HW210841   3.737   0.878   0.663 -0.4701  0.0895  0.2578
  268SOL     OW10842   8.636   2.703   2.625  0.6469 -0.1219 -0.6574
  268SOL    HW110843   8.702   2.746   2.563  1.4646 -0.7580 -0.2443
  268SOL    HW210844   8.673   2.615   2.655  0.7795  0.7045  1.6596
  269SOL     OW10845   4.235   2.595   0.666  0.1585 -0.4290  0.2836
  269SOL    HW110846   4.278   2.586   0.576  0.8917 -0.6643  0.6542
  269SOL    HW210847   4.297   2.559   0.736 -1.2619 -2.1386  0.6751
  270SOL     OW10848   2.881   7.219   0.244  0.2402  0.2819 -0.4539
  270SOL    HW110849   2.806   7.285   0.236  1.1614  1.1537 -2.3802
  270SOL    HW210850   2.907   7.209   0.340 -1.7348  0.6398  0.1329
  271SOL     OW10851   1.414   4.764   1.833 -0.1494  0.6168  0.2878
  271SOL    HW110852   1.362   4.738   1.914  0.4197  0.4533  0.6071
  271SOL    HW210853   1.357   4.757   1.751 -0.6910  0.6730  0.6634
  272SOL     OW10854   4.675   2.620   0.616  0.1657  0.3804  1.1929
  272SOL    HW110855   4.680   2.592   0.520  0.1221  1.5654  0.8424
  272SOL    HW210856   4.658   2.718   0.621 -0.7520  0.1684  2.4144
  273SOL     OW10857   3.222   5.286   2.561 -0.5398  0.1171 -0.4349
  273SOL    HW110858   3.223   5.194   2.522 -0.6338 -0.6086  1.2133
  273SOL    HW210859   3.244   5.280   2.659 -1.0041  1.7979 -0.2218
  274SOL     OW10860   0.622   2.591   1.796  0.2146 -0.0712  0.0455
  274SOL    HW110861   0.538   2.632   1.761  0.5029 -1.4495 -2.3645
  274SOL    HW210862   0.701   2.642   1.762  0.4531 -0.7085 -0.3722
  275SOL     OW10863   2.446   1.984   1.424  0.1225 -0.1006  0.1989
  275SOL    HW110864   2.442   1.909   1.357 -1.5118  0.3321 -0.1956
  275SOL    HW210865   2.526   2.042   1.404 -1.3004  1.0176 -2.4867
  276SOL     OW10866   2.282   1.712   1.088  0.7542  0.4655 -0.6413
  276SOL    HW110867   2.238   1.802   1.081  1.0905  0.5996 -1.0537
  276SOL    HW210868   2.291   1.688   1.185  2.5697  1.8450 -0.4262
  277SOL     OW10869   2.335   6.690   2.073  0.8216 -0.4237  1.0524
  277SOL    HW110870   2.368   6.773   2.027 -2.5325 -0.2215 -1.1966
  277SOL    HW210871   2.347   6.611   2.013 -0.5141 -0.7204  1.1524
  278SOL     OW10872   2.562   1.324   1.295  0.6523 -0.2562 -0.7616
  278SOL    HW110873   2.584   1.349   1.389  1.2750 -1.7717 -0.4969
  278SOL    HW210874   2.472   1.282   1.291  1.2210 -1.5101 -0.6141
  279SOL     OW10875   3.472   2.114   2.213 -0.0069  0.5294 -0.2400
  279SOL    HW110876   3.501   2.112   2.118  0.7142 -0.6680 -0.0120
  279SOL    HW210877   3.376   2.085   2.220  0.1906 -0.2191 -0.5308
  280SOL     OW10878   1.946   5.785   1.623 -0.6411  0.4499  0.0004
  280SOL    HW110879   1.890   5.742   1.694 -1.3384  1.5383  0.1229
  280SOL    HW210880   2.040   5.793   1.654 -0.3233 -1.7328 -0.3431
  281SOL     OW10881   1.701   3.403   1.296  0.0323  0.4930  0.2971
  281SOL    HW110882   1.725   3.307   1.281 -1.4606  0.1065  0.3228
  281SOL    HW210883   1.779   3.451   1.336  1.3927 -0.2933 -1.3620
  282SOL     OW10884   3.866   3.069   0.753 -0.2466 -0.3528  0.2596
  282SOL    HW110885   3.897   3.036   0.841 -1.4626 -2.7594 -0.1693
  282SOL    HW210886   3.767   3.055   0.745 -0.4220  1.3551 -0.8452
  283SOL     OW10887   1.841   7.344   0.368 -0.0834  0.3847  0.1870
  283SOL    HW110888   1.825   7.274   0.298 -1.0020 -0.1729  0.9522
  283SOL    HW210889   1.923   7.397   0.343  0.4825 -0.7880 -0.5183
  284SOL     OW10890   3.885   9.683   1.184  0.1922  0.2312  0.2892
  284SOL    HW110891   3.887   9.647   1.091 -2.7720  1.1476 -0.1944
  284SOL    HW210892   3.927   9.774   1.185  0.8203 -0.0571 -0.0315
  285SOL     OW10893   2.151   3.468   1.263  0.1706  0.1884  0.2998
  285SOL    HW110894   2.169   3.544   1.200  0.2092  0.5380  0.7315
  285SOL    HW210895   2.190   3.384   1.225  0.6402  0.4952  0.0940
  286SOL     OW10896  10.567   2.625   2.510 -0.2438  0.0615 -0.7031
  286SOL    HW110897  10.572   2.527   2.493 -1.4220 -0.6561  2.7907
  286SOL    HW210898  10.474   2.649   2.536  0.3304  1.9214 -0.3141
  287SOL     OW10899   1.112   5.253   1.598  0.1040  0.0874  0.3301
  287SOL    HW110900   1.153   5.344   1.591 -1.3881  0.7465  0.0501
  287SOL    HW210901   1.169   5.187   1.549  0.7788  1.0004 -0.1238
  288SOL     OW10902   3.046   8.138   2.414  0.4683 -0.3860  0.5933
  288SOL    HW110903   3.091   8.121   2.326  1.6027 -1.4443  1.3765
  288SOL    HW210904   3.001   8.055   2.445  0.0707 -0.0130  1.0169
  289SOL     OW10905  10.136   4.929   1.274  0.5106  0.4803  0.0380
  289SOL    HW110906  10.182   4.845   1.247 -1.4773 -1.3936  2.1854
  289SOL    HW210907  10.074   4.958   1.201  0.7504 -0.2769 -0.4702
  290SOL     OW10908  10.388   1.123   1.844  0.2848 -0.1909 -0.0634
  290SOL    HW110909  10.345   1.178   1.916 -0.1764 -1.0004  0.2795
  290SOL    HW210910  10.382   1.026   1.867 -1.4352 -0.5899 -2.0185
  291SOL     OW10911   3.035   6.037   0.801 -0.2208 -0.6547  0.5328
  291SOL    HW110912   2.975   6.080   0.733 -0.1540  1.0898  1.5436
  291SOL    HW210913   2.991   6.040   0.891  1.0851  0.0012  1.1603
  292SOL     OW10914   2.591   6.368   0.927  0.2612  0.6757 -0.4907
  292SOL    HW110915   2.618   6.306   0.853  0.9892 -1.3301  1.4097
  292SOL    HW210916   2.673   6.398   0.976 -0.5414 -1.7931  2.4605
  293SOL     OW10917  10.398   1.100   0.181  0.4697 -0.1137 -0.3461
  293SOL    HW110918  10.362   1.170   0.242  2.1297  0.6094 -0.1821
  293SOL    HW210919  10.334   1.085   0.105 -0.7264  0.2862  0.5705
  294SOL     OW10920   4.127   2.904   2.691  0.6167  0.1856 -0.1098
  294SOL    HW110921   4.112   2.810   2.723  1.5517 -0.0583 -0.3675
  294SOL    HW210922   4.156   2.901   2.595  0.1613  0.7711 -0.2668
  295SOL     OW10923   9.090   1.887   1.013 -0.1607  0.2974  0.3359
  295SOL    HW110924   9.008   1.922   0.969 -0.0777  0.8014  0.5755
  295SOL    HW210925   9.121   1.804   0.966 -0.6705  0.2394  0.1037
  296SOL     OW10926   9.388   1.664   1.086  0.0764  0.1095  0.1036
  296SOL    HW110927   9.353   1.748   1.129  1.0146  0.1976  0.7214
  296SOL    HW210928   9.317   1.594   1.086  0.1853 -0.0312  2.1994
  297SOL     OW10929   2.057  10.172   0.250 -0.1627  0.0708 -0.0590
  297SOL    HW110930   1.992  10.149   0.323  2.4744 -2.0865  1.7017
  297SOL    HW210931   2.082  10.088   0.200  0.4101  1.0587 -1.4621
  298SOL     OW10932   9.343   5.182   0.331  0.0679  0.1857 -0.5905
  298SOL    HW110933   9.335   5.247   0.255  0.5284  0.6144 -0.2811
  298SOL    HW210934   9.313   5.226   0.415  0.1655 -0.0773 -0.4196
  299SOL     OW10935  10.536   0.983   0.689 -0.1738 -0.0200  0.2733
  299SOL    HW110936  10.603   0.946   0.753  0.7934 -0.0055 -0.7356
  299SOL    HW210937  10.577   1.058   0.637 -1.1770  0.4334  0.1266
  300SOL     OW10938   1.519   9.003   2.309 -0.0452  0.0022  0.1041
  300SOL    HW110939   1.502   9.081   2.369 -1.2922 -0.7068  0.6911
  300SOL    HW210940   1.606   8.960   2.334 -0.2236  0.1311  0.9746
  301SOL     OW10941  10.111   2.601   1.344  0.3565 -0.2511  0.2913
  301SOL    HW110942  10.168   2.587   1.263 -0.6209 -0.3355 -0.3778
  301SOL    HW210943  10.109   2.699   1.366  0.6704 -0.2345  0.2500
  302SOL     OW10944   8.760   1.828   0.958 -0.6874 -0.0296 -0.1775
  302SOL    HW110945   8.812   1.913   0.950 -2.4158  0.9561 -1.1315
  302SOL    HW210946   8.683   1.829   0.895  0.3942 -3.1864 -1.6881
  303SOL     OW10947   1.195   2.574   1.073 -0.4768 -0.2884 -0.5357
  303SOL    HW110948   1.191   2.672   1.055  0.5208  0.0502  0.9959
  303SOL    HW210949   1.290   2.546   1.087 -0.8460 -1.2811  0.0541
  304SOL     OW10950   2.421   6.374   1.562 -0.4383 -0.1731 -0.0108
  304SOL    HW110951   2.337   6.396   1.513 -0.2689 -0.0565 -0.2502
  304SOL    HW210952   2.436   6.275   1.559 -1.5288 -0.4121  1.5978
  305SOL     OW10953   1.625   0.737   2.536  0.0333  0.0556 -0.0322
  305SOL    HW110954   1.635   0.691   2.624  2.0555  0.0679 -0.2329
  305SOL    HW210955   1.551   0.693   2.484 -0.3542 -0.7367  1.1699
  306SOL     OW10956   9.236   2.745   0.853 -0.2482  0.0848 -0.1818
  306SOL    HW110957   9.327   2.712   0.879 -0.4171 -0.8670 -0.7617
  306SOL    HW210958   9.235   2.845   0.855  1.2513  0.1494 -1.6357
  307SOL     OW10959   9.212   3.775   1.980  0.0444 -0.2391 -0.0732
  307SOL    HW110960   9.179   3.750   2.071  0.7857 -1.0206 -0.0147
  307SOL    HW210961   9.136   3.813   1.927  0.1510  2.6589  1.7064
  308SOL     OW10962   3.613   7.964   1.471 -0.3677 -0.2661 -0.3569
  308SOL    HW110963   3.594   8.061   1.456  0.6006  0.0141  0.1914
  308SOL    HW210964   3.602   7.942   1.568  0.9567 -0.3459 -0.2139
  309SOL     OW10965   0.751   1.711   1.628 -0.3198  0.4643  0.5425
  309SOL    HW110966   0.653   1.717   1.649 -1.1382 -0.1226 -2.8479
  309SOL    HW210967   0.796   1.798   1.649 -2.3427  2.0652 -1.5839
  310SOL     OW10968   9.227   2.410   1.898 -0.4982  0.0828  0.7925
  310SOL    HW110969   9.250   2.433   1.804 -0.9863  0.6712  0.8146
  310SOL    HW210970   9.301   2.438   1.959  0.1252 -0.9294  0.5079
  311SOL     OW10971   9.985   0.985   1.226 -0.0698  0.0472  0.0590
  311SOL    HW110972  10.056   0.937   1.278 -1.4350 -0.6138  1.3258
  311SOL    HW210973   9.928   0.918   1.178 -0.5728  0.5242 -0.0081
  312SOL     OW10974   1.176   4.191   0.259 -0.0965  0.2725 -0.2418
  312SOL    HW110975   1.276   4.199   0.259 -0.2274  2.1946  0.1205
  312SOL    HW210976   1.138   4.244   0.183 -0.7953 -1.4733 -1.1448
  313SOL     OW10977  10.414   4.547   1.840  0.6504 -0.2841 -0.2549
  313SOL    HW110978  10.497   4.602   1.833  1.3845 -1.4634 -1.0857
  313SOL    HW210979  10.424   4.464   1.786 -1.4897  0.0489 -1.2396
  314SOL     OW10980   3.430   1.819   1.234  0.2588  0.0607  0.0853
  314SOL    HW110981   3.359   1.757   1.266  0.2578  0.6163  1.1931
  314SOL    HW210982   3.478   1.779   1.156  0.5653 -1.5430  1.0891
  315SOL     OW10983   3.450  10.118   0.400 -0.1010  0.1468 -0.4190
  315SOL    HW110984   3.545  10.086   0.392  0.3669  1.2874  0.4917
  315SOL    HW210985   3.388  10.042   0.380  0.9914 -1.1965  1.1181
  316SOL     OW10986   0.911   5.285   1.762 -0.2342  0.1307  0.3788
  316SOL    HW110987   0.883   5.192   1.782  0.2130 -0.4665 -1.6240
  316SOL    HW210988   0.992   5.283   1.703 -0.9144  1.7592 -0.6536
  317SOL     OW10989   3.640   4.017   0.113  0.1401 -0.1169  0.0842
  317SOL    HW110990   3.663   3.971   0.199  0.7734 -0.8947 -0.4966
  317SOL    HW210991   3.724   4.045   0.067 -0.0645 -2.2748 -1.6665
  318SOL     OW10992   2.127   5.385   1.502 -0.0309  0.1978 -0.2766
  318SOL    HW110993   2.110   5.450   1.576 -1.3822  0.6706 -0.9947
  318SOL    HW210994   2.190   5.314   1.534 -0.3664  0.5653  1.2369
  319SOL     OW10995   4.135   3.251   1.599 -0.0436 -0.3465  0.1330
  319SOL    HW110996   4.179   3.177   1.648  0.2710  0.0192  0.4075
  319SOL    HW210997   4.044   3.268   1.639 -0.2352 -0.7702 -0.1161
  320SOL     OW10998   4.701   1.377   2.233  0.1799 -0.1698  0.1199
  320SOL    HW110999   4.659   1.465   2.254 -0.2298 -0.4200  0.3608
  320SOL    HW211000   4.713   1.368   2.134  2.0155  0.9666  0.2145
  321SOL     OW11001   4.232   9.360   2.394 -0.3666  0.5294  0.1161
  321SOL    HW111002   4.179   9.276   2.389 -1.0965  0.9919 -0.0709
  321SOL    HW211003   4.192   9.429   2.334 -0.2726  1.2790  0.8929
  322SOL     OW11004   1.964  10.063   1.902  0.0394  0.2458  0.1517
  322SOL    HW111005   1.896  10.017   1.845  0.9425  0.2662 -0.9489
  322SOL    HW211006   1.922  10.142   1.946 -0.6508  0.2616 -0.5283
  323SOL     OW11007   1.634   7.374   0.914  0.3893  0.2233 -0.6013
  323SOL    HW111008   1.656   7.287   0.870  0.5846  0.5168 -1.0894
  323SOL    HW211009   1.552   7.413   0.871  0.1375  0.1423 -0.1934
  324SOL     OW11010   1.743   9.950   1.773  0.1196  0.6611 -0.3334
  324SOL    HW111011   1.688   9.941   1.857  1.1748  2.5578  0.5912
  324SOL    HW211012   1.681   9.955   1.694 -0.9969  1.5666  0.5800
  325SOL     OW11013   2.708  10.683   1.063  0.3366 -0.1437  0.5926
  325SOL    HW111014   2.648  10.604   1.069 -2.0256  1.5523 -0.2928
  325SOL    HW211015   2.747  10.689   0.971 -2.1215  1.5868 -0.3596
  326SOL     OW11016  10.487   3.451   0.745  0.1470 -0.1269 -0.6323
  326SOL    HW111017  10.453   3.439   0.838 -1.1039 -2.9955 -1.3816
  326SOL    HW211018  10.585   3.433   0.741  0.0875 -0.5696  0.0136
  327SOL     OW11019   3.182   5.785   0.663 -0.0503  0.8111 -0.3724
  327SOL    HW111020   3.142   5.871   0.694  1.2020  0.3775  2.6006
  327SOL    HW211021   3.166   5.714   0.732  0.1751 -0.9950 -2.1291
  328SOL     OW11022   1.740   3.501   0.565  0.3334  0.0741  0.7379
  328SOL    HW111023   1.729   3.409   0.602 -0.0619 -0.0294  0.3722
  328SOL    HW211024   1.658   3.525   0.512  0.6554  0.4339  0.4012
  329SOL     OW11025   0.933   0.834   2.120 -1.0751 -0.2735  0.1842
  329SOL    HW111026   0.936   0.921   2.170 -0.4771 -0.1937  0.0141
  329SOL    HW211027   0.967   0.760   2.178 -0.2383 -0.1564 -0.1423
  330SOL     OW11028   3.559   9.190   0.387  0.3361  0.1916 -0.2472
  330SOL    HW111029   3.504   9.248   0.326  0.4159 -1.0703 -1.5405
  330SOL    HW211030   3.516   9.185   0.476 -2.8188 -2.4413 -1.8292
  331SOL     OW11031   9.920   1.850   1.998 -0.2243 -0.0817  0.0208
  331SOL    HW111032   9.979   1.840   1.917  1.1686  1.3093  0.8180
  331SOL    HW211033   9.882   1.761   2.023  2.2992 -1.2074  0.0200
  332SOL     OW11034   9.843   1.114   2.212  0.3353  0.2793  0.0450
  332SOL    HW111035   9.889   1.030   2.184  0.3701  1.0033 -2.1564
  332SOL    HW211036   9.822   1.110   2.310  0.1392 -2.3721 -0.0821
  333SOL     OW11037   5.069   3.317   2.499  0.2057  0.2088 -0.1016
  333SOL    HW111038   4.984   3.333   2.549  0.2396 -0.2285  0.1045
  333SOL    HW211039   5.060   3.234   2.445  0.7823 -0.2983  0.5655
  334SOL     OW11040   3.952   9.493   1.770 -0.3065  0.1543  0.5490
  334SOL    HW111041   3.941   9.590   1.747 -0.9503 -0.3187 -1.2621
  334SOL    HW211042   3.909   9.437   1.699 -0.1192 -1.4665  1.6782
  335SOL     OW11043   4.904   2.447   1.430  0.0370  0.6762  0.5284
  335SOL    HW111044   4.990   2.465   1.478  2.4106 -1.6659 -2.5989
  335SOL    HW211045   4.912   2.478   1.335 -1.0968 -2.9703 -0.8635
  336SOL     OW11046   1.461   8.679   2.462  0.2197  0.1996  0.0494
  336SOL    HW111047   1.377   8.713   2.421  0.4007 -1.0202 -1.3842
  336SOL    HW211048   1.528   8.660   2.390  1.4880  0.5042  1.1171
  337SOL     OW11049   0.814   1.348   0.244  0.0450 -0.1260 -0.0738
  337SOL    HW111050   0.897   1.368   0.297  0.4695 -0.5631 -0.5755
  337SOL    HW211051   0.744   1.416   0.266  0.3794 -0.0269  0.7012
  338SOL     OW11052   3.993   2.055   0.337 -0.1279 -0.1091 -0.1384
  338SOL    HW111053   4.051   2.133   0.360 -0.0169 -0.6198  1.3560
  338SOL    HW211054   3.919   2.085   0.277  0.5985  0.9069 -0.5385
  339SOL     OW11055   2.355   9.535   1.671  0.3148  0.3113  0.4203
  339SOL    HW111056   2.297   9.513   1.593 -0.3213 -0.0834  1.0079
  339SOL    HW211057   2.307   9.515   1.756  1.6858 -1.0035  0.9103
  340SOL     OW11058   0.666   1.988   1.427 -0.5091 -0.6978 -0.0430
  340SOL    HW111059   0.710   1.956   1.511 -1.4805  0.2340  0.8403
  340SOL    HW211060   0.576   2.025   1.449  0.1326  1.6013 -1.2034
  341SOL     OW11061   1.230   8.598   1.407  0.1176 -0.3087 -0.0526
  341SOL    HW111062   1.269   8.624   1.496 -0.3141  0.4334 -0.0783
  341SOL    HW211063   1.210   8.500   1.406  0.0324 -0.2977  0.7010
  342SOL     OW11064   1.554   7.372   0.218  0.6001 -0.3309 -0.1651
  342SOL    HW111065   1.616   7.446   0.193 -0.4359  0.9502  0.9869
  342SOL    HW211066   1.479   7.367   0.152 -0.2040  0.7222  0.6492
  343SOL     OW11067   9.741   1.122   1.270 -0.0365 -0.2058  0.5062
  343SOL    HW111068   9.692   1.164   1.346  0.3907  0.1119  0.6075
  343SOL    HW211069   9.816   1.066   1.305  0.0181 -0.2472  0.3257
  344SOL     OW11070   4.881   4.027   2.374 -0.2380  0.5368  0.4686
  344SOL    HW111071   4.962   4.083   2.387  0.0018  0.1941  0.4437
  344SOL    HW211072   4.808   4.083   2.335 -0.2448  1.0189  1.1562
  345SOL     OW11073   1.306   9.391   0.306  0.4250  0.2572  0.1331
  345SOL    HW111074   1.307   9.391   0.406 -0.1911  0.0003  0.1382
  345SOL    HW211075   1.314   9.486   0.274 -1.1568  0.5190  0.4500
  346SOL     OW11076   3.433   1.252   0.465 -0.1477  0.1528  0.2818
  346SOL    HW111077   3.523   1.279   0.431 -0.7451  0.7615 -0.8682
  346SOL    HW211078   3.390   1.330   0.510  0.2677 -0.3998  1.6822
  347SOL     OW11079   2.451   7.569   0.955 -0.3253 -0.5256 -0.0328
  347SOL    HW111080   2.402   7.483   0.940  0.5273 -1.0133 -0.0721
  347SOL    HW211081   2.533   7.551   1.009  0.2430  0.1505 -0.6699
  348SOL     OW11082   1.729   7.431   1.478  0.1310  0.2057 -0.3082
  348SOL    HW111083   1.680   7.516   1.498  0.4814  0.1199  0.9448
  348SOL    HW211084   1.716   7.407   1.381 -0.1214  1.5768 -0.6247
  349SOL     OW11085   1.402   2.579   0.165 -0.1089  0.3946  0.1623
  349SOL    HW111086   1.326   2.538   0.215  0.0053 -0.0624 -0.0398
  349SOL    HW211087   1.489   2.549   0.206  0.0097 -0.7979 -0.9416
  350SOL     OW11088   2.545   8.185   0.628  0.0243 -0.3243 -1.0295
  350SOL    HW111089   2.548   8.167   0.727 -0.0234 -1.1921 -1.1774
  350SOL    HW211090   2.498   8.271   0.610 -0.7681 -0.6190 -0.3520
  351SOL     OW11091   3.979   2.616   1.433  0.2150  0.3130 -0.4419
  351SOL    HW111092   3.999   2.701   1.384  3.2526 -0.6123 -0.9246
  351SOL    HW211093   4.005   2.625   1.529 -1.5708  0.6506  0.0236
  352SOL     OW11094   3.792   8.370   1.183 -0.3594  0.8623  0.3280
  352SOL    HW111095   3.721   8.435   1.155  0.7528  1.7473 -0.5076
  352SOL    HW211096   3.880   8.417   1.188 -0.1066  0.1612  3.0432
  353SOL     OW11097  10.204   5.103   2.299  0.1612  0.0273 -0.4792
  353SOL    HW111098  10.270   5.098   2.224 -0.4886  2.3601 -1.2604
  353SOL    HW211099  10.220   5.187   2.352 -0.5760 -0.6527  0.8610
  354SOL     OW11100   3.426   4.985   0.983 -0.1061  0.1009 -0.1828
  354SOL    HW111101   3.519   4.952   0.997 -0.1144  0.3056  0.3430
  354SOL    HW211102   3.391   4.949   0.896  0.1619 -0.6507  0.0141
  355SOL     OW11103  10.534   6.570   1.126  0.3584 -0.4292  0.2735
  355SOL    HW111104  10.536   6.573   1.226 -0.0307  0.6501  0.2583
  355SOL    HW211105  10.577   6.653   1.091 -2.4095  0.7527 -0.4336
  356SOL     OW11106  10.155   5.564   0.260  0.1169  0.0881 -0.2037
  356SOL    HW111107  10.201   5.477   0.245  1.1601  0.1458  2.4464
  356SOL    HW211108  10.114   5.565   0.351 -0.1363  2.2508 -0.3117
  357SOL     OW11109  10.566   4.069   0.560 -0.0330  0.7560 -0.0235
  357SOL    HW111110  10.541   4.130   0.635 -1.8633 -1.8941  1.5785
  357SOL    HW211111  10.485   4.046   0.507  0.5464 -0.6991 -0.2916
  358SOL     OW11112   3.647   9.392   0.813 -0.0292 -0.4570  0.0531
  358SOL    HW111113   3.623   9.474   0.761  1.5190  0.7958  1.2780
  358SOL    HW211114   3.699   9.329   0.754  1.0926  0.6300 -0.1313
  359SOL     OW11115   1.569   9.174   0.819  0.2078 -0.1695 -0.3468
  359SOL    HW111116   1.646   9.229   0.853  1.0133 -1.9483  0.7741
  359SOL    HW211117   1.588   9.144   0.726  2.2195 -3.0125  0.9320
  360SOL     OW11118   2.448   8.024   1.921  0.5227 -0.5330  0.0146
  360SOL    HW111119   2.505   8.075   1.985  0.0684  1.9077 -1.4425
  360SOL    HW211120   2.505   7.992   1.845  0.1260  1.5186 -1.2111
  361SOL     OW11121   2.990   2.072   1.214 -0.2710  0.1088  0.4312
  361SOL    HW111122   2.925   2.084   1.289  0.8718  1.2263  1.2543
  361SOL    HW211123   2.970   2.139   1.142 -0.3746  0.0725  0.4249
  362SOL     OW11124   2.104   9.514   0.216  0.6542  0.6606  0.0434
  362SOL    HW111125   2.185   9.455   0.217 -0.4263 -0.9039 -1.6234
  362SOL    HW211126   2.022   9.458   0.229 -0.1523  2.3208  2.5766
  363SOL     OW11127   5.162   2.552   1.455 -0.3918  0.3584 -0.2414
  363SOL    HW111128   5.253   2.592   1.456 -0.3883  0.3990  2.6666
  363SOL    HW211129   5.107   2.596   1.384  1.1163  2.0590 -0.3956
  364SOL     OW11130   3.168   8.804   0.348 -0.1308  0.8736 -0.1511
  364SOL    HW111131   3.249   8.810   0.289 -0.1981  1.4346 -0.1833
  364SOL    HW211132   3.089   8.839   0.300 -0.4556  0.0682 -0.2186
  365SOL     OW11133   1.054   4.676   1.340 -0.3757  0.1676  0.3573
  365SOL    HW111134   1.086   4.611   1.409  0.7426 -0.2382 -0.5394
  365SOL    HW211135   1.003   4.749   1.385 -0.2324 -0.4485  1.5444
  366SOL     OW11136   1.337   1.086   1.885 -0.3342 -0.4842 -0.2180
  366SOL    HW111137   1.286   1.147   1.824 -0.2883 -0.9353 -0.7175
  366SOL    HW211138   1.273   1.021   1.927 -0.4818  0.3247  0.8275
  367SOL     OW11139   9.712   1.441   1.549 -0.2578 -0.7889  0.8114
  367SOL    HW111140   9.641   1.377   1.518 -0.5960 -1.2009  2.3712
  367SOL    HW211141   9.764   1.474   1.470 -2.2041 -0.4485 -0.3565
  368SOL     OW11142   3.664   2.891   1.975 -0.1519 -0.3076 -0.0288
  368SOL    HW111143   3.747   2.858   2.021 -1.3936 -4.3598 -0.4957
  368SOL    HW211144   3.672   2.877   1.877 -0.9214  0.4482 -0.2073
  369SOL     OW11145   9.862   1.138   2.504 -0.1912 -0.3202  0.0151
  369SOL    HW111146   9.909   1.055   2.472  0.9498  0.5932 -0.7016
  369SOL    HW211147   9.890   1.158   2.598 -0.9269 -1.0670  0.4079
  370SOL     OW11148   2.268   6.519   0.211  0.1560  0.7043 -0.4180
  370SOL    HW111149   2.185   6.489   0.258  0.6818 -0.9520 -0.5225
  370SOL    HW211150   2.314   6.441   0.171  2.0495  1.5344  0.0795
  371SOL     OW11151   4.393  10.239   0.858 -0.0734 -0.0396 -0.5235
  371SOL    HW111152   4.382  10.308   0.929 -0.0085  1.3581 -1.8498
  371SOL    HW211153   4.491  10.220   0.846 -0.2151 -2.3004  1.6497
  372SOL     OW11154   0.776   5.802   0.835 -0.0646  0.0343 -0.2665
  372SOL    HW111155   0.774   5.752   0.748  1.9582 -0.0838 -0.2856
  372SOL    HW211156   0.867   5.792   0.876 -1.0662 -0.1057  1.9831
  373SOL     OW11157   9.959   3.554   1.666 -0.0650  0.5698 -0.7761
  373SOL    HW111158   9.922   3.463   1.650 -0.8628  0.9962 -1.4312
  373SOL    HW211159   9.944   3.580   1.762  1.6500 -0.6319 -0.1684
  374SOL     OW11160   3.866   3.602   0.934  0.3810  0.1821  0.0293
  374SOL    HW111161   3.909   3.634   1.018  1.5543 -2.1671  0.3489
  374SOL    HW211162   3.768   3.587   0.950  0.2814  1.2694  0.5079
  375SOL     OW11163   9.504   3.640   1.631  0.4038 -0.1253 -0.0537
  375SOL    HW111164   9.454   3.621   1.547  3.1083  1.1479 -2.0022
  375SOL    HW211165   9.486   3.566   1.697  0.1143 -2.3827 -2.5743
  376SOL     OW11166   0.792   5.844   2.411 -0.5550  0.5051  0.1081
  376SOL    HW111167   0.725   5.900   2.460 -0.3907  0.4160  0.4357
  376SOL    HW211168   0.749   5.759   2.381 -1.4099  1.7398 -2.3067
  377SOL     OW11169   2.179   7.159   1.064  0.1924 -0.3453 -0.2396
  377SOL    HW111170   2.259   7.151   1.123 -0.1990  1.2394  0.5498
  377SOL    HW211171   2.096   7.152   1.118 -0.1709  1.4309 -0.5203
  378SOL     OW11172   3.877   3.337   0.183  0.3237 -0.0562 -0.0229
  378SOL    HW111173   3.783   3.371   0.180 -0.5699 -2.4270  0.2009
  378SOL    HW211174   3.887   3.262   0.117  1.5816 -0.9847  1.2042
  379SOL     OW11175   3.521   4.532   2.585 -0.3788  0.0034 -0.3491
  379SOL    HW111176   3.505   4.613   2.642 -1.0812  0.9947 -1.9202
  379SOL    HW211177   3.547   4.455   2.643  2.3528  1.8705  1.0069
  380SOL     OW11178   2.498   9.843   2.144  0.1334 -0.1386  0.0976
  380SOL    HW111179   2.460   9.821   2.054  1.4556  0.1139 -0.5431
  380SOL    HW211180   2.491   9.762   2.203 -1.6058 -0.0179  0.0925
  381SOL     OW11181   1.781   5.813   0.335  0.0765  0.1726  0.0586
  381SOL    HW111182   1.744   5.721   0.352 -1.3609  0.5092 -1.1793
  381SOL    HW211183   1.856   5.831   0.399 -0.3134 -1.4639  0.9971
  382SOL     OW11184   4.801   1.878   1.732  0.0547  0.6812  0.5192
  382SOL    HW111185   4.771   1.966   1.695  1.2521  0.2595 -1.5091
  382SOL    HW211186   4.775   1.804   1.669 -0.2885 -0.3570  1.8447
  383SOL     OW11187   0.728   4.719   1.989 -0.3110  0.0625 -0.2628
  383SOL    HW111188   0.801   4.781   2.017  0.6510 -0.6136 -1.2274
  383SOL    HW211189   0.705   4.735   1.893 -0.9336 -0.2066 -0.1640
  384SOL     OW11190   2.214   6.068   2.688  0.0477  0.1946 -0.3346
  384SOL    HW111191   2.188   6.023   2.603 -0.3812 -0.3143  0.0602
  384SOL    HW211192   2.190   6.009   2.765 -0.7920  1.2329  0.2046
  385SOL     OW11193   2.284   0.792   2.055 -0.4114 -0.4700 -0.0171
  385SOL    HW111194   2.238   0.746   1.979  0.7873  0.0136 -1.0390
  385SOL    HW211195   2.215   0.825   2.120 -1.4180 -1.2398 -0.6816
  386SOL     OW11196   1.978  10.431   1.100 -0.0910 -0.2191  0.3254
  386SOL    HW111197   2.058  10.372   1.103 -0.7474 -1.2041 -0.8843
  386SOL    HW211198   1.905  10.391   1.156 -0.1474  0.0321  0.4315
  387SOL     OW11199   4.304   1.576   2.048  0.3116  0.0349  0.1657
  387SOL    HW111200   4.363   1.520   2.106  1.8499 -0.6824 -2.0386
  387SOL    HW211201   4.357   1.651   2.010 -0.5110  0.1161 -0.8249
  388SOL     OW11202   3.146   4.466   0.705 -1.0135 -0.2577 -0.1862
  388SOL    HW111203   3.114   4.522   0.781 -1.5005 -2.3093  1.1610
  388SOL    HW211204   3.188   4.524   0.636 -2.5978  1.8866  0.6080
  389SOL     OW11205  10.260   4.430   0.875  0.8253 -0.2718 -0.0280
  389SOL    HW111206  10.189   4.379   0.826  0.7241 -1.2154  1.1043
  389SOL    HW211207  10.259   4.405   0.971  2.2192  0.2697  0.1325
  390SOL     OW11208   0.788   6.419   1.185  0.0452 -0.4766  0.3982
  390SOL    HW111209   0.718   6.353   1.211 -0.7480  0.0737 -0.2967
  390SOL    HW211210   0.791   6.426   1.085  1.6225 -1.0540  0.3791
  391SOL     OW11211   9.541   2.859   0.630  1.1701  0.0639  0.0286
  391SOL    HW111212   9.621   2.904   0.590  1.3681 -0.6944 -0.4504
  391SOL    HW211213   9.521   2.899   0.719  2.3648 -0.0584  0.3588
  392SOL     OW11214   9.610   1.934   0.213 -0.0786 -0.7852 -0.5648
  392SOL    HW111215   9.646   1.846   0.185 -0.0528 -1.0241  0.1996
  392SOL    HW211216   9.677   2.006   0.192 -0.9076 -0.6694 -2.9928
  393SOL     OW11217   0.666   7.102   2.079  0.1904  0.1730  0.2458
  393SOL    HW111218   0.640   7.091   1.984 -0.6748 -1.2663  0.6292
  393SOL    HW211219   0.765   7.117   2.086  0.0862  1.4835 -0.9426
  394SOL     OW11220   2.118  10.679   0.742 -0.2963 -0.2610 -0.3996
  394SOL    HW111221   2.131  10.777   0.727 -0.1867 -0.3930 -1.1548
  394SOL    HW211222   2.191  10.645   0.802 -0.1014  0.0361 -0.4668
  395SOL     OW11223   1.652   4.513   2.665  0.2355 -1.0165 -0.1395
  395SOL    HW111224   1.644   4.549   2.572  3.9649  2.3183  0.6702
  395SOL    HW211225   1.681   4.418   2.661 -0.5590 -1.1910 -2.3899
  396SOL     OW11226   1.046   4.086   1.993  0.2213  0.2411  0.7500
  396SOL    HW111227   1.110   4.077   2.070 -1.1264  1.6213  2.0815
  396SOL    HW211228   1.028   3.996   1.954  0.5472 -0.5466  2.3704
  397SOL     OW11229   0.702   1.161   0.563 -0.5344 -0.1141 -0.2129
  397SOL    HW111230   0.680   1.245   0.612 -3.5862 -1.6388  1.1088
  397SOL    HW211231   0.653   1.159   0.476 -2.8188 -1.8125  1.0630
  398SOL     OW11232   1.921   3.478   1.417  0.1502  0.4493  0.3780
  398SOL    HW111233   2.009   3.461   1.373 -1.5091  1.6373 -3.5559
  398SOL    HW211234   1.929   3.556   1.479  1.4249  1.6126 -1.2357
  399SOL     OW11235   3.718   1.636   1.200  0.0740  0.0466 -0.0826
  399SOL    HW111236   3.684   1.647   1.107 -1.4741  0.6723  0.5384
  399SOL    HW211237   3.807   1.681   1.209  0.8521 -1.1441 -1.5826
  400SOL     OW11238   3.986   8.123   0.275 -0.4613 -0.2133 -0.2172
  400SOL    HW111239   4.072   8.171   0.256 -0.2818 -0.0617  0.9437
  400SOL    HW211240   3.968   8.124   0.373 -2.1456  0.3402 -0.5133
  401SOL     OW11241   1.382   4.041   2.063 -0.2589 -0.2856  0.1938
  401SOL    HW111242   1.426   4.126   2.094  1.1767 -1.3390  1.1267
  401SOL    HW211243   1.381   3.976   2.138 -1.3236 -1.1071 -0.5358
  402SOL     OW11244   3.582   9.602   0.627 -0.0606  0.3167 -0.2160
  402SOL    HW111245   3.492   9.566   0.603  0.5626 -0.4146 -1.4971
  402SOL    HW211246   3.584   9.701   0.612 -0.2857  0.1548 -1.3135
  403SOL     OW11247   3.119   3.824   0.405  0.7831 -0.1205 -0.5529
  403SOL    HW111248   3.036   3.870   0.437  0.0431 -1.4028 -0.5756
  403SOL    HW211249   3.150   3.866   0.320  0.2970  0.5255 -0.4174
  404SOL     OW11250   0.649   3.950   2.130  0.1183  0.8067 -0.0821
  404SOL    HW111251   0.638   3.903   2.043 -0.0711  0.5095  0.1019
  404SOL    HW211252   0.706   4.031   2.117 -0.9771  1.4876 -0.7420
  405SOL     OW11253   8.576   2.995   0.665  0.4279 -0.5503  0.2300
  405SOL    HW111254   8.596   2.960   0.757  1.8321  1.9882  0.9406
  405SOL    HW211255   8.659   3.032   0.624 -0.8098  1.1670 -0.8000
  406SOL     OW11256   0.782   2.117   0.838  0.2734  0.1166 -0.0777
  406SOL    HW111257   0.842   2.103   0.917  1.0772  2.1049 -0.2944
  406SOL    HW211258   0.836   2.115   0.754 -0.5398 -1.7446 -0.5726
  407SOL     OW11259   2.800   1.449   1.092 -0.3099  0.0424 -0.9067
  407SOL    HW111260   2.844   1.477   1.007 -0.8284 -0.0667 -1.2102
  407SOL    HW211261   2.709   1.414   1.073 -0.5775  0.3764 -0.2627
  408SOL     OW11262   3.095   1.089   1.598  0.0742 -0.3724 -1.1628
  408SOL    HW111263   2.998   1.087   1.576 -0.8566  0.5942  2.4859
  408SOL    HW211264   3.130   1.182   1.586 -0.7435  0.4512  2.3638
  409SOL     OW11265   0.874   6.667   1.228  0.1183 -0.1112 -0.7992
  409SOL    HW111266   0.840   6.706   1.314  1.0400  0.0495 -0.4961
  409SOL    HW211267   0.842   6.573   1.219  0.6982 -0.4081  0.1296
  410SOL     OW11268   1.186   4.866   0.862 -0.3898 -0.2372 -0.6524
  410SOL    HW111269   1.211   4.866   0.959  0.3620  1.4727 -0.8259
  410SOL    HW211270   1.130   4.786   0.842  0.7597 -1.4485  0.8508
  411SOL     OW11271   0.912   2.305   2.153  0.0207  0.4661 -0.1470
  411SOL    HW111272   0.973   2.365   2.205  0.1137  0.0444  0.2311
  411SOL    HW211273   0.966   2.236   2.105 -0.1884 -0.2378  0.6120
  412SOL     OW11274  10.185   3.016   2.565  0.6384 -0.3185 -0.2007
  412SOL    HW111275  10.282   2.994   2.566  0.5154 -0.8895  1.6893
  412SOL    HW211276  10.172   3.110   2.597  0.5074 -0.5809  0.5306
  413SOL     OW11277   2.525   7.591   1.986  0.0935  0.1651  0.2215
  413SOL    HW111278   2.556   7.604   1.892  0.0692 -0.5796  0.1042
  413SOL    HW211279   2.435   7.546   1.986  0.7038 -1.0861  0.6094
  414SOL     OW11280   2.335   2.530   0.792  0.4233 -0.3888 -0.4769
  414SOL    HW111281   2.393   2.581   0.730 -1.0082  0.0629 -1.4729
  414SOL    HW211282   2.283   2.461   0.741 -1.5367  0.6823  0.0026
  415SOL     OW11283   3.310   3.988   1.126  0.1847  0.6056 -0.2730
  415SOL    HW111284   3.228   4.044   1.132 -0.1515 -0.1074  2.1945
  415SOL    HW211285   3.286   3.897   1.092  0.3088  1.0686 -1.6313
  416SOL     OW11286   2.066   0.961   0.641  0.4836  0.0925 -0.1144
  416SOL    HW111287   1.971   0.955   0.610  0.0456  0.4229  1.1472
  416SOL    HW211288   2.125   0.981   0.563 -0.8546  3.1137 -0.4051
  417SOL     OW11289   3.254   1.193   0.221  0.1140 -0.3211 -0.1927
  417SOL    HW111290   3.290   1.284   0.241  1.5162 -0.4822 -1.9171
  417SOL    HW211291   3.282   1.165   0.129 -1.5467 -1.8889 -0.2566
  418SOL     OW11292  10.270   3.352   0.456 -0.0013  0.0215 -0.6191
  418SOL    HW111293  10.270   3.350   0.556  0.7682 -0.2740 -0.6206
  418SOL    HW211294  10.342   3.292   0.422  0.6394  1.1941 -1.3394
  419SOL     OW11295   4.650   1.449   1.966  0.2711  0.3741 -0.4042
  419SOL    HW111296   4.661   1.546   1.988 -1.6681  1.0038 -2.0455
  419SOL    HW211297   4.637   1.440   1.867 -0.7182 -1.4594 -0.1110
  420SOL     OW11298   4.512   4.198   1.860  0.2176  0.2626 -0.8126
  420SOL    HW111299   4.519   4.262   1.936  0.5196 -1.7674  0.9315
  420SOL    HW211300   4.416   4.191   1.831 -0.3184 -0.9094  1.1593
  421SOL     OW11301   3.071   0.819   1.688  0.1081 -0.0534  0.2371
  421SOL    HW111302   3.010   0.783   1.759  0.1216  0.9697  0.7805
  421SOL    HW211303   3.075   0.919   1.695  0.3513  0.0331 -1.0170
  422SOL     OW11304   1.524   3.151   2.638  0.2781 -0.1322  0.4228
  422SOL    HW111305   1.594   3.079   2.635 -1.1604 -1.5602  0.0676
  422SOL    HW211306   1.515   3.186   2.731  2.3731  1.0189  0.2332
  423SOL     OW11307   2.123   4.122   2.609  0.2742 -0.1940 -0.1936
  423SOL    HW111308   2.165   4.031   2.614  0.3346 -0.1612 -0.1025
  423SOL    HW211309   2.068   4.138   2.691  1.5285  0.4734  0.5357
  424SOL     OW11310   4.367   2.148   1.818 -0.2038  0.1850  0.8615
  424SOL    HW111311   4.363   2.055   1.779  0.3476  0.0843  1.0317
  424SOL    HW211312   4.289   2.162   1.878  0.1168 -0.4451  1.4287
  425SOL     OW11313   9.968   4.023   1.886  0.3532 -0.4138 -0.4418
  425SOL    HW111314  10.019   3.938   1.871  0.5842  0.0927 -2.6823
  425SOL    HW211315  10.029   4.101   1.879 -0.6757  0.1935 -3.0505
  426SOL     OW11316   2.924   0.940   2.172 -0.2256  0.1059 -0.1488
  426SOL    HW111317   2.901   0.997   2.251  0.2695 -0.0676  0.1232
  426SOL    HW211318   2.859   0.864   2.165  0.3484 -0.4804  0.7177
  427SOL     OW11319   3.335  10.631   2.594 -0.8849 -0.5877 -0.2514
  427SOL    HW111320   3.308  10.541   2.629 -0.8982  0.3271  2.2303
  427SOL    HW211321   3.435  10.636   2.590 -0.8870 -0.7618 -0.5140
  428SOL     OW11322   1.599   4.817   1.052 -0.1546  0.2442  0.5094
  428SOL    HW111323   1.553   4.873   1.120  0.8911  1.3435  0.3309
  428SOL    HW211324   1.561   4.835   0.961 -2.2512 -1.9745  0.9079
  429SOL     OW11325   9.517   5.700   1.556 -0.0123 -0.2937  0.0608
  429SOL    HW111326   9.529   5.625   1.622 -0.9007  1.0466  1.7711
  429SOL    HW211327   9.423   5.700   1.523 -0.2450  0.5863  0.7110
  430SOL     OW11328   3.011   4.515   0.189 -0.2172 -0.0874 -0.3105
  430SOL    HW111329   3.076   4.448   0.223 -1.2597 -0.9929 -0.0783
  430SOL    HW211330   2.992   4.497   0.092 -0.9936 -0.5412 -0.0793
  431SOL     OW11331   3.429   5.310   0.893 -0.6125 -0.5287 -0.1306
  431SOL    HW111332   3.407   5.395   0.845 -0.2581 -0.3632 -0.0022
  431SOL    HW211333   3.385   5.310   0.983  0.1516 -0.0590  0.2547
  432SOL     OW11334  10.115   3.795   0.145 -0.3160 -0.0607 -0.2596
  432SOL    HW111335  10.124   3.817   0.048  0.5168 -0.9711 -0.3965
  432SOL    HW211336  10.179   3.721   0.168  0.0593  0.6976  1.1564
  433SOL     OW11337  10.294   2.464   1.494 -0.5400  0.7889  0.3139
  433SOL    HW111338  10.204   2.497   1.466 -1.7570 -1.0496  1.9254
  433SOL    HW211339  10.306   2.370   1.461  1.3788  1.4971 -1.0924
  434SOL     OW11340   3.274   4.227   2.273  0.3509 -0.4177  0.5440
  434SOL    HW111341   3.288   4.130   2.251  2.6963 -0.4459  1.9951
  434SOL    HW211342   3.309   4.245   2.365  0.2853  1.9115  0.1370
  435SOL     OW11343   3.170  10.498   1.899  0.2033 -0.2055  0.1685
  435SOL    HW111344   3.174  10.525   1.996 -1.4958  1.4597 -0.1989
  435SOL    HW211345   3.219  10.565   1.844  1.0136 -1.0594 -0.1742
  436SOL     OW11346   1.506   2.683   1.364 -0.3147 -0.4533 -0.0045
  436SOL    HW111347   1.493   2.647   1.456  0.5557 -0.0725  0.2743
  436SOL    HW211348   1.585   2.638   1.322  0.6231  0.9498  0.2483
  437SOL     OW11349   2.218   7.647   2.552  0.5524 -0.0429 -0.1204
  437SOL    HW111350   2.138   7.688   2.595 -0.3512 -1.2677 -0.5995
  437SOL    HW211351   2.264   7.714   2.494  0.7834  1.1116  1.3895
  438SOL     OW11352   1.603   3.241   0.973 -0.2483  0.6161  0.0984
  438SOL    HW111353   1.648   3.274   0.890 -0.8613  0.9920 -0.0928
  438SOL    HW211354   1.638   3.151   0.997  0.2046  0.6692 -0.3597
  439SOL     OW11355   1.835   8.538   1.827 -0.3291  0.8322 -0.6301
  439SOL    HW111356   1.744   8.504   1.803 -0.1867  0.8987 -1.2751
  439SOL    HW211357   1.871   8.593   1.751  0.9722 -0.6297 -1.0791
  440SOL     OW11358   9.180   2.675   1.335  0.3492 -0.0475 -0.1777
  440SOL    HW111359   9.199   2.740   1.408  2.0384 -0.4036 -0.2763
  440SOL    HW211360   9.084   2.682   1.308  0.0241  0.9713  1.1976
  441SOL     OW11361  10.398   4.663   2.468  0.6433  0.2596 -0.0018
  441SOL    HW111362  10.386   4.665   2.368 -0.9082 -1.3388  0.1350
  441SOL    HW211363  10.421   4.571   2.497  0.4468  0.5819  1.1920
  442SOL     OW11364   2.131   4.473   1.335  0.3463 -0.4304  0.2782
  442SOL    HW111365   2.208   4.521   1.293  0.3308  0.5336  1.3309
  442SOL    HW211366   2.154   4.448   1.429 -0.8815  0.5613  0.8729
  443SOL     OW11367   2.623   9.220   1.506 -0.1612  0.1441 -0.0782
  443SOL    HW111368   2.551   9.172   1.456 -0.5005 -1.9965  2.3411
  443SOL    HW211369   2.708   9.218   1.453 -0.9274 -0.6182 -1.2946
  444SOL     OW11370   3.621   1.988   1.321  0.4044  0.0912 -0.3185
  444SOL    HW111371   3.703   1.931   1.331  0.8697  0.5827 -1.2897
  444SOL    HW211372   3.545   1.932   1.289  0.5899 -0.1884 -0.2730
  445SOL     OW11373   4.406   1.798   1.918 -0.0503 -0.2615 -0.4110
  445SOL    HW111374   4.401   1.815   1.820  1.5715  1.7039 -0.1728
  445SOL    HW211375   4.354   1.868   1.967  1.1699  0.2154  0.2359
  446SOL     OW11376   2.213   6.837   0.960  0.4346 -0.3242  0.1316
  446SOL    HW111377   2.117   6.841   0.933  0.8690  2.7734 -1.1853
  446SOL    HW211378   2.219   6.827   1.059 -1.1910 -3.0987  0.0139
  447SOL     OW11379   0.861   7.161   1.284  0.7580  0.0138 -0.2481
  447SOL    HW111380   0.792   7.184   1.216  0.5105 -0.0814 -0.0319
  447SOL    HW211381   0.936   7.225   1.278 -0.0499  1.0478  0.5258
  448SOL     OW11382   4.243   9.645   0.924  0.3507 -0.7766  0.0469
  448SOL    HW111383   4.261   9.631   0.827 -1.0039 -1.8859 -0.0629
  448SOL    HW211384   4.278   9.567   0.977 -0.2603 -0.9037  0.2762
  449SOL     OW11385   3.127   9.370   2.490 -0.0479 -0.4821 -0.1499
  449SOL    HW111386   3.149   9.306   2.417 -1.9483 -1.6502  0.2684
  449SOL    HW211387   3.207   9.382   2.549  0.5720 -1.8824 -0.6811
  450SOL     OW11388   3.352   8.208   1.598  0.2709  0.8217 -0.2151
  450SOL    HW111389   3.341   8.112   1.570  0.5841  0.9582 -0.8227
  450SOL    HW211390   3.424   8.214   1.667 -0.7754  0.4298  0.9341
  451SOL     OW11391   9.914   1.790   1.355 -0.1762  0.3229  0.3234
  451SOL    HW111392   9.878   1.878   1.322 -0.2777 -0.8055 -2.7186
  451SOL    HW211393   9.909   1.723   1.281  0.0670 -2.2135  2.5726
  452SOL     OW11394   5.139   3.768   2.102  0.1061  0.4165  0.3294
  452SOL    HW111395   5.235   3.772   2.073 -0.0465 -1.7563 -0.5818
  452SOL    HW211396   5.132   3.723   2.191 -0.1299 -0.3264 -0.0550
  453SOL     OW11397   2.580   6.834   1.091 -0.7349  0.4346  0.9105
  453SOL    HW111398   2.548   6.925   1.064  2.4203  1.3126 -0.0742
  453SOL    HW211399   2.556   6.768   1.020  1.9567  1.5782 -1.1384
  454SOL     OW11400   1.274   0.914   1.305 -0.4557 -0.0418 -0.1509
  454SOL    HW111401   1.355   0.928   1.248 -1.9371 -2.0482 -2.8782
  454SOL    HW211402   1.197   0.964   1.266 -0.9829  0.4050  1.4212
  455SOL     OW11403   2.875   3.894   2.142  0.7128  0.3565 -0.1599
  455SOL    HW111404   2.863   3.904   2.241  1.2577 -0.8512  0.0440
  455SOL    HW211405   2.793   3.852   2.103  1.1576 -0.7171  0.0435
  456SOL     OW11406   1.258   1.832   1.191 -0.1898  0.2234  0.6819
  456SOL    HW111407   1.229   1.834   1.095  0.5126  0.5638  0.4770
  456SOL    HW211408   1.200   1.895   1.243 -0.5007  0.1235  0.4618
  457SOL     OW11409   4.404   3.842   1.927  0.3113  0.6223 -0.0555
  457SOL    HW111410   4.387   3.874   1.834  0.0421  0.8325  0.0698
  457SOL    HW211411   4.399   3.918   1.991 -0.3801  0.3209  0.2471
  458SOL     OW11412   2.925   9.036   2.298  0.0940 -0.0415  0.0726
  458SOL    HW111413   2.890   9.076   2.383 -1.6258  2.5062 -1.7553
  458SOL    HW211414   2.986   9.101   2.253  0.5106 -1.1287 -0.9701
  459SOL     OW11415   1.604   4.556   2.397  0.5855  0.6017 -0.4206
  459SOL    HW111416   1.649   4.548   2.308  0.6337 -0.1168 -0.3333
  459SOL    HW211417   1.538   4.632   2.395 -0.0454  0.0323 -1.3397
  460SOL     OW11418   3.060   2.939   2.622  0.4939  0.0213  0.1842
  460SOL    HW111419   3.128   3.000   2.662  0.8780  1.2508 -2.2412
  460SOL    HW211420   2.979   2.937   2.680  1.4566  0.8790  1.5782
  461SOL     OW11421   4.661   3.964   2.530  0.3244 -0.2067 -0.2995
  461SOL    HW111422   4.672   3.946   2.628  0.0512  1.6199  0.0736
  461SOL    HW211423   4.749   3.988   2.490  0.1271  0.8447 -0.1187
  462SOL     OW11424  10.153   4.324   2.538 -0.4540 -0.0017  0.3176
  462SOL    HW111425  10.140   4.377   2.622 -0.1541 -0.0585  0.4004
  462SOL    HW211426  10.113   4.233   2.550 -0.6926  0.1006  0.2875
  463SOL     OW11427   1.563   4.162   0.659  0.1458 -0.4591 -0.2620
  463SOL    HW111428   1.617   4.134   0.739  0.4747  0.3495 -0.1983
  463SOL    HW211429   1.504   4.086   0.631 -0.1375 -0.6705  0.8838
  464SOL     OW11430   1.150   7.830   0.382  0.3141  0.4422 -0.2001
  464SOL    HW111431   1.179   7.773   0.305  3.2923 -0.0343  1.2051
  464SOL    HW211432   1.212   7.908   0.391 -1.4579  1.8144  0.2427
  465SOL     OW11433   4.419   1.842   1.392 -0.2140 -0.0383  0.0535
  465SOL    HW111434   4.341   1.872   1.337  0.1389  1.7250  0.4881
  465SOL    HW211435   4.485   1.916   1.399  1.0506 -1.1982  0.5105
  466SOL     OW11436   3.826   1.991   0.880  0.3750 -0.0460  0.2785
  466SOL    HW111437   3.772   2.060   0.832  0.3499  0.4363  1.0026
  466SOL    HW211438   3.870   1.931   0.813 -0.7739 -0.2297 -0.3249
  467SOL     OW11439   4.191   4.064   2.448  0.0827 -0.2204 -0.1870
  467SOL    HW111440   4.269   4.003   2.434  0.1675 -0.1798  0.1015
  467SOL    HW211441   4.224   4.157   2.464  0.0242 -0.4073  1.0796
  468SOL     OW11442   2.153   7.419   2.408  0.3787  0.1212  0.2952
  468SOL    HW111443   2.149   7.420   2.308 -0.3934 -1.1615  0.3026
  468SOL    HW211444   2.203   7.499   2.440 -3.1763  3.0075 -0.9572
  469SOL     OW11445   1.152   6.468   1.810  0.3347 -0.1580  0.4274
  469SOL    HW111446   1.208   6.453   1.728 -0.0864  2.4907 -0.3977
  469SOL    HW211447   1.169   6.395   1.876  1.9801 -1.3951 -1.3177
  470SOL     OW11448   4.608   3.356   0.323  0.2972 -0.1251 -0.0502
  470SOL    HW111449   4.516   3.320   0.340  0.4278 -0.8287 -0.7592
  470SOL    HW211450   4.667   3.281   0.292  1.2732  0.1991  1.0044
  471SOL     OW11451   2.874   3.787   1.251  0.4781 -0.3017  0.1028
  471SOL    HW111452   2.940   3.714   1.262 -1.4861 -1.8500  2.1466
  471SOL    HW211453   2.901   3.866   1.307  1.1694 -0.4910  0.0304
  472SOL     OW11454   2.460   0.937   0.900 -0.3759 -0.6058  0.1133
  472SOL    HW111455   2.497   0.875   0.831 -0.8555 -0.2727 -0.4488
  472SOL    HW211456   2.383   0.988   0.861  0.5977  1.0092  0.2768
  473SOL     OW11457   2.565   1.186   0.872  0.2801  0.4254  0.2206
  473SOL    HW111458   2.572   1.241   0.956  0.5249  0.2977  0.2858
  473SOL    HW211459   2.519   1.100   0.892  0.9044  0.1195  0.3637
  474SOL     OW11460   2.403   8.557   2.433 -0.3323 -0.3260  0.0544
  474SOL    HW111461   2.446   8.468   2.448  0.6419  0.1464  0.1354
  474SOL    HW211462   2.430   8.593   2.343 -1.7633 -0.6944 -0.5223
  475SOL     OW11463   3.583   8.247   1.368  0.4463  0.0547 -0.1317
  475SOL    HW111464   3.663   8.263   1.311  1.7386 -0.0410  1.6411
  475SOL    HW211465   3.572   8.322   1.433 -1.3905  0.4790 -0.8863
  476SOL     OW11466   3.142   9.418   0.926  0.2171 -0.3568 -0.5950
  476SOL    HW111467   3.185   9.439   0.839  2.2022 -0.1377  0.4171
  476SOL    HW211468   3.169   9.326   0.955 -1.8493 -1.1398 -1.0362
  477SOL     OW11469   1.454   8.241   0.753 -0.3671 -0.0512  0.3681
  477SOL    HW111470   1.466   8.150   0.712  0.6235 -0.2066  0.9787
  477SOL    HW211471   1.402   8.299   0.690 -1.0611 -1.0519 -0.0084
  478SOL     OW11472   2.895   3.589   2.407 -0.9396  0.0646 -0.3407
  478SOL    HW111473   2.866   3.586   2.502 -1.4277 -0.9971 -0.5082
  478SOL    HW211474   2.951   3.670   2.391 -1.4691  0.6378  0.6699
  479SOL     OW11475   3.962   8.316   0.605  0.1689 -0.3064 -0.2106
  479SOL    HW111476   4.015   8.239   0.572  2.2281  1.0064 -0.0491
  479SOL    HW211477   4.024   8.389   0.636 -1.7086  1.3802 -0.2952
  480SOL     OW11478   4.528   3.142   2.397  0.2993 -0.0436 -0.3482
  480SOL    HW111479   4.528   3.173   2.492  0.8693 -2.1692  0.3766
  480SOL    HW211480   4.448   3.179   2.350 -0.3839  0.4285  1.1573
  481SOL     OW11481   1.865  10.649   1.426  0.7268 -0.6835  0.3355
  481SOL    HW111482   1.917  10.667   1.342  1.6233 -0.9241  0.8330
  481SOL    HW211483   1.846  10.551   1.433  0.3001 -0.6118  0.2137
  482SOL     OW11484   3.316   7.943   2.347  0.2145 -0.6043  0.2229
  482SOL    HW111485   3.292   8.004   2.422  0.4745 -0.4600  0.1909
  482SOL    HW211486   3.414   7.953   2.327  0.1345 -0.6035 -0.1660
  483SOL     OW11487   3.509   1.403   0.134 -0.6713  0.2545  0.4846
  483SOL    HW111488   3.547   1.472   0.072  0.4011 -0.4687  0.3393
  483SOL    HW211489   3.514   1.313   0.092 -1.0380 -0.0782  1.1426
  484SOL     OW11490   2.466   6.069   2.548 -0.0188  0.3020  0.4152
  484SOL    HW111491   2.385   6.116   2.584 -0.7921  0.6411 -1.7141
  484SOL    HW211492   2.529   6.136   2.511  2.1632  0.2136  3.7165
  485SOL     OW11493  10.285   2.955   0.245  0.3307  0.6095  0.5827
  485SOL    HW111494  10.340   2.956   0.162  0.3935  0.9017  0.6303
  485SOL    HW211495  10.205   2.896   0.231  0.2945  0.7320  0.2863
  486SOL     OW11496   2.310   3.574   1.476 -0.1362  0.4629  0.0684
  486SOL    HW111497   2.261   3.540   1.395 -0.3058  0.4205  0.1897
  486SOL    HW211498   2.318   3.673   1.471  0.0495  0.4411 -0.1109
  487SOL     OW11499  10.216   5.938   1.609 -0.2587  0.5353  0.1256
  487SOL    HW111500  10.265   5.899   1.687 -0.5376  2.9689  1.5813
  487SOL    HW211501  10.273   5.934   1.527  1.1811  0.6135  1.1187
  488SOL     OW11502   2.052   6.199   0.837 -0.0790  0.8452  0.2839
  488SOL    HW111503   2.066   6.286   0.791  1.1437 -0.6401 -2.3046
  488SOL    HW211504   1.983   6.145   0.787  0.8969 -0.6071  0.4661
  489SOL     OW11505   0.699   6.292   1.947 -0.5469 -0.2701 -0.1055
  489SOL    HW111506   0.700   6.312   1.849 -1.5170 -1.7553 -0.4460
  489SOL    HW211507   0.626   6.226   1.967 -0.2088 -0.1705  1.5799
  490SOL     OW11508  10.479   5.331   0.404  0.8478 -0.0620  0.0885
  490SOL    HW111509  10.482   5.427   0.433  1.5392 -0.1053  0.1693
  490SOL    HW211510  10.564   5.286   0.431  0.1602 -0.9288  0.8353
  491SOL     OW11511   2.753   8.795   2.013 -0.2326 -0.3558  0.3239
  491SOL    HW111512   2.842   8.751   2.028  0.8175  1.4669 -0.3387
  491SOL    HW211513   2.705   8.748   1.939  0.5169 -0.9005  0.1699
  492SOL     OW11514   9.930   6.232   0.633  0.0481  0.1089 -0.0526
  492SOL    HW111515   9.837   6.207   0.606  0.3262 -0.4708 -0.4755
  492SOL    HW211516   9.950   6.191   0.722 -0.1056  0.2454  0.0454
  493SOL     OW11517   2.943   2.766   2.445 -0.3828 -0.2716  0.1863
  493SOL    HW111518   3.011   2.815   2.499  0.1346 -0.0445 -0.6629
  493SOL    HW211519   2.852   2.804   2.464  0.1370  1.8989 -1.3931
  494SOL     OW11520   2.589   4.588   0.536  0.4414  0.1356 -0.2370
  494SOL    HW111521   2.689   4.599   0.533  0.5450 -0.9711 -1.5474
  494SOL    HW211522   2.561   4.574   0.631  1.5349  0.4501  0.1498
  495SOL     OW11523   0.880   1.036   2.305 -0.0412 -0.0902 -0.6529
  495SOL    HW111524   0.888   1.135   2.321  0.5459 -0.0834 -0.9634
  495SOL    HW211525   0.830   0.994   2.381  0.9733  0.2365  0.2111
  496SOL     OW11526   1.024   8.283   2.407  0.3525  0.2837  0.2564
  496SOL    HW111527   0.978   8.202   2.371  0.7755  0.9737 -1.8501
  496SOL    HW211528   0.958   8.357   2.418  0.1182 -0.0894  1.4524
  497SOL     OW11529   0.933   4.841   0.322 -0.9519 -0.9761  0.4728
  497SOL    HW111530   0.912   4.749   0.291  0.8566 -1.3498  0.3448
  497SOL    HW211531   0.941   4.842   0.422 -1.5961 -0.8056  0.5325
  498SOL     OW11532   2.873   6.222   0.211 -0.0266 -0.3265  0.4213
  498SOL    HW111533   2.807   6.155   0.243 -1.1024 -0.7938 -2.5931
  498SOL    HW211534   2.957   6.176   0.184 -0.3862 -0.3587 -0.6648
  499SOL     OW11535  10.419   3.699   2.546  0.0845  0.3051 -0.5255
  499SOL    HW111536  10.363   3.629   2.502  0.7803 -0.3840 -0.3225
  499SOL    HW211537  10.511   3.664   2.562  0.0989  0.8448  0.6826
  500SOL     OW11538   2.930   5.812   0.447 -0.0389 -0.5388 -0.2487
  500SOL    HW111539   2.969   5.736   0.394 -1.3791 -1.7597  0.4724
  500SOL    HW211540   2.999   5.884   0.458  1.6936 -2.1943  0.1255
  501SOL     OW11541   4.919   3.389   0.100 -0.3848  0.2862  0.0682
  501SOL    HW111542   4.842   3.452   0.093 -0.1891  0.2534 -2.6948
  501SOL    HW211543   4.972   3.410   0.182 -3.5349  0.0441  2.2479
  502SOL     OW11544   2.704   3.173   1.782  0.0411  0.7792  0.1998
  502SOL    HW111545   2.641   3.154   1.707  0.1021 -0.2349  0.3964
  502SOL    HW211546   2.686   3.110   1.858  0.2455  1.5232  0.8801
  503SOL     OW11547   0.943   7.626   0.790  0.2415 -0.1707 -0.4797
  503SOL    HW111548   0.872   7.650   0.723  0.3813 -0.5294 -0.7635
  503SOL    HW211549   1.028   7.672   0.766  0.2735 -0.2461 -0.5119
  504SOL     OW11550   3.762   9.836   2.431 -0.1846  0.2690  0.0461
  504SOL    HW111551   3.768   9.890   2.515 -0.2517  0.2862  0.0391
  504SOL    HW211552   3.672   9.849   2.389  0.4916  1.7479 -1.0026
  505SOL     OW11553   2.518   1.168   0.108 -0.0494 -0.1922  0.2040
  505SOL    HW111554   2.611   1.203   0.094  0.8590 -3.0231 -1.2582
  505SOL    HW211555   2.506   1.142   0.204  0.6875  0.1952  0.4014
  506SOL     OW11556  10.501   2.288   2.141  0.0370 -0.0836 -0.2048
  506SOL    HW111557  10.450   2.363   2.099  1.0589  0.3666 -0.6596
  506SOL    HW211558  10.594   2.286   2.103  0.7154 -0.1863  1.4077
  507SOL     OW11559   3.427   7.434   0.782 -0.3660 -0.4739 -0.2663
  507SOL    HW111560   3.393   7.399   0.869 -0.5053  2.3185  0.8563
  507SOL    HW211561   3.350   7.448   0.719 -0.9191  2.1964  0.9334
  508SOL     OW11562   2.170   7.122   2.402 -0.1960  0.1756 -0.3050
  508SOL    HW111563   2.259   7.120   2.448 -0.6280  0.6318  0.5459
  508SOL    HW211564   2.131   7.213   2.409 -0.0543  0.3813 -1.9971
  509SOL     OW11565   9.428   2.679   2.688  0.4969 -0.1491  0.0004
  509SOL    HW111566   9.371   2.617   2.741  0.2729  1.8858  2.2605
  509SOL    HW211567   9.372   2.725   2.619  0.0919 -0.5030  0.0915
  510SOL     OW11568   3.462   2.582   1.286 -0.5694  0.5578 -0.3332
  510SOL    HW111569   3.529   2.608   1.217 -1.3547 -0.3280 -1.4398
  510SOL    HW211570   3.448   2.658   1.349  0.3298  1.2907 -1.0113
  511SOL     OW11571   0.625   2.230   1.228 -0.0114 -0.1533 -0.7264
  511SOL    HW111572   0.634   2.172   1.147  0.6000 -0.1869 -0.6417
  511SOL    HW211573   0.541   2.208   1.276 -0.7184  0.3316 -1.7212
  512SOL     OW11574   2.693   8.977   0.969 -0.8029 -0.0958  0.7969
  512SOL    HW111575   2.603   8.956   1.007 -1.4380  0.3499 -0.4432
  512SOL    HW211576   2.739   8.892   0.944 -1.8945 -0.2188 -0.8631
  513SOL     OW11577   2.976   4.535   1.290  0.0066 -0.0777 -0.3257
  513SOL    HW111578   2.991   4.440   1.318 -1.3664 -1.0550 -2.7854
  513SOL    HW211579   2.924   4.583   1.361  0.5723 -1.1799  0.8611
  514SOL     OW11580   4.819   2.870   0.951  0.0715 -0.5274  0.0888
  514SOL    HW111581   4.911   2.850   0.918  0.7427  1.2345  0.8142
  514SOL    HW211582   4.778   2.941   0.895  0.2180  0.6315  1.4320
  515SOL     OW11583   0.602   2.583   1.488  0.3630 -0.0972 -0.2645
  515SOL    HW111584   0.583   2.502   1.542  1.5326 -0.1295  0.1171
  515SOL    HW211585   0.603   2.559   1.391  0.5541 -0.5043 -0.1621
  516SOL     OW11586   3.438   1.726   1.562  0.3910  0.0056  0.0483
  516SOL    HW111587   3.480   1.657   1.504 -0.5576  1.2774 -2.2263
  516SOL    HW211588   3.477   1.816   1.540 -0.0020  0.5121  1.3736
  517SOL     OW11589   3.608   2.595   2.192  0.7482  0.2561 -0.0802
  517SOL    HW111590   3.529   2.655   2.190  0.3141 -0.2972  0.1682
  517SOL    HW211591   3.591   2.515   2.135  0.6889 -0.3903  0.8206
  518SOL     OW11592   2.324   2.125   0.421  0.1968 -0.3103 -0.1657
  518SOL    HW111593   2.320   2.070   0.337  0.4555  0.4471 -0.6776
  518SOL    HW211594   2.405   2.183   0.418  0.1557 -0.2137  0.5743
  519SOL     OW11595  10.030   1.594   2.633  0.0040  0.0286  0.0998
  519SOL    HW111596  10.053   1.506   2.676 -2.4904 -0.8508 -0.2638
  519SOL    HW211597  10.078   1.668   2.681  0.9503 -1.3706  1.3753
  520SOL     OW11598   1.225  10.162   0.195  0.6828  0.6613 -0.1746
  520SOL    HW111599   1.212  10.063   0.188  1.3118  0.5367  0.3860
  520SOL    HW211600   1.137  10.206   0.208  0.2464  0.2933 -1.7209
  521SOL     OW11601   3.182   1.640   0.953 -0.7322 -0.2844 -0.2327
  521SOL    HW111602   3.217   1.711   0.892  0.9923 -0.3652  0.6359
  521SOL    HW211603   3.153   1.682   1.039  2.0104 -0.8054  0.9995
  522SOL     OW11604   2.861   4.269   1.383  0.7612 -0.0269  0.4868
  522SOL    HW111605   2.882   4.318   1.468 -1.2734 -0.2862  1.1659
  522SOL    HW211606   2.769   4.292   1.354  0.6021 -1.7297 -0.4119
  523SOL     OW11607   1.395   4.908   0.152  0.1105  0.6342  0.2840
  523SOL    HW111608   1.300   4.934   0.135 -0.0097 -0.2718 -0.4428
  523SOL    HW211609   1.441   4.981   0.204 -0.9486  1.1115  0.5561
  524SOL     OW11610   0.675   3.561   2.190  0.4479  0.8024  0.0066
  524SOL    HW111611   0.592   3.558   2.134  1.1276 -0.0482 -0.9754
  524SOL    HW211612   0.693   3.471   2.229  0.3244  1.2419  1.1075
  525SOL     OW11613   1.876   6.078   1.725 -0.2500 -0.3617  0.4058
  525SOL    HW111614   1.844   6.018   1.798  0.1260 -0.7773  0.2233
  525SOL    HW211615   1.816   6.069   1.645  0.2114 -0.9909  0.1359
  526SOL     OW11616   4.896   1.412   1.883 -0.1587 -0.0622 -0.1591
  526SOL    HW111617   4.923   1.505   1.856  0.0497 -0.5078 -1.5106
  526SOL    HW211618   4.806   1.414   1.925 -0.6131  0.6031 -1.1656
  527SOL     OW11619   9.574   4.719   2.233  0.4752  0.7829  0.3108
  527SOL    HW111620   9.622   4.804   2.214  0.8781  0.6176  0.5738
  527SOL    HW211621   9.632   4.641   2.209  0.3195  0.5807  0.5787
  528SOL     OW11622  10.523   0.954   2.524 -1.0849  0.5331 -0.0863
  528SOL    HW111623  10.585   0.923   2.596  0.3929 -1.7671 -2.2706
  528SOL    HW211624  10.479   0.875   2.481 -3.0739  1.9520 -0.7404
  529SOL     OW11625   2.221   4.920   0.535  0.7337  0.9749 -0.3003
  529SOL    HW111626   2.241   5.003   0.586  0.0139  0.0386  1.5780
  529SOL    HW211627   2.193   4.848   0.599  0.0693 -0.3224 -2.0120
  530SOL     OW11628   1.125   9.643   2.373  0.3597 -0.1107  0.2056
  530SOL    HW111629   1.212   9.638   2.324  0.6508 -1.8714  0.8819
  530SOL    HW211630   1.050   9.622   2.310  0.4890  0.5589 -0.1754
  531SOL     OW11631   3.020   4.185   2.428 -0.9418 -0.2625  0.6480
  531SOL    HW111632   3.113   4.218   2.413 -1.3542  0.9387  0.6600
  531SOL    HW211633   3.022   4.088   2.451  0.4081  0.0409  1.8759
  532SOL     OW11634   8.411   2.836   0.507  0.4068  0.0979 -0.3270
  532SOL    HW111635   8.455   2.909   0.559  1.2467 -0.0246 -0.8541
  532SOL    HW211636   8.464   2.817   0.424 -0.1954 -0.6117 -0.5597
  533SOL     OW11637   9.266   2.732   2.123  0.0536 -0.6073 -0.1166
  533SOL    HW111638   9.277   2.694   2.215 -0.7317  0.3888  0.3932
  533SOL    HW211639   9.169   2.727   2.097  0.2634 -0.8180 -0.8639
  534SOL     OW11640   8.592   2.708   0.324  0.4652 -0.3655 -0.1475
  534SOL    HW111641   8.650   2.783   0.293 -0.0221 -0.3212 -0.9627
  534SOL    HW211642   8.648   2.637   0.367  0.8566  0.7709  1.2386
  535SOL     OW11643  10.595   6.520   2.620  0.2212  0.1672  0.0054
  535SOL    HW111644  10.622   6.517   2.716  0.5193 -0.0166 -0.0858
  535SOL    HW211645  10.663   6.473   2.564  0.4485  0.9623 -0.3937
  536SOL     OW11646   3.278   7.583   0.284 -0.2653 -0.0258  0.5520
  536SOL    HW111647   3.323   7.582   0.373 -1.1611 -0.5007  1.0064
  536SOL    HW211648   3.341   7.550   0.214  0.0172 -0.9178  1.2245
  537SOL     OW11649   0.986   8.895   1.025 -0.1816  0.5452 -0.4370
  537SOL    HW111650   0.963   8.844   0.942  0.3729 -0.7811  0.1994
  537SOL    HW211651   1.041   8.837   1.085  0.3915  1.8931  0.3516
  538SOL     OW11652  10.243   2.305   1.195 -0.4200 -0.0207  0.2891
  538SOL    HW111653  10.265   2.402   1.195 -0.4991  0.0425  3.3406
  538SOL    HW211654  10.175   2.285   1.125  0.4378  1.9105 -1.1136
  539SOL     OW11655   2.755   2.172   0.228 -0.5726  0.3137 -0.0689
  539SOL    HW111656   2.679   2.215   0.276 -0.4775  2.1201 -1.4843
  539SOL    HW211657   2.726   2.145   0.136  0.3219  0.5050 -0.4138
  540SOL     OW11658   1.681   0.910   1.410  0.3931  0.1914 -0.2107
  540SOL    HW111659   1.697   0.841   1.480  0.3758  2.1441  1.7865
  540SOL    HW211660   1.769   0.952   1.384  0.1051  1.4504  0.7771
  541SOL     OW11661  10.311   5.031   2.628  0.7186 -0.2522  0.1308
  541SOL    HW111662  10.222   5.051   2.670  0.1709  0.5274 -1.3786
  541SOL    HW211663  10.382   5.035   2.699 -0.3007  0.2404  1.1466
  542SOL     OW11664  10.214   3.484   2.706  0.1650 -0.2003 -0.3700
  542SOL    HW111665  10.228   3.390   2.735  1.1055 -0.4474 -1.5833
  542SOL    HW211666  10.214   3.544   2.786  0.1251 -1.1532  0.3584
  543SOL     OW11667   1.084   5.803   1.074  0.3807 -0.2040  0.2001
  543SOL    HW111668   1.114   5.896   1.053  1.0556 -0.3797  0.3652
  543SOL    HW211669   1.074   5.751   0.989 -1.3588  0.4148  0.0011
  544SOL     OW11670   1.226   3.376   0.983 -0.6465 -0.4121 -0.2334
  544SOL    HW111671   1.172   3.460   0.981 -1.5585 -1.0332 -2.5881
  544SOL    HW211672   1.176   3.305   1.033  0.5506  0.6581  2.6418
  545SOL     OW11673   2.265   4.388   1.552 -0.2920 -0.0199  0.4168
  545SOL    HW111674   2.190   4.385   1.618 -3.0114 -1.2496 -2.6067
  545SOL    HW211675   2.297   4.295   1.534  1.6854  0.4531  1.2963
  546SOL     OW11676   2.024   4.936   2.293 -0.0994 -0.4775  0.4867
  546SOL    HW111677   1.965   4.855   2.285 -2.2387  1.1289 -0.7129
  546SOL    HW211678   2.040   4.974   2.202 -0.1552  1.1743  1.1593
  547SOL     OW11679   4.579   3.950   0.616 -0.2056 -0.1965 -0.7389
  547SOL    HW111680   4.495   3.910   0.580 -1.0849 -0.6648  1.7465
  547SOL    HW211681   4.647   3.878   0.631 -0.6940 -0.3668  0.7710
  548SOL     OW11682  10.025   5.677   0.959 -0.1602  0.0564  0.2124
  548SOL    HW111683   9.977   5.713   1.039  1.2198  0.3584  0.9132
  548SOL    HW211684   9.959   5.661   0.885 -1.7841 -2.1276  2.0570
  549SOL     OW11685   1.908   5.086   1.581  0.1007 -0.4523 -0.1604
  549SOL    HW111686   1.953   5.034   1.508 -3.0282 -0.2165 -2.3424
  549SOL    HW211687   1.876   5.173   1.546  0.4079  0.5978  2.0741
  550SOL     OW11688   0.728   5.039   1.713  0.2701 -0.2160  0.0997
  550SOL    HW111689   0.738   5.079   1.804  1.6266  1.4567 -0.7519
  550SOL    HW211690   0.685   5.106   1.652  2.0914 -0.2073 -1.2144
  551SOL     OW11691   4.110  10.488   1.454 -0.1893 -0.2137  0.1348
  551SOL    HW111692   4.073  10.575   1.488 -2.3738 -1.1622  0.2809
  551SOL    HW211693   4.141  10.500   1.360 -1.4962  0.4826 -0.2258
  552SOL     OW11694   3.139   3.581   0.489 -0.3904 -0.5421  0.2020
  552SOL    HW111695   3.201   3.575   0.567  1.9702 -2.1163 -1.7153
  552SOL    HW211696   3.142   3.674   0.451 -0.2026 -0.2489  0.9335
  553SOL     OW11697   1.935   6.745   1.002  0.3813 -0.1125 -0.3381
  553SOL    HW111698   1.886   6.774   0.919 -0.8270 -0.0417  0.3873
  553SOL    HW211699   1.941   6.646   1.005 -2.0769 -0.2692  0.8605
  554SOL     OW11700   2.520   3.605   2.475 -0.1735 -0.2054 -0.1511
  554SOL    HW111701   2.446   3.644   2.420  0.1283 -0.8168 -0.9944
  554SOL    HW211702   2.503   3.508   2.490 -0.1789 -0.0715  0.7147
  555SOL     OW11703   2.652   7.534   1.128 -0.0326  0.1325 -0.2025
  555SOL    HW111704   2.626   7.469   1.200  4.1720 -0.0681  1.2489
  555SOL    HW211705   2.659   7.626   1.166 -0.9431  0.5896 -1.1112
  556SOL     OW11706   2.352   9.910   0.743 -0.5660 -0.0710 -0.5442
  556SOL    HW111707   2.336   9.827   0.688  1.0679 -0.9378  0.2470
  556SOL    HW211708   2.369   9.883   0.838  2.6564  0.9435 -0.7779
  557SOL     OW11709   2.812   3.299   2.305  0.1322 -0.1099  0.7092
  557SOL    HW111710   2.761   3.349   2.375  0.4158 -0.8962  1.4865
  557SOL    HW211711   2.906   3.285   2.335 -0.1568 -1.8156  0.8559
  558SOL     OW11712   0.861   6.484   2.110 -0.4868  0.0099  0.3071
  558SOL    HW111713   0.814   6.412   2.060 -1.6401  0.4251  0.7714
  558SOL    HW211714   0.804   6.514   2.186  0.1543  1.1433  0.3501
  559SOL     OW11715   4.310   0.909   2.293  0.4257 -0.1008  0.1312
  559SOL    HW111716   4.268   0.884   2.380 -0.7679 -2.9182 -1.1827
  559SOL    HW211717   4.393   0.856   2.279  0.6991  0.4543 -0.3692
  560SOL     OW11718   2.559   3.233   0.427  0.2902  0.7783 -0.1286
  560SOL    HW111719   2.500   3.296   0.476 -0.2302  1.7681 -1.9841
  560SOL    HW211720   2.613   3.283   0.359 -1.3266 -0.9406 -2.7704
  561SOL     OW11721   1.767   8.312   0.299  0.0415  0.3479  0.4330
  561SOL    HW111722   1.866   8.306   0.298 -0.0814 -1.8211 -1.7393
  561SOL    HW211723   1.730   8.253   0.371  0.3030  1.0284  1.1311
  562SOL     OW11724   2.123   3.121   2.688 -0.2924  0.0676 -0.1680
  562SOL    HW111725   2.168   3.193   2.741  0.6766 -0.9952  0.4968
  562SOL    HW211726   2.138   3.137   2.590  0.0602  0.6686 -0.0189
  563SOL     OW11727   3.120   6.300   1.842 -0.1701 -0.2625 -0.4705
  563SOL    HW111728   3.124   6.282   1.940  0.1417  2.0984 -0.0108
  563SOL    HW211729   3.111   6.399   1.827  1.2252 -0.4505 -2.8424
  564SOL     OW11730   1.182   5.679   0.202 -0.2874 -0.1960  0.3450
  564SOL    HW111731   1.095   5.727   0.186  0.7024  1.1060 -1.2674
  564SOL    HW211732   1.196   5.610   0.131  0.7017  0.6357 -0.2799
  565SOL     OW11733   9.222   4.436   1.787  0.3266  0.4041 -0.1676
  565SOL    HW111734   9.205   4.518   1.841  0.5161  1.8843 -2.3009
  565SOL    HW211735   9.167   4.439   1.703  0.4330 -1.5868 -0.3340
  566SOL     OW11736   2.088   5.127   2.478 -0.0658 -0.0127  0.0441
  566SOL    HW111737   2.016   5.129   2.548  0.1305  0.4510  0.2360
  566SOL    HW211738   2.063   5.061   2.407 -0.9823  0.5843 -0.2102
  567SOL     OW11739   3.234   4.370   1.259 -0.0227  0.2309  0.3521
  567SOL    HW111740   3.333   4.354   1.259 -0.0337  0.1633  0.4574
  567SOL    HW211741   3.212   4.438   1.190 -0.0367 -0.5754 -0.4529
  568SOL     OW11742   2.937   5.282   2.522  0.2719  0.1376  0.0114
  568SOL    HW111743   2.929   5.184   2.542 -0.5645 -0.6767 -3.7704
  568SOL    HW211744   3.025   5.316   2.554  1.5714 -2.4522 -0.6487
  569SOL     OW11745   1.293   5.049   1.501 -0.3565  0.0663 -0.0191
  569SOL    HW111746   1.264   4.987   1.427 -0.1905  0.9726 -0.8501
  569SOL    HW211747   1.393   5.054   1.503 -0.3797  0.5821 -0.1782
  570SOL     OW11748  10.589   3.229   0.160  0.4883  0.0345  0.4678
  570SOL    HW111749  10.559   3.196   0.249 -0.1632  1.4461  0.7992
  570SOL    HW211750  10.597   3.329   0.163  1.7762 -0.0237 -0.6682
  571SOL     OW11751   3.804   4.385   2.631 -0.5634 -0.2336  0.4289
  571SOL    HW111752   3.719   4.337   2.652 -1.4370  1.4689  0.9235
  571SOL    HW211753   3.859   4.394   2.713 -0.3173 -0.5626  0.2991
  572SOL     OW11754   2.461   6.369   1.165  0.1025  0.4256  0.0225
  572SOL    HW111755   2.508   6.353   1.078  0.0136  1.0734 -0.1482
  572SOL    HW211756   2.527   6.365   1.240  0.4005  1.1193 -0.1947
  573SOL     OW11757   3.576   1.981   0.267 -0.3234  0.1631 -0.4844
  573SOL    HW111758   3.500   2.030   0.224 -0.5062 -0.0294 -0.3831
  573SOL    HW211759   3.560   1.975   0.366 -1.1792 -1.6488 -0.7117
  574SOL     OW11760   1.255   6.587   2.443  0.3596 -0.1725  0.5084
  574SOL    HW111761   1.164   6.623   2.464  0.7569  0.4590  1.1973
  574SOL    HW211762   1.289   6.630   2.360  0.4728  0.4186  0.8519
  575SOL     OW11763   5.426   3.470   1.670  0.3437  0.0094  0.5435
  575SOL    HW111764   5.424   3.379   1.629  1.4556  0.5848 -0.8329
  575SOL    HW211765   5.374   3.470   1.755 -1.5283 -1.3687 -0.5631
  576SOL     OW11766  10.074   5.157   0.218  0.0222  0.2863 -0.6682
  576SOL    HW111767   9.985   5.201   0.204  0.0074  0.8312  0.9632
  576SOL    HW211768  10.146   5.226   0.219  0.1139  0.2001  0.8613
  577SOL     OW11769   1.561   6.744   1.895  0.2017 -0.2642  0.0228
  577SOL    HW111770   1.636   6.811   1.897 -0.3034  0.2983  0.3425
  577SOL    HW211771   1.598   6.654   1.871  0.8883  0.1231 -0.4085
  578SOL     OW11772  10.366   3.639   2.037  0.4558 -0.5560  0.3738
  578SOL    HW111773  10.360   3.543   2.008  3.9176 -0.9037  0.5202
  578SOL    HW211774  10.435   3.686   1.982 -0.1601  1.4608  1.2786
  579SOL     OW11775   2.202  10.232   2.474 -0.2029 -0.5838 -0.0719
  579SOL    HW111776   2.186  10.309   2.536 -0.8818 -0.0840 -0.8704
  579SOL    HW211777   2.115  10.202   2.435  0.2481 -0.8169 -0.8908
  580SOL     OW11778   4.492   3.585   0.523 -0.0013  0.2540  0.5183
  580SOL    HW111779   4.472   3.510   0.586 -1.4765  1.3967  1.4546
  580SOL    HW211780   4.581   3.624   0.545 -0.3027  0.3459  1.6282
  581SOL     OW11781   1.235   5.471   2.647  0.3751  0.2509  0.7600
  581SOL    HW111782   1.313   5.414   2.620 -0.2360 -0.8790  1.3319
  581SOL    HW211783   1.168   5.473   2.574  1.2070  1.7362  0.0176
  582SOL     OW11784  10.050   2.171   2.228  0.0710 -0.2687  0.9593
  582SOL    HW111785   9.997   2.104   2.280 -2.1998  0.9717  0.3298
  582SOL    HW211786  10.071   2.134   2.137 -1.4953 -0.0226  0.4780
  583SOL     OW11787   4.726   2.102   0.726  0.0223  0.3107 -0.5037
  583SOL    HW111788   4.641   2.153   0.736  1.8064  3.3004 -0.1746
  583SOL    HW211789   4.769   2.125   0.638  1.6368  0.6120  0.3401
  584SOL     OW11790   3.203   5.137   2.139 -0.2229  0.1097  0.4211
  584SOL    HW111791   3.275   5.167   2.202 -1.0431  1.4094  0.7380
  584SOL    HW211792   3.176   5.214   2.081 -0.0846 -0.8550 -0.9393
  585SOL     OW11793  10.012   4.926   2.712 -0.3955 -0.7871 -0.2608
  585SOL    HW111794  10.041   4.991   2.782  0.0632 -0.9397 -0.3046
  585SOL    HW211795   9.914   4.910   2.719 -0.9326  1.6026 -1.6472
  586SOL     OW11796   3.052   2.891   1.352  0.3283  0.3817 -0.1049
  586SOL    HW111797   3.055   2.833   1.433  2.0674  0.3066 -0.2085
  586SOL    HW211798   3.039   2.986   1.380 -1.2572  0.0964  0.1342
  587SOL     OW11799  10.146   3.575   1.478 -0.1090 -0.8557  0.3262
  587SOL    HW111800  10.073   3.591   1.544  1.1700  1.9060  1.1358
  587SOL    HW211801  10.117   3.606   1.388  0.0109  0.1268  0.6243
  588SOL     OW11802   1.406  10.416   2.501  0.0167 -0.1902 -0.2507
  588SOL    HW111803   1.447  10.390   2.413 -1.1698 -0.2978 -0.7867
  588SOL    HW211804   1.308  10.433   2.488 -0.5809 -2.1923  1.4488
  589SOL     OW11805   9.807   5.400   2.493  0.2030 -0.0200 -0.0217
  589SOL    HW111806   9.900   5.417   2.459 -0.2077 -1.6210 -1.9844
  589SOL    HW211807   9.747   5.474   2.462  0.5110  0.2510  0.0202
  590SOL     OW11808   4.321  10.466   1.650  0.9078  0.3298  0.2414
  590SOL    HW111809   4.263  10.469   1.568  1.6984 -1.9070 -0.4297
  590SOL    HW211810   4.341  10.559   1.679 -1.6248  1.1587 -0.5038
  591SOL     OW11811   2.502   9.660   2.343 -0.3149  0.1604  0.0556
  591SOL    HW111812   2.490   9.675   2.441 -0.8536 -0.1849  0.0417
  591SOL    HW211813   2.576   9.594   2.329  0.5560  1.0949  0.1875
  592SOL     OW11814   3.594   5.517   2.382 -0.1271 -0.2605  0.1566
  592SOL    HW111815   3.540   5.571   2.447 -0.9281  1.4448 -1.8467
  592SOL    HW211816   3.555   5.425   2.374 -1.0412  0.0591  0.8109
  593SOL     OW11817   0.915   2.108   0.590  0.1001  0.1029 -0.4020
  593SOL    HW111818   0.993   2.047   0.576  2.6753  2.8869  1.2187
  593SOL    HW211819   0.911   2.175   0.515  0.8203  1.5151  0.7924
  594SOL     OW11820   1.076   0.805   0.707 -0.0512  0.5002  0.3381
  594SOL    HW111821   1.003   0.873   0.715  0.0122  0.7545 -1.1878
  594SOL    HW211822   1.163   0.845   0.736 -0.2391  0.6517  0.7019
  595SOL     OW11823  10.514   4.863   1.378  0.2033  0.2074 -1.1919
  595SOL    HW111824  10.509   4.775   1.332 -0.0486 -0.8514  0.7844
  595SOL    HW211825  10.566   4.928   1.323  0.4332 -1.1941 -2.6323
  596SOL     OW11826   3.867   1.233   1.920  0.8437  0.0608  0.2396
  596SOL    HW111827   3.935   1.194   1.982  0.1856  0.1664  1.0352
  596SOL    HW211828   3.776   1.218   1.957  0.2774 -1.8809 -1.8122
  597SOL     OW11829   3.070   7.241   1.685 -0.1274 -1.0093 -0.1679
  597SOL    HW111830   3.069   7.220   1.783  0.1749  0.9122  0.2532
  597SOL    HW211831   2.976   7.255   1.653 -0.1051  0.0828  0.2307
  598SOL     OW11832   1.954   5.490   1.699 -0.0477 -0.7813 -0.2055
  598SOL    HW111833   1.922   5.556   1.767  1.1991 -0.2821 -0.0964
  598SOL    HW211834   1.881   5.425   1.680 -0.3807 -1.0010  1.7024
  599SOL     OW11835   2.801   1.165   1.746 -0.2201  0.2597  0.0303
  599SOL    HW111836   2.872   1.139   1.811  0.3633  0.1770 -0.6281
  599SOL    HW211837   2.788   1.091   1.680  0.7068  1.1799 -1.2283
  600SOL     OW11838  10.083   1.779   2.262 -0.5731  0.4207  0.2825
  600SOL    HW111839  10.179   1.751   2.262 -0.8793 -0.6351  0.2063
  600SOL    HW211840  10.057   1.811   2.171 -0.0938  1.4332  0.4885
  601SOL     OW11841   3.071   1.204   2.248  0.4327 -0.3023  0.4862
  601SOL    HW111842   3.124   1.240   2.171  0.6953 -1.0896  0.2928
  601SOL    HW211843   2.977   1.238   2.243  0.1418 -1.2629 -0.8285
  602SOL     OW11844   3.170   9.472   1.362  0.0168 -0.2866 -0.3629
  602SOL    HW111845   3.207   9.436   1.276  0.0606 -0.9036 -0.0877
  602SOL    HW211846   3.076   9.502   1.347  0.6140  1.2598 -1.0556
  603SOL     OW11847   0.957   4.866   2.032  0.7390  0.9750  0.1010
  603SOL    HW111848   1.022   4.808   2.081 -0.6441 -0.5902  0.1283
  603SOL    HW211849   0.949   4.954   2.079  1.5144  0.5243  1.1076
  604SOL     OW11850   1.391   6.898   2.061 -0.3227  0.0773 -0.3075
  604SOL    HW111851   1.430   6.984   2.093 -0.5529  0.4145 -0.9142
  604SOL    HW211852   1.445   6.863   1.984 -0.2025 -0.3442 -0.0329
  605SOL     OW11853   1.172   6.048   1.022  0.3406  0.2751  0.1333
  605SOL    HW111854   1.253   6.040   0.964  0.7483  1.6189  0.5053
  605SOL    HW211855   1.096   6.085   0.968 -0.4030 -2.0529 -0.5267
  606SOL     OW11856   2.614   9.516   1.537 -0.0159  0.4639  0.3183
  606SOL    HW111857   2.630   9.418   1.524  3.0823  0.9227  0.3207
  606SOL    HW211858   2.537   9.529   1.600 -0.9943 -1.9308 -0.2959
  607SOL     OW11859   2.034   4.719   1.067  0.0819 -0.5404 -0.3231
  607SOL    HW111860   1.953   4.727   1.125  0.1484 -1.5964 -0.0703
  607SOL    HW211861   2.020   4.770   0.982 -1.7244 -2.4992 -1.2419
  608SOL     OW11862   0.996   2.341   2.633 -0.1292  0.1624 -0.0109
  608SOL    HW111863   0.937   2.384   2.702  0.7791  1.0708  0.2015
  608SOL    HW211864   0.944   2.330   2.548 -0.8698  0.1811  0.4290
  609SOL     OW11865   1.304   6.668   2.190  0.1003  0.0708 -0.3748
  609SOL    HW111866   1.336   6.749   2.142  1.5878 -0.8353 -0.9204
  609SOL    HW211867   1.230   6.625   2.138 -0.4675  0.8864 -0.2456
  610SOL     OW11868   2.018   9.310   1.789  0.0437 -0.1314 -0.3090
  610SOL    HW111869   1.933   9.359   1.767  0.2452  0.8513  1.0872
  610SOL    HW211870   2.082   9.372   1.832  1.4487 -0.9133 -1.2287
  611SOL     OW11871   1.357   9.658   2.088 -0.0136 -0.3992  0.3022
  611SOL    HW111872   1.418   9.578   2.086  0.0857 -0.2885 -2.4575
  611SOL    HW211873   1.370   9.712   2.005 -2.2001  0.9174  0.7813
  612SOL     OW11874   1.998   3.563   2.127  1.0837  0.0829  0.2109
  612SOL    HW111875   1.966   3.471   2.103 -2.4880  1.7431 -1.7621
  612SOL    HW211876   1.980   3.580   2.224  1.4919 -1.1413  0.5183
  613SOL     OW11877   2.800   9.348   1.894 -0.5368 -0.4703 -0.5067
  613SOL    HW111878   2.712   9.394   1.890 -0.1003  0.4954  0.6749
  613SOL    HW211879   2.787   9.254   1.925 -1.3299 -0.8711 -2.0322
  614SOL     OW11880   2.034   8.798   2.235 -0.2657  0.2639  0.1641
  614SOL    HW111881   2.108   8.863   2.250  1.2480 -1.3059 -0.3913
  614SOL    HW211882   1.997   8.809   2.143  0.2401  0.0900 -0.0590
  615SOL     OW11883  10.557   4.562   0.986  0.3770 -0.3207 -0.0075
  615SOL    HW111884  10.543   4.468   0.957  1.4161 -0.4579 -0.0908
  615SOL    HW211885  10.615   4.610   0.919  0.6803  0.0862  0.5394
  616SOL     OW11886   0.860  10.246   2.539 -0.0522  0.2653  0.1854
  616SOL    HW111887   0.850  10.156   2.497  0.6225  0.0794  0.4171
  616SOL    HW211888   0.805  10.313   2.489  0.2680 -0.0709 -0.6194
  617SOL     OW11889   0.668   5.611   1.047  0.4782  0.0770  0.0763
  617SOL    HW111890   0.656   5.644   0.954 -1.4616 -0.4007  0.1465
  617SOL    HW211891   0.659   5.511   1.049  0.6366  0.0687  0.7495
  618SOL     OW11892   2.789   0.928   1.190 -0.0527  0.9730 -0.0040
  618SOL    HW111893   2.850   0.939   1.111  0.8758 -0.2221  0.5236
  618SOL    HW211894   2.756   0.833   1.193 -0.4214  1.1252  0.8097
  619SOL     OW11895   3.585   1.896   1.776  0.0952  0.0750 -0.1035
  619SOL    HW111896   3.624   1.820   1.828 -0.6805  0.2304  0.7146
  619SOL    HW211897   3.648   1.922   1.702  0.5352 -1.0997 -0.1443
  620SOL     OW11898   4.241   1.312   1.948 -0.1709 -0.1521 -0.5077
  620SOL    HW111899   4.239   1.390   2.011 -0.8176  0.7581 -1.6514
  620SOL    HW211900   4.177   1.242   1.979 -1.2957  0.7658 -0.7548
  621SOL     OW11901   2.887   3.095   0.299 -0.0803  0.3996  0.0679
  621SOL    HW111902   2.828   3.090   0.380  2.1949 -1.3448  1.6933
  621SOL    HW211903   2.952   3.170   0.311 -2.5573  3.0202 -2.2010
  622SOL     OW11904   2.459   1.467   2.652  0.3691  0.0728 -0.1339
  622SOL    HW111905   2.441   1.399   2.723  1.7433  0.2376  0.3884
  622SOL    HW211906   2.473   1.421   2.565 -0.5794 -0.1853 -0.1490
  623SOL     OW11907   2.715   2.596   1.810 -0.0258 -0.0211 -0.2166
  623SOL    HW111908   2.746   2.684   1.774 -0.7944  0.8665  1.2374
  623SOL    HW211909   2.753   2.522   1.755  1.1050  1.1989 -1.1062
  624SOL     OW11910   3.118   6.237   0.611  0.4375  0.1841  0.6528
  624SOL    HW111911   3.108   6.272   0.704 -2.4784 -0.1067  0.4945
  624SOL    HW211912   3.110   6.312   0.546 -0.8827 -0.0697  0.5136
  625SOL     OW11913   3.486   5.984   0.620  0.4039  0.0977  0.2514
  625SOL    HW111914   3.427   6.023   0.691  0.7572 -1.6294  1.5212
  625SOL    HW211915   3.440   5.991   0.531 -0.3751  1.5620  0.7487
  626SOL     OW11916   1.231   4.522   0.392  0.1791 -0.3574 -0.5693
  626SOL    HW111917   1.330   4.512   0.397  0.1649 -0.4257 -0.4163
  626SOL    HW211918   1.187   4.442   0.433  0.0626  0.9435  1.9576
  627SOL     OW11919   0.693   5.981   1.611  0.1277 -0.6366  0.2861
  627SOL    HW111920   0.758   5.968   1.686  0.2013 -1.6538  0.0564
  627SOL    HW211921   0.668   5.892   1.573 -2.3502 -0.3851  1.1726
  628SOL     OW11922   2.428   3.119   0.707  0.1112 -0.1794 -0.1826
  628SOL    HW111923   2.448   3.026   0.737 -1.1472 -0.3000  0.3470
  628SOL    HW211924   2.329   3.136   0.715  0.3585  1.2796 -0.0257
  629SOL     OW11925   3.805   2.746   2.661 -0.2311  0.1035 -0.0898
  629SOL    HW111926   3.850   2.786   2.581 -0.6274  2.0912  0.6710
  629SOL    HW211927   3.838   2.790   2.744 -0.4769 -1.3508  0.8034
  630SOL     OW11928   1.624   6.176   2.598 -0.0357  0.1826 -0.6394
  630SOL    HW111929   1.676   6.250   2.556  0.3839 -0.7827 -1.8627
  630SOL    HW211930   1.687   6.111   2.641 -0.3463  0.0818 -0.3338
  631SOL     OW11931   1.612   7.701   2.480 -0.6718 -0.1484  0.1833
  631SOL    HW111932   1.556   7.730   2.403 -0.9987 -0.1555  0.4198
  631SOL    HW211933   1.691   7.763   2.489 -1.2389  0.5292  0.5395
  632SOL     OW11934   1.221   3.184   0.571  0.2360 -0.3679 -0.4736
  632SOL    HW111935   1.189   3.271   0.532 -0.4936 -0.4570 -0.0757
  632SOL    HW211936   1.266   3.201   0.658  0.6812 -0.3223 -0.7069
  633SOL     OW11937   2.264   1.346   2.228 -0.2820  0.0264 -0.5322
  633SOL    HW111938   2.184   1.405   2.239 -1.0159 -1.0172 -0.2096
  633SOL    HW211939   2.294   1.349   2.133  0.6523  2.1276 -0.2156
  634SOL     OW11940   8.998   3.649   0.891  0.2056  0.0017 -0.3975
  634SOL    HW111941   8.943   3.725   0.925 -1.9781 -0.4934 -2.7350
  634SOL    HW211942   9.026   3.668   0.797 -0.0561 -1.9000 -0.8688
  635SOL     OW11943   1.487   3.459   0.210 -0.3972  0.0624  0.5597
  635SOL    HW111944   1.391   3.469   0.184 -0.5060 -0.9473  0.5409
  635SOL    HW211945   1.539   3.538   0.178 -0.9044 -0.2093 -0.9750
  636SOL     OW11946   2.046  10.292   0.745 -0.2303 -0.6243 -0.0551
  636SOL    HW111947   1.979  10.318   0.814  0.2391  0.8493 -0.1356
  636SOL    HW211948   2.045  10.359   0.671  2.2722  0.1972  0.6044
  637SOL     OW11949   4.649   1.904   2.214  0.0592  0.4729  0.2019
  637SOL    HW111950   4.705   1.822   2.202 -1.5427 -0.9396  2.1453
  637SOL    HW211951   4.707   1.985   2.211  1.7788 -0.7664 -0.8321
  638SOL     OW11952   2.281   1.304   1.235 -0.3930 -0.0255 -0.1769
  638SOL    HW111953   2.248   1.249   1.157  1.8504  0.3259 -1.4021
  638SOL    HW211954   2.298   1.398   1.204  2.3033 -0.3434  0.2754
  639SOL     OW11955  10.295   1.611   1.438 -0.2787  0.5929 -0.4464
  639SOL    HW111956  10.225   1.563   1.385  1.4285 -0.6963 -1.5842
  639SOL    HW211957  10.370   1.638   1.378  1.1960  0.0603  1.1093
  640SOL     OW11958   4.380   2.399   0.810 -0.3166 -0.5032 -0.7239
  640SOL    HW111959   4.391   2.430   0.904  1.0514 -1.5165 -0.5296
  640SOL    HW211960   4.414   2.305   0.801 -0.2353 -0.3502 -2.2636
  641SOL     OW11961   4.534   4.211   2.554  0.1008  0.1668  0.2286
  641SOL    HW111962   4.571   4.251   2.470 -0.7091  0.4729  0.0153
  641SOL    HW211963   4.566   4.117   2.564 -2.0842 -0.8314 -1.8724
  642SOL     OW11964   9.861   4.867   1.612  0.1744 -0.2283 -0.3129
  642SOL    HW111965   9.793   4.840   1.544  1.3695 -1.9480 -0.8745
  642SOL    HW211966   9.819   4.875   1.702 -1.2325  1.1264 -1.0658
  643SOL     OW11967   4.265  10.045   1.586  0.8266 -0.4131  0.4882
  643SOL    HW111968   4.316   9.987   1.523  0.2428  0.0994 -0.4761
  643SOL    HW211969   4.167  10.028   1.575  0.7462 -0.8215  1.7582
  644SOL     OW11970   2.768   6.574   2.422 -0.3064 -0.3201 -0.0393
  644SOL    HW111971   2.765   6.497   2.485 -1.3387  0.2431  0.6170
  644SOL    HW211972   2.677   6.590   2.385 -0.1809  0.8430  0.1407
  645SOL     OW11973   4.698   4.173   2.200 -0.5537  0.2420 -0.0834
  645SOL    HW111974   4.684   4.094   2.140 -0.5359 -1.1393  1.6777
  645SOL    HW211975   4.613   4.225   2.207 -0.1564  1.2820 -2.4513
  646SOL     OW11976   4.966   2.820   0.602  0.3170 -0.4743 -0.0255
  646SOL    HW111977   4.920   2.880   0.536  0.3555 -1.2438 -0.7582
  646SOL    HW211978   4.906   2.744   0.625  0.9725 -1.1373 -0.4942
  647SOL     OW11979   3.319   7.444   1.245  0.2887 -0.0943 -0.1224
  647SOL    HW111980   3.224   7.455   1.214  0.4363  0.3404 -0.4308
  647SOL    HW211981   3.320   7.417   1.341 -0.1367  0.4824  0.0510
  648SOL     OW11982   1.956   9.725   1.784 -0.1701 -0.4877 -0.1900
  648SOL    HW111983   1.898   9.804   1.803 -0.2905 -0.4195 -0.8317
  648SOL    HW211984   1.899   9.643   1.780 -0.1839 -0.4624 -0.5231
  649SOL     OW11985   3.696  10.624   0.460 -0.3563  0.7410  0.4443
  649SOL    HW111986   3.608  10.577   0.454  0.1192 -0.2482  1.0259
  649SOL    HW211987   3.770  10.557   0.450  0.3330  1.1911  2.2785
  650SOL     OW11988   4.749   2.163   1.661  0.6386  0.1960 -0.7921
  650SOL    HW111989   4.748   2.260   1.685  0.7899  0.4812 -1.9083
  650SOL    HW211990   4.765   2.153   1.562 -2.7134 -0.8486 -1.3121
  651SOL     OW11991   3.898   3.888   1.180 -0.4256  0.2075  0.0160
  651SOL    HW111992   3.889   3.881   1.280 -0.7658 -0.0165 -0.0284
  651SOL    HW211993   3.980   3.839   1.150 -1.6731 -1.9086 -0.0743
  652SOL     OW11994  10.051   0.735   0.856 -0.0632  0.8262 -0.1787
  652SOL    HW111995  10.143   0.723   0.892 -0.3521 -0.6119  0.1367
  652SOL    HW211996  10.054   0.789   0.772  1.2188 -0.2466 -0.8405
  653SOL     OW11997   1.135   1.367   0.921  0.0984 -0.3271  0.0531
  653SOL    HW111998   1.233   1.367   0.904 -0.0162  0.1030 -0.6161
  653SOL    HW211999   1.118   1.350   1.018  0.7825 -1.8673 -0.0744
  654SOL     OW12000   1.892   3.906   0.390 -0.2567 -0.5059 -0.0045
  654SOL    HW112001   1.820   3.923   0.457  0.1561  0.0646  0.2965
  654SOL    HW212002   1.979   3.889   0.437  0.0513 -0.0148 -0.3961
  655SOL     OW12003   4.021   2.215   2.562  0.1070  0.5511 -0.4874
  655SOL    HW112004   3.934   2.170   2.541  1.0882 -0.2198 -3.1774
  655SOL    HW212005   4.009   2.314   2.557 -0.8579  0.4718  0.1942
  656SOL     OW12006   9.667   2.574   0.199 -0.3206  0.2657 -0.2130
  656SOL    HW112007   9.713   2.506   0.142 -1.2905 -0.7716  0.2171
  656SOL    HW212008   9.608   2.631   0.142  0.1832  0.4753 -0.5219
  657SOL     OW12009   1.270   2.455   2.562 -0.2423  0.0674 -0.2751
  657SOL    HW112010   1.185   2.445   2.614 -1.4186  0.0257 -2.1444
  657SOL    HW212011   1.323   2.531   2.599 -1.1237  0.1371  0.8742
  658SOL     OW12012   3.367   9.981   2.500 -0.2692  0.3562 -0.2355
  658SOL    HW112013   3.413   9.931   2.426 -0.4839 -0.6920  0.3214
  658SOL    HW212014   3.394  10.077   2.498  0.5661  0.1089 -1.0069
  659SOL     OW12015   3.219   0.871   1.987 -0.3433 -0.6145  0.0787
  659SOL    HW112016   3.303   0.820   2.007  0.3097  0.7635  0.8697
  659SOL    HW212017   3.238   0.943   1.921 -0.9207 -0.3546  0.1919
  660SOL     OW12018  10.170   5.946   0.116 -0.1230  0.1870  0.3563
  660SOL    HW112019  10.227   5.885   0.061 -0.0402  0.4752  0.1280
  660SOL    HW212020  10.088   5.897   0.145  1.1659 -0.8747  2.3450
  661SOL     OW12021   1.515   3.587   0.448 -0.0258 -0.3189  0.1202
  661SOL    HW112022   1.488   3.516   0.384 -0.0489 -0.4377  0.2599
  661SOL    HW212023   1.456   3.668   0.435 -0.4190 -0.5578  0.3895
  662SOL     OW12024   9.237   2.845   1.526  0.0499  0.0444  0.2566
  662SOL    HW112025   9.196   2.933   1.550 -0.2880 -0.0122 -0.1047
  662SOL    HW212026   9.213   2.777   1.596 -0.4474  0.0193  0.0644
  663SOL     OW12027   0.605   4.340   1.390 -0.3091  0.1315 -0.7860
  663SOL    HW112028   0.702   4.342   1.417 -0.2236  0.1222 -1.0861
  663SOL    HW212029   0.580   4.247   1.363 -0.7102 -0.1130  0.3871
  664SOL     OW12030   1.453   5.143   0.301 -0.2439 -0.3626 -0.2158
  664SOL    HW112031   1.370   5.140   0.356 -0.0181 -0.4615  0.1222
  664SOL    HW212032   1.480   5.238   0.286 -1.0604 -0.2997 -1.3028
  665SOL     OW12033   4.422   4.649   1.611  0.1528 -0.3979 -0.9032
  665SOL    HW112034   4.364   4.622   1.688  0.0991 -1.3538 -1.2749
  665SOL    HW212035   4.398   4.594   1.531 -0.2162  1.0125 -1.7754
  666SOL     OW12036   1.449   1.826   0.925 -0.4542  0.7641  0.0405
  666SOL    HW112037   1.468   1.794   1.018 -2.3465 -1.9547 -0.4358
  666SOL    HW212038   1.526   1.801   0.865 -0.5730 -0.2476  0.2918
  667SOL     OW12039   1.024   1.008   1.207  0.0820 -0.2860  0.2172
  667SOL    HW112040   0.992   0.945   1.135 -0.8034  0.4064 -0.0026
  667SOL    HW212041   0.964   0.999   1.286  0.0774  0.1369  0.2586
  668SOL     OW12042   3.114   8.201   0.765  0.3201  0.1342  0.0476
  668SOL    HW112043   3.128   8.143   0.846  3.0712  1.1840  0.3609
  668SOL    HW212044   3.191   8.190   0.702 -0.3475  1.5902 -1.0417
  669SOL     OW12045   2.877   9.579   1.248 -0.6199 -0.0310  0.2761
  669SOL    HW112046   2.836   9.670   1.259  1.1210  0.7940  0.0230
  669SOL    HW212047   2.877   9.555   1.151 -0.2517  0.0965  0.2431
  670SOL     OW12048   3.687   8.784   2.539 -0.0323  0.0183 -0.1509
  670SOL    HW112049   3.730   8.707   2.491 -0.0080 -0.8037  1.1697
  670SOL    HW212050   3.602   8.808   2.492 -1.1676 -2.2520  0.6566
  671SOL     OW12051   2.472   2.855   1.062 -0.0439  0.1735 -0.2288
  671SOL    HW112052   2.555   2.896   1.025  1.3025 -1.6513  0.7419
  671SOL    HW212053   2.406   2.842   0.987  0.0467  2.6946 -0.8008
  672SOL     OW12054   2.066   1.504   1.397 -0.0828  0.2390  0.0641
  672SOL    HW112055   2.038   1.569   1.467 -0.1766 -0.1834  0.4183
  672SOL    HW212056   2.157   1.530   1.362  0.0305  0.3621  0.4473
  673SOL     OW12057   9.612   3.723   2.598 -0.1347 -0.3992 -0.2226
  673SOL    HW112058   9.667   3.643   2.575 -1.2359 -0.7471 -1.7035
  673SOL    HW212059   9.662   3.806   2.574  0.3087 -0.6773 -0.2632
  674SOL     OW12060   3.348   4.816   0.760 -0.2237  0.1504 -0.5075
  674SOL    HW112061   3.274   4.789   0.822  0.7361  0.9905  1.0554
  674SOL    HW212062   3.388   4.734   0.719 -0.0462 -0.5355  0.9901
  675SOL     OW12063   1.346   8.444   0.598  0.0168  0.0448  0.0101
  675SOL    HW112064   1.428   8.493   0.571  0.2698 -0.5630 -0.3128
  675SOL    HW212065   1.291   8.422   0.517  0.1900 -0.7229  0.1012
  676SOL     OW12066   2.745   3.487   1.960  0.1503  0.0750  0.3585
  676SOL    HW112067   2.722   3.399   2.001  2.1861 -0.3979  0.5366
  676SOL    HW212068   2.720   3.561   2.022  0.1287 -0.4768  1.0076
  677SOL     OW12069   3.450   0.775   2.146  0.1991  0.2580  0.3450
  677SOL    HW112070   3.466   0.687   2.192  1.3670  1.1535  1.6733
  677SOL    HW212071   3.389   0.831   2.202 -1.9143 -0.3459 -1.3106
  678SOL     OW12072   9.755   1.056   1.020  0.5605 -0.8007 -0.4270
  678SOL    HW112073   9.797   0.965   1.013 -0.1788 -1.3834  2.0768
  678SOL    HW212074   9.745   1.080   1.116 -2.5486  0.3782 -0.9736
  679SOL     OW12075   1.386  10.649   1.845  0.3254 -0.0633 -0.1140
  679SOL    HW112076   1.373  10.682   1.938  1.9402 -0.0445  0.1162
  679SOL    HW212077   1.456  10.704   1.799 -0.6918  0.1519 -1.4635
  680SOL     OW12078   2.671   4.643   1.388  0.1723 -0.2230 -0.1939
  680SOL    HW112079   2.630   4.718   1.336  1.4924  1.1148  0.6476
  680SOL    HW212080   2.716   4.680   1.469  0.7040 -1.9602  0.3197
  681SOL     OW12081   8.992   3.393   2.179 -0.0279 -0.2208 -0.0778
  681SOL    HW112082   8.920   3.369   2.114 -0.1684  0.6022 -0.2440
  681SOL    HW212083   9.077   3.346   2.154  0.3343  1.2414 -1.8020
  682SOL     OW12084   4.147   8.488   0.702  0.1201 -0.6280  0.5253
  682SOL    HW112085   4.221   8.421   0.701 -0.2059 -0.9891 -0.7529
  682SOL    HW212086   4.131   8.519   0.795  2.5749  0.2086  0.7098
  683SOL     OW12087   1.800   2.623   2.654  0.1485  0.2561 -0.2694
  683SOL    HW112088   1.796   2.640   2.555  1.9746 -1.3793 -0.6360
  683SOL    HW212089   1.794   2.525   2.672  0.7721  0.4700  1.1905
  684SOL     OW12090   2.030   2.064   2.040 -0.3328 -0.0262  0.2932
  684SOL    HW112091   1.983   2.152   2.044  1.7794  1.2777 -1.9731
  684SOL    HW212092   2.060   2.047   1.946 -0.2556 -2.9444  0.8029
  685SOL     OW12093  10.507   6.836   0.303  0.2179  0.5186  0.4400
  685SOL    HW112094  10.439   6.824   0.375 -1.6914  0.2358 -1.3600
  685SOL    HW212095  10.542   6.746   0.275  1.5284  0.6779  1.5220
  686SOL     OW12096  10.107   3.023   1.159  0.4619 -0.1837 -0.1662
  686SOL    HW112097  10.096   3.098   1.225  1.3473 -1.0201  0.9283
  686SOL    HW212098  10.198   2.984   1.167  0.6637 -0.1320 -2.0699
  687SOL     OW12099   1.508   3.281   1.732  0.0477 -0.7416 -0.5229
  687SOL    HW112100   1.465   3.369   1.754  0.2520 -1.1638  1.6967
  687SOL    HW212101   1.595   3.296   1.685  0.5721  0.2682  0.7572
  688SOL     OW12102   0.994   5.588   1.224  0.3116  0.3438 -0.0646
  688SOL    HW112103   1.019   5.660   1.160 -0.5777 -1.9392 -3.0943
  688SOL    HW212104   0.900   5.602   1.255 -0.5774 -0.5218 -2.2254
  689SOL     OW12105   9.290   4.901   0.922  0.0373  0.0835  0.4894
  689SOL    HW112106   9.302   4.926   1.018 -2.7437  0.4521  0.7923
  689SOL    HW212107   9.258   4.980   0.870 -0.2999 -0.5904 -0.3516
  690SOL     OW12108   3.536   1.896   2.409  0.6196 -0.9379 -0.4570
  690SOL    HW112109   3.457   1.837   2.428 -0.1717 -0.0742 -0.9797
  690SOL    HW212110   3.507   1.971   2.350  1.7436 -0.3528 -0.2751
  691SOL     OW12111   1.061   1.278   1.169 -0.5637 -0.7061  0.0813
  691SOL    HW112112   0.989   1.348   1.178  0.5923  0.2175  2.9087
  691SOL    HW212113   1.025   1.189   1.196 -0.6846 -0.2503  1.4596
  692SOL     OW12114   3.638   5.693   1.180 -0.6744  0.1388  0.3611
  692SOL    HW112115   3.702   5.618   1.195  1.7382  2.0641  0.0348
  692SOL    HW212116   3.597   5.684   1.089  2.6445  1.3360 -1.3293
  693SOL     OW12117   4.098   9.972   2.486  0.5514  0.1828  0.2320
  693SOL    HW112118   4.172  10.003   2.427 -0.5690  0.4053 -1.0663
  693SOL    HW212119   4.089   9.873   2.479  1.6549 -0.0160  1.4878
  694SOL     OW12120   0.648   5.635   2.327 -0.7345  0.1176  0.1803
  694SOL    HW112121   0.611   5.599   2.242 -0.0844  1.8985 -0.8801
  694SOL    HW212122   0.595   5.598   2.404 -0.1130 -3.0146 -0.8280
  695SOL     OW12123  10.329   4.544   1.476  0.1018  0.1441  0.4972
  695SOL    HW112124  10.400   4.533   1.407 -0.0882  0.5093  0.2401
  695SOL    HW212125  10.352   4.621   1.536 -0.7840  1.1987 -0.4839
  696SOL     OW12126   1.380   1.054   1.499  0.0161 -0.2853 -0.3406
  696SOL    HW112127   1.341   1.011   1.418 -0.1212  1.9309 -1.4882
  696SOL    HW212128   1.478   1.033   1.504  0.2707  0.5073 -1.7345
  697SOL     OW12129   9.048   2.334   2.076  0.2713 -0.2762  0.6270
  697SOL    HW112130   9.109   2.375   2.008  0.6504 -0.9597  0.5541
  697SOL    HW212131   9.045   2.235   2.063 -0.1192 -0.3468  1.2289
  698SOL     OW12132   2.349   9.981   0.236  0.3019  0.6622  0.1951
  698SOL    HW112133   2.282   9.912   0.265  1.2303 -1.4209 -2.4479
  698SOL    HW212134   2.416   9.993   0.309 -2.0077  1.6174  2.2374
  699SOL     OW12135   2.028   9.900   0.143 -0.5113 -0.5858  0.0309
  699SOL    HW112136   2.104   9.856   0.191 -1.0582  0.4476  1.9305
  699SOL    HW212137   2.047   9.903   0.045  1.6413 -0.8037  0.4193
  700SOL     OW12138   0.873  10.141   0.882  0.1757 -0.0379  0.2735
  700SOL    HW112139   0.952  10.198   0.907  0.7247 -0.4720 -0.4483
  700SOL    HW212140   0.903  10.067   0.822 -0.8108 -0.1221 -0.1258
  701SOL     OW12141  10.561   1.437   1.443 -0.2343 -0.7281  0.1844
  701SOL    HW112142  10.480   1.490   1.421  0.7077  0.3079 -0.8884
  701SOL    HW212143  10.565   1.420   1.541 -0.5586  1.1914  0.5457
  702SOL     OW12144   3.344   8.282   0.318 -0.1190 -0.6389  0.4624
  702SOL    HW112145   3.256   8.326   0.301  0.3166  0.8054  1.7610
  702SOL    HW212146   3.354   8.265   0.416  1.4930  0.2426  0.4685
  703SOL     OW12147   1.507   2.658   2.165  0.5737  0.2568 -0.1516
  703SOL    HW112148   1.502   2.690   2.070 -1.3306  0.2306 -0.0917
  703SOL    HW212149   1.557   2.725   2.220  0.5784  0.9053 -0.9281
  704SOL     OW12150   0.773   4.490   2.453  0.0023  0.1021 -0.3255
  704SOL    HW112151   0.674   4.479   2.451  0.0931 -0.5337 -1.1407
  704SOL    HW212152   0.809   4.489   2.360  0.7201  0.8979 -0.0682
  705SOL     OW12153   1.142   9.359   2.227  0.2672 -0.0731 -0.1919
  705SOL    HW112154   1.179   9.339   2.318  2.5557  0.7598 -0.9011
  705SOL    HW212155   1.190   9.303   2.159 -0.4223  0.3628 -1.0460
  706SOL     OW12156   9.828   3.914   2.123  0.0171 -0.1763  0.0537
  706SOL    HW112157   9.777   3.998   2.102 -1.8748 -1.5197 -0.8957
  706SOL    HW212158   9.926   3.936   2.131 -0.4353  2.1068 -0.1988
  707SOL     OW12159   9.239   1.555   1.623  0.2350 -0.0373  0.1268
  707SOL    HW112160   9.295   1.605   1.689 -1.7075  4.6432 -1.6129
  707SOL    HW212161   9.146   1.546   1.658  0.6001 -2.7762  0.5173
  708SOL     OW12162   4.696   9.083   1.462  0.0068  0.4052  0.3740
  708SOL    HW112163   4.642   9.165   1.447 -0.1378 -0.0552 -1.6961
  708SOL    HW212164   4.740   9.055   1.377  0.1450 -1.6104  1.0702
  709SOL     OW12165   2.037   1.564   0.278  0.4592  0.2450 -0.3343
  709SOL    HW112166   2.012   1.539   0.372  1.4360  0.8488  0.0876
  709SOL    HW212167   2.046   1.481   0.223  0.7627 -0.1699  0.3315
  710SOL     OW12168   2.584   2.474   2.489 -0.5933 -0.2333 -0.3996
  710SOL    HW112169   2.599   2.555   2.432  0.4808 -0.2655 -0.1768
  710SOL    HW212170   2.544   2.401   2.434  0.0057 -0.1104 -0.9943
  711SOL     OW12171   5.123   3.188   0.939 -0.1703 -0.0919 -0.4059
  711SOL    HW112172   5.113   3.154   0.845 -0.6563  1.0956 -0.7851
  711SOL    HW212173   5.069   3.271   0.951  0.3888  0.1173  0.7518
  712SOL     OW12174   1.282   7.621   0.250  0.0586 -0.4996  0.4052
  712SOL    HW112175   1.229   7.538   0.269 -0.4432 -0.3166 -0.1639
  712SOL    HW212176   1.282   7.638   0.151  0.1920  0.1587  0.5159
  713SOL     OW12177   4.339  10.584   0.737 -0.7166 -0.2995  0.1103
  713SOL    HW112178   4.308  10.676   0.715 -0.3569 -0.7295 -2.3753
  713SOL    HW212179   4.397  10.550   0.663 -1.8799 -2.9944  0.3833
  714SOL     OW12180   0.689   2.489   0.096 -0.1332  0.0957 -0.4186
  714SOL    HW112181   0.673   2.562   0.030 -0.1386 -0.2291 -0.7813
  714SOL    HW212182   0.601   2.451   0.126 -0.1517  0.5639  0.1482
  715SOL     OW12183   4.445   1.814   0.604  0.1640  0.0525  0.1133
  715SOL    HW112184   4.397   1.884   0.658 -0.9948 -1.1371  0.6409
  715SOL    HW212185   4.511   1.859   0.544  0.1294  1.5370  1.1488
  716SOL     OW12186   2.608   4.218   1.635  0.6364  0.0370 -0.2341
  716SOL    HW112187   2.558   4.132   1.623 -0.2895  0.3284  1.3271
  716SOL    HW212188   2.635   4.254   1.545 -0.9044 -0.7619 -1.0476
  717SOL     OW12189  10.111   5.458   1.543 -0.4869  0.1427 -0.3386
  717SOL    HW112190  10.100   5.557   1.536  2.2632  0.4286 -1.1464
  717SOL    HW212191  10.112   5.432   1.639  0.2045  1.0819 -0.0830
  718SOL     OW12192   3.525   5.600   0.435  0.1290  0.4285  0.1493
  718SOL    HW112193   3.536   5.656   0.353 -0.3329  1.0474  0.5075
  718SOL    HW212194   3.428   5.589   0.455  0.0913 -2.9461 -1.5736
  719SOL     OW12195   2.535   1.777   1.283  0.4395 -0.4669  0.0172
  719SOL    HW112196   2.551   1.818   1.193 -1.4207  0.3319  0.0220
  719SOL    HW212197   2.622   1.769   1.332  0.9409  3.3320 -0.0683
  720SOL     OW12198   4.173   4.192   2.049 -0.1213 -0.0003 -0.0047
  720SOL    HW112199   4.091   4.192   2.107 -0.8000 -0.4921 -0.9433
  720SOL    HW212200   4.184   4.282   2.007 -0.3482 -0.0231 -0.1132
  721SOL     OW12201  10.366   4.816   1.606  0.3919 -0.0900  0.3708
  721SOL    HW112202  10.421   4.844   1.528  0.1814 -1.0966 -0.1479
  721SOL    HW212203  10.270   4.837   1.588  0.4221  0.2435  0.6135
  722SOL     OW12204   2.402  10.618   0.495 -0.0882  0.3104  0.2686
  722SOL    HW112205   2.498  10.591   0.493  0.2235  1.3575  0.5745
  722SOL    HW212206   2.363  10.598   0.585  0.7024  2.6908  1.1885
  723SOL     OW12207   3.569   5.798   0.132 -0.1786  0.2148  0.2919
  723SOL    HW112208   3.501   5.784   0.059 -0.3828  0.8307  0.3609
  723SOL    HW212209   3.650   5.744   0.113 -0.8557 -0.8572  0.4211
  724SOL     OW12210   0.757   7.624   1.937 -0.3331 -0.0248 -0.0693
  724SOL    HW112211   0.723   7.648   2.028 -1.7834  0.3317 -0.6928
  724SOL    HW212212   0.749   7.703   1.876  1.7400  0.0987 -0.2157
  725SOL     OW12213  10.549   4.035   1.737 -0.1819 -0.2519  0.1756
  725SOL    HW112214  10.648   4.036   1.720 -0.2837  1.0991 -0.3940
  725SOL    HW212215  10.501   4.023   1.650 -0.5278 -0.7932  0.4404
  726SOL     OW12216   2.556   4.007   2.524  0.2560 -0.6236  0.4819
  726SOL    HW112217   2.540   3.943   2.599  0.8412 -0.5985  0.6372
  726SOL    HW212218   2.472   4.020   2.472  0.1191 -1.4538  0.4978
  727SOL     OW12219  10.176   0.915   0.639  0.1667 -0.1910  0.1711
  727SOL    HW112220  10.229   0.854   0.580 -0.6347 -0.3905 -0.3505
  727SOL    HW212221  10.237   0.957   0.707  0.8176 -1.1552  0.1965
  728SOL     OW12222   2.646   3.806   2.035 -0.2769  0.1065  0.3120
  728SOL    HW112223   2.582   3.829   1.962  0.5277 -1.4443 -0.8975
  728SOL    HW212224   2.597   3.758   2.108 -1.3273  2.7465  1.4084
  729SOL     OW12225   4.395   3.209   0.453  0.4471 -0.2204  0.2551
  729SOL    HW112226   4.437   3.208   0.544  1.9257 -0.0340 -0.4033
  729SOL    HW212227   4.302   3.244   0.460  0.3561 -0.6930  1.7743
  730SOL     OW12228   2.406   3.741   1.238 -0.3842 -0.0986 -0.6167
  730SOL    HW112229   2.500   3.730   1.270 -1.7008 -1.9797  2.8153
  730SOL    HW212230   2.385   3.672   1.169 -0.4992 -2.5050  1.7451
  731SOL     OW12231   5.097   2.222   1.879 -0.4831  0.1441 -0.0860
  731SOL    HW112232   5.084   2.131   1.840 -1.6516 -0.1406  0.9550
  731SOL    HW212233   5.030   2.238   1.951  1.0486  1.0557  1.1575
  732SOL     OW12234  10.141   2.716   1.846  0.1890  0.8388  0.8819
  732SOL    HW112235  10.157   2.716   1.945  0.6550  1.3944  0.8119
  732SOL    HW212236  10.047   2.687   1.828 -0.2478  1.7849  1.5552
  733SOL     OW12237   9.918   6.494   0.719  0.0013  0.6262  0.4261
  733SOL    HW112238  10.013   6.520   0.699 -0.1816  0.2063 -1.0905
  733SOL    HW212239   9.908   6.395   0.705 -1.0807  0.9497 -1.1889
  734SOL     OW12240   2.850   3.584   0.468 -0.3225  0.0643  0.3183
  734SOL    HW112241   2.801   3.513   0.519 -1.3855  1.6223  1.5186
  734SOL    HW212242   2.948   3.577   0.489 -0.6551  0.2284  2.0530
  735SOL     OW12243   2.401   7.124   2.537  0.2802 -0.1424  0.1733
  735SOL    HW112244   2.473   7.060   2.566  1.1516  0.8417  0.2291
  735SOL    HW212245   2.408   7.207   2.592  1.2826  1.3360 -2.1185
  736SOL     OW12246   1.143   3.793   2.045 -0.0369  0.1325 -0.0495
  736SOL    HW112247   1.220   3.815   1.986  0.1522  0.5024  0.3320
  736SOL    HW212248   1.147   3.850   2.127 -1.5325  1.2202 -0.7050
  737SOL     OW12249   9.478   4.795   0.504  0.6526  0.0855 -0.2015
  737SOL    HW112250   9.383   4.826   0.519  0.4609 -0.0641 -1.0821
  737SOL    HW212251   9.519   4.772   0.592  0.3544  1.5690  0.3472
  738SOL     OW12252  10.567  10.542   1.053 -0.3595  0.4020  0.2184
  738SOL    HW112253  10.662  10.561   1.029  0.0114 -1.1497  0.4449
  738SOL    HW212254  10.514  10.526   0.970  0.1404 -1.3224  0.2172
  739SOL     OW12255   2.394   9.866   1.855 -0.2105  0.0146  0.7100
  739SOL    HW112256   2.338   9.840   1.776  1.5657 -0.6011 -0.3855
  739SOL    HW212257   2.351   9.942   1.903 -1.3625  0.3542 -0.8214
  740SOL     OW12258   2.280   3.390   0.930 -0.4129 -0.1044 -0.3328
  740SOL    HW112259   2.327   3.306   0.958 -0.2748 -0.1411 -0.6684
  740SOL    HW212260   2.333   3.435   0.858 -0.6013  0.1543 -0.3103
  741SOL     OW12261   2.007   4.618   0.263 -0.1056 -0.3161 -0.4683
  741SOL    HW112262   1.944   4.684   0.222 -2.0880 -2.3585 -0.7605
  741SOL    HW212263   2.061   4.574   0.191  0.3982  0.1208 -0.3664
  742SOL     OW12264   9.016   4.798   0.747 -0.3019  0.2251  0.0736
  742SOL    HW112265   9.030   4.700   0.755 -1.8315  0.0428  0.6614
  742SOL    HW212266   9.022   4.840   0.838 -1.1512  0.4643  0.0186
  743SOL     OW12267  10.459   3.143   0.397  0.0592  0.0666  0.4384
  743SOL    HW112268  10.395   3.067   0.410 -1.9191  1.7772  0.9588
  743SOL    HW212269  10.508   3.160   0.482  0.0365 -0.2137  0.5083
  744SOL     OW12270   3.817   4.173   1.163 -0.1349  0.3970 -0.4393
  744SOL    HW112271   3.757   4.157   1.242  0.3195 -0.3830 -0.2390
  744SOL    HW212272   3.831   4.087   1.115  2.2879  0.1906  0.5766
  745SOL     OW12273   1.819   9.366   0.257 -0.2124 -0.0587 -0.5131
  745SOL    HW112274   1.722   9.358   0.280 -0.2914  0.6994 -0.5895
  745SOL    HW212275   1.872   9.302   0.313 -0.7326 -0.3288 -0.3309
  746SOL     OW12276   2.835   5.177   1.266 -0.1208  0.1079 -0.1838
  746SOL    HW112277   2.885   5.143   1.346  0.2040  0.8946 -0.0441
  746SOL    HW212278   2.824   5.103   1.200  1.3203 -0.0621 -0.2613
  747SOL     OW12279   9.619   1.499   2.207 -0.5202  0.5377  0.2912
  747SOL    HW112280   9.561   1.577   2.230 -1.6243 -0.3468  0.5510
  747SOL    HW212281   9.637   1.446   2.290  1.1142  1.1080  0.3062
  748SOL     OW12282   1.425   5.152   1.894 -0.2463  0.1106  0.1905
  748SOL    HW112283   1.434   5.130   1.991 -0.5522 -0.4347  0.0935
  748SOL    HW212284   1.337   5.119   1.859  0.0516 -0.0973 -0.3791
  749SOL     OW12285  10.205   1.810   1.889 -0.4266  0.1370 -0.1219
  749SOL    HW112286  10.241   1.861   1.811  0.5687 -0.2163  0.1023
  749SOL    HW212287  10.171   1.722   1.858  0.7816 -0.3696 -0.0355
  750SOL     OW12288   0.810   4.841   0.596  0.5010 -0.4574 -0.0514
  750SOL    HW112289   0.737   4.848   0.527  0.0840 -1.3910  0.2943
  750SOL    HW212290   0.772   4.805   0.681  1.3342 -0.7452  0.1978
  751SOL     OW12291   3.947   3.328   1.829 -0.2659 -0.1452  0.1955
  751SOL    HW112292   4.027   3.377   1.795 -0.3804  0.8464  1.3266
  751SOL    HW212293   3.900   3.384   1.898 -1.8890 -0.7374 -0.3970
  752SOL     OW12294  10.414   5.793   1.749  0.7249 -0.6044  0.4854
  752SOL    HW112295  10.506   5.802   1.785  1.2288 -0.8946 -0.7162
  752SOL    HW212296  10.413   5.725   1.676 -0.7532 -1.7886  1.5715
  753SOL     OW12297  10.444   2.884   1.806 -0.1264 -0.2004 -0.3425
  753SOL    HW112298  10.384   2.938   1.865 -1.5496 -0.5084 -1.4848
  753SOL    HW212299  10.397   2.801   1.777  1.0608 -0.7289 -0.8045
  754SOL     OW12300   5.363   3.360   1.020  0.2112  0.2951  0.3374
  754SOL    HW112301   5.446   3.387   0.970 -0.8177  1.4569 -0.7883
  754SOL    HW212302   5.300   3.314   0.958 -1.2656  2.1397  0.4003
  755SOL     OW12303   1.944  10.719   1.201  0.0026  0.2684  0.1334
  755SOL    HW112304   1.916  10.805   1.159 -2.8295 -0.6235  0.0534
  755SOL    HW212305   1.983  10.659   1.132 -1.8727 -0.0471 -0.7015
  756SOL     OW12306   1.242   0.764   1.553  0.1508 -0.1484 -0.0309
  756SOL    HW112307   1.303   0.817   1.611  0.2531  0.4027 -0.6353
  756SOL    HW212308   1.242   0.802   1.460 -1.1476 -0.1032 -0.0275
  757SOL     OW12309   9.390   2.981   2.089 -0.4327 -0.6145 -0.0509
  757SOL    HW112310   9.480   2.981   2.045  0.4789  0.0864  1.7835
  757SOL    HW212311   9.357   2.887   2.097 -0.0772 -0.8409 -1.1454
  758SOL     OW12312   9.882   4.414   1.974 -0.6808  0.2852 -0.2929
  758SOL    HW112313   9.837   4.329   2.000  0.5034 -0.3078 -0.1273
  758SOL    HW212314   9.913   4.408   1.879  1.8632 -0.5769  0.5438
  759SOL     OW12315   1.474   2.644   0.871 -0.4460  0.0699 -0.0920
  759SOL    HW112316   1.381   2.642   0.833 -0.5967 -0.1648  0.2938
  759SOL    HW212317   1.540   2.651   0.796 -0.6892 -1.5026 -0.4736
  760SOL     OW12318   2.053   3.857   0.775 -0.2312  0.3684  0.1237
  760SOL    HW112319   1.967   3.824   0.813 -0.3085 -0.2845 -0.5982
  760SOL    HW212320   2.097   3.920   0.840 -0.6397 -0.2643  1.0205
  761SOL     OW12321   4.249   3.844   1.665 -0.1597 -0.0028  0.3276
  761SOL    HW112322   4.266   3.746   1.671 -3.8964 -0.6279  2.7034
  761SOL    HW212323   4.232   3.870   1.570  1.0071 -1.6134 -0.3417
  762SOL     OW12324   1.789   5.304   1.865  0.0351  0.0016 -0.1815
  762SOL    HW112325   1.841   5.325   1.948 -0.9331  0.5268  0.2973
  762SOL    HW212326   1.801   5.208   1.842 -0.1202 -0.2722  0.8701
  763SOL     OW12327   1.813   3.027   0.934 -0.0677 -0.2112  0.0112
  763SOL    HW112328   1.744   2.954   0.930 -0.3727  0.0531  0.3363
  763SOL    HW212329   1.878   3.008   1.007  0.1798 -0.4402 -0.2693
  764SOL     OW12330  10.272   1.336   2.005 -0.2738  0.1022 -0.5632
  764SOL    HW112331  10.204   1.300   2.070  0.4026 -0.2527 -0.0428
  764SOL    HW212332  10.324   1.409   2.049 -1.0378  1.1046 -1.3220
  765SOL     OW12333   9.398   3.990   1.458 -0.8801 -0.0077  0.0492
  765SOL    HW112334   9.433   3.905   1.419 -1.6918 -0.0320 -0.6371
  765SOL    HW212335   9.474   4.047   1.488 -0.2731 -0.2275 -1.0615
  766SOL     OW12336   2.822   5.352   0.304  0.4255 -0.1289  0.6840
  766SOL    HW112337   2.767   5.435   0.300 -2.0083 -1.7353 -0.4151
  766SOL    HW212338   2.809   5.307   0.392  1.4475  0.4304  1.1325
  767SOL     OW12339   2.100   8.273   0.106  0.1129  0.1396 -0.2050
  767SOL    HW112340   2.163   8.200   0.081  0.4233  0.5814 -0.7366
  767SOL    HW212341   2.061   8.255   0.196  1.2806  0.0563  0.2799
  768SOL     OW12342   1.406   5.756   0.290  0.1030  0.1976 -0.7122
  768SOL    HW112343   1.312   5.728   0.273 -0.0477 -0.8509  1.7383
  768SOL    HW212344   1.468   5.701   0.234 -0.6800  0.7218 -2.1440
  769SOL     OW12345   3.147   0.801   2.446  0.0036  0.4924 -1.0895
  769SOL    HW112346   3.192   0.731   2.502 -0.9542  0.3578 -0.4794
  769SOL    HW212347   3.209   0.831   2.374  1.5998  1.3773  0.6374
  770SOL     OW12348   3.670   1.675   2.335  0.1058 -0.0765  0.4163
  770SOL    HW112349   3.692   1.600   2.397 -0.9184  0.6665  1.7095
  770SOL    HW212350   3.597   1.731   2.375 -0.5411  0.4541 -1.4368
  771SOL     OW12351   4.354   8.691   1.254 -0.1293  0.1698 -0.3912
  771SOL    HW112352   4.372   8.612   1.194 -2.5400  0.6939 -1.8838
  771SOL    HW212353   4.435   8.749   1.257  0.2977 -0.2318 -2.6620
  772SOL     OW12354   2.731   2.964   0.969 -0.5650  0.0545  0.3505
  772SOL    HW112355   2.756   2.905   0.892  2.4697 -1.0503  2.0670
  772SOL    HW212356   2.735   3.059   0.940  0.2454 -0.3599 -0.9678
  773SOL     OW12357   1.486   5.888   0.502  0.4102  0.2778 -0.3282
  773SOL    HW112358   1.540   5.970   0.484 -0.7380  0.8514 -1.1980
  773SOL    HW212359   1.473   5.837   0.417 -1.2692  0.6840 -0.3432
  774SOL     OW12360   3.673   3.619   2.408  0.0959  0.3800 -0.0775
  774SOL    HW112361   3.670   3.698   2.469  0.8579  1.4968 -1.4394
  774SOL    HW212362   3.616   3.637   2.327  4.3582  1.8205 -2.9563
  775SOL     OW12363   1.815   4.544   0.494 -0.6203  0.0848 -0.2253
  775SOL    HW112364   1.834   4.607   0.570  1.3089 -2.1506  1.2271
  775SOL    HW212365   1.867   4.572   0.413  1.4944 -0.4983  0.8919
  776SOL     OW12366   3.982   9.521   0.677 -0.0576 -0.1147 -0.2249
  776SOL    HW112367   3.982   9.449   0.607  1.6293 -1.4265  1.0836
  776SOL    HW212368   3.962   9.609   0.634 -1.0540 -1.1903 -2.0326
  777SOL     OW12369   1.204   9.670   0.734 -0.1348  0.4109 -0.1375
  777SOL    HW112370   1.214   9.694   0.831 -1.3084 -1.0392  0.3689
  777SOL    HW212371   1.227   9.749   0.677  1.4399  1.0029  1.2897
  778SOL     OW12372   4.833   3.632   1.165  0.6194  0.0666  0.1744
  778SOL    HW112373   4.800   3.719   1.128  2.9032  0.6624 -0.5570
  778SOL    HW212374   4.892   3.650   1.244  0.8803 -0.8315  0.1819
  779SOL     OW12375   2.372   1.557   1.777  0.1693  0.0658  0.6639
  779SOL    HW112376   2.330   1.524   1.862  1.3974 -2.4455  0.3495
  779SOL    HW212377   2.442   1.491   1.747  2.6752  2.9519 -0.0713
  780SOL     OW12378   1.998   3.385   0.912  0.2099  0.5383  0.2118
  780SOL    HW112379   1.935   3.417   0.983 -0.0210  1.6130 -0.4667
  780SOL    HW212380   2.088   3.369   0.952 -0.3341 -0.4770  1.0761
  781SOL     OW12381   1.822   4.819   0.194  0.1353 -0.3678  0.4135
  781SOL    HW112382   1.751   4.783   0.254  0.8935  0.1147  1.6183
  781SOL    HW212383   1.802   4.793   0.099 -1.2660 -0.8201  0.8228
  782SOL     OW12384   1.658   5.054   2.505 -0.4577 -0.7038  0.8342
  782SOL    HW112385   1.599   4.990   2.554 -0.1025 -0.7141  1.2619
  782SOL    HW212386   1.751   5.047   2.541 -0.0133 -1.2890 -0.4071
  783SOL     OW12387   4.887   1.105   2.443  0.4856 -0.1049  0.0718
  783SOL    HW112388   4.838   1.020   2.462 -0.3025  0.1217 -0.9280
  783SOL    HW212389   4.928   1.100   2.352  1.4922  0.0993  0.5110
  784SOL     OW12390   2.501   4.152   1.983  0.2075  0.1493 -0.0805
  784SOL    HW112391   2.474   4.202   1.901  1.2629 -0.1348 -0.6033
  784SOL    HW212392   2.510   4.055   1.961 -3.5971 -0.6298  1.3217
  785SOL     OW12393   3.910   3.996   0.267 -0.0395  0.2761 -0.3586
  785SOL    HW112394   3.853   4.050   0.330 -1.2049 -0.5199 -0.7279
  785SOL    HW212395   3.969   4.058   0.214 -1.3765  1.1967 -0.7882
  786SOL     OW12396   1.230  10.090   0.643 -0.0671 -0.0870  0.0143
  786SOL    HW112397   1.265  10.083   0.737  1.8648  1.1335 -0.5856
  786SOL    HW212398   1.136  10.055   0.640  0.5992 -2.1717  1.9623
  787SOL     OW12399   3.332   8.865   1.230  0.2317 -0.3696  0.3008
  787SOL    HW112400   3.305   8.916   1.312  1.1504  2.1015 -0.8644
  787SOL    HW212401   3.352   8.770   1.255 -1.1921 -0.1131  2.6185
  788SOL     OW12402  10.398   5.916   1.423 -0.0849  0.0104 -0.2160
  788SOL    HW112403  10.494   5.944   1.414  0.1715 -0.8480 -0.2379
  788SOL    HW212404  10.377   5.848   1.353 -0.6660  0.0752 -0.1060
  789SOL     OW12405   4.470   9.534   1.616  0.4485 -0.1347 -0.1505
  789SOL    HW112406   4.505   9.442   1.600  2.3941  0.2822  1.3387
  789SOL    HW212407   4.406   9.533   1.693 -0.1640 -0.3737 -0.6658
  790SOL     OW12408   4.604   1.406   1.701 -0.1768  0.1703  0.0740
  790SOL    HW112409   4.557   1.450   1.624 -1.5655 -0.9064  0.2716
  790SOL    HW212410   4.612   1.308   1.683  0.6934  0.1186  0.7140
  791SOL     OW12411   0.635   4.848   0.395 -0.0337 -0.1251  0.2141
  791SOL    HW112412   0.561   4.785   0.418 -1.1066  0.4374 -1.5825
  791SOL    HW212413   0.676   4.820   0.308  0.7033  0.5778  0.3324
  792SOL     OW12414   1.205   3.346   1.513 -0.1968  0.2470  0.2677
  792SOL    HW112415   1.238   3.257   1.543  2.6253  1.1395 -0.0027
  792SOL    HW212416   1.278   3.393   1.462 -2.3484  1.8234 -1.4386
  793SOL     OW12417   1.941   2.958   0.168  0.0379 -0.0652  0.6764
  793SOL    HW112418   2.002   3.031   0.137 -0.0204 -0.3897 -0.2180
  793SOL    HW212419   1.986   2.869   0.154 -1.1644 -0.3986 -1.2848
  794SOL     OW12420   1.342   1.634   2.503 -0.0734  0.0462  0.1774
  794SOL    HW112421   1.258   1.622   2.449 -1.5081  0.6252  2.2103
  794SOL    HW212422   1.376   1.544   2.531 -0.0545 -0.1873 -0.5791
  795SOL     OW12423   3.605   0.970   0.190 -0.0951  0.2431  0.2893
  795SOL    HW112424   3.594   0.874   0.167 -2.0570  0.3880  0.4936
  795SOL    HW212425   3.684   0.982   0.250  1.2393 -0.9765 -1.2012
  796SOL     OW12426   3.383   7.759   1.279  0.2181  0.3474 -0.8815
  796SOL    HW112427   3.397   7.660   1.267  0.0288  0.1996  0.0895
  796SOL    HW212428   3.422   7.808   1.201  0.9683 -0.4418 -1.0057
  797SOL     OW12429   2.831   1.361   0.353 -0.1695  0.4599  0.0962
  797SOL    HW112430   2.837   1.327   0.447 -1.0765  1.1807  0.4209
  797SOL    HW212431   2.760   1.431   0.347 -0.8147 -0.2844 -1.3414
  798SOL     OW12432  10.257   6.283   1.061  0.1543  0.0373  0.2303
  798SOL    HW112433  10.276   6.320   1.152  1.5166  1.8216 -0.7554
  798SOL    HW212434  10.160   6.294   1.040 -0.0414  0.2276  1.1992
  799SOL     OW12435  10.076   1.244   2.166  0.4259  0.8902  0.0290
  799SOL    HW112436   9.980   1.218   2.157  0.8854 -0.8255 -0.0177
  799SOL    HW212437  10.102   1.241   2.263  0.2308  2.1210  0.1274
  800SOL     OW12438   2.529   2.805   2.595  0.4239 -0.1770 -0.4214
  800SOL    HW112439   2.571   2.767   2.513 -1.1993  0.8852 -1.7866
  800SOL    HW212440   2.461   2.873   2.569  0.5384  0.8470  1.8530
  801SOL     OW12441   1.714   5.376   0.820  0.0755  1.1616  0.1039
  801SOL    HW112442   1.710   5.394   0.722 -2.3851  0.2365 -0.0012
  801SOL    HW212443   1.672   5.452   0.870 -0.9541  0.4848  0.2773
  802SOL     OW12444   2.464   6.388   2.494 -0.4753 -0.1968  0.3042
  802SOL    HW112445   2.547   6.340   2.467 -1.5227 -1.2497 -1.1493
  802SOL    HW212446   2.424   6.343   2.574 -1.5569 -1.9327 -1.1658
  803SOL     OW12447   1.723   9.376   0.583 -0.2713  0.2002  0.0451
  803SOL    HW112448   1.679   9.288   0.564  0.5270 -0.0382 -0.7620
  803SOL    HW212449   1.653   9.447   0.591 -0.8827 -0.3985  0.0690
  804SOL     OW12450   4.381   4.828   0.783  1.0735  0.2746  0.0121
  804SOL    HW112451   4.297   4.874   0.812 -0.5277 -1.3823 -1.8776
  804SOL    HW212452   4.402   4.754   0.848 -0.2869 -0.8411 -0.7751
  805SOL     OW12453   3.074   3.423   1.233 -0.2848 -0.1028  0.4051
  805SOL    HW112454   3.148   3.373   1.276 -0.2903 -1.0291 -0.6327
  805SOL    HW212455   3.033   3.486   1.299  1.8972  0.9702  0.7845
  806SOL     OW12456   2.601  10.342   2.358 -0.3652  0.5365 -0.0218
  806SOL    HW112457   2.656  10.275   2.409 -2.4847 -1.1464  0.1308
  806SOL    HW212458   2.605  10.320   2.260 -0.2439  0.8075 -0.0774
  807SOL     OW12459   4.048   1.159   0.715 -0.3346 -0.8046 -0.2249
  807SOL    HW112460   4.009   1.080   0.762 -0.4301 -0.0089  1.0695
  807SOL    HW212461   4.148   1.155   0.720 -0.3762  0.2610  1.7361
  808SOL     OW12462   5.234   4.336   0.318 -0.2725  0.3826  0.1299
  808SOL    HW112463   5.180   4.389   0.383 -0.7855  0.9297 -0.7348
  808SOL    HW212464   5.326   4.320   0.356 -0.7147  0.2788  1.1861
  809SOL     OW12465   9.374   1.569   1.981 -0.0275 -0.2359 -0.3077
  809SOL    HW112466   9.417   1.625   2.052  0.8918 -0.6649 -0.5210
  809SOL    HW212467   9.350   1.628   1.903  0.0204  0.0304 -0.1221
  810SOL     OW12468   2.797   7.175   0.903 -0.3070 -0.1113 -0.1789
  810SOL    HW112469   2.707   7.143   0.933 -0.5812  1.1778  0.4080
  810SOL    HW212470   2.794   7.195   0.805 -1.2313  1.7526  0.1976
  811SOL     OW12471   1.101   9.187   2.539  0.1466  0.3899  0.2199
  811SOL    HW112472   1.163   9.260   2.509  1.0438 -0.5555 -0.2676
  811SOL    HW212473   1.105   9.179   2.638 -1.3965  2.2652  0.4625
  812SOL     OW12474   1.608   6.488   1.839  0.3394 -0.4078 -0.3567
  812SOL    HW112475   1.686   6.428   1.822  1.6984  1.5727 -1.4264
  812SOL    HW212476   1.542   6.480   1.764  1.6810  1.1523 -1.7576
  813SOL     OW12477   3.378   7.490   2.633  0.0561 -0.4674  0.1456
  813SOL    HW112478   3.322   7.559   2.588  0.2593  0.6060  1.5039
  813SOL    HW212479   3.327   7.404   2.640 -0.3434 -0.3431 -1.1903
  814SOL     OW12480  10.110   4.885   1.527 -0.5741 -0.4564  0.4424
  814SOL    HW112481  10.016   4.867   1.553 -0.2744 -0.9692  1.1792
  814SOL    HW212482  10.114   4.906   1.429 -1.2647 -1.8367  0.1044
  815SOL     OW12483   1.477   1.122   0.817  0.4468  0.1732 -0.8801
  815SOL    HW112484   1.445   1.207   0.774 -0.8961 -1.6048 -3.5116
  815SOL    HW212485   1.518   1.144   0.906 -3.7974  3.1428  0.5559
  816SOL     OW12486   1.589   8.245   2.703 -0.0130  0.5519  0.1298
  816SOL    HW112487   1.543   8.305   2.637  0.9993 -0.2795 -1.3448
  816SOL    HW212488   1.601   8.294   2.789 -0.3466  2.0298 -0.6457
  817SOL     OW12489   8.794   2.502   0.384  1.1273  0.4031 -0.6553
  817SOL    HW112490   8.892   2.514   0.396  1.2763 -0.8675 -0.5487
  817SOL    HW212491   8.775   2.469   0.291  0.9282 -0.7370 -0.2160
  818SOL     OW12492   0.835   4.345   1.523  0.0757 -0.2293 -0.1935
  818SOL    HW112493   0.901   4.280   1.559 -0.8928 -0.6961  0.7541
  818SOL    HW212494   0.842   4.432   1.573  1.9522  0.7211 -2.0141
  819SOL     OW12495   4.410   3.513   1.543 -0.2235  0.4946 -0.4360
  819SOL    HW112496   4.414   3.528   1.444  1.6244 -0.4776 -0.5317
  819SOL    HW212497   4.452   3.591   1.590 -1.1827  0.9988 -0.3958
  820SOL     OW12498   3.091   7.471   1.925 -0.1019  0.2431 -0.4018
  820SOL    HW112499   2.994   7.490   1.912 -0.4993 -0.8402  0.8666
  820SOL    HW212500   3.106   7.373   1.933  0.7530  0.5243  1.8694
  821SOL     OW12501   0.939  10.005   2.229 -0.5218  0.8782  0.4675
  821SOL    HW112502   0.942  10.092   2.179 -0.9494  0.9196  0.5100
  821SOL    HW212503   1.005   9.942   2.189 -0.9160  0.8843 -0.2056
  822SOL     OW12504   4.439   3.804   1.442 -0.2784  0.9005 -0.5533
  822SOL    HW112505   4.452   3.902   1.452  2.5215  0.5200  0.0590
  822SOL    HW212506   4.443   3.779   1.346 -1.4583  1.4329 -0.7458
  823SOL     OW12507   9.744   5.061   1.775  0.4840  0.1135 -0.2843
  823SOL    HW112508   9.680   5.134   1.800  0.1497  0.0319 -0.9035
  823SOL    HW212509   9.758   5.061   1.676  1.0166 -0.2208 -0.2088
  824SOL     OW12510   3.391  10.230   2.434 -0.2103 -0.6193 -0.8435
  824SOL    HW112511   3.478  10.249   2.390 -0.5856 -0.3689 -1.4849
  824SOL    HW212512   3.316  10.253   2.372 -0.7305 -1.0985 -0.4074
  825SOL     OW12513   2.727   1.500   2.420 -0.0394  0.1076 -0.6521
  825SOL    HW112514   2.800   1.456   2.472  0.0278 -2.5822 -2.8749
  825SOL    HW212515   2.652   1.434   2.407 -1.6034  1.8860 -0.8958
  826SOL     OW12516   3.456   9.540   0.367 -0.0044  0.4276 -0.1398
  826SOL    HW112517   3.380   9.600   0.395  1.4932  1.6559  1.3604
  826SOL    HW212518   3.422   9.447   0.356 -2.3319  1.4480 -2.2861
  827SOL     OW12519   1.133   5.048   0.208 -0.2838 -0.0278  0.0561
  827SOL    HW112520   1.173   5.100   0.283  0.2240 -1.4110  0.7792
  827SOL    HW212521   1.041   5.020   0.232  0.2206 -1.2847  0.5857
  828SOL     OW12522   4.644   3.988   1.756  0.1161 -0.5181 -0.2141
  828SOL    HW112523   4.593   4.062   1.799 -1.3292 -0.6763 -1.5975
  828SOL    HW212524   4.713   4.027   1.694  0.5581 -0.3199  0.4007
  829SOL     OW12525  10.195   1.790   0.910 -0.1750  0.0582 -0.0581
  829SOL    HW112526  10.229   1.696   0.900  0.3194  0.1206  1.0594
  829SOL    HW212527  10.206   1.838   0.823  0.5203 -0.6101 -0.3483
  830SOL     OW12528   4.267   4.500   0.702  0.2211 -0.3181  0.0396
  830SOL    HW112529   4.235   4.579   0.650  0.9111 -0.6000 -0.8378
  830SOL    HW212530   4.328   4.530   0.776 -0.5874  0.0694  0.5511
  831SOL     OW12531   2.739   9.066   1.910  0.0707 -0.0604  0.2540
  831SOL    HW112532   2.747   8.978   1.957 -0.7519 -0.1403  0.2612
  831SOL    HW212533   2.799   9.067   1.829  0.8330 -0.2462  0.8127
  832SOL     OW12534   1.624  10.538   1.280 -0.2179 -0.3737  0.2189
  832SOL    HW112535   1.698  10.601   1.303  0.5494 -1.8967  2.0209
  832SOL    HW212536   1.552  10.544   1.349 -1.3452  0.3647 -0.9842
  833SOL     OW12537   2.218   7.340   1.614  0.2557  0.2643 -0.1240
  833SOL    HW112538   2.219   7.253   1.565  0.7315 -0.3891  1.0329
  833SOL    HW212539   2.123   7.370   1.625  0.1296  0.3396 -1.2821
  834SOL     OW12540  10.564   6.251   0.643 -0.3019 -0.2631  0.0076
  834SOL    HW112541  10.623   6.223   0.567 -0.5664  0.0898 -0.3269
  834SOL    HW212542  10.487   6.188   0.651 -0.7088  0.1604 -0.5261
  835SOL     OW12543   2.336   4.889   1.757 -0.2155 -0.1046  0.0511
  835SOL    HW112544   2.271   4.868   1.829  1.3265 -2.5796  0.8052
  835SOL    HW212545   2.341   4.811   1.694  2.3238 -0.1824  0.2942
  836SOL     OW12546   4.280   2.785   0.877 -0.0557 -0.1178  0.3593
  836SOL    HW112547   4.343   2.860   0.861 -1.5698  1.2576  0.6948
  836SOL    HW212548   4.253   2.745   0.790  0.4989 -0.0599  0.1588
  837SOL     OW12549   1.970   6.750   1.918  0.0571 -0.7481  0.1590
  837SOL    HW112550   1.985   6.655   1.892  1.4603 -0.8442  1.2859
  837SOL    HW212551   1.997   6.763   2.014 -0.0656  0.7979 -0.0055
  838SOL     OW12552   2.604  10.422   0.975  0.2778  0.1354 -0.2666
  838SOL    HW112553   2.656  10.386   1.052  0.0056 -0.5957 -0.4249
  838SOL    HW212554   2.575  10.347   0.916  0.0069  0.6426 -0.7816
  839SOL     OW12555   0.675   3.638   1.041 -0.1278  0.2786  0.1304
  839SOL    HW112556   0.703   3.619   0.947 -0.0342 -1.0880  0.4379
  839SOL    HW212557   0.605   3.573   1.069  1.3444 -0.6477  1.7323
  840SOL     OW12558   1.568   6.553   2.155 -0.1483 -0.3710 -0.2246
  840SOL    HW112559   1.563   6.489   2.078 -1.3427 -0.6673  0.0947
  840SOL    HW212560   1.477   6.589   2.175  0.2260  0.0514  0.7711
  841SOL     OW12561   0.851   2.244   1.664 -0.2085 -0.5360  0.6071
  841SOL    HW112562   0.921   2.244   1.593 -0.2371 -1.0766  0.5741
  841SOL    HW212563   0.870   2.316   1.731  1.9290 -2.4155  2.1113
  842SOL     OW12564   4.773   2.463   2.311 -0.0917 -0.1461 -0.1098
  842SOL    HW112565   4.846   2.505   2.256 -0.0103  0.0291  0.1303
  842SOL    HW212566   4.772   2.505   2.402 -0.9254  0.3175 -0.3272
  843SOL     OW12567   2.938   8.977   0.158 -0.0961  0.9038 -0.2037
  843SOL    HW112568   2.868   8.915   0.192 -0.7972  1.5673 -0.4278
  843SOL    HW212569   2.907   9.018   0.072  0.9703  0.4737 -0.8001
  844SOL     OW12570   1.564   5.324   1.716 -0.3050  0.3755 -0.4351
  844SOL    HW112571   1.653   5.327   1.761 -0.9295 -0.5758  0.9083
  844SOL    HW212572   1.497   5.280   1.777 -1.1622 -0.9902 -2.3154
  845SOL     OW12573   0.706   1.578   2.629 -0.4064  0.1103  0.3659
  845SOL    HW112574   0.716   1.480   2.619 -0.6891  0.0436  0.6962
  845SOL    HW212575   0.615   1.598   2.667 -0.6334  0.5390 -0.3960
  846SOL     OW12576   1.240  10.509   1.258  0.3677  0.6157  0.1036
  846SOL    HW112577   1.203  10.519   1.165 -1.0599 -2.2445  0.3237
  846SOL    HW212578   1.226  10.595   1.308 -0.9795  1.4170 -1.5764
  847SOL     OW12579   4.081   9.331   0.866 -0.5321 -0.0754 -0.0131
  847SOL    HW112580   4.032   9.399   0.810 -1.8862 -1.1119 -0.1211
  847SOL    HW212581   4.091   9.247   0.814 -0.0707 -0.4033  0.6045
  848SOL     OW12582   4.732   2.451   1.725  0.0707 -0.3881 -0.1504
  848SOL    HW112583   4.709   2.425   1.818 -1.5771  1.3852 -0.0217
  848SOL    HW212584   4.774   2.542   1.725 -2.3602  0.7931 -1.3307
  849SOL     OW12585   0.822   6.761   1.474 -0.2875  0.2744 -0.4479
  849SOL    HW112586   0.852   6.690   1.538  0.6784  2.0319  1.0940
  849SOL    HW212587   0.723   6.772   1.480 -0.4248 -0.7855 -0.5715
  850SOL     OW12588   3.300   6.109   0.814  0.5017  0.1718 -0.0344
  850SOL    HW112589   3.324   6.205   0.801  2.7248 -0.6878 -2.6188
  850SOL    HW212590   3.209   6.092   0.776  0.3089  1.1279 -0.0078
  851SOL     OW12591   2.276   3.306   0.179 -0.3956 -0.5597 -0.1129
  851SOL    HW112592   2.261   3.348   0.089 -1.0723 -0.6438 -0.0413
  851SOL    HW212593   2.301   3.376   0.245 -0.7592 -0.3755 -0.1698
  852SOL     OW12594   3.643   8.459   1.561 -0.1187 -0.2959  0.4724
  852SOL    HW112595   3.700   8.533   1.525  0.7308 -0.6203  1.1382
  852SOL    HW212596   3.698   8.400   1.620 -0.3911 -2.3467 -1.2468
  853SOL     OW12597   3.382   1.775   0.461  0.7577  0.4242  0.0419
  853SOL    HW112598   3.352   1.741   0.550  1.1201  3.2116  1.2726
  853SOL    HW212599   3.480   1.755   0.449  0.5832 -0.4317  0.0172
  854SOL     OW12600  10.340   3.700   1.637  0.0615  0.1499 -0.1934
  854SOL    HW112601  10.385   3.633   1.696 -2.8027 -0.1508  1.7386
  854SOL    HW212602  10.277   3.653   1.575 -0.1518  0.8568 -0.5197
  855SOL     OW12603   9.348   2.398   1.648  0.4804 -0.3430  0.0047
  855SOL    HW112604   9.340   2.382   1.550  0.9683 -1.3150  0.1132
  855SOL    HW212605   9.431   2.354   1.683  1.6159  2.0827  0.4435
  856SOL     OW12606   0.776   7.832   1.771 -0.2856 -0.3405  0.5442
  856SOL    HW112607   0.789   7.907   1.836 -1.5185 -1.1208  1.7269
  856SOL    HW212608   0.829   7.849   1.689  1.1601  0.7588  1.6866
  857SOL     OW12609   0.670   6.482   0.254  0.2966 -0.6707 -0.6764
  857SOL    HW112610   0.691   6.528   0.340  0.0350 -0.3093 -0.8017
  857SOL    HW212611   0.617   6.400   0.272 -3.0658  1.3824 -0.7024
  858SOL     OW12612   5.154   3.406   0.269 -0.0184  0.2557  0.0633
  858SOL    HW112613   5.189   3.483   0.216 -1.6087  1.8511  1.2746
  858SOL    HW212614   5.192   3.409   0.362  2.0174 -1.9951 -0.6183
  859SOL     OW12615   9.258   4.211   1.606  0.5321 -0.1346 -0.0126
  859SOL    HW112616   9.308   4.287   1.567 -0.4043  0.4902 -0.0089
  859SOL    HW212617   9.311   4.126   1.594  1.0464  0.3247 -1.0434
  860SOL     OW12618   2.501   8.372   1.856  0.2374 -0.2572 -0.1967
  860SOL    HW112619   2.491   8.310   1.779 -1.6592  0.7803 -0.8004
  860SOL    HW212620   2.451   8.337   1.935  0.1985 -0.1100 -0.1548
  861SOL     OW12621   0.628  10.705   1.728  1.0301  0.1112 -0.4972
  861SOL    HW112622   0.664  10.627   1.677  0.6632  0.1920 -0.8857
  861SOL    HW212623   0.701  10.744   1.785  0.7861 -1.5486  0.9986
  862SOL     OW12624   2.012   6.455   0.325  0.3467 -0.5473  0.1006
  862SOL    HW112625   1.988   6.527   0.390 -0.3537 -1.6363  1.1003
  862SOL    HW212626   1.931   6.429   0.273  0.7443 -0.1650 -0.7035
  863SOL     OW12627   1.504   6.163   2.020  0.3435 -0.4176 -0.6115
  863SOL    HW112628   1.449   6.214   2.087 -3.0922 -2.9067 -1.4298
  863SOL    HW212629   1.561   6.097   2.068 -0.1418 -0.3821  0.0285
  864SOL     OW12630   2.141   5.347   0.756 -0.6701  0.8426 -0.0613
  864SOL    HW112631   2.081   5.425   0.774 -2.3644  0.0548 -2.1439
  864SOL    HW212632   2.202   5.369   0.680 -0.4721  0.4952 -0.0023
  865SOL     OW12633   4.714   4.109   0.391  0.4412  0.2284  0.6035
  865SOL    HW112634   4.738   4.197   0.431  3.3009 -1.4402  2.7456
  865SOL    HW212635   4.642   4.065   0.445 -0.6461  0.9896 -0.1925
  866SOL     OW12636   4.162   2.281   0.440 -0.0631  0.0023 -0.2483
  866SOL    HW112637   4.119   2.365   0.406 -1.3432 -1.1386 -1.5027
  866SOL    HW212638   4.126   2.259   0.530  0.4124  0.8880  0.1653
  867SOL     OW12639   1.818   7.012   2.212  0.3072  0.1435 -0.4398
  867SOL    HW112640   1.900   6.973   2.170  1.2335  2.9505 -1.3619
  867SOL    HW212641   1.745   6.943   2.214  1.9653 -1.7019 -1.6400
  868SOL     OW12642  10.018   4.549   2.389  0.7183 -0.8785 -0.0508
  868SOL    HW112643  10.049   4.454   2.398 -1.2884 -1.2720  3.4652
  868SOL    HW212644  10.051   4.603   2.466 -2.2022  0.0645  0.6130
  869SOL     OW12645   4.953   1.658   0.478  0.2647 -0.2527 -0.2015
  869SOL    HW112646   4.884   1.609   0.424  0.6189 -0.9949  0.0009
  869SOL    HW212647   4.915   1.679   0.569  0.5678 -1.3855  0.2001
  870SOL     OW12648   2.902   9.512   2.110 -0.5290  0.2780  0.3831
  870SOL    HW112649   2.868   9.467   2.028  0.5141 -0.5419  0.3982
  870SOL    HW212650   2.957   9.591   2.084  1.3599 -1.0629  0.2213
  871SOL     OW12651   1.536   6.760   0.292 -0.1894 -0.4830  0.0576
  871SOL    HW112652   1.515   6.665   0.270  0.0374 -0.9379  1.7347
  871SOL    HW212653   1.492   6.821   0.226  0.0885 -1.7673 -1.3319
  872SOL     OW12654   1.638   1.570   0.103 -0.6609  0.3958 -0.4709
  872SOL    HW112655   1.665   1.474   0.115 -0.3584  0.5746  0.2946
  872SOL    HW212656   1.718   1.628   0.115 -1.0493  0.8147  0.0839
  873SOL     OW12657   1.765   3.839   0.893 -0.4314 -0.6292 -0.2945
  873SOL    HW112658   1.743   3.788   0.810  0.6824 -1.7651  0.0835
  873SOL    HW212659   1.709   3.805   0.969  1.8910 -2.9430  0.4777
  874SOL     OW12660  10.542  10.540   1.949  0.5296 -0.4172  0.1903
  874SOL    HW112661  10.472  10.593   1.998  0.6584 -1.0405  1.0581
  874SOL    HW212662  10.571  10.591   1.868 -1.0125 -0.2116 -0.2391
  875SOL     OW12663   2.189  10.599   2.367 -0.0406  0.0029  0.4284
  875SOL    HW112664   2.276  10.577   2.413  0.7266  1.6543 -0.1827
  875SOL    HW212665   2.129  10.520   2.371  2.2529 -1.8834 -0.8948
  876SOL     OW12666   3.277   8.033   1.916  0.3569 -0.0289  0.1019
  876SOL    HW112667   3.321   7.960   1.969 -0.2381 -1.7951 -1.7774
  876SOL    HW212668   3.344   8.105   1.896  0.7601  0.3406  2.6038
  877SOL     OW12669   9.932   5.983   1.097 -0.2153 -0.4492 -0.1459
  877SOL    HW112670   9.919   6.053   1.167  0.6173 -0.2396 -0.2008
  877SOL    HW212671   9.939   5.893   1.141  1.1628 -0.2256  0.1168
  878SOL     OW12672   2.047   8.527   2.232 -0.2904 -0.5546  0.1771
  878SOL    HW112673   2.052   8.469   2.313 -3.6951 -0.1237  0.7553
  878SOL    HW212674   2.059   8.622   2.258  0.0364 -0.5338 -0.0432
  879SOL     OW12675  10.394   2.737   1.428 -0.0698  0.3768 -0.0287
  879SOL    HW112676  10.489   2.720   1.456 -0.6356 -0.7810  1.2697
  879SOL    HW212677  10.338   2.656   1.450 -1.6361  1.5913  0.5382
  880SOL     OW12678   3.533   2.706   2.682 -0.6307 -0.2658 -0.1839
  880SOL    HW112679   3.482   2.671   2.761  0.1186  0.1236  0.4862
  880SOL    HW212680   3.631   2.702   2.702 -0.5171  3.5173  0.5371
  881SOL     OW12681   0.915   3.656   0.115 -0.1354 -0.0205 -0.5516
  881SOL    HW112682   0.940   3.729   0.179 -1.0170 -0.5491  0.3991
  881SOL    HW212683   0.997   3.624   0.068  1.0257 -1.6907  2.4820
  882SOL     OW12684   3.905   3.801   1.462 -0.1073  0.1872 -0.1314
  882SOL    HW112685   3.809   3.775   1.472 -1.0684  1.4150 -5.1173
  882SOL    HW212686   3.961   3.718   1.457 -1.1761 -0.5771  0.1450
  883SOL     OW12687   1.090   1.522   2.143  0.5244  0.1675 -0.3875
  883SOL    HW112688   1.188   1.509   2.125  0.1729 -1.0746 -1.4711
  883SOL    HW212689   1.045   1.558   2.062  0.1038  0.8892  0.1620
  884SOL     OW12690   3.776   1.832   2.148  0.3543  0.2669 -0.2807
  884SOL    HW112691   3.724   1.793   2.224  0.1228  0.7479 -0.1891
  884SOL    HW212692   3.744   1.791   2.062 -0.7308  1.1261 -0.3003
  885SOL     OW12693   1.125   2.291   0.719 -0.2206  0.5035  0.1893
  885SOL    HW112694   1.161   2.203   0.749  0.8830  1.2428  1.0866
  885SOL    HW212695   1.044   2.277   0.661 -0.6691 -1.0532  1.1765
  886SOL     OW12696   9.914   2.911   2.706  0.0135 -0.3165  0.1096
  886SOL    HW112697   9.864   2.894   2.621 -1.2310  0.6011  0.6329
  886SOL    HW212698   9.985   2.979   2.690 -1.3023  1.0916  0.1492
  887SOL     OW12699   2.801   9.771   0.941  0.4322  0.2242  0.7768
  887SOL    HW112700   2.801   9.823   0.856 -0.2218  0.1692  0.7356
  887SOL    HW212701   2.865   9.812   1.006  1.8968 -0.5115 -0.2018
  888SOL     OW12702   2.554   6.198   0.324 -0.7542  0.1349  0.3394
  888SOL    HW112703   2.582   6.103   0.308  2.2031  1.1887 -1.0925
  888SOL    HW212704   2.594   6.230   0.410  1.5592  1.2663 -1.1075
  889SOL     OW12705   0.984  10.268   0.174 -0.6434 -0.1348  0.0849
  889SOL    HW112706   0.974  10.365   0.197 -0.7017 -0.4316  1.3357
  889SOL    HW212707   0.944  10.252   0.084 -0.0650  1.1214 -0.4199
  890SOL     OW12708   9.263   2.491   0.131  0.0187  0.5872  0.2402
  890SOL    HW112709   9.271   2.456   0.224 -1.7077 -2.0397 -0.5494
  890SOL    HW212710   9.188   2.445   0.084  1.7613  0.8389 -2.9169
  891SOL     OW12711   3.238   1.620   1.264 -0.3810  0.3807 -0.0916
  891SOL    HW112712   3.155   1.625   1.319 -0.6502  0.0524 -0.4685
  891SOL    HW212713   3.269   1.525   1.258 -0.6893  0.3322 -1.0062
  892SOL     OW12714   3.856   0.953   1.944 -0.2941  0.2223 -0.3074
  892SOL    HW112715   3.877   1.046   1.915 -0.2055  0.0296 -0.8666
  892SOL    HW212716   3.940   0.906   1.970 -0.1793 -0.1362 -1.3192
  893SOL     OW12717   3.576   2.049   0.569 -0.1420 -0.1546  0.0018
  893SOL    HW112718   3.596   1.955   0.598 -1.0354 -0.7625 -1.2946
  893SOL    HW212719   3.481   2.071   0.592 -0.8929 -0.6807 -2.4782
  894SOL     OW12720   1.902   4.122   0.236  0.0091 -0.7858 -0.1400
  894SOL    HW112721   1.890   4.028   0.267 -0.8965 -0.6453 -0.0599
  894SOL    HW212722   1.963   4.171   0.299 -1.8001 -0.5062  1.4414
  895SOL     OW12723   1.087   9.684   1.430 -0.1183  0.2122 -0.0571
  895SOL    HW112724   1.131   9.674   1.519  0.4965 -0.8079 -0.4608
  895SOL    HW212725   1.153   9.661   1.358 -0.6317  0.9496 -0.7700
  896SOL     OW12726   1.903   6.492   0.926 -0.1189  0.3808 -0.1100
  896SOL    HW112727   1.958   6.460   0.849 -0.1823 -0.2869  0.1211
  896SOL    HW212728   1.818   6.440   0.930  0.0398  0.1692  0.6198
  897SOL     OW12729   3.149  10.607   0.529 -0.2049  0.4742  0.1545
  897SOL    HW112730   3.102  10.694   0.519 -0.0038  0.5394 -0.2498
  897SOL    HW212731   3.138  10.554   0.445  0.1618  0.3535  0.1821
  898SOL     OW12732   2.859   8.127   1.706 -0.0115  0.5533 -0.4755
  898SOL    HW112733   2.940   8.079   1.742 -0.6030  1.6389  2.4472
  898SOL    HW212734   2.831   8.084   1.620  0.3024 -3.5180  1.3028
  899SOL     OW12735   1.552   5.955   1.200  0.0652 -0.6039 -0.5330
  899SOL    HW112736   1.453   5.939   1.201  0.1550 -1.0483  1.2065
  899SOL    HW212737   1.569   6.054   1.198 -0.4003 -0.4917  0.7828
  900SOL     OW12738   3.304   2.619   0.971 -0.2662 -0.5007 -0.1436
  900SOL    HW112739   3.321   2.665   1.058  0.6947 -1.7219  0.3352
  900SOL    HW212740   3.242   2.674   0.915 -1.8949 -0.2814  1.8287
  901SOL     OW12741  10.036   5.016   0.503 -0.7403 -0.2471  0.1525
  901SOL    HW112742  10.081   4.932   0.473 -1.8670 -0.8300  0.0691
  901SOL    HW212743  10.102   5.092   0.501  0.0674 -0.9591 -0.5518
  902SOL     OW12744  10.159   2.397   2.120  0.2618  0.4687  0.0538
  902SOL    HW112745  10.129   2.310   2.158 -1.2283  1.2428  0.7120
  902SOL    HW212746  10.202   2.382   2.031  0.2403 -0.9570  0.2767
  903SOL     OW12747   2.209   9.032   1.446 -0.5088  0.1055  0.3184
  903SOL    HW112748   2.160   8.973   1.382 -1.1085 -0.3876  1.2186
  903SOL    HW212749   2.213   8.988   1.536  0.5027  0.7007  0.5752
  904SOL     OW12750  10.482   4.639   0.441 -0.4225  0.4303  0.6842
  904SOL    HW112751  10.450   4.562   0.386  1.5349  0.2087 -0.1933
  904SOL    HW212752  10.467   4.619   0.538 -1.6310 -0.2447  0.3711
  905SOL     OW12753   3.226   7.972   0.584 -0.0065 -0.0795 -0.1391
  905SOL    HW112754   3.214   7.914   0.664  0.5554  1.6034  1.1950
  905SOL    HW212755   3.153   7.953   0.518 -0.2618 -1.7420  0.5952
  906SOL     OW12756   9.805   1.382   0.244  0.1122 -0.5277  0.1054
  906SOL    HW112757   9.827   1.424   0.332  0.8940  1.3449 -0.9532
  906SOL    HW212758   9.709   1.397   0.223  0.0412 -0.5521  0.3954
  907SOL     OW12759   2.999   1.798   1.142  0.5064  0.0258  0.1999
  907SOL    HW112760   2.940   1.815   1.063  0.5045 -0.0079  0.1939
  907SOL    HW212761   3.023   1.885   1.185 -1.4452 -0.0895  1.6019
  908SOL     OW12762  10.181   6.575   1.993 -0.2096 -0.1344 -0.5069
  908SOL    HW112763  10.123   6.558   1.913  0.9480 -0.4713 -1.2771
  908SOL    HW212764  10.144   6.525   2.071 -1.5575  0.4901 -0.7289
  909SOL     OW12765   3.844   2.573   0.964  0.1313 -0.4896 -0.0288
  909SOL    HW112766   3.746   2.584   0.945  0.3739  1.0234 -0.5346
  909SOL    HW212767   3.893   2.559   0.878  0.5902  0.8657 -0.0041
  910SOL     OW12768   0.877   1.582   1.421 -0.2388 -0.5351  0.0373
  910SOL    HW112769   0.969   1.616   1.402 -0.4337 -0.2335 -0.3691
  910SOL    HW212770   0.834   1.640   1.490  0.2900 -1.3460  1.0694
  911SOL     OW12771  10.392   1.784   2.079  0.2170 -0.4910 -0.1425
  911SOL    HW112772  10.419   1.875   2.110  3.0152 -0.9107 -1.1436
  911SOL    HW212773  10.324   1.792   2.005 -1.7653  0.6560  1.7657
  912SOL     OW12774   1.666   2.067   0.867  0.0548  0.5204 -0.5672
  912SOL    HW112775   1.599   2.122   0.918  0.7936  2.2026 -1.3509
  912SOL    HW212776   1.655   1.971   0.890  0.3024  1.2289  2.6470
  913SOL     OW12777   0.772   5.502   1.613 -0.0941 -0.3999 -0.4187
  913SOL    HW112778   0.768   5.410   1.653 -0.6885  0.0604  0.6163
  913SOL    HW212779   0.837   5.557   1.666 -0.0920 -0.0889 -0.7483
  914SOL     OW12780   3.803  10.160   1.864  0.1026  0.3920 -0.4328
  914SOL    HW112781   3.748  10.242   1.876 -0.4618 -0.1762  0.9666
  914SOL    HW212782   3.885  10.166   1.921 -1.5569 -1.4108  2.2645
  915SOL     OW12783   3.147   8.908   1.920 -0.4985 -0.5451 -0.1723
  915SOL    HW112784   3.207   8.881   1.844 -0.0569 -1.0007  0.3334
  915SOL    HW212785   3.202   8.947   1.994 -0.7023 -1.9618  0.7422
  916SOL     OW12786   1.991   3.647   1.079  0.1801 -0.0638  0.5416
  916SOL    HW112787   1.903   3.600   1.085  0.4917 -0.7109  0.0638
  916SOL    HW212788   1.976   3.746   1.075 -0.4803 -0.1198  1.4305
  917SOL     OW12789   3.621   3.840   1.159  0.1780 -0.0742  0.1932
  917SOL    HW112790   3.720   3.842   1.151  0.0015 -1.7315 -3.3690
  917SOL    HW212791   3.582   3.922   1.117  0.0577  1.6325  3.4760
  918SOL     OW12792   3.655   3.885   0.374  0.2607  0.2513 -0.0053
  918SOL    HW112793   3.721   3.825   0.419  1.2831  0.4142 -1.2477
  918SOL    HW212794   3.576   3.899   0.433  1.7290  0.7194  1.8654
  919SOL     OW12795   2.980   4.715   2.518 -0.0250  0.8965 -0.3154
  919SOL    HW112796   3.004   4.764   2.434  1.5729  0.2230 -0.2802
  919SOL    HW212797   2.953   4.621   2.494 -1.8988  1.4073 -0.2766
  920SOL     OW12798   5.127   3.648   2.347  0.0206 -0.0757  0.2033
  920SOL    HW112799   5.193   3.579   2.378  0.9312  0.8062  0.2599
  920SOL    HW212800   5.096   3.701   2.425 -0.8477 -0.5518  0.1900
  921SOL     OW12801   3.960   2.462   0.714 -0.2520 -0.1689  0.2095
  921SOL    HW112802   4.041   2.404   0.709  0.0553  0.3476 -0.9846
  921SOL    HW212803   3.986   2.557   0.693 -1.1423  0.0196 -0.0652
  922SOL     OW12804  10.080   6.202   0.123  0.9751 -0.2866 -0.1467
  922SOL    HW112805  10.053   6.218   0.218  1.4279 -1.5796  0.2256
  922SOL    HW212806  10.120   6.110   0.116  1.3789 -0.0123 -1.4948
  923SOL     OW12807   2.687   3.179   0.772  0.0543 -0.0286 -0.6561
  923SOL    HW112808   2.596   3.161   0.735 -0.7357 -1.0922  1.7184
  923SOL    HW212809   2.684   3.261   0.829  1.0735  1.1300 -2.2266
  924SOL     OW12810   1.733   5.164   0.451 -0.1828  0.5479  0.1299
  924SOL    HW112811   1.783   5.078   0.440 -0.7239  0.2251  0.1767
  924SOL    HW212812   1.647   5.161   0.400  0.0334  1.2592 -0.2866
  925SOL     OW12813   0.600   2.611   2.083 -0.0678  0.0035 -0.7339
  925SOL    HW112814   0.664   2.560   2.141 -0.1240  1.6618  0.8033
  925SOL    HW212815   0.638   2.619   1.991  1.4693  0.0747 -0.1071
  926SOL     OW12816   0.923   7.968   0.178  0.3538  0.4356 -0.7555
  926SOL    HW112817   0.945   7.870   0.177  1.4636  0.6726 -0.8503
  926SOL    HW212818   0.904   7.997   0.271 -0.6601 -0.0153 -0.8193
  927SOL     OW12819   1.850   5.924   1.942 -0.5130 -0.3397  0.0772
  927SOL    HW112820   1.787   5.927   2.019 -1.1871  0.2875 -0.4951
  927SOL    HW212821   1.935   5.970   1.967 -1.1341  0.8296  0.0922
  928SOL     OW12822   4.506   2.641   1.261 -0.3024 -0.5190  0.2459
  928SOL    HW112823   4.518   2.590   1.346  1.8073  1.0357  0.9078
  928SOL    HW212824   4.595   2.670   1.225 -1.2220 -0.2796 -1.9688
  929SOL     OW12825   3.023   6.963   0.963 -0.6604 -0.3368  0.2834
  929SOL    HW112826   2.951   7.024   0.929 -0.1699  1.7033  2.7134
  929SOL    HW212827   3.091   7.017   1.013  0.7754 -2.6631  0.8881
  930SOL     OW12828   4.031   0.973   0.903 -0.6427  0.1235  0.6247
  930SOL    HW112829   3.961   1.019   0.958  0.1945 -0.1727  1.9519
  930SOL    HW212830   4.022   0.874   0.913 -0.3405  0.0717  0.3946
  931SOL     OW12831   0.917   4.546   1.686 -0.3510 -0.7312 -0.1343
  931SOL    HW112832   0.905   4.467   1.747  0.9562 -0.1009  0.9498
  931SOL    HW212833   0.950   4.624   1.739  1.2090 -0.2955 -1.7166
  932SOL     OW12834   0.935   4.324   1.951  0.0418  0.2904  0.7828
  932SOL    HW112835   0.953   4.229   1.974  0.1234  0.3097  0.7989
  932SOL    HW212836   0.841   4.347   1.975 -0.3001 -0.0741 -0.1631
  933SOL     OW12837   3.317   5.106   0.720 -0.2200 -0.2088  0.2745
  933SOL    HW112838   3.348   5.013   0.740  1.1541  0.6974  2.4613
  933SOL    HW212839   3.367   5.171   0.776 -1.5910  1.8303 -0.7997
  934SOL     OW12840  10.012   5.316   1.099 -0.3576  0.2869  0.1782
  934SOL    HW112841  10.032   5.221   1.075 -0.5567  0.0175  1.0538
  934SOL    HW212842  10.002   5.324   1.198  0.0949  1.3038  0.1544
  935SOL     OW12843  10.578   5.647   2.637  0.2486  0.3218 -0.0102
  935SOL    HW112844  10.635   5.728   2.624  0.6805  0.2682  1.4320
  935SOL    HW212845  10.625   5.583   2.698 -1.9427  0.9175  2.4016
  936SOL     OW12846   2.079   6.869   2.444  0.9625  0.4685 -0.3743
  936SOL    HW112847   2.149   6.809   2.483  2.1783  1.7127 -0.5938
  936SOL    HW212848   2.116   6.962   2.435 -0.8586  1.2349 -0.1383
  937SOL     OW12849   2.999  10.289   1.217 -0.3488 -0.1856  0.4937
  937SOL    HW112850   2.979  10.251   1.126 -1.7156  1.0697  0.2522
  937SOL    HW212851   2.935  10.363   1.237 -1.2002 -1.5838  3.2234
  938SOL     OW12852   4.316   4.489   2.675 -0.4861  0.2066  0.1760
  938SOL    HW112853   4.323   4.416   2.743 -0.1284 -0.5023 -0.6005
  938SOL    HW212854   4.406   4.507   2.637 -0.9407 -0.6525 -1.3719
  939SOL     OW12855   4.297   4.383   1.712 -0.3889 -0.1004 -0.2812
  939SOL    HW112856   4.250   4.428   1.787 -0.9346  0.1356 -0.7602
  939SOL    HW212857   4.249   4.297   1.690 -0.5178  0.0744 -0.6805
  940SOL     OW12858   2.989   4.767   0.293 -0.4627  0.2917  0.1373
  940SOL    HW112859   3.029   4.829   0.226  1.2796 -0.4654  0.4492
  940SOL    HW212860   2.991   4.673   0.257  0.7911 -0.1715  1.3557
  941SOL     OW12861   9.912   1.982   2.353  0.0331  0.2629  0.0003
  941SOL    HW112862   9.957   1.897   2.325  0.6760  0.6327 -0.1153
  941SOL    HW212863   9.910   1.987   2.453  0.0588  0.1415  0.0065
  942SOL     OW12864   1.784   9.494   1.714  0.5562  0.2463  0.1895
  942SOL    HW112865   1.758   9.505   1.618  0.5250 -0.4558  0.1162
  942SOL    HW212866   1.746   9.570   1.767  0.4508  0.5605 -0.3277
  943SOL     OW12867   1.740   8.651   1.394  0.1705  0.3231 -0.2670
  943SOL    HW112868   1.644   8.646   1.367 -0.2824  0.6589  1.2096
  943SOL    HW212869   1.750   8.717   1.468  1.5663  0.3637 -0.4723
  944SOL     OW12870  10.557   7.310   2.417 -0.3274  0.7676 -0.6837
  944SOL    HW112871  10.637   7.254   2.440  0.3213  1.5731 -0.9334
  944SOL    HW212872  10.491   7.256   2.365 -1.2907 -0.7547  2.0330
  945SOL     OW12873   2.005   3.106   1.861  0.0641  0.0531 -0.7288
  945SOL    HW112874   2.002   3.166   1.941 -0.5947  2.1958 -2.3133
  945SOL    HW212875   2.100   3.081   1.842  0.2781 -0.0120  0.3548
  946SOL     OW12876   3.101   8.025   0.988 -0.0909 -0.0065  0.2275
  946SOL    HW112877   3.015   8.062   1.021  0.0646  0.6064 -0.0395
  946SOL    HW212878   3.159   8.001   1.066  0.1147  1.0447  0.4035
  947SOL     OW12879   0.880   8.158   1.421 -0.0932  0.2256  0.0699
  947SOL    HW112880   0.782   8.177   1.421 -0.2362 -0.4386 -1.2248
  947SOL    HW212881   0.897   8.069   1.462 -0.0528  0.2554  0.1178
  948SOL     OW12882   1.323   2.847   1.600 -0.2337  0.0986 -0.0294
  948SOL    HW112883   1.236   2.803   1.623 -0.1740 -0.6953 -1.2983
  948SOL    HW212884   1.399   2.788   1.627 -0.0698  0.8774  1.2542
  949SOL     OW12885  10.233   5.217   0.524 -0.1117  0.3261 -0.5019
  949SOL    HW112886  10.321   5.231   0.479  0.6510 -1.2153  0.4704
  949SOL    HW212887  10.248   5.198   0.621 -1.4455 -0.8533 -0.5131
  950SOL     OW12888   1.367   6.351   0.988 -0.3470 -0.6461  0.6111
  950SOL    HW112889   1.291   6.358   0.924 -1.9819 -2.1021  2.3626
  950SOL    HW212890   1.355   6.418   1.062  1.2340  0.6319 -0.2483
  951SOL     OW12891   9.943   4.665   1.291  0.3011  0.4354 -0.6211
  951SOL    HW112892   9.867   4.692   1.232  0.8344  0.4384 -1.3098
  951SOL    HW212893  10.029   4.701   1.254  0.4200  2.0999  1.2069
  952SOL     OW12894   3.065   2.738   0.365  1.5028 -0.1666 -0.1199
  952SOL    HW112895   3.086   2.796   0.287  0.1399  0.6767  0.1319
  952SOL    HW212896   3.083   2.642   0.341 -0.3122 -0.0753 -1.9740
  953SOL     OW12897   3.119   8.787   1.091 -0.3414 -0.0811 -0.2627
  953SOL    HW112898   3.201   8.820   1.139 -1.0852  1.0617  0.2298
  953SOL    HW212899   3.142   8.703   1.042  1.1717  0.2933 -0.2386
  954SOL     OW12900   1.501   0.888   1.166 -0.0829 -0.3506  0.6162
  954SOL    HW112901   1.558   0.912   1.244  0.9842 -0.2314 -0.1889
  954SOL    HW212902   1.505   0.789   1.151 -1.5310 -0.5841  1.6570
  955SOL     OW12903   9.587   1.147   2.523 -0.4376 -0.1116  0.1637
  955SOL    HW112904   9.574   1.087   2.602 -0.8119  0.0360  0.2141
  955SOL    HW212905   9.684   1.151   2.500 -0.6861 -2.9920 -1.6121
  956SOL     OW12906   9.756   2.013   2.126  0.1866  0.3698  0.4160
  956SOL    HW112907   9.793   1.990   2.216  0.9215 -1.9196 -0.4594
  956SOL    HW212908   9.801   1.959   2.056 -0.9455  1.5629 -1.2747
  957SOL     OW12909   4.525   4.896   1.512  0.1569  0.5135 -0.0227
  957SOL    HW112910   4.528   4.893   1.412 -1.2803  1.3159 -0.0940
  957SOL    HW212911   4.483   4.812   1.547 -1.0486  1.0362 -0.1856
  958SOL     OW12912   2.385   4.661   1.602  0.1825 -0.0176  0.2532
  958SOL    HW112913   2.473   4.678   1.647  1.3113 -0.3958 -1.7721
  958SOL    HW212914   2.365   4.563   1.604  0.6011 -0.1246 -0.7319
  959SOL     OW12915   2.356   9.805   1.003 -0.4652 -0.0440  0.1557
  959SOL    HW112916   2.299   9.728   0.975 -0.0728 -0.0160 -0.7568
  959SOL    HW212917   2.315   9.851   1.082 -2.5624  0.9514 -1.4472
  960SOL     OW12918   3.512   8.836   2.266 -0.1838  0.0918 -0.3904
  960SOL    HW112919   3.529   8.823   2.168 -1.8310 -1.9049 -0.4528
  960SOL    HW212920   3.418   8.865   2.281  0.0604  0.4084  0.6055
  961SOL     OW12921  10.577   5.130   0.665  0.1691  0.4197 -0.0240
  961SOL    HW112922  10.601   5.135   0.569  0.2591  0.8197  0.0198
  961SOL    HW212923  10.632   5.195   0.717  0.2329  0.0925  0.3187
  962SOL     OW12924   1.718   4.544   2.096  0.3651  0.2376  0.2091
  962SOL    HW112925   1.655   4.476   2.058  1.6741  0.8736 -3.2615
  962SOL    HW212926   1.686   4.636   2.072  1.3150  0.6498  0.5151
  963SOL     OW12927   8.537   1.779   1.096 -0.5555 -0.5678  0.0266
  963SOL    HW112928   8.632   1.789   1.065  0.4318 -0.1079  3.0168
  963SOL    HW212929   8.534   1.716   1.174 -2.6931 -0.3820  0.1196
  964SOL     OW12930   1.676   1.448   0.952  0.3068  0.0521 -0.3260
  964SOL    HW112931   1.692   1.526   0.890  2.7553  0.2063  0.4450
  964SOL    HW212932   1.636   1.481   1.037  0.6799  0.3737 -0.2745
  965SOL     OW12933  10.211   1.223   0.376  0.3401  0.2103  0.0167
  965SOL    HW112934  10.175   1.140   0.417  1.4861  0.7810  2.2191
  965SOL    HW212935  10.206   1.298   0.442  0.9371  1.4805 -1.3464
  966SOL     OW12936   1.595   7.684   1.516  0.0122  0.7503 -0.1675
  966SOL    HW112937   1.666   7.754   1.507 -0.8331  1.3730 -2.2263
  966SOL    HW212938   1.558   7.687   1.609  2.5709  0.4782  0.9290
  967SOL     OW12939   0.674   3.631   2.549 -0.4272  0.5713  0.4586
  967SOL    HW112940   0.691   3.704   2.484 -0.1840  1.1471  1.1568
  967SOL    HW212941   0.744   3.633   2.621  0.8238 -1.6422 -0.6196
  968SOL     OW12942   9.666   2.178   0.602  0.4869 -0.3368  0.3476
  968SOL    HW112943   9.609   2.259   0.617  2.0214  0.8952 -0.3561
  968SOL    HW212944   9.618   2.113   0.543 -0.1192  0.7664 -0.3850
  969SOL     OW12945   0.613   0.937   2.139  0.2130  0.5768 -0.1098
  969SOL    HW112946   0.590   1.009   2.206  0.0026 -0.5634  1.0622
  969SOL    HW212947   0.713   0.930   2.132  0.2360  0.6877  0.0893
  970SOL     OW12948   4.044   8.765   1.869 -0.1382  0.3194  0.5360
  970SOL    HW112949   4.056   8.790   1.965 -0.8089 -0.8086  0.9247
  970SOL    HW212950   4.034   8.848   1.814 -0.4190  0.9620  1.5363
  971SOL     OW12951   1.421   3.395   2.075  0.2432  0.1116  0.2290
  971SOL    HW112952   1.339   3.439   2.111  0.5696  1.7505 -0.9276
  971SOL    HW212953   1.500   3.422   2.129  0.1776 -0.6054  0.6878
  972SOL     OW12954   3.811   4.094   2.525  0.0496 -0.0306  0.8226
  972SOL    HW112955   3.822   4.138   2.436 -2.2879  0.9380  0.9749
  972SOL    HW212956   3.821   3.995   2.514 -1.5461 -0.0442 -0.7825
  973SOL     OW12957   4.703   2.499   2.028  0.5669 -0.2149 -0.4872
  973SOL    HW112958   4.645   2.417   2.027  0.2568  0.0009 -0.3588
  973SOL    HW212959   4.653   2.574   2.070  1.6633 -0.5703  1.5199
  974SOL     OW12960   1.469   3.923   0.836  0.1903  0.1073  0.7703
  974SOL    HW112961   1.504   3.844   0.885  0.0612  0.5559  1.5985
  974SOL    HW212962   1.456   3.999   0.900 -0.8286  0.4198  0.2062
  975SOL     OW12963   2.949   4.537   1.915  0.2578  0.1899  0.2171
  975SOL    HW112964   2.874   4.496   1.968 -0.0034  0.5726  0.1446
  975SOL    HW212965   3.015   4.466   1.892 -0.6687 -0.3918 -0.7090
  976SOL     OW12966   3.207   2.025   2.209 -0.5983 -0.1564  0.2871
  976SOL    HW112967   3.158   1.973   2.279  0.7273 -1.3541  0.3541
  976SOL    HW212968   3.142   2.081   2.157 -1.6299  0.4618  2.2108
  977SOL     OW12969   1.237   8.035   0.791 -0.0535  0.3189 -0.4652
  977SOL    HW112970   1.301   8.046   0.867 -0.3374  1.1424 -0.3456
  977SOL    HW212971   1.222   7.937   0.774 -0.4182  0.1385  0.8808
  978SOL     OW12972   1.805   1.078   2.066 -0.5838  0.1551 -0.1083
  978SOL    HW112973   1.905   1.085   2.067 -0.5220 -0.5130 -1.2196
  978SOL    HW212974   1.766   1.168   2.081  0.1863  0.3459  0.8166
  979SOL     OW12975   1.960   7.220   1.223  0.0942  0.2843 -0.2960
  979SOL    HW112976   1.996   7.297   1.275 -0.1390 -0.0710  0.3921
  979SOL    HW212977   1.956   7.139   1.281 -0.7105  0.0313 -0.6986
  980SOL     OW12978   1.566   8.568   2.202  0.4685 -0.1726 -0.5381
  980SOL    HW112979   1.483   8.558   2.147  1.0811 -1.0451 -1.3243
  980SOL    HW212980   1.628   8.631   2.155  1.2897 -1.4709 -1.2126
  981SOL     OW12981   0.728   5.956   2.161  0.0123 -0.0060  0.1617
  981SOL    HW112982   0.788   5.930   2.086 -0.7674  1.0564 -0.8506
  981SOL    HW212983   0.764   5.920   2.247  2.0132  0.4963 -0.4442
  982SOL     OW12984   1.357   3.939   0.578 -0.0534 -0.5857 -0.0661
  982SOL    HW112985   1.261   3.968   0.572 -0.1290 -0.4078  1.6622
  982SOL    HW212986   1.386   3.942   0.674  1.5089 -1.2039 -0.5141
  983SOL     OW12987   0.783   7.602   2.599  0.0574  0.0112 -0.3241
  983SOL    HW112988   0.818   7.567   2.512 -0.5457 -0.4424 -0.3895
  983SOL    HW212989   0.706   7.545   2.629  0.3559  0.0811  0.5785
  984SOL     OW12990   9.821   5.058   0.792 -0.4496 -0.3546  0.3524
  984SOL    HW112991   9.816   4.958   0.803 -1.4083 -0.2440  0.9603
  984SOL    HW212992   9.876   5.080   0.711 -0.2039 -1.3787  0.2362
  985SOL     OW12993   4.320   1.157   0.666 -0.2717 -0.1893  0.3205
  985SOL    HW112994   4.387   1.118   0.728 -0.0543 -0.3225  0.0033
  985SOL    HW212995   4.356   1.241   0.625  0.0963 -0.7775 -0.5915
  986SOL     OW12996   2.508   3.755   0.724  0.6196  0.5080  0.0568
  986SOL    HW112997   2.562   3.827   0.767  1.5010 -0.8012  1.1894
  986SOL    HW212998   2.469   3.789   0.638 -0.2455  2.8223  1.3102
  987SOL     OW12999   3.990   2.955   0.968 -0.0442  0.2377  0.1093
  987SOL    HW113000   3.932   2.990   1.041 -0.6733 -1.3156  0.3649
  987SOL    HW213001   4.042   2.876   1.001  1.3800  0.9195 -0.4455
  988SOL     OW13002   4.778   4.750   1.571 -0.1467  0.1355 -0.5156
  988SOL    HW113003   4.843   4.798   1.512  0.5513 -0.0971  0.0661
  988SOL    HW213004   4.709   4.815   1.603  0.0808  0.4873 -0.7326
  989SOL     OW13005   3.254   0.980   2.239 -0.2924  0.2712 -0.7510
  989SOL    HW113006   3.240   0.948   2.145 -1.8986 -1.3955  0.0249
  989SOL    HW213007   3.180   1.043   2.264 -0.4557 -0.1154 -0.2529
  990SOL     OW13008   0.918   6.414   0.116  0.1424  0.6647  0.8830
  990SOL    HW113009   0.892   6.429   0.021  2.4309 -0.1632  0.0934
  990SOL    HW213010   0.884   6.489   0.173 -1.3269  1.1051 -0.5611
  991SOL     OW13011   1.347   1.450   1.783  0.1511  0.2998  0.6412
  991SOL    HW113012   1.325   1.358   1.749 -0.2577  0.6609 -0.0802
  991SOL    HW213013   1.441   1.473   1.759 -0.1458  0.5626 -0.2646
  992SOL     OW13014   4.239   4.173   1.031 -0.0254  0.5265 -0.2270
  992SOL    HW113015   4.244   4.114   0.951 -1.5441  1.2618 -0.8842
  992SOL    HW213016   4.239   4.117   1.114 -1.1993 -0.3852 -0.8327
  993SOL     OW13017   0.854   8.686   2.227  0.1724 -0.0596  0.0657
  993SOL    HW113018   0.849   8.643   2.136 -0.6826 -0.0490  0.1095
  993SOL    HW213019   0.841   8.784   2.217 -0.4008 -0.1164  0.2558
  994SOL     OW13020   4.515   4.221   1.566 -0.4829 -0.2442 -0.0247
  994SOL    HW113021   4.599   4.196   1.613 -1.1764 -1.1998  0.7405
  994SOL    HW213022   4.456   4.273   1.628 -1.0747 -0.8407 -0.0841
  995SOL     OW13023   1.166  10.494   1.002 -1.0580 -0.2461  0.2735
  995SOL    HW113024   1.236  10.546   0.952  0.5019 -0.6608  1.9808
  995SOL    HW213025   1.082  10.490   0.947  0.1658  0.4668 -1.7050
  996SOL     OW13026   4.639   2.286   0.998 -0.0055  0.3234 -0.0266
  996SOL    HW113027   4.643   2.381   0.967  0.2366  0.0685 -0.8044
  996SOL    HW213028   4.554   2.270   1.048 -0.8260  0.5362 -1.3273
  997SOL     OW13029   9.776   4.250   0.668  0.5710 -0.3663 -0.2690
  997SOL    HW113030   9.728   4.322   0.618  0.4179 -0.0163  0.3718
  997SOL    HW213031   9.839   4.203   0.607  1.2451  0.8219 -0.5172
  998SOL     OW13032   0.788   1.619   0.759  0.5217 -0.0867  0.1387
  998SOL    HW113033   0.827   1.687   0.697 -1.3422  0.4956 -0.4384
  998SOL    HW213034   0.813   1.642   0.853  0.6921  0.8773 -0.1302
  999SOL     OW13035   1.097   8.993   2.332 -0.1471 -0.1151 -0.6064
  999SOL    HW113036   1.028   9.010   2.262  0.5558  2.5282 -0.7162
  999SOL    HW213037   1.080   9.052   2.411  0.5868 -1.1778  0.3610
 1000SOL     OW13038   4.730   1.670   0.993 -0.0222 -0.8046 -0.5063
 1000SOL    HW113039   4.639   1.649   0.960 -2.0942  0.9049  3.6961
 1000SOL    HW213040   4.747   1.768   0.986  0.8718 -0.9057  0.0807
 1001SOL     OW13041   3.503   3.539   1.488 -0.1405  0.1069  0.2641
 1001SOL    HW113042   3.531   3.462   1.545 -0.3503  1.0690  1.7090
 1001SOL    HW213043   3.404   3.549   1.491  0.0522  1.7468  1.8565
 1002SOL     OW13044  10.216   6.253   2.309  0.5580  0.0461  0.3223
 1002SOL    HW113045  10.266   6.310   2.374 -0.5872  0.8900  0.4789
 1002SOL    HW213046  10.278   6.185   2.270  1.8383  1.0950  0.4859
 1003SOL     OW13047   1.402   0.897   2.208 -0.0743 -0.5952 -0.4303
 1003SOL    HW113048   1.490   0.876   2.165  0.9975 -0.0029  1.4284
 1003SOL    HW213049   1.398   0.995   2.229 -0.2421 -1.0179  1.5555
 1004SOL     OW13050   8.984   2.384   1.629 -0.0151  0.0754 -0.1924
 1004SOL    HW113051   8.964   2.411   1.535  0.3959  0.8451 -0.0657
 1004SOL    HW213052   8.902   2.344   1.671 -0.4061  0.3956 -0.6491
 1005SOL     OW13053   3.366   3.016   2.263 -0.1278 -0.3340 -0.0073
 1005SOL    HW113054   3.418   2.957   2.325  1.7700  0.8723 -0.3924
 1005SOL    HW213055   3.416   3.102   2.251 -0.6352 -0.4170 -2.9225
 1006SOL     OW13056   1.944   1.694   2.397 -0.0239 -0.4234 -0.2033
 1006SOL    HW113057   1.870   1.706   2.464 -0.5549 -0.8164 -0.7082
 1006SOL    HW213058   1.925   1.749   2.316  0.2277 -0.5421 -0.3434
 1007SOL     OW13059   9.949   4.392   1.068 -0.6228  0.6989  0.1633
 1007SOL    HW113060  10.012   4.404   1.145 -0.4585 -1.0089  0.3083
 1007SOL    HW213061   9.855   4.398   1.100 -0.5576 -0.4606  0.5785
 1008SOL     OW13062   2.814   6.921   1.855 -0.4498  0.4346 -0.2189
 1008SOL    HW113063   2.878   6.919   1.778 -1.5592  1.4011 -1.1858
 1008SOL    HW213064   2.735   6.977   1.831 -1.3516 -0.1990  1.2137
 1009SOL     OW13065   2.351   4.121   2.184 -0.1046  0.7671 -0.2909
 1009SOL    HW113066   2.387   4.182   2.255 -2.6139  0.4520  1.3248
 1009SOL    HW213067   2.416   4.117   2.108  1.9284  2.3575  1.2760
 1010SOL     OW13068   4.275   3.293   2.672  0.8120 -0.2932  0.3788
 1010SOL    HW113069   4.277   3.214   2.732 -0.8574 -0.6483 -0.0210
 1010SOL    HW213070   4.181   3.325   2.662  1.1613  0.1933 -1.4718
 1011SOL     OW13071   1.080   2.957   1.253 -0.1934  0.0896 -0.2835
 1011SOL    HW113072   1.000   2.922   1.301 -0.3084 -0.7443 -1.0610
 1011SOL    HW213073   1.163   2.920   1.294 -0.2315  0.4130  0.0887
 1012SOL     OW13074   2.147   5.938   2.453  0.0160 -0.4847  0.6380
 1012SOL    HW113075   2.101   5.999   2.389 -1.7950  0.3058  2.6577
 1012SOL    HW213076   2.218   5.886   2.404  0.0042  1.5070 -1.5768
 1013SOL     OW13077   3.053   3.930   2.524 -0.1233  0.5253  0.5225
 1013SOL    HW113078   3.026   3.934   2.620  1.5300  0.1710  1.0208
 1013SOL    HW213079   2.972   3.919   2.467 -1.1630  1.1790  1.8421
 1014SOL     OW13080   3.210   8.374   1.779  0.2847 -0.7595 -0.1016
 1014SOL    HW113081   3.257   8.301   1.729 -0.9956 -0.7863 -1.2958
 1014SOL    HW213082   3.120   8.389   1.739  0.2621  1.0144  0.5619
 1015SOL     OW13083   3.923   0.881   1.223  0.1580 -0.4654 -0.5312
 1015SOL    HW113084   3.911   0.798   1.169  0.6341 -0.0388 -1.2922
 1015SOL    HW213085   3.885   0.959   1.174 -0.3673 -0.2428  0.2200
 1016SOL     OW13086   1.586   3.744   1.082  0.5010 -0.1553 -0.1290
 1016SOL    HW113087   1.553   3.650   1.070  0.2938  0.0736 -1.4602
 1016SOL    HW213088   1.516   3.798   1.127  0.9546 -0.8418  1.4303
 1017SOL     OW13089  10.572   5.587   0.575  0.5383 -0.3922  0.0920
 1017SOL    HW113090  10.531   5.549   0.658  0.1134  0.0752  0.0990
 1017SOL    HW213091  10.539   5.680   0.561  0.5719 -0.4798 -0.6262
 1018SOL     OW13092   1.793   0.811   2.325 -0.5571  0.2979  0.5658
 1018SOL    HW113093   1.736   0.773   2.398 -1.0457 -2.6266 -1.2478
 1018SOL    HW213094   1.736   0.833   2.246  0.7371 -2.8069 -1.3343
 1019SOL     OW13095   3.645   2.521   2.463 -0.1854 -0.2135 -0.1830
 1019SOL    HW113096   3.642   2.530   2.363 -1.7574 -1.0163 -0.2249
 1019SOL    HW213097   3.630   2.611   2.505 -2.2951 -0.2857 -0.6811
 1020SOL     OW13098   1.582   1.359   1.522  0.2997 -0.6067 -0.4401
 1020SOL    HW113099   1.634   1.341   1.439  0.4590 -3.2924  0.2061
 1020SOL    HW213100   1.620   1.307   1.598 -1.4124 -0.1794  0.7604
 1021SOL     OW13101   1.618   5.010   1.738  0.2280  0.3319  0.7307
 1021SOL    HW113102   1.548   5.034   1.806 -0.6261  0.6652 -0.2613
 1021SOL    HW213103   1.704   4.991   1.785 -0.3813  0.4628  1.9228
 1022SOL     OW13104   9.095   4.498   1.536  0.2559  1.3104 -0.2952
 1022SOL    HW113105   8.996   4.509   1.546 -0.0483 -1.2842 -0.1497
 1022SOL    HW213106   9.121   4.517   1.441 -0.4407  1.5431 -0.4429
 1023SOL     OW13107   0.931   3.771   1.038  0.0947 -0.6307  0.2701
 1023SOL    HW113108   0.953   3.869   1.037 -1.0666 -0.3089  1.9605
 1023SOL    HW213109   0.832   3.760   1.046  0.2687 -1.9405  0.7418
 1024SOL     OW13110   1.375   6.046   0.264 -0.7905 -0.0594 -0.1570
 1024SOL    HW113111   1.388   6.070   0.167  0.7003  0.3589  0.1390
 1024SOL    HW213112   1.399   5.950   0.278 -1.5232 -0.2672 -0.2962
 1025SOL     OW13113   3.624   8.850   2.008  0.1598 -0.1490 -0.5997
 1025SOL    HW113114   3.647   8.941   1.975 -1.5160  0.7348  0.6354
 1025SOL    HW213115   3.588   8.795   1.932 -1.4369  1.1077 -0.7647
 1026SOL     OW13116   1.902   7.430   1.945 -0.8951  0.1971  0.0841
 1026SOL    HW113117   1.940   7.369   1.876 -1.4817 -0.4395  0.3216
 1026SOL    HW213118   1.822   7.388   1.987 -0.0935  0.2470  1.6925
 1027SOL     OW13119   9.883   4.707   0.370  1.0675 -0.2587  0.3415
 1027SOL    HW113120   9.924   4.618   0.391  1.3985 -0.2336 -0.1750
 1027SOL    HW213121   9.797   4.694   0.322  2.2407 -0.3056 -1.8278
 1028SOL     OW13122   1.123   6.365   0.831 -0.0505  0.2175 -0.6611
 1028SOL    HW113123   1.066   6.283   0.837 -1.6886  1.3441 -0.4128
 1028SOL    HW213124   1.100   6.417   0.749  1.5938  0.0026 -1.2801
 1029SOL     OW13125   1.767   7.604   0.694  0.5535  0.0100  0.5029
 1029SOL    HW113126   1.773   7.632   0.790  0.6803  0.5077  0.3494
 1029SOL    HW213127   1.733   7.509   0.689  1.9384 -0.5250  1.0943
 1030SOL     OW13128  10.212   3.310   0.749 -0.0647 -0.1693 -0.3972
 1030SOL    HW113129  10.223   3.408   0.738  0.4527 -0.2893 -1.0102
 1030SOL    HW213130  10.174   3.290   0.839  1.4252  0.4969  0.3934
 1031SOL     OW13131   2.960   6.450   2.233 -0.2330  0.3569  0.4231
 1031SOL    HW113132   2.990   6.544   2.218 -1.8176  1.0139  1.2580
 1031SOL    HW213133   2.879   6.450   2.291 -0.5024 -1.5094  0.0724
 1032SOL     OW13134   9.993   1.111   0.587 -0.2482 -0.2577  0.4225
 1032SOL    HW113135  10.064   1.042   0.602 -0.0310 -0.0699  0.2593
 1032SOL    HW213136   9.912   1.066   0.549  0.7994 -0.0662 -2.1999
 1033SOL     OW13137   1.763   7.057   0.887  0.2246 -0.5589 -0.4404
 1033SOL    HW113138   1.749   7.043   0.985 -0.7489  0.5240 -0.4099
 1033SOL    HW213139   1.689   7.012   0.836 -0.5747  0.8501 -0.5481
 1034SOL     OW13140   4.381   2.324   1.102 -0.5565 -0.0825  0.4895
 1034SOL    HW113141   4.281   2.329   1.098 -0.4458  1.6505 -1.1040
 1034SOL    HW213142   4.412   2.345   1.195 -1.6419 -0.0113  0.8451
 1035SOL     OW13143   1.460   8.887   1.795  0.1142 -0.3221 -0.6277
 1035SOL    HW113144   1.428   8.981   1.807  1.9232  0.1289  0.8769
 1035SOL    HW213145   1.522   8.883   1.717  2.0406  0.2814  0.8351
 1036SOL     OW13146  10.015   5.671   2.671 -0.3156 -0.2379  0.0690
 1036SOL    HW113147  10.087   5.639   2.733 -0.7389 -0.3474  0.5061
 1036SOL    HW213148   9.932   5.619   2.688 -0.2239 -0.7910 -1.1144
 1037SOL     OW13149   3.497   8.224   2.585 -0.5147  0.1366 -0.1358
 1037SOL    HW113150   3.411   8.172   2.584 -0.6956  0.4145  0.5898
 1037SOL    HW213151   3.569   8.166   2.623 -0.7255  0.4128  0.7125
 1038SOL     OW13152  10.146   6.167   1.313  0.2136 -0.1292 -0.3832
 1038SOL    HW113153  10.211   6.238   1.341 -0.6698  0.4709  0.2054
 1038SOL    HW213154  10.193   6.080   1.304  0.9753  0.1601  0.6953
 1039SOL     OW13155   2.298   1.655   1.368 -0.1358 -0.2523  0.4074
 1039SOL    HW113156   2.241   1.732   1.397 -0.9817 -0.4577 -0.6633
 1039SOL    HW213157   2.390   1.688   1.350 -0.2791  0.3612  0.7615
 1040SOL     OW13158   3.016   8.440   0.828 -0.6859  0.0174 -0.0059
 1040SOL    HW113159   3.036   8.342   0.825  3.4295  0.7872 -3.6677
 1040SOL    HW213160   3.096   8.489   0.864 -2.1694  2.1403  0.4807
 1041SOL     OW13161   2.563   1.466   0.696  0.0320 -0.1019 -0.1532
 1041SOL    HW113162   2.474   1.466   0.743 -1.0599  0.0923 -2.1429
 1041SOL    HW213163   2.580   1.375   0.658 -0.3190  0.4112 -1.5718
 1042SOL     OW13164   9.722   1.701   1.576 -0.3897  0.1512  0.1469
 1042SOL    HW113165   9.796   1.740   1.521 -1.8541  2.7261 -0.1168
 1042SOL    HW213166   9.712   1.604   1.555  0.1979  0.6989 -2.9228
 1043SOL     OW13167   5.662   3.158   1.177  0.4072  0.0341  0.5145
 1043SOL    HW113168   5.745   3.167   1.123  0.2114 -1.9586 -0.1634
 1043SOL    HW213169   5.586   3.206   1.132  0.4596 -0.8278 -0.4905
 1044SOL     OW13170   9.925   5.173   2.189  0.3696  0.1079  0.8610
 1044SOL    HW113171   9.963   5.105   2.252 -1.9709 -1.1776  0.9337
 1044SOL    HW213172   9.952   5.150   2.095 -2.3375 -2.3642  0.6116
 1045SOL     OW13173   3.210   7.387   1.489  0.4819 -0.4786  0.2653
 1045SOL    HW113174   3.159   7.473   1.490 -1.2731 -1.4908  0.8872
 1045SOL    HW213175   3.184   7.332   1.569  1.3000 -1.7396 -0.3210
 1046SOL     OW13176   3.075   6.830   2.660  0.1883  0.3064 -0.5644
 1046SOL    HW113177   2.987   6.823   2.613 -0.0037 -0.7906 -0.0515
 1046SOL    HW213178   3.097   6.742   2.703  2.5951 -0.1321 -2.5969
 1047SOL     OW13179   3.063   1.260   0.801  0.3467 -0.1039 -0.0722
 1047SOL    HW113180   3.017   1.344   0.828  0.1541 -0.3619  0.3936
 1047SOL    HW213181   3.138   1.241   0.863  0.5683 -0.1288 -0.3436
 1048SOL     OW13182   3.562   4.990   2.282 -0.8317  0.2222  0.0386
 1048SOL    HW113183   3.509   4.915   2.242  0.5663 -1.2542  0.9234
 1048SOL    HW213184   3.652   4.957   2.309 -0.8346  1.7905  2.1078
 1049SOL     OW13185   0.757   1.387   1.850  0.2234 -0.7525 -0.3182
 1049SOL    HW113186   0.800   1.477   1.852  1.8731 -1.5277 -0.0392
 1049SOL    HW213187   0.680   1.389   1.786  0.7798  0.6140 -0.9817
 1050SOL     OW13188   4.621   8.589   2.116 -0.3104 -0.0139 -0.3325
 1050SOL    HW113189   4.577   8.675   2.144  0.2091  0.3490 -0.6050
 1050SOL    HW213190   4.682   8.608   2.039 -0.6514 -0.7413 -0.7768
 1051SOL     OW13191   3.271   8.045   2.595 -0.6856  0.2341 -0.4140
 1051SOL    HW113192   3.186   8.094   2.580 -1.7776 -1.1575  1.1265
 1051SOL    HW213193   3.264   7.989   2.677  2.5943  2.0184  1.1846
 1052SOL     OW13194   4.552   3.295   2.628 -0.3328 -0.3482  0.2839
 1052SOL    HW113195   4.594   3.357   2.561  1.1263 -0.8198  0.7577
 1052SOL    HW213196   4.477   3.343   2.674  0.7842  1.0781  0.6489
 1053SOL     OW13197   3.046   8.035   0.205 -0.0391  0.3045  0.1033
 1053SOL    HW113198   3.096   7.959   0.163 -0.5021  0.0537 -0.0024
 1053SOL    HW213199   2.958   8.002   0.240  0.9899  0.1970  2.6469
 1054SOL     OW13200   9.786   3.499   2.477 -0.1004  0.9359  0.1454
 1054SOL    HW113201   9.797   3.407   2.439 -0.5023  0.3026  1.5365
 1054SOL    HW213202   9.870   3.526   2.524 -0.1643  1.0795  0.1770
 1055SOL     OW13203   1.873   2.090   1.578  0.0230 -0.7255  1.0100
 1055SOL    HW113204   1.794   2.040   1.613 -1.1631  1.4530  1.5677
 1055SOL    HW213205   1.858   2.112   1.481  0.3596 -1.1221  0.8697
 1056SOL     OW13206   1.187   8.950   1.945 -0.1431 -0.3126 -0.0042
 1056SOL    HW113207   1.203   8.945   2.044 -0.8092 -1.2261  0.0612
 1056SOL    HW213208   1.204   9.043   1.913  0.8341 -0.1877  0.8381
 1057SOL     OW13209  10.105   6.540   0.164  0.4587  0.0011 -0.1702
 1057SOL    HW113210  10.095   6.446   0.198 -2.4947 -0.4559 -2.1083
 1057SOL    HW213211  10.145   6.538   0.073 -1.6517  0.4603 -1.1123
 1058SOL     OW13212   3.691   2.567   1.482 -0.0232  0.0380 -0.0976
 1058SOL    HW113213   3.643   2.553   1.569  0.1441  1.7093  0.2682
 1058SOL    HW213214   3.789   2.568   1.497  0.0220 -0.0294 -0.3747
 1059SOL     OW13215   3.117  10.005   2.323 -0.2581 -0.3579  0.9252
 1059SOL    HW113216   3.180  10.031   2.396 -1.7215  2.2463  1.3040
 1059SOL    HW213217   3.112  10.078   2.255 -0.9061 -1.6426 -0.4559
 1060SOL     OW13218   3.436   1.041   1.865  0.2908  0.0357  0.0280
 1060SOL    HW113219   3.423   1.130   1.822 -0.6144 -0.3351 -0.4811
 1060SOL    HW213220   3.449   0.972   1.794 -0.4277 -0.4554  0.3721
 1061SOL     OW13221   1.142   8.023   1.271 -0.1772  0.0289  0.0474
 1061SOL    HW113222   1.089   7.938   1.263 -2.2648  1.0787  2.2240
 1061SOL    HW213223   1.213   8.011   1.341  0.7697 -0.5359 -1.0074
 1062SOL     OW13224   1.911   1.292   1.066 -0.0621 -0.5551 -0.5827
 1062SOL    HW113225   1.887   1.277   1.162  0.0378  1.8140 -0.1421
 1062SOL    HW213226   1.827   1.296   1.011 -0.1036 -2.2101 -0.6587
 1063SOL     OW13227   2.983   3.358   1.606  0.2821 -0.1055  0.3280
 1063SOL    HW113228   2.901   3.357   1.548  0.6237 -0.4194 -0.1511
 1063SOL    HW213229   2.972   3.428   1.677  0.2841  0.9811 -0.7342
 1064SOL     OW13230   3.377   8.657   2.639  0.1346 -0.7088 -0.5170
 1064SOL    HW113231   3.342   8.634   2.548  0.8584 -2.3647 -0.4035
 1064SOL    HW213232   3.393   8.572   2.690  0.2427  0.1854  0.9640
 1065SOL     OW13233   1.450   6.740   0.564 -0.7830  0.3581  0.5331
 1065SOL    HW113234   1.432   6.643   0.580  1.2500 -0.3713 -1.2936
 1065SOL    HW213235   1.476   6.753   0.468  0.6496  2.4617  1.1789
 1066SOL     OW13236   4.064  10.453   0.750 -0.1146 -0.4255 -0.5774
 1066SOL    HW113237   4.027  10.451   0.843 -0.2663 -0.2042 -0.6293
 1066SOL    HW213238   4.159  10.483   0.752  0.2993 -1.7431 -0.3744
 1067SOL     OW13239   2.780   4.976   2.286  0.4836 -0.7346 -0.2555
 1067SOL    HW113240   2.772   4.995   2.188  1.0710 -0.2284 -0.2056
 1067SOL    HW213241   2.688   4.973   2.327  0.2933  0.0662 -0.6231
 1068SOL     OW13242   3.889   1.473   1.648  0.4433 -0.3473  0.5314
 1068SOL    HW113243   3.973   1.420   1.633  0.2080 -0.7771  0.7206
 1068SOL    HW213244   3.886   1.505   1.742  0.9571  0.6641  0.2159
 1069SOL     OW13245   1.383   7.119   0.863  0.1274  0.1175  0.8450
 1069SOL    HW113246   1.354   7.215   0.861  0.9901  0.4098  1.5541
 1069SOL    HW213247   1.459   7.106   0.800  0.3997  0.0423  1.1833
 1070SOL     OW13248   3.091   2.794   0.892  0.2528 -0.2054  0.5596
 1070SOL    HW113249   2.992   2.801   0.904  0.2669 -1.2095  1.3661
 1070SOL    HW213250   3.116   2.826   0.801 -1.0861 -1.9797 -0.4714
 1071SOL     OW13251   2.335   1.440   0.819  0.0334  0.4067  0.2615
 1071SOL    HW113252   2.293   1.350   0.807  0.2311  0.1068  1.7050
 1071SOL    HW213253   2.340   1.461   0.917 -1.2559  2.5830 -0.1175
 1072SOL     OW13254   4.468   8.994   1.058  0.7305  0.5800 -0.2597
 1072SOL    HW113255   4.373   9.022   1.073  0.5744  0.1648 -0.4623
 1072SOL    HW213256   4.507   8.961   1.144  0.1679 -0.8056 -0.5224
 1073SOL     OW13257   0.968   6.155   0.854  0.2865  0.0516 -0.5467
 1073SOL    HW113258   0.875   6.189   0.865  0.0279 -0.5148 -0.9311
 1073SOL    HW213259   0.972   6.095   0.774  0.7273 -0.8153  0.1136
 1074SOL     OW13260   1.598   5.979   2.413 -0.2760  0.3775  0.0628
 1074SOL    HW113261   1.598   6.051   2.482  0.7679 -0.1708  0.6490
 1074SOL    HW213262   1.563   5.894   2.453 -1.9621  0.6636 -0.7561
 1075SOL     OW13263   1.307   6.250   0.397 -0.3977 -0.0825 -0.2223
 1075SOL    HW113264   1.337   6.169   0.347 -1.1412 -0.6996  0.3167
 1075SOL    HW213265   1.352   6.331   0.359 -0.6138 -0.5857 -1.5980
 1076SOL     OW13266   3.789   5.434   1.282 -0.1165  0.0291 -0.3695
 1076SOL    HW113267   3.700   5.389   1.285  0.4174 -0.9317  1.1581
 1076SOL    HW213268   3.857   5.377   1.327  0.9003  1.6211  0.1358
 1077SOL     OW13269   3.884   2.881   2.435 -0.1551 -0.1768  0.3146
 1077SOL    HW113270   3.857   2.830   2.353 -0.1919 -0.6237  0.6055
 1077SOL    HW213271   3.982   2.901   2.430  0.3117 -2.1071  1.1820
 1078SOL     OW13272   4.937   2.570   0.785  1.0139 -0.0769 -0.2838
 1078SOL    HW113273   4.849   2.544   0.824  0.5126  0.5321 -0.9771
 1078SOL    HW213274   4.957   2.512   0.706  0.6152  0.5971 -0.9002
 1079SOL     OW13275   1.889   4.406   1.169 -0.2987 -0.3999  0.7009
 1079SOL    HW113276   1.970   4.391   1.225 -0.7108 -0.2372  1.3540
 1079SOL    HW213277   1.855   4.499   1.185 -0.4203 -0.3534  0.1784
 1080SOL     OW13278  10.192   3.579   0.340  0.1850  0.3220  0.3306
 1080SOL    HW113279  10.109   3.619   0.377  0.2376  0.0038  0.7976
 1080SOL    HW213280  10.212   3.493   0.387  0.5384  0.1772 -0.0766
 1081SOL     OW13281   1.679   2.607   0.689 -0.2233  0.1031  0.5238
 1081SOL    HW113282   1.674   2.512   0.720 -1.3753  0.3881  1.2549
 1081SOL    HW213283   1.693   2.610   0.590 -0.8883 -0.8296  0.4020
 1082SOL     OW13284   1.381  10.599   2.133  0.0852 -0.6223  0.1662
 1082SOL    HW113285   1.416  10.685   2.171  0.2969 -0.1915 -0.9662
 1082SOL    HW213286   1.282  10.604   2.125  0.3175  0.6727 -2.5738
 1083SOL     OW13287   2.948   9.944   1.134  0.2338 -0.5561  0.3933
 1083SOL    HW113288   3.029  10.002   1.133 -0.7636  0.8601 -1.5690
 1083SOL    HW213289   2.901   9.953   1.222  0.5454  0.9743  0.4175
 1084SOL     OW13290   1.676  10.500   0.719  0.2832  0.3382  0.0957
 1084SOL    HW113291   1.755  10.536   0.769  1.8850 -2.0531 -0.5758
 1084SOL    HW213292   1.632  10.429   0.773 -0.2531  0.3459 -0.3325
 1085SOL     OW13293   1.223   9.564   1.206  0.1849 -0.0313 -0.4074
 1085SOL    HW113294   1.138   9.543   1.158 -0.4403 -0.1194  0.7306
 1085SOL    HW213295   1.270   9.479   1.231 -1.6954 -0.1177  3.0366
 1086SOL     OW13296  10.116   3.317   1.300 -0.2001  0.0537 -0.1875
 1086SOL    HW113297  10.031   3.325   1.247 -0.4067 -0.1500  0.1153
 1086SOL    HW213298  10.122   3.393   1.365  0.9967  1.4220 -1.8357
 1087SOL     OW13299   9.550   3.514   0.468 -0.0164  0.6922 -0.6375
 1087SOL    HW113300   9.637   3.480   0.433 -0.9129 -2.5579  0.1641
 1087SOL    HW213301   9.475   3.484   0.408 -1.0599 -0.6894  1.3128
 1088SOL     OW13302   0.676   4.275   0.925 -0.1373  0.4830 -0.0842
 1088SOL    HW113303   0.758   4.318   0.963 -0.5060  0.5710  0.6283
 1088SOL    HW213304   0.655   4.192   0.978 -0.0869  0.0570 -0.7277
 1089SOL     OW13305   8.999   1.961   1.893  0.0479 -0.5469 -0.6381
 1089SOL    HW113306   8.931   1.995   1.957  1.1716  0.0892  0.2352
 1089SOL    HW213307   9.020   1.865   1.914  1.6588  0.1462  1.0584
 1090SOL     OW13308   1.162   5.527   1.903 -0.0760  0.5222 -0.0068
 1090SOL    HW113309   1.228   5.475   1.957  0.1514 -0.2744 -1.0381
 1090SOL    HW213310   1.195   5.535   1.809 -2.3993 -1.6654 -1.0574
 1091SOL     OW13311   1.044   7.602   2.502  0.3445  0.4248 -0.5098
 1091SOL    HW113312   1.013   7.598   2.407 -1.7218 -0.2836  0.1627
 1091SOL    HW213313   0.994   7.675   2.549 -0.9300 -1.2769  0.8082
 1092SOL     OW13314  10.392   0.871   0.471 -1.0173  0.1139  0.0594
 1092SOL    HW113315  10.410   0.780   0.431  0.1486  0.8784 -1.2092
 1092SOL    HW213316  10.453   0.886   0.548  0.7377  0.9024 -1.4483
 1093SOL     OW13317   4.196   8.693   2.631 -0.3240 -0.0486  0.2155
 1093SOL    HW113318   4.116   8.733   2.676  0.0404  0.9797 -0.0382
 1093SOL    HW213319   4.180   8.688   2.533 -0.6680 -1.2441  0.3224
 1094SOL     OW13320   3.827   8.103   1.087  0.2088 -0.2666 -0.4052
 1094SOL    HW113321   3.804   8.183   1.143  1.4518 -0.8239  0.9149
 1094SOL    HW213322   3.825   8.129   0.991  1.8683  1.6903  0.0518
 1095SOL     OW13323   3.177   7.808   0.119  0.3900 -0.3000 -0.2451
 1095SOL    HW113324   3.190   7.751   0.200 -0.9890  0.6000  0.6344
 1095SOL    HW213325   3.202   7.756   0.037  0.0982 -1.8231  0.6173
 1096SOL     OW13326  10.266   2.575   1.128  0.3884 -0.0744  0.0760
 1096SOL    HW113327  10.361   2.593   1.105 -0.1046  1.9114 -0.4481
 1096SOL    HW213328  10.206   2.608   1.055 -0.6754 -2.2943 -0.1235
 1097SOL     OW13329   4.242   4.140   0.487  0.2240  0.5574 -0.5668
 1097SOL    HW113330   4.186   4.179   0.414  0.0021 -0.6427 -1.0628
 1097SOL    HW213331   4.190   4.141   0.572  0.0265  0.8783 -0.6912
 1098SOL     OW13332   2.107   8.167   1.961 -0.1584  0.4831 -0.5690
 1098SOL    HW113333   2.055   8.237   2.010  1.7145  0.5362  1.4138
 1098SOL    HW213334   2.205   8.183   1.974  0.3361 -1.1034 -2.1063
 1099SOL     OW13335   1.826   7.728   0.991  0.4305  0.0325  0.4998
 1099SOL    HW113336   1.847   7.690   1.082 -3.0883  0.3156  1.5116
 1099SOL    HW213337   1.898   7.793   0.965  1.5272 -0.0803  3.0569
 1100SOL     OW13338   1.229   4.985   1.802 -0.0330 -0.1759  0.0375
 1100SOL    HW113339   1.135   5.017   1.805 -1.6893 -4.6973  1.8908
 1100SOL    HW213340   1.249   4.949   1.711 -0.1110  0.7476 -0.3461
 1101SOL     OW13341   3.942   2.488   2.552 -0.3667 -0.1264 -0.4079
 1101SOL    HW113342   3.977   2.563   2.608 -3.2519  0.8478  0.1628
 1101SOL    HW213343   3.851   2.512   2.517  0.7298 -1.3067 -4.3591
 1102SOL     OW13344   3.646   3.583   1.855  0.3480  0.8352  0.0110
 1102SOL    HW113345   3.618   3.499   1.808 -0.7575  0.8970  0.5306
 1102SOL    HW213346   3.632   3.661   1.794 -0.9533  0.8994  0.3755
 1103SOL     OW13347   3.272   6.038   1.794  0.8894 -0.7699  0.3986
 1103SOL    HW113348   3.245   6.130   1.820  0.7342 -0.2820 -1.3930
 1103SOL    HW213349   3.358   6.015   1.839 -0.2190 -0.6451  2.6488
 1104SOL     OW13350   1.349   5.035   2.162 -0.3127  0.1222 -0.0341
 1104SOL    HW113351   1.279   4.986   2.110  0.0513 -0.3603 -0.0728
 1104SOL    HW213352   1.306   5.089   2.233 -0.7042 -0.4875  0.1970
 1105SOL     OW13353   9.177   1.736   2.412 -0.6066 -0.4064 -0.0955
 1105SOL    HW113354   9.114   1.813   2.403 -0.3012  0.2097  2.6012
 1105SOL    HW213355   9.146   1.675   2.485  0.8588 -1.1172 -0.0389
 1106SOL     OW13356   1.753   4.925   0.715  0.7605  0.6076  0.1931
 1106SOL    HW113357   1.686   4.898   0.646  2.4347 -1.4431 -0.6761
 1106SOL    HW213358   1.834   4.964   0.670  2.0714 -1.2010  0.9423
 1107SOL     OW13359  10.045   2.491   0.195 -0.6973  0.0827 -0.2232
 1107SOL    HW113360   9.969   2.474   0.131 -0.3117 -0.9459 -0.4290
 1107SOL    HW213361  10.009   2.506   0.287 -1.1806  0.1357 -0.4201
 1108SOL     OW13362  10.354   1.324   0.998 -0.4995 -0.2393 -0.2293
 1108SOL    HW113363  10.437   1.368   1.032 -0.8909  0.5906 -0.3322
 1108SOL    HW213364  10.303   1.284   1.075 -0.9516  0.8862  0.0617
 1109SOL     OW13365   2.728   4.525   0.859 -0.2822  0.1911 -0.8075
 1109SOL    HW113366   2.668   4.449   0.832 -2.3086  1.4975 -0.1157
 1109SOL    HW213367   2.793   4.493   0.928 -2.0235 -0.5988  0.5156
 1110SOL     OW13368   9.596   2.415   2.447 -0.0290 -0.0551 -0.2522
 1110SOL    HW113369   9.555   2.352   2.381 -0.7297  2.1997 -2.0324
 1110SOL    HW213370   9.685   2.446   2.414 -0.0149  0.4508  0.2374
 1111SOL     OW13371   3.098   2.359   0.891 -0.6438  0.7524  0.1641
 1111SOL    HW113372   3.035   2.428   0.927 -1.2284 -0.3534  1.3163
 1111SOL    HW213373   3.168   2.339   0.960  0.8903  1.8429 -1.0350
 1112SOL     OW13374   8.420   2.595   0.160  0.0612 -0.2100 -0.3162
 1112SOL    HW113375   8.450   2.640   0.244  0.4633 -0.5837 -0.2582
 1112SOL    HW213376   8.463   2.640   0.081 -1.7264  1.3227 -0.4666
 1113SOL     OW13377   3.090   4.733   0.906  0.1348 -0.2460  0.1439
 1113SOL    HW113378   3.017   4.739   0.837 -0.6205 -0.0356  0.9566
 1113SOL    HW213379   3.054   4.760   0.995  1.4712  0.7968  0.3741
 1114SOL     OW13380  10.339   1.726   2.323 -0.8940 -0.1273  0.0510
 1114SOL    HW113381  10.369   1.750   2.231  0.3384  0.3237  0.5561
 1114SOL    HW213382  10.332   1.808   2.379  1.9090 -0.7456  1.3730
 1115SOL     OW13383   4.671   4.683   2.147  0.3995  0.1994  0.3983
 1115SOL    HW113384   4.638   4.634   2.066 -0.1870 -0.5222  1.0639
 1115SOL    HW213385   4.629   4.774   2.150 -1.0109 -0.4474  0.8587
 1116SOL     OW13386   4.335   9.875   1.800 -0.8367 -0.3498  0.3203
 1116SOL    HW113387   4.327   9.951   1.735  2.8345  0.3818  0.6163
 1116SOL    HW213388   4.380   9.798   1.755 -1.9480 -1.3239  0.8612
 1117SOL     OW13389   0.913   7.145   0.682  0.3825 -0.3817 -0.0478
 1117SOL    HW113390   0.814   7.144   0.699  0.1193  2.0334 -1.1926
 1117SOL    HW213391   0.930   7.126   0.585  1.1111 -1.4837  0.2808
 1118SOL     OW13392  10.070   3.859   1.103  0.2654 -0.5578 -0.5200
 1118SOL    HW113393  10.055   3.957   1.112  0.3426 -0.7196  1.5299
 1118SOL    HW213394  10.036   3.828   1.014 -1.1144  1.0617 -0.5716
 1119SOL     OW13395   3.165   7.058   0.147  0.0810 -0.0183  0.1023
 1119SOL    HW113396   3.133   6.977   0.099  0.2581  0.0652 -0.1516
 1119SOL    HW213397   3.086   7.105   0.189 -0.4521  1.4250 -2.4001
 1120SOL     OW13398   2.999   2.503   1.441  0.4209  0.0719  0.7380
 1120SOL    HW113399   3.098   2.491   1.442  0.3758 -0.2110  1.7840
 1120SOL    HW213400   2.975   2.592   1.478  0.2423 -0.1748  1.2268
 1121SOL     OW13401   9.370   4.378   1.417 -0.0385  0.3133 -0.0438
 1121SOL    HW113402   9.394   4.320   1.340 -0.1535  0.7843 -0.4365
 1121SOL    HW213403   9.410   4.468   1.405  0.3153  0.2534  0.6690
 1122SOL     OW13404   1.903   7.964   0.456 -0.3913  0.4799  0.0964
 1122SOL    HW113405   1.839   7.888   0.467  1.4045 -0.8957  1.1354
 1122SOL    HW213406   1.962   7.947   0.377 -0.1927  0.9434  0.1427
 1123SOL     OW13407   4.644   3.736   1.625  0.1263  0.4274  0.4959
 1123SOL    HW113408   4.659   3.809   1.691 -0.3354  0.3528  0.6888
 1123SOL    HW213409   4.578   3.766   1.556  0.6937  0.5432  0.0039
 1124SOL     OW13410   2.197   9.828   1.653 -0.5043 -0.1878 -0.0627
 1124SOL    HW113411   2.213   9.743   1.602  0.4326  0.1274 -0.3011
 1124SOL    HW213412   2.121   9.814   1.717 -0.8495 -0.9745 -0.6364
 1125SOL     OW13413   3.136   2.424   0.629  0.5970  0.5295 -0.3178
 1125SOL    HW113414   3.127   2.406   0.727 -0.6643  0.8022 -0.3691
 1125SOL    HW213415   3.057   2.384   0.582  2.0678 -1.1350 -1.4288
 1126SOL     OW13416   3.000   2.186   2.102  0.6366 -0.1799 -0.2427
 1126SOL    HW113417   2.940   2.233   2.168  1.1025 -0.1722  0.1774
 1126SOL    HW213418   2.950   2.108   2.063  0.7250 -0.8512  0.9454
 1127SOL     OW13419   3.943   8.575   1.577  0.0356 -0.1493  0.3248
 1127SOL    HW113420   3.921   8.647   1.643  0.4247  0.4782 -0.2251
 1127SOL    HW213421   4.031   8.594   1.535  0.0389 -0.8375  0.0115
 1128SOL     OW13422   1.719   8.158   0.538  0.8060  0.3941  0.5568
 1128SOL    HW113423   1.641   8.110   0.579  1.3282  0.3188  1.4821
 1128SOL    HW213424   1.797   8.096   0.534  1.5550  1.2189  1.9701
 1129SOL     OW13425   1.958   8.691   1.629 -0.0680 -0.0271  0.3957
 1129SOL    HW113426   1.983   8.773   1.680 -0.4913 -0.3709  1.1718
 1129SOL    HW213427   1.984   8.701   1.533  1.3757  0.3418  0.8212
 1130SOL     OW13428   4.750   2.878   2.208 -1.3132 -0.0638  0.0135
 1130SOL    HW113429   4.743   2.977   2.221  0.9340  0.2209 -0.7559
 1130SOL    HW213430   4.662   2.841   2.179 -2.0824  1.7540  0.0130
 1131SOL     OW13431   4.811   3.114   0.714  0.2935 -0.5503  0.2369
 1131SOL    HW113432   4.769   3.177   0.650  1.5106  0.6165  0.5743
 1131SOL    HW213433   4.800   3.148   0.807  0.3127 -1.2152  0.4880
 1132SOL     OW13434   3.221   1.877   1.501 -0.0831  0.1105 -0.3448
 1132SOL    HW113435   3.147   1.840   1.557 -0.9695  0.1489 -1.4644
 1132SOL    HW213436   3.304   1.825   1.517 -0.6200 -0.6127  0.1474
 1133SOL     OW13437   5.005   3.093   2.699 -0.1675  0.2478  0.4086
 1133SOL    HW113438   4.990   3.079   2.601  1.9031  0.9103 -0.0200
 1133SOL    HW213439   5.047   3.183   2.714  1.5331 -0.7481  1.7074
 1134SOL     OW13440   1.462   7.510   0.671  0.6102 -0.1139  0.7156
 1134SOL    HW113441   1.470   7.471   0.579  1.3026 -1.0105  1.1474
 1134SOL    HW213442   1.399   7.455   0.726 -1.3422  1.5401  0.2026
 1135SOL     OW13443   3.866   8.256   0.858 -0.1302  0.5737  0.6195
 1135SOL    HW113444   3.916   8.258   0.772 -1.7529  1.8987 -0.3195
 1135SOL    HW213445   3.887   8.338   0.911 -1.7512  1.4772 -0.0762
 1136SOL     OW13446   0.802   5.289   1.453  0.0247  0.3791 -0.0619
 1136SOL    HW113447   0.803   5.383   1.487 -0.3613  0.7054 -0.9424
 1136SOL    HW213448   0.709   5.253   1.455  0.2750 -0.2230  0.9145
 1137SOL     OW13449  10.425   6.450   0.921  0.4023  0.5988  0.0946
 1137SOL    HW113450  10.459   6.490   1.006  2.7531 -0.0504 -0.4913
 1137SOL    HW213451  10.376   6.365   0.942  2.7518 -0.6538  0.6667
 1138SOL     OW13452  10.047   1.365   0.157  0.0528  0.3236  0.3355
 1138SOL    HW113453  10.104   1.322   0.227  0.9210  0.0824 -0.5124
 1138SOL    HW213454   9.951   1.359   0.184  0.0261 -3.1891 -0.2409
 1139SOL     OW13455   2.813   6.564   0.783 -0.2418 -0.1408  0.0697
 1139SOL    HW113456   2.727   6.569   0.733 -1.0949 -1.0247  1.3973
 1139SOL    HW213457   2.863   6.650   0.774 -0.9553  0.1428 -1.2533
 1140SOL     OW13458   4.217   1.969   0.747  0.3844  0.3422 -0.6860
 1140SOL    HW113459   4.175   1.935   0.831  1.1389 -1.1396 -0.8783
 1140SOL    HW213460   4.159   1.947   0.669  1.9923 -2.8155 -1.0958
 1141SOL     OW13461   3.725   8.892   1.633  0.0406  0.1797  0.4332
 1141SOL    HW113462   3.814   8.917   1.670  1.2655 -0.2954 -2.0378
 1141SOL    HW213463   3.675   8.974   1.607  1.4953  0.3898 -1.9316
 1142SOL     OW13464   2.581   1.757   2.446  0.0917  0.1491 -0.3615
 1142SOL    HW113465   2.510   1.751   2.516  1.2950  0.7811  0.9447
 1142SOL    HW213466   2.636   1.673   2.447 -1.0071 -0.6022 -1.7947
 1143SOL     OW13467   0.678   3.815   0.563 -0.2504 -0.7164  0.3601
 1143SOL    HW113468   0.645   3.909   0.574  0.0685 -0.5574 -0.0536
 1143SOL    HW213469   0.642   3.776   0.478  0.8980 -0.4259 -0.2672
 1144SOL     OW13470   2.089   4.987   0.897  0.3108 -0.1755  0.3730
 1144SOL    HW113471   2.022   5.062   0.888 -2.0204 -2.3710 -1.2626
 1144SOL    HW213472   2.121   4.983   0.991 -1.7157  1.0694  1.1561
 1145SOL     OW13473   9.941  10.705   1.823 -0.5207  0.2060  0.0544
 1145SOL    HW113474   9.979  10.759   1.748 -0.9177  1.2334  0.5846
 1145SOL    HW213475   9.896  10.624   1.786 -1.9216  1.4106 -0.9560
 1146SOL     OW13476   3.888   9.719   1.666 -0.4036 -0.0057 -0.5353
 1146SOL    HW113477   3.851   9.733   1.574 -0.6600 -0.1234 -0.4508
 1146SOL    HW213478   3.830   9.766   1.733 -0.9105 -0.9265 -0.3179
 1147SOL     OW13479   3.648   1.180   2.291  0.1372 -0.1471 -0.1048
 1147SOL    HW113480   3.663   1.122   2.211 -1.3335 -0.8418  0.0991
 1147SOL    HW213481   3.728   1.176   2.350  0.9382 -0.2193 -1.1670
 1148SOL     OW13482   9.870   5.339   0.719 -0.1126 -0.0867  0.2663
 1148SOL    HW113483   9.855   5.280   0.798  1.1408  0.1419  0.6929
 1148SOL    HW213484   9.783   5.373   0.685 -0.6686 -0.1816  1.5639
 1149SOL     OW13485   8.917   2.467   2.359  0.6031  0.5304 -0.3776
 1149SOL    HW113486   8.844   2.483   2.426  0.6875  0.1509 -0.1940
 1149SOL    HW213487   8.882   2.486   2.267 -0.1378 -0.9638 -0.4136
 1150SOL     OW13488   9.787   4.596   1.513 -0.3968 -0.0049 -0.3945
 1150SOL    HW113489   9.860   4.610   1.580 -1.0020 -0.4604  0.3730
 1150SOL    HW213490   9.822   4.611   1.421  0.9039 -1.1523 -0.0933
 1151SOL     OW13491   1.353   1.940   0.706 -0.1310 -0.2012  0.1213
 1151SOL    HW113492   1.402   1.901   0.784 -0.3867 -0.9222 -0.0716
 1151SOL    HW213493   1.284   2.005   0.738 -0.0038 -0.2429  0.4731
 1152SOL     OW13494  10.536   1.628   0.849 -0.7008 -0.0255  0.0383
 1152SOL    HW113495  10.529   1.609   0.947  0.7376  1.6039  0.4954
 1152SOL    HW213496  10.633   1.632   0.823 -1.0545  0.5411 -1.2395
 1153SOL     OW13497   3.721   2.064   2.547 -0.2504  0.2124 -0.1245
 1153SOL    HW113498   3.698   1.976   2.505  0.3304  0.5319 -1.1283
 1153SOL    HW213499   3.671   2.137   2.500  0.3269  0.5647 -0.1906
 1154SOL     OW13500   3.310   9.016   1.452 -0.0964  0.0528  0.3496
 1154SOL    HW113501   3.397   9.065   1.443  0.2622 -0.2591  1.8892
 1154SOL    HW213502   3.236   9.083   1.465  0.1188  0.2637  0.5111
 1155SOL     OW13503   1.960   1.951   0.748  0.2354  0.1658 -0.3800
 1155SOL    HW113504   1.958   1.862   0.702 -2.4449 -0.9803  1.7682
 1155SOL    HW213505   1.885   2.007   0.714  0.7454  0.8727 -0.3399
 1156SOL     OW13506   9.521   4.569   1.501 -0.0068 -0.0233  0.7319
 1156SOL    HW113507   9.616   4.538   1.511 -0.1722 -1.1019 -0.8669
 1156SOL    HW213508   9.519   4.668   1.493  1.0937 -0.0727 -0.3302
 1157SOL     OW13509   2.997   6.857   1.220  0.3438 -0.2597  0.2749
 1157SOL    HW113510   2.904   6.822   1.229  0.1307  0.2177 -0.0190
 1157SOL    HW213511   3.013   6.884   1.125  0.0459  1.6487  0.7317
 1158SOL     OW13512   1.708   5.830   2.703  0.3855  0.3490 -0.0513
 1158SOL    HW113513   1.758   5.800   2.784 -0.5991  0.0092  0.4255
 1158SOL    HW213514   1.771   5.880   2.643  1.4033 -0.3868  0.3707
 1159SOL     OW13515   1.900   9.007   1.376  0.1673  0.3071  0.3724
 1159SOL    HW113516   1.827   9.046   1.320 -1.2603  0.4565  2.3229
 1159SOL    HW213517   1.893   9.041   1.469  1.3468 -1.4470  1.1274
 1160SOL     OW13518   2.845   8.781   0.864  0.4232  0.0636  0.2949
 1160SOL    HW113519   2.835   8.712   0.793  0.2911  1.1607 -0.7780
 1160SOL    HW213520   2.938   8.818   0.862  0.3678  0.2181  0.5670
 1161SOL     OW13521   2.656   2.701   0.180 -0.2357 -0.0218 -0.6281
 1161SOL    HW113522   2.624   2.761   0.106 -0.8555 -1.0899 -1.2484
 1161SOL    HW213523   2.599   2.618   0.182 -0.1123 -0.0715  0.9472
 1162SOL     OW13524   9.133   3.614   1.517  0.5154 -0.1048 -0.0184
 1162SOL    HW113525   9.139   3.713   1.523  1.1956 -0.1013 -0.7273
 1162SOL    HW213526   9.052   3.582   1.567 -0.3213  0.8991 -0.7040
 1163SOL     OW13527   1.553   2.387   1.753  0.1858 -0.3463 -0.1886
 1163SOL    HW113528   1.538   2.361   1.849  1.0036 -2.9905 -0.7412
 1163SOL    HW213529   1.650   2.407   1.740 -0.1704  1.5194 -0.1534
 1164SOL     OW13530   3.757   9.126   1.225 -0.0203  0.5883  0.0336
 1164SOL    HW113531   3.759   9.185   1.145 -1.9418  1.4760  0.6069
 1164SOL    HW213532   3.726   9.035   1.198  0.1287  0.6576 -0.3756
 1165SOL     OW13533   3.485   8.235   1.881  0.4071 -0.5262 -0.5358
 1165SOL    HW113534   3.466   8.330   1.907  2.2033 -0.3629  0.2152
 1165SOL    HW213535   3.580   8.213   1.903  0.0603 -2.4341 -0.9183
 1166SOL     OW13536   2.917   8.635   0.246  0.3503 -0.2306  0.0321
 1166SOL    HW113537   2.875   8.560   0.298  0.0407  0.7503  1.2245
 1166SOL    HW213538   2.942   8.602   0.155 -2.7758 -0.9321 -0.6409
 1167SOL     OW13539   8.657   1.876   0.166  0.2333 -0.2846  0.4851
 1167SOL    HW113540   8.660   1.861   0.265  0.1688 -1.1100  0.3661
 1167SOL    HW213541   8.732   1.825   0.123  1.0564  1.1151  0.2376
 1168SOL     OW13542   9.472   4.005   1.895  0.3656  0.3503  0.0802
 1168SOL    HW113543   9.511   3.916   1.917  1.8599  1.4829  2.1194
 1168SOL    HW213544   9.389   4.019   1.949  0.3188  0.3298  0.0128
 1169SOL     OW13545   1.133   5.856   1.661 -0.5263 -0.8112 -0.9602
 1169SOL    HW113546   1.110   5.791   1.589 -0.1622 -1.8584 -0.1509
 1169SOL    HW213547   1.222   5.832   1.700  1.0628  1.9760 -2.6865
 1170SOL     OW13548   8.698   2.028   1.303  0.1637 -0.0091  0.2727
 1170SOL    HW113549   8.600   2.035   1.316 -0.1073  1.2272 -2.2690
 1170SOL    HW213550   8.729   1.937   1.332 -1.2562  0.4812  3.5750
 1171SOL     OW13551   2.018   4.985   1.365 -0.3300  0.4803 -0.3113
 1171SOL    HW113552   2.111   4.965   1.337  0.4598  0.6696  2.0603
 1171SOL    HW213553   1.974   5.043   1.296  0.8449 -0.7027 -2.0794
 1172SOL     OW13554  10.154   3.191   0.168 -0.7261 -0.9971 -0.4824
 1172SOL    HW113555  10.235   3.141   0.198 -1.0564 -1.1995  0.0852
 1172SOL    HW213556  10.086   3.192   0.242  0.3199  2.5770  0.5351
 1173SOL     OW13557   1.246   3.379   0.121 -0.4299  0.4069  0.3415
 1173SOL    HW113558   1.173   3.357   0.185 -2.3373  2.7514 -0.9176
 1173SOL    HW213559   1.244   3.314   0.045  0.2615 -0.8873  1.4123
 1174SOL     OW13560   4.878   1.442   1.395  0.0586 -0.0621 -0.0212
 1174SOL    HW113561   4.788   1.413   1.363 -0.5465 -0.5363  2.0633
 1174SOL    HW213562   4.929   1.483   1.319 -1.7156 -0.2457 -1.3256
 1175SOL     OW13563   2.763   8.314   1.858  0.4041 -0.1889 -0.2619
 1175SOL    HW113564   2.665   8.335   1.857  0.2653 -0.7135  1.1768
 1175SOL    HW213565   2.778   8.227   1.810 -0.0693 -1.0146  1.0625
 1176SOL     OW13566   1.007  10.654   0.489  0.4867 -0.3045  0.0129
 1176SOL    HW113567   0.950  10.736   0.484  2.4549  1.0995 -0.0147
 1176SOL    HW213568   1.080  10.668   0.556 -0.3980 -2.8643  1.5935
 1177SOL     OW13569   9.559   5.074   0.566  0.3674 -0.5423 -0.0086
 1177SOL    HW113570   9.465   5.042   0.552  0.2434  1.0704 -3.3142
 1177SOL    HW213571   9.622   5.019   0.513  0.6752  1.5463 -1.8832
 1178SOL     OW13572   4.070   9.121   2.307 -0.0479 -0.1460  0.8431
 1178SOL    HW113573   4.010   9.059   2.358  1.0201 -1.0673  1.0141
 1178SOL    HW213574   4.165   9.088   2.313  0.1930  0.0941 -1.1692
 1179SOL     OW13575   2.225   0.985   0.413  0.5062 -0.9598  0.1435
 1179SOL    HW113576   2.172   1.034   0.344  0.1608 -1.2664  0.1877
 1179SOL    HW213577   2.230   0.888   0.389 -0.4925 -1.2542  1.0757
 1180SOL     OW13578   3.551   4.311   0.128  0.1643  1.3812  0.1915
 1180SOL    HW113579   3.539   4.213   0.142 -0.2789  1.4470  0.3001
 1180SOL    HW213580   3.546   4.357   0.217 -0.4831  1.5870  0.0493
 1181SOL     OW13581   2.753   1.630   0.266 -0.2939  0.3567 -0.5981
 1181SOL    HW113582   2.711   1.701   0.210 -1.2110 -0.8348 -1.4592
 1181SOL    HW213583   2.750   1.656   0.362 -2.6268  0.5051 -0.6843
 1182SOL     OW13584   1.303   5.444   0.660 -0.2780  0.3753  0.0184
 1182SOL    HW113585   1.362   5.466   0.738 -1.8891 -0.0800  1.4050
 1182SOL    HW213586   1.266   5.352   0.672 -1.2044  0.6317 -0.8595
 1183SOL     OW13587   0.877   7.872   2.535 -0.0105  0.5565 -0.6134
 1183SOL    HW113588   0.816   7.797   2.560  1.6642 -0.9264 -0.8399
 1183SOL    HW213589   0.887   7.935   2.611 -2.0525  0.9791 -0.6842
 1184SOL     OW13590  10.305   2.632   0.227  0.4324  0.1657 -0.6661
 1184SOL    HW113591  10.334   2.694   0.300 -0.7689  0.1929 -0.1893
 1184SOL    HW213592  10.207   2.612   0.238  0.6102 -1.1107 -1.3359
 1185SOL     OW13593   0.756   3.179   1.549  0.5509 -0.0669  0.1806
 1185SOL    HW113594   0.809   3.227   1.619  1.2232  0.0996 -0.4274
 1185SOL    HW213595   0.733   3.087   1.580  1.7208 -0.3547  0.2164
 1186SOL     OW13596   1.046   4.192   2.415 -0.0574  0.7409  0.2219
 1186SOL    HW113597   1.049   4.160   2.510 -3.0055  1.3216  0.5676
 1186SOL    HW213598   0.954   4.177   2.378  1.1818  0.1418 -2.6997
 1187SOL     OW13599  10.511   3.525   1.324  0.4366 -0.3490  0.1305
 1187SOL    HW113600  10.483   3.458   1.393 -0.8034 -0.3526 -0.3710
 1187SOL    HW213601  10.432   3.551   1.268  1.3709 -0.1393 -1.1155
 1188SOL     OW13602   0.618   4.067   1.086 -0.2200 -0.2469  0.2629
 1188SOL    HW113603   0.594   4.088   1.180 -0.8178 -1.0819  0.2994
 1188SOL    HW213604   0.601   3.970   1.067 -1.0320  0.1179 -0.9741
 1189SOL     OW13605   1.687   4.562   0.899 -0.8008 -0.4934  0.4885
 1189SOL    HW113606   1.667   4.628   0.972  0.5596  1.8079 -1.1735
 1189SOL    HW213607   1.612   4.564   0.833 -0.7366 -0.5792  0.4152
 1190SOL     OW13608   5.329   3.853   1.012 -0.0155  0.7226  0.0023
 1190SOL    HW113609   5.290   3.941   0.983  0.9676  1.6581  1.4304
 1190SOL    HW213610   5.414   3.836   0.963 -0.2194  0.5589 -0.2931
 1191SOL     OW13611   9.988   1.503   0.871  0.1395  0.7227  0.1449
 1191SOL    HW113612   9.980   1.404   0.854  2.1808  0.0113  2.9624
 1191SOL    HW213613  10.081   1.523   0.904 -0.6724  3.3760  0.8752
 1192SOL     OW13614   1.767   3.505   1.052 -0.2703  0.4051 -0.2700
 1192SOL    HW113615   1.672   3.500   1.019 -0.3832 -1.9021  0.2993
 1192SOL    HW213616   1.767   3.498   1.152  0.4635  1.2700 -0.2076
 1193SOL     OW13617   4.006   0.798   0.596  0.0003 -0.7911  0.0863
 1193SOL    HW113618   4.083   0.815   0.658  0.1631 -2.0215  0.2224
 1193SOL    HW213619   3.948   0.726   0.633 -0.4825 -0.8045 -0.6867
 1194SOL     OW13620   2.547   0.983   2.343  0.3261  0.3254 -0.2405
 1194SOL    HW113621   2.529   0.896   2.298 -0.2546  0.4719 -0.3026
 1194SOL    HW213622   2.629   0.976   2.400  0.4620 -0.1643 -0.5016
 1195SOL     OW13623  10.319   5.448   1.362  0.2624 -0.8425 -0.2843
 1195SOL    HW113624  10.224   5.444   1.392 -0.1184 -0.9041 -1.4669
 1195SOL    HW213625  10.337   5.374   1.297  0.2702  0.9680 -2.4122
 1196SOL     OW13626   2.536   6.630   0.937 -0.4900 -0.2949  0.5252
 1196SOL    HW113627   2.543   6.531   0.930 -0.6071 -0.1641 -1.7367
 1196SOL    HW213628   2.490   6.666   0.856 -0.7660  1.5740  1.4943
 1197SOL     OW13629   9.201   2.330   0.646 -0.1467 -0.5030 -0.1655
 1197SOL    HW113630   9.106   2.299   0.649 -0.3646  0.2210  0.7640
 1197SOL    HW213631   9.203   2.430   0.635  0.4951 -0.4818  0.1008
 1198SOL     OW13632   4.638   1.899   0.419  0.2445  0.0471  0.2491
 1198SOL    HW113633   4.716   1.961   0.425  1.3124 -1.3305  0.6350
 1198SOL    HW213634   4.659   1.825   0.355 -1.1459  0.2241 -0.4479
 1199SOL     OW13635  10.584   5.976   2.535  0.4100 -0.5663 -0.4786
 1199SOL    HW113636  10.555   5.980   2.631 -2.5354 -1.0619 -1.3156
 1199SOL    HW213637  10.517   6.020   2.477  1.5856 -1.2967 -2.4630
 1200SOL     OW13638  10.571   5.055   1.190 -0.1191  0.1520  0.4599
 1200SOL    HW113639  10.663   5.029   1.161 -0.5595  0.2701 -1.1166
 1200SOL    HW213640  10.504   4.995   1.146 -0.7897 -0.0395  1.7284
 1201SOL     OW13641   4.139   2.892   0.564  0.6906 -0.0593 -0.4510
 1201SOL    HW113642   4.227   2.922   0.601  0.5079  1.3397 -1.1057
 1201SOL    HW213643   4.099   2.966   0.509 -0.5970 -0.9073 -0.6806
 1202SOL     OW13644   4.064   9.502   0.372 -0.7476 -0.0352 -0.2767
 1202SOL    HW113645   4.012   9.584   0.398 -0.5920 -0.2496  0.7483
 1202SOL    HW213646   4.015   9.421   0.405 -0.1187 -0.2699  0.0776
 1203SOL     OW13647   2.521   5.896   0.183  0.1792 -0.0295  0.1330
 1203SOL    HW113648   2.501   5.799   0.176 -3.1550  0.3987  2.7249
 1203SOL    HW213649   2.457   5.948   0.126 -0.3374  0.8613  1.5173
 1204SOL     OW13650   0.933   4.165   1.265  0.0952 -0.2870 -0.2034
 1204SOL    HW113651   0.859   4.209   1.316 -0.7784  0.7490 -2.2700
 1204SOL    HW213652   0.933   4.067   1.284 -1.1832 -0.1446  0.6157
 1205SOL     OW13653   3.967   8.508   1.906 -0.0205 -0.3567 -0.0251
 1205SOL    HW113654   3.898   8.470   1.843 -0.3369  0.0458  0.0740
 1205SOL    HW213655   3.981   8.605   1.885 -0.1658 -0.2080  0.5598
 1206SOL     OW13656   2.574   7.786   0.260  0.5327 -0.4601  0.0638
 1206SOL    HW113657   2.541   7.833   0.342  1.0444 -0.6181  0.3573
 1206SOL    HW213658   2.498   7.776   0.195  0.4702  0.9641 -0.0933
 1207SOL     OW13659   2.816   7.978   2.078 -0.0446  0.1594 -0.4666
 1207SOL    HW113660   2.754   7.928   2.138 -0.6145  1.4911  0.0882
 1207SOL    HW213661   2.909   7.972   2.114 -0.3117  0.5507  0.2934
 1208SOL     OW13662   1.863   5.336   1.471 -0.0621 -0.3011 -0.2849
 1208SOL    HW113663   1.820   5.422   1.445  0.2102  0.4705  1.7201
 1208SOL    HW213664   1.959   5.351   1.492  0.0300 -1.1126 -0.1051
 1209SOL     OW13665   4.018   1.201   0.213 -0.1266  0.4789 -0.2896
 1209SOL    HW113666   4.062   1.277   0.165  0.3600  0.5334  0.2326
 1209SOL    HW213667   3.999   1.228   0.307 -2.1738  0.7896 -0.7599
 1210SOL     OW13668   2.741   2.499   0.447  0.2294 -0.2418  0.2229
 1210SOL    HW113669   2.744   2.594   0.479 -0.0709 -0.0832 -0.2243
 1210SOL    HW213670   2.793   2.490   0.362  1.1751 -0.7025  0.8378
 1211SOL     OW13671   1.537   6.618   0.830 -0.6039 -0.5707  0.5590
 1211SOL    HW113672   1.487   6.691   0.877 -0.1134  0.2706 -0.2175
 1211SOL    HW213673   1.474   6.564   0.774 -0.5450  0.8552 -0.8869
 1212SOL     OW13674  10.361   2.771   0.473 -0.4765 -0.0824  0.1696
 1212SOL    HW113675  10.356   2.780   0.572  0.9945  0.6056  0.1842
 1212SOL    HW213676  10.308   2.844   0.430 -2.1177 -1.0784  0.4363
 1213SOL     OW13677   2.579   7.099   0.155  0.5090 -0.6442  0.2397
 1213SOL    HW113678   2.503   7.128   0.213  0.9035 -0.9974  0.9467
 1213SOL    HW213679   2.660   7.086   0.212  1.6208  1.6172 -0.7815
 1214SOL     OW13680   9.856   2.376   1.032  0.8285 -0.6909  0.0170
 1214SOL    HW113681   9.785   2.341   0.972 -0.5454  0.3410  0.9969
 1214SOL    HW213682   9.864   2.475   1.020  1.4665 -0.6682  0.5791
 1215SOL     OW13683   2.666   3.620   1.350 -0.1979 -0.1409 -0.0638
 1215SOL    HW113684   2.702   3.550   1.411 -0.2466  0.2652  0.4287
 1215SOL    HW213685   2.742   3.667   1.305 -0.1563 -0.2720 -0.1312
 1216SOL     OW13686   2.336   7.470   1.321 -0.4612 -0.2743  0.3360
 1216SOL    HW113687   2.333   7.386   1.267 -0.7449 -0.6273  0.9024
 1216SOL    HW213688   2.344   7.549   1.259  0.4351 -0.7495 -0.1636
 1217SOL     OW13689   9.321   1.712   0.228  0.1797 -0.1081 -0.4744
 1217SOL    HW113690   9.396   1.703   0.294 -1.6115 -1.9538  1.3836
 1217SOL    HW213691   9.357   1.704   0.135  2.5904  1.3222  0.2776
 1218SOL     OW13692   1.127  10.424   2.444 -1.2151  0.2175  0.0827
 1218SOL    HW113693   1.068  10.430   2.364 -1.0894 -0.8965 -0.1045
 1218SOL    HW213694   1.134  10.328   2.473  1.7129  0.1065 -0.8192
 1219SOL     OW13695   1.653   0.878   2.102 -0.1153 -0.2107  0.4861
 1219SOL    HW113696   1.709   0.958   2.081 -2.5884  1.2771 -0.6911
 1219SOL    HW213697   1.689   0.798   2.053  0.4637  0.9104 -0.9619
 1220SOL     OW13698   2.334   3.422   0.559  0.6968  0.0697  0.5128
 1220SOL    HW113699   2.406   3.432   0.627 -0.0309  0.6987  1.1957
 1220SOL    HW213700   2.258   3.484   0.580  0.0910 -0.3468 -0.3809
 1221SOL     OW13701   3.711   9.401   1.560  0.2006  0.1179 -0.0580
 1221SOL    HW113702   3.624   9.352   1.566  0.7896 -0.9036  0.1635
 1221SOL    HW213703   3.695   9.494   1.527 -1.0263  0.0578  0.3623
 1222SOL     OW13704   1.863   2.315   1.744  0.2081 -0.6706 -0.0915
 1222SOL    HW113705   1.867   2.229   1.692  2.1492  0.0463 -1.1849
 1222SOL    HW213706   1.874   2.295   1.842 -1.4242 -1.8415 -0.1319
 1223SOL     OW13707   3.551   4.070   0.967  0.0643 -0.8273 -0.1024
 1223SOL    HW113708   3.476   4.038   1.025 -0.3590 -0.0933 -0.2463
 1223SOL    HW213709   3.552   4.017   0.882 -0.5871 -0.5161 -0.3055
 1224SOL     OW13710   2.245   3.227   1.567  0.1758  0.0272  0.6566
 1224SOL    HW113711   2.239   3.158   1.494 -0.6051  1.0484 -0.2537
 1224SOL    HW213712   2.159   3.277   1.573  0.3805  0.2293  2.0246
 1225SOL     OW13713  10.327   3.896   0.552  0.6012  0.1045  0.4692
 1225SOL    HW113714  10.341   3.806   0.593  0.0447  0.0069  0.4509
 1225SOL    HW213715  10.284   3.957   0.619 -0.8767 -0.2329 -0.1497
 1226SOL     OW13716   0.900   1.775   0.574 -0.3970 -0.2826 -0.5979
 1226SOL    HW113717   0.969   1.841   0.602 -0.5323  0.3572 -1.7205
 1226SOL    HW213718   0.926   1.734   0.486 -1.0853 -0.5599 -0.6781
 1227SOL     OW13719   3.115   2.486   0.275 -0.1617 -0.1123 -0.2994
 1227SOL    HW113720   3.025   2.478   0.233 -0.0177 -2.4316 -0.2201
 1227SOL    HW213721   3.131   2.408   0.336  1.8668  0.2956 -0.2670
 1228SOL     OW13722   1.090   1.683   2.374 -0.0148  0.1519  0.4124
 1228SOL    HW113723   1.110   1.645   2.284  0.0760 -0.2298  0.5915
 1228SOL    HW213724   0.994   1.707   2.380  0.1080  0.7507  0.0034
 1229SOL     OW13725   1.885   4.699   0.769  0.1330  0.5592 -0.2736
 1229SOL    HW113726   1.810   4.763   0.755 -1.0235 -0.7392 -0.1051
 1229SOL    HW213727   1.857   4.630   0.835  2.1284  1.1048  1.1983
 1230SOL     OW13728   0.967   9.501   1.063 -0.2568  0.2959 -0.3215
 1230SOL    HW113729   0.898   9.566   1.095  0.1137  1.7920 -2.4787
 1230SOL    HW213730   0.958   9.490   0.964  1.9355 -0.3099 -0.4654
 1231SOL     OW13731   3.137   4.892   2.053  0.2202 -0.2419 -0.3860
 1231SOL    HW113732   3.223   4.851   2.020  0.3111 -0.0119 -0.4370
 1231SOL    HW213733   3.153   4.988   2.075  0.0478 -0.2784 -0.1064
 1232SOL     OW13734   4.384   4.766   1.930 -0.0476  0.3662 -0.4730
 1232SOL    HW113735   4.374   4.861   1.899 -0.4395  1.1334  1.8987
 1232SOL    HW213736   4.463   4.725   1.886  0.7387  2.1327 -0.7465
 1233SOL     OW13737   2.003   8.425   1.473 -0.1471 -0.6429 -0.1997
 1233SOL    HW113738   1.962   8.496   1.529 -0.2181  0.5277 -1.7198
 1233SOL    HW213739   2.018   8.343   1.529  1.6125  1.1363  2.0371
 1234SOL     OW13740   1.323   3.681   0.687 -0.4341  0.4169  0.0612
 1234SOL    HW113741   1.408   3.658   0.735 -0.9612 -0.4958  0.5628
 1234SOL    HW213742   1.342   3.750   0.617  0.7562  0.0779  0.0408
 1235SOL     OW13743   9.920   1.988   2.638 -0.2836  0.0745  0.1204
 1235SOL    HW113744   9.883   2.061   2.695 -0.3834  0.3459 -0.2869
 1235SOL    HW213745   9.904   1.899   2.682 -0.0120  0.3090  0.6926
 1236SOL     OW13746   2.564   6.977   2.297  0.5849  0.5200 -0.1957
 1236SOL    HW113747   2.653   7.004   2.259  0.5961  1.2170  0.3202
 1236SOL    HW213748   2.491   7.023   2.247  0.5151  0.0673 -0.5171
 1237SOL     OW13749   4.164   1.542   0.978 -0.0355  0.0571 -0.4373
 1237SOL    HW113750   4.110   1.482   0.919 -1.1289  0.9399 -0.3398
 1237SOL    HW213751   4.123   1.546   1.069  1.3162 -0.8341  0.2264
 1238SOL     OW13752   3.552   2.325   1.712 -0.8940  0.5492  0.5196
 1238SOL    HW113753   3.563   2.423   1.732 -0.5753  1.1060 -2.1167
 1238SOL    HW213754   3.471   2.312   1.655  0.1067 -0.4921 -0.6932
 1239SOL     OW13755   4.284  10.491   1.019 -0.2715  0.5161 -0.1788
 1239SOL    HW113756   4.321  10.543   1.097 -0.2079  2.3261 -1.3722
 1239SOL    HW213757   4.317  10.532   0.934 -4.3808  1.7098 -1.2963
 1240SOL     OW13758   1.581   1.967   2.191 -0.3742 -0.5361 -0.2982
 1240SOL    HW113759   1.505   1.999   2.134 -0.0451  0.2501 -0.3000
 1240SOL    HW213760   1.553   1.885   2.241 -1.3351 -0.0360 -0.0168
 1241SOL     OW13761   4.063   1.521   0.609 -0.2558 -0.3301  0.5748
 1241SOL    HW113762   4.095   1.490   0.698  1.6570 -0.6845 -0.2096
 1241SOL    HW213763   4.124   1.591   0.573 -1.9067  0.9633  0.2269
 1242SOL     OW13764   4.615   1.484   2.620 -0.3015 -0.5680 -0.1735
 1242SOL    HW113765   4.552   1.406   2.624 -0.6055 -0.3996 -1.3271
 1242SOL    HW213766   4.701   1.455   2.578  0.0035 -0.5481  0.4381
 1243SOL     OW13767   1.743   7.747   0.461  0.3434 -0.7205  0.1425
 1243SOL    HW113768   1.772   7.684   0.534  1.4288  0.1799  0.4962
 1243SOL    HW213769   1.646   7.767   0.471  0.5262 -0.4569  1.4669
 1244SOL     OW13770   3.290   3.154   1.843  0.1143 -0.3254 -0.0538
 1244SOL    HW113771   3.376   3.167   1.893  0.0797  1.6745 -0.4669
 1244SOL    HW213772   3.220   3.123   1.907  0.5974  0.1735  0.7422
 1245SOL     OW13773   2.230   2.741   1.720  0.1664 -0.5877  0.0462
 1245SOL    HW113774   2.192   2.737   1.813  1.3923  0.5426  0.6100
 1245SOL    HW213775   2.307   2.677   1.713  2.1221  1.6033  0.7976
 1246SOL     OW13776   2.827   6.361   1.518 -0.1857 -0.3001  0.2081
 1246SOL    HW113777   2.753   6.333   1.457 -0.2536 -0.5298  0.3996
 1246SOL    HW213778   2.901   6.294   1.513 -0.4030 -0.5827  0.7649
 1247SOL     OW13779   2.355   2.016   0.163  0.0569 -0.0838  0.1841
 1247SOL    HW113780   2.443   2.063   0.156  0.4610 -0.9878 -0.8232
 1247SOL    HW213781   2.347   1.948   0.090 -1.7549  0.4513 -0.1399
 1248SOL     OW13782   1.587   3.923   1.908  0.2965  0.2060 -0.1553
 1248SOL    HW113783   1.520   3.977   1.959 -0.9565 -0.9315 -0.5723
 1248SOL    HW213784   1.676   3.931   1.952 -0.5462  0.0946  1.5921
 1249SOL     OW13785   2.753   7.504   1.608 -0.4199 -0.0268  0.2204
 1249SOL    HW113786   2.837   7.543   1.571  0.8677 -2.2061  0.7792
 1249SOL    HW213787   2.754   7.405   1.596 -2.4952 -0.1725  1.0807
 1250SOL     OW13788   1.821   6.309   0.156  0.0793 -0.2168  0.1298
 1250SOL    HW113789   1.797   6.216   0.187 -3.1996  0.6612  0.4333
 1250SOL    HW213790   1.760   6.375   0.200 -0.2683  1.7193 -3.1132
 1251SOL     OW13791   4.738   3.103   0.142  0.1463 -0.6658 -0.1873
 1251SOL    HW113792   4.834   3.091   0.116  0.4478 -0.3251  0.7438
 1251SOL    HW213793   4.697   3.176   0.087  0.9093  0.3718  0.6100
 1252SOL     OW13794   2.164   9.785   2.093 -0.1491  0.3061 -0.0189
 1252SOL    HW113795   2.127   9.861   2.040  0.7033  0.8700  0.1683
 1252SOL    HW213796   2.203   9.820   2.178  0.9896 -0.2206 -0.3040
 1253SOL     OW13797   2.424   8.805   1.954 -0.0283  0.4380 -0.2226
 1253SOL    HW113798   2.341   8.772   1.999 -0.7603  1.5025 -0.7839
 1253SOL    HW213799   2.483   8.727   1.931 -0.8241 -0.3103  0.2434
 1254SOL     OW13800   1.307   3.149   2.080 -0.0942  0.1244 -0.5035
 1254SOL    HW113801   1.373   3.219   2.053 -1.8601  1.7316 -0.7108
 1254SOL    HW213802   1.221   3.163   2.031 -0.5773 -2.0217 -0.3363
 1255SOL     OW13803  10.558   1.176   2.285  0.2526 -0.3837  0.0734
 1255SOL    HW113804  10.569   1.200   2.382 -0.3504 -0.3807  0.1412
 1255SOL    HW213805  10.593   1.250   2.228 -1.6820  0.7164  0.2792
 1256SOL     OW13806   0.837   6.191   1.519  0.3136  0.0117 -0.2934
 1256SOL    HW113807   0.929   6.161   1.497  0.2233 -1.5068  1.2759
 1256SOL    HW213808   0.785   6.114   1.557 -0.4490  1.7272  2.2567
 1257SOL     OW13809   3.991   1.257   0.478 -0.0176 -0.1377 -0.1454
 1257SOL    HW113810   4.038   1.181   0.524  1.1012 -0.8658 -2.4133
 1257SOL    HW213811   3.996   1.338   0.536  0.5709 -1.2553  1.4151
 1258SOL     OW13812   2.810   8.820   1.531  0.2088  0.7447  0.1933
 1258SOL    HW113813   2.768   8.849   1.445  1.4095  0.5968 -0.4640
 1258SOL    HW213814   2.739   8.798   1.598 -0.7770 -1.0584 -1.3987
 1259SOL     OW13815   1.326   4.148   1.691 -0.3598  0.4764  0.1016
 1259SOL    HW113816   1.353   4.160   1.787 -0.2583  0.8979  0.0205
 1259SOL    HW213817   1.354   4.228   1.638 -0.8316  0.4485 -0.1917
 1260SOL     OW13818   0.820   5.082   0.844 -0.3732 -0.6789 -0.1952
 1260SOL    HW113819   0.815   5.029   0.929 -0.8882 -0.3185  0.0008
 1260SOL    HW213820   0.768   5.036   0.772  1.8600 -2.1197 -0.9295
 1261SOL     OW13821   2.967   3.046   1.724  0.3266  0.4311 -0.1496
 1261SOL    HW113822   3.000   3.091   1.641 -1.0705 -1.1983 -1.6512
 1261SOL    HW213823   2.881   3.088   1.753 -0.4557 -0.5495 -0.9745
 1262SOL     OW13824  10.357   3.250   1.205 -0.2719 -0.2012  0.3382
 1262SOL    HW113825  10.430   3.221   1.266 -1.1969 -0.3847  1.3715
 1262SOL    HW213826  10.276   3.274   1.259 -0.9979 -0.0774 -0.7969
 1263SOL     OW13827   1.462   8.702   1.983 -0.0678 -0.5425  0.8234
 1263SOL    HW113828   1.560   8.711   2.003 -0.3153  1.7351  1.1978
 1263SOL    HW213829   1.439   8.761   1.905 -1.6517  1.1674  2.5291
 1264SOL     OW13830   3.588   1.506   0.648  0.4529 -0.2022 -0.0027
 1264SOL    HW113831   3.500   1.470   0.677  0.9577 -0.1464  1.6487
 1264SOL    HW213832   3.609   1.473   0.555 -2.9934  2.8170 -1.9825
 1265SOL     OW13833   3.081   5.159   1.037  0.2818  0.3270 -0.3296
 1265SOL    HW113834   3.027   5.095   1.091  0.1728  0.9062  0.2609
 1265SOL    HW213835   3.093   5.123   0.945  0.7165 -0.8123  0.1562
 1266SOL     OW13836   0.926   6.569   0.933  0.0299  0.3274 -0.3804
 1266SOL    HW113837   0.943   6.621   1.017 -0.3318 -1.5884  0.9167
 1266SOL    HW213838   1.002   6.506   0.916 -0.1782  0.2768 -1.1698
 1267SOL     OW13839   3.759   9.985   2.664 -0.0570 -0.0241 -0.1134
 1267SOL    HW113840   3.688  10.008   2.731  0.0573  2.2291 -0.7492
 1267SOL    HW213841   3.848  10.014   2.698  0.3692 -1.3313 -0.0678
 1268SOL     OW13842   3.914   3.548   2.350 -0.2608 -0.3208 -0.1957
 1268SOL    HW113843   3.822   3.578   2.375 -0.1796 -1.9076  2.2045
 1268SOL    HW213844   3.909   3.476   2.281 -1.0313 -2.6070  2.1641
 1269SOL     OW13845   1.553   9.468   2.164  0.2742  0.2732 -0.2188
 1269SOL    HW113846   1.584   9.377   2.134 -1.3422 -0.6518  0.8063
 1269SOL    HW213847   1.630   9.532   2.162  1.8527 -1.5498  0.7305
 1270SOL     OW13848   1.305   9.391   2.471  0.0424 -0.4054  0.0176
 1270SOL    HW113849   1.396   9.351   2.460  0.3048 -0.1515  1.1809
 1270SOL    HW213850   1.314   9.490   2.482 -0.2034 -0.5814  2.0380
 1271SOL     OW13851   2.552   5.707   0.528  0.0843 -0.2059  0.2916
 1271SOL    HW113852   2.587   5.717   0.621 -2.3549 -0.0454  1.2464
 1271SOL    HW213853   2.535   5.798   0.489 -0.4437 -0.2912  0.3186
 1272SOL     OW13854   1.769   6.953   1.868  0.2811  0.3420  0.1768
 1272SOL    HW113855   1.830   6.885   1.907 -0.5765 -0.4303  0.1769
 1272SOL    HW213856   1.821   7.036   1.845  1.8920 -1.3387 -2.4712
 1273SOL     OW13857   0.973   6.970   1.461 -0.3609 -0.3564  0.2993
 1273SOL    HW113858   0.941   7.038   1.394 -2.2189 -0.8455  0.6599
 1273SOL    HW213859   0.903   6.900   1.474  0.2516 -0.6495  2.2516
 1274SOL     OW13860   1.471   2.725   2.582 -0.0375 -0.3336 -0.3225
 1274SOL    HW113861   1.498   2.812   2.623  1.7722 -0.9628 -0.1468
 1274SOL    HW213862   1.468   2.655   2.653  1.0801 -0.9685 -0.8871
 1275SOL     OW13863   1.847   6.004   0.692  0.4740 -0.5095  0.0588
 1275SOL    HW113864   1.778   5.991   0.763  0.3543 -0.5884 -0.0707
 1275SOL    HW213865   1.913   5.929   0.695  2.5203  1.3346  2.3966
 1276SOL     OW13866  10.184   5.661   0.712 -0.4074  0.0896  0.3709
 1276SOL    HW113867  10.180   5.748   0.663 -0.7954  0.3129  0.7953
 1276SOL    HW213868  10.120   5.663   0.789 -0.3610 -0.5409  0.4296
 1277SOL     OW13869   1.004   3.093   2.579 -0.2158  0.3014 -0.2570
 1277SOL    HW113870   1.102   3.079   2.568 -0.6600 -2.6182 -0.7674
 1277SOL    HW213871   0.979   3.081   2.675 -0.5244 -2.1133 -0.6195
 1278SOL     OW13872   2.869   9.195   2.492 -0.5471 -0.7743 -0.4474
 1278SOL    HW113873   2.793   9.247   2.531 -0.5767 -0.9104 -0.3225
 1278SOL    HW213874   2.940   9.258   2.461 -0.1078 -0.7042  0.6727
 1279SOL     OW13875   3.369   8.629   0.658  0.0390 -0.2725  0.0468
 1279SOL    HW113876   3.442   8.562   0.643 -0.8870 -1.4191  0.6172
 1279SOL    HW213877   3.285   8.598   0.613 -0.3509  0.6042  0.1607
 1280SOL     OW13878  10.579   6.448   2.248 -0.1380  0.6411  0.0623
 1280SOL    HW113879  10.552   6.506   2.325 -0.8400  0.8761 -0.3505
 1280SOL    HW213880  10.526   6.474   2.167 -0.7838 -0.8578 -0.0240
 1281SOL     OW13881   8.864   2.887   2.512 -0.8253  0.0953  0.4749
 1281SOL    HW113882   8.888   2.946   2.434  2.0425 -2.2778 -0.5221
 1281SOL    HW213883   8.909   2.921   2.595  0.8266 -0.6533 -0.0995
 1282SOL     OW13884   0.818   3.644   1.993 -0.0500 -0.1814  0.5498
 1282SOL    HW113885   0.790   3.610   2.082 -0.9748  0.6337  0.5794
 1282SOL    HW213886   0.901   3.700   2.003  0.0109 -0.3276  0.8566
 1283SOL     OW13887   1.383   8.217   1.597 -0.1480 -0.4293 -0.1734
 1283SOL    HW113888   1.285   8.230   1.578 -0.9343  0.4837  3.9773
 1283SOL    HW213889   1.433   8.299   1.573 -0.5565 -0.5458 -1.4267
 1284SOL     OW13890   1.284   9.419   0.610 -0.3302  0.2074 -0.3016
 1284SOL    HW113891   1.287   9.336   0.666  0.6813 -0.1850 -0.9227
 1284SOL    HW213892   1.229   9.489   0.656 -0.1575 -0.3831  0.8103
 1285SOL     OW13893   4.118   4.002   1.483  0.5522  0.3081 -0.0827
 1285SOL    HW113894   4.031   3.953   1.475 -1.0983  3.1687 -0.1998
 1285SOL    HW213895   4.101   4.097   1.508  3.6974  0.8082  0.3891
 1286SOL     OW13896   4.051   1.158   2.099  0.1042 -0.1824  0.0023
 1286SOL    HW113897   4.069   1.061   2.120  1.9091 -0.2623 -1.7416
 1286SOL    HW213898   4.078   1.214   2.177 -0.9182 -1.0720  1.0161
 1287SOL     OW13899   4.077  10.706   0.367  0.5269  0.5030 -0.1325
 1287SOL    HW113900   4.047  10.749   0.452 -0.6033 -0.3843 -0.0769
 1287SOL    HW213901   4.013  10.633   0.342  2.7969 -1.6950  0.2055
 1288SOL     OW13902   3.336   5.222   1.124  0.1770  0.5296 -0.5713
 1288SOL    HW113903   3.356   5.135   1.080  0.1012 -0.2394  0.8934
 1288SOL    HW213904   3.238   5.230   1.141  0.3642  0.2607  0.6283
 1289SOL     OW13905   2.437   7.826   2.128  0.5221  0.0305  0.5005
 1289SOL    HW113906   2.492   7.747   2.102 -1.6013 -1.1613 -0.4394
 1289SOL    HW213907   2.439   7.894   2.055  1.5531  0.4356  0.8973
 1290SOL     OW13908   9.282   4.155   1.238  0.3178 -0.5715 -0.0496
 1290SOL    HW113909   9.266   4.070   1.189 -0.3205 -2.2578  2.9510
 1290SOL    HW213910   9.285   4.137   1.337  0.9588  2.7594  0.6106
 1291SOL     OW13911   3.929   0.935   1.524  0.3037 -0.4012 -0.1458
 1291SOL    HW113912   3.932   0.900   1.430  0.5399  2.4244 -1.2561
 1291SOL    HW213913   3.840   0.976   1.542  0.9228  0.8191  0.1878
 1292SOL     OW13914   3.431   5.658   1.002 -0.2083  0.1906  0.1331
 1292SOL    HW113915   3.355   5.606   1.041  0.3527 -0.5429  0.2578
 1292SOL    HW213916   3.447   5.629   0.907  1.2475 -1.1376  0.7663
 1293SOL     OW13917   3.273   9.396   0.662 -0.3932  0.4436  0.3143
 1293SOL    HW113918   3.176   9.376   0.645 -1.4579  3.8777  2.0475
 1293SOL    HW213919   3.326   9.311   0.655 -3.4788 -1.4641 -0.8308
 1294SOL     OW13920   4.534   4.386   2.062 -0.3822  0.0297  0.2635
 1294SOL    HW113921   4.525   4.477   2.021  1.5909  0.0208 -0.2176
 1294SOL    HW213922   4.481   4.383   2.147 -1.0607  1.3853 -0.0901
 1295SOL     OW13923   0.747   6.144   0.407 -0.1878  0.5046  0.4146
 1295SOL    HW113924   0.798   6.059   0.418 -0.2004  0.6611  1.7555
 1295SOL    HW213925   0.810   6.220   0.399 -0.1523  0.2861 -1.7752
 1296SOL     OW13926   0.903   4.366   1.085  0.4349 -0.2969  0.0287
 1296SOL    HW113927   0.929   4.294   1.148  3.2664  0.1161 -0.5903
 1296SOL    HW213928   0.969   4.442   1.091  0.4236  0.0318 -2.8871
 1297SOL     OW13929   3.086   3.119   1.484  0.0516  0.2049 -0.2533
 1297SOL    HW113930   3.037   3.196   1.524  1.6833 -1.1416  4.6686
 1297SOL    HW213931   3.175   3.149   1.450 -0.0935  0.8239 -0.0771
 1298SOL     OW13932   2.478   2.722   0.600 -0.8089 -0.0106 -0.0243
 1298SOL    HW113933   2.480   2.787   0.676  0.6609 -0.4348  0.3162
 1298SOL    HW213934   2.566   2.724   0.552 -1.3585 -0.5089 -1.0752
 1299SOL     OW13935   3.952   4.401   0.252 -1.1402  0.1327 -0.3764
 1299SOL    HW113936   4.042   4.360   0.263  0.2175  2.2710 -3.0623
 1299SOL    HW213937   3.899   4.388   0.337  1.5201 -1.4264  1.1148
 1300SOL     OW13938   0.994   6.313   0.380  0.6608 -0.7462 -0.3261
 1300SOL    HW113939   1.079   6.265   0.401 -1.2138 -3.5972  1.0086
 1300SOL    HW213940   0.989   6.332   0.282  2.8519 -0.4171 -0.4011
 1301SOL     OW13941   1.983   7.035   0.506  0.1268 -0.3775 -0.2469
 1301SOL    HW113942   1.895   7.064   0.468  1.2312  1.0420 -1.8004
 1301SOL    HW213943   2.027   6.971   0.442 -0.1356 -1.7401  0.9153
 1302SOL     OW13944   2.584   4.251   0.482 -0.1269 -0.0636 -0.0459
 1302SOL    HW113945   2.617   4.324   0.421  2.7658  0.6945  2.3031
 1302SOL    HW213946   2.602   4.162   0.440 -2.2241  0.4825 -2.2304
 1303SOL     OW13947   4.899   2.168   0.515  1.1830 -0.4492 -0.3978
 1303SOL    HW113948   4.979   2.225   0.498  0.0241  1.1948 -0.4222
 1303SOL    HW213949   4.910   2.080   0.469  0.9545  1.4810 -4.2622
 1304SOL     OW13950   4.191   4.279   0.262  0.6912  0.0199  0.4423
 1304SOL    HW113951   4.141   4.242   0.184  0.3347  2.1152 -0.3625
 1304SOL    HW213952   4.289   4.261   0.250  0.6033  0.0304 -0.3234
 1305SOL     OW13953   2.185   8.953   0.881 -0.4871  0.1810  0.2202
 1305SOL    HW113954   2.146   8.971   0.791 -0.5938 -0.3911  0.1511
 1305SOL    HW213955   2.120   8.899   0.935 -0.0602 -0.2320  0.3250
 1306SOL     OW13956   5.015   3.997   2.112 -0.0250  0.2176 -0.3501
 1306SOL    HW113957   5.060   3.909   2.103  1.7943  1.0111  0.6154
 1306SOL    HW213958   4.938   3.990   2.175 -0.3814 -0.8396 -0.9014
 1307SOL     OW13959   1.485   7.721   1.161 -0.8770  0.0946  0.3017
 1307SOL    HW113960   1.446   7.649   1.219 -0.1845 -0.2363  0.3564
 1307SOL    HW213961   1.585   7.714   1.161 -0.8990 -0.8805 -2.1579
 1308SOL     OW13962   9.411   2.125   0.257  0.0972 -0.5977  0.3416
 1308SOL    HW113963   9.339   2.069   0.218 -0.4049  0.8701 -0.8652
 1308SOL    HW213964   9.499   2.079   0.246 -0.1733 -0.6576 -1.6278
 1309SOL     OW13965   2.783   1.244   0.115 -0.1094  0.9519 -0.3967
 1309SOL    HW113966   2.825   1.291   0.193  1.5766  1.8159 -1.7866
 1309SOL    HW213967   2.822   1.279   0.030 -1.4144 -0.4726 -1.6218
 1310SOL     OW13968   3.468   1.008   2.412 -0.2183 -0.2775  0.0148
 1310SOL    HW113969   3.382   0.992   2.364 -0.3559 -1.0904  0.5238
 1310SOL    HW213970   3.518   1.082   2.367 -0.9769 -0.0974 -0.5463
 1311SOL     OW13971   8.552   2.298   0.479 -0.3403  0.6867  0.3315
 1311SOL    HW113972   8.502   2.325   0.396 -0.0046  1.9317  0.5309
 1311SOL    HW213973   8.516   2.348   0.557 -0.0621  0.1605  0.7976
 1312SOL     OW13974   2.960   7.879   0.566 -0.4962 -0.6569  0.0248
 1312SOL    HW113975   2.901   7.960   0.563  0.5145  0.0884  0.2159
 1312SOL    HW213976   2.993   7.866   0.659  2.2845  0.8381 -0.7142
 1313SOL     OW13977   2.806   7.841   1.835 -0.0273  0.0825  0.5310
 1313SOL    HW113978   2.898   7.839   1.796  0.1044  0.6684  0.7987
 1313SOL    HW213979   2.808   7.894   1.920 -0.5484 -0.1796  0.7057
 1314SOL     OW13980   2.803   2.387   1.253  0.0813  0.9261  0.2754
 1314SOL    HW113981   2.843   2.382   1.161 -0.1758 -0.6154  0.2318
 1314SOL    HW213982   2.872   2.417   1.318  0.8951 -0.1887 -0.0592
 1315SOL     OW13983   3.085   9.986   0.840  0.1861 -0.1259  0.0252
 1315SOL    HW113984   3.162   9.922   0.846  3.4269  3.5378 -0.5193
 1315SOL    HW213985   3.024   9.957   0.766  0.7510 -3.3561  0.7450
 1316SOL     OW13986   4.982   2.501   2.095 -0.1921 -0.7166 -0.2663
 1316SOL    HW113987   5.032   2.530   2.013  0.2770  0.3989  0.3978
 1316SOL    HW213988   4.887   2.484   2.071 -0.2895  0.5634 -0.8735
 1317SOL     OW13989   2.305   5.744   2.276 -0.4012 -0.1197 -0.3064
 1317SOL    HW113990   2.308   5.655   2.232  0.7872 -0.4399  0.4068
 1317SOL    HW213991   2.347   5.813   2.216 -0.6017 -0.1841 -0.5199
 1318SOL     OW13992   2.448   8.386   1.244  0.4228  0.4805  0.1630
 1318SOL    HW113993   2.507   8.454   1.287  1.3950  1.0033 -1.9699
 1318SOL    HW213994   2.354   8.422   1.240  0.4424  0.6756  1.2625
 1319SOL     OW13995   5.191   4.012   0.802  0.0395 -0.4244  0.0376
 1319SOL    HW113996   5.095   4.038   0.813 -0.0119 -0.9828  1.0208
 1319SOL    HW213997   5.197   3.929   0.747 -0.0562 -0.5000  0.1411
 1320SOL     OW13998   3.085   6.040   0.438 -0.0207  0.4713 -0.1438
 1320SOL    HW113999   3.095   6.066   0.342 -2.2278 -1.2456 -0.8773
 1320SOL    HW214000   3.086   6.122   0.495 -1.4623  1.7391 -1.8833
 1321SOL     OW14001   3.593   2.525   0.316  0.1665 -0.0686 -0.5204
 1321SOL    HW114002   3.658   2.510   0.391  0.0041 -1.0449 -0.5716
 1321SOL    HW214003   3.611   2.459   0.243 -1.5174 -0.9953 -0.1139
 1322SOL     OW14004   4.820   2.134   1.108  0.1303 -0.1102  0.1924
 1322SOL    HW114005   4.752   2.203   1.082  1.4441  0.8110 -0.9132
 1322SOL    HW214006   4.805   2.051   1.053  0.5134  0.4543 -0.7888
 1323SOL     OW14007   1.330   5.187   0.758 -0.5449 -0.5979 -0.7296
 1323SOL    HW114008   1.247   5.138   0.783 -0.9521 -0.7578 -2.2949
 1323SOL    HW214009   1.408   5.149   0.808 -1.4605 -0.1851  1.0423
 1324SOL     OW14010   2.687   9.819   0.429 -0.1686  0.4100 -0.1936
 1324SOL    HW114011   2.734   9.874   0.361  0.5180  0.7642  0.5596
 1324SOL    HW214012   2.627   9.878   0.484  0.3458  0.3717  0.4208
 1325SOL     OW14013   3.243   5.615   0.453 -0.0189  0.1613 -0.2328
 1325SOL    HW114014   3.227   5.680   0.527 -0.3833 -2.3583  1.9476
 1325SOL    HW214015   3.157   5.598   0.405 -0.1365  0.4985 -0.1422
 1326SOL     OW14016  10.150   3.357   1.962 -0.4129 -0.3337  0.3475
 1326SOL    HW114017  10.236   3.363   2.013 -0.1032 -0.3344 -0.1754
 1326SOL    HW214018  10.166   3.311   1.874 -0.4384  1.8196 -0.8211
 1327SOL     OW14019  10.080   4.269   0.745  0.7758 -0.4358  0.1044
 1327SOL    HW114020  10.131   4.184   0.741 -1.1122 -1.5192 -2.2818
 1327SOL    HW214021   9.988   4.252   0.782  0.8413  0.8120  0.8942
 1328SOL     OW14022   3.612   9.100   1.474  0.1150  0.5686 -0.3657
 1328SOL    HW114023   3.556   9.179   1.502  1.1723  1.3377 -0.3974
 1328SOL    HW214024   3.670   9.125   1.397 -2.2902 -1.3619 -2.8963
 1329SOL     OW14025   3.278   3.612   0.723  0.1209 -0.0437 -0.7316
 1329SOL    HW114026   3.222   3.577   0.798 -1.4483 -0.2135 -1.9580
 1329SOL    HW214027   3.300   3.708   0.739 -2.6015  0.7200 -1.4089
 1330SOL     OW14028   8.274   2.497   1.176 -0.1495 -0.3273  0.1208
 1330SOL    HW114029   8.275   2.409   1.128 -0.5364  0.2888 -1.0336
 1330SOL    HW214030   8.269   2.572   1.110 -0.6834  0.5441  1.1161
 1331SOL     OW14031   0.821   6.436   2.475 -0.2901  0.2649 -0.4783
 1331SOL    HW114032   0.888   6.508   2.452  0.3177 -0.1588 -0.0516
 1331SOL    HW214033   0.789   6.393   2.391 -1.9593  2.1929 -0.8611
 1332SOL     OW14034   4.355  10.532   1.290 -0.8296 -0.4368  0.3737
 1332SOL    HW114035   4.447  10.559   1.321 -0.7461 -0.6222  0.2910
 1332SOL    HW214036   4.294  10.611   1.295 -1.7207 -1.2977  4.4129
 1333SOL     OW14037   9.965   2.847   2.188 -0.2286  0.1965  0.4626
 1333SOL    HW114038   9.888   2.791   2.156 -0.1040  0.8065 -0.9111
 1333SOL    HW214039  10.051   2.798   2.171 -0.2627 -0.2029  1.4036
 1334SOL     OW14040   3.845   9.578   2.325  0.7059 -0.2337 -0.1657
 1334SOL    HW114041   3.823   9.660   2.377  1.1092 -0.8383  0.9624
 1334SOL    HW214042   3.760   9.535   2.294  0.4056 -0.8014  1.4365
 1335SOL     OW14043   3.356   5.620   1.883 -0.7206 -0.0888  0.5174
 1335SOL    HW114044   3.429   5.673   1.927 -0.2241 -0.9176  0.7091
 1335SOL    HW214045   3.330   5.544   1.943 -1.9448  0.3692  0.5752
 1336SOL     OW14046   3.840  10.063   2.299 -0.4935 -0.6620 -0.6701
 1336SOL    HW114047   3.823   9.965   2.310 -0.7953 -0.5817 -0.4172
 1336SOL    HW214048   3.897  10.095   2.373  0.8402 -0.9452 -1.5579
 1337SOL     OW14049   1.620   4.559   1.767 -0.0412  0.1495 -0.1037
 1337SOL    HW114050   1.715   4.590   1.767 -0.4860  1.5635 -0.7513
 1337SOL    HW214051   1.563   4.625   1.815 -1.0904  0.6697 -1.9956
 1338SOL     OW14052   2.665  10.254   0.105 -0.2609 -0.1660  0.0691
 1338SOL    HW114053   2.676  10.314   0.184  0.5758 -1.2152  0.7736
 1338SOL    HW214054   2.569  10.254   0.076 -0.3047  1.3209  0.1926
 1339SOL     OW14055   9.199   2.341   2.301  0.1341  0.0882 -0.7951
 1339SOL    HW114056   9.153   2.369   2.386 -0.3247 -1.8093 -0.4095
 1339SOL    HW214057   9.144   2.369   2.222 -1.2372 -1.3060 -0.3615
 1340SOL     OW14058   1.956   0.803   0.354 -0.0921 -0.0523 -0.1112
 1340SOL    HW114059   2.048   0.797   0.315  1.4556 -2.0561  3.6143
 1340SOL    HW214060   1.920   0.711   0.367 -1.2499  0.6213  1.5190
 1341SOL     OW14061   9.014   2.991   2.252  0.0686  0.5578  0.1117
 1341SOL    HW114062   9.097   3.040   2.279  1.2663 -0.6241 -1.3556
 1341SOL    HW214063   8.946   3.056   2.218  1.8584  1.1989 -2.3906
 1342SOL     OW14064   4.495   1.128   2.000  0.5929  0.1758  0.0043
 1342SOL    HW114065   4.429   1.056   2.025  1.6212 -0.5245  0.7446
 1342SOL    HW214066   4.445   1.210   1.974 -0.5850 -0.2010  0.9825
 1343SOL     OW14067   1.122   8.281   1.476 -0.1967 -0.0838 -0.5384
 1343SOL    HW114068   1.136   8.274   1.377  1.4348  0.4548 -0.3625
 1343SOL    HW214069   1.040   8.230   1.501 -1.1501  0.5177 -2.2852
 1344SOL     OW14070   2.191   1.938   2.232 -0.6243 -0.1212  0.3188
 1344SOL    HW114071   2.120   1.985   2.180 -0.0896  0.1375 -0.1840
 1344SOL    HW214072   2.159   1.846   2.256 -1.4875  0.3280  0.9084
 1345SOL     OW14073   3.067   9.282   2.209  0.3111  0.5565  0.1448
 1345SOL    HW114074   2.998   9.335   2.160  1.4403  2.6921  0.7951
 1345SOL    HW214075   3.134   9.246   2.144 -1.4810 -1.6773 -0.5042
 1346SOL     OW14076   2.144   1.138   1.869 -0.4421 -0.4105  0.2593
 1346SOL    HW114077   2.098   1.152   1.957 -0.7424  0.2807  0.0010
 1346SOL    HW214078   2.079   1.155   1.795  0.3340  0.9806 -0.1190
 1347SOL     OW14079   2.613   2.175   1.318  0.0014  0.1900  0.5281
 1347SOL    HW114080   2.684   2.242   1.298 -0.9594  0.6264 -1.4795
 1347SOL    HW214081   2.523   2.215   1.301 -0.5929 -1.4985 -0.4079
 1348SOL     OW14082  10.224   3.082   0.603 -0.2293 -0.2179 -0.2016
 1348SOL    HW114083  10.237   3.169   0.650  2.2176  0.3812 -1.9044
 1348SOL    HW214084  10.129   3.074   0.574 -0.8642  1.1117  1.4438
 1349SOL     OW14085   9.595   3.552   2.245 -0.1698 -0.5704  0.1679
 1349SOL    HW114086   9.658   3.537   2.322  0.6320  2.2452  0.1223
 1349SOL    HW214087   9.648   3.570   2.162 -1.0513  0.8909 -0.0794
 1350SOL     OW14088   0.735   3.612   0.778  0.0187 -0.8145  0.4375
 1350SOL    HW114089   0.712   3.677   0.705  2.2794 -0.9192 -0.3777
 1350SOL    HW214090   0.773   3.529   0.739 -0.2145 -1.5180  1.6676
 1351SOL     OW14091   0.715   1.847   0.328  0.0615  0.4739  0.2480
 1351SOL    HW114092   0.776   1.862   0.406  0.4668 -0.2166  0.0599
 1351SOL    HW214093   0.768   1.828   0.246 -0.3835  0.6577 -0.0859
 1352SOL     OW14094   2.303   6.494   1.805 -0.8389  0.5765 -0.2261
 1352SOL    HW114095   2.315   6.437   1.724 -2.1256 -0.0556  0.0345
 1352SOL    HW214096   2.211   6.482   1.843  0.6923 -1.4585  3.1250
 1353SOL     OW14097   1.142   3.627   0.942 -0.5274  0.2476 -0.2014
 1353SOL    HW114098   1.177   3.661   0.855 -0.0631  2.9813  0.9903
 1353SOL    HW214099   1.049   3.660   0.956 -1.7702 -2.7893 -1.0453
 1354SOL     OW14100   2.228   8.677   2.605 -0.3283  0.1279  0.2604
 1354SOL    HW114101   2.273   8.623   2.534 -1.1505  1.1879 -1.0881
 1354SOL    HW214102   2.253   8.641   2.695  0.9759 -1.0318 -0.5469
 1355SOL     OW14103   1.614   5.716   0.687 -0.2436 -0.1634 -0.1368
 1355SOL    HW114104   1.569   5.787   0.634 -0.1013  1.9632  2.4590
 1355SOL    HW214105   1.708   5.743   0.706 -1.4210  1.1607  4.5380
 1356SOL     OW14106   1.962   2.775   0.863 -0.3985 -0.0130  0.1449
 1356SOL    HW114107   1.994   2.777   0.769  0.3776  0.2448  0.4131
 1356SOL    HW214108   1.886   2.839   0.874 -2.9207 -2.6595 -1.1669
 1357SOL     OW14109   4.045   8.445   0.203  0.1945  0.2460  0.4590
 1357SOL    HW114110   3.949   8.460   0.180 -0.4248 -0.1595  2.6974
 1357SOL    HW214111   4.102   8.498   0.140 -1.5176  1.4803 -0.1042
 1358SOL     OW14112   3.269   5.050   1.414 -0.1065 -0.3683  0.4519
 1358SOL    HW114113   3.314   4.963   1.434  0.5501  0.0717  0.9466
 1358SOL    HW214114   3.321   5.124   1.458 -0.2036  0.3475 -0.6263
 1359SOL     OW14115   2.657   8.098   0.114  0.2198 -0.2190 -0.9270
 1359SOL    HW114116   2.717   8.101   0.034  1.2732 -1.1463 -0.1820
 1359SOL    HW214117   2.708   8.063   0.193 -0.8692  0.4736  0.0989
 1360SOL     OW14118   3.815   9.778   1.420  0.3165 -0.0662  0.1074
 1360SOL    HW114119   3.840   9.717   1.346  1.8304 -0.1414  0.6617
 1360SOL    HW214120   3.886   9.848   1.432  0.4016 -0.4315  1.8812
 1361SOL     OW14121   0.620   4.871   2.498  0.0352 -0.3642  0.2123
 1361SOL    HW114122   0.581   4.959   2.525 -0.2785 -0.2013 -0.7461
 1361SOL    HW214123   0.546   4.807   2.477  0.2659 -0.8369  0.8425
 1362SOL     OW14124   1.380   1.751   2.161  0.8638 -0.5164  0.6094
 1362SOL    HW114125   1.409   1.759   2.256 -1.2469 -0.5503  1.2699
 1362SOL    HW214126   1.373   1.655   2.135 -2.3854 -0.6159  1.6559
 1363SOL     OW14127   1.514   9.101   2.672 -0.5912  0.3091  0.2293
 1363SOL    HW114128   1.574   9.035   2.718 -2.2815 -1.0136  0.6048
 1363SOL    HW214129   1.564   9.148   2.600  0.5195 -1.7398 -0.3561
 1364SOL     OW14130   3.815   4.036   0.725  0.0932  0.5534 -0.5160
 1364SOL    HW114131   3.887   3.968   0.713 -0.2917 -0.2081  1.3158
 1364SOL    HW214132   3.729   4.002   0.688 -0.1616 -0.0787  0.6501
 1365SOL     OW14133   1.552   7.963   0.642  0.7232  0.1262 -0.8095
 1365SOL    HW114134   1.504   7.886   0.600  0.0759 -0.1722  0.4611
 1365SOL    HW214135   1.598   7.932   0.725  0.1647  1.1907 -0.1046
 1366SOL     OW14136   3.604  10.699   0.202 -0.3258  0.0096  0.5314
 1366SOL    HW114137   3.629  10.613   0.158 -0.6100  0.6993 -1.0064
 1366SOL    HW214138   3.649  10.705   0.291  1.5950 -0.6876 -0.3644
 1367SOL     OW14139   1.948   6.903   0.760 -0.3346 -0.2051  0.9417
 1367SOL    HW114140   1.874   6.960   0.798  0.2605  1.0821  0.1896
 1367SOL    HW214141   2.017   6.962   0.719  1.2767 -1.3926  1.9053
 1368SOL     OW14142   3.078   6.549   0.095  0.3948 -0.0634 -0.6834
 1368SOL    HW114143   3.167   6.504   0.087  1.3351  2.0257 -2.3328
 1368SOL    HW214144   3.027   6.535   0.010 -0.1026  0.3117 -0.4435
 1369SOL     OW14145   1.830   8.532   0.133  0.3423  0.5607  0.5355
 1369SOL    HW114146   1.796   8.441   0.156 -2.2391  1.7948  1.8692
 1369SOL    HW214147   1.894   8.562   0.205 -1.2247  1.0331  1.7548
 1370SOL     OW14148   1.746   3.323   0.207  0.2881 -0.4011 -0.2791
 1370SOL    HW114149   1.651   3.347   0.227  0.4767  0.0345  0.1132
 1370SOL    HW214150   1.781   3.261   0.276  0.1415 -0.9444 -0.6905
 1371SOL     OW14151   4.143   2.019   2.687  0.0024 -0.6192  0.6574
 1371SOL    HW114152   4.077   1.990   2.757 -0.9549  0.6692  0.3190
 1371SOL    HW214153   4.108   2.101   2.641  1.1228 -0.8341 -0.5993
 1372SOL     OW14154   3.428   9.251   0.936  0.2392 -0.5063 -0.4892
 1372SOL    HW114155   3.469   9.332   0.894 -2.0312  1.5647  1.0859
 1372SOL    HW214156   3.491   9.174   0.930  1.4714  0.6994 -4.2317
 1373SOL     OW14157   2.383   3.442   1.682  0.2554 -0.3322  0.1791
 1373SOL    HW114158   2.360   3.492   1.598  1.8328  0.8839  0.4604
 1373SOL    HW214159   2.334   3.355   1.682 -1.5229  0.6176 -0.9372
 1374SOL     OW14160   9.521   1.296   1.387 -0.4532  0.1081 -0.3987
 1374SOL    HW114161   9.456   1.287   1.311 -0.8234 -0.1269 -0.0576
 1374SOL    HW214162   9.473   1.280   1.473  0.2814 -1.1031 -0.2050
 1375SOL     OW14163   5.110   3.757   1.144  0.0971 -0.4005 -0.1483
 1375SOL    HW114164   5.193   3.789   1.099  0.4605 -0.7093  0.2917
 1375SOL    HW214165   5.087   3.818   1.220 -1.5792  1.2104 -1.8881
 1376SOL     OW14166   1.663   7.426   2.347  0.5555  0.2743 -0.2404
 1376SOL    HW114167   1.740   7.480   2.314 -0.9443  2.3018 -0.5379
 1376SOL    HW214168   1.603   7.484   2.402 -0.2034 -1.5462  0.8799
 1377SOL     OW14169   1.119   8.653   2.180 -0.1671  0.8766 -0.0010
 1377SOL    HW114170   1.175   8.728   2.215 -1.3781  1.1801  1.3289
 1377SOL    HW214171   1.029   8.655   2.224 -0.9777 -0.0432 -1.5585
 1378SOL     OW14172   9.416   2.108   1.695 -0.0175  0.2920 -0.0569
 1378SOL    HW114173   9.320   2.132   1.687 -0.2494 -0.8794 -0.9076
 1378SOL    HW214174   9.428   2.011   1.676  1.1574  0.1257  1.4300
 1379SOL     OW14175   4.787   2.199   1.389  0.8298  0.0452  0.5901
 1379SOL    HW114176   4.832   2.179   1.302 -0.5393  1.2502 -0.4052
 1379SOL    HW214177   4.808   2.293   1.417  0.9180 -0.1963  1.3474
 1380SOL     OW14178   2.108   0.959   1.042 -0.1631 -0.1594 -0.0103
 1380SOL    HW114179   2.009   0.959   1.031  0.0141  0.0916 -1.7750
 1380SOL    HW214180   2.146   0.878   0.999  0.6337  1.1514 -1.8358
 1381SOL     OW14181   2.778   4.895   2.658 -0.0830 -0.3570 -0.7622
 1381SOL    HW114182   2.709   4.890   2.585 -1.0243 -0.0670  0.0928
 1381SOL    HW214183   2.860   4.845   2.630 -0.1524  0.3792 -2.3232
 1382SOL     OW14184   2.155   6.411   1.476 -0.1371 -1.0342  0.0238
 1382SOL    HW114185   2.119   6.318   1.478 -2.8835 -0.0897 -1.8405
 1382SOL    HW214186   2.160   6.443   1.381 -1.3920  1.4712  0.7513
 1383SOL     OW14187   4.385   4.425   2.287 -0.6560  0.3736  0.4588
 1383SOL    HW114188   4.355   4.391   2.376 -1.2355 -0.5127 -0.0726
 1383SOL    HW214189   4.322   4.497   2.256 -0.2820  0.8947  0.8952
 1384SOL     OW14190   2.638   2.752   2.025  0.5759  0.4608  0.0346
 1384SOL    HW114191   2.681   2.704   1.949 -0.4416  1.7972 -1.4244
 1384SOL    HW214192   2.654   2.851   2.015 -1.9610  0.9018 -0.0258
 1385SOL     OW14193  10.383   5.027   1.817 -0.0404  0.3633 -0.1192
 1385SOL    HW114194  10.445   4.990   1.748  0.6760 -0.0784  0.7497
 1385SOL    HW214195  10.290   4.996   1.798  0.0989  0.4886 -1.0521
 1386SOL     OW14196   1.222   2.439   0.309  0.1174 -0.5139 -0.7956
 1386SOL    HW114197   1.129   2.443   0.273 -0.2349  0.5966  0.1698
 1386SOL    HW214198   1.218   2.428   0.409  1.0215 -0.7813 -0.7874
 1387SOL     OW14199   1.750   5.383   0.109  0.1833  0.0920  0.0420
 1387SOL    HW114200   1.786   5.428   0.028 -0.5176  1.1124  0.2904
 1387SOL    HW214201   1.813   5.311   0.138  0.2908 -0.4663 -1.5627
 1388SOL     OW14202   1.876   1.717   2.705 -0.3766 -0.6331 -0.2135
 1388SOL    HW114203   1.939   1.679   2.773 -0.9300 -1.4850 -0.1795
 1388SOL    HW214204   1.874   1.817   2.715  1.9476 -0.4785 -1.0603
 1389SOL     OW14205  10.353   4.584   2.138 -0.1957  0.2036 -0.0394
 1389SOL    HW114206  10.298   4.668   2.139 -0.5730  0.0281 -2.2409
 1389SOL    HW214207  10.382   4.565   2.044  1.4092 -1.1616  0.7042
 1390SOL     OW14208   2.620   1.829   0.169 -0.0848  0.0194 -0.2504
 1390SOL    HW114209   2.567   1.836   0.254  0.4160 -3.1469  0.3949
 1390SOL    HW214210   2.565   1.783   0.099  0.8717 -0.9559 -0.3758
 1391SOL     OW14211   3.327   1.462   0.672 -0.3918 -0.0371  0.1077
 1391SOL    HW114212   3.243   1.415   0.643 -0.4534  0.2561 -0.1873
 1391SOL    HW214213   3.329   1.468   0.772 -0.2632 -0.8979  0.1684
 1392SOL     OW14214   1.579  10.040   0.685  0.2510  0.5937  0.1079
 1392SOL    HW114215   1.571  10.086   0.597  1.1928  0.5514 -0.0101
 1392SOL    HW214216   1.622   9.950   0.671  0.6828  0.7190  0.6474
 1393SOL     OW14217   0.973   5.389   0.981  0.7091 -0.3380 -0.2478
 1393SOL    HW114218   1.025   5.304   0.990  0.6854 -0.3929 -0.5907
 1393SOL    HW214219   0.942   5.420   1.071 -0.5077 -1.4635 -0.2598
 1394SOL     OW14220   3.415   4.052   2.007  0.0097  0.1712 -0.4513
 1394SOL    HW114221   3.417   4.126   1.939  0.7138 -1.2489 -2.0460
 1394SOL    HW214222   3.486   3.984   1.983  0.9014  0.1066  2.2633
 1395SOL     OW14223   4.139   4.250   0.724  0.3351 -0.1319 -0.3312
 1395SOL    HW114224   4.155   4.348   0.726  0.9574 -0.2374  1.1931
 1395SOL    HW214225   4.062   4.228   0.783  0.9474 -0.6685  0.2863
 1396SOL     OW14226   1.387   2.261   2.378  0.4996 -0.3806 -0.5149
 1396SOL    HW114227   1.353   2.327   2.444 -0.6668 -1.5302  0.0448
 1396SOL    HW214228   1.311   2.219   2.330  1.3175  0.1292 -2.3106
 1397SOL     OW14229   1.683  10.115   2.548  0.3208  0.1325 -0.6470
 1397SOL    HW114230   1.600  10.138   2.598  0.6733  0.2909 -0.1321
 1397SOL    HW214231   1.679  10.019   2.520  1.2453 -0.7069  1.9416
 1398SOL     OW14232   9.446   2.608   0.969  0.1334  0.5258  0.6643
 1398SOL    HW114233   9.426   2.584   1.064  0.8095  0.1015  0.7043
 1398SOL    HW214234   9.525   2.556   0.937  0.6379  1.5318  0.2366
 1399SOL     OW14235   2.229  10.344   0.396  0.7388  0.1307 -0.9673
 1399SOL    HW114236   2.174  10.393   0.464  1.7312  0.2347 -0.2363
 1399SOL    HW214237   2.171  10.277   0.349  0.1493 -0.2628  0.3015
 1400SOL     OW14238   2.506   0.969   1.157 -0.8387 -0.0325 -0.0015
 1400SOL    HW114239   2.603   0.961   1.178 -0.8898  1.6542  0.8986
 1400SOL    HW214240   2.492   0.949   1.059  0.2599 -1.2391  0.0682
 1401SOL     OW14241   1.612   5.338   2.109  0.5600  0.3297 -0.1899
 1401SOL    HW114242   1.636   5.289   2.025 -0.0053 -0.7388  0.2663
 1401SOL    HW214243   1.643   5.433   2.102 -0.4054  0.5228 -2.0117
 1402SOL     OW14244   1.071   8.177   0.620  0.1596 -0.6621  0.3856
 1402SOL    HW114245   1.131   8.137   0.689 -0.3192  0.8080  1.6991
 1402SOL    HW214246   1.106   8.268   0.595 -0.0623 -0.8951 -0.7964
 1403SOL     OW14247   1.954   6.159   2.380 -0.2865 -0.1182  0.6046
 1403SOL    HW114248   1.995   6.245   2.409 -0.5466  0.2957 -0.2378
 1403SOL    HW214249   1.877   6.137   2.440 -0.1348  0.1664  0.9055
 1404SOL     OW14250   2.246   7.878   0.782 -0.3981  0.0144 -0.4015
 1404SOL    HW114251   2.199   7.803   0.734 -0.2346  0.5816 -1.4600
 1404SOL    HW214252   2.303   7.840   0.855 -0.7993 -0.8444 -0.5305
 1405SOL     OW14253   1.299   3.003   2.290 -0.3569 -0.1743 -0.1504
 1405SOL    HW114254   1.389   2.964   2.311 -0.1310  0.1866 -0.4527
 1405SOL    HW214255   1.306   3.064   2.212 -0.8395 -0.0295 -0.0829
 1406SOL     OW14256   5.067   2.759   1.249  0.1770  0.0598  0.5301
 1406SOL    HW114257   5.088   2.756   1.151 -0.8077  0.3261  0.3071
 1406SOL    HW214258   5.061   2.855   1.279 -0.3857 -0.0180  0.6636
 1407SOL     OW14259   4.501   3.233   0.745 -0.1684  0.1580 -0.7575
 1407SOL    HW114260   4.442   3.275   0.814 -0.8811 -0.9674 -0.6680
 1407SOL    HW214261   4.596   3.233   0.778 -0.8190 -2.5173  1.2994
 1408SOL     OW14262   1.810   6.917   1.133  0.6804  0.2185  0.5440
 1408SOL    HW114263   1.721   6.872   1.136  1.2625 -0.9116  1.2652
 1408SOL    HW214264   1.874   6.861   1.081  1.3870  0.2469  1.3742
 1409SOL     OW14265   5.048   3.044   1.185  0.2346  0.3562 -0.4583
 1409SOL    HW114266   5.062   3.084   1.095 -0.7336 -1.0711 -1.2512
 1409SOL    HW214267   4.956   3.066   1.218  0.2561  0.0997 -0.2191
 1410SOL     OW14268   4.754   2.771   1.205  0.3056  0.2479  0.6184
 1410SOL    HW114269   4.763   2.803   1.110 -1.0930  1.2975  0.8254
 1410SOL    HW214270   4.796   2.681   1.213  0.6257  0.2312 -0.9537
 1411SOL     OW14271   3.881   8.904   1.072 -0.2860  0.1119 -0.0114
 1411SOL    HW114272   3.880   9.004   1.064 -1.3565  0.1260  0.1804
 1411SOL    HW214273   3.792   8.873   1.107 -0.1672 -0.9579 -0.6445
 1412SOL     OW14274   1.289   7.543   2.230  0.6418 -0.1465 -0.3390
 1412SOL    HW114275   1.296   7.497   2.142 -2.3976  2.0090 -1.8056
 1412SOL    HW214276   1.226   7.493   2.289  3.4183 -2.1296  1.0596
 1413SOL     OW14277   1.248   5.228   2.319  0.2359  0.2940 -0.3517
 1413SOL    HW114278   1.166   5.273   2.356  0.7213  0.5120  0.4653
 1413SOL    HW214279   1.290   5.287   2.251  0.3698  0.6937  0.0764
 1414SOL     OW14280   2.411   5.300   0.568  0.5248 -0.2079 -0.3963
 1414SOL    HW114281   2.503   5.334   0.586  0.2217  0.1319  0.5819
 1414SOL    HW214282   2.387   5.230   0.636 -0.6498  1.0930  0.5727
 1415SOL     OW14283   1.223   0.875   2.006  0.2766  0.3252 -0.1588
 1415SOL    HW114284   1.273   0.900   2.089  0.1399 -0.9298  0.3186
 1415SOL    HW214285   1.166   0.795   2.024  0.6643 -0.3032 -1.6175
 1416SOL     OW14286   3.370   1.456   0.945 -0.0267  0.0469 -0.0784
 1416SOL    HW114287   3.292   1.513   0.972  0.6299  1.3057 -0.7873
 1416SOL    HW214288   3.365   1.368   0.992 -1.5524  0.3440  0.3364
 1417SOL     OW14289   1.681   8.710   0.969 -0.0187  0.1976  0.6653
 1417SOL    HW114290   1.725   8.643   1.029 -0.2002 -1.4453 -0.9970
 1417SOL    HW214291   1.582   8.704   0.979 -0.1284 -1.2856 -1.0068
 1418SOL     OW14292  10.153   1.785   0.129  0.0564 -0.7785 -0.2110
 1418SOL    HW114293  10.179   1.767   0.224  0.0332  0.2030 -0.0122
 1418SOL    HW214294  10.190   1.873   0.100  0.8074 -1.4639 -1.4003
 1419SOL     OW14295   0.906   4.729   2.526 -0.3234 -0.6760  0.1246
 1419SOL    HW114296   0.878   4.763   2.616 -1.4363 -0.7006 -0.2149
 1419SOL    HW214297   0.857   4.644   2.506 -1.6522  0.4433 -1.4245
 1420SOL     OW14298   3.106   5.472   1.453 -0.4603 -0.1187  0.4562
 1420SOL    HW114299   3.175   5.539   1.480 -1.8953  1.4529  0.3013
 1420SOL    HW214300   3.039   5.462   1.526 -0.8536 -0.5820  0.0310
 1421SOL     OW14301   2.768   8.791   2.282  0.6620 -0.2031 -0.6473
 1421SOL    HW114302   2.754   8.770   2.185 -1.4478  0.6174 -0.5424
 1421SOL    HW214303   2.817   8.877   2.290 -1.2158  0.9158 -0.9842
 1422SOL     OW14304   3.504   9.876   2.302 -0.0129 -0.2752 -0.4570
 1422SOL    HW114305   3.482   9.959   2.251 -1.5908 -1.4604 -1.7551
 1422SOL    HW214306   3.490   9.796   2.243  0.4227 -1.5352  1.1187
 1423SOL     OW14307   1.462   2.808   1.927 -0.0624 -0.2364  0.2805
 1423SOL    HW114308   1.365   2.828   1.943  0.2151  0.7479  0.8027
 1423SOL    HW214309   1.502   2.879   1.869  0.0735 -1.2796 -0.9275
 1424SOL     OW14310   1.444   7.784   2.298  0.4775  0.3475  0.1638
 1424SOL    HW114311   1.391   7.700   2.294  0.1403  0.4907  1.4932
 1424SOL    HW214312   1.387   7.858   2.333  1.1791  0.8147  0.3362
 1425SOL     OW14313   9.564   4.621   2.482 -0.2775  0.2397 -0.1348
 1425SOL    HW114314   9.576   4.690   2.410 -0.3055 -0.4741 -0.8341
 1425SOL    HW214315   9.469   4.619   2.511  0.2256  2.3199  1.7563
 1426SOL     OW14316   3.769  10.239   1.304 -0.1440 -0.0404  0.1832
 1426SOL    HW114317   3.724  10.326   1.285  0.6320  0.1895 -0.6653
 1426SOL    HW214318   3.809  10.241   1.395 -2.4704 -0.5192  1.2339
 1427SOL     OW14319   1.095   8.367   1.808  0.6063  0.0106 -0.1506
 1427SOL    HW114320   1.119   8.404   1.719  0.0406  1.0954  0.1460
 1427SOL    HW214321   1.124   8.430   1.880  1.1752 -0.9185  0.4378
 1428SOL     OW14322   1.455   5.745   2.168 -0.1953 -0.0266 -0.4477
 1428SOL    HW114323   1.442   5.692   2.252  0.3341  1.9503  0.9339
 1428SOL    HW214324   1.366   5.773   2.133 -0.4124 -0.6632 -0.4196
 1429SOL     OW14325   0.733   5.187   0.389  0.4476  0.0478  0.8704
 1429SOL    HW114326   0.767   5.139   0.308  0.8198  1.1344  0.3829
 1429SOL    HW214327   0.807   5.200   0.455  0.4619  0.4101  0.7831
 1430SOL     OW14328  10.330   3.431   2.418 -0.5295  0.3156 -0.2851
 1430SOL    HW114329  10.393   3.368   2.464 -0.3068  1.0070  0.3686
 1430SOL    HW214330  10.289   3.385   2.339 -1.0329 -0.9296  0.6927
 1431SOL     OW14331   0.907   3.952   2.615  0.3736  0.2021  0.0003
 1431SOL    HW114332   0.816   3.976   2.580 -0.5490 -1.3093  1.2858
 1431SOL    HW214333   0.941   3.872   2.566  1.0807  0.8234 -0.5470
 1432SOL     OW14334   1.687   4.099   1.663 -0.4528  0.4459 -0.4111
 1432SOL    HW114335   1.756   4.036   1.698  0.1587  1.7058  0.7155
 1432SOL    HW214336   1.605   4.049   1.637 -0.0668 -0.7810  0.7089
 1433SOL     OW14337   2.279   2.822   0.875  0.3142  0.3290  0.1044
 1433SOL    HW114338   2.227   2.757   0.820  1.2741 -0.9260  0.6525
 1433SOL    HW214339   2.227   2.907   0.884 -1.8917 -1.0863  1.1083
 1434SOL     OW14340   2.399   9.080   0.208 -0.1036 -0.1843 -0.1958
 1434SOL    HW114341   2.379   9.014   0.136  1.0217 -0.3605 -0.3455
 1434SOL    HW214342   2.487   9.059   0.250 -1.1847 -0.6719  1.9050
 1435SOL     OW14343   1.586   7.739   1.794 -0.2381 -0.7745 -0.5247
 1435SOL    HW114344   1.681   7.769   1.798 -0.6553  0.4914  0.6898
 1435SOL    HW214345   1.535   7.783   1.868 -1.3736 -2.8706 -0.0422
 1436SOL     OW14346   1.823   7.804   0.198 -0.1707  0.7672  0.1303
 1436SOL    HW114347   1.788   7.789   0.291 -1.7175 -1.0424 -0.7132
 1436SOL    HW214348   1.793   7.894   0.166 -0.9282  0.7736  0.8242
 1437SOL     OW14349   3.711   7.743   0.880 -0.1425  0.3507 -0.0496
 1437SOL    HW114350   3.743   7.717   0.971 -1.7753  1.4216  0.8681
 1437SOL    HW214351   3.712   7.662   0.820  1.6978 -0.1892  0.6676
 1438SOL     OW14352   4.070   9.844   0.901  0.1602  0.3542  0.5795
 1438SOL    HW114353   3.987   9.813   0.854  1.8101 -1.1322 -1.4831
 1438SOL    HW214354   4.123   9.764   0.930  1.7991  1.2708  0.1542
 1439SOL     OW14355   0.718   1.069   1.855 -0.6428  0.1778  0.2635
 1439SOL    HW114356   0.652   1.019   1.910  0.8139 -1.8839  0.1921
 1439SOL    HW214357   0.742   1.155   1.902 -3.3301  0.9765  0.2642
 1440SOL     OW14358   1.660   6.138   0.542 -0.0419  0.2146  0.3777
 1440SOL    HW114359   1.741   6.149   0.600  0.7112 -0.4386 -0.5520
 1440SOL    HW214360   1.639   6.225   0.497  2.4281 -0.5558 -2.3686
 1441SOL     OW14361   1.436   6.534   1.542  0.0618 -0.2347 -0.1374
 1441SOL    HW114362   1.408   6.599   1.613 -0.6630  1.0291 -1.5286
 1441SOL    HW214363   1.354   6.501   1.494  0.3770 -2.6696  0.9514
 1442SOL     OW14364   3.556   3.826   2.000 -0.4946  0.3802 -0.0879
 1442SOL    HW114365   3.542   3.774   2.084  0.3195 -0.4694 -0.4749
 1442SOL    HW214366   3.579   3.764   1.925 -0.0935  1.2359 -0.6857
 1443SOL     OW14367   3.486   0.920   1.620 -0.4152 -0.0308  0.3823
 1443SOL    HW114368   3.523   0.835   1.583 -2.4024 -0.7798  0.0859
 1443SOL    HW214369   3.415   0.955   1.559 -1.8160  0.1569  2.0603
 1444SOL     OW14370  10.558   5.583   2.070  0.0977  0.3607  0.1994
 1444SOL    HW114371  10.464   5.611   2.087  0.0467  0.4830 -0.2841
 1444SOL    HW214372  10.560   5.489   2.038  0.1896  0.1517  0.8100
 1445SOL     OW14373   9.178   4.613   0.467  0.2273 -0.3223 -0.5728
 1445SOL    HW114374   9.093   4.619   0.415  0.6934 -1.5430 -1.5099
 1445SOL    HW214375   9.199   4.702   0.508 -0.2420  0.6119 -2.3347
 1446SOL     OW14376   9.815   5.702   0.782 -0.5342  0.6333  0.0324
 1446SOL    HW114377   9.791   5.672   0.690 -0.7149  2.2407 -0.4705
 1446SOL    HW214378   9.768   5.788   0.802  0.1844  0.7431  1.2920
 1447SOL     OW14379   4.202   0.743   1.228 -0.4135 -0.3878  0.0743
 1447SOL    HW114380   4.272   0.810   1.200  0.2873 -1.4251 -0.7035
 1447SOL    HW214381   4.114   0.789   1.237 -0.1859  0.4346 -1.6466
 1448SOL     OW14382  10.225   1.161   1.515 -0.0595 -0.5827 -0.0125
 1448SOL    HW114383  10.244   1.078   1.567  2.1017  1.1275  2.0174
 1448SOL    HW214384  10.236   1.241   1.574 -0.1719  1.2782 -2.4275
 1449SOL     OW14385   4.565   2.278   1.956 -0.7961 -0.6442 -0.3737
 1449SOL    HW114386   4.513   2.250   1.875  1.4631 -1.6170 -1.5570
 1449SOL    HW214387   4.636   2.210   1.975  0.6320  1.0627  0.6361
 1450SOL     OW14388   1.707   4.746   1.451  0.3970  0.0506  0.5400
 1450SOL    HW114389   1.671   4.834   1.482  1.5857  0.9985 -0.7087
 1450SOL    HW214390   1.801   4.735   1.483 -0.5583 -1.9176  2.8365
 1451SOL     OW14391   1.791   8.064   0.107  0.7581  0.0434  0.1765
 1451SOL    HW114392   1.880   8.110   0.115 -0.1325  1.9247 -0.5161
 1451SOL    HW214393   1.718   8.132   0.107 -0.6911 -1.4801  0.5643
 1452SOL     OW14394   5.108   4.482   0.522 -0.6703 -0.2912 -0.2965
 1452SOL    HW114395   5.029   4.538   0.549 -0.3238  0.0601  0.0011
 1452SOL    HW214396   5.155   4.449   0.604 -0.7390 -0.8250 -0.4754
 1453SOL     OW14397   0.771   0.774   0.597 -0.5211  0.6712 -0.3014
 1453SOL    HW114398   0.762   0.677   0.621 -1.3422  0.7824 -0.1412
 1453SOL    HW214399   0.734   0.830   0.671 -0.2348  1.1040 -0.4831
 1454SOL     OW14400   3.021   4.411   1.579 -0.1303 -0.2790  0.2542
 1454SOL    HW114401   3.064   4.372   1.660  0.6842  0.5430  0.2245
 1454SOL    HW214402   3.048   4.507   1.570  1.1470 -0.7950 -1.8925
 1455SOL     OW14403   2.792   1.173   1.294  0.2652 -0.2346 -0.0969
 1455SOL    HW114404   2.707   1.226   1.290  0.4317  0.1536  1.2368
 1455SOL    HW214405   2.778   1.084   1.251 -0.6702  0.0105 -0.3122
 1456SOL     OW14406   2.634   2.135   0.748  0.7496  0.0624  0.5482
 1456SOL    HW114407   2.567   2.061   0.757  0.2483  0.3950 -0.3681
 1456SOL    HW214408   2.723   2.096   0.725  0.5522 -0.2802  0.3480
 1457SOL     OW14409   2.797   6.703   2.113 -0.4384  0.1332  0.2633
 1457SOL    HW114410   2.750   6.786   2.082 -0.0658 -0.3063 -1.5152
 1457SOL    HW214411   2.894   6.723   2.125  0.1764 -0.7574 -2.9771
 1458SOL     OW14412   1.081   1.993   1.326  0.2763 -0.2653 -0.1056
 1458SOL    HW114413   1.102   2.011   1.422  0.5169 -2.1256  0.2096
 1458SOL    HW214414   0.983   2.007   1.310  0.3219  0.5329  0.2835
 1459SOL     OW14415   2.572   3.214   2.160 -0.6383 -0.0440  0.2651
 1459SOL    HW114416   2.652   3.249   2.208 -0.5058  1.7228 -1.1842
 1459SOL    HW214417   2.499   3.282   2.162 -1.8676 -1.3544  0.9512
 1460SOL     OW14418   9.283   4.700   1.300  0.6878  0.2056  0.2935
 1460SOL    HW114419   9.200   4.657   1.264  0.7909  1.4676 -1.5103
 1460SOL    HW214420   9.362   4.670   1.246  1.0658  0.9579  0.4260
 1461SOL     OW14421   2.614   5.066   0.180 -0.4321  0.1612 -0.1101
 1461SOL    HW114422   2.665   5.142   0.220  0.1141  0.5104 -1.4190
 1461SOL    HW214423   2.678   4.995   0.151 -0.6182  0.7722 -2.1194
 1462SOL     OW14424   2.509   6.029   1.422  0.4994  0.3026  0.3285
 1462SOL    HW114425   2.464   5.947   1.457 -1.7464  1.1176 -0.5702
 1462SOL    HW214426   2.447   6.077   1.359  1.0037  3.7349  2.3475
 1463SOL     OW14427   4.023   9.978   1.447  0.0175  0.6821  0.8842
 1463SOL    HW114428   4.087  10.006   1.375 -0.1140 -2.6920 -0.6522
 1463SOL    HW214429   3.963  10.054   1.469  2.0712  2.7417 -0.3603
 1464SOL     OW14430   2.621   3.125   2.663 -0.4344 -0.0424 -0.0769
 1464SOL    HW114431   2.550   3.102   2.729 -1.3953 -0.9295 -1.4135
 1464SOL    HW214432   2.672   3.043   2.639 -0.3350  0.2074 -0.7240
 1465SOL     OW14433   4.005   2.406   1.646  0.0256  0.1102 -0.0365
 1465SOL    HW114434   3.951   2.327   1.674  0.7701 -0.1610  0.6561
 1465SOL    HW214435   4.102   2.386   1.660  0.3489  0.4358 -1.6248
 1466SOL     OW14436   9.982   5.122   1.907 -0.0957 -0.0150 -0.0070
 1466SOL    HW114437  10.040   5.053   1.863 -1.7182 -1.8621  0.6723
 1466SOL    HW214438   9.887   5.106   1.882 -0.4768  2.1736 -0.0519
 1467SOL     OW14439   2.937  10.512   1.446 -0.1287  0.3371 -0.1326
 1467SOL    HW114440   2.852  10.460   1.438 -0.8432  1.5050 -0.3367
 1467SOL    HW214441   2.965  10.516   1.541 -0.3291 -0.0216 -0.0577
 1468SOL     OW14442   0.604   1.562   0.338  0.4091 -0.0240  0.4070
 1468SOL    HW114443   0.536   1.568   0.264  0.2469 -1.1883  0.4495
 1468SOL    HW214444   0.609   1.649   0.386 -0.8681  0.1541  0.2262
 1469SOL     OW14445   1.714   9.382   1.112  0.3797 -0.0180 -0.1105
 1469SOL    HW114446   1.743   9.346   1.024 -0.9072  1.0131 -0.9778
 1469SOL    HW214447   1.619   9.412   1.106  0.9562  2.1040  1.0000
 1470SOL     OW14448   4.243   3.268   2.365 -0.3211  0.1862  0.3851
 1470SOL    HW114449   4.262   3.312   2.453 -0.9975  1.5061 -0.1187
 1470SOL    HW214450   4.144   3.254   2.356 -0.1903 -0.6328  0.1430
 1471SOL     OW14451   4.394   4.038   2.139 -0.6847  0.0673  0.3204
 1471SOL    HW114452   4.405   4.005   2.233 -0.2812  0.4158  0.3930
 1471SOL    HW214453   4.323   4.108   2.136 -0.3532  0.4130  0.4516
 1472SOL     OW14454   1.648   2.242   2.194 -0.4782 -0.5868 -1.3055
 1472SOL    HW114455   1.645   2.145   2.171 -2.0536 -0.6586 -0.9199
 1472SOL    HW214456   1.592   2.258   2.276  1.0864  0.3929 -0.4143
 1473SOL     OW14457   2.310   3.706   2.345  0.2415  0.2206  0.0995
 1473SOL    HW114458   2.298   3.666   2.253  0.3340 -0.9405  0.5809
 1473SOL    HW214459   2.251   3.787   2.354 -2.7496 -1.8873  0.3332
 1474SOL     OW14460   1.183   0.857   0.134 -0.0564  0.3970  0.1424
 1474SOL    HW114461   1.179   0.846   0.234 -0.2036  0.4498  0.1424
 1474SOL    HW214462   1.147   0.775   0.090  1.4275 -0.2407  0.1214
 1475SOL     OW14463  10.196   0.826   1.383 -0.2203 -0.1241  0.0087
 1475SOL    HW114464  10.257   0.886   1.332 -1.2272  1.8410  1.0612
 1475SOL    HW214465  10.208   0.732   1.352  0.9689  0.6893 -2.0953
 1476SOL     OW14466   1.994   8.588   0.598 -0.8541 -0.0158 -0.3446
 1476SOL    HW114467   1.905   8.610   0.638 -1.0964 -0.8366 -0.4144
 1476SOL    HW214468   2.017   8.493   0.619  1.5037  1.1108  2.4422
 1477SOL     OW14469   2.242   1.990   1.098  0.0959 -0.3534 -0.4006
 1477SOL    HW114470   2.338   2.016   1.110 -0.0077  0.3285 -0.9607
 1477SOL    HW214471   2.186   2.041   1.163  0.0124 -0.0103 -0.7388
 1478SOL     OW14472   4.022   1.902   0.572  0.2749 -0.0745 -0.9185
 1478SOL    HW114473   3.942   1.856   0.610  0.2808 -0.9264 -1.8809
 1478SOL    HW214474   3.996   1.949   0.487  1.0878 -1.6742 -2.0894
 1479SOL     OW14475   0.943   7.610   2.265 -0.3349 -0.0838  0.0353
 1479SOL    HW114476   0.946   7.528   2.209  0.0415  1.0185 -1.5773
 1479SOL    HW214477   0.932   7.691   2.207 -0.3896  1.0507  1.5703
 1480SOL     OW14478   3.263   2.319   2.584 -0.2158 -0.1532 -0.1138
 1480SOL    HW114479   3.347   2.307   2.531 -1.2075 -0.4459 -1.6339
 1480SOL    HW214480   3.284   2.309   2.682  1.0039 -3.1927 -0.6319
 1481SOL     OW14481   0.975   7.687   0.179 -0.6849  0.1990  0.3506
 1481SOL    HW114482   0.908   7.636   0.125 -0.4878 -1.8029  1.9510
 1481SOL    HW214483   0.990   7.641   0.267  1.5085  1.5671  0.7392
 1482SOL     OW14484   1.268  10.092   2.202  0.6062  0.0868  0.5849
 1482SOL    HW114485   1.237  10.114   2.295  1.9482  1.2233  0.7853
 1482SOL    HW214486   1.246   9.997   2.180 -1.2835  0.3183  1.4144
 1483SOL     OW14487   2.380   3.388   2.212  0.6280  0.6218  0.3925
 1483SOL    HW114488   2.328   3.411   2.295  0.1396 -0.6862  0.4493
 1483SOL    HW214489   2.389   3.470   2.155  1.3415  1.6419  1.9330
 1484SOL     OW14490  10.445   3.476   1.033 -0.0551 -0.5922  0.6891
 1484SOL    HW114491  10.349   3.499   1.021  0.6501  2.7756  0.9425
 1484SOL    HW214492  10.454   3.378   1.048 -3.3855 -1.0320  0.2805
 1485SOL     OW14493   3.693   1.701   1.917 -0.2972  0.1121 -0.0663
 1485SOL    HW114494   3.612   1.645   1.929  0.1511 -0.5881 -0.2723
 1485SOL    HW214495   3.774   1.642   1.908  0.4267  0.8299  1.5694
 1486SOL     OW14496   4.425   4.596   0.908 -0.7680 -0.5418 -0.1490
 1486SOL    HW114497   4.520   4.564   0.904 -1.0716 -1.3721 -0.8034
 1486SOL    HW214498   4.405   4.629   1.001 -0.0208 -0.9160  0.1486
 1487SOL     OW14499   1.647   1.948   2.559  0.3689 -0.6523  0.0401
 1487SOL    HW114500   1.721   1.979   2.618 -1.0768 -0.4982  1.8082
 1487SOL    HW214501   1.567   1.926   2.614 -1.2537  0.1750 -1.9121
 1488SOL     OW14502   3.333   8.203   0.604 -0.1426  0.1959  0.5351
 1488SOL    HW114503   3.430   8.209   0.626 -0.1507 -1.5054  1.1152
 1488SOL    HW214504   3.311   8.110   0.573 -1.3222  0.9265 -0.9079
 1489SOL     OW14505   2.165   1.134   2.379  0.5980  0.3222 -0.1813
 1489SOL    HW114506   2.214   1.212   2.339  0.6558  0.1280 -0.4908
 1489SOL    HW214507   2.212   1.103   2.461  1.0490  0.0685 -0.5370
 1490SOL     OW14508   1.423   5.862   0.869  0.7928 -0.0268 -0.2814
 1490SOL    HW114509   1.374   5.830   0.788 -0.6359  1.2335  0.0563
 1490SOL    HW214510   1.399   5.805   0.948 -0.4229  0.7825 -0.0470
 1491SOL     OW14511   2.622   5.880   1.703  0.1939  0.2079 -0.2646
 1491SOL    HW114512   2.709   5.850   1.664  0.3073  0.5937 -0.3141
 1491SOL    HW214513   2.547   5.834   1.655  0.3030  1.2508 -1.4751
 1492SOL     OW14514   1.482  10.581   1.503  0.4431 -0.2268 -0.2244
 1492SOL    HW114515   1.383  10.574   1.486  0.1524 -0.3317  1.4229
 1492SOL    HW214516   1.499  10.650   1.574  1.6132  0.2700 -0.9785
 1493SOL     OW14517   4.955   1.983   2.292 -0.2045 -0.1472 -0.1744
 1493SOL    HW114518   4.929   1.961   2.386 -1.0751 -0.3058 -0.4533
 1493SOL    HW214519   4.920   2.074   2.269  1.9878  0.8987  0.4257
 1494SOL     OW14520  10.151   3.830   1.813  0.5762 -0.5889  0.1770
 1494SOL    HW114521  10.218   3.801   1.744 -1.2003 -2.7368 -0.6635
 1494SOL    HW214522  10.118   3.751   1.863 -2.4027  0.2588 -0.3785
 1495SOL     OW14523   1.224   8.339   0.386  0.2654  0.7615  0.2342
 1495SOL    HW114524   1.290   8.367   0.317 -0.0702 -0.7863 -0.7556
 1495SOL    HW214525   1.131   8.362   0.355  0.1673  0.7552  0.5188
 1496SOL     OW14526  10.142   4.658   2.593 -0.1146 -0.6934 -0.3289
 1496SOL    HW114527  10.230   4.689   2.556  1.1653 -1.5341  1.8863
 1496SOL    HW214528  10.092   4.736   2.629 -1.4446  0.1650 -3.8101
 1497SOL     OW14529   2.190   2.882   2.523  0.0404 -0.0912  0.1647
 1497SOL    HW114530   2.129   2.935   2.463  1.4253  0.7575 -0.5112
 1497SOL    HW214531   2.195   2.925   2.613 -0.8046 -0.4966  0.4179
 1498SOL     OW14532   3.120   9.906   1.962  0.1208 -0.0127  0.0344
 1498SOL    HW114533   3.085   9.904   2.055 -1.8954  3.7608 -0.5278
 1498SOL    HW214534   3.069   9.841   1.906 -0.4663 -0.3760  0.9756
 1499SOL     OW14535   2.953  10.539   1.701  0.3390  0.4389  0.0212
 1499SOL    HW114536   2.875  10.565   1.758  1.5196  3.1107  0.5050
 1499SOL    HW214537   3.027  10.507   1.759 -0.2357 -1.7644 -0.4164
 1500SOL     OW14538   1.898   7.533   2.272  0.6593  0.1324 -0.0721
 1500SOL    HW114539   1.992   7.500   2.261  0.5286 -0.0853 -0.5455
 1500SOL    HW214540   1.887   7.618   2.221  0.8063  0.5576  0.5957
 1501SOL     OW14541   9.222   3.020   0.854 -0.1326  0.6411  0.0607
 1501SOL    HW114542   9.218   3.046   0.758  3.0501  1.3206  0.0862
 1501SOL    HW214543   9.205   3.100   0.911  1.7319  1.0492  0.0698
 1502SOL     OW14544   1.092   9.576   0.117  0.3529  0.2128 -0.6407
 1502SOL    HW114545   1.086   9.476   0.116 -0.0376  0.2411 -1.6350
 1502SOL    HW214546   1.144   9.607   0.036  1.2263  0.7684  0.1221
 1503SOL     OW14547   1.829   8.211   0.825 -0.0155  0.5279  0.8613
 1503SOL    HW114548   1.791   8.288   0.876 -1.7738  1.3195 -1.5426
 1503SOL    HW214549   1.764   8.183   0.753  0.9265 -2.6803  1.1592
 1504SOL     OW14550   1.673   6.335   1.517  0.6188  0.0447  0.2246
 1504SOL    HW114551   1.729   6.381   1.448  0.7981 -1.6545 -0.7950
 1504SOL    HW214552   1.591   6.390   1.536  1.3475  1.2913 -0.1587
 1505SOL     OW14553   2.846   4.157   0.928  0.5617 -0.4297 -0.2972
 1505SOL    HW114554   2.749   4.173   0.911  0.6881  0.0652 -0.5739
 1505SOL    HW214555   2.886   4.238   0.972  0.2606 -1.6434  2.2591
 1506SOL     OW14556   2.638  10.278   1.799 -0.7198  0.6033 -0.2178
 1506SOL    HW114557   2.738  10.277   1.804 -0.6548  0.0903 -1.3321
 1506SOL    HW214558   2.600  10.286   1.890  0.3009 -3.1140  0.6238
 1507SOL     OW14559   3.019   3.606   1.398  0.3395  0.1604 -0.2241
 1507SOL    HW114560   2.948   3.613   1.469  0.9398 -0.4880  0.4477
 1507SOL    HW214561   3.109   3.602   1.442  0.7319  0.0337 -1.0404
 1508SOL     OW14562   1.358   4.316   0.734 -0.3004  0.5184 -0.0617
 1508SOL    HW114563   1.427   4.258   0.692  0.7064  0.5129  1.5538
 1508SOL    HW214564   1.380   4.412   0.718  0.7433  0.5435  1.4429
 1509SOL     OW14565   1.398   5.692   1.087 -0.1462  0.3416  0.0021
 1509SOL    HW114566   1.347   5.756   1.144 -1.3499 -0.2807 -0.3471
 1509SOL    HW214567   1.430   5.616   1.143  0.7145  0.9137  0.2914
 1510SOL     OW14568   1.693   1.724   0.819 -0.0956  0.4206  0.1145
 1510SOL    HW114569   1.679   1.721   0.720  1.4768  3.7846 -0.2996
 1510SOL    HW214570   1.784   1.688   0.840 -0.4050 -0.2336  0.3404
 1511SOL     OW14571   9.851   2.343   1.999  0.2392  0.2692  0.0706
 1511SOL    HW114572   9.913   2.281   2.049 -1.4050  0.5580  2.5603
 1511SOL    HW214573   9.768   2.293   1.974 -0.2067  0.9115  0.2655
 1512SOL     OW14574   3.579   1.695   2.716  0.8286 -0.0294 -0.1911
 1512SOL    HW114575   3.675   1.677   2.694  0.5793 -1.3932 -0.2212
 1512SOL    HW214576   3.570   1.787   2.754  1.9849  0.5144 -1.2048
 1513SOL     OW14577   4.224   3.109   1.000 -0.3798  0.3369 -0.3030
 1513SOL    HW114578   4.156   3.043   0.969  1.3607 -1.6647 -0.0083
 1513SOL    HW214579   4.227   3.110   1.100 -0.6686  1.1735 -0.2952
 1514SOL     OW14580   1.742   8.697   2.043  0.3129  0.3286 -0.0956
 1514SOL    HW114581   1.799   8.779   2.029 -1.1428  1.1521 -1.3546
 1514SOL    HW214582   1.756   8.634   1.966 -0.1125  0.3202 -0.1658
 1515SOL     OW14583   1.194   9.770   1.036 -0.0357  0.0587 -0.3854
 1515SOL    HW114584   1.201   9.863   1.071 -2.1487  0.1225 -0.1038
 1515SOL    HW214585   1.201   9.704   1.111 -0.8101  0.0634 -0.3123
 1516SOL     OW14586   3.593  10.421   1.121 -0.5244 -0.4366  0.0044
 1516SOL    HW114587   3.546  10.334   1.136 -0.1289 -0.5171  0.7946
 1516SOL    HW214588   3.565  10.459   1.032 -1.4010 -0.9119  0.0683
 1517SOL     OW14589  10.295   5.431   2.294 -0.2696  0.4526  0.1410
 1517SOL    HW114590  10.311   5.528   2.273 -0.2054 -0.3809 -4.0637
 1517SOL    HW214591  10.196   5.413   2.294 -0.2041 -0.0690 -2.2869
 1518SOL     OW14592   1.034   9.257   1.212 -0.7283  0.0900  0.1987
 1518SOL    HW114593   1.048   9.191   1.139  3.3565  1.2647 -0.2274
 1518SOL    HW214594   1.004   9.344   1.174  0.4897  0.4298  0.0047
 1519SOL     OW14595   0.906   2.258   1.232 -0.2823 -0.6404  0.3181
 1519SOL    HW114596   0.946   2.293   1.147 -0.1774  0.1364  0.6807
 1519SOL    HW214597   0.806   2.267   1.228 -0.2383  0.0239  0.5393
 1520SOL     OW14598   3.673   8.756   0.173  0.0068 -0.2359  0.3612
 1520SOL    HW114599   3.680   8.773   0.074 -1.2133  1.8499  0.6051
 1520SOL    HW214600   3.579   8.773   0.203  0.4328 -0.6009  1.9416
 1521SOL     OW14601   1.126   7.176   2.281  0.1247  0.0404 -0.8476
 1521SOL    HW114602   1.139   7.238   2.359 -0.2909  0.2552 -0.9448
 1521SOL    HW214603   1.214   7.155   2.240  0.3320  0.0291 -0.3949
 1522SOL     OW14604   3.565   2.652   0.890 -0.6349  0.4733  0.0525
 1522SOL    HW114605   3.572   2.699   0.802  0.0151  0.2282 -0.0322
 1522SOL    HW214606   3.472   2.658   0.924 -1.1222 -0.2483 -1.1097
 1523SOL     OW14607   1.548   3.634   0.817 -0.1530  0.0788 -0.3803
 1523SOL    HW114608   1.602   3.568   0.765 -0.5749  0.6910 -1.6357
 1523SOL    HW214609   1.530   3.599   0.908 -2.3744 -2.6039 -1.7807
 1524SOL     OW14610   0.836   0.930   1.410  0.1711 -0.3128 -0.8740
 1524SOL    HW114611   0.753   0.875   1.402 -0.0487  0.2677 -3.0525
 1524SOL    HW214612   0.812   1.023   1.437 -0.0125  0.1392 -2.5546
 1525SOL     OW14613   0.709   6.780   2.535 -0.3615 -0.0649 -0.3783
 1525SOL    HW114614   0.666   6.689   2.535  0.5569 -0.5113 -1.3542
 1525SOL    HW214615   0.639   6.849   2.518 -1.4772 -0.3561  2.6711
 1526SOL     OW14616   9.661   5.379   1.818  0.9743  0.7041  0.2526
 1526SOL    HW114617   9.661   5.333   1.907  1.5248  2.2471  1.0607
 1526SOL    HW214618   9.753   5.412   1.798  0.8372  0.4099 -0.8712
 1527SOL     OW14619   9.851   1.577   2.098 -0.4894  0.5785  0.0377
 1527SOL    HW114620   9.928   1.557   2.159 -0.3071  0.0104 -0.3850
 1527SOL    HW214621   9.765   1.563   2.148 -0.3677 -1.2862 -0.2665
 1528SOL     OW14622   1.038   2.346   1.006 -0.4277  0.3850 -0.3427
 1528SOL    HW114623   1.021   2.336   0.908  0.0082  1.3787 -0.5280
 1528SOL    HW214624   1.107   2.417   1.021  1.5687 -1.6755  0.5249
 1529SOL     OW14625   2.434   8.447   0.600 -0.4550 -0.4286 -0.2108
 1529SOL    HW114626   2.484   8.527   0.565 -0.5602 -0.3330 -0.1420
 1529SOL    HW214627   2.343   8.475   0.630 -0.4568 -0.5583 -0.0955
 1530SOL     OW14628   0.949   8.754   0.786  0.3379 -0.7405 -0.2872
 1530SOL    HW114629   0.906   8.728   0.699 -0.6071 -0.1642 -0.0008
 1530SOL    HW214630   1.048   8.743   0.779  0.3806  0.4264 -1.8532
 1531SOL     OW14631   9.990   3.661   2.215 -0.0892 -0.1271 -0.9819
 1531SOL    HW114632   9.984   3.761   2.211  1.2614  0.0549  0.8080
 1531SOL    HW214633  10.005   3.632   2.310  1.8702 -1.8623 -1.7800
 1532SOL     OW14634   9.694   5.805   1.332  0.3939 -0.1786 -0.3070
 1532SOL    HW114635   9.642   5.778   1.414 -0.9525 -0.1325 -1.1316
 1532SOL    HW214636   9.715   5.902   1.337 -0.7488  0.0953 -0.5739
 1533SOL     OW14637   4.486   9.417   2.286  0.0323 -0.1097 -0.5124
 1533SOL    HW114638   4.515   9.485   2.354  0.4672 -1.7167  0.9526
 1533SOL    HW214639   4.397   9.379   2.313  0.4521 -1.1373 -0.5359
 1534SOL     OW14640   9.387   2.649   1.890  0.1805  0.6978  0.2795
 1534SOL    HW114641   9.318   2.668   1.821  0.3184  3.0406  0.7385
 1534SOL    HW214642   9.351   2.672   1.980  0.8262 -0.0778  0.7424
 1535SOL     OW14643   3.905   9.714   0.459 -0.3520 -0.0713  0.2166
 1535SOL    HW114644   3.907   9.789   0.525 -1.7227 -0.5188  0.7901
 1535SOL    HW214645   3.816   9.711   0.414  0.4737  0.0621 -1.4844
 1536SOL     OW14646   2.331   9.241   1.948 -0.1714  0.1300 -0.4889
 1536SOL    HW114647   2.401   9.239   1.878 -0.9543 -1.3379 -1.2461
 1536SOL    HW214648   2.290   9.333   1.953  0.2586  0.3746 -1.5650
 1537SOL     OW14649   4.198   1.899   1.219 -0.1472 -0.3947  0.1858
 1537SOL    HW114650   4.121   1.835   1.224 -0.4518  0.0709  1.5775
 1537SOL    HW214651   4.234   1.900   1.125 -0.9748 -1.6145 -0.1586
 1538SOL     OW14652   1.054   3.066   2.189  0.1452  0.5415  0.2743
 1538SOL    HW114653   1.019   3.149   2.233  0.7612  1.5996 -1.1756
 1538SOL    HW214654   1.142   3.042   2.228  0.4642  1.1950 -0.0406
 1539SOL     OW14655   3.264   1.454   2.191  0.9258  0.2774  0.2529
 1539SOL    HW114656   3.360   1.427   2.199  0.9426  0.4898  0.7906
 1539SOL    HW214657   3.258   1.552   2.170  0.8025  0.5246  1.4373
 1540SOL     OW14658   3.910   5.375   0.784  0.1572 -0.2560  0.0237
 1540SOL    HW114659   3.890   5.445   0.715 -0.3340 -1.3076 -0.9300
 1540SOL    HW214660   3.907   5.416   0.875 -1.6455  0.6418 -0.4109
 1541SOL     OW14661   2.018   5.544   0.912  0.8430  0.4137 -0.3948
 1541SOL    HW114662   1.995   5.544   1.009  0.9289 -0.1994 -0.3736
 1541SOL    HW214663   2.112   5.576   0.900  0.9892  0.0472 -0.2368
 1542SOL     OW14664   4.423   3.338   0.987 -0.6017  0.1678 -0.4528
 1542SOL    HW114665   4.493   3.340   1.058 -0.6323 -0.5302 -0.3992
 1542SOL    HW214666   4.359   3.263   1.006 -3.3970  2.8741  1.4579
 1543SOL     OW14667   0.862   7.329   0.128 -0.3755  0.4938  0.4280
 1543SOL    HW114668   0.777   7.359   0.084  0.9058  0.2495 -2.3520
 1543SOL    HW214669   0.861   7.229   0.137 -0.9294  0.6013  1.6135
 1544SOL     OW14670  10.037   1.583   1.882  0.3209 -0.0660  0.6056
 1544SOL    HW114671   9.964   1.598   1.948  0.4134  0.5525  0.5740
 1544SOL    HW214672  10.000   1.545   1.798 -0.0555  0.7830  0.3786
 1545SOL     OW14673   2.949   1.574   1.287 -0.4853  0.0355 -0.3947
 1545SOL    HW114674   3.012   1.637   1.241  0.2326 -0.3039  0.1115
 1545SOL    HW214675   2.886   1.535   1.219  0.0545  0.1316 -0.9605
 1546SOL     OW14676   1.884   6.663   2.425 -0.1241 -0.0655 -0.0623
 1546SOL    HW114677   1.963   6.723   2.430  0.8040 -1.4396  3.1549
 1546SOL    HW214678   1.893   6.601   2.347  2.5201 -0.9077  0.8671
 1547SOL     OW14679   1.576   9.277   0.329 -0.4155  0.3926  0.1868
 1547SOL    HW114680   1.500   9.282   0.264 -1.3972 -0.8891  1.2057
 1547SOL    HW214681   1.574   9.189   0.375  1.4011  0.5540  0.6063
 1548SOL     OW14682   1.938   3.500   0.334  0.2430 -0.4233 -0.2488
 1548SOL    HW114683   1.887   3.442   0.271  0.9214 -0.7086 -0.5469
 1548SOL    HW214684   1.881   3.524   0.413 -0.1333 -1.2536 -0.2677
 1549SOL     OW14685   0.852   4.725   1.132  0.4530  0.0963  0.5063
 1549SOL    HW114686   0.781   4.655   1.124  1.3962 -0.8687  0.2876
 1549SOL    HW214687   0.908   4.706   1.212 -0.4444  1.7107  1.5187
 1550SOL     OW14688   1.979   6.700   0.600 -0.2089  0.0958 -0.6734
 1550SOL    HW114689   1.940   6.734   0.514 -0.4366 -0.9178 -0.9756
 1550SOL    HW214690   1.971   6.771   0.670 -1.2950  0.4219 -1.1191
 1551SOL     OW14691   4.046   1.769   2.343  0.1073 -0.1802 -0.3215
 1551SOL    HW114692   4.099   1.745   2.424 -0.2017 -0.2646 -0.1410
 1551SOL    HW214693   4.042   1.869   2.335  0.2672 -0.1738 -0.3193
 1552SOL     OW14694   4.730   3.856   1.021 -0.4627  0.2703  0.0830
 1552SOL    HW114695   4.761   3.913   1.096  1.7170  1.3323 -1.5597
 1552SOL    HW214696   4.649   3.897   0.978  0.3738  1.5109 -0.3287
 1553SOL     OW14697   2.566   4.901   2.449  0.3754 -0.0831 -0.1725
 1553SOL    HW114698   2.493   4.970   2.448  0.7254  0.2981  0.0753
 1553SOL    HW214699   2.527   4.812   2.471  0.1259  0.2999  1.0014
 1554SOL     OW14700   9.534   1.426   2.495 -0.1735  0.0728  0.1051
 1554SOL    HW114701   9.615   1.453   2.547 -0.6904 -1.5229  1.8097
 1554SOL    HW214702   9.511   1.331   2.517 -1.2428 -0.1907 -2.0067
 1555SOL     OW14703   1.632   5.949   2.126  0.8297 -0.0916 -0.6888
 1555SOL    HW114704   1.657   5.989   2.214  0.8147  0.8192 -1.0983
 1555SOL    HW214705   1.567   5.874   2.141 -1.2455  1.7612 -0.0932
 1556SOL     OW14706   3.448   9.141   0.624  0.1051 -0.1318  0.3487
 1556SOL    HW114707   3.425   9.050   0.659  0.1802  0.2329  1.3696
 1556SOL    HW214708   3.527   9.177   0.674  0.4630  0.2431 -0.4732
 1557SOL     OW14709  10.337   5.206   1.211 -0.0090  0.3578  0.2303
 1557SOL    HW114710  10.431   5.173   1.207 -0.0315 -0.1485  3.2315
 1557SOL    HW214711  10.279   5.137   1.253 -1.1021  1.9988  1.4600
 1558SOL     OW14712   2.364   7.165   0.329 -0.1449  0.0869  0.4500
 1558SOL    HW114713   2.306   7.217   0.266 -0.2016  0.3992  0.7634
 1558SOL    HW214714   2.307   7.115   0.393 -0.0898 -0.3662  0.1490
 1559SOL     OW14715   2.462   9.086   1.326 -0.0753 -0.1166  0.1098
 1559SOL    HW114716   2.367   9.083   1.360 -0.3113 -0.6300 -0.5872
 1559SOL    HW214717   2.464   9.133   1.238  0.3044 -0.2231  0.0619
 1560SOL     OW14718   9.236   2.622   0.592  0.1590 -0.2725  0.0302
 1560SOL    HW114719   9.330   2.651   0.573  0.1942  1.6056  2.8000
 1560SOL    HW214720   9.216   2.633   0.689 -2.9997 -0.5084 -0.5167
 1561SOL     OW14721   3.358   9.478   2.627  1.1426 -0.0161 -0.4963
 1561SOL    HW114722   3.451   9.470   2.590  2.0743 -1.0167  1.9377
 1561SOL    HW214723   3.329   9.574   2.624  1.6966  0.1126 -2.5325
 1562SOL     OW14724   2.734   4.999   1.698 -0.2494 -0.1305 -0.1015
 1562SOL    HW114725   2.649   5.029   1.655 -0.1130 -1.2178 -1.1412
 1562SOL    HW214726   2.809   5.006   1.633  0.0260 -1.4354  0.0659
 1563SOL     OW14727   9.734   3.673   2.017  0.0432  0.1177  0.5004
 1563SOL    HW114728   9.785   3.740   2.071  0.3400 -0.2253  0.6405
 1563SOL    HW214729   9.707   3.716   1.930  0.6817  0.2620  0.3672
 1564SOL     OW14730   1.483   3.465   2.485  0.3391  0.2055  0.4100
 1564SOL    HW114731   1.558   3.492   2.424 -0.4654 -0.0799 -0.7125
 1564SOL    HW214732   1.496   3.370   2.515 -0.5976 -0.4813 -1.3390
 1565SOL     OW14733   1.741   4.248   2.659 -0.8203 -0.0000 -0.4241
 1565SOL    HW114734   1.787   4.195   2.729 -1.4579  0.2968  0.2191
 1565SOL    HW214735   1.684   4.188   2.602 -3.2867  0.2669  1.6721
 1566SOL     OW14736   3.354   9.311   0.247 -0.2259  0.0656  0.0137
 1566SOL    HW114737   3.340   9.347   0.154 -1.0251 -0.4733 -0.0760
 1566SOL    HW214738   3.278   9.251   0.271  0.3482 -0.3758  0.7404
 1567SOL     OW14739   1.231   8.666   0.755 -0.3829  0.0963  0.4704
 1567SOL    HW114740   1.247   8.590   0.693 -0.3414  1.3222 -1.0446
 1567SOL    HW214741   1.281   8.651   0.840  2.0591 -0.1424 -0.9644
 1568SOL     OW14742   3.270   3.026   0.529  0.0569 -0.1395 -0.0940
 1568SOL    HW114743   3.310   2.980   0.450  1.2729 -1.8700  1.4824
 1568SOL    HW214744   3.303   3.120   0.533  1.3029 -0.5443 -0.7443
 1569SOL     OW14745   2.345   1.028   2.551  0.1161  0.8932  0.5921
 1569SOL    HW114746   2.400   0.980   2.483  1.6637  0.7655  1.9245
 1569SOL    HW214747   2.404   1.077   2.615 -1.3004  0.8018  2.0289
 1570SOL     OW14748   1.999   9.530   0.569 -0.1670 -0.3451 -0.1425
 1570SOL    HW114749   1.915   9.478   0.581 -1.1182  1.2143  0.0054
 1570SOL    HW214750   2.078   9.470   0.584 -1.2414 -1.6877  0.1977
 1571SOL     OW14751   2.109  10.708   1.862  0.4038  0.5268  0.0509
 1571SOL    HW114752   2.017  10.745   1.866 -0.2147 -0.9185 -0.2966
 1571SOL    HW214753   2.138  10.702   1.767  0.5630  0.2883  0.1138
 1572SOL     OW14754   3.114   6.349   0.322 -0.0684 -0.3875 -0.0310
 1572SOL    HW114755   3.173   6.301   0.257  0.8558  1.1349 -0.3476
 1572SOL    HW214756   3.024   6.364   0.282 -0.6035 -2.5120  0.3593
 1573SOL     OW14757   4.246   1.012   1.727 -0.1264 -0.1484 -0.1844
 1573SOL    HW114758   4.318   1.000   1.658  0.5199 -1.0340  0.6358
 1573SOL    HW214759   4.168   1.060   1.686 -0.4417 -2.1543 -1.9765
 1574SOL     OW14760   4.731   3.571   0.138  0.0522 -0.6373 -0.1550
 1574SOL    HW114761   4.673   3.554   0.217 -0.3961  0.2533 -0.2939
 1574SOL    HW214762   4.674   3.585   0.057  0.4029  1.2724 -0.1005
 1575SOL     OW14763   1.397   6.454   0.666  0.1173  0.2186  0.3398
 1575SOL    HW114764   1.336   6.507   0.609 -0.1796  0.4047  0.8263
 1575SOL    HW214765   1.363   6.360   0.675  0.7913 -0.1345 -0.7486
 1576SOL     OW14766   1.342   7.342   1.164  0.2134  0.3137  0.4677
 1576SOL    HW114767   1.387   7.414   1.217 -0.8948  1.4175 -0.0495
 1576SOL    HW214768   1.381   7.254   1.188  1.6241  1.0869  1.0912
 1577SOL     OW14769   0.670   7.087   1.009 -0.3722 -0.0104 -0.1893
 1577SOL    HW114770   0.581   7.087   0.964  0.2419  0.3267 -1.4214
 1577SOL    HW214771   0.731   7.151   0.963  0.5068 -0.2171  0.6627
 1578SOL     OW14772   4.767   2.188   2.202 -0.4304  0.0881  0.4563
 1578SOL    HW114773   4.754   2.188   2.103 -1.6752  0.3799  0.6055
 1578SOL    HW214774   4.761   2.281   2.236  0.0604 -0.0055  0.8031
 1579SOL     OW14775  10.256   1.120   2.427  0.4050  0.2518 -0.1550
 1579SOL    HW114776  10.215   1.134   2.517 -0.2715 -0.6363 -0.3135
 1579SOL    HW214777  10.338   1.177   2.418  0.5265  0.2747  1.0498
 1580SOL     OW14778   1.330   7.162   1.540 -0.4243 -0.1315  0.1958
 1580SOL    HW114779   1.391   7.156   1.461 -1.1103 -1.8558 -0.2155
 1580SOL    HW214780   1.298   7.257   1.550  0.0411  0.1972 -1.3032
 1581SOL     OW14781   2.660   9.337   1.162 -0.5520  0.0269 -0.0394
 1581SOL    HW114782   2.728   9.268   1.139 -0.1644  1.1680 -2.4331
 1581SOL    HW214783   2.704   9.410   1.215  0.0333  0.5613 -1.2341
 1582SOL     OW14784   5.607   3.486   1.115  0.0067 -0.8131 -0.2410
 1582SOL    HW114785   5.532   3.518   1.174  0.1040 -1.9153  0.4809
 1582SOL    HW214786   5.680   3.447   1.171  1.9402  1.8500 -0.8054
 1583SOL     OW14787   1.119   1.702   2.638  0.4950  0.6970  0.5252
 1583SOL    HW114788   1.190   1.642   2.675  0.8663  1.2600  0.7497
 1583SOL    HW214789   1.111   1.688   2.539  0.6497  0.3520  0.5618
 1584SOL     OW14790   2.872   8.196   1.075 -0.5965 -0.1552 -0.1018
 1584SOL    HW114791   2.891   8.289   1.045  1.7296 -0.3184  0.7648
 1584SOL    HW214792   2.815   8.198   1.157  0.8786  0.5885  0.9317
 1585SOL     OW14793   3.028  10.278   0.537  0.2013 -0.5210 -0.2955
 1585SOL    HW114794   2.977  10.264   0.452 -0.2532  0.1670 -0.1340
 1585SOL    HW214795   3.107  10.216   0.538 -0.4115 -1.3333 -0.7078
 1586SOL     OW14796   2.290   6.222   0.974  0.3703 -0.7531 -0.6093
 1586SOL    HW114797   2.202   6.238   0.929 -0.7390 -0.5815  1.5655
 1586SOL    HW214798   2.319   6.305   1.021  1.6512 -0.8569 -1.1817
 1587SOL     OW14799   0.887   6.841   0.487  0.3763 -0.1491 -0.0381
 1587SOL    HW114800   0.837   6.916   0.446  2.8175  1.1635 -0.7199
 1587SOL    HW214801   0.896   6.857   0.586  1.6629  0.9542 -0.3157
 1588SOL     OW14802   0.597   3.782   1.911  0.0366 -0.0717 -0.1641
 1588SOL    HW114803   0.591   3.822   1.820  0.1522 -0.8622 -0.5208
 1588SOL    HW214804   0.682   3.731   1.920 -0.7251 -1.3866 -0.1881
 1589SOL     OW14805   4.455   1.851   0.155 -0.0190  0.2236  0.3393
 1589SOL    HW114806   4.448   1.933   0.212  0.3662 -0.4915  1.4544
 1589SOL    HW214807   4.547   1.812   0.164 -0.4000 -0.6911  0.3545
 1590SOL     OW14808   1.306   1.187   2.457 -0.6278 -0.2643 -0.0265
 1590SOL    HW114809   1.226   1.226   2.503  0.4479  0.4003  1.3450
 1590SOL    HW214810   1.325   1.096   2.495 -0.3640 -0.1643  0.0784
 1591SOL     OW14811   1.927  10.010   0.638 -0.7273 -0.5416 -0.7256
 1591SOL    HW114812   1.907  10.071   0.715  1.4290  0.0874 -0.6062
 1591SOL    HW214813   1.899  10.053   0.553 -2.0411 -0.7200 -0.3820
 1592SOL     OW14814   1.042   5.820   2.292 -0.5153 -0.7407  0.3439
 1592SOL    HW114815   1.126   5.873   2.298 -1.1911  0.8175 -2.6398
 1592SOL    HW214816   0.974   5.857   2.355 -0.3106  0.7057 -0.2720
 1593SOL     OW14817   3.895   9.204   1.585 -0.4735  0.1907 -0.0866
 1593SOL    HW114818   3.981   9.246   1.554 -0.1629 -0.0181  0.4909
 1593SOL    HW214819   3.818   9.258   1.551 -0.0744  1.3729  0.8351
 1594SOL     OW14820   8.767   1.879   0.436  0.2985  0.5639 -0.2769
 1594SOL    HW114821   8.693   1.932   0.479  0.3826 -0.3474  1.0434
 1594SOL    HW214822   8.835   1.941   0.399  1.2526  1.4205  2.7420
 1595SOL     OW14823   2.783   2.518   2.198  0.2467 -0.2169  0.4452
 1595SOL    HW114824   2.803   2.423   2.225  1.9779 -0.2421 -0.8571
 1595SOL    HW214825   2.867   2.571   2.200 -0.8463  1.5006  1.8708
 1596SOL     OW14826   1.581   5.101   1.487 -0.0637 -0.3282 -0.3147
 1596SOL    HW114827   1.603   5.081   1.583  0.2733 -0.2615 -0.3748
 1596SOL    HW214828   1.607   5.196   1.467  0.2600 -0.4727 -0.5861
 1597SOL     OW14829   4.377   1.991   2.560 -0.5245 -0.0976 -0.3304
 1597SOL    HW114830   4.296   2.021   2.611 -0.9612 -1.0476 -0.4647
 1597SOL    HW214831   4.429   1.927   2.616 -0.9089 -1.0071 -1.0068
 1598SOL     OW14832   9.887   6.218   1.235  0.6062  0.0575  0.0578
 1598SOL    HW114833   9.981   6.198   1.263  0.8073 -1.5173 -1.6523
 1598SOL    HW214834   9.888   6.292   1.167  1.0193 -2.5237 -2.8588
 1599SOL     OW14835   3.049   5.038   0.774  0.8705  0.3351 -0.4065
 1599SOL    HW114836   3.142   5.042   0.738  1.4916 -0.9939  0.9935
 1599SOL    HW214837   2.984   5.044   0.698  2.1073 -0.1863 -1.5288
 1600SOL     OW14838   3.301   2.750   2.134 -0.4112  0.4415  0.8953
 1600SOL    HW114839   3.253   2.674   2.178 -1.1172  1.2970  1.6046
 1600SOL    HW214840   3.289   2.833   2.188  0.0808  1.1338 -0.0546
 1601SOL     OW14841   4.556   4.921   1.215  0.2980  0.0159  0.2010
 1601SOL    HW114842   4.644   4.931   1.168  0.3043 -0.4060  0.1232
 1601SOL    HW214843   4.538   5.003   1.270  0.2009  0.5970 -0.6788
 1602SOL     OW14844  10.403   1.890   1.113  1.1574 -0.3244  0.1817
 1602SOL    HW114845  10.441   1.947   1.039 -1.3979  1.7618  0.3909
 1602SOL    HW214846  10.334   1.828   1.075  0.5880  0.0211  0.6392
 1603SOL     OW14847   9.491   2.381   0.672 -0.0935  0.4370 -0.0026
 1603SOL    HW114848   9.396   2.359   0.694  0.3208 -2.0117 -0.5488
 1603SOL    HW214849   9.494   2.466   0.620 -1.8706  1.1745  1.0375
 1604SOL     OW14850   4.528   2.783   2.022  0.1533 -0.7738 -0.2146
 1604SOL    HW114851   4.592   2.820   1.954  0.1453 -2.8531 -1.3925
 1604SOL    HW214852   4.456   2.732   1.975 -1.6537  0.4025  1.1843
 1605SOL     OW14853   1.795   7.931   2.450  0.7418  0.1231  0.6108
 1605SOL    HW114854   1.804   7.994   2.373 -2.3278 -1.4595 -1.1261
 1605SOL    HW214855   1.768   7.982   2.531  2.3421  1.5799  0.2556
 1606SOL     OW14856   2.281   6.913   0.518 -0.4984  0.4420 -0.3519
 1606SOL    HW114857   2.247   6.852   0.446  0.1574 -0.8942  0.4507
 1606SOL    HW214858   2.204   6.950   0.570 -0.9761  1.4051 -1.7150
 1607SOL     OW14859   2.915   4.159   0.341 -0.0448 -0.1341 -0.2929
 1607SOL    HW114860   2.846   4.231   0.329 -1.5234 -1.6454 -0.9815
 1607SOL    HW214861   2.975   4.183   0.417 -1.3694  1.1801  0.3564
 1608SOL     OW14862   3.093   7.833   0.803 -0.2104  0.4366  0.0499
 1608SOL    HW114863   3.163   7.772   0.841 -0.4010  0.8565  1.0809
 1608SOL    HW214864   3.069   7.903   0.871 -1.8324  0.1392 -0.1943
 1609SOL     OW14865   8.952   2.299   0.986 -0.1490 -0.2175  0.0710
 1609SOL    HW114866   9.023   2.368   0.981  0.4435 -0.8647 -0.4963
 1609SOL    HW214867   8.863   2.343   0.995  0.2373  0.6127 -0.1683
 1610SOL     OW14868   3.108   5.831   1.147  0.1233  0.2260 -0.2957
 1610SOL    HW114869   3.177   5.880   1.093  0.8148  0.4633  0.7830
 1610SOL    HW214870   3.017   5.866   1.125  0.4940  1.0541 -0.5141
 1611SOL     OW14871   4.233  10.063   1.262 -0.3262 -0.1192  0.0469
 1611SOL    HW114872   4.279  10.026   1.182  0.2007 -1.6801  1.0499
 1611SOL    HW214873   4.296  10.120   1.314  0.1517 -1.3347  0.8119
 1612SOL     OW14874  10.340   6.068   2.138 -0.4635 -0.2667  0.5247
 1612SOL    HW114875  10.383   6.108   2.057  0.0884  0.4146  1.1472
 1612SOL    HW214876  10.378   5.977   2.155 -0.3684 -0.2885  0.1957
 1613SOL     OW14877   1.335   6.816   0.905  0.6061 -0.0107  0.6130
 1613SOL    HW114878   1.271   6.791   0.833  1.7789  0.0583 -0.4744
 1613SOL    HW214879   1.343   6.915   0.910  0.8081 -0.0252  0.5886
 1614SOL     OW14880   1.139   6.754   0.690  0.2966  0.0721 -0.1566
 1614SOL    HW114881   1.093   6.787   0.772  0.7500 -0.0732  0.1601
 1614SOL    HW214882   1.101   6.665   0.664 -1.0712  0.9296 -1.1343
 1615SOL     OW14883   3.747   8.302   0.458 -0.2225  0.3759  0.0341
 1615SOL    HW114884   3.822   8.291   0.522 -0.1452  0.6432 -0.0118
 1615SOL    HW214885   3.782   8.298   0.364 -0.4042 -0.5445  0.0018
 1616SOL     OW14886  10.523   6.273   0.306  0.1530  0.0341  0.8762
 1616SOL    HW114887  10.454   6.207   0.338  1.9165 -1.6466  1.3275
 1616SOL    HW214888  10.614   6.232   0.313  1.3104  2.5260  1.1298
 1617SOL     OW14889   8.914   2.071   0.885 -0.0873 -0.2178  0.1791
 1617SOL    HW114890   8.935   2.163   0.917  2.5649 -0.8845  0.5208
 1617SOL    HW214891   8.933   2.064   0.787  0.3738 -0.5685  0.2888
 1618SOL     OW14892   3.233   1.159   1.009  0.0086 -0.2977 -0.1029
 1618SOL    HW114893   3.319   1.137   0.963 -0.1844 -0.1031 -0.5610
 1618SOL    HW214894   3.232   1.116   1.099  1.8223  2.0603  1.0996
 1619SOL     OW14895   2.627   4.376   1.383  0.2251  0.0590 -0.4687
 1619SOL    HW114896   2.650   4.473   1.387 -1.1959  0.3847  0.0099
 1619SOL    HW214897   2.541   4.364   1.334  0.3943 -0.9657 -0.5225
 1620SOL     OW14898   9.258   4.956   1.186 -0.1467 -0.2372  0.4492
 1620SOL    HW114899   9.205   5.007   1.253 -0.2571 -1.3927  1.2776
 1620SOL    HW214900   9.268   4.861   1.218 -1.8013 -1.3024 -2.0737
 1621SOL     OW14901   0.607   4.711   1.742 -0.3386 -0.1584  0.2272
 1621SOL    HW114902   0.680   4.691   1.676  0.9735  2.4515  0.8154
 1621SOL    HW214903   0.539   4.771   1.699 -0.4263  0.0731  0.6906
 1622SOL     OW14904   3.869   4.820   0.474  0.2924  0.0431 -0.4940
 1622SOL    HW114905   3.877   4.870   0.560 -0.5894  0.9404 -0.9379
 1622SOL    HW214906   3.864   4.884   0.397 -0.1703 -0.7346 -1.1183
 1623SOL     OW14907   1.320   9.858   0.517  0.4915 -0.6209 -0.1402
 1623SOL    HW114908   1.283   9.943   0.554  0.4764  0.0785 -1.7197
 1623SOL    HW214909   1.396   9.878   0.456 -1.6502 -1.4412 -3.2242
 1624SOL     OW14910   1.548   7.249   1.836  0.0742  0.3582 -0.0429
 1624SOL    HW114911   1.542   7.346   1.814  0.2266  0.5389  0.7112
 1624SOL    HW214912   1.565   7.237   1.934 -1.8136 -0.4516  0.2219
 1625SOL     OW14913   9.265   3.074   2.320 -0.0930  0.6583  0.5948
 1625SOL    HW114914   9.332   3.032   2.259 -0.6368  1.8350 -0.8465
 1625SOL    HW214915   9.299   3.163   2.350 -0.5272  0.7717  0.7529
 1626SOL     OW14916   0.935   5.223   0.541 -0.4028 -0.3526 -0.2518
 1626SOL    HW114917   0.994   5.153   0.581 -1.3193 -0.1473  1.5582
 1626SOL    HW214918   0.931   5.302   0.603 -0.5471  0.6840 -1.5666
 1627SOL     OW14919   5.052   1.900   0.127  0.8142  0.5548  0.2514
 1627SOL    HW114920   5.096   1.812   0.109 -0.5563 -0.7312  2.8458
 1627SOL    HW214921   5.120   1.974   0.121  2.2307 -0.8118 -0.7616
 1628SOL     OW14922   1.352   1.489   1.477  0.0270  0.4674  0.1761
 1628SOL    HW114923   1.430   1.460   1.532 -0.6898 -0.2388  0.8265
 1628SOL    HW214924   1.281   1.419   1.480 -1.0626  1.5730  0.4425
 1629SOL     OW14925   2.897   7.917   2.437 -0.0213  0.8689  0.1589
 1629SOL    HW114926   2.867   7.881   2.525 -0.6076  1.0966  0.0585
 1629SOL    HW214927   2.830   7.892   2.366  0.6096  0.4129 -0.2764
 1630SOL     OW14928   2.239   8.955   2.289  0.0833  0.2521  0.2662
 1630SOL    HW114929   2.329   8.931   2.254 -0.6286  0.5489 -1.8262
 1630SOL    HW214930   2.246   8.979   2.386  2.1278 -0.3673  0.2882
 1631SOL     OW14931   2.186   6.638   2.286  0.1607  0.2852  0.7768
 1631SOL    HW114932   2.231   6.675   2.204 -0.0116  0.1686  0.6276
 1631SOL    HW214933   2.237   6.666   2.367  1.0607 -0.6689  0.5459
 1632SOL     OW14934   1.176   1.647   1.854 -0.2636 -0.6160 -0.1748
 1632SOL    HW114935   1.244   1.580   1.825  0.6458  0.9333 -1.7599
 1632SOL    HW214936   1.217   1.739   1.850 -1.7908  0.1324  0.9552
 1633SOL     OW14937   1.224   5.130   0.474 -0.0697 -0.6403  0.0367
 1633SOL    HW114938   1.282   5.160   0.550  1.5000 -0.7703 -1.0796
 1633SOL    HW214939   1.171   5.050   0.502 -2.3021  1.5116  2.1778
 1634SOL     OW14940   2.930   1.392   2.556 -0.3405  0.4987  0.3859
 1634SOL    HW114941   2.973   1.451   2.625 -0.6803  2.3578 -0.9693
 1634SOL    HW214942   2.999   1.365   2.489 -0.2685 -0.3814  0.8026
 1635SOL     OW14943   2.532   5.341   0.319 -0.3951 -0.1332 -0.3048
 1635SOL    HW114944   2.575   5.431   0.327 -1.6924  0.6924 -2.4520
 1635SOL    HW214945   2.457   5.334   0.385 -0.4888  0.4484 -0.3523
 1636SOL     OW14946   2.008   7.814   2.622 -0.3315 -0.4554 -0.3032
 1636SOL    HW114947   1.966   7.813   2.713  1.6873 -1.8285  0.6498
 1636SOL    HW214948   1.936   7.818   2.552 -1.9819 -1.3177  1.2977
 1637SOL     OW14949   2.846   7.024   2.340  0.6273 -0.7646  0.1933
 1637SOL    HW114950   2.893   7.105   2.374 -0.7463  0.5804 -1.0482
 1637SOL    HW214951   2.849   6.952   2.410  1.6748  0.3999  1.3819
 1638SOL     OW14952   1.728   0.901   0.223  0.0593  0.2601 -0.5640
 1638SOL    HW114953   1.654   0.834   0.225  1.3592 -1.2152 -1.2836
 1638SOL    HW214954   1.813   0.859   0.255  1.0078  1.4099 -1.5107
 1639SOL     OW14955   3.941   8.920   2.455 -0.0990 -0.0116 -0.3299
 1639SOL    HW114956   3.978   8.839   2.408 -0.6875 -1.3083  1.3964
 1639SOL    HW214957   3.945   8.906   2.554 -1.5235  1.4951 -0.0352
 1640SOL     OW14958   9.639   1.750   1.045  0.2684 -0.3587  0.0774
 1640SOL    HW114959   9.545   1.725   1.065  0.2042  0.3756  0.7488
 1640SOL    HW214960   9.701   1.700   1.106  0.4159 -1.8543 -1.2649
 1641SOL     OW14961   9.763   2.955   1.410  0.2187 -0.2315  0.6396
 1641SOL    HW114962   9.739   2.866   1.451 -0.4504 -0.2555  0.1972
 1641SOL    HW214963   9.860   2.956   1.387  0.4008 -0.5584  1.3858
 1642SOL     OW14964   2.972   1.624   2.714 -0.3216  0.4303  0.1154
 1642SOL    HW114965   2.895   1.632   2.778 -1.1610 -0.5751 -0.7384
 1642SOL    HW214966   2.966   1.698   2.647 -0.6394  0.2751 -0.0329
 1643SOL     OW14967   1.065  10.613   1.704  0.3832 -0.8302 -1.3251
 1643SOL    HW114968   1.116  10.679   1.650 -0.1471  0.8468  0.1691
 1643SOL    HW214969   1.013  10.661   1.776 -1.0162 -2.7395 -1.0072
 1644SOL     OW14970   1.323   8.088   0.354 -0.4010 -0.2456 -0.3532
 1644SOL    HW114971   1.400   8.111   0.294  1.4609  0.2115  2.1206
 1644SOL    HW214972   1.286   8.172   0.394 -1.8233 -0.5193 -1.0787
 1645SOL     OW14973   0.858   3.169   0.461 -0.3212 -0.1995  0.0843
 1645SOL    HW114974   0.847   3.144   0.364 -0.6826  0.9417 -0.1743
 1645SOL    HW214975   0.825   3.093   0.518  0.9770 -1.3635 -0.6630
 1646SOL     OW14976   2.637   3.570   1.720  0.5974 -0.3003 -0.3910
 1646SOL    HW114977   2.548   3.539   1.687 -0.0972  1.3088 -0.0599
 1646SOL    HW214978   2.660   3.521   1.804 -0.5462  0.1785  0.2040
 1647SOL     OW14979   2.982  10.699   0.882  0.0267  0.6395 -0.1884
 1647SOL    HW114980   2.984  10.797   0.861 -2.5083  0.9152  0.7695
 1647SOL    HW214981   3.030  10.682   0.968 -1.8666  1.4171  1.0329
 1648SOL     OW14982   3.632   1.029   2.061 -0.1927 -0.0380  0.8611
 1648SOL    HW114983   3.707   0.973   2.027 -0.6093 -0.2135  0.2196
 1648SOL    HW214984   3.559   1.032   1.992 -0.9379 -0.1920  1.6440
 1649SOL     OW14985   9.473   3.593   1.980  0.1297  0.1078  0.4319
 1649SOL    HW114986   9.405   3.664   1.993  1.1390  1.2011 -0.1371
 1649SOL    HW214987   9.564   3.629   2.003  0.4065 -1.6685  2.3722
 1650SOL     OW14988   3.528   0.880   1.089 -0.2749  0.5848  0.3049
 1650SOL    HW114989   3.575   0.824   1.021  1.9815  1.3997  1.1555
 1650SOL    HW214990   3.506   0.823   1.168  0.6427  0.5236  0.5244
 1651SOL     OW14991   8.936   2.023   2.364  0.1166 -0.3616  0.3012
 1651SOL    HW114992   8.898   2.032   2.272  1.4368  1.0052 -0.1299
 1651SOL    HW214993   8.869   2.057   2.431 -0.2949 -0.0389 -0.2663
 1652SOL     OW14994   2.086   5.041   2.056 -0.0526  0.0440 -0.0664
 1652SOL    HW114995   2.139   5.126   2.064  1.1458 -0.6785 -0.1661
 1652SOL    HW214996   2.068   5.022   1.959  0.9160 -0.5551 -0.1342
 1653SOL     OW14997   1.348   5.428   2.116 -0.2915  0.4263 -0.5519
 1653SOL    HW114998   1.333   5.491   2.192  0.9552  0.7663 -0.5710
 1653SOL    HW214999   1.442   5.394   2.119 -0.5795 -0.4486 -1.2794
 1654SOL     OW15000   3.280  10.371   2.682 -0.6560  0.3693  0.4410
 1654SOL    HW115001   3.322  10.331   2.600 -2.0759  0.1763 -0.1957
 1654SOL    HW215002   3.347  10.373   2.756 -0.1067 -1.7257  0.0109
 1655SOL     OW15003   2.438   2.581   1.720 -0.3740  0.1835 -0.2793
 1655SOL    HW115004   2.413   2.502   1.776 -0.3274  0.4618  0.1376
 1655SOL    HW215005   2.527   2.616   1.749 -0.9593  1.1696  0.4061
 1656SOL     OW15006   4.011   1.876   1.995  0.0894 -0.7263  0.7614
 1656SOL    HW115007   3.954   1.807   2.037  0.4731  0.3534  3.1563
 1656SOL    HW215008   3.978   1.967   2.020 -0.0643 -0.0263 -1.8510
 1657SOL     OW15009  10.505   2.674   1.060 -0.0130  0.4601  0.0766
 1657SOL    HW115010  10.561   2.720   0.991 -0.3560  1.6685  0.5888
 1657SOL    HW215011  10.563   2.613   1.115  0.8550  1.8740  0.7551
 1658SOL     OW15012   3.876   1.707   0.801  0.1815  0.0170  0.2504
 1658SOL    HW115013   3.787   1.707   0.846  0.4795 -1.2696  0.8572
 1658SOL    HW215014   3.886   1.623   0.748  0.7259  0.5162 -0.4454
 1659SOL     OW15015   4.095   9.522   2.700 -0.2813  0.1623  0.3864
 1659SOL    HW115016   4.082   9.520   2.799  0.9894  4.0388  0.7011
 1659SOL    HW215017   4.185   9.486   2.677  0.6166  2.0169  0.9329
 1660SOL     OW15018   9.178   1.941   0.177 -0.1550 -0.6403 -0.4525
 1660SOL    HW115019   9.240   1.863   0.180 -0.3190 -0.7865 -0.7669
 1660SOL    HW215020   9.169   1.973   0.082  1.6204  1.1546 -0.0494
 1661SOL     OW15021   3.245   1.328   2.457 -0.1858  0.0809 -0.3371
 1661SOL    HW115022   3.253   1.402   2.524 -0.9275  0.0841 -0.2490
 1661SOL    HW215023   3.208   1.364   2.371 -3.3045 -0.6801  0.6070
 1662SOL     OW15024   9.004   2.113   0.621 -0.3093 -0.0727 -0.1934
 1662SOL    HW115025   8.946   2.113   0.540 -0.2402  0.5021 -0.2465
 1662SOL    HW215026   9.084   2.056   0.605  0.6071  1.4480 -1.1985
 1663SOL     OW15027   3.253   2.268   1.101 -0.4280 -0.0113  0.4140
 1663SOL    HW115028   3.233   2.199   1.171 -1.4664 -0.0944  0.0485
 1663SOL    HW215029   3.351   2.271   1.084 -0.2220 -0.3529  1.5069
 1664SOL     OW15030   1.126   9.159   0.945  0.2049  0.2061  0.7730
 1664SOL    HW115031   1.048   9.221   0.938  1.3455  1.5963  0.0015
 1664SOL    HW215032   1.094   9.065   0.956 -1.6088  0.5481 -1.2574
 1665SOL     OW15033   9.913   3.352   1.120  0.4198  1.0975  0.1580
 1665SOL    HW115034   9.943   3.286   1.051 -0.7000 -0.4995  1.1606
 1665SOL    HW215035   9.874   3.432   1.075  1.7651  1.0738 -1.0766
 1666SOL     OW15036   2.371   5.787   1.484 -0.2569 -0.3836 -0.2265
 1666SOL    HW115037   2.283   5.792   1.437  0.3653  1.8574 -1.1773
 1666SOL    HW215038   2.424   5.710   1.448 -1.7489 -1.6549  0.2573
 1667SOL     OW15039   0.827   0.810   1.867 -0.0270  0.0445 -0.0798
 1667SOL    HW115040   0.864   0.801   1.960 -1.4187  1.1524  0.6046
 1667SOL    HW215041   0.814   0.907   1.846  3.0221 -0.0320 -2.5623
 1668SOL     OW15042  10.030   4.704   2.115 -0.1969 -0.5729  0.2027
 1668SOL    HW115043  10.013   4.654   2.030 -1.5289 -0.0326  0.1377
 1668SOL    HW215044  10.016   4.643   2.193  1.3350 -1.1552  0.0413
 1669SOL     OW15045   2.804   8.116   0.548  0.1513  0.2154  0.0312
 1669SOL    HW115046   2.715   8.143   0.585 -0.4337  0.1660 -1.2838
 1669SOL    HW215047   2.867   8.194   0.551 -0.3006  0.5882 -0.0861
 1670SOL     OW15048   1.390   4.792   2.512 -0.5476 -0.3146  0.3195
 1670SOL    HW115049   1.328   4.859   2.473  0.8398  0.5161 -0.5127
 1670SOL    HW215050   1.371   4.782   2.610 -0.4267  1.7172  0.5872
 1671SOL     OW15051   3.071   2.865   0.610  0.0500 -0.4200  0.2810
 1671SOL    HW115052   3.139   2.934   0.588  1.4087 -0.9131  2.8378
 1671SOL    HW215053   3.047   2.815   0.526  0.2710  1.9924 -1.2680
 1672SOL     OW15054   2.621   8.182   2.095  0.1778  0.7711 -0.4050
 1672SOL    HW115055   2.695   8.115   2.104  0.0855  0.7389  0.0912
 1672SOL    HW215056   2.643   8.263   2.149  0.1871  1.0598 -0.8319
 1673SOL     OW15057   9.603   3.141   0.267 -0.0618 -0.1966  0.1726
 1673SOL    HW115058   9.540   3.146   0.345  0.8356 -2.6431  1.0893
 1673SOL    HW215059   9.657   3.058   0.273  1.6416  0.7203 -1.8712
 1674SOL     OW15060   9.890   3.410   2.017  0.0590 -0.3516  0.2167
 1674SOL    HW115061   9.838   3.495   2.022 -1.4750 -0.9101 -3.8670
 1674SOL    HW215062   9.986   3.430   2.002 -0.3083  0.6937 -0.8519
 1675SOL     OW15063   3.946   5.894   0.551  0.1253 -0.3218  0.3518
 1675SOL    HW115064   3.988   5.939   0.630  1.0464  1.3548 -1.0637
 1675SOL    HW215065   3.847   5.893   0.561  0.2169  0.2055  1.3463
 1676SOL     OW15066   2.205  10.681   1.059  0.0340 -0.1596 -0.2141
 1676SOL    HW115067   2.224  10.596   1.011 -0.8745 -0.9803  0.8647
 1676SOL    HW215068   2.272  10.694   1.131 -1.7641 -1.6559  1.7836
 1677SOL     OW15069   9.617   5.639   2.547 -0.0508 -0.5577 -0.2260
 1677SOL    HW115070   9.629   5.720   2.489 -0.9962 -0.2021  0.0744
 1677SOL    HW215071   9.645   5.660   2.641  0.2613 -0.7599 -0.2708
 1678SOL     OW15072  10.289   4.185   1.184 -0.3892 -0.3426  0.5349
 1678SOL    HW115073  10.220   4.134   1.235 -4.1749  2.1377 -1.8648
 1678SOL    HW215074  10.291   4.155   1.089  0.5479  0.8271  0.1624
 1679SOL     OW15075   2.837   7.224   1.562 -0.2262  0.1919 -0.3624
 1679SOL    HW115076   2.782   7.143   1.583 -1.3884  0.9591 -0.4233
 1679SOL    HW215077   2.866   7.220   1.466 -0.2715 -0.1515 -0.3632
 1680SOL     OW15078   1.473  10.228   2.686  0.1108  0.2853 -0.0885
 1680SOL    HW115079   1.431  10.297   2.628 -0.6122 -0.0415  0.0330
 1680SOL    HW215080   1.407  10.197   2.755 -0.0556 -1.5323 -1.0162
 1681SOL     OW15081   1.460   2.469   1.077  0.3501 -0.9806 -0.5041
 1681SOL    HW115082   1.541   2.468   1.136  0.3965  1.6353 -0.4706
 1681SOL    HW215083   1.478   2.525   0.996 -1.9838  1.0899  0.3539
 1682SOL     OW15084   0.612   5.727   1.496  0.2198  0.7996 -0.4114
 1682SOL    HW115085   0.697   5.692   1.536 -0.6567  0.9266  1.6410
 1682SOL    HW215086   0.541   5.656   1.501 -0.3731  1.3992 -0.1773
 1683SOL     OW15087   9.136   3.910   1.526  0.0680  0.1626  0.1169
 1683SOL    HW115088   9.113   3.948   1.616 -0.7688 -0.4261  0.1573
 1683SOL    HW215089   9.229   3.939   1.501 -0.1782  1.4178  0.5784
 1684SOL     OW15090  10.137   2.324   1.723  0.1368 -0.1426 -0.1259
 1684SOL    HW115091  10.180   2.304   1.635 -0.3654 -0.2075 -0.3587
 1684SOL    HW215092  10.038   2.331   1.710  0.1903  1.2082  0.1851
 1685SOL     OW15093   2.592   7.361   0.354  0.4197 -1.0289 -0.3612
 1685SOL    HW115094   2.569   7.412   0.437  0.4030 -0.0779 -0.9400
 1685SOL    HW215095   2.519   7.296   0.334 -1.4473  1.3994 -1.7307
 1686SOL     OW15096   3.905   1.526   1.918  0.0195 -0.0325  0.1799
 1686SOL    HW115097   3.887   1.428   1.916 -2.0467  0.2562  1.8240
 1686SOL    HW215098   3.963   1.548   1.997  1.4479 -0.0585 -0.8515
 1687SOL     OW15099   1.464  10.173   0.448 -0.1664  0.2163  0.4696
 1687SOL    HW115100   1.364  10.178   0.447 -0.1431  0.7137 -0.5725
 1687SOL    HW215101   1.493  10.088   0.404 -0.1091  0.6004 -0.2390
 1688SOL     OW15102   2.284   8.032   0.478 -0.0568 -0.1718 -0.7670
 1688SOL    HW115103   2.249   8.091   0.551  1.4729 -0.2206  0.0342
 1688SOL    HW215104   2.329   7.952   0.518 -1.4344 -1.5111 -1.8394
 1689SOL     OW15105  10.205   4.357   2.198 -0.0447 -0.4750 -0.2387
 1689SOL    HW115106  10.249   4.443   2.170 -0.9917 -0.4754 -1.7921
 1689SOL    HW215107  10.264   4.309   2.263  1.3561  0.4574 -0.7971
 1690SOL     OW15108   0.770   0.870   0.337  0.2144 -0.5060 -0.4366
 1690SOL    HW115109   0.870   0.871   0.330  0.1715 -0.3128 -1.0744
 1690SOL    HW215110   0.743   0.855   0.432  0.8676  1.5755  0.1073
 1691SOL     OW15111   1.979   9.588   2.166  0.7449 -0.1617 -0.3995
 1691SOL    HW115112   2.033   9.671   2.148  1.4749 -0.3356  0.9227
 1691SOL    HW215113   2.027   9.531   2.233  0.0948 -1.5121 -1.0717
 1692SOL     OW15114   0.671   1.960   2.494 -0.5674  0.4326  0.6183
 1692SOL    HW115115   0.689   2.015   2.413 -1.0398 -0.5030 -0.1355
 1692SOL    HW215116   0.610   2.010   2.556 -0.3318  1.0844  0.3289
 1693SOL     OW15117   1.797   5.610   1.455  0.4026 -0.1160  0.0580
 1693SOL    HW115118   1.720   5.671   1.436  0.7782  0.1506 -0.6174
 1693SOL    HW215119   1.859   5.654   1.520 -1.8714 -1.8042  3.5474
 1694SOL     OW15120   9.891   5.505   1.780  0.1070 -0.4787 -0.2687
 1694SOL    HW115121   9.971   5.454   1.811  0.4049 -0.1821 -0.5393
 1694SOL    HW215122   9.901   5.602   1.804 -0.2179 -0.4601 -0.2057
 1695SOL     OW15123   1.349   1.207   1.219  0.1899  0.0886  0.4433
 1695SOL    HW115124   1.377   1.268   1.293 -0.1928  0.2687  0.4385
 1695SOL    HW215125   1.256   1.230   1.190  0.2254 -0.1835  0.1170
 1696SOL     OW15126   3.307   4.756   0.277 -0.6386 -0.5650  0.9091
 1696SOL    HW115127   3.231   4.781   0.216 -0.8008 -2.2079  0.4202
 1696SOL    HW215128   3.381   4.716   0.223  0.0578 -0.1638  1.5587
 1697SOL     OW15129   1.804   9.896   1.281 -0.2075 -0.8219  0.2987
 1697SOL    HW115130   1.830   9.802   1.262 -1.4072 -0.5512 -2.9502
 1697SOL    HW215131   1.855   9.958   1.221 -0.5076  0.5053  1.3701
 1698SOL     OW15132   8.484   2.408   0.895  0.2889  0.5529  0.1818
 1698SOL    HW115133   8.411   2.456   0.944 -1.0099 -1.5550  0.4036
 1698SOL    HW215134   8.570   2.418   0.944 -0.1934  1.7088  0.7969
 1699SOL     OW15135   4.235   4.001   0.808  0.2412  0.1862 -0.1478
 1699SOL    HW115136   4.193   3.920   0.767 -0.0136  0.8747 -1.2978
 1699SOL    HW215137   4.232   4.076   0.742 -0.7425  1.5214  1.3874
 1700SOL     OW15138   2.314   3.154   2.017  0.2407  0.8284 -0.7019
 1700SOL    HW115139   2.307   3.095   1.936  0.8301  0.7834 -0.7175
 1700SOL    HW215140   2.400   3.136   2.064 -0.9516 -0.5320  1.0231
 1701SOL     OW15141   9.768   3.602   1.026 -0.4846  0.6142  0.0145
 1701SOL    HW115142   9.737   3.591   1.120 -0.5900  1.2091  0.0456
 1701SOL    HW215143   9.697   3.646   0.971  0.4236  2.3274  0.1745
 1702SOL     OW15144   3.613  10.697   0.897  0.4215  0.2893  0.2067
 1702SOL    HW115145   3.633  10.733   0.806  1.0208 -1.3193 -0.3127
 1702SOL    HW215146   3.600  10.598   0.891 -1.9869  0.4863  1.4729
 1703SOL     OW15147   4.062   5.371   1.893 -0.2230  0.0599 -0.2999
 1703SOL    HW115148   4.118   5.433   1.948  0.6789 -0.5717 -0.4962
 1703SOL    HW215149   3.982   5.420   1.858 -0.3279  0.6960  0.8292
 1704SOL     OW15150   3.929   4.219   0.520  0.2770  0.0719  0.3841
 1704SOL    HW115151   4.002   4.240   0.585 -0.0918 -0.1440  0.8788
 1704SOL    HW215152   3.843   4.209   0.570  0.3558 -2.1322  0.1172
 1705SOL     OW15153   1.717   9.567   1.479  0.1385  0.0717 -0.7289
 1705SOL    HW115154   1.794   9.548   1.418  0.4473 -1.5310  0.1226
 1705SOL    HW215155   1.715   9.664   1.502  3.3096 -0.2367  1.0931
 1706SOL     OW15156   4.039   8.991   1.712  0.1577 -0.5615 -0.2917
 1706SOL    HW115157   3.971   9.063   1.724 -0.7382 -1.5110  0.5382
 1706SOL    HW215158   4.050   8.971   1.615 -0.1332  0.1744 -0.4804
 1707SOL     OW15159   3.515   6.015   1.332 -0.0179 -0.3757  0.2780
 1707SOL    HW115160   3.532   5.927   1.375  0.6972 -0.9326 -1.1137
 1707SOL    HW215161   3.431   6.055   1.369 -0.9914 -2.1829  0.0770
 1708SOL     OW15162   4.146   3.500   1.731  0.4165 -0.0783  0.2484
 1708SOL    HW115163   4.222   3.499   1.667 -0.5294 -1.0018 -0.8775
 1708SOL    HW215164   4.179   3.526   1.822  2.4541 -2.4617  0.2333
 1709SOL     OW15165   3.644   5.734   1.652 -0.2910 -0.3383  0.2202
 1709SOL    HW115166   3.594   5.732   1.565 -1.4496  0.0339  0.8722
 1709SOL    HW215167   3.626   5.820   1.699  0.4114 -0.4970  0.7922
 1710SOL     OW15168   0.637   2.512   1.233 -0.0174 -0.1890 -0.1910
 1710SOL    HW115169   0.629   2.414   1.217  0.3997 -0.5182  1.4433
 1710SOL    HW215170   0.730   2.542   1.213 -0.1411 -0.1286 -0.6768
 1711SOL     OW15171   1.311   9.146   2.128 -0.3166 -1.0735 -0.4720
 1711SOL    HW115172   1.359   9.074   2.178 -0.3535 -1.7618 -1.4146
 1711SOL    HW215173   1.349   9.154   2.036 -1.2402 -0.8382 -0.8408
 1712SOL     OW15174   4.248  10.037   0.983  0.3118  0.5293 -0.4941
 1712SOL    HW115175   4.189   9.983   0.924  1.3596  0.8565 -1.8874
 1712SOL    HW215176   4.308  10.094   0.926  0.7285  1.5121  0.9076
 1713SOL     OW15177   1.443   7.521   1.350 -0.3639 -0.2398  0.4409
 1713SOL    HW115178   1.398   7.471   1.424  1.2030 -1.3237  0.6807
 1713SOL    HW215179   1.501   7.593   1.388 -0.6752  0.1382  0.2036
 1714SOL     OW15180   2.113   3.702   0.269 -0.1016 -0.2408  0.1180
 1714SOL    HW115181   2.059   3.619   0.262  0.4463 -0.4925 -1.0912
 1714SOL    HW215182   2.107   3.737   0.363  0.8179 -2.4191  1.0246
 1715SOL     OW15183  10.049   3.171   0.946  0.1984 -0.0019 -0.0155
 1715SOL    HW115184  10.085   3.110   1.017  0.5934  1.0723  0.7063
 1715SOL    HW215185   9.980   3.121   0.892  0.6357 -1.1446  0.4545
 1716SOL     OW15186   1.688  10.667   0.980  0.4655 -0.1916 -0.2512
 1716SOL    HW115187   1.760  10.607   0.945 -0.3679 -0.7005 -1.1252
 1716SOL    HW215188   1.659  10.635   1.070  0.4317 -0.7423 -0.4585
 1717SOL     OW15189   1.428   8.895   1.269 -0.5469 -0.0861 -0.0806
 1717SOL    HW115190   1.502   8.923   1.207 -2.1668  1.3120 -1.4372
 1717SOL    HW215191   1.406   8.972   1.329 -1.6075 -0.1261 -0.4124
 1718SOL     OW15192   2.757   6.044   2.252 -0.1046  0.4716  0.1822
 1718SOL    HW115193   2.699   5.990   2.191 -0.7148  1.2309  0.0835
 1718SOL    HW215194   2.851   6.045   2.217  0.0579 -1.0775  0.5467
 1719SOL     OW15195   4.219   4.311   2.505 -0.5668  0.1730  0.2095
 1719SOL    HW115196   4.144   4.362   2.463 -0.6783  0.0415  0.2487
 1719SOL    HW215197   4.266   4.369   2.572 -0.0006  0.5875 -0.5342
 1720SOL     OW15198   1.785   5.701   2.331  0.1154 -0.4328  0.7039
 1720SOL    HW115199   1.733   5.766   2.387  0.8357 -0.8527  1.8866
 1720SOL    HW215200   1.874   5.741   2.310  0.0747 -0.5211  0.3743
 1721SOL     OW15201   2.568   5.444   2.315 -0.1454  0.3643 -0.1456
 1721SOL    HW115202   2.609   5.433   2.406  0.4612 -0.8484 -0.5442
 1721SOL    HW215203   2.560   5.354   2.272 -0.7869  0.8943 -1.1384
 1722SOL     OW15204   3.969   3.277   1.300 -0.5619  0.5401  0.0532
 1722SOL    HW115205   4.053   3.287   1.352 -1.4144  1.4537  1.2743
 1722SOL    HW215206   3.975   3.329   1.215  0.7232 -0.7176 -0.6298
 1723SOL     OW15207   1.054   7.318   1.735  0.0771  0.5406 -0.0495
 1723SOL    HW115208   1.043   7.219   1.722 -0.2902  0.5307  0.3087
 1723SOL    HW215209   0.983   7.351   1.796 -0.8139  1.3346 -1.5055
 1724SOL     OW15210   2.736   5.497   1.677  0.5868  0.1669  0.6471
 1724SOL    HW115211   2.726   5.478   1.579  0.3269 -0.6699  0.8298
 1724SOL    HW215212   2.813   5.559   1.692  0.9046 -0.0566 -0.0476
 1725SOL     OW15213   4.374   8.513   0.116  0.8676 -0.2041  0.8259
 1725SOL    HW115214   4.469   8.506   0.088  0.8661 -2.6410  1.3160
 1725SOL    HW215215   4.332   8.592   0.072  3.0312  0.7608  0.4136
 1726SOL     OW15216   4.322   9.393   2.646  0.6745  0.6152  0.4548
 1726SOL    HW115217   4.305   9.375   2.549  1.2649 -2.4740  0.8754
 1726SOL    HW215218   4.414   9.361   2.670  0.1815  0.4973  2.2280
 1727SOL     OW15219   2.260   6.720   2.588 -0.6332  0.5013  0.3800
 1727SOL    HW115220   2.350   6.756   2.615  0.7803 -1.8881 -0.9769
 1727SOL    HW215221   2.239   6.639   2.643 -1.5949  0.5748  0.1299
 1728SOL     OW15222   3.254  10.298   1.310 -0.6672 -0.0891 -0.2799
 1728SOL    HW115223   3.320  10.238   1.265 -0.8868  1.3363 -2.6003
 1728SOL    HW215224   3.164  10.287   1.267 -0.7497  1.7285 -0.6325
 1729SOL     OW15225   3.363   4.779   1.949  0.3614  0.4695  0.5163
 1729SOL    HW115226   3.404   4.690   1.926 -1.1952  0.6158 -3.2897
 1729SOL    HW215227   3.369   4.839   1.869  0.4336  3.4565  2.7157
 1730SOL     OW15228   3.432   8.878   0.624  0.7159  0.5938 -0.2745
 1730SOL    HW115229   3.382   8.794   0.645  2.5342 -0.9199 -1.7634
 1730SOL    HW215230   3.412   8.906   0.530  0.0950  1.8463  0.2274
 1731SOL     OW15231   4.319   8.533   1.726 -0.3417  0.2237  0.0538
 1731SOL    HW115232   4.235   8.533   1.780 -0.8019 -2.6570 -0.5834
 1731SOL    HW215233   4.371   8.450   1.745  0.7303  0.3817 -2.0278
 1732SOL     OW15234   0.960   5.066   2.212  0.5322 -0.0821  0.3555
 1732SOL    HW115235   1.027   5.135   2.238  0.0597  0.7198 -0.5371
 1732SOL    HW215236   0.868   5.103   2.224  0.2055 -1.4969  2.4768
 1733SOL     OW15237   9.208   3.307   1.681  0.2992  0.3516  0.3474
 1733SOL    HW115238   9.278   3.322   1.751 -0.3156  1.4371  0.7407
 1733SOL    HW215239   9.227   3.368   1.603 -0.5035  1.0204  0.6745
 1734SOL     OW15240   1.947   1.710   1.669 -0.0213 -0.2847  0.9062
 1734SOL    HW115241   1.986   1.796   1.704  0.6248 -0.2161  0.0267
 1734SOL    HW215242   1.965   1.636   1.734 -0.5882  0.2408  1.6743
 1735SOL     OW15243   9.559   4.778   0.825  0.2931 -0.3602  0.2545
 1735SOL    HW115244   9.479   4.790   0.884  0.0766  0.1915 -0.1430
 1735SOL    HW215245   9.585   4.681   0.824 -0.4586 -0.5715  0.2754
 1736SOL     OW15246   4.061   3.522   0.742  0.3081  0.8638 -0.2074
 1736SOL    HW115247   3.997   3.570   0.802 -1.5392 -1.2007 -0.4454
 1736SOL    HW215248   4.099   3.443   0.791  1.5703  1.2455 -0.5595
 1737SOL     OW15249   1.243   5.972   2.316  0.3120 -0.1693 -0.0657
 1737SOL    HW115250   1.340   5.986   2.295  0.8401 -1.4619  1.3982
 1737SOL    HW215251   1.212   6.042   2.379  0.1278  0.5923 -0.9924
 1738SOL     OW15252   2.766   9.248   0.780  0.3173  0.3354  0.0797
 1738SOL    HW115253   2.799   9.295   0.862  0.3930  1.8070 -0.7767
 1738SOL    HW215254   2.685   9.294   0.745 -0.4703 -1.0488  0.0334
 1739SOL     OW15255   1.266   3.632   1.198  0.3087 -0.0875  0.7479
 1739SOL    HW115256   1.222   3.614   1.110  1.2515 -1.5785  0.5579
 1739SOL    HW215257   1.206   3.688   1.255 -0.4139  0.6875 -0.7440
 1740SOL     OW15258   2.335   1.148   1.605  0.1644 -0.0662  0.5674
 1740SOL    HW115259   2.285   1.155   1.691 -0.3767 -1.3241  0.3770
 1740SOL    HW215260   2.320   1.057   1.565 -1.3575  1.2309 -1.9445
 1741SOL     OW15261   4.000   9.945   1.131 -0.2701  0.0207  0.3125
 1741SOL    HW115262   4.072  10.005   1.167 -1.1910  1.4531 -0.2080
 1741SOL    HW215263   4.031   9.904   1.045 -0.5455  1.6031 -0.5536
 1742SOL     OW15264   1.439   3.451   1.351 -0.0693  0.4298 -0.0532
 1742SOL    HW115265   1.389   3.520   1.298 -0.6449  0.6932  0.8278
 1742SOL    HW215266   1.532   3.442   1.314 -1.1772 -1.0286 -2.5404
 1743SOL     OW15267   1.591   5.294   2.367  0.0194  0.1305  0.2760
 1743SOL    HW115268   1.576   5.290   2.268 -1.3353  0.0850  0.4754
 1743SOL    HW215269   1.608   5.201   2.401 -1.1200 -0.0699  0.3201
 1744SOL     OW15270   2.613  10.252   2.078  0.0532  0.0231 -0.2116
 1744SOL    HW115271   2.692  10.191   2.070  0.4352  0.0523  2.9447
 1744SOL    HW215272   2.532  10.199   2.100  0.0914  0.4655  1.0251
 1745SOL     OW15273   1.152   3.734   1.690 -0.8694  0.0034 -0.2576
 1745SOL    HW115274   1.179   3.768   1.600  0.4240  1.2232  0.5603
 1745SOL    HW215275   1.228   3.746   1.754 -1.5757 -1.3694  0.8667
 1746SOL     OW15276   4.384   8.628   0.393 -0.4616  0.1540 -0.0612
 1746SOL    HW115277   4.405   8.576   0.310 -1.2102 -1.3164  0.6585
 1746SOL    HW215278   4.285   8.631   0.406 -0.3479  0.5196  0.7079
 1747SOL     OW15279   4.574   3.241   1.367 -0.5929 -0.0525 -0.3964
 1747SOL    HW115280   4.613   3.233   1.458  0.2985 -1.3646 -0.8777
 1747SOL    HW215281   4.475   3.253   1.373 -0.9381 -3.0816  0.6821
 1748SOL     OW15282   3.651   1.372   1.569 -0.2891 -0.1204 -0.4736
 1748SOL    HW115283   3.611   1.427   1.495 -0.4536  1.0261  0.4587
 1748SOL    HW215284   3.732   1.418   1.605 -0.8829 -0.1072  0.8510
 1749SOL     OW15285   1.986   4.706   1.456 -0.0966  0.0267  0.0074
 1749SOL    HW115286   2.031   4.784   1.412  2.8198 -0.8644  1.2609
 1749SOL    HW215287   2.026   4.621   1.421 -0.3540 -0.7708  1.5915
 1750SOL     OW15288   1.352   1.208   2.199 -0.0875 -0.4334 -0.1446
 1750SOL    HW115289   1.268   1.179   2.153 -1.0205  3.9465 -1.4931
 1750SOL    HW215290   1.332   1.230   2.294  0.0174 -1.4103  0.1097
 1751SOL     OW15291  10.422   2.728   2.232  0.1624 -0.0013 -0.0158
 1751SOL    HW115292  10.493   2.700   2.167  0.9836  1.3394  0.2647
 1751SOL    HW215293  10.439   2.823   2.260 -1.4046  0.1285  0.5299
 1752SOL     OW15294   2.419  10.695   1.245  0.3386  0.4859 -0.7436
 1752SOL    HW115295   2.496  10.640   1.278 -0.3819  0.7376  1.4473
 1752SOL    HW215296   2.453  10.784   1.215  0.7738  1.0870  1.4462
 1753SOL     OW15297   2.139  10.444   2.623 -0.5231 -0.9839  0.2844
 1753SOL    HW115298   2.156  10.395   2.709 -0.5317 -1.3911  0.0558
 1753SOL    HW215299   2.157  10.542   2.636  1.7152 -1.3536  0.1334
 1754SOL     OW15300   4.437  10.195   1.407 -0.1167 -0.3734  0.1768
 1754SOL    HW115301   4.369  10.182   1.479 -0.6344  0.2289 -0.2010
 1754SOL    HW215302   4.515  10.247   1.444  0.6298 -1.9465  0.8899
 1755SOL     OW15303   1.571   6.127   0.797  0.0411  0.4068 -0.2276
 1755SOL    HW115304   1.489   6.080   0.829  0.4893  0.9261  1.7478
 1755SOL    HW215305   1.579   6.116   0.698 -0.3060 -2.9515  0.0676
 1756SOL     OW15306   3.693   4.457   1.735  0.0007 -0.2624  0.0720
 1756SOL    HW115307   3.677   4.400   1.654  0.2708  1.5702 -1.3253
 1756SOL    HW215308   3.714   4.551   1.705 -0.3582  0.5465  2.3033
 1757SOL     OW15309   1.836   5.044   1.978  0.0230 -0.4252 -0.8414
 1757SOL    HW115310   1.756   5.011   2.029 -0.2056  0.4270 -0.6440
 1757SOL    HW215311   1.918   5.034   2.035 -0.1129 -0.2226 -0.6111
 1758SOL     OW15312   2.080   1.061   2.109  0.0190  0.4906 -0.0041
 1758SOL    HW115313   2.141   1.083   2.186  0.9910  1.1064 -0.9425
 1758SOL    HW215314   2.065   0.962   2.105  2.3944  0.1512 -0.8381
 1759SOL     OW15315   2.751   7.212   0.627  0.2298  0.4905  0.3135
 1759SOL    HW115316   2.711   7.301   0.605  1.5014  0.5691 -1.7782
 1759SOL    HW215317   2.737   7.149   0.551 -0.4706 -1.0511  1.6895
 1760SOL     OW15318   1.628   4.783   1.999 -0.0866  0.2821  0.8185
 1760SOL    HW115319   1.546   4.798   1.943 -0.4170  0.8697  1.4466
 1760SOL    HW215320   1.628   4.848   2.074  0.2035 -0.6940  1.6682
 1761SOL     OW15321   9.983   2.163   1.393 -0.8132  0.3700 -0.0182
 1761SOL    HW115322   9.949   2.256   1.379 -1.8102 -0.0745 -0.6657
 1761SOL    HW215323   9.928   2.100   1.338  0.5256 -0.4774 -0.4072
 1762SOL     OW15324  10.467   2.129   0.328 -0.0058  0.6448  0.8024
 1762SOL    HW115325  10.478   2.219   0.286 -1.2004  0.2253 -0.4441
 1762SOL    HW215326  10.518   2.126   0.414  1.2667  2.0116  0.1218
 1763SOL     OW15327   2.259   4.693   0.354  0.2732 -0.3483  0.0658
 1763SOL    HW115328   2.171   4.674   0.312  0.6327 -0.6135 -0.5773
 1763SOL    HW215329   2.253   4.775   0.410 -0.6358 -0.9186  0.8074
 1764SOL     OW15330   1.689  10.366   0.477  0.5702 -0.3060  0.5297
 1764SOL    HW115331   1.616  10.297   0.481 -1.2544  1.5855  1.1425
 1764SOL    HW215332   1.698  10.410   0.567  1.5003  0.4482  0.0795
 1765SOL     OW15333   2.583   9.319   0.272 -0.1246 -0.1036 -0.0176
 1765SOL    HW115334   2.605   9.226   0.301  1.0665 -0.2260 -1.2785
 1765SOL    HW215335   2.663   9.361   0.229 -1.3327  0.6795 -1.5646
 1766SOL     OW15336   2.194   1.641   0.695 -0.1901 -0.1825  1.1757
 1766SOL    HW115337   2.252   1.722   0.703  0.0535 -0.2174 -0.1132
 1766SOL    HW215338   2.248   1.559   0.712 -0.6748 -0.0303  3.5470
 1767SOL     OW15339   2.676   5.841   1.228  0.3153 -0.5328  0.5131
 1767SOL    HW115340   2.616   5.871   1.155  0.5038 -0.9310  0.1931
 1767SOL    HW215341   2.636   5.761   1.274 -0.0559  0.0321  1.1853
 1768SOL     OW15342   1.736   2.283   0.311 -0.3323  0.2380  0.1496
 1768SOL    HW115343   1.678   2.216   0.358  0.7297 -0.6729  0.1881
 1768SOL    HW215344   1.809   2.313   0.372  0.1806  0.1568 -0.4128
 1769SOL     OW15345   1.735   3.467   1.642 -0.0093  0.0864 -0.5035
 1769SOL    HW115346   1.714   3.565   1.642 -0.2531  0.0355 -0.7291
 1769SOL    HW215347   1.769   3.440   1.553  0.8250  0.1249 -0.1951
 1770SOL     OW15348  10.447   1.589   0.111 -0.1673 -0.4947  0.7793
 1770SOL    HW115349  10.386   1.542   0.047  0.9953 -0.0427 -0.6989
 1770SOL    HW215350  10.397   1.662   0.157 -0.6894 -0.0125 -0.5400
 1771SOL     OW15351   4.820   1.763   0.718  0.2278  0.3260 -0.1122
 1771SOL    HW115352   4.733   1.811   0.707 -0.8814 -1.3574  1.0766
 1771SOL    HW215353   4.873   1.807   0.790  0.0726  0.9498 -0.3744
 1772SOL     OW15354   1.633   8.114   1.732  0.1355 -0.6094  0.0762
 1772SOL    HW115355   1.692   8.183   1.691 -0.9160 -0.1586 -0.6978
 1772SOL    HW215356   1.546   8.110   1.683 -0.2176 -1.7584  0.7590
 1773SOL     OW15357   2.194   5.981   1.351 -0.1693  0.1437 -0.0353
 1773SOL    HW115358   2.172   6.013   1.259  0.0279  1.8804  0.5015
 1773SOL    HW215359   2.145   6.037   1.418 -0.3092 -1.1046  0.9335
 1774SOL     OW15360   2.109   9.148   2.079  0.3612  0.3451  0.1269
 1774SOL    HW115361   2.113   9.123   2.175 -0.0666  3.0099  0.8851
 1774SOL    HW215362   2.202   9.159   2.044  0.5063  0.7888  0.6419
 1775SOL     OW15363   1.987   3.916   1.115  0.0675 -0.3377  0.0047
 1775SOL    HW115364   2.012   3.984   1.047  1.3659 -0.2173  0.5932
 1775SOL    HW215365   1.898   3.939   1.154 -0.7524 -0.4915 -1.7401
 1776SOL     OW15366   4.108   2.052   2.359  0.1643  0.1289 -0.3036
 1776SOL    HW115367   4.202   2.065   2.326  0.3201 -1.7607 -0.6241
 1776SOL    HW215368   4.095   2.107   2.442  1.1756  1.3476 -0.9290
 1777SOL     OW15369   4.505   3.452   2.133  0.0705 -0.7067 -0.2427
 1777SOL    HW115370   4.541   3.482   2.044  0.3829 -0.6026 -0.0835
 1777SOL    HW215371   4.577   3.406   2.185  0.4173  0.8593  0.7028
 1778SOL     OW15372   1.408   5.794   1.846  0.2998  0.8352  0.0101
 1778SOL    HW115373   1.338   5.780   1.916  0.2864 -0.4967 -0.2578
 1778SOL    HW215374   1.488   5.737   1.866 -0.4312 -1.0129 -2.0263
 1779SOL     OW15375   4.209   9.051   1.035  1.0543  0.5858 -0.2330
 1779SOL    HW115376   4.143   9.028   0.963  0.4591 -0.7606  0.7244
 1779SOL    HW215377   4.161   9.092   1.112  1.4322  0.2626  0.1719
 1780SOL     OW15378   2.457  10.557   2.437 -0.3681 -0.2463 -0.0873
 1780SOL    HW115379   2.522  10.499   2.388 -0.5227 -0.9747  0.5596
 1780SOL    HW215380   2.502  10.601   2.514  0.0064  1.3074 -1.1573
 1781SOL     OW15381   3.729   3.169   0.501 -0.3149 -0.2421  0.4371
 1781SOL    HW115382   3.791   3.127   0.568 -1.3923 -0.6101  1.2313
 1781SOL    HW215383   3.749   3.266   0.493  0.5801 -0.4235  0.4407
 1782SOL     OW15384   1.134   3.982   2.256 -0.1500  0.2945  0.1789
 1782SOL    HW115385   1.224   3.943   2.273 -0.3280  0.1550  0.8093
 1782SOL    HW215386   1.116   4.054   2.323 -0.5441  0.2574  0.1140
 1783SOL     OW15387  10.441   3.901   0.109  0.0484  0.3083  0.4915
 1783SOL    HW115388  10.436   3.818   0.052  0.1679  0.5499  0.1252
 1783SOL    HW215389  10.379   3.970   0.071 -0.6132  0.1342  1.2205
 1784SOL     OW15390   2.566   8.611   2.179 -0.3555  0.3104  0.3790
 1784SOL    HW115391   2.650   8.557   2.174 -0.6886 -0.2586  0.9224
 1784SOL    HW215392   2.589   8.709   2.177  0.3411  0.1550  0.8542
 1785SOL     OW15393   2.518   9.274   2.208 -0.1650  0.7821 -0.3176
 1785SOL    HW115394   2.460   9.228   2.275  0.9481  2.0956  1.6092
 1785SOL    HW215395   2.462   9.333   2.150 -0.8086  2.0801  1.5585
 1786SOL     OW15396  10.344   3.610   0.604 -0.5565  0.1918  0.4429
 1786SOL    HW115397  10.337   3.573   0.511 -1.6142  1.2317  0.0917
 1786SOL    HW215398  10.399   3.549   0.661  0.2771 -0.3479 -0.9252
 1787SOL     OW15399   0.927   4.855   1.492 -0.4886 -0.1938 -0.5165
 1787SOL    HW115400   0.972   4.827   1.576 -2.8836 -0.6403  0.6553
 1787SOL    HW215401   0.897   4.950   1.500 -2.3370 -0.7776 -0.1007
 1788SOL     OW15402   1.834   2.719   0.367 -0.3467  0.1493 -0.0360
 1788SOL    HW115403   1.804   2.815   0.371 -0.1970  0.1428  1.5508
 1788SOL    HW215404   1.900   2.708   0.293 -0.6059  1.2034 -0.4370
 1789SOL     OW15405   4.339   0.902   1.961 -0.6726 -0.5537  0.2194
 1789SOL    HW115406   4.261   0.867   2.013 -1.4291 -1.5503 -1.5482
 1789SOL    HW215407   4.307   0.964   1.889  0.5558  2.9180  2.4954
 1790SOL     OW15408   1.101   7.161   0.915  0.0802  0.1876  0.0092
 1790SOL    HW115409   1.050   7.120   0.840  0.3873  1.1750 -0.7433
 1790SOL    HW215410   1.194   7.124   0.916 -0.0812 -0.2213  0.2407
 1791SOL     OW15411   4.069   4.795   1.091 -0.1479  0.7096 -0.0173
 1791SOL    HW115412   4.092   4.837   1.003 -1.5687  2.2699  0.3225
 1791SOL    HW215413   3.998   4.727   1.077 -0.2390  0.8221 -0.1102
 1792SOL     OW15414   3.506   7.896   1.083  0.0167  0.4530 -0.7845
 1792SOL    HW115415   3.489   7.876   0.987  2.3900 -0.8143 -0.9864
 1792SOL    HW215416   3.601   7.872   1.106 -0.6763  0.1555  1.9989
 1793SOL     OW15417   3.416   4.059   1.381  0.4626  0.2205  0.3670
 1793SOL    HW115418   3.367   4.021   1.303 -1.1710  2.1667  0.4002
 1793SOL    HW215419   3.413   3.994   1.457 -0.1864 -0.6111 -0.3600
 1794SOL     OW15420  10.455   3.007   2.641 -0.1466  0.0534 -0.0141
 1794SOL    HW115421  10.507   3.085   2.675  0.3386 -0.6614  0.9048
 1794SOL    HW215422  10.509   2.957   2.574 -0.3741  0.3747 -0.4400
 1795SOL     OW15423  10.200   0.974   2.030 -0.5548 -0.4019  0.2766
 1795SOL    HW115424  10.211   1.071   2.051 -1.8433  0.1763 -1.6680
 1795SOL    HW215425  10.104   0.948   2.040 -0.2738 -1.4069  0.4532
 1796SOL     OW15426   3.341   1.357   1.261 -0.2348  0.6826 -0.6606
 1796SOL    HW115427   3.409   1.287   1.283 -0.1024  0.8290 -0.5973
 1796SOL    HW215428   3.251   1.316   1.254 -0.1961  0.5485 -0.3660
 1797SOL     OW15429   4.356   1.890   1.659  0.3297 -0.2477  0.7195
 1797SOL    HW115430   4.386   1.869   1.566  1.1361  1.5613  0.5573
 1797SOL    HW215431   4.258   1.873   1.667  0.1994 -0.1233 -0.5375
 1798SOL     OW15432   3.892   2.613   1.773  0.3097 -0.6850  0.5885
 1798SOL    HW115433   3.793   2.607   1.787 -0.2640  0.0951 -2.7227
 1798SOL    HW215434   3.923   2.535   1.718  1.2528 -0.1133  0.2874
 1799SOL     OW15435   1.520   7.158   2.567 -0.8628 -0.0342 -0.5440
 1799SOL    HW115436   1.486   7.247   2.596 -2.2020 -0.3156 -1.2092
 1799SOL    HW215437   1.617   7.165   2.544 -0.5590  0.8870  0.9302
 1800SOL     OW15438   3.382   2.844   1.363 -0.1385 -0.0907 -0.1656
 1800SOL    HW115439   3.308   2.849   1.295 -0.8525  0.2828  0.6390
 1800SOL    HW215440   3.352   2.885   1.449  1.0576  0.1974  0.1286
 1801SOL     OW15441   9.936   0.931   2.009 -0.2641 -0.0047 -0.5553
 1801SOL    HW115442   9.864   0.985   1.966 -0.9448 -0.8034 -0.4357
 1801SOL    HW215443   9.951   0.847   1.957  1.1882  0.5583 -1.0689
 1802SOL     OW15444   1.403   4.370   2.593 -0.5428 -0.1755 -0.1768
 1802SOL    HW115445   1.431   4.459   2.628 -1.2605 -0.6256  1.5928
 1802SOL    HW215446   1.361   4.381   2.502 -1.2708  1.3757  0.3290
 1803SOL     OW15447   3.530   5.301   1.293 -0.1930 -0.2993 -0.0257
 1803SOL    HW115448   3.478   5.353   1.361 -0.3285 -1.3405  0.6717
 1803SOL    HW215449   3.468   5.267   1.223 -0.6185 -2.2902  1.2774
 1804SOL     OW15450   0.718   6.190   2.316 -0.9345  0.2231 -0.2584
 1804SOL    HW115451   0.650   6.257   2.287  0.0384  1.2188 -0.3176
 1804SOL    HW215452   0.727   6.119   2.247 -0.4072  1.2403 -1.2555
 1805SOL     OW15453   2.710   8.239   1.311  0.1592 -0.5037 -0.0795
 1805SOL    HW115454   2.622   8.249   1.357 -1.4370 -2.7893 -2.5037
 1805SOL    HW215455   2.734   8.325   1.266 -0.9331  0.0523  0.3853
 1806SOL     OW15456   3.285   4.616   0.515  0.0135  0.3876  0.1653
 1806SOL    HW115457   3.270   4.675   0.436 -2.6475  2.8406  2.3819
 1806SOL    HW215458   3.382   4.615   0.538  0.2624  3.0989 -0.5941
 1807SOL     OW15459   1.550   1.758   2.390  0.2800  0.0176 -0.1418
 1807SOL    HW115460   1.604   1.824   2.442  0.6792 -1.5465  1.5256
 1807SOL    HW215461   1.485   1.714   2.451  0.3281 -1.4308 -1.1030
 1808SOL     OW15462   2.855  10.126   2.143  0.1418 -0.3109 -0.1551
 1808SOL    HW115463   2.816  10.157   2.230  0.3046 -0.6955  0.0579
 1808SOL    HW215464   2.825  10.032   2.126  0.3646 -0.3425 -0.3651
 1809SOL     OW15465   4.666   2.529   0.869 -0.2863 -0.8896 -1.2902
 1809SOL    HW115466   4.574   2.552   0.901  1.2298  1.6460  1.4775
 1809SOL    HW215467   4.678   2.562   0.775 -1.3555  1.2169 -0.7212
 1810SOL     OW15468   3.628   1.441   0.383  0.3048  0.5275  0.0257
 1810SOL    HW115469   3.684   1.522   0.369  1.1418 -0.1182 -0.4058
 1810SOL    HW215470   3.582   1.417   0.297 -1.2636  1.4947  0.5550
 1811SOL     OW15471  10.271   5.749   1.007 -0.1451  0.7767  0.4019
 1811SOL    HW115472  10.323   5.746   0.922  0.8772  3.0372  0.9191
 1811SOL    HW215473  10.177   5.720   0.989  0.5419 -0.6528 -1.0912
 1812SOL     OW15474   2.949   4.794   1.849  0.2774 -0.3821 -0.4253
 1812SOL    HW115475   2.928   4.699   1.874 -1.6933  0.2487  0.3245
 1812SOL    HW215476   3.023   4.828   1.907 -0.0920 -0.9346  0.3799
 1813SOL     OW15477  10.146   4.806   0.876 -0.3973 -0.3537 -0.2611
 1813SOL    HW115478  10.062   4.774   0.833  0.8790 -2.9421 -0.9221
 1813SOL    HW215479  10.209   4.838   0.805  0.5645 -1.8395 -0.0934
 1814SOL     OW15480   5.115   3.615   0.897 -0.1998 -0.0772 -0.2694
 1814SOL    HW115481   5.122   3.641   0.993  0.5737 -1.1760 -0.0293
 1814SOL    HW215482   5.197   3.565   0.869  0.5462  2.0757 -2.0831
 1815SOL     OW15483   4.796   3.358   2.147 -0.0062 -0.0208 -0.1193
 1815SOL    HW115484   4.790   3.325   2.053 -3.4417  1.0333 -0.3427
 1815SOL    HW215485   4.826   3.453   2.146 -1.5821  0.4920 -0.2974
 1816SOL     OW15486   1.321   7.962   1.496  0.0740  0.2393  0.2157
 1816SOL    HW115487   1.357   8.055   1.498 -1.4022  0.8206  0.7055
 1816SOL    HW215488   1.266   7.945   1.578  3.5538 -2.4413  2.1050
 1817SOL     OW15489   2.694   9.396   2.554  0.4193 -0.3765  0.0839
 1817SOL    HW115490   2.673   9.418   2.459 -1.2806 -1.0344  0.2943
 1817SOL    HW215491   2.770   9.453   2.585 -0.5173  1.4852 -0.9594
 1818SOL     OW15492   2.217   5.255   1.038  0.3359  0.2804  0.1562
 1818SOL    HW115493   2.197   5.286   0.945 -1.6417  0.5953  0.6642
 1818SOL    HW215494   2.154   5.299   1.102  1.3913 -0.2785  1.5937
 1819SOL     OW15495   3.212   1.793   0.734 -0.0451  0.3299  0.6764
 1819SOL    HW115496   3.156   1.871   0.761 -1.0508 -1.1878  3.1273
 1819SOL    HW215497   3.156   1.729   0.681  0.1084  0.0772  0.8197
 1820SOL     OW15498  10.215   1.451   0.527 -0.8345  0.0155 -0.4242
 1820SOL    HW115499  10.206   1.535   0.474 -2.3785 -0.0374 -0.2654
 1820SOL    HW215500  10.256   1.473   0.616  1.2654  0.1772 -1.3903
 1821SOL     OW15501  10.567   5.371   1.901  0.5549  0.1698  0.5749
 1821SOL    HW115502  10.620   5.288   1.920  0.7713  0.1927  0.0968
 1821SOL    HW215503  10.622   5.433   1.846 -0.7832 -0.8215 -1.9960
 1822SOL     OW15504   1.765   3.854   1.303 -0.0113  0.8015  0.1844
 1822SOL    HW115505   1.713   3.928   1.347 -1.0755  1.0565 -1.4568
 1822SOL    HW215506   1.703   3.796   1.251  0.4846 -2.6108  3.2255
 1823SOL     OW15507   3.947   5.640   0.364 -0.1773 -0.2576  0.1881
 1823SOL    HW115508   3.884   5.651   0.287  1.2302 -0.9407 -1.0841
 1823SOL    HW215509   3.973   5.731   0.399 -1.3932  0.0357  0.3525
 1824SOL     OW15510   4.141   3.792   1.091  0.4457 -0.2997  0.0644
 1824SOL    HW115511   4.194   3.849   1.154  0.8145 -2.3776  1.6947
 1824SOL    HW215512   4.203   3.734   1.038  0.1104  1.1872 -1.9919
 1825SOL     OW15513   3.687   1.319   0.988 -0.4041  0.0354  0.2726
 1825SOL    HW115514   3.672   1.412   1.022 -0.0819 -0.6429  2.3386
 1825SOL    HW215515   3.617   1.296   0.920 -2.2557  0.7394  1.9073
 1826SOL     OW15516   0.882   5.913   0.143 -0.2569 -0.2962  0.2995
 1826SOL    HW115517   0.783   5.894   0.139 -0.2660 -0.3142  0.6043
 1826SOL    HW215518   0.902   5.995   0.090 -0.4290 -0.3273  0.1857
 1827SOL     OW15519   3.216   2.922   1.700  0.6729 -0.1199 -0.1567
 1827SOL    HW115520   3.269   3.001   1.733 -0.5678  1.8530 -2.7477
 1827SOL    HW215521   3.119   2.946   1.698  0.1290 -2.2333  0.3980
 1828SOL     OW15522   9.400   3.715   0.168  0.1296 -0.1615  0.3178
 1828SOL    HW115523   9.326   3.766   0.123 -0.2759  0.3474  1.5350
 1828SOL    HW215524   9.476   3.703   0.104 -0.5566  0.2992 -0.5918
 1829SOL     OW15525   3.404   5.584   2.581  0.2795 -0.0882 -0.1458
 1829SOL    HW115526   3.397   5.530   2.665 -1.0737  1.4168  0.7402
 1829SOL    HW215527   3.313   5.600   2.544  0.5078  2.6392  0.3410
 1830SOL     OW15528   1.405   6.296   1.777 -0.0857 -0.2834  0.1480
 1830SOL    HW115529   1.434   6.250   1.861  0.4278 -0.3283 -0.0502
 1830SOL    HW215530   1.445   6.249   1.698  1.2282  1.0483 -0.0153
 1831SOL     OW15531   1.786   1.072   0.816  0.4185 -0.2930 -0.0077
 1831SOL    HW115532   1.795   1.020   0.731  2.2162  0.5969 -0.3896
 1831SOL    HW215533   1.707   1.134   0.809  0.7229 -0.0105 -1.1557
 1832SOL     OW15534   2.770   8.756   1.163  0.0840 -0.0762  0.7085
 1832SOL    HW115535   2.819   8.770   1.077 -0.7246 -1.0295  0.0714
 1832SOL    HW215536   2.725   8.840   1.190 -0.5300 -0.0538 -0.3655
 1833SOL     OW15537   8.890   2.398   1.341 -0.9137 -0.2039 -0.5898
 1833SOL    HW115538   8.924   2.457   1.268 -0.5873  1.2734  0.7269
 1833SOL    HW215539   8.940   2.312   1.339  0.9886  0.8721 -0.4263
 1834SOL     OW15540   1.473   1.313   0.212 -0.3720 -0.0362  0.0645
 1834SOL    HW115541   1.418   1.230   0.216 -1.3355  0.5952  0.0962
 1834SOL    HW215542   1.559   1.294   0.164 -1.0429 -0.7813 -0.8567
 1835SOL     OW15543   0.946   1.900   1.982  0.4756  0.2402  0.6936
 1835SOL    HW115544   0.850   1.898   1.953  1.0617  1.7954 -1.5310
 1835SOL    HW215545   0.986   1.809   1.971 -0.2343  0.0231 -0.1747
 1836SOL     OW15546   2.347   8.309   2.111  0.2940  0.3601  0.0032
 1836SOL    HW115547   2.438   8.268   2.111  0.0604 -0.1696 -0.1599
 1836SOL    HW215548   2.346   8.390   2.170  1.3838  1.5227 -1.5296
 1837SOL     OW15549   2.233  10.076   1.944 -0.0555 -0.2744  0.2951
 1837SOL    HW115550   2.137  10.079   1.915 -0.1721  1.9845  0.8477
 1837SOL    HW215551   2.281  10.157   1.910  0.4928  1.0304  3.9374
 1838SOL     OW15552   4.811   0.814   1.829 -0.0862 -0.4061  0.6227
 1838SOL    HW115553   4.761   0.899   1.844 -0.1278 -0.6163  1.7002
 1838SOL    HW215554   4.852   0.783   1.915 -1.7383 -2.5256  0.6887
 1839SOL     OW15555   2.173   1.664   2.078 -0.2705 -0.1840 -0.5085
 1839SOL    HW115556   2.134   1.746   2.036 -1.6500  0.1370  1.3675
 1839SOL    HW215557   2.273   1.667   2.070 -0.2594  2.0230  0.1477
 1840SOL     OW15558  10.351   1.988   1.724 -0.2707  0.0428  0.1545
 1840SOL    HW115559  10.421   2.051   1.756  0.4449 -1.3135  1.3359
 1840SOL    HW215560  10.290   2.035   1.660  1.9468  1.1329 -1.2315
 1841SOL     OW15561   3.248   5.434   2.063 -0.2326 -0.2898  0.1644
 1841SOL    HW115562   3.192   5.466   2.139 -1.1834 -2.3801  0.3689
 1841SOL    HW215563   3.343   5.428   2.093 -0.5662 -0.8796  1.1246
 1842SOL     OW15564   2.990   1.111   1.947  0.1388  0.1154 -0.2417
 1842SOL    HW115565   3.048   1.191   1.966 -0.1416  0.6329 -1.5136
 1842SOL    HW215566   2.983   1.055   2.030  0.0621  1.5852  0.7761
 1843SOL     OW15567   2.478   1.856   0.438 -0.0019  0.1892  0.0339
 1843SOL    HW115568   2.437   1.927   0.494 -0.7519 -0.5808  0.4640
 1843SOL    HW215569   2.406   1.804   0.391  0.5636  0.1134 -0.7685
 1844SOL     OW15570   4.846   8.885   0.988 -0.2726  0.0144 -0.0901
 1844SOL    HW115571   4.818   8.791   0.966  0.3278 -0.1172 -0.3080
 1844SOL    HW215572   4.795   8.949   0.931  0.8181 -0.2972 -1.4650
 1845SOL     OW15573   2.422   5.298   1.403 -0.3087 -0.0520 -0.2663
 1845SOL    HW115574   2.440   5.346   1.318  0.5130  0.9446  0.4497
 1845SOL    HW215575   2.457   5.205   1.398  0.9458  0.4344 -0.5356
 1846SOL     OW15576   4.200  10.240   1.777 -0.6033 -0.0732 -0.6288
 1846SOL    HW115577   4.239  10.328   1.749 -1.3650  0.0903 -1.1752
 1846SOL    HW215578   4.222  10.171   1.709  1.1428 -0.6181  0.4561
 1847SOL     OW15579   2.749   2.851   1.739  0.3645  0.2956  0.2924
 1847SOL    HW115580   2.819   2.919   1.761  1.2011 -0.1171 -1.0677
 1847SOL    HW215581   2.706   2.875   1.652 -1.5426  0.8148  1.3539
 1848SOL     OW15582   9.449   5.484   2.220 -0.1246 -0.1762 -0.0463
 1848SOL    HW115583   9.461   5.399   2.167  0.4817  0.8304 -1.5633
 1848SOL    HW215584   9.476   5.562   2.164 -3.3802  1.2920  0.3213
 1849SOL     OW15585   2.390   1.059   1.953  0.4083 -0.1885  0.2415
 1849SOL    HW115586   2.410   0.965   1.926  1.0317 -0.3793  1.3570
 1849SOL    HW215587   2.291   1.072   1.954  0.2473 -1.3684  1.8134
 1850SOL     OW15588   3.132   4.924   0.125 -0.2320 -0.0082 -0.0357
 1850SOL    HW115589   3.122   4.889   0.031 -0.7815  0.6295 -0.2191
 1850SOL    HW215590   3.122   5.024   0.124  0.8188  0.1049  0.5533
 1851SOL     OW15591   9.417   1.782   2.295 -0.0398  0.1911 -0.4238
 1851SOL    HW115592   9.412   1.878   2.268 -0.2746  0.2693 -0.1083
 1851SOL    HW215593   9.324   1.744   2.301  0.1450 -1.0670 -4.0985
 1852SOL     OW15594   2.610   7.237   2.129  0.0841  0.5659  0.1914
 1852SOL    HW115595   2.698   7.241   2.080  1.2533 -2.7869  1.8643
 1852SOL    HW215596   2.624   7.260   2.225 -0.6671 -0.9338  0.6781
 1853SOL     OW15597   1.719   3.773   0.624  0.0491 -0.1967  0.0204
 1853SOL    HW115598   1.743   3.680   0.596  0.3387 -0.5516  1.4031
 1853SOL    HW215599   1.623   3.775   0.652  0.0422 -0.0750 -0.0115
 1854SOL     OW15600   1.482   2.393   0.531 -0.2551 -0.0753 -0.3863
 1854SOL    HW115601   1.517   2.440   0.451 -1.3269 -1.4079 -1.6685
 1854SOL    HW215602   1.442   2.459   0.594 -0.5854  0.8521 -1.5515
 1855SOL     OW15603   1.638   9.928   1.037  0.0765 -0.3246  0.0305
 1855SOL    HW115604   1.611   9.842   0.993  0.7773 -0.4934 -0.0749
 1855SOL    HW215605   1.670   9.910   1.130  1.5662 -0.3630 -0.4762
 1856SOL     OW15606   4.464   3.719   1.142  0.3034  0.1341  0.1613
 1856SOL    HW115607   4.531   3.646   1.130 -0.3495 -0.0660 -2.7396
 1856SOL    HW215608   4.456   3.772   1.058 -2.1150  1.0636  0.9046
 1857SOL     OW15609   4.139   8.951   0.249  0.5506  0.2233 -0.2135
 1857SOL    HW115610   4.234   8.944   0.220  0.8791 -0.1517  0.9317
 1857SOL    HW215611   4.099   9.036   0.215  0.7224 -0.5212 -2.3136
 1858SOL     OW15612   2.384  10.109   2.172  0.3668  0.4208 -0.1884
 1858SOL    HW115613   2.411  10.026   2.221 -2.0589  1.4353  3.0043
 1858SOL    HW215614   2.321  10.084   2.097 -2.0056 -0.5257  2.0274
 1859SOL     OW15615   4.957   4.562   0.202 -0.0205  0.1244  0.4815
 1859SOL    HW115616   5.036   4.504   0.224 -0.3135 -0.8554 -1.0054
 1859SOL    HW215617   4.915   4.594   0.287  0.6598 -1.1424  1.3159
 1860SOL     OW15618   1.462   8.475   1.540 -0.3789 -0.0030  0.1827
 1860SOL    HW115619   1.491   8.511   1.451  1.6877  0.9476  1.1853
 1860SOL    HW215620   1.395   8.537   1.580  1.1436  1.3621  0.7008
 1861SOL     OW15621   3.894  10.588   1.841  0.0527 -0.2141  0.0197
 1861SOL    HW115622   3.935  10.653   1.906 -0.4348  0.1481 -0.0322
 1861SOL    HW215623   3.934  10.602   1.751 -0.7949  0.7252 -0.2219
 1862SOL     OW15624   3.037   5.946   2.214  0.2801 -0.4351  0.0954
 1862SOL    HW115625   3.093   5.971   2.135  2.8056 -1.7246  1.4203
 1862SOL    HW215626   2.995   5.857   2.199  1.1944 -0.9242  0.4046
 1863SOL     OW15627  10.121   5.892   0.493 -0.3344  0.5205 -0.6450
 1863SOL    HW115628  10.147   5.976   0.541 -1.1187 -0.8800  2.3725
 1863SOL    HW215629  10.022   5.892   0.478 -0.8226 -1.0980  2.0727
 1864SOL     OW15630   8.928   2.140   0.163 -0.4502 -0.0563 -0.2927
 1864SOL    HW115631   9.026   2.120   0.161 -0.5705 -0.7678  0.6881
 1864SOL    HW215632   8.902   2.169   0.255 -1.5385 -1.8095 -0.0306
 1865SOL     OW15633   3.585   2.041   1.049 -0.1932 -0.5318  0.2223
 1865SOL    HW115634   3.682   2.030   1.025  0.0331 -0.9613  1.2895
 1865SOL    HW215635   3.577   2.059   1.147 -1.2068 -0.5235  0.1447
 1866SOL     OW15636   1.869   7.779   1.470 -0.4920 -0.0623  0.5599
 1866SOL    HW115637   1.889   7.818   1.380 -0.8436 -0.8018  0.1510
 1866SOL    HW215638   1.953   7.775   1.524 -0.5364  1.6834  0.7924
 1867SOL     OW15639   1.828   4.734   2.577 -0.5905  0.0773  0.5948
 1867SOL    HW115640   1.736   4.709   2.546 -0.4221 -0.2396  0.3493
 1867SOL    HW215641   1.896   4.692   2.517 -0.2958  0.7659  0.4431
 1868SOL     OW15642   4.078  10.381   2.187 -0.2340 -0.1493 -0.6129
 1868SOL    HW115643   4.172  10.416   2.188 -0.2654 -0.0358 -1.5032
 1868SOL    HW215644   4.068  10.316   2.112 -0.4818 -1.2398  0.3391
 1869SOL     OW15645   3.771   2.014   1.613  0.0763  0.4467  0.1925
 1869SOL    HW115646   3.738   2.063   1.533 -1.6351 -0.1526  0.5084
 1869SOL    HW215647   3.795   2.080   1.685  2.2551  1.0194 -1.0103
 1870SOL     OW15648   1.205   7.425   1.505  0.0312 -0.0600  0.5072
 1870SOL    HW115649   1.171   7.418   1.411 -1.1100  1.4568  0.7788
 1870SOL    HW215650   1.144   7.376   1.567 -0.5490  0.9397  0.7402
 1871SOL     OW15651   1.214   8.571   1.947 -0.6463  0.2153  0.5967
 1871SOL    HW115652   1.170   8.613   2.026 -1.9582 -0.3825  0.2141
 1871SOL    HW215653   1.313   8.576   1.956 -0.7820 -0.6074  2.6890
 1872SOL     OW15654   2.826   4.963   1.077 -0.3376 -0.0550 -0.2451
 1872SOL    HW115655   2.852   4.882   1.130 -1.9504 -0.3444  0.1570
 1872SOL    HW215656   2.803   4.936   0.984 -2.6868 -0.3872  0.3887
 1873SOL     OW15657  10.534   3.755   0.339 -0.0299  0.4941 -0.1769
 1873SOL    HW115658  10.516   3.803   0.253 -1.1727  1.3092  0.5046
 1873SOL    HW215659  10.461   3.776   0.405  0.6402 -0.4108  0.8692
 1874SOL     OW15660   9.952   3.020   0.573  0.3658  0.0683 -0.3818
 1874SOL    HW115661   9.938   2.921   0.568  0.1347 -0.0708  2.0830
 1874SOL    HW215662   9.916   3.054   0.661  0.8981  2.2601 -0.9767
 1875SOL     OW15663   2.545   8.685   2.650  0.4458 -0.3246 -0.0528
 1875SOL    HW115664   2.548   8.617   2.724  0.0409 -0.7790 -0.4500
 1875SOL    HW215665   2.483   8.653   2.578 -1.3245  1.4101  0.6719
 1876SOL     OW15666   1.959   7.054   1.472  0.3557 -0.4039  0.1049
 1876SOL    HW115667   1.991   6.991   1.542 -0.0874  0.6751  1.2904
 1876SOL    HW215668   1.884   7.109   1.508  1.5955  1.7372 -0.4818
 1877SOL     OW15669   3.652   0.762   1.952  1.0177  0.0733  0.5748
 1877SOL    HW115670   3.711   0.840   1.930 -0.8618  1.0388 -1.1949
 1877SOL    HW215671   3.609   0.778   2.041 -0.2379  1.6221 -0.2892
 1878SOL     OW15672   2.070   2.379   1.060 -0.0068 -0.5170  0.2767
 1878SOL    HW115673   2.038   2.313   1.129 -2.1051  0.4498  0.2625
 1878SOL    HW215674   2.169   2.391   1.070  0.1117 -2.2207  1.5213
 1879SOL     OW15675   9.060   2.781   0.133  0.1572 -0.3560  0.0359
 1879SOL    HW115676   9.137   2.748   0.078  0.2156 -2.9798  1.5914
 1879SOL    HW215677   9.093   2.839   0.207  0.5212 -0.4993 -0.0144
 1880SOL     OW15678   1.126   7.610   1.827  0.0586  0.6462  0.1444
 1880SOL    HW115679   1.133   7.675   1.903  1.0198  0.5792  0.1171
 1880SOL    HW215680   1.057   7.541   1.850 -0.3191  1.1520  0.5606
 1881SOL     OW15681   3.532   0.723   1.397 -0.2023  0.4186 -0.4202
 1881SOL    HW115682   3.556   0.690   1.489 -0.4155 -1.1798 -0.9122
 1881SOL    HW215683   3.448   0.677   1.367  0.7201 -0.2473 -2.0294
 1882SOL     OW15684   8.890   2.959   0.475 -0.1820 -0.5111 -0.2665
 1882SOL    HW115685   8.836   2.944   0.393 -0.3551 -0.6037 -0.1379
 1882SOL    HW215686   8.853   3.036   0.527  0.0969 -0.2749 -0.4177
 1883SOL     OW15687   2.928  10.183   0.296  0.1544  0.0028  0.0215
 1883SOL    HW115688   2.893  10.249   0.229 -0.5883  0.1083  0.4994
 1883SOL    HW215689   2.978  10.111   0.249 -0.4322  0.0317 -0.6549
 1884SOL     OW15690   1.505   8.213   1.002  0.2951 -0.2297 -0.1787
 1884SOL    HW115691   1.426   8.151   1.011  0.6335 -0.7070 -0.4644
 1884SOL    HW215692   1.521   8.231   0.905  1.7091 -1.6586 -0.2290
 1885SOL     OW15693   2.756   2.579   0.725  0.2604  0.8321 -0.1997
 1885SOL    HW115694   2.802   2.525   0.655 -0.1472 -0.2094  0.3210
 1885SOL    HW215695   2.671   2.533   0.752  0.9544  0.6354  1.7530
 1886SOL     OW15696   1.671  10.447   0.164  0.4235 -0.4883 -0.1894
 1886SOL    HW115697   1.632  10.382   0.229  2.7813 -0.6534  1.1145
 1886SOL    HW215698   1.669  10.407   0.072 -1.0631 -1.0895  0.0868
 1887SOL     OW15699   9.514   4.910   2.688 -0.3902  0.4100 -0.2274
 1887SOL    HW115700   9.426   4.926   2.644 -0.6446 -1.3719 -0.3961
 1887SOL    HW215701   9.518   4.962   2.774 -2.5818 -1.3176  0.9835
 1888SOL     OW15702  10.138   2.194   0.404 -0.0108  0.1612 -0.0845
 1888SOL    HW115703  10.094   2.284   0.396 -1.2902 -0.4842 -0.3311
 1888SOL    HW215704  10.228   2.205   0.447  0.6458  1.8147 -1.7577
 1889SOL     OW15705   2.060   1.946   1.736 -0.3146 -0.3215  0.0065
 1889SOL    HW115706   2.140   1.997   1.769 -1.4089 -0.0327  2.3253
 1889SOL    HW215707   2.007   2.004   1.674  0.0610  0.2943  0.2555
 1890SOL     OW15708   1.741   4.110   0.853 -0.4281 -0.1595  0.3144
 1890SOL    HW115709   1.717   4.148   0.942 -1.1965  0.4484 -0.1376
 1890SOL    HW215710   1.768   4.015   0.863  0.4532  0.1930  1.3250
 1891SOL     OW15711  10.504   2.082   0.935 -0.4939 -0.4027  0.3064
 1891SOL    HW115712  10.578   2.105   0.872  0.0717 -2.9064  0.0278
 1891SOL    HW215713  10.431   2.151   0.926  0.4627  0.4106 -1.5945
 1892SOL     OW15714   3.889   3.671   1.967 -0.1428 -0.0803  0.1240
 1892SOL    HW115715   3.911   3.602   2.037 -2.8868  0.9715  2.1181
 1892SOL    HW215716   3.823   3.632   1.903 -0.9401  0.3622  0.6738
 1893SOL     OW15717   2.872   7.443   2.166  0.0860  0.0210 -0.3195
 1893SOL    HW115718   2.800   7.499   2.206 -1.6622 -2.5973  0.2985
 1893SOL    HW215719   2.889   7.474   2.072 -0.3497  1.9918  0.2158
 1894SOL     OW15720   0.954   0.812   1.039  0.0392 -0.0984 -0.2403
 1894SOL    HW115721   0.896   0.737   1.068 -1.8740  1.1746 -0.7123
 1894SOL    HW215722   1.015   0.781   0.965  0.5474 -1.6378  0.8178
 1895SOL     OW15723   4.703   3.552   1.925  0.0616 -0.0143 -0.1757
 1895SOL    HW115724   4.796   3.587   1.932 -0.2725  0.6304  1.2347
 1895SOL    HW215725   4.645   3.619   1.878  0.3969 -0.6089 -1.4572
 1896SOL     OW15726   3.307   8.834   1.677 -0.2694  0.0864 -0.3066
 1896SOL    HW115727   3.328   8.884   1.593 -1.1915  0.9937  0.0027
 1896SOL    HW215728   3.223   8.781   1.664 -0.1039 -0.2181 -0.1409
 1897SOL     OW15729   9.458   4.226   0.999 -0.0963  0.2431  0.3345
 1897SOL    HW115730   9.443   4.308   0.944 -2.5606 -0.5064 -0.1325
 1897SOL    HW215731   9.418   4.238   1.090  0.1141 -0.1930  0.4889
 1898SOL     OW15732   9.561   4.131   1.668 -0.6055 -0.5600 -0.5378
 1898SOL    HW115733   9.521   4.060   1.727 -1.5978 -0.0716 -0.6324
 1898SOL    HW215734   9.513   4.217   1.682  1.1274  0.3181  0.1780
 1899SOL     OW15735   2.212   7.399   0.945 -0.3887 -0.1960 -0.4619
 1899SOL    HW115736   2.133   7.390   0.885  0.3205 -3.4716 -0.9571
 1899SOL    HW215737   2.228   7.313   0.993  2.1445  0.7995  0.5764
 1900SOL     OW15738   3.441   4.771   2.196 -0.1996  0.4670  0.3762
 1900SOL    HW115739   3.446   4.680   2.236  0.0057 -0.4129 -1.6031
 1900SOL    HW215740   3.396   4.767   2.107  0.0912  2.2427  0.1160
 1901SOL     OW15741   1.617   5.117   0.895 -0.2004 -0.5661  0.4761
 1901SOL    HW115742   1.676   5.046   0.858 -0.1978  0.2072 -1.0398
 1901SOL    HW215743   1.649   5.207   0.864 -2.5099 -0.1791 -0.8963
 1902SOL     OW15744   2.934   9.110   1.096  0.2337  0.1802 -0.2307
 1902SOL    HW115745   2.866   9.069   1.036 -0.6324  2.2074 -0.6400
 1902SOL    HW215746   3.019   9.125   1.045  0.5783 -1.1158 -0.0651
 1903SOL     OW15747   2.177   1.244   0.976  0.0265 -0.2698  0.1961
 1903SOL    HW115748   2.191   1.171   0.909 -1.1015 -0.8705  0.6029
 1903SOL    HW215749   2.078   1.257   0.990  0.2146  1.4572 -0.0183
 1904SOL     OW15750   9.251   2.826   2.530 -0.3409  0.0693 -0.3754
 1904SOL    HW115751   9.276   2.919   2.504 -0.0590 -0.4635 -2.0099
 1904SOL    HW215752   9.224   2.774   2.449 -0.2337 -1.3642  0.4896
 1905SOL     OW15753   1.158   5.687   1.412  0.3706 -0.1679  0.1201
 1905SOL    HW115754   1.103   5.624   1.357  1.1743 -0.5576 -0.2331
 1905SOL    HW215755   1.171   5.773   1.362 -2.2773  1.0117  1.3388
 1906SOL     OW15756   0.981   7.556   1.050 -0.0220 -0.4859 -0.3906
 1906SOL    HW115757   0.949   7.626   1.115  3.6178 -0.0457  1.0868
 1906SOL    HW215758   0.978   7.593   0.957 -1.2330  0.4461 -0.0001
 1907SOL     OW15759  10.322   2.389   1.890 -0.1263  0.1093  0.0065
 1907SOL    HW115760  10.364   2.477   1.867 -1.7263  0.8569 -0.0754
 1907SOL    HW215761  10.244   2.372   1.829  0.1774 -1.3837  0.0006
 1908SOL     OW15762   3.176   9.987   1.483 -0.0908  0.3569 -0.5104
 1908SOL    HW115763   3.234   9.972   1.403 -0.6376 -1.2667 -0.6301
 1908SOL    HW215764   3.094  10.037   1.455  0.8241  1.8735 -0.5076
 1909SOL     OW15765   2.942  10.080   1.389  0.5101  0.4325 -0.3983
 1909SOL    HW115766   2.847  10.083   1.421  0.8995  0.3427  0.8027
 1909SOL    HW215767   2.964  10.166   1.343 -0.0281  0.6168 -0.3203
 1910SOL     OW15768   3.812   9.221   0.700  0.4102  0.3382 -0.9226
 1910SOL    HW115769   3.845   9.134   0.664  1.8925  1.6263 -2.7761
 1910SOL    HW215770   3.834   9.295   0.636 -1.3259  2.0194  0.3412
 1911SOL     OW15771   8.391   1.993   1.081 -0.0520  0.2738  0.4413
 1911SOL    HW115772   8.445   1.909   1.077  1.1346  1.0736 -0.6914
 1911SOL    HW215773   8.408   2.048   1.000  1.0065  2.7094  2.2514
 1912SOL     OW15774   2.040   7.129   2.085 -0.5183  0.6590  0.0688
 1912SOL    HW115775   2.070   7.213   2.129  2.4526 -0.8260  1.0352
 1912SOL    HW215776   1.955   7.145   2.035 -0.2521  4.0734  0.6308
 1913SOL     OW15777   2.581   1.684   0.873  0.5124 -0.0724 -0.1973
 1913SOL    HW115778   2.574   1.613   0.803  1.0040 -0.9086  0.5977
 1913SOL    HW215779   2.539   1.652   0.958 -1.3360  1.4579 -0.4921
 1914SOL     OW15780   2.498   7.340   2.671  0.2562  0.2688 -0.0505
 1914SOL    HW115781   2.542   7.425   2.699 -0.4250  0.5999  0.0301
 1914SOL    HW215782   2.558   7.263   2.691  0.6537  0.6868  0.3711
 1915SOL     OW15783   4.443   2.381   0.404 -0.4361 -0.0400  0.4125
 1915SOL    HW115784   4.530   2.369   0.453 -0.5014  1.1904  0.8489
 1915SOL    HW215785   4.378   2.312   0.434 -0.1147  0.0212  1.2626
 1916SOL     OW15786   3.890   5.160   0.417  0.0650  0.2449  0.8223
 1916SOL    HW115787   3.844   5.247   0.399 -0.9233 -0.2118  1.1058
 1916SOL    HW215788   3.863   5.093   0.348 -0.0028 -0.1405  1.2224
 1917SOL     OW15789  10.181   4.214   1.932  0.1101  0.8222 -0.8198
 1917SOL    HW115790  10.158   4.287   1.996  1.6880  1.1265 -0.5948
 1917SOL    HW215791  10.252   4.156   1.971 -0.5610 -0.3644 -1.3366
 1918SOL     OW15792   3.179   6.532   1.594 -0.3521 -0.3553  0.4058
 1918SOL    HW115793   3.167   6.436   1.568 -0.5253  0.0992 -1.2924
 1918SOL    HW215794   3.093   6.568   1.631  0.2267 -1.3418  2.7721
 1919SOL     OW15795   3.140   8.593   0.523  0.4857  0.2723  0.0668
 1919SOL    HW115796   3.131   8.655   0.444 -2.0742  0.1345  0.2158
 1919SOL    HW215797   3.110   8.502   0.497 -0.2598  0.1973  1.1633
 1920SOL     OW15798   2.225   8.667   0.761  0.1533 -0.3284 -0.4119
 1920SOL    HW115799   2.248   8.760   0.735  3.1342 -1.2316 -1.1994
 1920SOL    HW215800   2.142   8.638   0.714 -1.3055  2.2042  0.5415
 1921SOL     OW15801   0.883   1.197   0.854  0.1419 -0.1896 -0.0600
 1921SOL    HW115802   0.845   1.286   0.828  0.4982  0.6081  2.0983
 1921SOL    HW215803   0.978   1.209   0.884 -0.2299 -1.1009  1.5164
 1922SOL     OW15804   4.358   5.934   0.459 -0.1729  0.5326 -0.1169
 1922SOL    HW115805   4.332   5.840   0.482  1.0361  0.2880  0.3216
 1922SOL    HW215806   4.294   5.972   0.393 -1.4693 -0.1208  0.7578
 1923SOL     OW15807   4.521   2.622   2.455 -0.1862 -0.2782  0.1878
 1923SOL    HW115808   4.608   2.594   2.496  1.3134  2.3511 -1.0732
 1923SOL    HW215809   4.473   2.541   2.421  2.7418 -1.6115 -0.9079
 1924SOL     OW15810   1.594   8.422   1.788  0.1536  0.0114 -0.1433
 1924SOL    HW115811   1.564   8.329   1.809  0.7455 -0.1051  0.2112
 1924SOL    HW215812   1.531   8.464   1.723  0.2971 -0.8962 -0.8734
 1925SOL     OW15813   3.623   4.992   0.697  0.2148  0.1240  0.3381
 1925SOL    HW115814   3.607   5.090   0.712  0.0715  0.3795 -1.4257
 1925SOL    HW215815   3.538   4.948   0.669  0.1597 -0.6303  1.6191
 1926SOL     OW15816   2.183   3.053   1.330  0.0762  0.0396  0.0882
 1926SOL    HW115817   2.214   2.962   1.356  0.6024  0.4798  1.0340
 1926SOL    HW215818   2.086   3.050   1.305  0.4314 -1.0260 -1.2190
 1927SOL     OW15819   0.983   3.888   0.494 -0.3416  0.1068 -0.0724
 1927SOL    HW115820   0.914   3.829   0.537 -0.6789  0.5607  0.0074
 1927SOL    HW215821   0.945   3.932   0.413  0.6251 -1.5769 -1.4711
 1928SOL     OW15822   3.396   0.900   0.672 -0.2917 -0.7704  0.4772
 1928SOL    HW115823   3.460   0.903   0.595 -0.9469  0.5297 -0.0303
 1928SOL    HW215824   3.379   0.804   0.697  2.2248 -1.1200  0.9636
 1929SOL     OW15825   3.494   9.682   2.102  0.5935  0.1857  0.0824
 1929SOL    HW115826   3.422   9.617   2.081 -1.3571  0.9501  4.0455
 1929SOL    HW215827   3.581   9.649   2.065 -0.9142 -3.0727 -0.6800
 1930SOL     OW15828   2.479   9.934   1.561  0.0750  0.0935  0.3387
 1930SOL    HW115829   2.502   9.898   1.651  0.6081 -0.9033 -0.1952
 1930SOL    HW215830   2.466   9.859   1.496 -2.6351  0.6909  0.1104
 1931SOL     OW15831   2.897   1.932   1.817  0.2669  0.2227  0.1282
 1931SOL    HW115832   2.876   2.020   1.774  0.1008  0.1368  0.0331
 1931SOL    HW215833   2.817   1.872   1.811  0.6585 -0.2389 -0.5626
 1932SOL     OW15834   2.439   2.356   2.279 -0.2034 -0.1805  0.2013
 1932SOL    HW115835   2.435   2.265   2.237 -1.6693 -0.4977  0.9785
 1932SOL    HW215836   2.450   2.425   2.207  3.3865 -1.0978 -0.2206
 1933SOL     OW15837   9.102   1.428   1.857  0.4137 -0.2574 -0.4189
 1933SOL    HW115838   9.176   1.361   1.850  0.1414 -0.5654 -0.3639
 1933SOL    HW215839   9.128   1.501   1.921  0.6593 -0.3745 -0.3872
 1934SOL     OW15840   3.550   8.043   0.667 -0.1870  0.5568  0.3456
 1934SOL    HW115841   3.501   7.965   0.704 -1.6207  1.2338 -0.1023
 1934SOL    HW215842   3.550   8.038   0.567 -0.4845  1.2425  0.3078
 1935SOL     OW15843   9.217   1.443   1.093 -0.1785 -0.0298  0.2063
 1935SOL    HW115844   9.273   1.361   1.102  0.6017  0.3374 -1.1171
 1935SOL    HW215845   9.189   1.475   1.183 -0.0551 -1.4570  0.7518
 1936SOL     OW15846   1.969   5.241   0.242 -0.1302  0.7592 -0.3479
 1936SOL    HW115847   1.927   5.273   0.326  0.1071  2.3383 -0.8055
 1936SOL    HW215848   2.067   5.225   0.257 -0.3595 -0.3147  0.0273
 1937SOL     OW15849   3.265   9.516   2.103 -0.1260 -0.0439 -0.2580
 1937SOL    HW115850   3.210   9.536   2.184  0.2599  1.9157 -0.4479
 1937SOL    HW215851   3.214   9.539   2.021 -0.3892 -1.7149 -0.5886
 1938SOL     OW15852   9.630   4.713   0.301  0.2567  0.0920 -0.0377
 1938SOL    HW115853   9.606   4.752   0.212 -1.3224 -1.5097 -0.3486
 1938SOL    HW215854   9.574   4.755   0.372  0.5107  0.3591  0.0040
 1939SOL     OW15855   1.633   8.990   1.983  0.0348 -0.3046  0.0600
 1939SOL    HW115856   1.627   8.977   2.082  1.3212 -0.1130  0.1686
 1939SOL    HW215857   1.567   8.931   1.938 -0.8548 -0.0949  1.0531
 1940SOL     OW15858   2.678   5.593   0.325  0.0569 -0.7005 -0.4893
 1940SOL    HW115859   2.634   5.643   0.400  0.0088 -2.0081  0.3544
 1940SOL    HW215860   2.636   5.621   0.238 -2.2394 -1.6665  0.2617
 1941SOL     OW15861   4.059   2.910   2.122  0.1624 -0.1855  0.3425
 1941SOL    HW115862   3.969   2.886   2.158  1.1799  0.8637  3.8674
 1941SOL    HW215863   4.097   2.832   2.072 -1.6016 -1.5884  1.1353
 1942SOL     OW15864   1.181   4.605   0.097 -0.5796  0.0508  0.2186
 1942SOL    HW115865   1.103   4.667   0.100 -0.8139 -0.2143 -0.2562
 1942SOL    HW215866   1.213   4.586   0.190 -2.6103 -1.7643  0.5863
 1943SOL     OW15867   0.874   5.401   2.010 -0.3763  0.2251  0.2160
 1943SOL    HW115868   0.892   5.487   2.057  0.6197 -0.1866  0.5942
 1943SOL    HW215869   0.916   5.404   1.919  0.2769 -0.1376  0.5049
 1944SOL     OW15870   2.575   1.200   0.588 -0.6760  0.1676  0.5515
 1944SOL    HW115871   2.559   1.175   0.684  1.5979  1.4432  1.3015
 1944SOL    HW215872   2.667   1.170   0.561 -1.8261 -1.5067 -1.7196
 1945SOL     OW15873   3.776   8.501   0.155 -0.5273  0.5757  0.4425
 1945SOL    HW115874   3.760   8.594   0.187 -0.3989 -0.0655  2.3966
 1945SOL    HW215875   3.689   8.454   0.143 -0.6297  1.1530 -1.2402
 1946SOL     OW15876   9.776   1.655   0.794 -0.3994 -0.7383 -0.4214
 1946SOL    HW115877   9.747   1.688   0.884 -0.8064 -2.4314  0.0779
 1946SOL    HW215878   9.868   1.617   0.800 -0.7834 -1.7027 -0.4994
 1947SOL     OW15879  10.087   3.349   2.305  0.6936 -0.0944 -0.7069
 1947SOL    HW115880  10.072   3.370   2.208 -0.2143 -0.8648 -0.7334
 1947SOL    HW215881  10.070   3.252   2.321  2.6269 -0.3603 -0.1273
 1948SOL     OW15882   1.098  10.597   2.078 -0.2776 -0.7305  0.0490
 1948SOL    HW115883   1.123  10.500   2.083 -1.3980 -1.0703 -0.6431
 1948SOL    HW215884   0.999  10.605   2.068 -0.2343  0.5090  0.5992
 1949SOL     OW15885   1.846   3.742   1.986  0.2266  0.4243  0.6378
 1949SOL    HW115886   1.838   3.824   2.043 -0.3418  0.9912 -0.2371
 1949SOL    HW215887   1.896   3.671   2.036 -1.4076  0.4363  2.3471
 1950SOL     OW15888   2.251   3.027   1.761  0.0422 -0.3152 -0.2413
 1950SOL    HW115889   2.250   2.929   1.737  0.6502 -0.6628  1.0974
 1950SOL    HW215890   2.306   3.077   1.694 -1.2895 -0.6910 -1.6400
 1951SOL     OW15891   3.925   0.726   0.963 -0.0931 -0.1196 -0.1222
 1951SOL    HW115892   3.826   0.728   0.951 -0.0503  1.2465 -0.3142
 1951SOL    HW215893   3.956   0.631   0.965 -0.9594 -0.5462 -3.7047
 1952SOL     OW15894   4.046   3.895   1.828 -0.3791  0.5483 -0.4601
 1952SOL    HW115895   4.014   3.803   1.850  1.6967  0.4762  2.5995
 1952SOL    HW215896   4.115   3.890   1.756  0.5445 -0.4450  0.4709
 1953SOL     OW15897   1.943   8.946   1.980  0.3338 -0.2328  0.4634
 1953SOL    HW115898   2.000   9.027   1.994  0.2781 -0.1049 -0.0704
 1953SOL    HW215899   1.848   8.974   1.967  0.1707 -0.4392  1.1729
 1954SOL     OW15900   1.883   5.070   2.660  0.4233 -0.6647  0.2318
 1954SOL    HW115901   1.917   5.125   2.737 -2.2229 -0.6420  1.4539
 1954SOL    HW215902   1.881   4.974   2.686 -1.4788 -0.5474  0.6323
 1955SOL     OW15903   1.854   5.428   0.505  0.7678 -0.4877 -0.0275
 1955SOL    HW115904   1.850   5.329   0.492  1.1043 -0.8983  2.6650
 1955SOL    HW215905   1.785   5.472   0.447 -0.8544 -2.4623  0.3274
 1956SOL     OW15906  10.490   3.011   2.201  0.3122 -0.5126 -0.2376
 1956SOL    HW115907  10.555   3.056   2.140 -1.0416  1.2660 -0.4369
 1956SOL    HW215908  10.534   2.991   2.288  0.8466  1.6272  0.0104
 1957SOL     OW15909   9.164   4.638   0.959 -0.0859  0.0538  0.2654
 1957SOL    HW115910   9.244   4.582   0.937 -0.7138 -0.4473 -0.7825
 1957SOL    HW215911   9.191   4.733   0.969  0.7687 -0.2348  0.6617
 1958SOL     OW15912   1.837   1.823   1.376  0.3361  0.4585 -0.2080
 1958SOL    HW115913   1.851   1.812   1.474 -0.1092  0.4894 -0.1408
 1958SOL    HW215914   1.839   1.734   1.331 -0.4680  0.3547 -0.0370
 1959SOL     OW15915   9.803   1.999   1.261  0.3782  0.9383  0.6447
 1959SOL    HW115916   9.821   1.985   1.164  1.8133 -1.1499  1.1695
 1959SOL    HW215917   9.712   2.038   1.273  0.3921  1.7038 -1.5529
 1960SOL     OW15918   2.727   5.249   0.899  0.0510  0.1686  0.3749
 1960SOL    HW115919   2.728   5.336   0.948  0.2164  0.4140 -0.0544
 1960SOL    HW215920   2.780   5.181   0.949 -1.2399 -0.0862  1.4213
 1961SOL     OW15921   1.635   9.843   2.540 -0.0941 -0.7406  0.1577
 1961SOL    HW115922   1.631   9.789   2.624  0.8890 -1.3922 -0.2070
 1961SOL    HW215923   1.566   9.810   2.475 -0.1208 -0.9517  0.2935
 1962SOL     OW15924   1.696   1.020   2.606  0.2441  0.1031 -0.2004
 1962SOL    HW115925   1.752   0.996   2.527  0.1239  1.2675 -0.6501
 1962SOL    HW215926   1.713   0.954   2.680 -2.0535 -2.9527 -2.2659
 1963SOL     OW15927   0.691   6.597   0.764 -0.1265  0.3715  0.1456
 1963SOL    HW115928   0.762   6.582   0.832  0.2224  2.5178  0.2704
 1963SOL    HW215929   0.602   6.602   0.809 -0.0547  0.4021  0.2833
 1964SOL     OW15930   3.744   8.183   1.990  0.2637  0.0816 -0.2757
 1964SOL    HW115931   3.779   8.269   2.025 -2.3442  2.0003 -2.1764
 1964SOL    HW215932   3.793   8.160   1.905  1.4479 -0.7201  0.6045
 1965SOL     OW15933   9.420   3.763   2.360  0.4833  0.0155  0.2040
 1965SOL    HW115934   9.426   3.749   2.459  2.1646  1.2776  0.3031
 1965SOL    HW215935   9.440   3.678   2.313 -0.8795 -0.7351  0.9470
 1966SOL     OW15936   3.072   3.266   0.407  0.1514  0.1627  0.6117
 1966SOL    HW115937   3.169   3.290   0.408  0.3886 -0.7241 -0.2604
 1966SOL    HW215938   3.027   3.306   0.487  0.9789  1.5843  0.3747
 1967SOL     OW15939   0.930   7.853   2.112  0.1087 -0.1733  0.3135
 1967SOL    HW115940   1.020   7.831   2.075  0.8976  1.1251  1.3897
 1967SOL    HW215941   0.940   7.913   2.192 -1.7791  1.4705 -0.6279
 1968SOL     OW15942   1.837   2.869   1.292  0.1193  0.3138  0.3867
 1968SOL    HW115943   1.743   2.871   1.259  0.3764  0.3659 -0.3456
 1968SOL    HW215944   1.838   2.837   1.387 -0.4200 -2.1238 -0.3819
 1969SOL     OW15945   2.313   4.320   2.654  0.0273 -0.6484  0.4300
 1969SOL    HW115946   2.373   4.333   2.733  0.2943 -0.6216  0.2223
 1969SOL    HW215947   2.257   4.238   2.669 -1.1920  0.3532  1.4339
 1970SOL     OW15948   4.133   3.302   0.483  0.2415 -0.3026  0.6406
 1970SOL    HW115949   4.095   3.303   0.575 -1.9852  0.3677 -0.2621
 1970SOL    HW215950   4.138   3.395   0.447 -0.4107 -0.6880 -0.4968
 1971SOL     OW15951   2.404   2.121   2.146 -0.1236  0.4295 -0.3717
 1971SOL    HW115952   2.462   2.078   2.077  0.7683  1.5581 -0.3425
 1971SOL    HW215953   2.339   2.054   2.181 -0.5173 -0.1837 -2.2185
 1972SOL     OW15954   0.915   1.349   2.242 -0.0087  0.0961 -0.5738
 1972SOL    HW115955   0.827   1.342   2.195 -0.5696  1.0765  0.3060
 1972SOL    HW215956   0.962   1.433   2.213  1.1046 -0.9331 -1.8062
 1973SOL     OW15957   2.438   5.787   2.538 -0.7349  0.6066  0.0911
 1973SOL    HW115958   2.466   5.883   2.536  0.5837  0.2166 -0.9281
 1973SOL    HW215959   2.407   5.759   2.447  0.5603 -0.4071 -0.0535
 1974SOL     OW15960   1.380   8.168   2.291 -0.3262  0.0149  0.3232
 1974SOL    HW115961   1.470   8.207   2.308 -0.8842  1.3898  0.1970
 1974SOL    HW215962   1.319   8.239   2.258 -1.0912 -1.1988 -0.9137
 1975SOL     OW15963   3.577   8.527   1.102 -0.3832 -0.6927 -0.5013
 1975SOL    HW115964   3.520   8.459   1.057 -0.8362 -1.1760  0.7581
 1975SOL    HW215965   3.526   8.566   1.180  1.7807 -2.7912  2.0625
 1976SOL     OW15966   0.758   2.941   0.591 -0.0484 -0.3644 -0.3481
 1976SOL    HW115967   0.746   2.844   0.612  1.7270 -0.9908 -2.0974
 1976SOL    HW215968   0.671   2.988   0.604 -0.5756 -1.8871  2.0114
 1977SOL     OW15969   4.361   3.892   0.490  0.2640 -0.1798 -0.3948
 1977SOL    HW115970   4.376   3.857   0.398  1.0965 -0.4656 -0.1577
 1977SOL    HW215971   4.323   3.984   0.486  1.1210  0.1546 -1.0245
 1978SOL     OW15972   9.616   5.085   0.248 -0.1480  0.6951 -0.6407
 1978SOL    HW115973   9.670   5.038   0.317 -2.4583 -0.9668  0.1087
 1978SOL    HW215974   9.537   5.129   0.292 -0.6780  1.1226 -1.9916
 1979SOL     OW15975   4.652   2.546   1.467  0.4803 -0.0644 -0.1864
 1979SOL    HW115976   4.642   2.545   1.566  0.8016  1.8378 -0.1253
 1979SOL    HW215977   4.746   2.521   1.442  0.4313 -0.4224 -0.0137
 1980SOL     OW15978  10.304   5.772   2.601  0.2866  0.5104  0.2705
 1980SOL    HW115979  10.251   5.727   2.529 -0.2628  2.1543 -0.3734
 1980SOL    HW215980  10.395   5.731   2.606  0.3958  0.5069 -1.5081
 1981SOL     OW15981   2.680   5.414   1.420 -0.6566  0.5862 -0.3842
 1981SOL    HW115982   2.720   5.381   1.335 -0.8570  0.2333 -0.3416
 1981SOL    HW215983   2.591   5.371   1.434 -0.7297  0.8217 -0.1145
 1982SOL     OW15984   2.076   8.899   1.745  0.5756 -0.7453  0.1649
 1982SOL    HW115985   2.175   8.896   1.731  0.7011 -0.3718  0.9089
 1982SOL    HW215986   2.056   8.899   1.844 -0.1755 -1.1937  0.0163
 1983SOL     OW15987   4.271   5.276   0.569  0.5067 -0.3772 -0.4379
 1983SOL    HW115988   4.343   5.297   0.635 -0.6450  2.4275 -0.0057
 1983SOL    HW215989   4.203   5.215   0.612  0.5431  0.2178  0.4692
 1984SOL     OW15990   4.472   2.849   1.652 -0.1895  0.3931  0.3832
 1984SOL    HW115991   4.449   2.765   1.701 -1.3775  1.1514  1.1411
 1984SOL    HW215992   4.550   2.893   1.697 -1.7877  1.5173  2.1354
 1985SOL     OW15993   1.968   1.114   1.649 -0.0448  0.1804 -0.5136
 1985SOL    HW115994   2.036   1.134   1.578  1.8015 -1.9365  0.5764
 1985SOL    HW215995   1.907   1.041   1.616 -1.2422  1.4572 -1.1485
 1986SOL     OW15996   1.128   6.778   1.176  1.0142  0.6053  0.4215
 1986SOL    HW115997   1.048   6.743   1.225  0.7801 -0.4604 -0.7028
 1986SOL    HW215998   1.167   6.855   1.227 -1.5652  2.0746  0.2445
 1987SOL     OW15999   8.941   2.857   1.390  0.0430 -0.6859 -0.4131
 1987SOL    HW116000   8.873   2.922   1.424 -1.2523 -2.4270  0.4026
 1987SOL    HW216001   8.983   2.894   1.308  1.7807  2.6873  1.8935
 1988SOL     OW16002   9.105   4.184   1.823  0.2191  0.4091  0.7027
 1988SOL    HW116003   9.147   4.155   1.737  0.6123  0.9751  0.7039
 1988SOL    HW216004   9.143   4.272   1.851 -0.4599  0.5886  1.0698
 1989SOL     OW16005   2.264   3.693   0.982  0.7063 -0.7948 -0.0901
 1989SOL    HW116006   2.273   3.648   0.893  1.2454  1.4749 -1.2244
 1989SOL    HW216007   2.176   3.668   1.023 -0.2170 -0.7101 -1.9444
 1990SOL     OW16008   2.293   8.665   1.369 -0.1572 -0.3227 -0.2586
 1990SOL    HW116009   2.363   8.735   1.359  0.6304 -0.8525  1.3225
 1990SOL    HW216010   2.205   8.709   1.389  0.3943  0.2124  1.0503
 1991SOL     OW16011   1.774   7.097   2.513 -0.2410 -0.3499  0.7588
 1991SOL    HW116012   1.820   7.185   2.509 -0.9463  0.0482  1.2820
 1991SOL    HW216013   1.828   7.029   2.463  0.7351  0.1794  1.0721
 1992SOL     OW16014   2.314   2.685   2.390 -0.2329  0.1125 -0.2846
 1992SOL    HW116015   2.289   2.761   2.450  0.6586 -0.3461  0.6883
 1992SOL    HW216016   2.355   2.612   2.445  1.4149  0.0554 -1.5738
 1993SOL     OW16017   3.059   5.175   0.241  0.6930  0.4062 -0.0885
 1993SOL    HW116018   2.962   5.199   0.246  0.1368 -1.5386 -1.3114
 1993SOL    HW216019   3.101   5.191   0.331 -0.9101  0.5666  0.6602
 1994SOL     OW16020   3.302   4.517   1.474  0.2722 -0.0776  0.0648
 1994SOL    HW116021   3.271   4.449   1.408 -0.2556 -0.6718  0.9061
 1994SOL    HW216022   3.223   4.559   1.518  0.6060 -0.9710  1.5946
 1995SOL     OW16023   1.727   6.085   0.269 -0.1529  0.1470  0.1123
 1995SOL    HW116024   1.681   6.103   0.356 -0.5523 -0.2890 -0.0109
 1995SOL    HW216025   1.751   5.988   0.263  2.3208  0.6509  0.9214
 1996SOL     OW16026   1.380   8.933   0.554 -0.3817  0.0559  0.0765
 1996SOL    HW116027   1.330   8.898   0.475  0.4635 -1.4473  0.1861
 1996SOL    HW216028   1.333   8.906   0.638  0.4466 -1.1219  0.1719
 1997SOL     OW16029   3.955   8.810   0.098 -0.0081 -0.2533  0.3867
 1997SOL    HW116030   3.869   8.771   0.130 -1.4056  2.3796 -0.1303
 1997SOL    HW216031   4.006   8.847   0.176  0.3332 -1.1332  0.5904
 1998SOL     OW16032   1.404  10.639   0.890 -0.3494 -0.1961 -0.4370
 1998SOL    HW116033   1.402  10.693   0.806  0.1628  0.9478  0.2656
 1998SOL    HW216034   1.495  10.647   0.932 -1.2812  1.1063  1.3983
 1999SOL     OW16035   1.886   2.350   0.532 -0.0128  0.3910 -0.0238
 1999SOL    HW116036   1.870   2.295   0.614 -0.4513 -0.5738 -0.7582
 1999SOL    HW216037   1.964   2.410   0.548  0.4398 -0.3992  0.7912
 2000SOL     OW16038   2.603   9.374   0.543  0.6749 -0.0856 -0.8797
 2000SOL    HW116039   2.687   9.428   0.547  0.0923  0.7510  0.6831
 2000SOL    HW216040   2.579   9.355   0.448  2.4436 -0.0499 -1.3430
 2001SOL     OW16041   2.098   2.159   0.891  0.2855  0.4035  0.3283
 2001SOL    HW116042   2.137   2.141   0.982  1.1384 -0.0917 -0.1296
 2001SOL    HW216043   2.051   2.078   0.858 -0.2650  0.6754  0.4471
 2002SOL     OW16044   4.103   1.910   0.982  0.7046  0.6308 -0.7464
 2002SOL    HW116045   4.079   1.817   1.010  0.0394  1.1532  0.4746
 2002SOL    HW216046   4.025   1.952   0.936  0.9863  0.6116 -1.2483
 2003SOL     OW16047   3.400   8.345   0.990  0.5385  0.8711 -0.0970
 2003SOL    HW116048   3.410   8.272   1.058 -1.6463 -0.5208 -1.2075
 2003SOL    HW216049   3.463   8.329   0.914  1.7794  1.5048  0.7765
 2004SOL     OW16050   9.773   4.335   1.401  0.0509 -0.3083  0.2413
 2004SOL    HW116051   9.778   4.407   1.471 -2.8317  0.4778 -0.3130
 2004SOL    HW216052   9.783   4.246   1.445 -0.4043  0.2390  1.4900
 2005SOL     OW16053   2.156  10.234   1.056  0.1042 -0.1963 -0.0917
 2005SOL    HW116054   2.187  10.207   0.965  1.2685  2.5908 -0.6053
 2005SOL    HW216055   2.228  10.215   1.123  0.2725  0.1089 -0.1845
 2006SOL     OW16056   3.862   9.192   0.980  0.2308 -0.3575 -0.1089
 2006SOL    HW116057   3.944   9.249   0.975  1.0859 -1.6278 -1.0732
 2006SOL    HW216058   3.832   9.169   0.887 -1.7518  0.8326  0.2241
 2007SOL     OW16059  10.465   4.246   0.726  0.7925 -0.4090 -0.8805
 2007SOL    HW116060  10.547   4.278   0.773  0.9639 -1.2979 -0.5503
 2007SOL    HW216061  10.399   4.321   0.720 -0.0581 -0.7624  2.6423
 2008SOL     OW16062   3.559   2.153   1.918 -0.0492  0.6361  0.2539
 2008SOL    HW116063   3.563   2.058   1.887 -0.8935  0.0636  1.8110
 2008SOL    HW216064   3.555   2.214   1.839 -2.1437 -0.7469 -0.7600
 2009SOL     OW16065   2.350  10.270   0.131  0.1605 -0.2787 -0.1444
 2009SOL    HW116066   2.374  10.244   0.037 -0.2234  0.6238 -0.5035
 2009SOL    HW216067   2.288  10.202   0.170 -1.3486  0.4050 -1.3013
 2010SOL     OW16068   2.284   8.186   1.505  0.8417  0.5846 -0.1374
 2010SOL    HW116069   2.249   8.163   1.414 -0.3806 -0.2889  0.5429
 2010SOL    HW216070   2.210   8.225   1.561  1.3254  0.1704  0.8044
 2011SOL     OW16071   1.104   7.335   2.507  0.1542  0.1739  0.6552
 2011SOL    HW116072   1.066   7.428   2.514  0.3123  0.5127 -2.3323
 2011SOL    HW216073   1.049   7.272   2.562 -2.1824  1.4055 -0.2225
 2012SOL     OW16074   3.809   1.258   1.324 -0.6180 -0.0297 -0.0769
 2012SOL    HW116075   3.770   1.174   1.360  0.6193 -0.0371  1.3227
 2012SOL    HW216076   3.751   1.335   1.350 -0.8024 -0.2638  0.2115
 2013SOL     OW16077   2.342   1.355   1.973  0.3744 -0.1937  0.1992
 2013SOL    HW116078   2.282   1.286   1.934  0.0375 -0.5970  1.4169
 2013SOL    HW216079   2.431   1.350   1.928  0.3580 -1.4217  0.2840
 2014SOL     OW16080   8.704   2.333   1.938 -0.0604  0.2406  0.3140
 2014SOL    HW116081   8.742   2.417   1.976 -0.1197  1.0192 -1.3151
 2014SOL    HW216082   8.692   2.343   1.839 -1.6941 -1.0702  0.3524
 2015SOL     OW16083   2.919   6.553   1.717  0.0542 -0.2757  0.7338
 2015SOL    HW116084   2.900   6.467   1.671  2.1515 -0.6360  0.4594
 2015SOL    HW216085   2.850   6.621   1.692 -1.5946 -1.8458  0.9211
 2016SOL     OW16086  10.204   4.704   1.131 -0.1754 -0.0227 -0.4631
 2016SOL    HW116087  10.221   4.607   1.148  2.0505  0.4331  0.0002
 2016SOL    HW216088  10.190   4.718   1.033 -2.2295 -1.0337 -0.3576
 2017SOL     OW16089   1.286   9.136   0.194 -0.4732 -0.1757 -0.1257
 2017SOL    HW116090   1.369   9.118   0.141 -0.6527  1.7096 -1.0944
 2017SOL    HW216091   1.290   9.228   0.232 -1.8259 -0.3124  0.3938
 2018SOL     OW16092   3.231   0.987   0.389  0.5925  0.0697  0.2090
 2018SOL    HW116093   3.263   1.065   0.335  0.1540  0.4766  0.5378
 2018SOL    HW216094   3.189   1.020   0.474  2.3512 -0.6012  1.3791
 2019SOL     OW16095   0.904   2.386   0.425 -0.7118 -0.2439  0.3600
 2019SOL    HW116096   0.941   2.462   0.372 -1.1606 -0.4278 -0.2223
 2019SOL    HW216097   0.833   2.339   0.371 -0.6817 -0.8556  0.8518
 2020SOL     OW16098   1.371   9.258   0.996 -0.0416  0.5422 -0.3432
 2020SOL    HW116099   1.440   9.249   0.924 -1.2396 -1.0407 -1.3281
 2020SOL    HW216100   1.291   9.202   0.973  0.0382 -0.9564  2.7592
 2021SOL     OW16101   0.865   0.960   2.574  0.4663 -0.1522 -0.5736
 2021SOL    HW116102   0.960   0.934   2.591  0.2684 -0.5846 -0.0845
 2021SOL    HW216103   0.849   1.052   2.608  0.6428 -0.1838 -0.4038
 2022SOL     OW16104   5.133   2.499   1.835  0.1950  0.5454  0.0136
 2022SOL    HW116105   5.129   2.399   1.829  1.4643  0.3667  1.7463
 2022SOL    HW216106   5.105   2.539   1.748  0.8172 -1.3507 -1.0809
 2023SOL     OW16107   4.841   1.382   2.485  0.0480  0.4409  0.2160
 2023SOL    HW116108   4.882   1.292   2.502  0.4285  0.3223 -1.2800
 2023SOL    HW216109   4.804   1.385   2.392  0.4058  1.9727  0.1071
 2024SOL     OW16110   1.555   6.642   1.275  0.2788  0.8710 -0.6106
 2024SOL    HW116111   1.609   6.565   1.241 -1.7302 -0.7257 -0.2665
 2024SOL    HW216112   1.540   6.630   1.374 -2.2420  0.3202 -1.0380
 2025SOL     OW16113   2.050   9.817   1.151  0.4646  0.2450 -0.4634
 2025SOL    HW116114   2.032   9.901   1.100 -1.9403  1.1270  1.7374
 2025SOL    HW216115   1.983   9.747   1.124  1.5054 -0.4816 -1.1828
 2026SOL     OW16116   2.616   4.513   2.591 -0.1929  0.5926 -0.0518
 2026SOL    HW116117   2.560   4.577   2.642 -0.6005  0.6483 -0.5739
 2026SOL    HW216118   2.582   4.505   2.497 -0.7918 -1.1676  0.2956
 2027SOL     OW16119   3.124   2.044   0.866 -0.2196  0.3598 -0.2230
 2027SOL    HW116120   3.120   2.140   0.892 -0.3927 -0.1372  1.6614
 2027SOL    HW216121   3.194   1.997   0.920  0.0418 -0.5193 -1.3085
 2028SOL     OW16122   3.433  10.476   0.925 -0.0246 -0.5611  0.0204
 2028SOL    HW116123   3.384  10.541   0.867 -0.1549  0.8830  1.7057
 2028SOL    HW216124   3.377  10.393   0.937  0.0089 -0.8759 -1.8879
 2029SOL     OW16125   2.508   7.640   0.683  0.1244  0.3433  0.2782
 2029SOL    HW116126   2.451   7.595   0.615  1.4801  2.5769 -2.4462
 2029SOL    HW216127   2.467   7.629   0.774 -3.1267 -0.4306 -1.2163
 2030SOL     OW16128   1.260   7.963   2.438 -0.1806 -0.6413  0.5436
 2030SOL    HW116129   1.299   8.040   2.389 -0.5186 -0.8022  0.0201
 2030SOL    HW216130   1.216   7.996   2.522 -0.0600 -0.3054  0.4764
 2031SOL     OW16131  10.147   5.646   2.416  0.6621  0.6246  0.1168
 2031SOL    HW116132  10.092   5.684   2.491  0.7087  0.7596  0.0822
 2031SOL    HW216133  10.093   5.580   2.365  1.5331 -1.6508  2.0386
 2032SOL     OW16134   2.375   5.100   2.425  0.0634  0.4555 -0.5725
 2032SOL    HW116135   2.412   5.150   2.347  0.9024  0.1561 -0.3718
 2032SOL    HW216136   2.279   5.127   2.440  0.1110  1.0228 -1.2683
 2033SOL     OW16137   9.564   3.399   1.796  0.7414  0.0961  0.1457
 2033SOL    HW116138   9.601   3.309   1.817 -1.6612 -0.7794  0.8070
 2033SOL    HW216139   9.554   3.452   1.881 -1.3813 -0.4541  0.2867
 2034SOL     OW16140   0.818   1.200   2.652  0.1929 -0.0119 -0.0321
 2034SOL    HW116141   0.731   1.233   2.615 -0.4618 -1.1204  0.4869
 2034SOL    HW216142   0.831   1.235   2.745  0.1543 -0.1032  0.0073
 2035SOL     OW16143   0.768   7.133   2.473 -0.3458 -0.0383  0.5565
 2035SOL    HW116144   0.804   7.120   2.381 -2.5451 -0.3531 -0.2914
 2035SOL    HW216145   0.837   7.104   2.540  1.6710  1.2016 -0.9332
 2036SOL     OW16146   1.620  10.370   1.644  0.6067 -0.5250  0.4855
 2036SOL    HW116147   1.608  10.336   1.738  0.7644  2.5874  1.6953
 2036SOL    HW216148   1.536  10.415   1.614  0.9038 -0.6113 -0.4884
 2037SOL     OW16149   1.387   9.300   1.278 -0.9291 -0.6420  0.5461
 2037SOL    HW116150   1.370   9.275   1.183  2.0731 -2.2732  0.3625
 2037SOL    HW216151   1.368   9.222   1.337  4.0190 -2.1470  0.4424
 2038SOL     OW16152   1.601   4.872   0.491 -0.2922  0.6098 -0.3430
 2038SOL    HW116153   1.515   4.923   0.493 -0.7952 -0.1810 -1.1923
 2038SOL    HW216154   1.607   4.821   0.406 -0.4595 -1.8633  1.0897
 2039SOL     OW16155   9.527   2.891   1.171  0.7158  0.5429 -0.0747
 2039SOL    HW116156   9.557   2.803   1.207 -0.5962  0.9662  2.1497
 2039SOL    HW216157   9.476   2.941   1.241 -0.8667  1.9550 -2.1359
 2040SOL     OW16158  10.238   5.762   1.973  0.2105 -0.4614 -0.7729
 2040SOL    HW116159  10.290   5.784   1.890  0.0810  0.0524 -0.7187
 2040SOL    HW216160  10.188   5.843   2.003  0.2979 -0.6382 -0.1602
 2041SOL     OW16161  10.173   2.065   2.672  0.0678  0.1709  0.2405
 2041SOL    HW116162  10.183   2.163   2.657  0.0263  0.3008  1.0216
 2041SOL    HW216163  10.076   2.040   2.668  0.1014  0.1205 -0.2173
 2042SOL     OW16164   1.700   8.022   2.000  0.7408 -0.3530  0.5504
 2042SOL    HW116165   1.754   8.077   2.064  3.7644 -2.1068 -0.4186
 2042SOL    HW216166   1.680   8.076   1.918  1.6484  0.0578  0.5996
 2043SOL     OW16167   4.252   3.552   1.252 -0.3877 -0.1404 -0.0402
 2043SOL    HW116168   4.331   3.602   1.217 -0.6277  0.4673  0.2663
 2043SOL    HW216169   4.200   3.513   1.176 -0.9051  1.1601 -0.3612
 2044SOL     OW16170   3.710   9.017   2.319  0.0936 -0.4429  0.4126
 2044SOL    HW116171   3.641   8.963   2.270 -2.6992  0.1211  3.5784
 2044SOL    HW216172   3.771   8.956   2.370  0.7625 -0.8466 -0.8465
 2045SOL     OW16173   2.251   7.380   0.208  0.5053 -0.2755  0.1498
 2045SOL    HW116174   2.339   7.375   0.161  0.8129  0.5576  0.6294
 2045SOL    HW216175   2.217   7.474   0.205  0.9831  0.0107  2.3904
 2046SOL     OW16176   4.619   4.629   1.854 -0.1363  0.3121 -0.6797
 2046SOL    HW116177   4.712   4.593   1.856 -0.1752  0.1947 -0.8930
 2046SOL    HW216178   4.576   4.606   1.766 -0.4035  0.2686 -0.5402
 2047SOL     OW16179   0.955   9.988   0.639 -0.4245  0.2924 -0.0105
 2047SOL    HW116180   0.925  10.030   0.554 -2.8722  1.3923  1.3126
 2047SOL    HW216181   0.947   9.889   0.633 -0.3352  0.3517 -1.1287
 2048SOL     OW16182   4.405  10.648   2.044  0.1756  0.1200  0.0055
 2048SOL    HW116183   4.471  10.604   1.983 -0.6311 -0.4611 -0.4577
 2048SOL    HW216184   4.393  10.743   2.015  0.3152  0.0421 -0.3185
 2049SOL     OW16185   3.833   3.171   2.118  0.1674  0.1847  0.7605
 2049SOL    HW116186   3.847   3.088   2.173 -0.7169  0.2555  1.1072
 2049SOL    HW216187   3.864   3.154   2.025 -0.5977 -0.7538  0.6642
 2050SOL     OW16188  10.164   3.556   1.021  0.1829 -0.1174  0.2462
 2050SOL    HW116189  10.089   3.540   0.956  0.5461 -0.1086 -0.1750
 2050SOL    HW216190  10.126   3.568   1.113 -0.3869  0.6119 -0.0826
 2051SOL     OW16191   2.145   4.156   1.786 -0.7667 -0.1151  0.0774
 2051SOL    HW116192   2.098   4.150   1.874 -1.2659 -0.7428 -0.2250
 2051SOL    HW216193   2.116   4.239   1.738 -1.4146 -0.3950 -0.0179
 2052SOL     OW16194   1.096   5.101   0.854  0.0835  0.4321 -0.4316
 2052SOL    HW116195   1.134   5.016   0.891 -0.7748  0.4796  0.6025
 2052SOL    HW216196   0.998   5.090   0.839  0.1474  0.9219 -1.2425
 2053SOL     OW16197   1.236   1.152   0.235 -0.0298 -0.1797 -0.2071
 2053SOL    HW116198   1.278   1.082   0.177  0.5536  0.6613 -0.8144
 2053SOL    HW216199   1.223   1.116   0.327  2.0995 -0.4308  0.0122
 2054SOL     OW16200   3.042   6.558   1.215 -0.3127  0.1591  0.5754
 2054SOL    HW116201   2.953   6.561   1.260  0.4038 -0.3005  2.0271
 2054SOL    HW216202   3.089   6.645   1.228  0.3166 -0.3273  1.5879
 2055SOL     OW16203   0.958  10.530   0.244  0.1997 -0.1182  0.2082
 2055SOL    HW116204   0.980  10.546   0.341  0.9427 -1.0846  0.1997
 2055SOL    HW216205   0.868  10.569   0.224 -0.7515 -1.4802  1.7206
 2056SOL     OW16206   4.550   0.745   2.282  0.5705 -0.1720 -0.2816
 2056SOL    HW116207   4.586   0.782   2.197 -0.7153 -0.1246 -0.8140
 2056SOL    HW216208   4.568   0.646   2.287 -0.0232 -0.3157 -0.9636
 2057SOL     OW16209  10.510   5.189   2.530  0.1142 -0.0830  0.0661
 2057SOL    HW116210  10.432   5.127   2.520  0.8927 -0.8031 -1.9446
 2057SOL    HW216211  10.478   5.280   2.558 -1.4538 -0.3260 -0.8870
 2058SOL     OW16212   2.673   3.380   0.995  0.6256  0.2578 -0.0138
 2058SOL    HW116213   2.641   3.329   1.074 -0.5166 -0.1114 -0.6991
 2058SOL    HW216214   2.672   3.478   1.015 -0.5369  0.2210  0.1110
 2059SOL     OW16215  10.067   2.863   1.402 -0.0812  0.3007  0.2778
 2059SOL    HW116216  10.115   2.899   1.482 -1.7886  0.4778  1.2312
 2059SOL    HW216217  10.118   2.888   1.319  1.1545  0.9945  1.2368
 2060SOL     OW16218   2.529   4.594   0.268 -0.1176 -0.1311 -0.4755
 2060SOL    HW116219   2.555   4.604   0.364 -0.7637  1.1994 -0.4291
 2060SOL    HW216220   2.431   4.614   0.258  0.3241  1.4871 -1.6713
 2061SOL     OW16221   0.983   3.789   2.410 -0.0294 -0.1620  0.4923
 2061SOL    HW116222   0.893   3.756   2.379 -0.0560  0.2025  0.1757
 2061SOL    HW216223   1.014   3.862   2.349  0.6534 -0.5426  0.3829
 2062SOL     OW16224   3.280   2.250   1.572  0.5927  0.5762  0.2048
 2062SOL    HW116225   3.272   2.206   1.483  1.1775 -1.0855  0.9510
 2062SOL    HW216226   3.206   2.316   1.584  0.4155  0.6938 -1.4335
 2063SOL     OW16227   4.122   0.815   2.459  0.0143  0.0188 -0.2758
 2063SOL    HW116228   4.148   0.810   2.556 -0.3989  0.4942 -0.1361
 2063SOL    HW216229   4.035   0.864   2.451 -0.5603 -1.0834 -0.7809
 2064SOL     OW16230   3.899   1.809   0.168 -0.9720  0.2248  0.0212
 2064SOL    HW116231   3.908   1.853   0.079 -1.3580  0.2191 -0.0222
 2064SOL    HW216232   3.929   1.871   0.240  1.4432 -0.5531 -0.2789
 2065SOL     OW16233   0.768   2.829   0.906  0.1279 -0.0776  0.5702
 2065SOL    HW116234   0.777   2.739   0.863 -1.0506 -0.5964  1.3906
 2065SOL    HW216235   0.855   2.853   0.951  0.8539 -0.2278 -0.7230
 2066SOL     OW16236   2.831   2.012   1.419  0.0479  0.3227  0.0437
 2066SOL    HW116237   2.806   1.915   1.422  1.4020 -0.0669 -0.6343
 2066SOL    HW216238   2.756   2.065   1.381 -0.3583 -0.5880 -0.4332
 2067SOL     OW16239   2.674  10.113   0.350  0.1525 -0.3409 -0.1209
 2067SOL    HW116240   2.770  10.141   0.341  0.2844 -0.6257  0.4017
 2067SOL    HW216241   2.645  10.066   0.267  0.2310  0.4553 -0.6014
 2068SOL     OW16242   4.939   3.403   1.061 -0.0794 -0.0426  0.2242
 2068SOL    HW116243   5.010   3.364   1.120  1.4702  0.7181 -1.1136
 2068SOL    HW216244   4.912   3.492   1.097  0.8036  0.3842 -0.1639
 2069SOL     OW16245   3.634   8.843   1.193  0.1074 -0.2167 -0.3724
 2069SOL    HW116246   3.541   8.880   1.199 -0.6255 -1.4296 -3.2739
 2069SOL    HW216247   3.646   8.772   1.262 -1.6458 -1.0371 -0.8586
 2070SOL     OW16248   1.646   6.789   2.263  0.0117 -0.2669  0.7162
 2070SOL    HW116249   1.620   6.701   2.224 -0.6144  0.0531  0.3972
 2070SOL    HW216250   1.692   6.775   2.351 -0.6842 -0.8766  0.9862
 2071SOL     OW16251   0.916   1.612   1.849 -0.3870 -0.6236  0.1228
 2071SOL    HW116252   1.016   1.601   1.851  0.0074  2.6049  0.1558
 2071SOL    HW216253   0.889   1.648   1.760 -1.2719  0.6914  0.9152
 2072SOL     OW16254   1.577   4.228   2.145 -0.0383  0.2384  0.4712
 2072SOL    HW116255   1.575   4.244   2.244  0.6381 -0.4904  0.6057
 2072SOL    HW216256   1.665   4.189   2.119 -1.3240 -2.4987  0.0319
 2073SOL     OW16257   3.471   1.576   1.995 -0.3294 -0.0690  0.1879
 2073SOL    HW116258   3.398   1.633   2.031 -1.3553 -1.0388 -0.3447
 2073SOL    HW216259   3.515   1.526   2.069 -0.6062  0.0572  0.4362
 2074SOL     OW16260   2.051  10.528   1.615 -0.0130  0.3764 -0.2792
 2074SOL    HW116261   2.085  10.546   1.523  0.7250 -0.1008 -0.1050
 2074SOL    HW216262   2.051  10.429   1.631  0.2620  0.4850  0.3896
 2075SOL     OW16263   4.396   2.390   2.444  0.4379  0.4959  0.5716
 2075SOL    HW116264   4.425   2.329   2.370  1.0937 -0.1987  1.3974
 2075SOL    HW216265   4.417   2.348   2.532 -1.9595  0.5406  1.1745
 2076SOL     OW16266   3.182   2.104   1.803  0.4570  1.0541  0.3667
 2076SOL    HW116267   3.212   2.143   1.716 -0.1238  1.0129  0.1491
 2076SOL    HW216268   3.082   2.096   1.804  0.4044  1.6581  1.2832
 2077SOL     OW16269   1.355   3.768   1.861  0.2562  0.2790 -0.2225
 2077SOL    HW116270   1.429   3.834   1.873 -0.2325  1.1972 -2.1386
 2077SOL    HW216271   1.394   3.675   1.857  0.9473  0.4225  2.3595
 2078SOL     OW16272   2.332   5.087   0.730 -0.4342  0.2668 -0.6104
 2078SOL    HW116273   2.255   5.087   0.793 -0.4376 -0.5576 -0.6030
 2078SOL    HW216274   2.384   5.002   0.741  1.3773  1.4832  0.4519
 2079SOL     OW16275   2.493   5.623   0.123 -0.8932  0.2191  0.6469
 2079SOL    HW116276   2.483   5.663   0.032  1.0430 -1.8242 -0.5002
 2079SOL    HW216277   2.456   5.530   0.122 -0.2560 -0.0479  1.7746
 2080SOL     OW16278   3.307   3.495   2.268  0.4356  0.8293 -0.0332
 2080SOL    HW116279   3.233   3.492   2.202 -0.2436 -1.4037  0.7624
 2080SOL    HW216280   3.270   3.516   2.359  1.1702  2.5269 -0.1204
 2081SOL     OW16281   3.341   0.728   0.318  0.3175 -0.2352  0.2539
 2081SOL    HW116282   3.421   0.726   0.257  0.4095  0.7062  0.3300
 2081SOL    HW216283   3.304   0.821   0.321 -1.2923 -0.8594 -0.4207
 2082SOL     OW16284   2.814   5.789   1.475 -0.5710 -0.1716 -0.2278
 2082SOL    HW116285   2.755   5.811   1.398  1.6787  0.4062 -1.8500
 2082SOL    HW216286   2.889   5.855   1.480  0.5484 -1.4839  1.0856
 2083SOL     OW16287   9.605   2.310   2.704  0.0632 -0.0163  0.0719
 2083SOL    HW116288   9.581   2.339   2.611 -0.2792 -2.5805 -0.6745
 2083SOL    HW216289   9.523   2.310   2.761  0.5434  3.0751  0.8364
 2084SOL     OW16290   3.685  10.007   0.315 -0.0462  0.7117  0.2927
 2084SOL    HW116291   3.735   9.920   0.318 -1.7085 -0.3092 -0.9205
 2084SOL    HW216292   3.748  10.082   0.336  1.9731 -0.5591 -1.0764
 2085SOL     OW16293   3.757   8.657   0.970 -0.0035 -0.0567 -0.0800
 2085SOL    HW116294   3.709   8.716   0.905  1.3078  2.1837  0.9042
 2085SOL    HW216295   3.701   8.642   1.051 -0.3452 -0.1635 -0.3384
 2086SOL     OW16296   3.980   2.453   0.245  0.6363 -0.1731 -0.5410
 2086SOL    HW116297   3.959   2.517   0.319  1.2642  1.0816 -1.4352
 2086SOL    HW216298   3.896   2.410   0.214 -0.1993  2.2702 -1.7793
 2087SOL     OW16299   2.703   9.477   2.263 -0.0755 -0.3005 -0.0613
 2087SOL    HW116300   2.779   9.507   2.206 -1.7357  2.5866 -0.8902
 2087SOL    HW216301   2.663   9.394   2.225 -0.0384  0.5826 -2.1039
 2088SOL     OW16302   4.688   4.485   1.609  0.4307 -0.3491 -0.4827
 2088SOL    HW116303   4.616   4.468   1.542 -0.7344  0.6256  0.4898
 2088SOL    HW216304   4.729   4.575   1.591 -0.2492  0.1447  0.4287
 2089SOL     OW16305   9.873   0.769   1.073 -0.9038  0.1126  0.1698
 2089SOL    HW116306   9.798   0.707   1.048  0.6439 -1.8632  0.2356
 2089SOL    HW216307   9.950   0.754   1.011 -0.4337  1.8980  0.2974
 2090SOL     OW16308   0.750   5.140   1.980  0.2644 -0.2229  0.3197
 2090SOL    HW116309   0.793   5.226   2.007  2.4608 -1.6745  1.5883
 2090SOL    HW216310   0.723   5.089   2.062 -1.4958 -0.5283 -0.4298
 2091SOL     OW16311  10.306   4.131   2.683 -0.5790  0.3235  0.4104
 2091SOL    HW116312  10.319   4.224   2.647 -0.5145  0.6487  1.2728
 2091SOL    HW216313  10.211   4.104   2.670 -0.3567  0.0938 -0.8158
 2092SOL     OW16314   9.491   2.639   0.485  0.3078  0.4053 -0.4737
 2092SOL    HW116315   9.511   2.726   0.530  0.6005  0.3295 -0.4512
 2092SOL    HW216316   9.556   2.625   0.410  1.7433 -0.8381  0.9364
 2093SOL     OW16317   2.529   9.682   2.601  0.9457 -0.7428  0.0457
 2093SOL    HW116318   2.552   9.779   2.609  0.1011 -0.4781 -0.6655
 2093SOL    HW216319   2.549   9.636   2.688  1.4309  0.0450  0.3584
 2094SOL     OW16320   4.979   2.737   2.303  0.5597  0.1835  0.0740
 2094SOL    HW116321   5.014   2.703   2.216  0.4661  0.3936 -0.0470
 2094SOL    HW216322   4.889   2.779   2.289  0.5192  0.1694  0.2814
 2095SOL     OW16323   3.520   3.359   0.988 -0.3892 -0.4136 -0.1575
 2095SOL    HW116324   3.501   3.362   1.086 -1.1899 -1.3988 -0.2690
 2095SOL    HW216325   3.538   3.264   0.961  0.8031 -0.0197 -0.7874
 2096SOL     OW16326   0.947   1.050   0.605  0.5019  0.0078  0.2505
 2096SOL    HW116327   0.876   1.086   0.545  1.9738  0.9376 -0.9721
 2096SOL    HW216328   0.945   1.100   0.692 -1.7719 -1.4880  1.0949
 2097SOL     OW16329   4.136   2.496   2.357 -0.5337  1.0235  0.2028
 2097SOL    HW116330   4.077   2.509   2.436  0.5705 -0.8196  1.3633
 2097SOL    HW216331   4.220   2.449   2.385 -1.0469 -1.6220 -2.4011
 2098SOL     OW16332   9.026   4.188   0.871  0.1789  0.1768  0.0970
 2098SOL    HW116333   9.069   4.119   0.930 -2.1228 -1.9884 -0.6785
 2098SOL    HW216334   8.986   4.260   0.927  0.8530 -0.1342  1.0020
 2099SOL     OW16335   2.589   2.416   1.075  0.3389  0.1039 -0.5268
 2099SOL    HW116336   2.667   2.398   1.135  0.5799  0.5726 -0.6955
 2099SOL    HW216337   2.618   2.407   0.979 -0.0639 -0.7238 -0.5776
 2100SOL     OW16338   4.246   3.536   0.391  0.1176 -0.4238 -0.1747
 2100SOL    HW116339   4.342   3.547   0.415  0.6436 -1.9360 -1.5068
 2100SOL    HW216340   4.234   3.557   0.294 -0.8994 -0.2120 -0.0036
 2101SOL     OW16341   9.310   5.361   1.494 -0.1891 -0.3159 -0.5208
 2101SOL    HW116342   9.401   5.372   1.536 -0.9951  0.1871  1.1610
 2101SOL    HW216343   9.297   5.432   1.425 -0.2249  1.1775  0.9673
 2102SOL     OW16344   0.889  10.240   2.050 -0.2740 -0.3016 -0.6768
 2102SOL    HW116345   0.799  10.264   2.086  0.4291  1.6424 -0.1600
 2102SOL    HW216346   0.896  10.270   1.955 -0.1982 -0.5289 -0.7434
 2103SOL     OW16347   0.712   3.780   2.337 -0.1740 -0.6487  0.0299
 2103SOL    HW116348   0.688   3.704   2.277 -0.8018 -0.1616 -0.3515
 2103SOL    HW216349   0.673   3.864   2.300  0.1887 -0.2068  0.6529
 2104SOL     OW16350   8.946   4.267   1.609  0.8331  0.4436 -0.5331
 2104SOL    HW116351   8.968   4.234   1.701  1.2170 -3.3647 -1.9140
 2104SOL    HW216352   9.030   4.283   1.558  0.6131 -1.5672 -1.5727
 2105SOL     OW16353   3.484   1.833   0.791  0.1265  0.1787  0.0827
 2105SOL    HW116354   3.384   1.828   0.781  0.0214  0.2396  1.0441
 2105SOL    HW216355   3.507   1.910   0.851  0.6763 -0.6010  0.8763
 2106SOL     OW16356   4.773   3.064   1.214  0.0421 -0.1996 -0.0060
 2106SOL    HW116357   4.691   3.096   1.263 -0.0802  1.5871 -1.3120
 2106SOL    HW216358   4.777   2.965   1.217 -1.1159 -0.2151  1.7763
 2107SOL     OW16359   1.407   6.908   2.408 -0.2087  0.3028 -0.1099
 2107SOL    HW116360   1.471   6.880   2.337 -0.1200  0.9481 -0.2856
 2107SOL    HW216361   1.434   6.998   2.444 -0.2203 -0.0356  0.7701
 2108SOL     OW16362   1.705   5.882   0.963 -0.4394 -0.0527 -0.4605
 2108SOL    HW116363   1.658   5.826   0.895  0.2899 -2.0782  0.6462
 2108SOL    HW216364   1.638   5.934   1.016 -0.9901  1.7487 -2.8663
 2109SOL     OW16365   9.219   3.072   1.331 -0.0116 -0.5634 -0.0109
 2109SOL    HW116366   9.200   3.077   1.233  1.1142 -1.0951 -0.2626
 2109SOL    HW216367   9.305   3.024   1.346  0.5303  0.7326  1.1627
 2110SOL     OW16368   4.637   2.877   0.621  0.3771 -0.3273 -0.3689
 2110SOL    HW116369   4.697   2.940   0.670 -0.9970  0.4626  0.3219
 2110SOL    HW216370   4.608   2.919   0.535 -1.8224  0.7011  0.8214
 2111SOL     OW16371   3.308   0.988   1.429 -0.3322  0.0829  0.4127
 2111SOL    HW116372   3.248   1.013   1.505  1.4743  1.3516  1.4660
 2111SOL    HW216373   3.252   0.963   1.350 -2.2413 -0.6491  1.9387
 2112SOL     OW16374   9.451   3.939   0.954 -0.4049 -0.1993  0.2720
 2112SOL    HW116375   9.455   3.927   0.855  1.8953 -1.6264  0.5048
 2112SOL    HW216376   9.449   4.037   0.976 -0.0301  0.1354 -1.1540
 2113SOL     OW16377   2.801   9.943   0.707  0.2092  0.2240 -0.8127
 2113SOL    HW116378   2.816  10.040   0.725 -0.2951  0.2775 -0.6824
 2113SOL    HW216379   2.737   9.933   0.631 -2.2035  0.0182  1.1756
 2114SOL     OW16380   2.870   3.681   1.612  0.2244 -0.3600 -0.4758
 2114SOL    HW116381   2.922   3.628   1.680 -0.9436  1.4185  1.8533
 2114SOL    HW216382   2.772   3.668   1.627 -0.0821  2.2197 -0.0114
 2115SOL     OW16383   0.741   0.942   0.873  0.1598  0.0076  0.0830
 2115SOL    HW116384   0.803   0.885   0.927 -0.9682  0.6582  2.1200
 2115SOL    HW216385   0.781   1.033   0.863 -0.8151  0.6822  2.1215
 2116SOL     OW16386   1.872   5.916   1.398  0.5725  0.0579  0.2922
 2116SOL    HW116387   1.880   5.861   1.482  1.4039  0.6176  0.5847
 2116SOL    HW216388   1.899   5.860   1.320 -2.4199 -1.1918  0.1086
 2117SOL     OW16389   1.721   6.595   0.634 -0.0188  0.4416  0.1760
 2117SOL    HW116390   1.809   6.640   0.649  0.3069  0.0436 -0.5310
 2117SOL    HW216391   1.669   6.594   0.719  1.1063 -0.2783  0.8633
 2118SOL     OW16392   2.482   3.333   2.526  0.0021 -0.4458  0.1316
 2118SOL    HW116393   2.537   3.254   2.553 -0.1639 -0.0934  1.4959
 2118SOL    HW216394   2.397   3.301   2.483  0.5043 -0.9984 -0.4547
 2119SOL     OW16395   2.716   5.808   0.783  0.5321 -0.2215  0.1989
 2119SOL    HW116396   2.753   5.715   0.790  0.9769 -0.0168  0.5529
 2119SOL    HW216397   2.644   5.820   0.852  0.1345 -0.4631 -0.1725
 2120SOL     OW16398   2.808   2.434   1.618  0.3067 -0.5951 -0.0254
 2120SOL    HW116399   2.727   2.441   1.560  0.8190  0.1985 -0.6519
 2120SOL    HW216400   2.890   2.440   1.561  0.8336  1.6212  0.9324
 2121SOL     OW16401   2.849   6.825   0.251  0.0898  0.1632 -0.0065
 2121SOL    HW116402   2.920   6.821   0.180  0.3991  1.5010  0.2204
 2121SOL    HW216403   2.783   6.752   0.235 -0.8455  1.5269 -2.7849
 2122SOL     OW16404   3.306   3.105   1.079 -0.2885 -0.2881  0.2170
 2122SOL    HW116405   3.279   3.008   1.079  0.2850 -0.4592 -1.5089
 2122SOL    HW216406   3.399   3.113   1.042  0.4979  0.7160  2.3093
 2123SOL     OW16407   3.538   4.940   1.662  0.0157 -0.2652  0.0780
 2123SOL    HW116408   3.558   5.026   1.616  0.2637 -0.4687 -0.1966
 2123SOL    HW216409   3.615   4.915   1.721  0.6013 -1.0746 -1.0196
 2124SOL     OW16410   4.984   3.229   0.444  0.8871  0.0510  0.1287
 2124SOL    HW116411   4.968   3.137   0.410  0.2912  0.3878 -0.5111
 2124SOL    HW216412   5.058   3.272   0.392  1.6123 -0.2910  0.8576
 2125SOL     OW16413  10.301   2.847   0.733  0.5906  0.5991  0.3601
 2125SOL    HW116414  10.267   2.918   0.671  0.8378  0.0401 -0.4165
 2125SOL    HW216415  10.330   2.889   0.819  0.6251  1.4326 -0.0558
 2126SOL     OW16416   1.081   2.448   2.318 -0.1680 -0.1574  0.0973
 2126SOL    HW116417   1.132   2.424   2.400 -1.4105 -1.9658  0.3571
 2126SOL    HW216418   1.143   2.489   2.251  0.7244  1.9927  2.1724
 2127SOL     OW16419   3.144   8.050   1.273  0.6205  0.5746 -0.0878
 2127SOL    HW116420   3.234   8.075   1.235  1.9043 -1.1697  1.6758
 2127SOL    HW216421   3.122   8.112   1.348  2.3533 -1.5027  2.2302
 2128SOL     OW16422   0.959   2.731   1.999 -0.6177 -0.2573 -0.4326
 2128SOL    HW116423   0.961   2.682   2.086 -0.1740  0.2143 -0.1739
 2128SOL    HW216424   1.047   2.776   1.984 -0.8788  0.1170 -0.8636
 2129SOL     OW16425   1.860  10.509   2.306 -0.3326  0.0569 -0.1850
 2129SOL    HW116426   1.873  10.605   2.331 -0.4395 -0.2365  1.0178
 2129SOL    HW216427   1.858  10.453   2.389  1.1291 -1.1577 -0.9688
 2130SOL     OW16428   1.842   5.696   1.855  0.1597  0.3005 -0.2855
 2130SOL    HW116429   1.848   5.793   1.876 -0.9298  0.3171 -0.0482
 2130SOL    HW216430   1.812   5.646   1.936  2.4180 -0.4733  0.1303
 2131SOL     OW16431   3.229   4.349   0.953  0.2635  0.4219 -0.0453
 2131SOL    HW116432   3.248   4.346   0.855  1.4831  4.0971 -0.0242
 2131SOL    HW216433   3.305   4.307   1.003 -0.0906 -0.9372 -0.6218
 2132SOL     OW16434   0.909   4.013   0.263 -0.5396  0.4299 -0.2078
 2132SOL    HW116435   0.973   4.088   0.278 -1.4851  1.0655  0.7114
 2132SOL    HW216436   0.910   3.987   0.166  1.8741 -0.2813 -0.0296
 2133SOL     OW16437   3.422  10.537   0.481 -0.2398 -0.7123  0.4528
 2133SOL    HW116438   3.367  10.526   0.563 -1.1868  0.7422  0.0274
 2133SOL    HW216439   3.384  10.610   0.424  1.7023 -0.1671 -0.1986
 2134SOL     OW16440   0.750   2.658   0.672  0.7992  0.0383  0.0745
 2134SOL    HW116441   0.840   2.650   0.629  0.9894 -2.3251  0.8247
 2134SOL    HW216442   0.710   2.566   0.683 -1.0455  0.9318  1.1375
 2135SOL     OW16443   9.586   5.378   0.556 -0.2046  0.3467  0.0838
 2135SOL    HW116444   9.593   5.278   0.550  0.0064  0.3299  0.5470
 2135SOL    HW216445   9.525   5.402   0.632  0.3247  0.5756  0.4458
 2136SOL     OW16446   2.648   8.579   1.755 -0.2320  0.0491 -0.2493
 2136SOL    HW116447   2.741   8.543   1.751  0.3077  1.6687 -3.2115
 2136SOL    HW216448   2.590   8.515   1.806  1.8647 -2.3454 -0.7667
 2137SOL     OW16449   0.682   1.130   1.533 -0.2329  0.4141 -0.0991
 2137SOL    HW116450   0.685   1.092   1.626  1.3019 -0.7197 -0.6133
 2137SOL    HW216451   0.733   1.216   1.531  1.1099 -0.3792 -0.2639
 2138SOL     OW16452   9.474   4.403   1.704 -0.6215 -0.0908 -0.2376
 2138SOL    HW116453   9.377   4.399   1.730 -0.6181 -0.4560 -0.2727
 2138SOL    HW216454   9.483   4.453   1.618 -0.5469  1.8762  0.8805
 2139SOL     OW16455   3.408   8.134   1.188 -0.2005  0.6515  0.0392
 2139SOL    HW116456   3.470   8.165   1.261 -0.8929  0.0053  0.9165
 2139SOL    HW216457   3.452   8.059   1.138 -0.8329 -0.8419  1.6284
 2140SOL     OW16458   1.076  10.335   0.733 -0.0060 -0.3241 -0.8750
 2140SOL    HW116459   1.030  10.249   0.711  0.6929 -1.5001  2.0146
 2140SOL    HW216460   1.168  10.335   0.694  0.6420 -1.6840  0.5939
 2141SOL     OW16461   4.421   4.523   1.346  0.2528 -0.4762 -0.4068
 2141SOL    HW116462   4.476   4.446   1.314 -0.6001 -0.8690 -0.9267
 2141SOL    HW216463   4.411   4.590   1.273 -1.0222 -1.0010 -0.7315
 2142SOL     OW16464   1.604   2.213   2.522 -0.1924 -0.2191  0.0787
 2142SOL    HW116465   1.516   2.228   2.478 -0.0302  0.1963 -0.1046
 2142SOL    HW216466   1.621   2.114   2.530 -0.9680 -0.2980  0.7140
 2143SOL     OW16467   2.155   8.646   1.071 -0.5014 -0.3058 -0.0366
 2143SOL    HW116468   2.153   8.555   1.112 -0.7696 -0.6303 -0.7665
 2143SOL    HW216469   2.210   8.643   0.987 -0.9110  0.1018 -0.3173
 2144SOL     OW16470   0.701   5.762   1.848  0.1599 -0.2356 -0.3904
 2144SOL    HW116471   0.671   5.724   1.935  0.3519  0.5943  0.0385
 2144SOL    HW216472   0.794   5.731   1.829  1.2261  1.9728  1.1353
 2145SOL     OW16473   1.364  10.360   1.837  0.3081 -0.0306  0.1987
 2145SOL    HW116474   1.459  10.350   1.868 -0.1865 -1.9188  1.1716
 2145SOL    HW216475   1.343  10.457   1.825  2.1831  0.4399  0.5033
 2146SOL     OW16476   1.534   2.871   2.359 -0.4046  0.1528  0.3814
 2146SOL    HW116477   1.517   2.807   2.435 -0.7633 -0.1284  0.0700
 2146SOL    HW216478   1.630   2.866   2.332 -0.4337 -0.2854  0.3405
 2147SOL     OW16479   4.368   4.716   1.152 -0.2596  0.5403  0.1512
 2147SOL    HW116480   4.274   4.749   1.151 -0.2920  0.4387 -0.3321
 2147SOL    HW216481   4.431   4.794   1.157 -0.4067  0.5383  3.5239
 2148SOL     OW16482   2.570   7.077   1.836  0.1662  0.2753 -0.4359
 2148SOL    HW116483   2.543   7.170   1.808 -0.4353 -0.1024 -1.1292
 2148SOL    HW216484   2.528   7.054   1.923  2.2729  1.5740  0.9716
 2149SOL     OW16485   9.698   3.830   0.868 -0.2372  0.3514 -0.3135
 2149SOL    HW116486   9.612   3.855   0.823  0.6303  0.6883 -1.8028
 2149SOL    HW216487   9.740   3.912   0.908  0.2863  0.4847 -1.1414
 2150SOL     OW16488   2.979   2.729   1.593  0.2190  0.1001 -0.0168
 2150SOL    HW116489   3.031   2.670   1.654 -0.5008 -0.3167  0.2000
 2150SOL    HW216490   2.919   2.788   1.648  0.6299  0.7445 -0.2509
 2151SOL     OW16491   2.865   4.526   0.508  0.0228 -0.1640 -0.1533
 2151SOL    HW116492   2.833   4.529   0.414 -0.4729  0.2204  0.0260
 2151SOL    HW216493   2.887   4.432   0.533 -1.6213 -0.5271 -0.0591
 2152SOL     OW16494   2.727   5.261   1.821 -0.6204  0.0084  0.0289
 2152SOL    HW116495   2.652   5.200   1.795 -1.1259  0.2574  0.8661
 2152SOL    HW216496   2.728   5.340   1.760 -1.2396  0.1550  0.2005
 2153SOL     OW16497   1.696   7.269   0.635 -0.3617  0.4180 -0.3960
 2153SOL    HW116498   1.738   7.306   0.552 -0.5990  2.3170  0.3119
 2153SOL    HW216499   1.599   7.255   0.620 -0.3671  0.5652 -0.5020
 2154SOL     OW16500   1.735   7.385   1.192 -0.4322 -0.0079  0.2742
 2154SOL    HW116501   1.798   7.307   1.193  0.6186  0.8212  2.0028
 2154SOL    HW216502   1.709   7.406   1.098  0.9377 -1.1320 -0.3722
 2155SOL     OW16503   3.782   9.273   2.420 -0.0905 -0.2678 -0.2584
 2155SOL    HW116504   3.768   9.182   2.379 -1.7294  0.8325 -2.2275
 2155SOL    HW216505   3.879   9.294   2.421  0.1827 -1.4342 -1.1560
 2156SOL     OW16506   5.368   3.898   0.465  0.3499 -0.4578  0.1700
 2156SOL    HW116507   5.353   3.864   0.373 -0.4282  1.1756 -0.3182
 2156SOL    HW216508   5.327   3.834   0.531 -0.1269 -1.0284 -0.6664
 2157SOL     OW16509   0.727   1.666   2.175  0.4941  0.2297 -0.0781
 2157SOL    HW116510   0.772   1.705   2.256 -0.4861 -0.2181  0.6884
 2157SOL    HW216511   0.707   1.739   2.110  1.0967  0.6235  0.1693
 2158SOL     OW16512   9.737   5.463   0.979  0.2477  0.0379  0.3833
 2158SOL    HW116513   9.817   5.406   0.998  0.8003  0.8069  0.3715
 2158SOL    HW216514   9.759   5.529   0.908  0.2779  1.6821  1.8837
 2159SOL     OW16515   2.587   7.364   2.392  0.2085 -0.0479  0.1778
 2159SOL    HW116516   2.631   7.321   2.472 -0.4014 -0.0935  0.4965
 2159SOL    HW216517   2.489   7.371   2.409  0.1212  0.2296 -0.4475
 2160SOL     OW16518   2.469   6.969   1.557 -0.3276  0.2694  0.1864
 2160SOL    HW116519   2.554   6.916   1.551 -0.9640 -0.7024 -0.5319
 2160SOL    HW216520   2.459   7.006   1.649  0.7516  0.1790  0.3467
 2161SOL     OW16521   4.434   4.262   0.172  0.1166 -0.3550 -0.0047
 2161SOL    HW116522   4.518   4.280   0.224  0.2999 -1.1600 -0.0144
 2161SOL    HW216523   4.456   4.249   0.076  0.2091 -2.3153  0.2629
 2162SOL     OW16524   1.966   7.316   0.798 -0.6523  0.1690  0.4119
 2162SOL    HW116525   1.923   7.253   0.863  1.5415 -2.7137 -0.8106
 2162SOL    HW216526   1.905   7.330   0.720 -0.9954 -0.7459  0.5159
 2163SOL     OW16527   4.028   4.350   1.163  0.3767 -0.2902 -0.2879
 2163SOL    HW116528   3.946   4.293   1.177  1.6239 -1.5182  2.2640
 2163SOL    HW216529   4.099   4.296   1.119  0.7140  0.0172 -0.1235
 2164SOL     OW16530   3.280   1.887   1.918 -0.0957 -0.7504  0.0962
 2164SOL    HW116531   3.223   1.966   1.900  1.6511  0.7210  0.8051
 2164SOL    HW216532   3.334   1.865   1.837  2.4977  1.4295  1.1605
 2165SOL     OW16533   9.097   3.694   2.205 -0.0081  0.3812  0.2964
 2165SOL    HW116534   9.102   3.704   2.305 -0.7955 -1.2777  0.5277
 2165SOL    HW216535   9.099   3.597   2.182  1.8781  0.8026 -1.4214
 2166SOL     OW16536   2.020   2.795   0.585  0.5568  0.0556  0.0226
 2166SOL    HW116537   2.118   2.803   0.567  0.2735 -0.5541 -1.8626
 2166SOL    HW216538   1.974   2.755   0.506 -0.8775 -1.9139  1.7800
 2167SOL     OW16539   4.466   2.235   2.206 -0.2968 -0.0277 -0.7776
 2167SOL    HW116540   4.429   2.143   2.217  1.1993 -0.5684 -0.0338
 2167SOL    HW216541   4.528   2.237   2.127  0.8571 -0.0585  0.1174
 2168SOL     OW16542   2.758   5.989   0.274 -0.1781 -0.3827  0.9141
 2168SOL    HW116543   2.686   5.937   0.229  0.7606  0.1606 -1.2695
 2168SOL    HW216544   2.809   5.929   0.336  0.0200 -1.7377 -0.5444
 2169SOL     OW16545   4.090   9.704   2.511  0.4587 -0.9299 -0.3217
 2169SOL    HW116546   4.087   9.635   2.583 -1.5077 -1.4220 -0.8490
 2169SOL    HW216547   4.102   9.659   2.422 -2.0649 -0.7046 -0.7983
 2170SOL     OW16548   3.432   9.870   1.842 -0.1274 -0.0631 -0.2994
 2170SOL    HW116549   3.382   9.895   1.925 -1.4672  0.0565 -1.1310
 2170SOL    HW216550   3.445   9.770   1.839 -0.1009 -0.0696  0.0398
 2171SOL     OW16551   1.277   4.350   2.091  0.1772 -0.2325  0.3031
 2171SOL    HW116552   1.332   4.320   2.013  0.4573 -0.3960  0.5628
 2171SOL    HW216553   1.190   4.386   2.059 -0.4364 -1.9214  0.0326
 2172SOL     OW16554   4.231   9.001   1.896  0.3421 -0.7429 -0.3942
 2172SOL    HW116555   4.169   9.006   1.818 -0.0512 -0.9266 -0.0921
 2172SOL    HW216556   4.296   9.077   1.892 -0.2070 -0.2741 -0.4501
 2173SOL     OW16557   1.863   6.164   1.292 -0.4276 -0.4387 -0.0714
 2173SOL    HW116558   1.893   6.074   1.322  0.7258  0.2523  0.8799
 2173SOL    HW216559   1.943   6.223   1.277 -1.1552  0.3688 -0.8952
 2174SOL     OW16560   2.251   2.736   0.452 -0.2728 -0.1699 -0.0735
 2174SOL    HW116561   2.277   2.755   0.358 -1.2979  0.4968 -0.2223
 2174SOL    HW216562   2.334   2.719   0.506  0.1811 -2.7347 -1.5405
 2175SOL     OW16563   2.839   7.829   2.696 -0.0023  0.2805 -0.7094
 2175SOL    HW116564   2.913   7.765   2.714 -1.1092 -1.1995 -1.2342
 2175SOL    HW216565   2.791   7.851   2.781  1.0701  1.3104 -0.3578
 2176SOL     OW16566   2.251   4.516   0.873 -0.0403  0.1304 -0.0692
 2176SOL    HW116567   2.326   4.492   0.934  0.0626 -1.1635 -0.6860
 2176SOL    HW216568   2.258   4.613   0.847  1.1090  0.1486  0.2889
 2177SOL     OW16569   3.369   2.926   0.310 -0.1729  0.5434 -0.1706
 2177SOL    HW116570   3.345   2.835   0.279 -0.0614  0.5717 -0.3433
 2177SOL    HW216571   3.468   2.932   0.321 -0.1690  0.6779 -0.2743
 2178SOL     OW16572   2.149   3.556   0.726 -0.3341  0.3660  0.4284
 2178SOL    HW116573   2.124   3.652   0.714  0.5066  0.4494 -0.7316
 2178SOL    HW216574   2.082   3.511   0.786 -0.4302  1.7969  1.4033
 2179SOL     OW16575   3.835   5.677   1.950  0.0197  0.3818 -0.1491
 2179SOL    HW116576   3.841   5.645   1.856 -1.7612 -1.2581  0.2452
 2179SOL    HW216577   3.919   5.655   1.999  0.6785  0.6243 -1.1639
 2180SOL     OW16578   3.509   3.457   0.727  0.6024  1.5515  0.1172
 2180SOL    HW116579   3.429   3.517   0.716 -0.6320 -0.2805 -1.0221
 2180SOL    HW216580   3.518   3.432   0.824 -1.1247  0.5467  0.0452
 2181SOL     OW16581   3.148   1.071   0.624  0.2985 -0.0167 -0.0049
 2181SOL    HW116582   3.229   1.030   0.664  0.8712  0.4249 -0.6985
 2181SOL    HW216583   3.130   1.160   0.666  0.2313 -0.0695  0.0781
 2182SOL     OW16584   4.284   2.381   1.646  0.4352 -0.8431 -0.3491
 2182SOL    HW116585   4.335   2.308   1.692 -0.5924 -1.5732 -0.3526
 2182SOL    HW216586   4.311   2.469   1.684 -0.3938 -1.4322  1.6967
 2183SOL     OW16587   2.497   1.512   1.085  0.2386 -0.2014 -0.2436
 2183SOL    HW116588   2.508   1.443   1.156 -1.4193 -1.3883 -1.0905
 2183SOL    HW216589   2.425   1.576   1.112 -0.1267 -0.4303 -0.6508
 2184SOL     OW16590   2.689   9.786   1.229  0.1743 -0.0429  0.1809
 2184SOL    HW116591   2.610   9.747   1.275 -0.3114 -1.2017 -1.5757
 2184SOL    HW216592   2.659   9.849   1.158  0.9251  2.0353  1.6625
 2185SOL     OW16593   4.613   3.008   0.383 -0.1991 -0.0086  0.2076
 2185SOL    HW116594   4.671   3.034   0.305  1.1651 -0.2929  1.0985
 2185SOL    HW216595   4.522   3.048   0.372  0.5226  1.4447 -0.6423
 2186SOL     OW16596   2.524   7.098   0.970 -0.2736  0.0440  0.0370
 2186SOL    HW116597   2.499   7.097   0.873 -0.6987 -0.6818  0.1567
 2186SOL    HW216598   2.444   7.119   1.025  0.0070  0.6414  0.2272
 2187SOL     OW16599   0.865   4.592   0.167 -0.3955  0.1739 -0.3076
 2187SOL    HW116600   0.871   4.529   0.089  0.6639 -0.3563  0.1972
 2187SOL    HW216601   0.830   4.543   0.246 -0.0054  0.3419 -0.0328
 2188SOL     OW16602   9.453   5.416   2.509  0.0058  0.2281 -0.9467
 2188SOL    HW116603   9.514   5.492   2.535  0.7037 -0.4060 -0.7088
 2188SOL    HW216604   9.408   5.438   2.423  0.2037  0.9204 -0.8795
 2189SOL     OW16605   3.776   9.451   0.508  0.0406  0.0568 -0.3050
 2189SOL    HW116606   3.717   9.429   0.431  0.5455  1.2637 -1.0380
 2189SOL    HW216607   3.740   9.531   0.556  1.0651  0.7790 -0.7373
 2190SOL     OW16608   3.268  10.102   0.602 -0.3250 -0.2240 -0.7238
 2190SOL    HW116609   3.304  10.029   0.659 -1.0677  0.9418  1.3323
 2190SOL    HW216610   3.343  10.157   0.566  0.1460 -0.4204 -0.0604
 2191SOL     OW16611   4.155   2.260   0.716  0.0898  0.0408  0.4122
 2191SOL    HW116612   4.174   2.166   0.743 -1.3920  0.0858  1.6823
 2191SOL    HW216613   4.223   2.321   0.757  1.0175 -0.4653 -0.3663
 2192SOL     OW16614   3.610   9.504   1.240 -0.0468 -0.7245  0.1928
 2192SOL    HW116615   3.579   9.541   1.327 -1.1083  1.5617 -1.0992
 2192SOL    HW216616   3.699   9.545   1.217 -1.1166  0.8978 -1.1369
 2193SOL     OW16617   4.917   4.068   0.797 -0.8654  0.3357  0.0810
 2193SOL    HW116618   4.908   3.972   0.769  2.0575 -0.1694  0.6198
 2193SOL    HW216619   4.828   4.104   0.824 -1.9047 -2.4791  0.5837
 2194SOL     OW16620   2.694   3.585   2.210  0.0106 -0.4731  0.4498
 2194SOL    HW116621   2.789   3.575   2.240  0.1044 -0.4508  0.1676
 2194SOL    HW216622   2.636   3.607   2.288  0.6561  2.2300  0.2257
 2195SOL     OW16623   0.892  10.461   1.347 -0.4602 -0.0053  0.1526
 2195SOL    HW116624   0.934  10.551   1.356  0.4442 -0.4560  0.4573
 2195SOL    HW216625   0.963  10.391   1.339 -1.1735 -0.4696 -2.3935
 2196SOL     OW16626   2.031   1.489   2.235  0.1472  0.0069  0.4385
 2196SOL    HW116627   1.989   1.523   2.319 -0.5322 -1.0250  0.5209
 2196SOL    HW216628   2.071   1.566   2.184 -0.1759  0.7418  1.2885
 2197SOL     OW16629   4.630  10.636   1.683 -0.4202  0.0369 -0.3028
 2197SOL    HW116630   4.711  10.678   1.724 -0.7428  0.8394 -0.4808
 2197SOL    HW216631   4.581  10.583   1.752 -0.0799  0.0540 -0.0475
 2198SOL     OW16632   4.024   3.889   2.100 -0.4552 -0.3053  0.4435
 2198SOL    HW116633   3.981   3.802   2.076 -1.4176  0.4154 -0.4876
 2198SOL    HW216634   4.060   3.932   2.017  1.3974 -0.5304  1.1047
 2199SOL     OW16635   3.331   2.708   1.859 -0.4574  0.1038 -0.0364
 2199SOL    HW116636   3.306   2.791   1.809  0.8062  1.2651  1.2075
 2199SOL    HW216637   3.318   2.723   1.957  1.0544 -0.6940  0.2960
 2200SOL     OW16638   1.571   9.248   1.652  0.2683  0.1811  0.3263
 2200SOL    HW116639   1.501   9.312   1.620 -0.9029 -0.3169  1.8026
 2200SOL    HW216640   1.662   9.286   1.635 -0.3916  1.6073 -0.0815
 2201SOL     OW16641   1.062   4.942   0.613 -0.0918  0.2210  0.5603
 2201SOL    HW116642   1.084   4.944   0.711 -1.9591  1.6655  0.9704
 2201SOL    HW216643   0.971   4.903   0.599  0.2436 -0.1711 -0.6169
 2202SOL     OW16644   2.384   8.043   1.119 -0.0127  0.1123 -0.0410
 2202SOL    HW116645   2.331   7.971   1.075  2.1818 -0.9345 -0.9874
 2202SOL    HW216646   2.427   8.007   1.202  1.5148  0.1776 -0.7997
 2203SOL     OW16647   2.664   7.803   1.236 -0.2876 -0.0830 -0.0214
 2203SOL    HW116648   2.577   7.817   1.283  0.2797  1.9634  0.4881
 2203SOL    HW216649   2.739   7.807   1.302  0.3055 -0.3133 -0.6699
 2204SOL     OW16650   1.502   5.503   1.518  0.1228  0.0626 -0.5978
 2204SOL    HW116651   1.526   5.446   1.596 -0.3141 -0.2476 -0.6865
 2204SOL    HW216652   1.569   5.576   1.508  0.0663  0.2334  0.1987
 2205SOL     OW16653   3.499   3.279   2.214 -0.0784 -0.3108  0.2656
 2205SOL    HW116654   3.439   3.359   2.208 -1.7879 -1.5666  0.2464
 2205SOL    HW216655   3.570   3.296   2.282 -1.0364  0.8453  0.9932
 2206SOL     OW16656  10.322   5.768   2.222  0.2916  0.0292 -0.3216
 2206SOL    HW116657  10.259   5.728   2.288  1.4178 -1.3643 -0.0683
 2206SOL    HW216658  10.288   5.752   2.129  0.8203 -1.6821 -0.2276
 2207SOL     OW16659   3.686   5.781   0.581 -0.3578  0.2760 -0.2247
 2207SOL    HW116660   3.656   5.712   0.515  0.8986  1.0833 -1.6713
 2207SOL    HW216661   3.628   5.862   0.572  0.4493  0.7694 -1.0600
 2208SOL     OW16662   3.659   3.804   1.709  0.5746  0.0472  0.1614
 2208SOL    HW116663   3.637   3.816   1.612 -0.8775 -0.9805  0.3552
 2208SOL    HW216664   3.680   3.893   1.750  0.1076  0.6209 -0.8404
 2209SOL     OW16665   2.761  10.149   2.477  0.2123 -0.7590  0.2152
 2209SOL    HW116666   2.840  10.088   2.479  0.7684 -0.0379  0.8371
 2209SOL    HW216667   2.741  10.181   2.570  1.2026  1.5940 -0.3355
 2210SOL     OW16668   3.241   8.573   0.941  0.6083  0.2274 -0.0421
 2210SOL    HW116669   3.285   8.483   0.949  1.1296  0.3632 -1.3744
 2210SOL    HW216670   3.268   8.616   0.855 -0.8181  1.0270 -0.0978
 2211SOL     OW16671   3.055   0.948   0.184 -0.4176  0.4513  0.0841
 2211SOL    HW116672   3.091   0.981   0.097 -0.5074  3.0123  0.9649
 2211SOL    HW216673   3.118   0.973   0.258 -2.0596  1.5362  1.1676
 2212SOL     OW16674   2.219   4.191   0.553  0.8683  0.1917  0.0444
 2212SOL    HW116675   2.123   4.199   0.580  1.0070 -1.3492  1.0733
 2212SOL    HW216676   2.250   4.277   0.511 -1.3324  0.2184 -1.5491
 2213SOL     OW16677   3.437   3.851   0.520  0.2902  0.1240 -0.2561
 2213SOL    HW116678   3.339   3.833   0.521  0.4403 -0.7291  1.2381
 2213SOL    HW216679   3.472   3.851   0.614  1.8354 -0.2719 -0.8095
 2214SOL     OW16680   1.571   9.937   0.386  0.6217  0.1955  0.6510
 2214SOL    HW116681   1.631   9.945   0.307  2.2973  1.6705  2.0310
 2214SOL    HW216682   1.608   9.870   0.450 -0.2095 -0.2766  0.6489
 2215SOL     OW16683   8.265   2.261   1.062  0.0555  0.3932 -0.4695
 2215SOL    HW116684   8.285   2.226   0.971 -0.3516  0.8408 -0.7327
 2215SOL    HW216685   8.280   2.189   1.130  2.8294  0.7921 -0.6032
 2216SOL     OW16686   3.486   4.338   1.156 -0.2168  0.0192  0.0887
 2216SOL    HW116687   3.542   4.268   1.201 -2.0231 -1.4259  0.1281
 2216SOL    HW216688   3.534   4.371   1.074  1.1785 -0.3841  0.7226
 2217SOL     OW16689   2.114   7.793   1.598  0.4058  0.5536  0.0989
 2217SOL    HW116690   2.086   7.731   1.671  1.7364 -1.0904 -0.7732
 2217SOL    HW216691   2.143   7.880   1.638 -0.6328  0.3251  1.3882
 2218SOL     OW16692   0.757   7.719   0.617  0.1461  0.5414  0.8516
 2218SOL    HW116693   0.751   7.814   0.584  0.4224 -0.3046 -1.7357
 2218SOL    HW216694   0.675   7.669   0.589  2.5149 -1.4555 -2.8568
 2219SOL     OW16695   4.165   1.353   1.583 -0.2670  0.1410 -0.2806
 2219SOL    HW116696   4.131   1.271   1.630  0.3829 -0.7416 -1.3450
 2219SOL    HW216697   4.222   1.406   1.646 -0.1779 -0.5421  0.2228
 2220SOL     OW16698   2.118   1.832   1.418  0.0058  0.4965 -0.1719
 2220SOL    HW116699   2.021   1.839   1.395 -0.7826 -2.8431  1.8557
 2220SOL    HW216700   2.135   1.882   1.503 -0.0983  0.4323 -0.1130
 2221SOL     OW16701   9.427   2.065   2.450  0.0556  0.2257 -0.2656
 2221SOL    HW116702   9.521   2.040   2.470 -0.5059 -1.3917  0.4920
 2221SOL    HW216703   9.425   2.134   2.378  1.8220  0.5800  0.0098
 2222SOL     OW16704   1.035   4.801   1.751  0.0577 -0.1235 -0.0634
 2222SOL    HW116705   1.031   4.838   1.843 -1.3878 -0.5052  0.0280
 2222SOL    HW216706   1.127   4.767   1.733  0.0208 -1.1462  1.6628
 2223SOL     OW16707  10.036   4.063   2.608  0.3248  0.0315 -0.1506
 2223SOL    HW116708  10.076   3.997   2.545  2.4820 -0.8757  2.0571
 2223SOL    HW216709   9.976   4.015   2.673  0.2123  0.5512  0.1312
 2224SOL     OW16710   3.761   3.439   0.639 -0.1243  0.1036 -0.0133
 2224SOL    HW116711   3.822   3.499   0.691 -0.7236 -0.5407  1.4686
 2224SOL    HW216712   3.670   3.441   0.679 -0.2433 -1.5225 -0.1545
 2225SOL     OW16713   3.185   5.005   2.461 -0.1002 -0.4618  0.4159
 2225SOL    HW116714   3.281   4.976   2.467  1.1475  2.8136 -2.3059
 2225SOL    HW216715   3.135   4.939   2.404  1.0309 -1.0557  0.0752
 2226SOL     OW16716   3.914   4.223   0.884 -0.4977  0.4486 -0.0384
 2226SOL    HW116717   3.874   4.151   0.828 -0.3621 -0.1608  0.6356
 2226SOL    HW216718   3.895   4.204   0.981 -2.2102  2.3666  0.0477
 2227SOL     OW16719   0.852   8.947   1.884 -0.2311 -0.1595  0.0989
 2227SOL    HW116720   0.773   8.929   1.825  0.4637  0.1015 -0.9145
 2227SOL    HW216721   0.917   8.872   1.877  1.0302  1.0645 -1.4184
 2228SOL     OW16722   1.302   7.046   1.762 -0.3965  0.0341  0.2932
 2228SOL    HW116723   1.289   7.073   1.666 -0.9726  2.1478  0.9418
 2228SOL    HW216724   1.388   7.084   1.796 -1.5782  1.7250  1.4408
 2229SOL     OW16725   2.055   8.211   1.687 -0.7912  0.2916 -0.2009
 2229SOL    HW116726   1.956   8.224   1.686 -0.8728 -0.2943 -0.4726
 2229SOL    HW216727   2.082   8.165   1.772 -0.8475 -0.2184 -0.4565
 2230SOL     OW16728   1.049   4.348   2.676  0.0098  0.2104  0.5939
 2230SOL    HW116729   1.015   4.342   2.582 -1.8353 -0.4556  1.2708
 2230SOL    HW216730   1.104   4.431   2.687  0.7205 -0.0051 -1.2116
 2231SOL     OW16731  10.478   2.088   2.648 -0.2284  0.4743 -0.5342
 2231SOL    HW116732  10.476   2.096   2.747  3.3179 -1.5586 -0.2002
 2231SOL    HW216733  10.403   2.029   2.618 -0.2934 -0.3006  1.1059
 2232SOL     OW16734   3.618   3.522   0.214  0.0114 -0.0759  0.4754
 2232SOL    HW116735   3.549   3.594   0.215  1.3558  1.2476  1.4125
 2232SOL    HW216736   3.574   3.433   0.227 -1.7235  0.5019 -1.2446
 2233SOL     OW16737   2.922   1.981   0.412 -0.2735  0.1182 -0.1648
 2233SOL    HW116738   2.899   2.052   0.345  1.1952  1.2053  0.4589
 2233SOL    HW216739   3.022   1.972   0.418 -0.4385 -1.5863  0.1991
 2234SOL     OW16740   1.187   9.881   0.132  0.2364 -0.3126 -0.0898
 2234SOL    HW116741   1.098   9.871   0.087  1.1621  0.0240 -2.0429
 2234SOL    HW216742   1.245   9.803   0.108  0.1221 -1.1003  2.0691
 2235SOL     OW16743   1.898   1.037   1.361  0.1224 -0.3489  0.2468
 2235SOL    HW116744   1.940   0.974   1.427  0.7953  0.6638  0.8066
 2235SOL    HW216745   1.963   1.110   1.339 -0.8516  0.4760  0.0613
 2236SOL     OW16746   4.933   3.825   1.396 -0.5962 -0.2913  0.2260
 2236SOL    HW116747   4.908   3.737   1.436  1.6151 -0.2797  1.6883
 2236SOL    HW216748   4.911   3.898   1.461 -0.8179  0.0926 -0.2759
 2237SOL     OW16749   4.159   4.471   1.919 -0.0182 -0.2325  0.0108
 2237SOL    HW116750   4.063   4.457   1.897 -0.4994  2.1314  0.4655
 2237SOL    HW216751   4.167   4.529   2.000  1.7877  0.2786 -0.5037
 2238SOL     OW16752   2.612   7.085   1.318  0.0735 -0.2117 -0.1116
 2238SOL    HW116753   2.643   7.023   1.390  0.1340 -1.5232 -1.2371
 2238SOL    HW216754   2.605   7.034   1.232  0.3668  1.4151 -1.1076
 2239SOL     OW16755   0.949   7.143   2.067 -0.9282  0.2579  0.3160
 2239SOL    HW116756   1.008   7.066   2.040 -1.1207  0.1543  0.1905
 2239SOL    HW216757   0.985   7.185   2.150 -1.5258 -0.7456  1.0859
 2240SOL     OW16758   2.780  10.221   0.766 -0.0752 -0.2948 -0.3775
 2240SOL    HW116759   2.688  10.259   0.776  0.3914  0.5351  0.9479
 2240SOL    HW216760   2.824  10.261   0.686 -0.7338 -0.4486 -0.8277
 2241SOL     OW16761   2.040   5.578   2.039  0.1585  0.4134  0.0011
 2241SOL    HW116762   2.120   5.579   1.979 -0.8346 -0.1428 -1.3544
 2241SOL    HW216763   2.051   5.648   2.110  0.3198  2.6963 -2.1966
 2242SOL     OW16764   9.458   5.197   2.133 -0.2645  0.0870  0.3020
 2242SOL    HW116765   9.445   5.163   2.227  0.0471 -0.1465  0.2610
 2242SOL    HW216766   9.430   5.126   2.068 -0.5858  0.2892  0.2188
 2243SOL     OW16767  10.086   5.994   2.020 -0.7875 -0.0161 -0.1107
 2243SOL    HW116768  10.058   6.058   1.948  0.1980 -0.9308 -1.3577
 2243SOL    HW216769  10.138   6.043   2.090 -1.5655  0.8535 -0.1361
 2244SOL     OW16770   4.009   1.456   1.240 -0.4646  0.2384 -0.0988
 2244SOL    HW116771   3.937   1.388   1.224 -0.2244 -0.2404  0.8312
 2244SOL    HW216772   4.089   1.411   1.278 -0.3434  1.0552  0.6292
 2245SOL     OW16773   2.824   6.462   1.038 -0.8404 -0.1148  0.5168
 2245SOL    HW116774   2.821   6.526   1.115 -2.3613 -0.1847  0.5385
 2245SOL    HW216775   2.824   6.512   0.952  0.0024 -0.0522  0.5529
 2246SOL     OW16776   2.717   6.882   1.482 -0.0336  0.4783  0.8557
 2246SOL    HW116777   2.813   6.894   1.506 -0.2496  1.7578  1.0771
 2246SOL    HW216778   2.698   6.785   1.468  0.7763 -0.0052  2.9546
 2247SOL     OW16779   1.548   6.974   0.659 -0.1905  0.2998  0.6551
 2247SOL    HW116780   1.600   7.006   0.580 -1.3230 -0.0096 -0.2371
 2247SOL    HW216781   1.530   6.876   0.650 -0.3881  0.2765  1.2662
 2248SOL     OW16782   0.829   7.088   0.369  0.3454  0.0326  0.0205
 2248SOL    HW116783   0.804   7.022   0.298  1.1035 -2.7306  2.1982
 2248SOL    HW216784   0.752   7.102   0.430  1.3611 -1.9030  1.8067
 2249SOL     OW16785   4.811   3.671   2.467 -0.7097  0.7889 -0.6456
 2249SOL    HW116786   4.896   3.714   2.496 -0.2070 -0.4933 -0.1704
 2249SOL    HW216787   4.805   3.671   2.367 -0.0876  0.7661 -0.6815
 2250SOL     OW16788   1.048   9.389   1.474  0.0719  0.0615  0.2876
 2250SOL    HW116789   1.057   9.330   1.394  0.5262  0.3699  0.1117
 2250SOL    HW216790   1.000   9.473   1.449  1.3196  0.7148  0.0485
 2251SOL     OW16791   0.817   8.466   2.401 -0.2770  0.0318  0.6464
 2251SOL    HW116792   0.717   8.460   2.406 -0.3280  0.0068 -0.3310
 2251SOL    HW216793   0.843   8.551   2.355  0.2002  0.9325  2.5065
 2252SOL     OW16794  10.445   7.091   2.263 -0.3043  0.5588  0.0740
 2252SOL    HW116795  10.527   7.078   2.207  0.9331  1.6007  1.5708
 2252SOL    HW216796  10.371   7.034   2.229  1.8611 -2.4674  0.2713
 2253SOL     OW16797   2.346   7.482   0.500  0.2217 -0.1769  0.4640
 2253SOL    HW116798   2.322   7.551   0.432  1.4918  0.3641  0.5409
 2253SOL    HW216799   2.307   7.394   0.473  1.5146 -0.1865 -1.5251
 2254SOL     OW16800   9.226   3.929   1.112  0.3527  0.4917  0.6081
 2254SOL    HW116801   9.302   3.921   1.048  0.4678  1.9453  0.5594
 2254SOL    HW216802   9.175   3.843   1.114 -0.9664  1.1148 -3.0490
 2255SOL     OW16803   3.581  10.654   1.702  0.0081  0.6265  0.0590
 2255SOL    HW116804   3.481  10.642   1.704  0.1502 -0.5906 -0.0838
 2255SOL    HW216805   3.611  10.696   1.788 -0.6974  1.6455 -0.1709
 2256SOL     OW16806   1.613   8.966   1.052  0.4820  0.0553  0.1410
 2256SOL    HW116807   1.598   9.012   0.965  0.7366  0.8004  0.4887
 2256SOL    HW216808   1.652   8.875   1.035 -1.6236 -0.7258 -0.6223
 2257SOL     OW16809   2.014   1.071   0.213  0.3901  0.4182  0.1081
 2257SOL    HW116810   1.920   1.040   0.230  0.9710 -1.5723 -0.2240
 2257SOL    HW216811   2.047   1.033   0.127  1.4820  1.1434  0.2010
 2258SOL     OW16812   2.952   1.527   0.841  0.6534  0.7459 -0.0136
 2258SOL    HW116813   2.945   1.560   0.747 -2.0813  1.0013  0.2302
 2258SOL    HW216814   3.039   1.555   0.880  0.8826  2.5682 -1.7500
 2259SOL     OW16815  10.193   4.434   1.246  0.3788 -0.2803 -0.3147
 2259SOL    HW116816  10.238   4.345   1.232  0.6249 -0.1134 -0.5974
 2259SOL    HW216817  10.228   4.476   1.329 -1.4599 -1.5087  1.1244
 2260SOL     OW16818   2.395   6.679   1.526 -0.0481  0.1935 -0.2204
 2260SOL    HW116819   2.415   6.676   1.624  1.0057  1.4483 -0.3892
 2260SOL    HW216820   2.296   6.688   1.512 -0.2213 -0.1795  0.7096
 2261SOL     OW16821   1.127   1.931   0.564 -0.1516 -0.4571  0.8728
 2261SOL    HW116822   1.216   1.893   0.588 -0.8853 -1.7343  1.6740
 2261SOL    HW216823   1.116   1.931   0.465  1.8963  2.4648  0.6154
 2262SOL     OW16824   1.139   3.508   2.122 -0.6123  0.3866 -0.5327
 2262SOL    HW116825   1.106   3.520   2.216  1.6006  0.9863  0.1871
 2262SOL    HW216826   1.173   3.595   2.087  1.7113 -0.5565 -0.6638
 2263SOL     OW16827   1.314   7.381   0.872  0.2061 -0.2172 -0.0526
 2263SOL    HW116828   1.313   7.370   0.972  0.8560 -1.8247 -0.2055
 2263SOL    HW216829   1.225   7.357   0.835 -0.0547  0.4396  0.1356
 2264SOL     OW16830   2.683   3.656   1.019 -0.1305  0.5637 -0.4190
 2264SOL    HW116831   2.658   3.744   0.979  0.6410  0.7292 -0.5459
 2264SOL    HW216832   2.721   3.671   1.110  1.3278  0.4897 -1.0074
 2265SOL     OW16833   8.634   2.705   1.199  0.1462  0.2701  0.2641
 2265SOL    HW116834   8.551   2.689   1.253 -1.0957  1.6257 -1.1729
 2265SOL    HW216835   8.661   2.801   1.209  0.8848  0.1039 -0.1671
 2266SOL     OW16836   1.046   8.773   1.843  0.0538 -0.7412 -0.0993
 2266SOL    HW116837   1.093   8.687   1.864 -1.5368 -1.2949  1.3514
 2266SOL    HW216838   1.094   8.849   1.885  0.1282 -1.2019  0.6513
 2267SOL     OW16839   0.871   2.634   1.194  0.1188  0.3688  0.1982
 2267SOL    HW116840   0.904   2.662   1.104  0.6029 -1.3991 -0.1984
 2267SOL    HW216841   0.948   2.600   1.248 -0.9346 -3.7102 -0.6923
 2268SOL     OW16842   1.213   7.775   2.091 -0.0358 -0.0028 -0.1184
 2268SOL    HW116843   1.202   7.691   2.144 -0.2449  0.7696  1.0647
 2268SOL    HW216844   1.303   7.815   2.110 -0.3731  0.6271  0.1659
 2269SOL     OW16845   3.574   7.949   1.738 -0.1069  0.0710  0.2004
 2269SOL    HW116846   3.641   7.952   1.811 -0.0938  1.3394  0.1519
 2269SOL    HW216847   3.507   7.877   1.756  0.0318  0.2231  1.3372
 2270SOL     OW16848   3.196   2.587   2.513  0.0701  0.3714 -0.5729
 2270SOL    HW116849   3.232   2.648   2.583 -0.5843  1.3925 -1.0992
 2270SOL    HW216850   3.184   2.495   2.550 -2.2378  1.3661  1.2856
 2271SOL     OW16851   1.941  10.046   1.058 -1.1321  0.1029  0.1614
 2271SOL    HW116852   2.006  10.121   1.067 -0.9227 -0.2283  1.6911
 2271SOL    HW216853   1.885  10.059   0.977 -0.5228  1.4606 -0.0505
 2272SOL     OW16854   2.232   7.118   1.482  0.0306  0.3727  0.2026
 2272SOL    HW116855   2.300   7.049   1.506  0.2950  0.0971 -1.2568
 2272SOL    HW216856   2.143   7.092   1.521  0.3800 -0.1856  0.6366
 2273SOL     OW16857   3.154   1.418   1.703 -0.7324 -0.3013  0.5229
 2273SOL    HW116858   3.212   1.499   1.702 -2.6959  1.1454 -0.2244
 2273SOL    HW216859   3.058   1.446   1.708 -1.4253 -2.6085  0.8584
 2274SOL     OW16860   9.377   3.446   0.256  0.0199 -0.6520  0.3052
 2274SOL    HW116861   9.395   3.382   0.181  0.7096  0.3992 -0.4333
 2274SOL    HW216862   9.399   3.539   0.227 -1.2606 -0.0235  1.2745
 2275SOL     OW16863   4.449   1.138   2.307 -0.4139 -0.5041  0.0219
 2275SOL    HW116864   4.492   1.126   2.217 -0.5751  1.7772 -0.3987
 2275SOL    HW216865   4.389   1.061   2.326 -0.9155 -0.6821 -2.1508
 2276SOL     OW16866  10.116   1.181   1.106 -0.1727 -0.3476 -0.1932
 2276SOL    HW116867  10.063   1.214   1.028 -0.7235 -1.3048 -0.2291
 2276SOL    HW216868  10.075   1.097   1.142  0.5662 -0.3851  0.5955
 2277SOL     OW16869   0.928   3.187   0.884  0.3424 -0.5935 -0.5288
 2277SOL    HW116870   0.989   3.187   0.963  0.3884 -1.5602 -0.5544
 2277SOL    HW216871   0.970   3.133   0.811 -0.5889 -1.3394 -0.5148
 2278SOL     OW16872   9.075   3.095   1.578 -0.8130  0.6612  0.2620
 2278SOL    HW116873   9.114   3.079   1.487  0.1051 -0.4411  0.8437
 2278SOL    HW216874   9.117   3.176   1.618  0.3216 -0.0697  0.5634
 2279SOL     OW16875   2.566   6.855   2.586 -0.3848  0.1275 -0.4938
 2279SOL    HW116876   2.567   6.877   2.488  0.1867 -0.8966 -0.7131
 2279SOL    HW216877   2.552   6.940   2.638  0.2485  0.8068 -1.4101
 2280SOL     OW16878   1.046   1.940   0.292 -0.1985  0.2058 -0.3351
 2280SOL    HW116879   1.060   1.842   0.279 -0.9915 -0.3115  2.5197
 2280SOL    HW216880   1.001   1.978   0.211  0.7899 -1.6290 -1.7764
 2281SOL     OW16881   4.744   8.648   0.991  0.1094  0.2087 -0.1007
 2281SOL    HW116882   4.648   8.625   0.974 -0.5628  1.3112  2.0110
 2281SOL    HW216883   4.763   8.639   1.089  1.3523  2.8300 -0.0528
 2282SOL     OW16884   1.736   1.643   0.565 -0.1113  0.5066  0.0540
 2282SOL    HW116885   1.745   1.710   0.491  1.8544 -0.7705 -0.9214
 2282SOL    HW216886   1.821   1.590   0.573 -0.6270 -0.0110  2.6372
 2283SOL     OW16887   4.880   3.619   2.211  0.1180 -0.1928 -0.4364
 2283SOL    HW116888   4.977   3.608   2.231  0.2955 -0.3108 -1.3165
 2283SOL    HW216889   4.869   3.646   2.115 -0.8095 -2.1478 -0.9120
 2284SOL     OW16890   9.687   0.887   1.728 -0.2314  0.3922 -0.3145
 2284SOL    HW116891   9.737   0.820   1.783  1.6684  0.6880 -1.6410
 2284SOL    HW216892   9.634   0.946   1.789  1.0409  0.0730  1.1525
 2285SOL     OW16893   3.478   3.717   2.243  0.9324  0.2690 -0.1741
 2285SOL    HW116894   3.405   3.650   2.258  0.3789  0.5269 -1.6530
 2285SOL    HW216895   3.456   3.802   2.290  0.1465  0.4344 -0.8365
 2286SOL     OW16896   2.090   7.589   1.121  0.1424 -0.8246  0.6205
 2286SOL    HW116897   2.079   7.521   1.193  0.4603 -1.5452 -0.0150
 2286SOL    HW216898   2.116   7.544   1.036 -0.3241  0.0134  0.0293
 2287SOL     OW16899   3.129   2.550   1.748  0.0687 -0.1245 -0.4254
 2287SOL    HW116900   3.190   2.626   1.770  0.4701 -0.0609 -1.7197
 2287SOL    HW216901   3.146   2.475   1.813 -0.4728  0.9410  0.9824
 2288SOL     OW16902   0.829   6.002   1.182  0.0704 -0.6232 -0.4572
 2288SOL    HW116903   0.782   5.929   1.232 -1.0666  0.0260 -0.5539
 2288SOL    HW216904   0.928   5.989   1.188 -0.0863 -1.1888  1.0054
 2289SOL     OW16905   3.733   3.195   1.462 -0.0163 -0.1888  0.3456
 2289SOL    HW116906   3.717   3.097   1.465  1.0798 -0.3474  2.1058
 2289SOL    HW216907   3.819   3.213   1.414 -1.1742  0.0693 -1.6867
 2290SOL     OW16908  10.316   0.761   0.957 -0.0346  0.5226  0.4164
 2290SOL    HW116909  10.301   0.858   0.936  2.7684  1.1605  1.1220
 2290SOL    HW216910  10.315   0.748   1.056  1.1808  0.1578  0.3992
 2291SOL     OW16911   3.733  10.304   2.519 -0.4118  0.1002  0.4881
 2291SOL    HW116912   3.681  10.274   2.439  0.6631  0.8838 -0.5219
 2291SOL    HW216913   3.779  10.390   2.498  0.0500  0.2129  1.8937
 2292SOL     OW16914   1.256   8.872   0.333  0.1859 -0.1117 -0.1977
 2292SOL    HW116915   1.248   8.960   0.285  1.9745  0.3071  0.2403
 2292SOL    HW216916   1.299   8.805   0.272 -0.1298 -0.3804 -0.1308
 2293SOL     OW16917   0.680   3.303   2.276  0.1310 -0.0081  0.5082
 2293SOL    HW116918   0.762   3.248   2.289  0.0365  0.0945  1.6425
 2293SOL    HW216919   0.624   3.299   2.359 -0.1548  1.3219  0.3984
 2294SOL     OW16920   0.953   2.547   0.211 -0.1289 -0.0165  0.4315
 2294SOL    HW116921   0.858   2.518   0.197 -0.3187  1.1078 -0.7071
 2294SOL    HW216922   0.974   2.622   0.149  2.0829 -1.4955 -0.6884
 2295SOL     OW16923   4.840   2.698   1.723  0.5223  0.1732 -0.1706
 2295SOL    HW116924   4.883   2.740   1.643  0.1380  1.2393  0.1740
 2295SOL    HW216925   4.908   2.689   1.796  0.4502  0.7775 -0.0295
 2296SOL     OW16926   2.564   9.627   0.254  0.3567 -0.0398  0.1040
 2296SOL    HW116927   2.578   9.678   0.339 -0.0942 -0.8191  0.6455
 2296SOL    HW216928   2.561   9.529   0.273  0.0357 -0.2116 -0.7844
 2297SOL     OW16929   2.822   8.031   1.461 -0.6903 -0.0297  0.0278
 2297SOL    HW116930   2.794   8.101   1.396 -0.7566  1.3837  1.5466
 2297SOL    HW216931   2.911   7.994   1.433 -2.3666 -2.0480 -2.8479
 2298SOL     OW16932   9.130   1.896   0.498 -0.0295 -0.3214  0.3875
 2298SOL    HW116933   9.158   1.908   0.403  0.6799  0.0202  0.6397
 2298SOL    HW216934   9.123   1.798   0.519  4.5025 -0.5341  1.3262
 2299SOL     OW16935   5.152   3.158   0.656 -0.2503  0.4853 -0.2519
 2299SOL    HW116936   5.172   3.064   0.683  1.2381  1.0197  0.5252
 2299SOL    HW216937   5.059   3.163   0.620 -0.2622 -1.3215 -0.4919
 2300SOL     OW16938   5.125   4.164   1.864  0.5662 -0.0020  0.1393
 2300SOL    HW116939   5.041   4.127   1.902  0.5455 -0.0561  0.0376
 2300SOL    HW216940   5.115   4.263   1.850 -1.1254 -0.6791 -4.2541
 2301SOL     OW16941   0.953   6.598   1.676 -0.0144  0.2787 -0.0106
 2301SOL    HW116942   1.016   6.531   1.715 -1.1242 -0.3663  0.6786
 2301SOL    HW216943   0.946   6.677   1.737 -0.1565  0.1937  0.0812
 2302SOL     OW16944   1.867  10.124   0.418  0.0829 -0.5970  0.2147
 2302SOL    HW116945   1.836  10.054   0.354  0.7331 -0.0508 -0.7175
 2302SOL    HW216946   1.794  10.190   0.434 -0.2773 -1.0644  0.4988
 2303SOL     OW16947   2.152   3.202   0.477  0.3517  0.2001  0.4939
 2303SOL    HW116948   2.197   3.281   0.519  1.1683 -0.9008  1.7098
 2303SOL    HW216949   2.171   3.202   0.379 -0.2375  1.8931  0.3520
 2304SOL     OW16950   0.627  10.323   2.131  0.0205  0.3881  0.6470
 2304SOL    HW116951   0.588  10.368   2.050  1.0264 -0.7516 -0.4969
 2304SOL    HW216952   0.562  10.326   2.206 -1.6830 -0.1576 -0.7819
 2305SOL     OW16953   2.812   8.469   0.421 -0.0909  0.8370 -0.2603
 2305SOL    HW116954   2.895   8.419   0.448  0.4609  1.8832  0.0038
 2305SOL    HW216955   2.769   8.508   0.502 -0.8642  0.2882 -0.3953
 2306SOL     OW16956   4.525  10.699   1.444  0.0675 -0.4251 -0.0337
 2306SOL    HW116957   4.547  10.657   1.532 -1.7368 -2.7169 -0.6120
 2306SOL    HW216958   4.604  10.751   1.411  1.5587 -1.4314  1.8632
 2307SOL     OW16959  10.565   5.176   1.513  0.4367  0.1101 -0.5281
 2307SOL    HW116960  10.484   5.211   1.560  1.0300 -0.2314  0.7687
 2307SOL    HW216961  10.539   5.095   1.459  0.3628 -1.5494  1.9062
 2308SOL     OW16962   1.469   8.414   2.545 -0.2751 -0.1076 -0.2169
 2308SOL    HW116963   1.473   8.511   2.524  0.4114 -0.4047 -1.5156
 2308SOL    HW216964   1.376   8.379   2.529 -0.0328 -0.0869 -1.6833
 2309SOL     OW16965   3.548   2.265   2.448 -0.2037  0.3219 -0.3371
 2309SOL    HW116966   3.520   2.222   2.362 -1.6464 -1.1129  0.8005
 2309SOL    HW216967   3.576   2.359   2.431 -2.3521  0.6836 -2.0958
 2310SOL     OW16968   4.151   4.507   1.376  0.2355  0.1335 -0.0100
 2310SOL    HW116969   4.096   4.484   1.295  1.9861  0.0976 -1.2280
 2310SOL    HW216970   4.248   4.507   1.351  0.7450  1.1046  1.8740
 2311SOL     OW16971   1.414   5.951   1.596 -0.6291 -0.0260  0.5912
 2311SOL    HW116972   1.508   5.969   1.566 -0.5244  0.5555  1.2475
 2311SOL    HW216973   1.416   5.904   1.684 -0.9517 -0.6016  0.2951
 2312SOL     OW16974   2.423   5.984   2.190  0.2069 -0.1429  0.3267
 2312SOL    HW116975   2.443   5.974   2.092  0.0247  0.0681  0.2683
 2312SOL    HW216976   2.367   6.065   2.204  0.1219 -0.2487  0.5927
 2313SOL     OW16977   3.808   9.087   0.377 -0.2604  0.6091 -0.4049
 2313SOL    HW116978   3.712   9.113   0.386 -0.4861  0.0864 -1.2001
 2313SOL    HW216979   3.815   9.007   0.317  0.7143  0.9463 -0.7533
 2314SOL     OW16980   2.076   7.427   1.350 -0.2688 -0.9073  0.1428
 2314SOL    HW116981   2.176   7.423   1.348 -0.3278 -2.2800 -1.4613
 2314SOL    HW216982   2.045   7.435   1.444  1.3946  0.9359  0.5762
 2315SOL     OW16983   2.919   4.751   0.685 -0.0847 -0.5101 -0.0336
 2315SOL    HW116984   2.971   4.800   0.615 -0.7565  0.4006  0.0940
 2315SOL    HW216985   2.898   4.659   0.652 -1.7917  0.4492 -1.7164
 2316SOL     OW16986   2.547   4.220   0.950 -0.4288 -0.4705 -0.3844
 2316SOL    HW116987   2.469   4.172   0.989  0.0148  0.6330  1.9144
 2316SOL    HW216988   2.518   4.268   0.867 -1.6020 -2.0533 -0.9099
 2317SOL     OW16989  10.430   5.514   0.792 -0.3513  0.2522  0.1169
 2317SOL    HW116990  10.350   5.536   0.735 -0.8866  2.7037  1.7615
 2317SOL    HW216991  10.399   5.485   0.882  0.6403  1.5392  0.8755
 2318SOL     OW16992   0.653   3.078   0.951 -0.5659 -0.2032  0.7484
 2318SOL    HW116993   0.733   3.137   0.945  0.9983 -2.3481 -0.2013
 2318SOL    HW216994   0.678   2.985   0.924 -4.1832 -0.1885 -3.1342
 2319SOL     OW16995   3.003   8.688   2.044 -0.8128 -0.2287 -0.3083
 2319SOL    HW116996   3.067   8.756   2.006 -1.2709  0.1071 -0.4845
 2319SOL    HW216997   3.049   8.600   2.052 -0.8202 -0.4135 -2.0678
 2320SOL     OW16998   3.616   4.611   1.177 -0.2486 -0.6843 -0.5351
 2320SOL    HW116999   3.522   4.595   1.147 -0.8619  0.5302  0.6795
 2320SOL    HW217000   3.620   4.695   1.232  1.6240 -0.4732 -0.9551
 2321SOL     OW17001   4.574   1.116   1.708  0.4675 -0.1935 -0.3664
 2321SOL    HW117002   4.527   1.108   1.796 -0.7685 -1.1356 -1.0984
 2321SOL    HW217003   4.671   1.095   1.720  0.3007 -0.3737  0.7541
 2322SOL     OW17004  10.358   6.044   0.633  0.0929 -0.4811 -0.8534
 2322SOL    HW117005  10.371   6.042   0.732  0.7186 -0.0152 -0.9200
 2322SOL    HW217006  10.393   5.959   0.593  1.3722  0.0165 -0.8381
 2323SOL     OW17007   2.243   7.653   0.306  0.1028 -0.4592 -0.3145
 2323SOL    HW117008   2.151   7.687   0.323  0.5146  1.6293 -2.1278
 2323SOL    HW217009   2.289   7.711   0.239  2.1277 -2.5011 -0.7633
 2324SOL     OW17010   3.339   2.149   0.255  0.0387 -0.3698  0.1105
 2324SOL    HW117011   3.360   2.206   0.334 -1.9513  0.8183 -0.1801
 2324SOL    HW217012   3.273   2.078   0.282 -0.2013 -0.3186 -0.3394
 2325SOL     OW17013   3.317   1.571   0.264  0.1393 -0.1715 -0.5415
 2325SOL    HW117014   3.351   1.631   0.337  1.9878  0.6230 -2.0017
 2325SOL    HW217015   3.393   1.518   0.226 -1.0094 -1.4482 -1.0993
 2326SOL     OW17016   0.860   4.533   2.186 -0.3213  0.3638 -0.4339
 2326SOL    HW117017   0.916   4.475   2.127 -2.0280 -1.5102 -0.2498
 2326SOL    HW217018   0.802   4.592   2.129  2.6838  3.2533 -0.6453
 2327SOL     OW17019   2.082   6.066   1.117  0.1805 -0.3148 -0.2114
 2327SOL    HW117020   2.008   6.133   1.110 -1.5325 -1.9904  1.3208
 2327SOL    HW217021   2.157   6.093   1.057 -1.0149  2.2563 -0.6164
 2328SOL     OW17022   1.699   3.496   1.939 -0.2068  0.1336 -0.0769
 2328SOL    HW117023   1.747   3.457   1.860  1.9245 -0.0421  1.2730
 2328SOL    HW217024   1.730   3.590   1.954 -1.4655  0.5672 -0.1366
 2329SOL     OW17025   2.925   9.004   1.709 -0.0868 -0.2774 -0.2166
 2329SOL    HW117026   2.913   8.934   1.638 -1.4014  0.2109 -0.5002
 2329SOL    HW217027   2.946   8.959   1.796  2.8345 -0.8190 -1.1533
 2330SOL     OW17028   0.711   6.233   0.879  0.4430 -0.0709  0.2821
 2330SOL    HW117029   0.673   6.162   0.938 -2.1410  0.6747 -0.3987
 2330SOL    HW217030   0.656   6.239   0.795  2.9363  0.1310 -1.3837
 2331SOL     OW17031   1.823   8.172   2.189  0.1803 -0.3301  0.0295
 2331SOL    HW117032   1.739   8.213   2.222 -0.6132 -2.1924  0.3871
 2331SOL    HW217033   1.885   8.243   2.157 -1.8916  0.9876 -1.1115
 2332SOL     OW17034   8.811   3.157   1.539 -0.4362 -0.2245 -0.0679
 2332SOL    HW117035   8.754   3.110   1.606 -0.2782 -0.8243 -0.3512
 2332SOL    HW217036   8.907   3.133   1.554 -0.2719  0.6417  0.2969
 2333SOL     OW17037   2.291   4.820   1.399 -0.0511  0.2823  0.4685
 2333SOL    HW117038   2.301   4.770   1.313 -1.2652  0.7707  0.0300
 2333SOL    HW217039   2.321   4.763   1.475 -0.1055 -0.5934 -0.1649
 2334SOL     OW17040   1.219   8.292   2.588  0.3508 -0.3276 -0.4779
 2334SOL    HW117041   1.159   8.296   2.508  0.0275 -1.0117 -0.2727
 2334SOL    HW217042   1.193   8.214   2.645  0.6434  0.0943  0.2409
 2335SOL     OW17043   2.981   1.682   0.585 -0.2432  0.1917  0.6137
 2335SOL    HW117044   2.890   1.721   0.568 -0.1017  0.3442  0.2096
 2335SOL    HW217045   3.010   1.629   0.505  1.1238  2.2429 -0.2965
 2336SOL     OW17046   1.172   8.057   0.109 -0.3322  0.4228  0.0205
 2336SOL    HW117047   1.088   8.006   0.122  0.5896 -1.1162  0.1042
 2336SOL    HW217048   1.217   8.071   0.197  1.0824 -1.5853 -0.3335
 2337SOL     OW17049   9.502   2.124   2.057 -0.3722 -0.0246 -0.1625
 2337SOL    HW117050   9.530   2.189   1.986  1.9639  0.9999  1.6358
 2337SOL    HW217051   9.580   2.066   2.081 -0.8243  0.3620  2.3386
 2338SOL     OW17052   9.777   4.849   2.658 -0.2008  0.1669  0.1718
 2338SOL    HW117053   9.681   4.871   2.640 -0.4924 -0.8619  0.4361
 2338SOL    HW217054   9.792   4.750   2.646  1.2729  0.6070 -1.8676
 2339SOL     OW17055   2.757   9.875   2.103 -0.4631  0.1818 -0.0373
 2339SOL    HW117056   2.797   9.799   2.155 -0.5207 -0.8721 -1.4997
 2339SOL    HW217057   2.657   9.867   2.105 -0.4230 -0.8655 -1.7637
 2340SOL     OW17058   3.150   3.059   2.100 -0.3778  0.1503  0.3606
 2340SOL    HW117059   3.129   3.157   2.110  1.0802  0.5945 -0.7912
 2340SOL    HW217060   3.233   3.037   2.151  0.3498 -0.0807 -0.9077
 2341SOL     OW17061   3.509   9.941   0.720 -0.3920 -0.3632 -0.9147
 2341SOL    HW117062   3.460   9.944   0.807 -0.1360 -2.1106 -0.6771
 2341SOL    HW217063   3.595   9.993   0.729 -1.0303  0.6496 -0.5777
 2342SOL     OW17064   2.395   9.247   2.507  0.1158  0.7048 -0.2540
 2342SOL    HW117065   2.466   9.316   2.521  0.7420 -0.1573  0.9248
 2342SOL    HW217066   2.430   9.157   2.537 -0.4731 -0.2246 -2.3042
 2343SOL     OW17067   3.089   8.681   1.615 -0.0747 -0.6597 -0.0648
 2343SOL    HW117068   3.031   8.753   1.575 -0.0696  2.4686  5.1406
 2343SOL    HW217069   3.032   8.603   1.642 -1.3283  0.7062  1.3450
 2344SOL     OW17070   4.208   8.590   1.469 -0.1307  0.1516  0.5236
 2344SOL    HW117071   4.261   8.636   1.397 -0.2140  1.5691  1.3568
 2344SOL    HW217072   4.263   8.585   1.552 -1.5930  2.3587  1.6388
 2345SOL     OW17073   9.935   3.821   1.623  0.1109  0.1211 -0.0860
 2345SOL    HW117074   9.985   3.854   1.703 -0.3085  0.4357  0.0451
 2345SOL    HW217075   9.928   3.721   1.627  1.5748 -0.0202 -0.5936
 2346SOL     OW17076   1.882   9.070   1.642 -0.4662  0.1482 -0.3342
 2346SOL    HW117077   1.958   9.008   1.662 -1.2461 -0.1582  1.8070
 2346SOL    HW217078   1.903   9.160   1.680  0.2037  0.9361 -2.5221
 2347SOL     OW17079   3.947   5.229   1.442  0.4183  0.2318  0.3661
 2347SOL    HW117080   4.005   5.156   1.405 -0.5496 -0.2440 -0.2217
 2347SOL    HW217081   3.902   5.197   1.526  0.9579  0.5805  0.7905
 2348SOL     OW17082   1.029   3.338   0.324 -0.2419  0.0509  0.1192
 2348SOL    HW117083   0.985   3.257   0.363  0.3870 -0.1612  0.3978
 2348SOL    HW217084   1.045   3.405   0.396  1.1530 -0.4460  0.2962
 2349SOL     OW17085   2.747   8.612   2.504 -1.0993  0.1999  0.0059
 2349SOL    HW117086   2.682   8.640   2.575 -1.4492 -0.3015 -0.1145
 2349SOL    HW217087   2.744   8.678   2.429 -2.0727 -0.2712 -0.3710
 2350SOL     OW17088  10.427   0.733   1.216 -0.1311 -0.3044 -0.0722
 2350SOL    HW117089  10.484   0.663   1.173 -2.1175 -0.7573 -2.0550
 2350SOL    HW217090  10.478   0.775   1.292  2.5067 -1.2595 -1.2309
 2351SOL     OW17091   3.008   4.274   0.592 -0.0019  0.1456 -0.2363
 2351SOL    HW117092   3.064   4.336   0.647  0.1739 -0.2675  0.0483
 2351SOL    HW217093   3.010   4.182   0.632 -1.0081  0.1632 -0.1299
 2352SOL     OW17094   4.422   1.626   0.885  0.0202 -0.0761  0.4178
 2352SOL    HW117095   4.332   1.600   0.919 -0.8050  1.3918 -0.6132
 2352SOL    HW217096   4.418   1.638   0.786  1.5856 -0.9658  0.2380
 2353SOL     OW17097   3.136   9.086   0.318  0.3047 -0.2588  0.4104
 2353SOL    HW117098   3.164   8.997   0.354  0.2859  0.1236  1.3773
 2353SOL    HW217099   3.051   9.076   0.267  0.4781 -0.8471  0.2213
 2354SOL     OW17100   5.005   2.502   0.525  0.3587  0.4542  0.4700
 2354SOL    HW117101   5.053   2.416   0.509  2.0426  1.6307 -1.0020
 2354SOL    HW217102   4.972   2.539   0.438  0.1752  1.5949  1.0076
 2355SOL     OW17103   1.086   3.540   2.404 -0.2951  0.1725  0.1116
 2355SOL    HW117104   1.042   3.629   2.414  1.3056  1.2639 -2.0791
 2355SOL    HW217105   1.150   3.526   2.479 -0.0739  1.1549  0.1104
 2356SOL     OW17106   2.558   2.476   1.474 -0.1097  0.4844 -0.4074
 2356SOL    HW117107   2.512   2.417   1.408 -1.4448  0.4468  0.5314
 2356SOL    HW217108   2.493   2.505   1.544  1.5063 -0.3328  1.4999
 2357SOL     OW17109   1.709   9.813   0.623 -0.0606 -0.2857  0.1437
 2357SOL    HW117110   1.726   9.719   0.654 -0.9507 -0.5324 -0.1236
 2357SOL    HW217111   1.796   9.863   0.621  0.3343 -0.9347  0.8347
 2358SOL     OW17112   3.627   9.469   2.533 -0.3759 -0.0908 -0.1403
 2358SOL    HW117113   3.709   9.434   2.488  0.1829 -1.4327  1.8201
 2358SOL    HW217114   3.652   9.548   2.589 -0.7598  0.5977 -0.9461
 2359SOL     OW17115   1.841   8.553   1.158  0.7299 -0.2302 -0.8729
 2359SOL    HW117116   1.930   8.507   1.161  1.3062  0.8141 -1.7990
 2359SOL    HW217117   1.815   8.583   1.250  1.6681  0.1108 -0.7233
 2360SOL     OW17118   2.249   2.124   1.492 -0.1801  0.5246  0.2344
 2360SOL    HW117119   2.314   2.048   1.485 -0.5095  0.1867  0.8383
 2360SOL    HW217120   2.242   2.153   1.587 -2.2190 -0.5972  0.4630
 2361SOL     OW17121  10.372   5.434   2.576 -0.1718  0.0568  0.0999
 2361SOL    HW117122  10.433   5.506   2.609  1.7022 -1.1427 -0.6886
 2361SOL    HW217123  10.324   5.467   2.494  0.3338  0.5634 -0.0001
 2362SOL     OW17124   2.531   9.994   0.544 -0.2585  0.1085 -0.0986
 2362SOL    HW117125   2.457  10.010   0.609 -0.9222 -1.9929 -0.3194
 2362SOL    HW217126   2.556  10.081   0.501 -1.9127  1.0116  0.7001
 2363SOL     OW17127   4.505   9.288   1.466 -0.0080 -0.3184  0.6438
 2363SOL    HW117128   4.429   9.224   1.472  0.2033 -0.6689 -0.3070
 2363SOL    HW217129   4.477   9.368   1.413  1.2457 -1.9304 -2.6121
 2364SOL     OW17130   1.029  10.701   1.386 -0.0875  0.0371  0.4730
 2364SOL    HW117131   1.075  10.707   1.475 -0.8928 -1.0181  0.9657
 2364SOL    HW217132   0.952  10.763   1.384 -0.4398 -0.3847  0.7463
 2365SOL     OW17133  10.009   5.014   1.038  0.2192  0.1721 -0.7248
 2365SOL    HW117134   9.924   5.038   0.990 -0.2367 -1.5579 -0.7872
 2365SOL    HW217135  10.050   4.934   0.994  0.4763 -0.6295  0.9631
 2366SOL     OW17136   2.325   9.512   2.198 -0.7489  0.3924 -0.3679
 2366SOL    HW117137   2.395   9.568   2.242 -1.3112  0.0606  0.9489
 2366SOL    HW217138   2.236   9.530   2.239 -1.1097 -0.6688 -0.6675
 2367SOL     OW17139   2.888   2.005   2.349 -0.3309 -0.1849 -0.4424
 2367SOL    HW117140   2.800   2.024   2.393 -0.3299  0.9971 -0.9275
 2367SOL    HW217141   2.872   1.979   2.253 -0.0850  1.2017 -0.8661
 2368SOL     OW17142   2.703  10.080   1.518  0.0997 -0.0766  0.1690
 2368SOL    HW117143   2.707  10.146   1.593 -1.0050  0.7843 -0.5153
 2368SOL    HW217144   2.619  10.026   1.525  1.5342 -2.2461  1.3869
 2369SOL     OW17145   2.708   2.766   0.454  0.2173  0.6047 -0.1970
 2369SOL    HW117146   2.664   2.743   0.367  0.6301 -0.5795 -0.0984
 2369SOL    HW217147   2.716   2.866   0.462  0.1819  0.7202 -1.5208
 2370SOL     OW17148   2.105   0.950   2.620 -0.5199  0.2907 -0.0174
 2370SOL    HW117149   2.190   0.991   2.588 -0.3917 -0.8489 -1.2001
 2370SOL    HW217150   2.030   0.974   2.558 -0.4551 -1.1683 -0.6799
 2371SOL     OW17151   3.194   2.852   1.144  0.0788  0.3376  0.4112
 2371SOL    HW117152   3.130   2.880   1.216 -0.9569  0.4605 -0.5490
 2371SOL    HW217153   3.145   2.840   1.058  1.4054  0.7825 -0.4350
 2372SOL     OW17154   9.369   1.310   1.904 -0.0013 -0.2371  0.5505
 2372SOL    HW117155   9.373   1.401   1.943 -0.3672 -0.3316  0.8162
 2372SOL    HW217156   9.436   1.251   1.948  2.0715  0.5753 -1.4318
 2373SOL     OW17157   9.127   2.222   1.394 -0.1285  0.5556 -0.1661
 2373SOL    HW117158   9.072   2.144   1.364 -0.9850  1.0221  0.2047
 2373SOL    HW217159   9.175   2.198   1.478  0.9498 -0.1622 -0.9653
 2374SOL     OW17160   2.842   7.594   2.540 -0.0280 -0.0682 -0.3650
 2374SOL    HW117161   2.799   7.522   2.594 -0.5436  0.1673 -0.4647
 2374SOL    HW217162   2.788   7.677   2.546 -0.4408 -0.2210 -1.7919
 2375SOL     OW17163  10.007   4.322   1.724  0.4540 -0.6654 -0.3845
 2375SOL    HW117164  10.005   4.406   1.671  0.6426 -0.5339 -0.1833
 2375SOL    HW217165  10.098   4.309   1.763 -0.0415 -0.0718  1.0135
 2376SOL     OW17166   0.935   7.954   0.476 -0.7748 -0.8219  0.1201
 2376SOL    HW117167   0.967   8.026   0.536  1.1857 -1.4073 -0.1906
 2376SOL    HW217168   1.012   7.896   0.449 -2.5070 -3.8517  1.4443
 2377SOL     OW17169   3.234   1.555   2.603 -0.0249  0.2914  0.8802
 2377SOL    HW117170   3.311   1.568   2.667  0.6855 -0.0609  0.1053
 2377SOL    HW217171   3.148   1.574   2.651  0.4951 -0.0057  1.9625
 2378SOL     OW17172   3.252   7.716   2.498  0.3682  0.2891  0.3377
 2378SOL    HW117173   3.166   7.686   2.454  0.9858 -0.9489 -0.0616
 2378SOL    HW217174   3.293   7.789   2.444 -1.0837  1.7942  1.2282
 2379SOL     OW17175   2.540   9.944   2.645 -0.5766 -0.2687  0.2072
 2379SOL    HW117176   2.481   9.942   2.726 -1.4356 -0.0793 -0.4096
 2379SOL    HW217177   2.516  10.022   2.588  2.4813  1.7428  1.5644
 2380SOL     OW17178   0.850   7.321   0.950  0.1592 -0.1727  0.0535
 2380SOL    HW117179   0.942   7.283   0.944 -0.3040 -1.0209 -3.1780
 2380SOL    HW217180   0.855   7.419   0.964  1.6741  0.1486 -2.3256
 2381SOL     OW17181   1.536   6.846   1.109  0.3901 -0.0595 -0.0773
 2381SOL    HW117182   1.544   6.762   1.163  0.7043 -0.4373 -0.7028
 2381SOL    HW217183   1.487   6.827   1.024  1.7012  0.0714 -0.8780
 2382SOL     OW17184   4.324   2.325   1.386  0.1424 -0.0374  0.1727
 2382SOL    HW117185   4.232   2.320   1.346 -0.0649  0.4026  0.5879
 2382SOL    HW217186   4.316   2.341   1.485  0.6730  1.4658 -0.0109
 2383SOL     OW17187   8.643   2.997   1.156  0.2107 -0.4054 -0.3112
 2383SOL    HW117188   8.723   3.037   1.111  0.9722 -1.0004  0.4815
 2383SOL    HW217189   8.588   3.070   1.197  0.5677 -0.0272 -0.4997
 2384SOL     OW17190   3.415   5.564   0.762 -0.1663  0.4167  0.5534
 2384SOL    HW117191   3.326   5.590   0.726 -0.4593 -0.9477  0.2862
 2384SOL    HW217192   3.485   5.576   0.691 -0.3304  0.2515  0.3665
 2385SOL     OW17193   3.506   1.137   2.645  0.0904 -0.1829  0.1219
 2385SOL    HW117194   3.533   1.066   2.710  1.2752  0.4711  0.3524
 2385SOL    HW217195   3.507   1.099   2.553 -1.0618 -0.9617  0.4192
 2386SOL     OW17196   2.911   6.104   1.829 -0.1517 -0.0979  0.4153
 2386SOL    HW117197   2.841   6.176   1.824  0.2029  0.1887 -0.6041
 2386SOL    HW217198   2.989   6.136   1.883 -0.6039 -0.2507  1.1698
 2387SOL     OW17199   3.079   8.929   0.874 -0.4918  0.1495 -0.4267
 2387SOL    HW117200   3.096   8.874   0.957 -1.8818  0.5983  0.1744
 2387SOL    HW217201   3.122   9.018   0.884 -1.6523  0.6437  0.3452
 2388SOL     OW17202   1.204   2.437   1.982  0.1299 -0.5769  0.3015
 2388SOL    HW117203   1.298   2.406   2.000  0.1621 -0.5988  0.1029
 2388SOL    HW217204   1.192   2.529   2.018  1.5049  1.1107 -3.3205
 2389SOL     OW17205   1.804   6.471   2.262 -0.1815 -0.0766  0.1891
 2389SOL    HW117206   1.717   6.497   2.221  0.2097 -2.3217 -2.2355
 2389SOL    HW217207   1.787   6.418   2.345 -1.0155  2.7768  1.9131
 2390SOL     OW17208   9.756   4.163   1.969 -0.1604 -0.4588 -0.0836
 2390SOL    HW117209   9.831   4.107   1.934 -0.3562 -0.0464 -1.2228
 2390SOL    HW217210   9.689   4.177   1.896 -0.0269  1.3839  0.1139
 2391SOL     OW17211   2.799   5.047   1.995 -0.0518  0.0331  0.0664
 2391SOL    HW117212   2.771   5.130   1.948  0.4984  1.1284  1.6018
 2391SOL    HW217213   2.828   4.979   1.929  0.7053  1.5285 -1.1679
 2392SOL     OW17214   3.269   3.941   0.147 -0.2009  0.3892 -0.5867
 2392SOL    HW117215   3.213   3.884   0.087  0.4299  1.4771 -2.2559
 2392SOL    HW217216   3.250   4.037   0.129 -0.1031  0.7389  1.0856
 2393SOL     OW17217   3.077   3.181   0.752  0.1430 -0.2829 -0.3209
 2393SOL    HW117218   3.095   3.214   0.845  1.2317 -3.0225  0.4954
 2393SOL    HW217219   3.091   3.082   0.749 -1.9385 -0.5483 -2.9269
 2394SOL     OW17220   3.182   9.628   2.399  0.7007 -0.3186 -0.5036
 2394SOL    HW117221   3.177   9.536   2.438  0.8035 -0.2568 -0.3434
 2394SOL    HW217222   3.202   9.693   2.472 -1.0569  0.0490 -0.3245
 2395SOL     OW17223   1.940   3.573   2.400  0.3786 -0.0990  0.2580
 2395SOL    HW117224   1.983   3.650   2.448 -0.2585  0.2069  0.3410
 2395SOL    HW217225   1.917   3.501   2.466 -0.9193  0.5159  0.4876
 2396SOL     OW17226   2.093   7.943   2.292 -0.2696 -0.1736 -0.1277
 2396SOL    HW117227   2.168   7.884   2.324  0.0884 -0.2613 -1.1231
 2396SOL    HW217228   2.111   8.038   2.321  0.3907 -0.1390 -0.6479
 2397SOL     OW17229   2.605   4.826   1.172  0.1352 -0.4392 -0.8193
 2397SOL    HW117230   2.677   4.883   1.134  0.6090 -0.1516  0.4951
 2397SOL    HW217231   2.574   4.760   1.103  0.9563  0.0955 -1.6978
 2398SOL     OW17232   1.952   7.176   1.792  0.5680  0.1866 -0.2540
 2398SOL    HW117233   2.013   7.097   1.783 -2.3181 -2.5805  2.7551
 2398SOL    HW217234   1.891   7.179   1.713 -0.9337 -2.1708  0.7519
 2399SOL     OW17235   3.845   9.265   2.078  0.0284  0.2595 -0.7655
 2399SOL    HW117236   3.877   9.202   2.149  1.5897  1.6563 -0.2150
 2399SOL    HW217237   3.923   9.299   2.026 -0.8864  1.1100 -1.5892
 2400SOL     OW17238   1.414   7.147   2.188  0.0113 -0.8680 -0.4100
 2400SOL    HW117239   1.480   7.172   2.258 -0.0088 -0.8873 -0.3836
 2400SOL    HW217240   1.370   7.230   2.152 -0.1264 -0.8718 -0.2531
 2401SOL     OW17241   4.980   2.916   2.063  0.0530 -0.8379 -0.1831
 2401SOL    HW117242   4.927   2.889   2.144 -1.1943 -0.1372 -0.7502
 2401SOL    HW217243   4.946   3.003   2.029  2.1732  0.0683 -0.0574
 2402SOL     OW17244   1.027   2.880   0.998 -0.3223 -0.2583 -0.2051
 2402SOL    HW117245   1.114   2.914   0.961 -0.3538 -0.4495 -0.4571
 2402SOL    HW217246   1.026   2.893   1.097 -0.5636  0.9966 -0.3597
 2403SOL     OW17247   1.500   5.750   2.567  0.5279 -0.0409 -0.2527
 2403SOL    HW117248   1.577   5.777   2.626 -0.5963 -0.2578  1.3484
 2403SOL    HW217249   1.417   5.741   2.622 -0.4888 -0.5910 -1.8280
 2404SOL     OW17250   3.577   2.624   1.739  0.5145  0.5085 -0.3149
 2404SOL    HW117251   3.622   2.710   1.717  0.7932  0.5144  0.2703
 2404SOL    HW217252   3.480   2.640   1.756  0.0860  0.3560 -2.5093
 2405SOL     OW17253  10.375   2.049   2.138  0.3843 -0.0985  0.0750
 2405SOL    HW117254  10.426   2.132   2.160 -0.6024 -0.1453  2.7920
 2405SOL    HW217255  10.299   2.072   2.077  0.2631  0.9699  0.6093
 2406SOL     OW17256   2.658   2.702   1.348 -0.0811 -0.0842 -0.1383
 2406SOL    HW117257   2.643   2.611   1.387  0.6322 -0.0416  0.2561
 2406SOL    HW217258   2.702   2.692   1.258 -1.0915 -0.1620 -0.6271
 2407SOL     OW17259   2.570   9.513   1.874  0.1223 -0.2124 -0.1077
 2407SOL    HW117260   2.628   9.594   1.862  0.0049 -0.2635 -1.0298
 2407SOL    HW217261   2.479   9.532   1.839 -0.3462 -0.2368  1.0689
 2408SOL     OW17262   1.912   4.290   0.475  0.1009  0.3817  0.1738
 2408SOL    HW117263   1.885   4.382   0.503  0.2417 -0.2163  2.3312
 2408SOL    HW217264   1.914   4.230   0.555 -1.9857 -2.0131 -1.5167
 2409SOL     OW17265   5.240   3.746   0.664  0.6187 -0.0064 -0.1113
 2409SOL    HW117266   5.262   3.681   0.737 -0.9734 -0.3062  0.1200
 2409SOL    HW217267   5.146   3.731   0.633  0.9073  0.8610 -1.4580
 2410SOL     OW17268   5.138   3.928   0.181 -0.2042  0.0862  0.0889
 2410SOL    HW117269   5.139   4.023   0.150 -0.8308  0.5581  1.4852
 2410SOL    HW217270   5.043   3.898   0.192 -0.0001 -0.5021  0.2485
 2411SOL     OW17271   2.132   7.385   2.128 -0.2769 -0.2780  0.0606
 2411SOL    HW117272   2.218   7.364   2.082 -0.0623  1.0214 -0.1456
 2411SOL    HW217273   2.064   7.412   2.060  0.0475  1.6755  0.4853
 2412SOL     OW17274   3.755   1.424   2.461 -0.4120  0.2682  0.9757
 2412SOL    HW117275   3.807   1.495   2.508  0.9374 -0.2633  0.3250
 2412SOL    HW217276   3.817   1.350   2.433 -0.9978  0.9415 -2.3346
 2413SOL     OW17277   1.124  10.614   2.677  0.1202  0.2972 -0.3393
 2413SOL    HW117278   1.069  10.578   2.752 -0.5332  0.1854 -0.8651
 2413SOL    HW217279   1.154  10.538   2.619 -0.4498  0.4953 -0.9069
 2414SOL     OW17280   4.069   4.609   0.102  0.1829 -0.2220  0.4416
 2414SOL    HW117281   4.031   4.540   0.164 -0.7642 -0.4358 -0.3675
 2414SOL    HW217282   4.166   4.588   0.085 -0.1263 -1.4297  0.1049
 2415SOL     OW17283   1.081   7.414   0.293 -0.3397 -0.7979  0.6465
 2415SOL    HW117284   1.033   7.397   0.207 -0.5727  0.2127  0.5713
 2415SOL    HW217285   1.075   7.333   0.352 -1.1997 -1.0638  0.1935
 2416SOL     OW17286   1.888  10.356   1.899 -0.8551 -0.4837 -0.0926
 2416SOL    HW117287   1.898  10.307   1.812  2.0785 -0.3859  0.1377
 2416SOL    HW217288   1.979  10.377   1.936 -2.0388  3.2673  0.8906
 2417SOL     OW17289   2.835   5.687   2.455  0.0153  0.2617  0.6683
 2417SOL    HW117290   2.767   5.619   2.485 -0.4335  1.2574  1.9749
 2417SOL    HW217291   2.867   5.664   2.363 -0.7735 -1.2281  0.7502
 2418SOL     OW17292   2.671   5.338   0.651  0.1484  0.1183 -0.1583
 2418SOL    HW117293   2.747   5.331   0.587 -0.3580  1.0126 -0.8888
 2418SOL    HW217294   2.697   5.301   0.739  1.5363  0.7151 -0.3158
 2419SOL     OW17295   1.916   7.348   2.562 -0.2182  0.0037 -0.3020
 2419SOL    HW117296   1.858   7.426   2.541  0.3292  0.0804 -1.6018
 2419SOL    HW217297   1.999   7.353   2.507  0.9748 -0.1644  1.4545
 2420SOL     OW17298   4.745   3.337   0.569  0.2940  0.4726  0.0357
 2420SOL    HW117299   4.843   3.327   0.548  0.4797 -0.6992  1.3607
 2420SOL    HW217300   4.696   3.363   0.486  1.6089  0.2151 -0.8475
 2421SOL     OW17301   3.212   3.324   2.689 -0.2915  0.4671  0.0056
 2421SOL    HW117302   3.239   3.229   2.704  0.6298  0.5539 -0.9851
 2421SOL    HW217303   3.247   3.381   2.763 -1.1346 -0.0196  0.7777
 2422SOL     OW17304   2.640   7.532   0.148 -0.3365  0.7201  0.3003
 2422SOL    HW117305   2.626   7.467   0.223  1.5376  1.1880  1.0885
 2422SOL    HW217306   2.644   7.625   0.185 -0.4729  1.0520 -0.5165
 2423SOL     OW17307   3.778   1.048   1.054 -0.1484 -0.0208  0.2985
 2423SOL    HW117308   3.684   1.015   1.052  0.6786 -2.4504 -0.5038
 2423SOL    HW217309   3.782   1.141   1.017 -2.1570 -0.0520 -0.0355
 2424SOL     OW17310   9.587   1.476   1.029  0.4497  0.1611  0.2941
 2424SOL    HW117311   9.586   1.450   0.932 -0.3841  2.3337 -0.3081
 2424SOL    HW217312   9.530   1.557   1.042 -0.1615 -0.6192  2.7682
 2425SOL     OW17313   2.202   5.844   1.691  0.0882 -0.7146  0.1650
 2425SOL    HW117314   2.226   5.933   1.730  0.6161 -1.5113  1.7037
 2425SOL    HW217315   2.257   5.828   1.609  0.3192  0.1658  0.1372
 2426SOL     OW17316   2.058   5.357   1.217 -0.2390 -0.8305  0.3018
 2426SOL    HW117317   2.087   5.347   1.312  1.7538  0.1255 -0.1621
 2426SOL    HW217318   2.009   5.444   1.206  1.4386  0.1069  0.0490
 2427SOL     OW17319   2.004   9.132   1.056  0.1553 -0.7293  0.2397
 2427SOL    HW117320   2.056   9.064   1.005  1.2256 -0.2173  0.6235
 2427SOL    HW217321   1.924   9.089   1.097  0.0002 -1.4221 -0.7774
 2428SOL     OW17322   2.892   7.403   1.045  0.2671  0.1652 -0.1980
 2428SOL    HW117323   2.846   7.316   1.033  0.3221  0.3884 -2.1898
 2428SOL    HW217324   2.828   7.471   1.080 -0.0658 -0.3668  0.2276
 2429SOL     OW17325   2.390   4.037   1.058  0.5793 -0.3434  0.2612
 2429SOL    HW117326   2.418   3.948   1.095  0.2268 -0.4658  0.2326
 2429SOL    HW217327   2.329   4.082   1.123 -0.1725 -0.6296 -0.2375
 2430SOL     OW17328   4.914   3.781   0.817 -0.2192  0.3575 -0.2194
 2430SOL    HW117329   4.868   3.809   0.901  1.3766  0.0863  0.7544
 2430SOL    HW217330   4.986   3.715   0.839  0.7190  0.8708 -1.7142
 2431SOL     OW17331   3.000   9.773   2.228 -0.6541  0.2814  0.1045
 2431SOL    HW117332   3.060   9.703   2.266 -1.0607 -0.5736 -0.7990
 2431SOL    HW217333   3.043   9.863   2.237  0.7808 -0.3225 -0.5627
 2432SOL     OW17334   3.566   2.301   0.143  0.6403 -0.0694 -0.0903
 2432SOL    HW117335   3.483   2.245   0.140 -0.7849  1.9661 -0.0406
 2432SOL    HW217336   3.609   2.301   0.053  0.1325 -0.4795 -0.3356
 2433SOL     OW17337   0.820   2.284   2.429 -0.2779  0.5528 -0.2889
 2433SOL    HW117338   0.843   2.300   2.333  0.5250  0.4955 -0.1101
 2433SOL    HW217339   0.730   2.323   2.449  0.4260  2.3735 -0.5715
 2434SOL     OW17340   3.913   3.123   2.638 -0.1105  0.5826  0.0413
 2434SOL    HW117341   3.991   3.076   2.679  0.7263  0.8039 -1.2651
 2434SOL    HW217342   3.858   3.058   2.585 -0.4614  0.5445  0.4559
 2435SOL     OW17343   1.826   8.949   0.637  0.1922  1.0292  0.0142
 2435SOL    HW117344   1.911   8.997   0.659  0.2327  1.1155 -0.3232
 2435SOL    HW217345   1.835   8.852   0.660  0.8121  0.8044 -1.1451
 2436SOL     OW17346   1.506   1.381   2.532  0.1967  0.5359  0.2108
 2436SOL    HW117347   1.513   1.334   2.620 -0.5454  0.5316  0.2763
 2436SOL    HW217348   1.434   1.338   2.477  1.4973 -0.2517 -0.9062
 2437SOL     OW17349   2.390   8.164   0.256  0.1543  0.0799 -0.5093
 2437SOL    HW117350   2.365   8.106   0.333 -1.1532  0.9793 -0.2407
 2437SOL    HW217351   2.479   8.136   0.221  1.2418  0.3054  1.9681
 2438SOL     OW17352   3.611  10.228   2.284  0.2462  0.2845 -0.0637
 2438SOL    HW117353   3.562  10.199   2.201 -0.2012 -3.0370  1.2681
 2438SOL    HW217354   3.699  10.181   2.288  0.1784  0.2590  1.4157
 2439SOL     OW17355   3.727   2.250   0.430  0.0089  0.6773 -0.1744
 2439SOL    HW117356   3.721   2.208   0.339 -0.9711  0.4549 -0.0143
 2439SOL    HW217357   3.679   2.192   0.496  0.1572  1.1681  0.3639
 2440SOL     OW17358   0.951   7.431   1.969  0.1026  0.1835 -0.4469
 2440SOL    HW117359   0.879   7.497   1.949 -1.0750 -1.1942 -0.8432
 2440SOL    HW217360   0.910   7.342   1.989  1.6218 -0.2226  0.9270
 2441SOL     OW17361  10.331   6.089   0.358  0.4752 -0.0221 -0.0187
 2441SOL    HW117362  10.321   6.118   0.453  0.7533 -0.6252  0.2021
 2441SOL    HW217363  10.241   6.063   0.321  0.1431  1.5849 -0.3877
 2442SOL     OW17364   3.204   1.993   0.453 -0.3621 -0.2305 -0.3860
 2442SOL    HW117365   3.209   2.034   0.544  0.9206  0.6109 -0.8280
 2442SOL    HW217366   3.258   1.909   0.451  0.7246  0.4642 -0.7332
 2443SOL     OW17367   9.814   4.138   1.584 -0.2252  0.7041  0.1945
 2443SOL    HW117368   9.868   4.175   1.661 -0.2760  0.6138  0.2736
 2443SOL    HW217369   9.717   4.144   1.606 -0.2063 -0.1783  0.5283
 2444SOL     OW17370   4.410   3.612   2.320 -0.3309 -0.2199  0.4005
 2444SOL    HW117371   4.314   3.637   2.310  0.1200  0.8324 -1.5866
 2444SOL    HW217372   4.436   3.550   2.247  0.3906 -0.8829  1.2099
 2445SOL     OW17373   2.201   1.804   0.360  0.2644 -0.3518 -0.6770
 2445SOL    HW117374   2.149   1.721   0.337  0.8502 -0.9129 -0.0004
 2445SOL    HW217375   2.142   1.884   0.353 -1.2796 -1.2004  2.2142
 2446SOL     OW17376   2.142   4.758   0.750 -0.3451 -0.1491 -0.3582
 2446SOL    HW117377   2.134   4.844   0.800 -0.8486 -1.5171  1.9948
 2446SOL    HW217378   2.051   4.716   0.743  0.1183 -1.1825 -0.2055
 2447SOL     OW17379   2.356   7.799   0.096  0.1551  0.0519  0.3005
 2447SOL    HW117380   2.322   7.720   0.045 -1.3542 -0.2883  1.7739
 2447SOL    HW217381   2.304   7.880   0.070  1.8517  0.6380 -1.3728
 2448SOL     OW17382  10.398   3.963   2.418  0.2141  0.4987  0.0556
 2448SOL    HW117383  10.400   3.890   2.486 -1.9116  0.5539  0.2366
 2448SOL    HW217384  10.373   3.925   2.329  0.0704  0.8427 -0.0545
 2449SOL     OW17385   2.925   5.664   2.191  0.7230 -0.0962  0.8126
 2449SOL    HW117386   2.856   5.613   2.140  0.3071  2.1979 -1.0462
 2449SOL    HW217387   3.003   5.606   2.210 -0.5380 -1.9448  0.4644
 2450SOL     OW17388   0.720  10.480   1.602 -0.2829  0.9413  0.3157
 2450SOL    HW117389   0.770  10.510   1.521 -0.1273  1.6783  0.6815
 2450SOL    HW217390   0.657  10.406   1.576 -1.0330  1.9171 -0.7050
 2451SOL     OW17391   1.608   9.655   0.888 -0.3847 -0.6098  0.0568
 2451SOL    HW117392   1.559   9.585   0.939 -2.0950 -0.1984 -0.9812
 2451SOL    HW217393   1.580   9.653   0.792 -0.6752  1.6677  0.0573
 2452SOL     OW17394  10.402   5.550   1.589 -0.4008 -0.0210 -0.0542
 2452SOL    HW117395  10.388   5.464   1.638 -0.3900 -0.0852 -0.1656
 2452SOL    HW217396  10.360   5.545   1.499 -0.0085 -0.0771 -0.2374
 2453SOL     OW17397   2.861   2.311   2.343  0.2550 -0.1430 -0.2689
 2453SOL    HW117398   2.863   2.360   2.430 -1.5941  1.1107 -0.9120
 2453SOL    HW217399   2.889   2.216   2.357 -0.7233 -0.1424  1.8039
 2454SOL     OW17400   2.285   4.082   1.437 -0.0646  0.2136 -0.0593
 2454SOL    HW117401   2.325   4.039   1.518  2.0225 -0.8100 -1.5843
 2454SOL    HW217402   2.217   4.020   1.397  1.2734 -0.7110 -0.9370
 2455SOL     OW17403   2.466   6.048   0.801  0.7430 -0.3522  0.3085
 2455SOL    HW117404   2.410   6.126   0.831  1.5869  0.1370  0.6144
 2455SOL    HW217405   2.554   6.082   0.767  1.8813 -1.3335  2.2391
 2456SOL     OW17406   1.293   9.673   0.293 -0.2685 -0.4983  0.0261
 2456SOL    HW117407   1.283   9.713   0.384 -0.7387 -0.4986 -0.0272
 2456SOL    HW217408   1.214   9.697   0.237 -0.2072 -0.9016 -0.2304
 2457SOL     OW17409   1.886   2.297   2.034  0.1253 -0.0903  0.0662
 2457SOL    HW117410   1.798   2.302   2.083  0.1943  0.5219  0.1329
 2457SOL    HW217411   1.928   2.387   2.033  1.7721 -0.7887  1.9134
 2458SOL     OW17412   2.738   1.768   0.492  0.6165 -0.2706 -0.2015
 2458SOL    HW117413   2.773   1.839   0.431  1.8062 -1.0484 -0.4547
 2458SOL    HW217414   2.642   1.784   0.510 -0.3933 -1.2988 -4.1430
 2459SOL     OW17415   4.892   1.662   2.451 -0.0143  0.2995  0.1978
 2459SOL    HW117416   4.908   1.668   2.352  0.4856  2.3077  0.3697
 2459SOL    HW217417   4.893   1.566   2.480 -2.6929 -0.4961 -2.1390
 2460SOL     OW17418   9.838   2.690   1.205 -0.0263 -0.3105 -0.0198
 2460SOL    HW117419   9.759   2.669   1.263  1.0334  0.3645  1.6995
 2460SOL    HW217420   9.919   2.642   1.239  0.6310  0.1529 -0.8919
 2461SOL     OW17421   3.013   6.067   2.486 -0.3886 -0.0239 -0.6461
 2461SOL    HW117422   2.926   6.063   2.534  1.1323 -1.0602  2.1762
 2461SOL    HW217423   3.010   6.010   2.404 -2.0627 -0.7854 -0.0645
 2462SOL     OW17424   4.764   3.142   2.288 -0.1380 -0.1074  0.6411
 2462SOL    HW117425   4.681   3.151   2.342 -0.9238  0.2378 -0.6201
 2462SOL    HW217426   4.788   3.230   2.247  0.0042 -0.5454 -0.2279
 2463SOL     OW17427   2.951   8.384   2.258  0.1984 -0.6780  0.3252
 2463SOL    HW117428   3.045   8.404   2.231  0.4101 -2.2299 -0.1391
 2463SOL    HW217429   2.950   8.317   2.333 -0.4648  1.6476  2.4716
 2464SOL     OW17430  10.350   5.721   1.258 -0.4887  0.8604 -0.0041
 2464SOL    HW117431  10.300   5.744   1.175 -0.6257 -0.4995 -0.3037
 2464SOL    HW217432  10.357   5.622   1.267 -3.0800  0.8717  3.1303
 2465SOL     OW17433   1.383   8.458   1.117 -0.4982  0.1344 -0.0341
 2465SOL    HW117434   1.434   8.398   1.055 -1.4281 -1.8852  1.1112
 2465SOL    HW217435   1.286   8.437   1.112 -1.1281  3.0154 -1.1622
 2466SOL     OW17436   8.707   2.430   2.626  0.1013 -0.4093  0.1815
 2466SOL    HW117437   8.609   2.434   2.647  0.5021 -1.6341  2.3716
 2466SOL    HW217438   8.739   2.336   2.634  1.9057  0.2953  1.5227
 2467SOL     OW17439   0.636   1.381   0.668 -0.2321 -0.4790  0.2962
 2467SOL    HW117440   0.550   1.404   0.713 -0.3014 -1.1546  0.5100
 2467SOL    HW217441   0.696   1.461   0.669 -1.0241  0.1310 -0.2567
 2468SOL     OW17442   1.073   5.703   0.823  0.0728  0.5272 -0.4386
 2468SOL    HW117443   1.004   5.646   0.779 -2.3070  4.1216 -1.6138
 2468SOL    HW217444   1.127   5.749   0.753  1.1193  0.7248  0.4809
 2469SOL     OW17445  10.335   3.874   2.171 -0.1609 -0.5693  0.3499
 2469SOL    HW117446  10.351   3.779   2.143 -2.1432 -0.4517 -1.2650
 2469SOL    HW217447  10.363   3.936   2.098  0.3228  0.0736  1.0640
 2470SOL     OW17448   2.790   5.488   1.027 -0.1284  0.7207  0.0885
 2470SOL    HW117449   2.822   5.526   0.941 -1.1526  1.1770 -0.1019
 2470SOL    HW217450   2.860   5.498   1.097  0.0370  1.9326 -0.2544
 2471SOL     OW17451   1.239   4.719   1.600  0.3756  0.3302 -0.4667
 2471SOL    HW117452   1.307   4.753   1.534  0.6213 -1.4931 -1.1797
 2471SOL    HW217453   1.210   4.628   1.573 -1.5294  0.6466  0.4900
 2472SOL     OW17454   1.095  10.276   1.332 -0.1761 -0.3307 -0.1788
 2472SOL    HW117455   1.161  10.347   1.306 -0.6119  0.3826  0.6447
 2472SOL    HW217456   1.117  10.241   1.423 -1.1713  0.2152  0.2851
 2473SOL     OW17457   3.546   3.648   0.978 -0.3374 -0.0214 -0.4406
 2473SOL    HW117458   3.521   3.555   1.005 -0.8325  0.0031 -0.8000
 2473SOL    HW217459   3.566   3.702   1.060  1.7153 -0.9163 -0.3191
 2474SOL     OW17460   1.415  10.325   1.090  0.6241 -0.4193 -0.3967
 2474SOL    HW117461   1.387  10.232   1.114 -0.0312 -0.2010 -0.3005
 2474SOL    HW217462   1.354  10.391   1.134  2.4092  0.1381  1.3597
 2475SOL     OW17463   9.595   2.666   1.307  0.1852 -0.2488 -0.4692
 2475SOL    HW117464   9.506   2.626   1.284  0.7971 -0.1361 -3.1639
 2475SOL    HW217465   9.621   2.639   1.400 -2.6290 -0.3107  0.3437
 2476SOL     OW17466   4.283  10.524   2.252  0.5151 -0.3382  0.6146
 2476SOL    HW117467   4.332  10.561   2.173  1.3939 -1.3877  0.6608
 2476SOL    HW217468   4.239  10.598   2.302  0.4905  0.4057 -0.4920
 2477SOL     OW17469   2.594   2.021   2.374  0.2982  0.2875 -0.0219
 2477SOL    HW117470   2.580   1.923   2.388 -2.3205  0.9174  2.0419
 2477SOL    HW217471   2.553   2.048   2.286 -0.9030 -0.0832  0.4170
 2478SOL     OW17472   2.317   3.082   1.086  0.1807 -0.1874 -0.1793
 2478SOL    HW117473   2.355   2.993   1.063  0.6667 -0.4429  1.5364
 2478SOL    HW217474   2.249   3.072   1.160 -0.0667  0.8041 -0.2561
 2479SOL     OW17475   9.153   2.053   2.553  0.2603  0.2439  0.1561
 2479SOL    HW117476   9.083   2.047   2.482 -0.6182 -1.0686  1.0985
 2479SOL    HW217477   9.242   2.069   2.511 -0.2650 -0.3860 -1.2293
 2480SOL     OW17478  10.342   2.155   0.638 -0.2836  0.4031 -0.5271
 2480SOL    HW117479  10.437   2.153   0.607 -0.4921 -0.7144 -1.1202
 2480SOL    HW217480  10.328   2.232   0.700  1.3236 -0.2038  0.5896
 2481SOL     OW17481   3.311   3.364   1.658  0.1216  0.4551 -0.0151
 2481SOL    HW117482   3.258   3.294   1.706  0.9336  0.1613  0.4628
 2481SOL    HW217483   3.395   3.383   1.710  0.5073  0.8789 -0.7920
 2482SOL     OW17484  10.163   3.999   0.734  0.4069  0.4374 -0.0030
 2482SOL    HW117485  10.099   3.924   0.747 -1.5886  2.1246  0.2120
 2482SOL    HW217486  10.211   4.018   0.820  0.8654 -0.5422 -0.0448
 2483SOL     OW17487   3.393   8.446   2.186  0.1416  0.0686  0.1711
 2483SOL    HW117488   3.434   8.477   2.100  0.7099 -0.0758  0.3946
 2483SOL    HW217489   3.455   8.384   2.233 -0.1218  0.2430  0.7532
 2484SOL     OW17490   1.727   3.236   2.158  0.1844 -0.3524 -0.2538
 2484SOL    HW117491   1.736   3.152   2.105  0.5704  0.3236 -1.2579
 2484SOL    HW217492   1.720   3.315   2.096  2.8390  0.6747  0.7072
 2485SOL     OW17493   2.758   5.977   2.557 -0.2114 -0.3611 -0.6698
 2485SOL    HW117494   2.740   5.927   2.472 -1.3332 -0.6026 -0.2971
 2485SOL    HW217495   2.671   5.999   2.601  0.3934 -1.2866  1.0247
 2486SOL     OW17496   4.666   3.954   2.049  0.2842 -0.6214  0.1413
 2486SOL    HW117497   4.626   3.968   1.958  1.0058  0.3427 -0.0272
 2486SOL    HW217498   4.596   3.917   2.111 -0.0976 -1.7003 -0.9107
 2487SOL     OW17499   1.847   9.232   2.378  0.2355  0.5142  0.8588
 2487SOL    HW117500   1.842   9.260   2.282  0.4138 -2.1059  0.0482
 2487SOL    HW217501   1.940   9.201   2.398 -0.1721 -0.3218  1.4786
 2488SOL     OW17502  10.052   3.542   2.493  0.1917 -0.4029 -0.2667
 2488SOL    HW117503  10.128   3.535   2.558  1.3291 -0.5677 -1.5780
 2488SOL    HW217504  10.057   3.465   2.429 -1.8722 -1.1517  0.4382
 2489SOL     OW17505   9.748   3.930   2.438 -0.2963  0.3959  0.3987
 2489SOL    HW117506   9.785   4.020   2.459  0.2608  0.5576 -1.1756
 2489SOL    HW217507   9.711   3.930   2.345 -0.0545 -1.0642  0.2857
 2490SOL     OW17508   1.546  10.307   0.861  0.1318  0.1052  0.2012
 2490SOL    HW117509   1.499  10.332   0.945 -2.7672  0.7744 -1.5766
 2490SOL    HW217510   1.488  10.247   0.806  2.4841 -1.3621 -0.8009
 2491SOL     OW17511   0.978   8.969   1.384 -0.5492  0.4754  0.0466
 2491SOL    HW117512   0.965   9.068   1.382  0.5988  0.6611  1.6856
 2491SOL    HW217513   0.896   8.924   1.348 -1.1775  2.0036 -0.4458
 2492SOL     OW17514  10.317   6.417   2.529  0.2120  0.3363 -0.3464
 2492SOL    HW117515  10.325   6.362   2.612  0.6447  0.3393 -0.3886
 2492SOL    HW217516  10.376   6.497   2.536 -1.1603  1.3403  0.1507
 2493SOL     OW17517   3.084   8.892   0.599 -0.4997 -0.2052  0.4022
 2493SOL    HW117518   3.105   8.801   0.565 -0.8249  0.1949 -0.9172
 2493SOL    HW217519   3.092   8.894   0.699  1.9865 -1.0219  0.2532
 2494SOL     OW17520   2.673   5.460   2.565 -0.3622 -0.1482 -0.1986
 2494SOL    HW117521   2.750   5.397   2.554 -1.2515 -1.1554 -0.7357
 2494SOL    HW217522   2.622   5.437   2.647 -0.5140  0.0645 -0.2323
 2495SOL     OW17523   3.811   9.631   2.669 -0.5792  0.6221 -0.1022
 2495SOL    HW117524   3.820   9.715   2.616  0.4020 -0.2680 -1.3961
 2495SOL    HW217525   3.901   9.589   2.682 -1.0168 -0.0813  0.7784
 2496SOL     OW17526   3.213   7.668   2.109 -0.2427  0.0082  0.0483
 2496SOL    HW117527   3.144   7.705   2.171  0.4153 -0.7561  1.2733
 2496SOL    HW217528   3.181   7.582   2.071  0.6950 -1.2357  1.9644
 2497SOL     OW17529   2.332   8.431   0.166 -0.5774 -0.0329 -0.1864
 2497SOL    HW117530   2.245   8.383   0.170 -0.1983 -0.6764  0.3710
 2497SOL    HW217531   2.403   8.375   0.209 -0.2483  1.2807  1.0050
 2498SOL     OW17532   3.261   3.853   2.118  0.1558  0.1099  0.1898
 2498SOL    HW117533   3.293   3.846   2.213  0.5564  0.0529  0.0547
 2498SOL    HW217534   3.305   3.932   2.074  1.1757 -0.7705 -0.4045
 2499SOL     OW17535   3.599   2.998   0.686  0.5145  0.1284  0.1476
 2499SOL    HW117536   3.571   2.903   0.675  0.4438  0.1759 -0.0788
 2499SOL    HW217537   3.554   3.055   0.618 -2.0670  0.8677  2.4040
 2500SOL     OW17538   2.934   2.294   0.490 -0.0426  0.1444  0.3975
 2500SOL    HW117539   2.859   2.360   0.494 -1.0286 -0.8915 -0.6668
 2500SOL    HW217540   2.897   2.202   0.492  1.2668 -0.3798  0.7479
 2501SOL     OW17541   3.821   2.252   1.773 -0.9042 -0.5623 -0.3555
 2501SOL    HW117542   3.727   2.287   1.779 -0.6732 -0.2463  1.6959
 2501SOL    HW217543   3.854   2.230   1.864  1.9840  1.8657 -0.7350
 2502SOL     OW17544   2.018   8.596   0.321  0.0089 -0.6863 -0.4945
 2502SOL    HW117545   2.114   8.612   0.298 -0.1904  0.1152 -0.8015
 2502SOL    HW217546   2.008   8.587   0.420  0.0946  1.4896 -0.2634
 2503SOL     OW17547   0.975   7.056   1.735  0.2887  0.6362  0.4539
 2503SOL    HW117548   1.059   7.021   1.776 -0.4371 -0.4495  1.0781
 2503SOL    HW217549   0.977   7.043   1.636  1.0262  1.0066  0.4187
 2504SOL     OW17550   1.803   3.145   1.260 -0.2035 -0.2877 -0.3903
 2504SOL    HW117551   1.855   3.068   1.223  1.1986  0.2093  0.5008
 2504SOL    HW217552   1.706   3.123   1.261  0.3092 -2.5801  1.1227
 2505SOL     OW17553   2.824   9.080   0.558 -0.1613  0.0808  0.4123
 2505SOL    HW117554   2.842   9.157   0.619 -1.9225  0.1571  0.8492
 2505SOL    HW217555   2.908   9.027   0.547  0.9075  1.6981  0.5924
 2506SOL     OW17556   3.863   5.584   1.680  0.0857  0.3962 -0.1408
 2506SOL    HW117557   3.781   5.639   1.662  0.0597 -0.1119 -1.5708
 2506SOL    HW217558   3.936   5.612   1.618  0.0258 -1.2959 -0.9834
 2507SOL     OW17559   2.478   9.705   1.380 -0.2941  0.3711 -0.3644
 2507SOL    HW117560   2.381   9.681   1.381 -0.2681  0.2527 -0.6327
 2507SOL    HW217561   2.532   9.631   1.420 -0.5476  1.5186  2.1814
 2508SOL     OW17562   3.904   1.049   2.648  0.2146 -0.1798  0.6818
 2508SOL    HW117563   3.895   0.954   2.677  0.1322  0.4902  2.9262
 2508SOL    HW217564   3.939   1.105   2.724 -2.9723  2.1955  0.5301
 2509SOL     OW17565   1.429   5.439   0.284  0.2310 -0.2583  0.3854
 2509SOL    HW117566   1.414   5.408   0.190 -1.3298 -0.9870  0.8504
 2509SOL    HW217567   1.355   5.502   0.310 -1.1417 -2.5040  2.1594
 2510SOL     OW17568  10.485   5.062   0.207  0.6436  0.5322  0.2891
 2510SOL    HW117569  10.545   5.136   0.236 -0.4621  0.7584  2.0791
 2510SOL    HW217570  10.479   4.994   0.279 -1.3926  0.6163  0.2232
 2511SOL     OW17571   2.508  10.258   0.778 -0.0438 -0.7063 -0.5663
 2511SOL    HW117572   2.426  10.215   0.817  0.5709 -2.3903 -1.0584
 2511SOL    HW217573   2.494  10.275   0.681 -0.0736 -0.3148 -0.4946
 2512SOL     OW17574   1.342   9.143   1.811  0.3368  0.2362 -0.4877
 2512SOL    HW117575   1.268   9.184   1.757  0.1933 -1.5420 -1.6541
 2512SOL    HW217576   1.428   9.190   1.790 -0.0333  0.7450 -0.8776
 2513SOL     OW17577   4.898   1.730   2.187 -0.0578 -0.1932  0.3536
 2513SOL    HW117578   4.910   1.707   2.091 -0.3993  0.6148  0.1165
 2513SOL    HW217579   4.934   1.821   2.205 -0.2488 -0.2252  0.9319
 2514SOL     OW17580  10.507   1.335   1.722 -0.1824  0.3225 -0.1912
 2514SOL    HW117581  10.501   1.246   1.767  1.5571  0.9279  1.2959
 2514SOL    HW217582  10.428   1.391   1.748 -0.5944 -0.2962 -0.0890
 2515SOL     OW17583   3.604   2.930   1.247  0.1568 -0.4172  0.2909
 2515SOL    HW117584   3.624   2.846   1.197  0.2961  0.5022 -1.2464
 2515SOL    HW217585   3.513   2.924   1.289  0.3746 -1.5194  0.5927
 2516SOL     OW17586   4.050   4.145   2.704  0.1286  0.4866  0.8490
 2516SOL    HW117587   4.111   4.126   2.627 -0.5845 -0.4485  0.5158
 2516SOL    HW217588   3.957   4.158   2.670 -0.3391 -0.7428  1.6320
 2517SOL     OW17589   3.805   8.712   2.151 -0.1117 -0.9572  0.2681
 2517SOL    HW117590   3.728   8.766   2.118  0.3155 -0.8580 -0.5777
 2517SOL    HW217591   3.890   8.761   2.132  0.2751 -1.9097 -0.4842
 2518SOL     OW17592   9.302   1.946   1.950 -0.0296  0.5692 -0.1574
 2518SOL    HW117593   9.365   2.003   2.003  0.1289 -1.1401  1.5725
 2518SOL    HW217594   9.214   1.993   1.941 -0.0358  0.9224  1.5953
 2519SOL     OW17595   9.901   2.392   2.344  0.1233  0.0259 -0.0275
 2519SOL    HW117596   9.947   2.305   2.327  1.5308  0.6785  0.3901
 2519SOL    HW217597   9.907   2.449   2.262  1.2370  0.6344  0.4694
 2520SOL     OW17598   2.967   0.779   1.427 -0.4278  0.5879 -0.1572
 2520SOL    HW117599   2.939   0.685   1.410 -0.0888  0.6817 -1.2697
 2520SOL    HW217600   3.052   0.779   1.481  0.2991  0.2207 -1.2727
 2521SOL     OW17601   4.076   2.687   1.094  0.0432  0.5467  0.3811
 2521SOL    HW117602   4.020   2.605   1.110 -0.0241  0.2552 -1.2345
 2521SOL    HW217603   4.144   2.668   1.023 -1.2774  2.4596 -1.4720
 2522SOL     OW17604   9.888   1.641   2.381  0.0059  0.7074 -0.3194
 2522SOL    HW117605   9.913   1.599   2.468  0.6969  0.2610 -0.7314
 2522SOL    HW217606   9.968   1.687   2.342 -0.5530  1.7490 -0.2383
 2523SOL     OW17607   3.825   3.687   0.479  0.1762  0.0239  0.0851
 2523SOL    HW117608   3.918   3.692   0.441  1.6819 -0.8084  3.4911
 2523SOL    HW217609   3.795   3.592   0.481 -0.2652  0.1660  0.1590
 2524SOL     OW17610   9.918   5.768   1.866 -0.1474 -0.1342 -0.3847
 2524SOL    HW117611   9.978   5.841   1.899 -0.6550 -0.0024  0.2631
 2524SOL    HW217612   9.872   5.797   1.782 -1.0502  0.6578  0.3647
 2525SOL     OW17613   1.018   5.430   0.696 -0.1215 -0.4060  0.2234
 2525SOL    HW117614   1.108   5.469   0.680 -0.7234  0.5514 -0.8833
 2525SOL    HW217615   1.003   5.419   0.794 -0.0001  2.3084  0.5840
 2526SOL     OW17616   5.230   3.440   1.866  0.3631 -0.1400  0.5748
 2526SOL    HW117617   5.200   3.438   1.961  0.7666 -1.8433  0.6746
 2526SOL    HW217618   5.160   3.397   1.808  1.6032 -2.1627  0.5369
 2527SOL     OW17619   2.967   5.217   1.694  0.0572 -0.3713 -0.1709
 2527SOL    HW117620   3.047   5.259   1.737  0.9432 -2.4412  0.2672
 2527SOL    HW217621   2.891   5.214   1.759  0.4910 -0.8811  0.3140
 2528SOL     OW17622  10.002   5.742   1.522  0.0501 -0.0721 -0.2229
 2528SOL    HW117623   9.921   5.777   1.570  1.4518  0.2695  1.9435
 2528SOL    HW217624  10.080   5.801   1.541  1.6968 -2.5133  0.8199
 2529SOL     OW17625   3.976   1.382   0.842  0.0674 -0.3984  0.2101
 2529SOL    HW117626   3.999   1.308   0.778  0.3883  0.5452 -0.7635
 2529SOL    HW217627   3.889   1.361   0.886  0.3864 -1.6046  0.3087
 2530SOL     OW17628   1.340   8.422   0.177 -0.3472 -0.0456 -0.0647
 2530SOL    HW117629   1.360   8.516   0.150 -0.9002  0.0353 -0.2041
 2530SOL    HW217630   1.315   8.368   0.096  0.3438 -0.4100 -0.0391
 2531SOL     OW17631   9.833   6.458   2.392 -0.0393  0.2950 -0.0104
 2531SOL    HW117632   9.883   6.385   2.438  2.2081  1.6244 -0.2486
 2531SOL    HW217633   9.789   6.517   2.460 -1.2541 -0.8367  0.2021
 2532SOL     OW17634   9.912   4.158   0.451 -0.2028 -0.1792  0.1721
 2532SOL    HW117635   9.858   4.096   0.394 -2.4161  0.5238  1.4204
 2532SOL    HW217636  10.003   4.119   0.467 -1.3047 -2.7628  0.3383
 2533SOL     OW17637   2.882   3.552   2.683 -0.1432 -0.0444  0.2211
 2533SOL    HW117638   2.878   3.602   2.770 -0.9356  0.8775 -0.3257
 2533SOL    HW217639   2.908   3.457   2.700 -0.4736  0.0824  1.4863
 2534SOL     OW17640   9.788   6.075   1.465 -0.9537 -0.5808  0.3337
 2534SOL    HW117641   9.858   6.085   1.536 -3.0693  1.4262  2.2312
 2534SOL    HW217642   9.800   6.146   1.396 -0.1501 -1.2655 -0.2484
 2535SOL     OW17643   2.016   6.346   1.142 -1.0170 -0.8925  0.0721
 2535SOL    HW117644   1.954   6.401   1.086 -1.4134  0.0339  1.4058
 2535SOL    HW217645   2.107   6.389   1.144 -1.2260 -0.4733  0.8065
 2536SOL     OW17646   0.836   4.005   1.636  0.1740  0.6260 -0.2694
 2536SOL    HW117647   0.893   4.076   1.679 -1.4385  0.3558  2.4618
 2536SOL    HW217648   0.846   3.919   1.687 -3.1131  0.7380  0.6956
 2537SOL     OW17649   1.862   0.897   0.989  0.9100  0.6848 -0.2765
 2537SOL    HW117650   1.847   0.974   0.927 -0.1249  0.3170 -0.4773
 2537SOL    HW217651   1.790   0.829   0.977  1.2008  0.1957  0.7000
 2538SOL     OW17652   1.754   7.187   1.613  0.7531  0.0998  0.2625
 2538SOL    HW117653   1.683   7.171   1.682  0.5791  2.1293  0.5644
 2538SOL    HW217654   1.733   7.269   1.561  0.3109 -1.9980 -3.0240
 2539SOL     OW17655   1.925   4.914   0.429  0.1848 -0.2885 -0.0119
 2539SOL    HW117656   1.919   4.859   0.346 -0.6763  0.4066 -0.4269
 2539SOL    HW217657   2.021   4.928   0.454  0.4175 -1.4441 -0.2496
 2540SOL     OW17658   3.108   5.452   2.287  0.0892 -0.1670 -0.6870
 2540SOL    HW117659   3.090   5.354   2.295 -0.7019  0.0477  0.2138
 2540SOL    HW217660   3.114   5.492   2.378 -1.0011  0.8827 -1.0769
 2541SOL     OW17661   1.902   1.591   1.187 -0.2365 -0.5981 -0.3678
 2541SOL    HW117662   1.880   1.531   1.110  0.8225  0.7703 -1.7558
 2541SOL    HW217663   1.955   1.539   1.255 -0.5464 -1.6149 -0.8916
 2542SOL     OW17664   3.552   8.501   1.944  0.4064 -0.2752  0.1121
 2542SOL    HW117665   3.633   8.512   2.001  0.9203 -2.5836 -0.1361
 2542SOL    HW217666   3.544   8.581   1.883  2.4435  0.0346  0.2007
 2543SOL     OW17667  10.065   3.916   2.239  0.0854 -0.2293 -0.1316
 2543SOL    HW117668  10.040   4.013   2.239 -1.4357 -0.5800 -2.1212
 2543SOL    HW217669  10.158   3.905   2.203  0.9731  0.6175  1.8321
 2544SOL     OW17670  10.026   6.107   0.858  0.2163 -0.0972 -0.1083
 2544SOL    HW117671  10.110   6.057   0.839 -0.3246 -1.1489  0.2436
 2544SOL    HW217672   9.975   6.061   0.930 -1.2359 -0.1330 -1.1427
 2545SOL     OW17673   2.083   6.487   0.720 -0.0982 -0.4764  0.6475
 2545SOL    HW117674   2.040   6.559   0.667  1.8348  0.5140  0.3761
 2545SOL    HW217675   2.180   6.483   0.698 -0.0566 -2.7461  1.1310
 2546SOL     OW17676   3.546   3.086   0.946 -0.1774  0.4018 -0.1240
 2546SOL    HW117677   3.615   3.029   0.991 -0.2279  0.2452 -0.2458
 2546SOL    HW217678   3.548   3.069   0.847 -1.3891 -0.6596  0.0364
 2547SOL     OW17679   1.828   3.810   0.134  0.0866  0.5203 -0.0405
 2547SOL    HW117680   1.739   3.855   0.128 -1.3759 -2.0560  1.0066
 2547SOL    HW217681   1.866   3.825   0.225 -2.1182 -3.2092  1.6201
 2548SOL     OW17682   3.068   8.766   2.353  0.1793  0.1453 -0.4543
 2548SOL    HW117683   3.035   8.859   2.367 -1.8805 -1.0325  2.9263
 2548SOL    HW217684   3.011   8.721   2.284 -1.0875  0.2614  0.5056
 2549SOL     OW17685   9.218   1.517   1.354 -0.4814  0.2805  0.8018
 2549SOL    HW117686   9.225   1.519   1.454  0.6155  2.6221  0.6921
 2549SOL    HW217687   9.170   1.598   1.322  2.1361  1.2662 -0.7854
 2550SOL     OW17688   3.252   9.662   0.501  0.4132 -0.0380  0.5563
 2550SOL    HW117689   3.242   9.570   0.539  1.7031 -1.6298 -2.8357
 2550SOL    HW217690   3.177   9.680   0.438  2.1730 -0.2431 -1.6323
 2551SOL     OW17691   2.762   4.411   0.255  0.1519 -0.2969 -0.1474
 2551SOL    HW117692   2.839   4.449   0.204  0.1777  1.7855  1.3656
 2551SOL    HW217693   2.678   4.456   0.227 -0.3554 -1.6824 -0.8945
 2552SOL     OW17694   3.788   0.780   2.640 -0.1898  0.0361  0.3929
 2552SOL    HW117695   3.727   0.746   2.713 -2.8544  4.5284  0.4206
 2552SOL    HW217696   3.734   0.803   2.560  1.6436  2.7775 -0.1102
 2553SOL     OW17697   9.647   2.227   1.803  0.3646  0.3654  0.2205
 2553SOL    HW117698   9.555   2.201   1.775  0.8674 -0.1908 -0.9556
 2553SOL    HW217699   9.712   2.202   1.731  1.3625  1.2597  0.7993
 2554SOL     OW17700   5.382   3.988   2.106  0.3179  0.0579 -0.2510
 2554SOL    HW117701   5.353   4.030   2.020  0.3240  0.3990 -0.0892
 2554SOL    HW217702   5.335   4.033   2.182  1.3965  0.7364  0.0216
 2555SOL     OW17703  10.316   2.869   1.222 -0.4974 -0.2737  0.2272
 2555SOL    HW117704  10.348   2.832   1.310  0.2594  1.6390  0.7883
 2555SOL    HW217705  10.388   2.860   1.154 -0.0882  0.6998  0.5250
 2556SOL     OW17706   4.401   2.981   0.737 -0.3307 -0.1802 -0.1772
 2556SOL    HW117707   4.473   2.933   0.688  0.3974  0.0939  0.6330
 2556SOL    HW217708   4.425   3.078   0.746 -0.6151 -0.1622  0.4261
 2557SOL     OW17709   3.732   2.702   1.187  0.4470 -0.0842  0.3357
 2557SOL    HW117710   3.763   2.668   1.276  1.8182  0.2595 -0.0038
 2557SOL    HW217711   3.791   2.665   1.115  1.5029  2.4134 -0.1009
 2558SOL     OW17712   2.462   8.853   1.061 -0.2914  0.1985  0.2217
 2558SOL    HW117713   2.364   8.853   1.085 -0.4533 -2.2697 -0.2935
 2558SOL    HW217714   2.486   8.765   1.022  1.9257  1.1887 -0.7147
 2559SOL     OW17715   2.786   1.751   1.425  0.3116 -0.1747  0.2921
 2559SOL    HW117716   2.791   1.689   1.504  0.3403  1.6416  1.7567
 2559SOL    HW217717   2.862   1.731   1.363  0.9216 -0.9069  1.2530
 2560SOL     OW17718  10.388   2.428   0.465  0.5288  0.8957 -0.2072
 2560SOL    HW117719  10.474   2.384   0.488  0.9759  2.0289  0.3165
 2560SOL    HW217720  10.396   2.472   0.375  0.6107  1.2883 -0.0093
 2561SOL     OW17721   2.636   8.861   0.674 -0.8844  0.2366  0.1987
 2561SOL    HW117722   2.691   8.822   0.747  0.5335  0.8705 -0.5194
 2561SOL    HW217723   2.681   8.941   0.636 -0.9776 -0.7888 -2.2087
 2562SOL     OW17724   1.114   5.956   0.629  0.3217  0.4047 -0.6062
 2562SOL    HW117725   1.179   5.888   0.594 -0.1452  0.1598 -0.9993
 2562SOL    HW217726   1.031   5.954   0.575 -0.9449 -0.9146  1.3091
 2563SOL     OW17727   2.271   3.184   2.367  0.2390  0.5911 -0.5418
 2563SOL    HW117728   2.320   3.199   2.282 -0.7020  0.6612 -1.0749
 2563SOL    HW217729   2.173   3.174   2.349 -0.1370  1.8788  0.6513
 2564SOL     OW17730   3.450   4.511   2.301 -0.4800 -0.0881  0.1133
 2564SOL    HW117731   3.471   4.521   2.399  0.8545  0.6699 -0.2459
 2564SOL    HW217732   3.490   4.427   2.267  1.5882  1.0810 -0.4403
 2565SOL     OW17733   9.213   2.180   0.912 -0.2535  0.0433  0.2200
 2565SOL    HW117734   9.226   2.192   0.813  1.1710 -0.4282  0.3351
 2565SOL    HW217735   9.119   2.152   0.930 -0.3421 -0.5239 -1.0710
 2566SOL     OW17736  10.534   6.995   2.499 -0.0755 -0.1241  0.2486
 2566SOL    HW117737  10.470   7.055   2.452 -0.0497 -0.6343 -0.4445
 2566SOL    HW217738  10.622   7.041   2.508 -0.3197  0.2929  0.5465
 2567SOL     OW17739   0.966  10.565   0.811 -0.4409 -0.2937 -0.3288
 2567SOL    HW117740   0.989  10.649   0.762 -2.3966  0.3705 -0.1602
 2567SOL    HW217741   1.013  10.488   0.769  1.3191  0.8701 -0.5374
 2568SOL     OW17742   1.272   4.801   1.110 -0.6741 -0.4420 -0.1728
 2568SOL    HW117743   1.218   4.813   1.193  0.2204 -1.0381  0.5143
 2568SOL    HW217744   1.361   4.761   1.134 -0.9040 -1.8283 -1.5690
 2569SOL     OW17745   2.113  10.270   2.192  0.2074  0.1569 -0.4048
 2569SOL    HW117746   2.210  10.247   2.196  0.1344 -0.4520 -1.8065
 2569SOL    HW217747   2.100  10.345   2.126 -0.4331 -0.6932 -1.2492
 2570SOL     OW17748   2.208   8.460   1.834  0.2554  0.3646  0.3727
 2570SOL    HW117749   2.172   8.380   1.786 -0.0202  1.2103 -0.8568
 2570SOL    HW217750   2.290   8.492   1.787  0.5851  0.5820  1.0904
 2571SOL     OW17751  10.010   5.415   2.286 -0.2176  0.6213  0.2218
 2571SOL    HW117752  10.000   5.474   2.206 -1.9830  1.5612  1.0957
 2571SOL    HW217753   9.973   5.325   2.265 -1.1735  1.0255  0.1300
 2572SOL     OW17754   3.439  10.359   0.284  0.0460 -0.1035  0.1399
 2572SOL    HW117755   3.428  10.421   0.362  0.5623 -0.7359  0.7269
 2572SOL    HW217756   3.447  10.265   0.317 -3.2667 -0.7886 -0.8946
 2573SOL     OW17757   3.616   5.345   0.479 -0.3648 -0.3233 -0.1084
 2573SOL    HW117758   3.644   5.313   0.570  1.1708 -0.7308 -0.7136
 2573SOL    HW217759   3.613   5.445   0.478  2.1970 -0.2184 -0.3342
 2574SOL     OW17760   1.902   2.014   2.706 -0.3904  0.4167 -1.1452
 2574SOL    HW117761   1.895   2.110   2.680 -2.3781  0.7063  0.3469
 2574SOL    HW217762   1.948   2.007   2.795  0.2714 -0.0669 -1.5200
 2575SOL     OW17763   3.694   6.014   1.071  0.0777  0.1266  0.0711
 2575SOL    HW117764   3.634   6.035   1.148 -3.8466  0.9464 -3.0269
 2575SOL    HW217765   3.696   5.915   1.058  0.2127  0.0271  0.7947
 2576SOL     OW17766   3.256   1.770   2.431 -0.0963  0.1176 -0.2228
 2576SOL    HW117767   3.185   1.821   2.478 -0.1686  0.3741 -0.6048
 2576SOL    HW217768   3.267   1.680   2.474  0.0527  0.4662  0.4645
 2577SOL     OW17769   1.100   7.386   0.710  0.9803 -0.3185  0.5645
 2577SOL    HW117770   1.023   7.328   0.736 -0.1825  0.7779 -0.3936
 2577SOL    HW217771   1.071   7.481   0.707  1.3825 -0.2502 -3.4417
 2578SOL     OW17772   3.835   2.747   2.201  0.0553  0.3516  0.1210
 2578SOL    HW117773   3.905   2.702   2.146  1.3946 -0.8978  2.7443
 2578SOL    HW217774   3.755   2.687   2.207 -0.5747  1.0165 -1.4269
 2579SOL     OW17775   4.275  10.145   0.606  0.0749  0.2323  0.1990
 2579SOL    HW117776   4.276  10.188   0.696  0.8636 -0.1658  0.3802
 2579SOL    HW217777   4.181  10.132   0.576 -0.2283 -1.8559  2.0111
 2580SOL     OW17778   2.628   5.571   2.070  0.2449 -0.0120 -0.3327
 2580SOL    HW117779   2.697   5.503   2.047  0.3352 -0.1181  0.2489
 2580SOL    HW217780   2.573   5.538   2.148  0.0951  0.4450 -0.2430
 2581SOL     OW17781   3.066   4.121   1.974 -0.0837  0.6645  0.0127
 2581SOL    HW117782   3.155   4.078   1.989 -0.9434 -0.3878  2.2479
 2581SOL    HW217783   2.999   4.052   1.949 -0.4814  1.3423 -0.8191
 2582SOL     OW17784   1.402   7.525   1.782 -0.5368 -0.3506  0.0066
 2582SOL    HW117785   1.458   7.603   1.810 -1.9401  0.9517 -0.7043
 2582SOL    HW217786   1.305   7.550   1.789 -0.9786 -1.1826 -2.5390
 2583SOL     OW17787   3.636   2.958   0.321 -0.3540 -0.5642  0.0300
 2583SOL    HW117788   3.679   3.031   0.374  0.2427  1.6790 -3.3842
 2583SOL    HW217789   3.707   2.902   0.278 -0.8293 -2.2494  1.3907
 2584SOL     OW17790   1.121   4.539   1.099 -0.5284 -0.4035  0.1043
 2584SOL    HW117791   1.116   4.597   1.180 -0.1015 -0.8913  0.4838
 2584SOL    HW217792   1.196   4.474   1.110  0.5349  0.5584 -1.3489
 2585SOL     OW17793   3.730   2.867   1.695  0.2653  0.2780  0.2417
 2585SOL    HW117794   3.775   2.937   1.751  0.1593 -0.1503  0.8703
 2585SOL    HW217795   3.765   2.872   1.602  1.9473 -0.3200  0.8143
 2586SOL     OW17796   3.595   8.252   0.846 -0.4369  0.2188  0.0219
 2586SOL    HW117797   3.694   8.265   0.847 -0.6228  1.5568  1.2085
 2586SOL    HW217798   3.575   8.157   0.822  1.1743 -0.4373  1.1918
 2587SOL     OW17799   1.522   9.565   0.606 -0.2262 -0.1380 -0.2056
 2587SOL    HW117800   1.513   9.657   0.568 -0.5880  0.1035  0.4433
 2587SOL    HW217801   1.434   9.517   0.598  0.0527 -0.5481 -0.8421
 2588SOL     OW17802   4.428   3.927   2.375  0.3044  0.2237 -0.2072
 2588SOL    HW117803   4.436   3.832   2.343  1.6019  1.1768 -2.8576
 2588SOL    HW217804   4.507   3.948   2.432 -0.9948 -0.8628  2.0658
 2589SOL     OW17805   9.301   3.402   2.093  0.0571 -0.1639  0.1004
 2589SOL    HW117806   9.287   3.314   2.049 -0.8225 -0.1094  0.2611
 2589SOL    HW217807   9.374   3.452   2.047 -1.2720  0.1566 -1.6768
 2590SOL     OW17808  10.452   4.825   1.070  0.2159  0.0511 -0.1536
 2590SOL    HW117809  10.483   4.762   0.999  0.2268  1.8520 -1.8157
 2590SOL    HW217810  10.364   4.794   1.106 -0.3659 -0.2811 -1.8172
 2591SOL     OW17811   3.888   8.958   0.661 -0.5582  0.4250  0.0411
 2591SOL    HW117812   3.798   8.914   0.651 -0.3128 -0.1133  0.1544
 2591SOL    HW217813   3.955   8.907   0.606  0.3507 -1.1595  2.5596
 2592SOL     OW17814   8.788   2.845   0.210 -0.2254  0.2239 -0.1382
 2592SOL    HW117815   8.875   2.817   0.168 -0.6928  1.1868 -1.8061
 2592SOL    HW217816   8.712   2.820   0.149 -1.0735  0.0834  0.9491
 2593SOL     OW17817   2.785   7.964   0.315  0.6078 -0.6411  0.1180
 2593SOL    HW117818   2.701   7.912   0.327 -1.5356  2.1227 -2.0763
 2593SOL    HW217819   2.788   8.038   0.383  0.4466  0.1885 -0.7540
 2594SOL     OW17820   4.791   2.110   1.945 -0.2216  0.0116  0.2606
 2594SOL    HW117821   4.834   2.020   1.946  1.4157  0.7432 -0.7756
 2594SOL    HW217822   4.743   2.123   1.858  0.6736  0.6216 -0.1561
 2595SOL     OW17823   2.935   4.412   1.030  0.5243 -0.9307  0.5939
 2595SOL    HW117824   2.943   4.459   1.119 -0.1683 -0.4663  0.4130
 2595SOL    HW217825   3.026   4.397   0.993  0.7535  0.7399  0.4246
 2596SOL     OW17826   9.749   5.844   1.643  0.6058 -0.0093 -0.4284
 2596SOL    HW117827   9.660   5.800   1.644  0.8336 -0.5043 -1.4808
 2596SOL    HW217828   9.745   5.928   1.589  0.8314 -0.1555 -0.6747
 2597SOL     OW17829   9.193   4.882   0.539 -0.3062  0.3691  0.3954
 2597SOL    HW117830   9.128   4.864   0.613 -1.2921  0.7424 -0.3637
 2597SOL    HW217831   9.159   4.958   0.483  0.0135 -0.4242 -0.9090
 2598SOL     OW17832   2.491   1.926   0.795  0.2482  0.1398 -0.0095
 2598SOL    HW117833   2.521   1.831   0.797 -0.6469 -0.1380  2.8903
 2598SOL    HW217834   2.392   1.930   0.781  0.4989  0.7234 -1.6980
 2599SOL     OW17835   4.766   4.356   0.116  0.3150  0.3449 -0.0754
 2599SOL    HW117836   4.710   4.337   0.197  0.6789 -0.6572 -0.0418
 2599SOL    HW217837   4.840   4.418   0.142 -0.0477  0.6794  0.1696
 2600SOL     OW17838   9.010   3.913   1.823  0.1977 -0.4386 -0.1274
 2600SOL    HW117839   9.049   4.004   1.836  2.9859 -1.6512  0.3533
 2600SOL    HW217840   8.939   3.896   1.892  0.6284  0.8343  0.6273
 2601SOL     OW17841   4.623   1.537   0.657 -0.0177  0.1177  0.3186
 2601SOL    HW117842   4.574   1.624   0.671 -1.1343 -0.7501  2.0272
 2601SOL    HW217843   4.721   1.554   0.661 -0.1798  1.5737 -1.1574
 2602SOL     OW17844   2.683   4.683   1.674 -0.1989 -1.0152 -0.2810
 2602SOL    HW117845   2.681   4.598   1.728 -0.6093 -2.1858 -2.0889
 2602SOL    HW217846   2.758   4.741   1.706  0.0284 -2.0269  1.0482
 2603SOL     OW17847   2.261   5.266   2.039 -0.1413 -0.0110  0.5865
 2603SOL    HW117848   2.266   5.358   2.077  0.3472 -0.3296  1.3183
 2603SOL    HW217849   2.266   5.270   1.940  0.1010  0.7396  0.6293
 2604SOL     OW17850  10.320   2.328   0.844  0.2547  0.1511 -0.3961
 2604SOL    HW117851  10.247   2.297   0.904 -0.2095  0.4160 -0.8206
 2604SOL    HW217852  10.303   2.423   0.817  1.0116  0.3727 -0.0960
 2605SOL     OW17853   0.852   5.626   0.572 -0.8180  0.1336  0.1470
 2605SOL    HW117854   0.917   5.550   0.576  1.5992  2.0679 -1.1631
 2605SOL    HW217855   0.760   5.590   0.554 -0.1560 -2.6425  1.9130
 2606SOL     OW17856   9.755   1.413   1.237 -0.4415 -0.3434  0.3674
 2606SOL    HW117857   9.749   1.314   1.232 -0.3547 -0.2828 -1.2875
 2606SOL    HW217858   9.683   1.454   1.181  1.1991  0.4898 -1.2038
 2607SOL     OW17859   2.097   6.677   1.520  0.0954  0.2638 -0.6136
 2607SOL    HW117860   2.114   6.579   1.527  0.5473  0.3171 -0.9398
 2607SOL    HW217861   2.008   6.693   1.478 -1.3755 -0.0435  2.2696
 2608SOL     OW17862   1.204   2.876   1.954 -0.1301 -0.5760 -0.6790
 2608SOL    HW117863   1.195   2.898   2.051  2.0149 -0.7039 -0.4315
 2608SOL    HW217864   1.164   2.949   1.899 -0.3662  0.0197  0.2759
 2609SOL     OW17865   5.144   4.212   0.098  0.3567 -0.0253  0.4786
 2609SOL    HW117866   5.230   4.201   0.048  0.3563  0.2299  0.4169
 2609SOL    HW217867   5.163   4.250   0.188  0.0807  2.8477 -0.6155
 2610SOL     OW17868  10.169   4.443   0.153 -0.0596  0.2681  0.0227
 2610SOL    HW117869  10.163   4.535   0.113 -0.8250  0.3565  0.3331
 2610SOL    HW217870  10.252   4.435   0.208  0.5072  0.4597 -0.7962
 2611SOL     OW17871   2.246   0.732   0.319  0.3360  0.0540 -0.0888
 2611SOL    HW117872   2.304   0.682   0.383  0.6749 -0.4792 -0.7981
 2611SOL    HW217873   2.243   0.683   0.232 -1.0929  0.1352 -0.0972
 2612SOL     OW17874   1.072   1.877   1.599  0.1518 -0.0789  0.0161
 2612SOL    HW117875   1.087   1.803   1.534 -2.2920  0.2572 -0.9639
 2612SOL    HW217876   1.160   1.918   1.623  1.2374 -1.2469 -1.8265
 2613SOL     OW17877   1.685   8.019   1.089 -0.2747  0.4434 -0.6024
 2613SOL    HW117878   1.661   7.966   1.007 -1.7823  0.1422  0.0043
 2613SOL    HW217879   1.647   8.111   1.081  3.4528  1.9492 -2.2411
 2614SOL     OW17880  10.562   1.234   1.233 -0.3773  0.0957  0.4711
 2614SOL    HW117881  10.564   1.282   1.321 -0.9056 -1.7857  1.5251
 2614SOL    HW217882  10.504   1.153   1.240  1.7570 -1.5976 -0.8275
 2615SOL     OW17883   2.024   6.482   1.874  0.0634  0.2623 -0.3705
 2615SOL    HW117884   2.035   6.459   1.971 -0.0938  5.5290  0.9998
 2615SOL    HW217885   1.953   6.424   1.834  0.8377 -2.6948  2.3460
 2616SOL     OW17886   4.430   0.975   1.485 -0.0084  0.1220 -0.3438
 2616SOL    HW117887   4.457   0.879   1.479  1.0423  0.2606  1.7849
 2616SOL    HW217888   4.496   1.024   1.541 -0.8229  1.9987 -0.9991
 2617SOL     OW17889   2.186   8.671   2.027  0.0106 -0.2428 -0.1026
 2617SOL    HW117890   2.122   8.640   2.098  1.4143  0.2012  1.3829
 2617SOL    HW217891   2.173   8.617   1.944 -1.0485 -1.3721  0.7905
 2618SOL     OW17892   2.032   3.392   1.710  0.1354  0.5201  0.1675
 2618SOL    HW117893   1.943   3.355   1.682  0.0587  1.5102 -0.9163
 2618SOL    HW217894   2.019   3.481   1.752  0.2340 -1.0201  3.6103
 2619SOL     OW17895   1.431   9.655   2.369  0.4009  0.3629  0.1852
 2619SOL    HW117896   1.438   9.669   2.270  1.2330 -1.5442 -0.0414
 2619SOL    HW217897   1.515   9.613   2.403 -1.3414 -2.5388  1.0759
 2620SOL     OW17898   1.873   7.803   2.110 -0.0413  0.6895  0.2992
 2620SOL    HW117899   1.813   7.868   2.065  1.4504  2.0122  0.1907
 2620SOL    HW217900   1.951   7.851   2.151  0.7919 -0.9522  0.7017
 2621SOL     OW17901   9.925   5.730   1.201  0.3786 -0.3302 -0.0937
 2621SOL    HW117902   9.831   5.737   1.237 -0.3255 -1.0986 -1.7537
 2621SOL    HW217903   9.974   5.658   1.249  0.0208 -0.1280  0.5786
 2622SOL     OW17904   2.009   6.894   0.135 -0.1082  0.2901 -0.3269
 2622SOL    HW117905   1.983   6.879   0.039  2.0768 -0.0256 -0.9032
 2622SOL    HW217906   2.011   6.992   0.155 -1.1201  0.3345 -0.4430
 2623SOL     OW17907   2.770   7.966   1.002 -0.1652  0.2332 -0.0564
 2623SOL    HW117908   2.821   8.047   1.031  1.3039 -0.6193 -0.1846
 2623SOL    HW217909   2.731   7.921   1.083  0.0029  0.4265  0.1337
 2624SOL     OW17910   8.909   3.060   1.130  0.1470  0.1833  0.0342
 2624SOL    HW117911   8.981   3.128   1.118  0.4972 -0.4632 -1.6911
 2624SOL    HW217912   8.924   2.984   1.067 -0.8289 -1.0081  1.1952
 2625SOL     OW17913   0.880   3.050   1.980  0.0041 -0.2542 -0.5796
 2625SOL    HW117914   0.918   3.044   1.888  0.8389 -1.3621 -0.1628
 2625SOL    HW217915   0.954   3.048   2.047 -0.7085 -1.0316  0.1878
 2626SOL     OW17916   2.928   4.005   1.421 -0.3205  0.0228 -0.3950
 2626SOL    HW117917   2.971   3.981   1.508 -2.3709 -1.0083  0.3764
 2626SOL    HW217918   2.898   4.101   1.425 -1.8498 -0.4645  0.7055
 2627SOL     OW17919   2.534   5.420   1.151 -0.3893 -0.0696  0.1906
 2627SOL    HW117920   2.470   5.400   1.077 -2.0805  1.5734  1.1713
 2627SOL    HW217921   2.617   5.460   1.114  0.0630 -2.1115 -1.0880
 2628SOL     OW17922   1.606   8.919   1.577  0.1281  0.1632  0.4720
 2628SOL    HW117923   1.573   8.938   1.484  1.1901 -2.6485 -0.5246
 2628SOL    HW217924   1.680   8.982   1.599  0.2897  0.4459 -0.8254
 2629SOL     OW17925   1.478   4.053   1.088 -0.3627 -0.4977  0.2497
 2629SOL    HW117926   1.544   4.102   1.146  0.3595 -1.9121  0.6488
 2629SOL    HW217927   1.386   4.088   1.107  0.1418  0.7876  0.4345
 2630SOL     OW17928   2.964   1.056   1.002  0.9502 -0.3006 -0.7960
 2630SOL    HW117929   3.019   1.138   0.985  1.1837 -0.0939  0.8727
 2630SOL    HW217930   2.934   1.017   0.914  1.1587  1.3357 -1.6098
 2631SOL     OW17931   1.632  10.350   1.925  0.1027  0.5374 -0.3324
 2631SOL    HW117932   1.617  10.394   2.014  0.5806  2.3766 -1.1225
 2631SOL    HW217933   1.730  10.351   1.905  0.0225 -0.1412 -0.7514
 2632SOL     OW17934   2.843   1.327   0.627 -0.6964 -0.1088 -0.3304
 2632SOL    HW117935   2.932   1.286   0.648 -0.3725  0.3687 -0.7357
 2632SOL    HW217936   2.814   1.384   0.704  0.1812  1.1256 -0.8881
 2633SOL     OW17937   4.921   3.336   1.478  0.7829  0.3709  0.0969
 2633SOL    HW117938   4.902   3.247   1.436 -2.1397  1.5174 -1.0777
 2633SOL    HW217939   4.964   3.396   1.410 -0.5923  1.0285 -0.2062
 2634SOL     OW17940   9.498   3.320   1.525 -0.4056 -0.6128  0.5229
 2634SOL    HW117941   9.412   3.344   1.479 -0.9027 -1.5285  0.9408
 2634SOL    HW217942   9.503   3.369   1.612 -0.7271 -0.9051  0.7086
 2635SOL     OW17943   4.244   8.698   0.968 -0.1217 -0.7561  0.0348
 2635SOL    HW117944   4.175   8.732   0.903 -0.5440 -1.3736  0.1568
 2635SOL    HW217945   4.279   8.775   1.022 -1.0359 -0.4973  0.2723
 2636SOL     OW17946  10.340   4.922   0.692 -0.0299 -0.0807  0.1662
 2636SOL    HW117947  10.345   4.907   0.594 -0.2436 -1.2244  0.3199
 2636SOL    HW217948  10.419   4.976   0.722  0.1185  0.1294 -0.6037
 2637SOL     OW17949   2.796   0.980   0.163  0.1224 -0.0895 -0.3799
 2637SOL    HW117950   2.777   1.076   0.140 -0.2403 -0.2866 -0.9193
 2637SOL    HW217951   2.892   0.970   0.186 -0.4374  0.9866  2.6756
 2638SOL     OW17952   3.146   1.348   1.961  0.4788 -0.1509  0.5427
 2638SOL    HW117953   3.213   1.385   2.025  0.3524  2.1958 -0.6042
 2638SOL    HW217954   3.178   1.362   1.867  0.2065 -2.6385  0.0616
 2639SOL     OW17955   4.584  10.406   1.538  0.6414 -0.2078  0.2459
 2639SOL    HW117956   4.615  10.421   1.444 -2.4895 -1.1626 -1.0258
 2639SOL    HW217957   4.596  10.489   1.591  2.0104  0.4981 -1.1389
 2640SOL     OW17958   2.060   4.178   2.070 -0.5568 -0.2981 -0.5761
 2640SOL    HW117959   2.071   4.278   2.068  1.4596 -0.4717  0.5892
 2640SOL    HW217960   2.141   4.136   2.111 -2.0190 -2.3308  0.3360
 2641SOL     OW17961   2.373   5.059   2.699  0.5111  0.6962  0.0761
 2641SOL    HW117962   2.460   5.047   2.747  1.0881 -0.0484 -1.1463
 2641SOL    HW217963   2.390   5.069   2.601 -0.7655  0.8047 -0.1404
 2642SOL     OW17964   3.303   9.821   0.842 -0.4262  0.5404 -0.0619
 2642SOL    HW117965   3.298   9.754   0.917  2.4147  2.0521  1.5593
 2642SOL    HW217966   3.357   9.782   0.768  0.3243  0.6166  0.4370
 2643SOL     OW17967  10.452   4.562   0.707  0.3425  0.0565 -0.2188
 2643SOL    HW117968  10.519   4.614   0.761  1.1316 -1.0322 -0.1270
 2643SOL    HW217969  10.383   4.524   0.768  0.1706  0.3963 -0.2008
 2644SOL     OW17970   4.255   3.997   1.228  0.0313  0.0050 -0.0788
 2644SOL    HW117971   4.192   4.018   1.303 -0.1185  1.2603 -0.5443
 2644SOL    HW217972   4.349   4.012   1.258 -0.0193  0.2904 -0.0536
 2645SOL     OW17973   2.899  10.547   2.303  0.3312 -0.4664  0.2539
 2645SOL    HW117974   2.876  10.526   2.398  0.5096 -0.7843  0.2269
 2645SOL    HW217975   2.829  10.608   2.264  0.8582  0.5832  0.9357
 2646SOL     OW17976   3.277  10.657   0.781 -0.2907  0.0801 -0.6040
 2646SOL    HW117977   3.227  10.709   0.849 -0.0643  2.4363 -2.1658
 2646SOL    HW217978   3.217  10.635   0.704  0.3504  0.6391 -1.2850
 2647SOL     OW17979   1.054   3.197   1.122 -0.1883  1.0384 -0.2279
 2647SOL    HW117980   0.998   3.254   1.182 -2.7369 -0.5957 -1.0098
 2647SOL    HW217981   1.063   3.105   1.160 -1.0194  0.2651 -1.8186
 2648SOL     OW17982   4.248   1.737   2.564  0.4447  0.2116  0.0932
 2648SOL    HW117983   4.334   1.714   2.609  1.4662  2.3863 -0.6815
 2648SOL    HW217984   4.246   1.835   2.544 -2.1878  0.1820  0.0336
 2649SOL     OW17985   3.456   9.293   1.552 -0.7488  0.1011  0.5843
 2649SOL    HW117986   3.421   9.263   1.641 -0.5125 -0.0466  0.6265
 2649SOL    HW217987   3.387   9.349   1.507 -1.0899 -0.2859  0.6190
 2650SOL     OW17988   2.525   5.636   1.332 -0.3193  0.4020 -0.2741
 2650SOL    HW117989   2.508   5.575   1.255  0.3744  0.6726 -0.6513
 2650SOL    HW217990   2.562   5.583   1.409 -2.4785 -0.1227  0.4235
 2651SOL     OW17991   2.171   7.072   0.794  0.3753 -0.1160 -0.4903
 2651SOL    HW117992   2.124   7.158   0.772 -1.3506 -0.9410 -0.1811
 2651SOL    HW217993   2.179   7.062   0.893  1.2383  0.0268 -0.5435
 2652SOL     OW17994  10.378   6.080   0.899  0.3575  0.3617  0.2591
 2652SOL    HW117995  10.461   6.044   0.942  0.1672 -0.5081 -0.0897
 2652SOL    HW217996  10.328   6.136   0.965 -0.2498 -1.4674  1.3689
 2653SOL     OW17997   3.073   4.714   1.568  0.3489  0.2333 -0.6078
 2653SOL    HW117998   3.020   4.752   1.643  0.7753 -0.9924  0.3310
 2653SOL    HW217999   3.146   4.777   1.542 -0.6923  1.2984 -0.9719
 2654SOL     OW18000   9.967   6.369   1.045  0.2142 -0.0518 -0.7598
 2654SOL    HW118001   9.981   6.282   0.997  1.7943 -0.3748  0.2426
 2654SOL    HW218002   9.967   6.444   0.978  0.6599 -0.6480 -1.4428
 2655SOL     OW18003   3.512   4.579   0.685  0.2571 -1.0397  0.1468
 2655SOL    HW118004   3.600   4.550   0.649  1.2306  0.6579  1.1389
 2655SOL    HW218005   3.485   4.519   0.761 -0.3461 -2.6994 -1.3353
 2656SOL     OW18006   1.064   3.500   0.539  0.1593  0.0425  0.0743
 2656SOL    HW118007   1.005   3.479   0.617  1.1220 -1.2852  0.4564
 2656SOL    HW218008   1.154   3.530   0.572  0.9112 -1.5033 -0.5033
 2657SOL     OW18009   1.809  10.371   1.453 -0.2022  0.1824 -0.0096
 2657SOL    HW118010   1.731  10.383   1.516  1.1437  0.5886  1.6335
 2657SOL    HW218011   1.776  10.338   1.365 -2.3249  1.0728  0.4130
 2658SOL     OW18012   1.495   4.995   1.250  0.1623 -0.3256 -0.4173
 2658SOL    HW118013   1.528   5.035   1.336 -1.7295  0.4367 -0.0198
 2658SOL    HW218014   1.500   5.063   1.178  0.9531 -0.7054 -0.7237
 2659SOL     OW18015   2.865   9.592   1.515 -0.2643  0.1826 -0.2054
 2659SOL    HW118016   2.770   9.602   1.545 -0.8155 -2.4702 -0.9302
 2659SOL    HW218017   2.866   9.550   1.424  1.6116  0.6044 -0.3950
 2660SOL     OW18018   3.373   9.414   1.163 -0.5422  0.2736  0.0279
 2660SOL    HW118019   3.456   9.452   1.203  0.4314 -2.3412  0.5876
 2660SOL    HW218020   3.396   9.365   1.078 -1.2997 -1.4704  0.8052
 2661SOL     OW18021   1.116   9.298   1.757  0.4154  0.1430  0.1368
 2661SOL    HW118022   1.043   9.318   1.822  0.1918 -1.0907  0.2751
 2661SOL    HW218023   1.091   9.333   1.667  0.2090  0.8280  0.4609
 2662SOL     OW18024   4.201   1.665   0.213 -0.3716 -0.2439  0.1274
 2662SOL    HW118025   4.185   1.624   0.303  0.1888 -0.1222  0.2838
 2662SOL    HW218026   4.261   1.745   0.223 -0.4658 -0.1143 -0.3289
 2663SOL     OW18027   3.621   0.774   2.422  0.5116 -0.3928  0.4618
 2663SOL    HW118028   3.563   0.854   2.409  2.0508  0.2674 -2.7080
 2663SOL    HW218029   3.601   0.706   2.351  1.8651 -1.2009  0.8340
 2664SOL     OW18030   9.864   2.400   2.634 -0.2961 -0.4934 -0.4485
 2664SOL    HW118031   9.878   2.393   2.535  1.2573 -2.0038 -0.1489
 2664SOL    HW218032   9.785   2.345   2.661 -0.2858 -0.6610 -0.7549
 2665SOL     OW18033   2.096   9.801   0.575 -0.0169  0.2361  0.2547
 2665SOL    HW118034   2.073   9.704   0.584  1.8047 -0.2732 -0.3007
 2665SOL    HW218035   2.012   9.855   0.572 -1.1788 -1.5774 -2.2090
 2666SOL     OW18036   2.205   3.984   2.378 -0.3807  0.2333  0.4384
 2666SOL    HW118037   2.248   4.031   2.301  0.9511 -0.6603  0.6176
 2666SOL    HW218038   2.174   4.051   2.445 -1.4154  1.0074 -0.8029
 2667SOL     OW18039   1.579  10.698   0.181 -0.7255  0.0795 -0.8513
 2667SOL    HW118040   1.484  10.714   0.208 -0.5390  1.0787 -0.7911
 2667SOL    HW218041   1.595  10.599   0.174 -1.7271 -0.0956 -0.7291
 2668SOL     OW18042   3.537   4.335   0.869  0.0842  0.0526  0.1769
 2668SOL    HW118043   3.596   4.332   0.789  0.8432  1.3944  0.6877
 2668SOL    HW218044   3.532   4.243   0.910 -2.5668 -1.3448 -3.0072
 2669SOL     OW18045   2.085   9.475   2.387  0.2184 -0.4575  0.1220
 2669SOL    HW118046   2.071   9.380   2.416 -0.8347  0.1009  1.4850
 2669SOL    HW218047   2.153   9.518   2.446 -0.9437  0.2939  0.9112
 2670SOL     OW18048   2.518   5.580   1.807  0.2237 -0.2625  0.1684
 2670SOL    HW118049   2.535   5.586   1.906  0.0416  2.5789  0.0705
 2670SOL    HW218050   2.603   5.560   1.759  0.6549  0.1888  0.7468
 2671SOL     OW18051   2.319   3.960   0.479  0.2109  0.3559 -0.0159
 2671SOL    HW118052   2.390   3.980   0.412  1.3342  1.4599  1.4685
 2671SOL    HW218053   2.278   4.046   0.511 -0.9912 -0.2081  0.0014
 2672SOL     OW18054   2.868   2.148   1.670  0.1817 -0.1299  0.0133
 2672SOL    HW118055   2.902   2.113   1.583 -0.0083  0.3173 -0.2397
 2672SOL    HW218056   2.855   2.247   1.664 -0.2089 -0.1552  0.4249
 2673SOL     OW18057   8.926   2.584   1.146 -0.5160 -0.2557 -0.1527
 2673SOL    HW118058   8.975   2.545   1.067 -0.9674 -0.2781 -0.4209
 2673SOL    HW218059   8.856   2.647   1.114  0.1550  0.7218  0.2771
 2674SOL     OW18060   2.420   1.790   1.686  0.2018 -0.2473 -0.0665
 2674SOL    HW118061   2.388   1.699   1.713  0.6585 -0.1145  0.9038
 2674SOL    HW218062   2.407   1.801   1.587 -1.3577 -0.7678  0.0550
 2675SOL     OW18063  10.319   1.580   1.711  0.6587 -0.3101 -0.0882
 2675SOL    HW118064  10.315   1.585   1.611  2.2992 -2.8726 -0.3092
 2675SOL    HW218065  10.241   1.528   1.745 -0.3590  1.2639  0.0717
 2676SOL     OW18066   9.480   3.292   2.680  0.4301 -0.6118  0.3557
 2676SOL    HW118067   9.474   3.241   2.595 -0.8954 -0.5478  0.4005
 2676SOL    HW218068   9.562   3.264   2.731  1.3689 -0.4601 -1.0490
 2677SOL     OW18069   4.335   8.310   0.689 -0.0484  0.0425 -0.1097
 2677SOL    HW118070   4.424   8.356   0.690  0.5166 -1.0358  1.4761
 2677SOL    HW218071   4.332   8.245   0.613  0.3875  0.3096 -0.3583
 2678SOL     OW18072   3.497   5.169   2.652  0.3088  0.2071 -0.0418
 2678SOL    HW118073   3.590   5.199   2.628  0.2800  0.0517 -0.3448
 2678SOL    HW218074   3.472   5.209   2.740  0.7285  0.1142  0.1241
 2679SOL     OW18075   4.411   2.866   2.368 -0.2842  0.3871 -0.4084
 2679SOL    HW118076   4.456   2.954   2.383 -0.3409  0.4466 -0.5887
 2679SOL    HW218077   4.461   2.794   2.417 -0.1734  0.5026 -0.3533
 2680SOL     OW18078   9.992   4.427   0.385 -0.4506 -0.4447  0.0664
 2680SOL    HW118079   9.958   4.333   0.392 -2.8455  0.2700 -1.3918
 2680SOL    HW218080  10.051   4.435   0.305  1.2933 -1.1233  1.2531
 2681SOL     OW18081   4.337   5.675   0.511 -0.2551 -0.3147 -0.7695
 2681SOL    HW118082   4.374   5.670   0.604  1.1891  0.3095 -1.2965
 2681SOL    HW218083   4.320   5.582   0.477 -0.5023 -0.5570 -0.0050
 2682SOL     OW18084   2.937   8.435   1.655 -0.0941 -0.3035 -0.0642
 2682SOL    HW118085   2.883   8.389   1.725  1.9047 -1.3450  0.8373
 2682SOL    HW218086   2.954   8.373   1.579  0.6309 -0.3141  0.0970
 2683SOL     OW18087   0.938   2.808   1.438  0.2924 -0.3957  0.1408
 2683SOL    HW118088   0.909   2.717   1.407 -1.1917 -0.0205  0.4194
 2683SOL    HW218089   0.864   2.852   1.487  1.7921  0.0454  2.0710
 2684SOL     OW18090   1.751   7.141   0.214 -0.4479  0.2323 -0.0305
 2684SOL    HW118091   1.784   7.104   0.127  0.3846 -0.2594  0.4874
 2684SOL    HW218092   1.671   7.199   0.198 -0.7091 -0.4052 -1.0441
 2685SOL     OW18093   2.502   4.626   1.006 -0.3531 -0.4432 -0.2115
 2685SOL    HW118094   2.484   4.701   0.942 -0.8802  0.6415  1.1803
 2685SOL    HW218095   2.571   4.565   0.967 -1.3077 -0.2996 -2.1909
 2686SOL     OW18096   2.996   4.797   1.181 -0.1028 -0.1223  0.7876
 2686SOL    HW118097   3.004   4.700   1.205  0.1244 -1.3290 -3.6988
 2686SOL    HW218098   3.086   4.840   1.185  0.4532 -1.0884 -0.8861
 2687SOL     OW18099   3.167   4.237   0.172  0.0534  0.4076 -0.6746
 2687SOL    HW118100   3.080   4.197   0.202  0.5219 -0.3325 -0.2838
 2687SOL    HW218101   3.203   4.296   0.244  0.8164 -0.7937 -0.0594
 2688SOL     OW18102   2.705   3.023   2.019 -0.2250 -0.2355  0.4957
 2688SOL    HW118103   2.662   3.085   2.086  2.6463  3.4979 -0.9641
 2688SOL    HW218104   2.791   2.989   2.056 -0.3964 -1.0738  0.1284
 2689SOL     OW18105  10.145   4.613   1.819 -0.4119 -0.0518 -0.6246
 2689SOL    HW118106  10.243   4.602   1.831 -0.3579  0.5354 -0.4818
 2689SOL    HW218107  10.122   4.608   1.722 -0.2096  0.0503 -0.6778
 2690SOL     OW18108   2.335   7.056   2.164  0.8637 -0.1311 -0.3193
 2690SOL    HW118109   2.295   7.102   2.084 -0.1692 -1.4921 -0.6149
 2690SOL    HW218110   2.274   7.068   2.242  0.5778 -1.0072 -0.4058
 2691SOL     OW18111   1.502   4.501   0.448  0.4792 -0.0579 -0.4563
 2691SOL    HW118112   1.553   4.415   0.441  1.7837  0.6477  0.1795
 2691SOL    HW218113   1.543   4.569   0.387  0.5395  0.6323  0.3462
 2692SOL     OW18114   2.255   1.407   0.477 -0.1221 -0.3135  0.7728
 2692SOL    HW118115   2.324   1.343   0.442  1.1234 -0.0196  2.6087
 2692SOL    HW218116   2.274   1.498   0.442 -0.7821 -0.5972 -0.3385
 2693SOL     OW18117   2.131   4.069   0.925  0.1244 -0.2420  0.4661
 2693SOL    HW118118   2.103   4.164   0.930 -0.6640 -0.4869  0.7662
 2693SOL    HW218119   2.230   4.062   0.938  0.1615  0.5184  0.5759
 2694SOL     OW18120   9.701   6.149   0.453 -0.3810 -0.6894  0.0425
 2694SOL    HW118121   9.717   6.192   0.365 -0.4163 -0.5152  0.1206
 2694SOL    HW218122   9.619   6.188   0.495  0.2068 -0.0336  0.6088
 2695SOL     OW18123   4.123   9.128   0.700  0.3786  0.4914 -0.0082
 2695SOL    HW118124   4.220   9.104   0.696 -0.0897 -1.2640 -1.8202
 2695SOL    HW218125   4.070   9.048   0.729 -0.7907  0.6464 -1.6717
 2696SOL     OW18126   4.106   2.806   1.713 -0.2447  0.4862 -0.2348
 2696SOL    HW118127   4.097   2.890   1.659 -0.2966 -0.1872 -1.2890
 2696SOL    HW218128   4.016   2.766   1.729 -0.1442  0.1554 -0.4957
 2697SOL     OW18129   1.692   5.541   0.321 -0.0920 -0.4142 -0.5237
 2697SOL    HW118130   1.598   5.509   0.325  0.3218 -1.7100 -0.9590
 2697SOL    HW218131   1.735   5.509   0.237 -0.1072  2.5545 -1.7131
 2698SOL     OW18132   2.629   2.701   2.355 -0.1134  0.0509 -0.5580
 2698SOL    HW118133   2.679   2.657   2.280  0.7732 -0.7313  0.4889
 2698SOL    HW218134   2.654   2.797   2.360 -1.1419  0.4197 -2.0775
 2699SOL     OW18135   2.273   4.631   1.179 -0.0784  0.1005 -0.0101
 2699SOL    HW118136   2.352   4.618   1.119  0.2782 -0.5660  0.6029
 2699SOL    HW218137   2.198   4.671   1.126  0.6642  0.7513 -0.5953
 2700SOL     OW18138   1.340   8.011   1.054 -0.3196 -0.4644  0.2907
 2700SOL    HW118139   1.393   7.928   1.073 -1.8077 -1.1293  1.6286
 2700SOL    HW218140   1.263   8.016   1.117 -1.0705  1.2010 -0.7420
 2701SOL     OW18141   9.577   5.621   1.167  0.4288  0.1297 -0.4333
 2701SOL    HW118142   9.615   5.598   1.078  1.4415 -0.1319  0.0589
 2701SOL    HW218143   9.628   5.698   1.206 -0.3675  0.6078 -0.3228
 2702SOL     OW18144   1.323   6.326   2.193 -0.1754 -0.0238 -0.3095
 2702SOL    HW118145   1.243   6.268   2.177 -0.8044  0.8770 -0.5251
 2702SOL    HW218146   1.310   6.377   2.278  0.5691 -0.5166  0.1056
 2703SOL     OW18147   3.596   2.345   1.219 -0.7465 -0.4235 -0.3161
 2703SOL    HW118148   3.642   2.307   1.300 -1.5429 -1.1617 -0.2018
 2703SOL    HW218149   3.535   2.419   1.247  0.3971  0.6001 -0.4748
 2704SOL     OW18150   3.901   1.211   2.415  0.1742 -0.1674 -0.4593
 2704SOL    HW118151   3.907   1.146   2.490 -1.1790  0.5240  0.2707
 2704SOL    HW218152   3.993   1.241   2.388  0.6254  0.3039  1.5598
 2705SOL     OW18153  10.524   4.337   1.699  0.2502  0.1864  0.1614
 2705SOL    HW118154  10.556   4.327   1.604 -0.8845 -0.2345 -0.1800
 2705SOL    HW218155  10.452   4.271   1.717 -0.1146  0.8260  1.0778
 2706SOL     OW18156   2.516   1.346   1.579  0.1305 -0.7050 -0.0982
 2706SOL    HW118157   2.571   1.345   1.662 -0.3983  1.2286  0.2986
 2706SOL    HW218158   2.448   1.272   1.582  1.1249 -1.6118  0.4645
 2707SOL     OW18159   2.402   9.274   1.145 -0.5017  0.8136 -0.5486
 2707SOL    HW118160   2.376   9.256   1.051 -1.0204  0.3148 -0.3158
 2707SOL    HW218161   2.500   9.292   1.150 -0.2887 -0.1484 -1.0476
 2708SOL     OW18162   4.238   3.632   1.979  0.6606  0.2499  0.0132
 2708SOL    HW118163   4.308   3.704   1.978  0.0107  0.9202  1.5134
 2708SOL    HW218164   4.217   3.607   2.074  0.5650 -1.6237 -0.4811
 2709SOL     OW18165   3.870   3.750   0.134 -0.6259 -0.1620 -0.0254
 2709SOL    HW118166   3.889   3.834   0.186  0.3092 -0.7041  0.5204
 2709SOL    HW218167   3.790   3.705   0.174 -0.6560  0.0590  0.1685
 2710SOL     OW18168   2.295   7.788   1.054 -0.2963 -0.3165  0.1963
 2710SOL    HW118169   2.358   7.714   1.031 -0.9479 -1.2392  1.3025
 2710SOL    HW218170   2.221   7.752   1.111  0.2139  1.4904  2.0474
 2711SOL     OW18171   1.168   8.916   1.581  0.6601 -0.1154 -0.4673
 2711SOL    HW118172   1.102   8.946   1.512  0.3983  0.8202  0.1920
 2711SOL    HW218173   1.120   8.893   1.666  0.9457 -1.6133 -0.6991
 2712SOL     OW18174   3.143   7.206   0.478  0.0937 -0.2329  0.1338
 2712SOL    HW118175   3.197   7.152   0.414  0.5011  0.2193  0.0928
 2712SOL    HW218176   3.092   7.145   0.538  1.5280 -0.6911  0.9233
 2713SOL     OW18177   3.321   3.972   2.380 -0.5998 -0.1052 -0.4512
 2713SOL    HW118178   3.237   3.980   2.433 -0.9650 -0.0662 -1.0325
 2713SOL    HW218179   3.399   3.960   2.442 -0.7681  1.9582  0.1768
 2714SOL     OW18180   0.665   5.059   2.301  0.3928 -0.2676 -0.3891
 2714SOL    HW118181   0.666   4.993   2.376 -0.2389  0.1831  0.0237
 2714SOL    HW218182   0.601   5.133   2.323 -2.7007 -2.0255 -2.9674
 2715SOL     OW18183   4.390   8.767   2.432 -0.3172  0.4252 -0.3067
 2715SOL    HW118184   4.305   8.714   2.439  0.0365 -0.0898  0.0786
 2715SOL    HW218185   4.418   8.797   2.523  0.0761  0.3504 -0.4034
 2716SOL     OW18186   1.626   4.997   2.183  0.1964  0.5074  0.3526
 2716SOL    HW118187   1.650   5.025   2.275 -0.5176  0.5116  0.5407
 2716SOL    HW218188   1.527   5.001   2.171  0.2134 -0.3546 -0.1319
 2717SOL     OW18189   1.667   6.346   0.947 -0.2159  0.2536  0.5972
 2717SOL    HW118190   1.680   6.254   0.910  0.1693  0.3301  0.5448
 2717SOL    HW218191   1.572   6.374   0.933 -0.7949 -0.8576  2.2536
 2718SOL     OW18192   9.790   5.546   0.154 -0.0584 -0.0291 -0.5013
 2718SOL    HW118193   9.787   5.454   0.115  2.3096 -1.0627  1.6447
 2718SOL    HW218194   9.711   5.559   0.213  0.2847 -1.1716  0.2179
 2719SOL     OW18195   4.077   1.774   1.706 -0.4126 -1.0728 -0.2322
 2719SOL    HW118196   4.103   1.680   1.727 -0.1971 -0.4017  2.7349
 2719SOL    HW218197   4.033   1.816   1.786  0.6795  1.7613 -1.0349
 2720SOL     OW18198   3.853  10.206   0.353  0.0582 -0.1199 -0.0637
 2720SOL    HW118199   3.948  10.173   0.355  0.1330  0.0191 -1.0498
 2720SOL    HW218200   3.850  10.296   0.310 -0.3623  0.4463  1.1436
 2721SOL     OW18201   3.882   1.637   2.549  0.1397  1.0558  0.3531
 2721SOL    HW118202   3.923   1.706   2.490 -0.1425  0.9013 -0.0215
 2721SOL    HW218203   3.947   1.614   2.622  0.2536  1.6780  0.4524
 2722SOL     OW18204   8.930   3.405   1.621  0.2410 -0.1171  0.6804
 2722SOL    HW118205   9.017   3.363   1.646  2.3540  1.0663 -4.0552
 2722SOL    HW218206   8.868   3.335   1.586  0.2797 -0.5668  1.4995
 2723SOL     OW18207   4.891   2.770   1.470 -0.0454 -0.6997  0.1339
 2723SOL    HW118208   4.944   2.779   1.386 -0.5116  1.0883  0.0064
 2723SOL    HW218209   4.795   2.755   1.447  0.0546 -1.7550  0.3668
 2724SOL     OW18210   2.644   4.179   0.125  0.5488  0.0071  0.0200
 2724SOL    HW118211   2.713   4.250   0.112  0.8817 -0.4201 -0.5640
 2724SOL    HW218212   2.651   4.111   0.052 -0.4005 -0.1127  0.0263
 2725SOL     OW18213   3.642   3.772   1.438  0.4486 -0.0836  0.2050
 2725SOL    HW118214   3.609   3.681   1.464 -0.2012 -0.0105 -0.3332
 2725SOL    HW218215   3.598   3.799   1.352  0.3042  0.9274  0.5989
 2726SOL     OW18216   2.827   5.398   2.046 -0.0742  0.2565 -0.0287
 2726SOL    HW118217   2.874   5.339   2.111 -0.4206  1.4281  1.3214
 2726SOL    HW218218   2.760   5.344   1.994 -0.3675 -0.5552  1.1624
 2727SOL     OW18219   1.705   1.263   2.694 -0.1305  0.0168  0.2087
 2727SOL    HW118220   1.683   1.175   2.652 -2.4250  1.3277 -1.4764
 2727SOL    HW218221   1.770   1.313   2.637  1.0589 -0.5139  1.0894
 2728SOL     OW18222  10.032   3.072   2.331  0.1121 -0.2516  0.2731
 2728SOL    HW118223  10.003   2.997   2.272 -0.7096 -0.7320  1.2694
 2728SOL    HW218224  10.116   3.046   2.379  0.8481  0.1844 -0.7480
 2729SOL     OW18225   1.568   5.764   1.405  0.0984 -0.3075  0.4194
 2729SOL    HW118226   1.592   5.810   1.319  1.3404 -1.5554  0.0823
 2729SOL    HW218227   1.472   5.783   1.427 -0.2013  0.1229 -1.1717
 2730SOL     OW18228   4.900   4.003   1.613  0.1483 -0.1085  0.4704
 2730SOL    HW118229   4.972   3.974   1.675  0.7663  2.0616  0.8217
 2730SOL    HW218230   4.863   4.091   1.643 -1.8852 -0.6374 -0.3418
 2731SOL     OW18231   3.290   3.284   1.381 -0.2860 -0.1481 -0.2699
 2731SOL    HW118232   3.302   3.303   1.479 -0.2281  1.7300 -0.6199
 2731SOL    HW218233   3.375   3.303   1.333  0.2580 -2.8807 -0.4517
 2732SOL     OW18234   4.586   3.521   2.504  0.5069 -0.1274  0.2216
 2732SOL    HW118235   4.523   3.561   2.438  1.3291 -0.1887 -0.6077
 2732SOL    HW218236   4.678   3.556   2.488  1.2830 -2.4845 -0.6360
 2733SOL     OW18237   1.609   4.357   1.550 -0.5270 -0.1136 -0.0087
 2733SOL    HW118238   1.647   4.300   1.623  0.0899 -0.5140 -0.6303
 2733SOL    HW218239   1.614   4.453   1.576  0.5241 -0.1931  0.1053
 2734SOL     OW18240   3.431   7.817   2.024  0.4812 -0.3407  0.0350
 2734SOL    HW118241   3.488   7.825   2.106 -0.1378 -0.9700  0.5375
 2734SOL    HW218242   3.355   7.756   2.043  0.3961 -0.5814 -1.0530
 2735SOL     OW18243   3.066   1.728   1.703  0.3734  0.4284 -0.2093
 2735SOL    HW118244   3.029   1.804   1.757  0.0749 -0.6936  1.1987
 2735SOL    HW218245   3.148   1.693   1.748  1.1823  0.6745 -1.4870
 2736SOL     OW18246  10.506   4.558   1.263 -0.0771 -0.6720 -0.2441
 2736SOL    HW118247  10.522   4.562   1.164  2.8358 -1.2033  0.1842
 2736SOL    HW218248  10.546   4.475   1.300  1.4704  0.9715  1.8401
 2737SOL     OW18249   1.492   5.558   0.875  0.0367  0.5163 -0.0768
 2737SOL    HW118250   1.455   5.605   0.954 -0.2480  0.9482 -0.4663
 2737SOL    HW218251   1.533   5.625   0.812 -1.1980  0.3397 -1.0765
 2738SOL     OW18252   1.762   8.671   0.700  0.3474 -0.2080 -0.7034
 2738SOL    HW118253   1.739   8.643   0.793  0.3662 -3.1700 -1.5366
 2738SOL    HW218254   1.678   8.696   0.651  0.3436  1.3949  0.0764
 2739SOL     OW18255   4.015  10.456   1.016  0.1584  0.2030  0.2392
 2739SOL    HW118256   3.966  10.408   1.089 -0.1416 -1.9430 -1.3060
 2739SOL    HW218257   4.114  10.445   1.029  0.0968 -0.5359  0.1064
 2740SOL     OW18258   2.880   9.625   0.190 -0.3133  0.4055 -0.2273
 2740SOL    HW118259   2.816   9.702   0.187  0.3902  1.0150  0.0958
 2740SOL    HW218260   2.895   9.590   0.098 -0.8076  0.5164 -0.3489
 2741SOL     OW18261   4.050   8.961   2.095 -0.1321  0.5601 -0.0474
 2741SOL    HW118262   4.042   9.033   2.165  1.2627  2.4724 -1.7807
 2741SOL    HW218263   4.118   8.989   2.026  0.4178 -2.4364 -0.7907
 2742SOL     OW18264   4.215   4.788   2.362  0.3905  0.3766 -0.2993
 2742SOL    HW118265   4.140   4.851   2.344  0.0065 -0.0110 -0.0815
 2742SOL    HW218266   4.224   4.775   2.461 -0.5474 -1.0989 -0.3889
 2743SOL     OW18267   3.867   8.638   0.616  0.3736 -0.0216 -0.2439
 2743SOL    HW118268   3.959   8.623   0.581  1.5536  0.8548  2.3657
 2743SOL    HW218269   3.827   8.551   0.644  0.4325 -0.3870 -1.2660
 2744SOL     OW18270   9.572   2.051   1.028  0.2207  0.4006  0.3822
 2744SOL    HW118271   9.557   1.953   1.042 -2.1053  0.8473  1.1906
 2744SOL    HW218272   9.554   2.074   0.932  0.8062  0.0485  0.1823
 2745SOL     OW18273   3.573   9.032   0.930 -0.1924  0.5573 -0.3962
 2745SOL    HW118274   3.564   8.981   1.016 -0.1734 -0.3443 -0.9160
 2745SOL    HW218275   3.642   8.987   0.873 -0.9194  0.5754 -1.2889
 2746SOL     OW18276   2.172   6.791   1.214 -0.3859  0.4504 -0.4404
 2746SOL    HW118277   2.182   6.880   1.259 -0.2040  0.1884  0.0390
 2746SOL    HW218278   2.086   6.748   1.244 -0.3699  0.3728 -0.5052
 2747SOL     OW18279   2.320   9.360   0.180 -0.2970 -0.0882 -0.6360
 2747SOL    HW118280   2.328   9.265   0.152 -0.5670  0.0069 -1.0496
 2747SOL    HW218281   2.409   9.395   0.208 -0.1368 -0.3648 -0.8012
 2748SOL     OW18282   4.048  10.188   2.008  0.8397  0.0269  0.2454
 2748SOL    HW118283   4.082  10.197   1.914 -2.3522 -2.5936 -1.2454
 2748SOL    HW218284   4.064  10.095   2.040 -1.0545 -0.0318  1.0742
 2749SOL     OW18285   4.222   3.065   1.265 -0.1392 -0.3187 -0.1219
 2749SOL    HW118286   4.249   3.158   1.291 -1.4993 -0.0157  0.2215
 2749SOL    HW218287   4.292   3.001   1.297  1.0656  0.6162 -0.7868
 2750SOL     OW18288   2.572   6.492   1.737 -0.1266  0.7737  0.4799
 2750SOL    HW118289   2.491   6.510   1.793 -0.5140  0.7092 -0.0643
 2750SOL    HW218290   2.544   6.465   1.645  0.5126  0.7893  0.2805
 2751SOL     OW18291   3.776   2.249   0.780  0.1532  0.5151 -0.2923
 2751SOL    HW118292   3.685   2.284   0.803 -0.6591 -2.4154  1.1404
 2751SOL    HW218293   3.833   2.325   0.749 -1.9027  2.8906  1.4706
 2752SOL     OW18294   1.215   5.770   2.043 -0.8787  0.0213 -0.0752
 2752SOL    HW118295   1.194   5.672   2.047  0.2290 -0.1489  2.5838
 2752SOL    HW218296   1.132   5.823   2.056 -1.4103 -0.5525 -1.0564
 2753SOL     OW18297   3.529   8.726   1.782  0.1936  0.4395 -0.4631
 2753SOL    HW118298   3.593   8.771   1.719 -1.2507  0.9495 -1.5877
 2753SOL    HW218299   3.438   8.723   1.741 -0.6367  0.1877  1.3467
 2754SOL     OW18300   2.601  10.151   1.273 -0.3232  0.4867 -0.6328
 2754SOL    HW118301   2.613  10.092   1.194  0.7518  0.6056 -0.5719
 2754SOL    HW218302   2.655  10.115   1.350  0.2750  1.4810 -0.5756
 2755SOL     OW18303   4.919   3.460   0.733  0.0203 -0.5526 -0.3823
 2755SOL    HW118304   4.843   3.418   0.683 -1.8765  1.1800  0.9366
 2755SOL    HW218305   4.889   3.482   0.826  1.8621  0.9671 -0.1259
 2756SOL     OW18306   1.459   9.494   1.026 -0.0583  0.0198  0.0879
 2756SOL    HW118307   1.410   9.407   1.025 -1.3166  0.7125 -0.7005
 2756SOL    HW218308   1.412   9.558   1.086 -0.7777  1.0350 -1.5064
 2757SOL     OW18309   3.087   6.665   2.147 -0.5362  0.4784 -0.1882
 2757SOL    HW118310   3.105   6.598   2.075 -1.2111  1.3385 -1.1621
 2757SOL    HW218311   3.130   6.752   2.124 -1.2571  0.9352  0.1586
 2758SOL     OW18312   2.936   0.947   0.751  0.3365 -0.0977  0.0412
 2758SOL    HW118313   2.862   0.911   0.694  0.1405 -0.1264  0.3161
 2758SOL    HW218314   3.013   0.972   0.693  0.0635  0.0532 -0.2594
 2759SOL     OW18315   0.913   5.615   2.183 -0.8372 -0.0672  0.1984
 2759SOL    HW118316   0.817   5.604   2.207 -0.6789 -0.7596  0.5150
 2759SOL    HW218317   0.951   5.692   2.235 -0.4346 -1.6987  2.3867
 2760SOL     OW18318   9.740   1.709   0.159 -0.4188  0.3732  0.1610
 2760SOL    HW118319   9.791   1.687   0.242 -1.6637 -1.6267  0.4196
 2760SOL    HW218320   9.776   1.655   0.083 -0.0569  1.3371 -0.3664
 2761SOL     OW18321   4.042   3.806   0.401  0.0958 -0.2476 -1.2229
 2761SOL    HW118322   3.998   3.880   0.351 -0.5430  0.7192  0.7322
 2761SOL    HW218323   4.141   3.813   0.389  0.0415  0.9474 -0.9953
 2762SOL     OW18324   1.990  10.254   1.664  0.3520  0.4804 -0.3818
 2762SOL    HW118325   2.078  10.213   1.642  0.9771  1.4053  0.3773
 2762SOL    HW218326   1.941  10.276   1.579  1.0615  0.4211 -0.8059
 2763SOL     OW18327   2.391   9.339   0.708 -0.1647  0.2960 -0.5215
 2763SOL    HW118328   2.415   9.265   0.772 -0.5267  0.2224 -0.4720
 2763SOL    HW218329   2.470   9.358   0.650  0.5112  1.0557  0.6244
 2764SOL     OW18330   2.597   1.162   2.110 -0.1387  0.1927  0.0561
 2764SOL    HW118331   2.534   1.137   2.038  1.8637 -1.7663 -1.0888
 2764SOL    HW218332   2.576   1.111   2.193 -0.9629  0.6600  0.1338
 2765SOL     OW18333   1.469   7.875   2.032  0.4762 -0.5184 -0.6611
 2765SOL    HW118334   1.478   7.840   2.125 -0.8209 -1.2437 -0.8041
 2765SOL    HW218335   1.536   7.948   2.017 -0.6364  1.0005  1.4927
 2766SOL     OW18336   2.096   2.266   0.344 -0.1831 -0.4376 -0.5473
 2766SOL    HW118337   2.184   2.225   0.368  0.1485  0.4466 -0.2498
 2766SOL    HW218338   2.075   2.340   0.408  0.2872  1.3549 -2.4332
 2767SOL     OW18339   1.708   1.210   1.706  0.6305 -0.5999  0.0146
 2767SOL    HW118340   1.662   1.134   1.752  0.6072 -1.5953 -1.6263
 2767SOL    HW218341   1.802   1.184   1.685  1.1487  0.4508  0.9289
 2768SOL     OW18342  10.349   4.794   0.194 -0.1074  0.2270  0.2973
 2768SOL    HW118343  10.441   4.759   0.206 -0.2900 -0.0918  0.7801
 2768SOL    HW218344  10.347   4.859   0.117  0.7795  1.1726  1.0648
 2769SOL     OW18345   4.521   8.876   1.542  0.0842  0.4379  0.3303
 2769SOL    HW118346   4.478   8.853   1.630 -1.6238  2.6097  0.1173
 2769SOL    HW218347   4.595   8.941   1.558  1.4558 -1.1074  0.3941
 2770SOL     OW18348   2.375   2.313   1.894 -0.1433  0.0538  0.1991
 2770SOL    HW118349   2.317   2.343   1.970 -2.0465  0.3548 -1.3284
 2770SOL    HW218350   2.471   2.326   1.918 -0.7859  3.1484  1.3452
 2771SOL     OW18351   4.056   1.566   2.146 -0.3858 -0.2146 -0.2269
 2771SOL    HW118352   4.151   1.575   2.116 -0.7566  0.5310 -1.2022
 2771SOL    HW218353   4.034   1.640   2.210 -0.7486  0.4942 -1.1663
 2772SOL     OW18354   2.390   8.115   2.480  0.7326  0.5613  0.0197
 2772SOL    HW118355   2.448   8.175   2.536  0.4529  0.9380 -0.0917
 2772SOL    HW218356   2.320   8.170   2.435 -1.1376 -0.1725  1.9548
 2773SOL     OW18357   2.097   7.955   0.275 -0.6262 -0.0665 -0.2503
 2773SOL    HW118358   2.154   7.987   0.199 -0.4676  0.7741  0.2171
 2773SOL    HW218359   2.142   7.975   0.362 -0.2944 -2.0331  0.0497
 2774SOL     OW18360   1.819  10.579   0.358  0.7144  0.0759 -0.1757
 2774SOL    HW118361   1.777  10.499   0.400 -0.2414  1.4270  1.5138
 2774SOL    HW218362   1.798  10.580   0.260 -0.5069 -0.9519  0.0613
 2775SOL     OW18363   9.979   4.124   1.050  0.1977  0.3257  0.2622
 2775SOL    HW118364   9.893   4.095   1.007 -0.5550  0.3145  1.7716
 2775SOL    HW218365   9.981   4.223   1.057 -0.4881  0.2313  1.8670
 2776SOL     OW18366   1.243   8.402   2.264  0.1714 -0.6078 -0.6040
 2776SOL    HW118367   1.160   8.350   2.285  0.2716 -1.0212 -1.2107
 2776SOL    HW218368   1.218   8.494   2.235  0.0160 -0.1374  0.9889
 2777SOL     OW18369   1.935   5.601   1.197 -0.0193  0.8382 -0.5452
 2777SOL    HW118370   1.952   5.697   1.175 -0.3525  0.9385 -0.3732
 2777SOL    HW218371   1.888   5.595   1.285  2.4780  0.3613  0.8018
 2778SOL     OW18372   2.938   3.286   2.694 -0.0219  0.0430  0.2761
 2778SOL    HW118373   2.899   3.196   2.715  0.4809 -0.3256 -0.3329
 2778SOL    HW218374   3.037   3.276   2.684  0.2049  0.9117  1.5354
 2779SOL     OW18375   2.045   5.778   2.212  0.1382 -0.1315  0.7394
 2779SOL    HW118376   2.138   5.766   2.246 -0.2376  2.0308  2.6601
 2779SOL    HW218377   2.037   5.869   2.171 -1.2571 -0.1200  1.0221
 2780SOL     OW18378   2.739   0.918   0.576  0.2225 -0.3250 -0.1116
 2780SOL    HW118379   2.639   0.923   0.580  0.2699  1.5429 -0.5956
 2780SOL    HW218380   2.767   0.854   0.505 -0.6258 -1.3841  0.5004
 2781SOL     OW18381   3.567   9.647   1.472 -0.5395  0.0428 -0.4123
 2781SOL    HW118382   3.621   9.729   1.454 -0.9928  1.1093  2.7570
 2781SOL    HW218383   3.478   9.673   1.509 -0.1251 -1.8540  2.0819
 2782SOL     OW18384   2.839   3.494   0.801 -0.3904  0.3121  0.5411
 2782SOL    HW118385   2.860   3.416   0.742 -2.5695 -0.2289  0.4575
 2782SOL    HW218386   2.790   3.462   0.882 -2.3333  1.7107 -0.0568
 2783SOL     OW18387   4.670   4.685   0.433 -0.3359 -0.7832  0.3040
 2783SOL    HW118388   4.716   4.728   0.355  0.2417 -1.4616  0.2585
 2783SOL    HW218389   4.589   4.738   0.458 -0.1534 -0.1947 -0.3367
 2784SOL     OW18390   2.476   8.692   0.422 -0.3959 -0.0612  0.0317
 2784SOL    HW118391   2.461   8.743   0.507  0.1958 -1.6453  1.1075
 2784SOL    HW218392   2.560   8.724   0.378  0.8365 -1.1741  1.5241
 2785SOL     OW18393   2.845   2.840   0.744  0.5119  0.6810  0.0453
 2785SOL    HW118394   2.787   2.759   0.737  0.9163  0.4974 -1.1664
 2785SOL    HW218395   2.921   2.834   0.679  1.4109  1.3275  0.9963
 2786SOL     OW18396   1.898   2.598   1.083 -0.2475  0.3999 -0.0669
 2786SOL    HW118397   1.942   2.508   1.076  0.0340  0.6043 -1.0997
 2786SOL    HW218398   1.949   2.664   1.026  0.7673  1.7077  2.3013
 2787SOL     OW18399   4.316   1.085   1.254  0.2370 -0.4062 -0.1741
 2787SOL    HW118400   4.353   1.044   1.338  1.1937 -1.3292 -1.0232
 2787SOL    HW218401   4.224   1.120   1.272  0.3327 -0.8037  1.1998
 2788SOL     OW18402   9.309   2.140   1.188 -0.0097  0.0216  0.4054
 2788SOL    HW118403   9.237   2.195   1.231  0.5681  1.2294 -0.1325
 2788SOL    HW218404   9.297   2.141   1.089  0.5095 -0.1070  0.3384
 2789SOL     OW18405   9.586   2.699   2.387 -0.0959 -0.6354  0.5499
 2789SOL    HW118406   9.511   2.763   2.375 -0.6241 -1.2004  0.8137
 2789SOL    HW218407   9.557   2.624   2.447  0.3241 -1.4390 -0.2451
 2790SOL     OW18408   3.489   3.272   0.257  0.3567  0.2726  0.0346
 2790SOL    HW118409   3.557   3.216   0.305  1.0230  0.1640 -1.0204
 2790SOL    HW218410   3.423   3.309   0.323  0.6680 -0.7017  0.9026
 2791SOL     OW18411   3.973   8.721   1.266  0.1183  0.4124  0.3783
 2791SOL    HW118412   4.052   8.660   1.267 -0.4164 -0.3266 -0.8042
 2791SOL    HW218413   3.957   8.754   1.173 -1.9808 -0.8366  0.2553
 2792SOL     OW18414   4.684   2.736   0.341 -0.1022  0.2184  0.2611
 2792SOL    HW118415   4.648   2.827   0.362  1.1954  0.6283  0.7719
 2792SOL    HW218416   4.619   2.686   0.285 -1.9090  0.5813  1.9830
 2793SOL     OW18417   1.775  10.659   2.007  0.2319  0.1059  0.0019
 2793SOL    HW118418   1.786  10.649   1.908  0.8843 -0.8339  0.1621
 2793SOL    HW218419   1.841  10.600   2.054  0.1591  0.8045  0.9986
 2794SOL     OW18420   1.806   6.675   0.370 -0.1722 -0.1487  0.1967
 2794SOL    HW118421   1.740   6.711   0.304 -0.1311 -1.0223 -0.3345
 2794SOL    HW218422   1.758   6.625   0.442 -0.0584 -1.6697 -0.7436
 2795SOL     OW18423   3.895   4.399   1.919  0.2138 -0.2241 -0.1554
 2795SOL    HW118424   3.811   4.434   1.877  0.2959  0.5940  0.3450
 2795SOL    HW218425   3.878   4.308   1.956 -0.1507 -0.5118 -1.0190
 2796SOL     OW18426   2.921   3.981   0.162 -0.0168  0.2368 -0.1889
 2796SOL    HW118427   2.898   4.059   0.220 -0.3394 -0.1446  0.2073
 2796SOL    HW218428   2.877   3.899   0.199  2.3644 -0.6063  0.8485
 2797SOL     OW18429   1.991   8.354   2.483  0.3975  0.5908 -0.3927
 2797SOL    HW118430   1.918   8.420   2.498  0.1880  0.2876 -0.0760
 2797SOL    HW218431   2.023   8.318   2.571  0.4878  0.2484 -0.5641
 2798SOL     OW18432   2.643   8.401   0.209  0.6837 -0.0422 -0.1539
 2798SOL    HW118433   2.657   8.467   0.282 -0.1357 -0.8570  0.7553
 2798SOL    HW218434   2.652   8.308   0.245  1.1776 -0.4461 -1.2779
 2799SOL     OW18435   2.443  10.145   2.497  0.2203 -0.3505 -0.0177
 2799SOL    HW118436   2.499  10.191   2.428  1.2333 -0.3225  0.8121
 2799SOL    HW218437   2.347  10.156   2.474  0.4663  1.6184 -0.1799
 2800SOL     OW18438   2.082   1.240   1.421  0.1487  0.1982  0.6428
 2800SOL    HW118439   2.173   1.236   1.379 -0.6212  0.4187 -1.1124
 2800SOL    HW218440   2.065   1.332   1.455  0.1149  0.4765 -0.1211
 2801SOL     OW18441   9.274   3.173   1.941 -0.3044  1.0419 -0.2726
 2801SOL    HW118442   9.313   3.095   1.990 -0.7882  1.6710  1.1595
 2801SOL    HW218443   9.184   3.148   1.905 -0.1327  0.7001 -0.4667
 2802SOL     OW18444   2.007   2.933   1.096  0.3552 -0.2063  0.4645
 2802SOL    HW118445   2.038   2.871   1.024 -0.8185 -1.4519  1.0014
 2802SOL    HW218446   1.957   2.880   1.165 -0.7378  1.3673  0.8913
 2803SOL     OW18447   4.603   4.417   0.351  0.0768  0.3560 -0.1465
 2803SOL    HW118448   4.533   4.416   0.422  1.4745  1.2885  1.2706
 2803SOL    HW218449   4.628   4.511   0.330  0.1912  0.0615 -1.3815
 2804SOL     OW18450   3.123   7.994   2.148  0.3041 -0.3261  0.5227
 2804SOL    HW118451   3.193   7.946   2.200  0.2786 -0.7976  0.1303
 2804SOL    HW218452   3.166   8.042   2.071  0.1570 -0.8492  0.1178
 2805SOL     OW18453   1.953   1.664   0.843 -0.5617 -0.1457 -0.8464
 2805SOL    HW118454   1.959   1.680   0.941  1.3726  0.1121 -0.9831
 2805SOL    HW218455   2.045   1.657   0.805 -1.2890 -2.3792 -2.3019
 2806SOL     OW18456   3.022   9.336   0.583 -0.7240 -0.2763 -0.0762
 2806SOL    HW118457   3.036   9.266   0.513 -1.4456 -1.5350  1.0114
 2806SOL    HW218458   2.940   9.389   0.561 -1.2150 -0.9740  0.0599
 2807SOL     OW18459   4.452   4.312   1.000  0.6005 -0.1437  0.0690
 2807SOL    HW118460   4.378   4.246   1.018  0.2794 -0.6956 -3.0760
 2807SOL    HW218461   4.416   4.388   0.947  2.0566  0.1356 -0.5374
 2808SOL     OW18462   2.767   9.715   1.876  0.0864 -0.2861  0.1360
 2808SOL    HW118463   2.781   9.773   1.956  0.2287  1.5610 -1.1886
 2808SOL    HW218464   2.843   9.728   1.812 -0.5689 -0.9324 -0.7810
 2809SOL     OW18465   9.310   4.395   0.137 -0.3411  0.3307  0.3678
 2809SOL    HW118466   9.377   4.459   0.176 -0.2532  0.8658 -0.6636
 2809SOL    HW218467   9.261   4.438   0.062 -0.2776 -0.8251 -0.3521
 2810SOL     OW18468   1.906  10.549   0.861  0.5896 -0.5143  0.0153
 2810SOL    HW118469   1.969  10.619   0.825 -0.3228 -0.1145 -0.8117
 2810SOL    HW218470   1.944  10.511   0.945  1.2114  0.8138  0.3434
 2811SOL     OW18471   4.636   1.923   0.893  0.3357 -0.5205  0.7223
 2811SOL    HW118472   4.664   2.008   0.849  1.0326 -1.2460 -0.2595
 2811SOL    HW218473   4.584   1.944   0.975 -1.8428  0.8815 -0.9481
 2812SOL     OW18474   0.856   1.852   2.694  0.5219 -0.5286  0.5191
 2812SOL    HW118475   0.933   1.809   2.646 -0.5413 -2.1070  0.1704
 2812SOL    HW218476   0.800   1.902   2.628 -0.2790 -1.7053  0.2894
 2813SOL     OW18477  10.207   2.344   2.633 -0.3366 -0.2677  0.0263
 2813SOL    HW118478  10.168   2.423   2.679  2.5376  1.0147  0.3200
 2813SOL    HW218479  10.200   2.356   2.534  2.1919  1.4725  0.0293
 2814SOL     OW18480   4.953   3.686   1.927  0.0305  0.2967 -0.6818
 2814SOL    HW118481   5.031   3.713   1.984 -0.2812  0.1925 -0.2039
 2814SOL    HW218482   4.958   3.733   1.839 -0.4108  1.7906  0.0692
 2815SOL     OW18483   5.021   3.842   2.514 -0.0079  0.3191 -0.9938
 2815SOL    HW118484   4.963   3.912   2.472  0.8988  1.8842  0.3179
 2815SOL    HW218485   5.099   3.885   2.560  3.8551 -1.8940 -5.0882
 2816SOL     OW18486   4.623   8.526   2.622  0.2030  0.0581  0.5829
 2816SOL    HW118487   4.722   8.534   2.628  0.3153 -1.1571  0.3793
 2816SOL    HW218488   4.596   8.525   2.525 -0.0197  0.4888  0.6388
 2817SOL     OW18489   3.362   5.467   0.200 -0.6642 -0.0417 -0.0577
 2817SOL    HW118490   3.392   5.379   0.238  0.5824  0.2843 -0.2741
 2817SOL    HW218491   3.303   5.514   0.266 -1.6091 -1.1762 -0.0663
 2818SOL     OW18492   2.380   2.822   1.324  0.1864 -0.0852 -0.5027
 2818SOL    HW118493   2.450   2.775   1.378 -0.4260  0.3604  0.6947
 2818SOL    HW218494   2.414   2.838   1.232  1.2639 -0.8251 -0.2383
 2819SOL     OW18495   2.541  10.607   0.749  0.0119  0.4247 -0.5042
 2819SOL    HW118496   2.612  10.588   0.681 -0.2485  0.2025 -0.7172
 2819SOL    HW218497   2.566  10.566   0.837  0.0032  0.0791 -0.6610
 2820SOL     OW18498   4.286   3.060   1.730 -0.0617 -0.2032  0.0026
 2820SOL    HW118499   4.260   3.075   1.826 -1.4414 -0.6577 -0.2873
 2820SOL    HW218500   4.348   2.983   1.724  0.6510  0.3143  0.6148
 2821SOL     OW18501   4.260   1.997   2.058  0.7776 -0.0606  0.1439
 2821SOL    HW118502   4.293   1.969   2.148  0.3174  0.9869  0.6508
 2821SOL    HW218503   4.183   1.940   2.031  1.4762 -0.9512  0.0248
 2822SOL     OW18504   2.832   9.517   0.482  0.2657 -0.1314 -0.6511
 2822SOL    HW118505   2.851   9.592   0.544  0.3534  0.0412 -0.8881
 2822SOL    HW218506   2.813   9.552   0.391  0.3977 -0.4008 -0.7851
 2823SOL     OW18507   3.167  10.609   2.152 -0.3665 -0.6428  0.4467
 2823SOL    HW118508   3.082  10.610   2.204 -1.4456  0.6538 -1.2740
 2823SOL    HW218509   3.191  10.702   2.124  0.8193 -1.1631 -0.3537
 2824SOL     OW18510   3.469   1.123   1.296  0.9592  0.2918 -0.1058
 2824SOL    HW118511   3.533   1.054   1.262  0.8700 -0.0881  0.5042
 2824SOL    HW218512   3.391   1.079   1.340  0.0201  0.7453 -1.2782
 2825SOL     OW18513   3.149   5.673   2.479 -0.0704  0.0245  0.0737
 2825SOL    HW118514   3.079   5.680   2.550 -0.8969 -1.2927 -0.5796
 2825SOL    HW218515   3.129   5.738   2.405  0.2959  0.7721  0.6321
 2826SOL     OW18516   3.758   7.836   1.200  0.2210 -1.0684  0.2209
 2826SOL    HW118517   3.726   7.831   1.295  1.7758 -0.7161  0.7743
 2826SOL    HW218518   3.797   7.926   1.184  0.5934 -1.3698 -0.5540
 2827SOL     OW18519   2.020   8.256   0.366  0.7252  0.1796  0.6213
 2827SOL    HW118520   2.004   8.165   0.405  2.2541 -0.4394 -0.1771
 2827SOL    HW218521   2.050   8.319   0.438  1.4950 -0.4277  0.8361
 2828SOL     OW18522   2.481   4.859   0.859 -0.2108 -0.3050 -0.4938
 2828SOL    HW118523   2.578   4.880   0.845 -0.3783 -0.8381 -2.7669
 2828SOL    HW218524   2.445   4.917   0.932  2.3971 -1.8484  2.1400
 2829SOL     OW18525   2.973   8.539   2.625  0.3187  0.5384 -0.5562
 2829SOL    HW118526   3.064   8.543   2.582  0.9017  3.0204  0.8282
 2829SOL    HW218527   2.903   8.561   2.557  0.9327  0.7919 -1.1146
 2830SOL     OW18528   1.861   3.901   2.344 -0.2525 -0.1468  0.7001
 2830SOL    HW118529   1.934   3.882   2.410 -0.0462 -0.4572  0.3849
 2830SOL    HW218530   1.779   3.851   2.371 -1.2373  2.4060  2.6456
 2831SOL     OW18531   2.197   2.458   0.114  0.0775  0.1142  0.1341
 2831SOL    HW118532   2.150   2.414   0.190 -0.0677 -0.9985 -0.5885
 2831SOL    HW218533   2.166   2.419   0.028  0.8084  0.8150 -0.4609
 2832SOL     OW18534   1.280   3.151   2.516  0.5056  0.0340 -0.0759
 2832SOL    HW118535   1.280   3.099   2.431 -1.1095 -1.9405  1.0762
 2832SOL    HW218536   1.371   3.146   2.558  0.8413 -0.3760 -0.8433
 2833SOL     OW18537   2.541   6.578   2.664 -0.1600 -0.1796 -0.3954
 2833SOL    HW118538   2.497   6.507   2.608 -1.1932  0.1218  0.0111
 2833SOL    HW218539   2.538   6.665   2.615 -0.6807 -0.0061 -0.0608
 2834SOL     OW18540   2.238   0.966   1.312  0.1898 -0.6787 -0.1101
 2834SOL    HW118541   2.165   0.965   1.245 -0.5945  1.9852  0.6580
 2834SOL    HW218542   2.321   1.003   1.271  0.4045 -1.3383 -0.2771
 2835SOL     OW18543   2.744  10.393   1.245  1.0241 -0.2369  0.2889
 2835SOL    HW118544   2.687  10.469   1.278  2.7857  0.0324  2.8131
 2835SOL    HW218545   2.692  10.308   1.248  0.9367 -0.1312  3.3572
 2836SOL     OW18546   4.264   2.495   1.987  0.0466  0.1157  0.2118
 2836SOL    HW118547   4.294   2.535   2.073 -1.6291 -0.4154  1.0633
 2836SOL    HW218548   4.243   2.398   2.001  1.3410 -0.3748 -1.1728
 2837SOL     OW18549  10.364   4.230   2.410 -0.3082 -0.0435 -0.0009
 2837SOL    HW118550  10.278   4.257   2.454 -0.7773 -2.9690  1.0084
 2837SOL    HW218551  10.365   4.131   2.397  2.7414 -0.0196 -0.3719
 2838SOL     OW18552   1.859  10.678   1.730  0.5505  0.1330  0.2512
 2838SOL    HW118553   1.860  10.764   1.680 -1.1947  0.4713  0.7449
 2838SOL    HW218554   1.921  10.612   1.686 -1.1637  0.3098 -2.5552
 2839SOL     OW18555   2.789   3.782   0.306 -0.2844 -0.7586 -0.0943
 2839SOL    HW118556   2.828   3.699   0.347  1.7826  0.9418  1.4843
 2839SOL    HW218557   2.722   3.822   0.370 -1.8403 -1.5866 -1.1731
 2840SOL     OW18558   1.535   2.135   0.447 -0.1828  0.2603 -0.1130
 2840SOL    HW118559   1.535   2.230   0.477  2.0706  0.4654 -0.7036
 2840SOL    HW218560   1.456   2.088   0.487 -1.6617  2.5024 -0.2929
 2841SOL     OW18561   2.140   9.356   1.239 -0.0124 -0.0313 -0.2940
 2841SOL    HW118562   2.236   9.347   1.214  0.4253  0.4629  1.2037
 2841SOL    HW218563   2.091   9.273   1.211  1.1699 -0.9975  0.4588
 2842SOL     OW18564  10.290   7.047   0.564  0.0115  0.7402 -0.5094
 2842SOL    HW118565  10.242   7.078   0.647  1.4731 -0.2740  0.7560
 2842SOL    HW218566  10.244   6.966   0.527  0.1831  0.3351  0.1507
 2843SOL     OW18567   1.168   3.611   2.660  0.1282  0.1285  0.2262
 2843SOL    HW118568   1.222   3.529   2.683  0.0159 -0.1944 -0.6545
 2843SOL    HW218569   1.219   3.693   2.687  0.6030 -0.2093  0.3576
 2844SOL     OW18570   4.047   2.853   1.311 -0.2645  0.3197  0.3184
 2844SOL    HW118571   4.077   2.800   1.232 -1.7744 -1.8268  1.1521
 2844SOL    HW218572   4.103   2.936   1.318  1.3974 -0.5851 -1.6497
 2845SOL     OW18573   3.089  10.046   2.630 -0.1988 -0.6469  0.1786
 2845SOL    HW118574   3.184  10.030   2.605 -0.2139  0.9883 -1.0307
 2845SOL    HW218575   3.070  10.144   2.628 -1.8844 -0.9476  0.5042
 2846SOL     OW18576   9.841   1.868   0.587  0.1424 -0.1866 -0.0991
 2846SOL    HW118577   9.830   1.824   0.676  1.2748  1.4604  0.8758
 2846SOL    HW218578   9.758   1.919   0.563 -1.7199 -3.8250 -1.8540
 2847SOL     OW18579   3.881   5.506   1.011 -0.5212 -0.3544 -0.5342
 2847SOL    HW118580   3.848   5.497   1.105 -0.9919 -1.6801 -0.8210
 2847SOL    HW218581   3.841   5.588   0.969 -1.3929 -0.5261 -0.0385
 2848SOL     OW18582   2.831   1.824   0.923 -0.2776  0.2871 -0.3525
 2848SOL    HW118583   2.794   1.892   0.858  1.2567  0.2764 -1.2577
 2848SOL    HW218584   2.770   1.745   0.925 -0.3824  0.3102 -1.7537
 2849SOL     OW18585   0.986   2.689   2.589 -0.5947 -0.2564  0.6592
 2849SOL    HW118586   0.974   2.590   2.582 -0.1795 -0.2493 -0.0783
 2849SOL    HW218587   1.073   2.716   2.550  0.4253  0.1187  3.0895
 2850SOL     OW18588   4.009   8.940   1.455  0.5126  0.3153  0.4245
 2850SOL    HW118589   4.000   8.860   1.394 -0.3362  0.7648 -0.0568
 2850SOL    HW218590   3.950   9.013   1.421  0.8641  0.9508  1.1892
 2851SOL     OW18591   0.835   1.985   1.653  0.3988  0.0395 -0.4926
 2851SOL    HW118592   0.823   2.080   1.683  0.3011 -0.4273  1.0245
 2851SOL    HW218593   0.932   1.964   1.645  0.5151 -0.5374  1.9729
 2852SOL     OW18594   3.324   3.280   0.562 -0.6723  0.0791 -0.3510
 2852SOL    HW118595   3.236   3.275   0.609 -0.2104 -1.0581  0.4211
 2852SOL    HW218596   3.388   3.334   0.616 -0.6593  0.2420 -0.5277
 2853SOL     OW18597   2.047   7.701   0.652  0.1201  0.0382  0.5352
 2853SOL    HW118598   2.019   7.728   0.744 -0.1404 -0.5547  0.6321
 2853SOL    HW218599   1.965   7.680   0.598  0.3434 -1.2432  0.6781
 2854SOL     OW18600   3.857  10.177   1.565 -0.7897  0.4531 -0.6401
 2854SOL    HW118601   3.828  10.273   1.567  0.2816  0.8625 -3.0824
 2854SOL    HW218602   3.862  10.142   1.658 -1.3812  2.7077  0.2729
 2855SOL     OW18603   9.739   2.886   0.303 -0.1820  0.0064 -0.0217
 2855SOL    HW118604   9.772   2.891   0.208 -0.1800  0.4607  0.0054
 2855SOL    HW218605   9.757   2.794   0.339 -1.2592 -0.5494 -0.8534
 2856SOL     OW18606   9.513   4.511   1.993  0.0433 -0.2008  0.4880
 2856SOL    HW118607   9.549   4.526   1.901  1.1778 -0.7592  0.8253
 2856SOL    HW218608   9.589   4.509   2.058 -0.8822  2.0093  1.6871
 2857SOL     OW18609   3.860   3.814   2.511  0.0551 -0.5874  0.4459
 2857SOL    HW118610   3.867   3.786   2.607  2.5657  0.1954  0.5318
 2857SOL    HW218611   3.889   3.738   2.452  1.0842 -0.1919  0.4322
 2858SOL     OW18612   3.174   3.772   1.004  0.7456  0.3795  0.7727
 2858SOL    HW118613   3.190   3.673   0.997 -0.8674  0.1070  0.5335
 2858SOL    HW218614   3.076   3.790   0.995  1.1286  2.1072 -0.2109
 2859SOL     OW18615   3.723   4.869   1.867 -0.0625 -0.1989  0.1234
 2859SOL    HW118616   3.723   4.968   1.872  0.1174 -0.0770 -1.9383
 2859SOL    HW218617   3.684   4.831   1.952 -2.6088  1.6869 -0.1380
 2860SOL     OW18618   1.697   1.445   1.841 -0.1724  0.3625  0.1513
 2860SOL    HW118619   1.682   1.374   1.772 -0.5371  0.0737  0.5231
 2860SOL    HW218620   1.694   1.403   1.932 -1.7882  1.0769  0.4439
 2861SOL     OW18621   3.279   3.932   0.810  0.2333 -0.0607 -0.3777
 2861SOL    HW118622   3.212   3.989   0.762 -1.0510  0.0264  1.4927
 2861SOL    HW218623   3.233   3.876   0.879  1.7439 -1.9609 -0.8497
 2862SOL     OW18624   2.491   8.730   1.564 -0.0818 -0.3118 -0.0519
 2862SOL    HW118625   2.400   8.691   1.572  0.4111 -1.7184 -1.1125
 2862SOL    HW218626   2.553   8.685   1.628  0.0893 -0.0175 -0.0075
 2863SOL     OW18627   9.825   4.799   0.896 -0.5527 -1.0117  0.5170
 2863SOL    HW118628   9.734   4.787   0.856  0.1289 -2.7515 -0.6087
 2863SOL    HW218629   9.865   4.709   0.912  0.7408 -0.2560  1.5548
 2864SOL     OW18630   1.791   9.350   0.857 -0.1382 -0.3821  0.1472
 2864SOL    HW118631   1.776   9.390   0.766  0.8070  0.4145  0.3327
 2864SOL    HW218632   1.886   9.366   0.885 -0.2239 -1.2664  0.9670
 2865SOL     OW18633   1.658   9.674   1.871  0.0350 -0.0575  0.0761
 2865SOL    HW118634   1.669   9.692   1.969 -0.6645 -1.2454  0.3778
 2865SOL    HW218635   1.573   9.714   1.838 -0.2401 -0.5349  0.1901
 2866SOL     OW18636   2.232   9.498   1.938  0.3932  0.4164  0.2397
 2866SOL    HW118637   2.275   9.529   2.023  1.2204  1.0658 -0.4143
 2866SOL    HW218638   2.156   9.559   1.916  0.7649  0.8032  0.0199
 2867SOL     OW18639  10.290   1.534   0.816  0.4803 -0.2239 -0.2668
 2867SOL    HW118640  10.284   1.446   0.862  0.7593  0.3755  0.9120
 2867SOL    HW218641  10.382   1.571   0.824  0.3756  0.1671 -0.7920
 2868SOL     OW18642   9.383   1.283   1.624  0.0561  1.0462 -0.3752
 2868SOL    HW118643   9.403   1.279   1.722  1.1340  1.0493 -0.5957
 2868SOL    HW218644   9.331   1.366   1.604 -2.4497 -0.2268  0.5992
 2869SOL     OW18645   3.762  10.614   1.245 -0.7239  0.4294 -0.9771
 2869SOL    HW118646   3.695  10.675   1.287 -1.4626  0.3375 -1.9862
 2869SOL    HW218647   3.716  10.558   1.175  0.5315  0.8418 -2.1488
 2870SOL     OW18648   1.892   3.374   2.575  0.0370  0.0918  0.2954
 2870SOL    HW118649   1.878   3.308   2.502  0.9573  1.3605 -1.0775
 2870SOL    HW218650   1.824   3.361   2.647 -1.8440 -0.2211 -1.4931
 2871SOL     OW18651   4.071   4.263   1.557  0.0149 -0.5563  0.5321
 2871SOL    HW118652   4.030   4.307   1.637  1.9661  1.3032  0.5547
 2871SOL    HW218653   4.107   4.332   1.495  0.4704 -2.0501 -0.9258
 2872SOL     OW18654   1.632   7.846   0.854  0.0949  0.1653  0.2191
 2872SOL    HW118655   1.706   7.812   0.913 -1.4267 -0.1958  1.9501
 2872SOL    HW218656   1.554   7.784   0.860 -0.0430  0.0569 -2.3088
 2873SOL     OW18657   1.759   1.927   0.478 -0.2066 -0.1803 -0.4466
 2873SOL    HW118658   1.703   1.880   0.411 -0.6643 -0.2349 -0.0300
 2873SOL    HW218659   1.700   1.982   0.538  0.2476  0.3235 -0.4538
 2874SOL     OW18660   2.611   7.367   1.351 -0.3396 -0.8436 -0.4210
 2874SOL    HW118661   2.629   7.269   1.342 -3.4888 -1.4470 -0.7235
 2874SOL    HW218662   2.598   7.391   1.447  1.3039 -0.5028 -0.2552
 2875SOL     OW18663   2.523   3.778   2.679  0.5501 -0.0802 -0.0689
 2875SOL    HW118664   2.584   3.747   2.751  0.1624  0.5462  0.5357
 2875SOL    HW218665   2.529   3.716   2.601  1.7815 -0.1500  0.0700
 2876SOL     OW18666   2.265   5.623   1.880  0.1088 -0.0648  0.0558
 2876SOL    HW118667   2.362   5.606   1.860  0.8373  2.7006  0.9612
 2876SOL    HW218668   2.231   5.695   1.820 -1.2796 -0.7149  0.0506
 2877SOL     OW18669   9.716   5.270   2.071  0.3677  0.1402  0.5825
 2877SOL    HW118670   9.780   5.242   2.143 -0.5547 -0.5745  1.1548
 2877SOL    HW218671   9.626   5.231   2.092  0.6581 -2.2480 -2.3216
 2878SOL     OW18672   3.242   2.431   1.355 -0.0692  0.0638  0.1520
 2878SOL    HW118673   3.230   2.363   1.282 -0.0106  0.0143  0.1881
 2878SOL    HW218674   3.313   2.496   1.329 -1.0674  0.9104 -0.4646
 2879SOL     OW18675   1.325   3.117   1.610  0.1531 -0.2555 -0.3788
 2879SOL    HW118676   1.401   3.164   1.655  0.8983 -1.7764 -0.0060
 2879SOL    HW218677   1.343   3.019   1.609 -1.0623 -0.4783 -1.7346
 2880SOL     OW18678  10.296   5.372   2.011 -0.3518 -0.4475 -0.3498
 2880SOL    HW118679  10.306   5.339   2.105 -1.0214  1.9720  0.6285
 2880SOL    HW218680  10.387   5.392   1.974 -0.2750  3.8934  1.8583
 2881SOL     OW18681   4.149   2.248   1.996  0.3414  0.0659 -0.0819
 2881SOL    HW118682   4.053   2.221   2.011  0.7602 -1.5129 -0.1760
 2881SOL    HW218683   4.209   2.179   2.034  1.4543 -0.2371 -2.3379
 2882SOL     OW18684   3.424   8.616   1.344 -0.0587 -0.1310 -0.3580
 2882SOL    HW118685   3.369   8.532   1.350  0.6625 -0.5439  0.4922
 2882SOL    HW218686   3.480   8.626   1.426  0.9206  0.4573 -1.0816
 2883SOL     OW18687   3.822   7.978   0.717  0.2320 -0.3117 -0.0396
 2883SOL    HW118688   3.734   7.998   0.673  0.5984  2.6613  0.4736
 2883SOL    HW218689   3.805   7.934   0.805 -0.7312 -0.3065 -0.2122
 2884SOL     OW18690   4.395   2.095   0.452 -0.4207 -0.1545 -0.7313
 2884SOL    HW118691   4.460   2.129   0.383 -0.8014 -1.3597 -1.6975
 2884SOL    HW218692   4.302   2.118   0.424 -0.7281 -2.3996 -1.6628
 2885SOL     OW18693   0.794   5.049   0.170 -0.4930 -0.0035  0.5400
 2885SOL    HW118694   0.697   5.030   0.159 -0.6181 -0.2020  1.9763
 2885SOL    HW218695   0.838   4.972   0.217  0.3274  0.1690  0.0736
 2886SOL     OW18696   2.928   2.910   2.105  0.3654  0.2730  0.1571
 2886SOL    HW118697   3.018   2.953   2.098  0.4698 -0.0602 -0.5426
 2886SOL    HW218698   2.938   2.811   2.109 -0.0843  0.0955 -2.3743
 2887SOL     OW18699   9.657   1.355   0.510  0.5403 -0.0306 -0.0895
 2887SOL    HW118700   9.615   1.441   0.540 -1.1069 -0.0670 -2.2307
 2887SOL    HW218701   9.756   1.366   0.508  0.4163  1.4364  0.8011
 2888SOL     OW18702   3.827   3.083   1.129 -0.3056  0.7826 -0.3780
 2888SOL    HW118703   3.880   3.150   1.181 -0.1830  1.4422 -1.3330
 2888SOL    HW218704   3.748   3.054   1.182  0.4547  0.5458  0.6591
 2889SOL     OW18705   1.941   8.381   2.043  0.1243 -0.1330 -0.2856
 2889SOL    HW118706   1.909   8.448   1.975  0.8131 -0.8343 -1.3214
 2889SOL    HW218707   1.978   8.429   2.122 -2.7238  0.6988  0.6004
 2890SOL     OW18708   1.455   3.522   1.842 -0.8949 -0.2723 -0.2681
 2890SOL    HW118709   1.430   3.464   1.919 -1.4418 -1.3474 -1.2338
 2890SOL    HW218710   1.549   3.555   1.854 -0.9897 -0.4200  0.8612
 2891SOL     OW18711  10.057   6.455   2.192  0.1332 -0.7797 -0.2563
 2891SOL    HW118712  10.117   6.384   2.230 -0.2345 -0.3503  1.1545
 2891SOL    HW218713   9.973   6.459   2.246 -0.1446  0.2591 -0.7678
 2892SOL     OW18714   0.656   6.791   1.008 -0.1985  0.0137  0.2769
 2892SOL    HW118715   0.744   6.744   1.017 -0.0415  0.1729 -0.4172
 2892SOL    HW218716   0.672   6.888   0.989 -0.5263 -0.0276 -0.2080
 2893SOL     OW18717   0.734   6.595   0.501  0.1164  0.1429  0.4526
 2893SOL    HW118718   0.772   6.686   0.492 -2.0784  1.1043  0.5049
 2893SOL    HW218719   0.709   6.578   0.596  0.7795 -0.6150  0.4933
 2894SOL     OW18720   8.799   2.633   1.457  0.7898  0.0992  0.0990
 2894SOL    HW118721   8.817   2.543   1.417  1.4232  0.6319 -0.8339
 2894SOL    HW218722   8.851   2.703   1.407  1.4160  0.8063  1.7004
 2895SOL     OW18723   3.161   5.390   1.778  0.0301 -0.0770  0.3712
 2895SOL    HW118724   3.124   5.478   1.751 -0.3220 -0.1847  0.4998
 2895SOL    HW218725   3.195   5.395   1.872  1.0340  0.2299  0.0030
 2896SOL     OW18726   9.763   4.540   2.203 -0.0127  0.0849 -0.1521
 2896SOL    HW118727   9.787   4.469   2.269 -1.1383  0.5383  0.7689
 2896SOL    HW218728   9.820   4.531   2.121 -0.5780 -2.2789 -0.3272
 2897SOL     OW18729   0.845   3.275   1.309  0.3092  0.0113 -0.3687
 2897SOL    HW118730   0.767   3.318   1.264 -1.1810 -1.0331  1.1631
 2897SOL    HW218731   0.814   3.229   1.393  2.7456  0.5247  0.8470
 2898SOL     OW18732   1.877   5.660   0.713 -0.1614 -0.2957 -0.7036
 2898SOL    HW118733   1.893   5.588   0.645 -0.3677 -0.2223 -0.8288
 2898SOL    HW218734   1.916   5.631   0.801 -0.6214 -0.7560 -0.6419
 2899SOL     OW18735   1.688   1.497   2.351 -0.0253  0.3727 -0.6626
 2899SOL    HW118736   1.657   1.592   2.345 -1.3926 -0.0758 -1.0182
 2899SOL    HW218737   1.633   1.449   2.419  0.9148 -0.0725 -0.2125
 2900SOL     OW18738   3.466   8.912   0.313  0.3836  0.2378 -0.4294
 2900SOL    HW118739   3.433   8.910   0.219 -0.3035 -0.2304 -0.1877
 2900SOL    HW218740   3.473   9.007   0.345  1.5280  0.4370 -1.2589
 2901SOL     OW18741   9.132   1.611   0.895 -0.0727 -0.1723 -0.2837
 2901SOL    HW118742   9.060   1.582   0.833 -0.2010 -0.3550 -0.0504
 2901SOL    HW218743   9.155   1.537   0.958 -1.8104  0.8721  1.6465
 2902SOL     OW18744   2.509   8.930   2.398 -0.5562 -0.0054 -0.4267
 2902SOL    HW118745   2.598   8.896   2.428 -1.5753 -2.8747 -0.5377
 2902SOL    HW218746   2.513   8.954   2.301 -0.9334 -3.9983 -1.4997
 2903SOL     OW18747  10.141   1.807   1.567  0.1525 -0.4097 -0.0145
 2903SOL    HW118748  10.203   1.741   1.525  2.1688  1.8350 -0.6484
 2903SOL    HW218749  10.070   1.834   1.501  0.4434 -0.5091 -0.3667
 2904SOL     OW18750   2.981   5.730   2.687 -0.2200  0.1995 -0.0029
 2904SOL    HW118751   2.993   5.827   2.708 -2.2749  0.3570  0.5133
 2904SOL    HW218752   2.909   5.719   2.619 -0.8922 -1.0592  0.8945
 2905SOL     OW18753   3.281   6.350   2.683 -0.1270  0.7460  0.1085
 2905SOL    HW118754   3.351   6.421   2.677  1.3730 -0.7236  0.0371
 2905SOL    HW218755   3.321   6.261   2.664 -2.4545  0.1033 -2.1135
 2906SOL     OW18756   2.566   9.576   1.013 -0.5536  0.6767 -0.4141
 2906SOL    HW118757   2.633   9.648   0.995  0.0150  0.1920 -0.2168
 2906SOL    HW218758   2.613   9.490   1.031 -1.1294  0.8496  2.1563
 2907SOL     OW18759   3.812   4.041   1.842  0.1376 -0.0202  0.0922
 2907SOL    HW118760   3.808   4.070   1.937  0.6351  0.2291  0.0401
 2907SOL    HW218761   3.897   3.992   1.825  0.4784  0.7481 -0.4467
 2908SOL     OW18762   4.752   1.035   1.971 -0.5350 -0.5684 -0.1235
 2908SOL    HW118763   4.657   1.062   1.984 -0.9602 -2.0282 -0.0783
 2908SOL    HW218764   4.805   1.114   1.940 -1.5403  0.5109  0.8516
 2909SOL     OW18765   2.464   1.637   2.113 -0.1361 -0.6516 -0.6250
 2909SOL    HW118766   2.410   1.581   2.176 -0.2024 -0.5107 -0.5572
 2909SOL    HW218767   2.551   1.591   2.094  0.0830 -0.4698 -0.0628
 2910SOL     OW18768   3.444   7.833   0.803 -0.4601 -0.8791  0.3785
 2910SOL    HW118769   3.389   7.762   0.848  0.8330 -1.3202  1.2704
 2910SOL    HW218770   3.541   7.811   0.810  0.0867  1.6871  1.9965
 2911SOL     OW18771   1.548   9.621   0.179 -0.1683  0.4815 -0.6743
 2911SOL    HW118772   1.616   9.626   0.252 -0.6429  1.2047 -0.2760
 2911SOL    HW218773   1.457   9.608   0.219 -0.2401 -0.6974 -1.2116
 2912SOL     OW18774   2.191  10.612   1.387 -0.1933  0.0004  0.0798
 2912SOL    HW118775   2.281  10.620   1.344 -0.5060 -0.7083 -0.7105
 2912SOL    HW218776   2.123  10.660   1.331 -0.4302 -0.0658  0.3117
 2913SOL     OW18777   3.311   4.258   2.544  0.4036  0.5769  0.0297
 2913SOL    HW118778   3.338   4.354   2.551 -0.2689  0.6954  0.9853
 2913SOL    HW218779   3.270   4.228   2.630  1.2163 -0.7559 -0.0393
 2914SOL     OW18780   1.701   6.953   0.409 -0.0989 -0.3440  0.0214
 2914SOL    HW118781   1.642   6.882   0.371 -0.0437 -0.3437 -0.0654
 2914SOL    HW218782   1.717   7.024   0.340  0.3359 -0.5517 -0.0978
 2915SOL     OW18783   1.291   5.919   1.245  0.0507 -0.3130  0.3873
 2915SOL    HW118784   1.245   5.963   1.168 -0.2054  0.3208  0.8964
 2915SOL    HW218785   1.260   5.960   1.330  0.6690 -0.7034  0.8071
 2916SOL     OW18786   4.650   0.906   2.484 -0.5771  0.5542 -0.2291
 2916SOL    HW118787   4.576   0.905   2.552  0.8522  0.4907  1.3452
 2916SOL    HW218788   4.626   0.845   2.409 -0.6605 -2.0848  1.8649
 2917SOL     OW18789   2.962  10.235   0.969 -0.3206 -0.0708  0.5286
 2917SOL    HW118790   2.903  10.277   0.899  0.4670  0.3596  0.1130
 2917SOL    HW218791   2.995  10.147   0.935 -1.8819 -0.9718  1.3534
 2918SOL     OW18792   1.653   3.716   1.721  0.0602  0.0053  0.1107
 2918SOL    HW118793   1.635   3.788   1.789  1.7094  0.1235  0.4362
 2918SOL    HW218794   1.592   3.729   1.643  0.4110  1.8367  0.1158
 2919SOL     OW18795   4.816   4.292   1.962  0.2788 -0.6119  0.0518
 2919SOL    HW118796   4.862   4.333   2.041  1.9306 -2.4718  0.0754
 2919SOL    HW218797   4.719   4.278   1.984  0.4838 -0.1027  1.3290
 2920SOL     OW18798   2.761   2.986   2.348  0.4531 -0.0799 -0.1715
 2920SOL    HW118799   2.778   3.084   2.354 -0.6870  0.1678 -0.7177
 2920SOL    HW218800   2.822   2.945   2.281  0.2387  0.4423 -0.6929
 2921SOL     OW18801   2.365   7.175   1.242  0.4665  0.4299  0.2832
 2921SOL    HW118802   2.463   7.174   1.265  0.3527 -2.9804  0.9380
 2921SOL    HW218803   2.312   7.155   1.324 -0.4835 -2.4131 -0.9651
 2922SOL     OW18804   2.925   9.547   2.556 -0.3126 -0.1078 -0.1446
 2922SOL    HW118805   3.000   9.485   2.536 -0.6594  0.1049 -2.2617
 2922SOL    HW218806   2.934   9.630   2.501 -2.8917 -0.7336 -1.6170
 2923SOL     OW18807   9.374   2.501   1.214  0.1952 -0.4241 -0.1969
 2923SOL    HW118808   9.296   2.550   1.253  0.4367  0.0462 -0.3013
 2923SOL    HW218809   9.401   2.428   1.276  0.5034  0.2465  0.4792
 2924SOL     OW18810   1.707   6.669   2.619 -0.0514  0.1648 -0.0697
 2924SOL    HW118811   1.711   6.762   2.656 -0.0576  0.9480 -1.9887
 2924SOL    HW218812   1.771   6.660   2.543 -0.3421 -1.2830 -0.1658
 2925SOL     OW18813   2.902   2.045   0.688  0.3066  0.7951  0.2531
 2925SOL    HW118814   2.915   1.997   0.602  1.1302  0.7195  0.4156
 2925SOL    HW218815   2.970   2.014   0.755 -0.0177  1.1974  0.7777
 2926SOL     OW18816   2.763   8.455   2.077 -0.1765  0.4607 -0.7328
 2926SOL    HW118817   2.828   8.427   2.148  0.9521  2.1977 -1.0415
 2926SOL    HW218818   2.773   8.395   1.998 -0.4210 -0.5767  0.0032
 2927SOL     OW18819   3.344   2.636   0.260 -0.3438 -0.8251  0.1784
 2927SOL    HW118820   3.432   2.610   0.298  0.5094 -0.4022 -1.4362
 2927SOL    HW218821   3.279   2.560   0.269  0.4060 -1.4118  0.6786
 2928SOL     OW18822   2.390   1.733   2.667 -0.9179 -0.1587 -0.0260
 2928SOL    HW118823   2.309   1.748   2.610 -0.6188 -0.5984 -0.5699
 2928SOL    HW218824   2.399   1.635   2.687 -0.4043 -0.1292 -0.1266
 2929SOL     OW18825   9.725   4.131   0.907 -0.2266 -0.0294  0.1268
 2929SOL    HW118826   9.630   4.144   0.935 -0.2457  0.5626 -0.2072
 2929SOL    HW218827   9.742   4.183   0.824  0.1889 -0.7224 -0.2260
 2930SOL     OW18828   2.905  10.672   2.559 -0.1663  0.0321 -0.2040
 2930SOL    HW118829   2.980  10.711   2.505 -0.0112 -1.4689 -1.1057
 2930SOL    HW218830   2.923  10.685   2.656  1.8256 -1.2616 -0.3664
 2931SOL     OW18831   5.063   1.980   1.739  0.2076 -0.1991 -0.5144
 2931SOL    HW118832   4.983   1.919   1.737 -2.6650  3.3693  0.7070
 2931SOL    HW218833   5.069   2.030   1.653  1.9507 -1.4049 -1.1162
 2932SOL     OW18834   2.559   2.395   0.793  0.2280  0.2589  0.2225
 2932SOL    HW118835   2.570   2.296   0.786 -1.4528  0.0996 -0.3044
 2932SOL    HW218836   2.462   2.418   0.793  0.6108  1.9367 -0.0413
 2933SOL     OW18837   3.245   8.922   2.219 -0.2197 -0.0006  0.6637
 2933SOL    HW118838   3.248   8.992   2.290 -0.6344 -0.1833  0.8657
 2933SOL    HW218839   3.200   8.840   2.256 -0.6879  0.0070  0.1046
 2934SOL     OW18840   1.383   9.750   1.806 -0.4076  0.2612  0.0638
 2934SOL    HW118841   1.381   9.835   1.755  0.6034  0.1570 -0.1582
 2934SOL    HW218842   1.332   9.679   1.756 -0.9922  0.6468  0.1073
 2935SOL     OW18843   3.791  10.119   0.784  0.9283 -0.1820 -0.0619
 2935SOL    HW118844   3.788  10.127   0.884  0.8111 -0.7141 -0.0255
 2935SOL    HW218845   3.811  10.209   0.745 -0.7900  0.4187  0.3690
 2936SOL     OW18846  10.564   1.228   2.573  0.0864 -0.1308  0.3449
 2936SOL    HW118847  10.578   1.137   2.536 -1.2280  0.5055 -1.8081
 2936SOL    HW218848  10.508   1.223   2.655  1.1014 -1.3654  0.9663
 2937SOL     OW18849  10.007   4.178   2.243 -0.2989  0.2440 -0.0576
 2937SOL    HW118850   9.919   4.225   2.246 -0.3300  0.2263 -0.5569
 2937SOL    HW218851  10.079   4.245   2.224 -0.1694  0.3006  0.6228
 2938SOL     OW18852   1.783   4.690   1.194 -0.3808 -0.3500 -0.1301
 2938SOL    HW118853   1.750   4.718   1.283 -0.4955  0.6080 -0.4705
 2938SOL    HW218854   1.717   4.718   1.123 -0.6759 -1.7869 -0.4449
 2939SOL     OW18855   2.569   1.887   2.053  0.5980  0.1605 -0.2769
 2939SOL    HW118856   2.570   1.893   1.953  0.7911 -0.1339 -0.2955
 2939SOL    HW218857   2.526   1.801   2.081  0.6597  0.1828 -0.1114
 2940SOL     OW18858   3.642   5.167   1.558 -0.3568  0.3442 -0.3451
 2940SOL    HW118859   3.673   5.252   1.602  0.8563 -0.9929  1.4792
 2940SOL    HW218860   3.606   5.187   1.468  1.4575  2.6006 -0.6092
 2941SOL     OW18861   3.765   5.726   0.881 -0.5241 -0.3733  0.3414
 2941SOL    HW118862   3.706   5.716   0.801  1.2604  0.1474 -1.0811
 2941SOL    HW218863   3.834   5.796   0.863 -0.5527  0.3065  2.6415
 2942SOL     OW18864   3.427   3.722   0.264 -0.2731  0.2236 -0.2004
 2942SOL    HW118865   3.450   3.754   0.356  0.2610  0.0761 -0.2782
 2942SOL    HW218866   3.402   3.800   0.206 -0.5625  0.3208  0.0553
 2943SOL     OW18867   2.122   3.812   0.520 -0.2030  0.2761  0.3867
 2943SOL    HW118868   2.090   3.809   0.614 -0.7276 -2.6066  0.1505
 2943SOL    HW218869   2.194   3.881   0.511 -0.3820  0.8070  2.7993
 2944SOL     OW18870   9.760   4.916   2.182  0.3592 -0.3370 -0.0291
 2944SOL    HW118871   9.842   4.869   2.215  0.4632 -0.2642 -0.1811
 2944SOL    HW218872   9.776   5.015   2.184  0.8323 -0.3766 -1.5224
 2945SOL     OW18873   3.466   5.247   2.327  0.1236 -0.4893 -0.2996
 2945SOL    HW118874   3.408   5.259   2.408  2.5630 -1.3173  1.6217
 2945SOL    HW218875   3.483   5.150   2.312  1.0634 -0.2493 -0.8120
 2946SOL     OW18876   1.821   3.175   2.394 -0.3524  0.1233  0.1199
 2946SOL    HW118877   1.777   3.196   2.307  1.3284 -3.0029 -1.5693
 2946SOL    HW218878   1.759   3.122   2.451 -0.9679  1.0275  0.3080
 2947SOL     OW18879   0.655   1.363   2.119  0.3034  0.4287 -0.0700
 2947SOL    HW118880   0.693   1.367   2.027 -1.7277 -1.1804 -1.0247
 2947SOL    HW218881   0.628   1.455   2.148  1.0285  0.9583 -1.0308
 2948SOL     OW18882   1.157   1.650   1.389 -0.0994 -0.1069 -0.1684
 2948SOL    HW118883   1.242   1.604   1.411  0.1775  1.2046  1.6500
 2948SOL    HW218884   1.168   1.702   1.305 -0.1556 -2.6050 -1.7626
 2949SOL     OW18885   1.006   7.061   2.586  0.1551 -0.2184 -0.6616
 2949SOL    HW118886   1.046   7.002   2.516  1.6534  0.4221 -0.3606
 2949SOL    HW218887   1.064   7.061   2.667 -1.4365 -0.7616  0.5097
 2950SOL     OW18888   1.449   7.738   0.496  0.8797 -0.1420 -0.1310
 2950SOL    HW118889   1.398   7.707   0.416  2.2415  1.0517 -1.4963
 2950SOL    HW218890   1.447   7.667   0.566 -0.3955 -1.1811 -1.1844
 2951SOL     OW18891   2.087   2.543   0.422  0.1271  0.1874 -0.4706
 2951SOL    HW118892   2.158   2.613   0.429  1.6302 -1.0898 -2.3348
 2951SOL    HW218893   2.032   2.559   0.339  0.3842 -0.7300 -0.8316
 2952SOL     OW18894   0.705  10.590   2.185 -0.2918  0.5291 -0.4103
 2952SOL    HW118895   0.635  10.661   2.190  1.0243  1.8558 -0.8493
 2952SOL    HW218896   0.695  10.540   2.099 -1.2248  0.1476 -0.0931
 2953SOL     OW18897   4.113   8.849   0.514 -0.1775 -0.0077 -0.2706
 2953SOL    HW118898   4.111   8.750   0.497  0.9158 -0.2327  0.8822
 2953SOL    HW218899   4.136   8.896   0.428  0.7047 -0.8456 -0.5046
 2954SOL     OW18900   9.466   3.302   2.332 -0.0972  0.1756 -0.0392
 2954SOL    HW118901   9.565   3.304   2.320 -0.2146  0.1816 -1.1365
 2954SOL    HW218902   9.425   3.377   2.280 -0.6834  0.1382  0.3624
 2955SOL     OW18903   2.828   0.995   1.529  0.3499 -0.0664  0.2411
 2955SOL    HW118904   2.819   1.059   1.452 -0.9268 -1.8661 -1.1432
 2955SOL    HW218905   2.889   0.920   1.503 -0.4725 -0.9377  0.8130
 2956SOL     OW18906   2.459   9.154   0.895 -0.3082  0.3906 -0.2876
 2956SOL    HW118907   2.557   9.140   0.905 -0.1722  0.4415 -1.4976
 2956SOL    HW218908   2.410   9.072   0.923 -0.0458  1.0882  2.3315
 2957SOL     OW18909   2.553   6.145   1.741 -0.2623 -0.0906  0.2000
 2957SOL    HW118910   2.632   6.201   1.766 -0.3959  0.4624 -0.5768
 2957SOL    HW218911   2.579   6.048   1.740  0.5590  0.1298 -0.5892
 2958SOL     OW18912   3.796  10.439   1.499 -0.2241  0.0924 -0.1666
 2958SOL    HW118913   3.735  10.517   1.488  0.1186  0.6803  1.9205
 2958SOL    HW218914   3.890  10.468   1.487 -0.0914  0.0361  0.6809
 2959SOL     OW18915   2.151   3.097   0.820 -0.7431 -0.0273 -0.4749
 2959SOL    HW118916   2.068   3.072   0.770 -0.0495 -1.4266 -0.9378
 2959SOL    HW218917   2.145   3.193   0.847 -2.6960 -0.2139 -0.1363
 2960SOL     OW18918   2.788   0.749   0.321  0.4650 -0.0961  0.3881
 2960SOL    HW118919   2.772   0.826   0.260  1.1599 -0.2237  0.0360
 2960SOL    HW218920   2.869   0.698   0.290 -0.5834 -1.5661  0.0289
 2961SOL     OW18921   1.780   3.276   0.776 -0.3965  0.1529 -0.2159
 2961SOL    HW118922   1.836   3.337   0.832  0.9041 -1.5328  0.3808
 2961SOL    HW218923   1.829   3.190   0.762 -2.7291 -1.2566  0.0454
 2962SOL     OW18924   9.091   5.055   0.336 -0.1628 -0.4036  0.4117
 2962SOL    HW118925   9.177   5.104   0.320 -0.0941 -0.9051 -0.8017
 2962SOL    HW218926   9.093   4.968   0.287 -1.2019 -0.6013  0.7141
 2963SOL     OW18927   2.774   9.884   0.144 -0.4591  0.1045  0.2692
 2963SOL    HW118928   2.842   9.871   0.072 -0.3052  2.0827  0.0288
 2963SOL    HW218929   2.694   9.930   0.106 -0.2504  1.4529  1.4275
 2964SOL     OW18930   1.271   8.622   1.685  0.4774  0.3570  0.0977
 2964SOL    HW118931   1.271   8.721   1.672 -0.2645  0.3656  0.1483
 2964SOL    HW218932   1.253   8.601   1.781  1.0270  0.1840  0.1604
 2965SOL     OW18933   3.826  10.522   2.115  0.1099  0.5078 -0.1404
 2965SOL    HW118934   3.906  10.462   2.115 -1.4849 -1.7017  1.3865
 2965SOL    HW218935   3.782  10.518   2.025  0.3041 -0.2569 -0.2094
 2966SOL     OW18936   9.721   4.814   1.158 -0.0267  0.2120 -0.3630
 2966SOL    HW118937   9.688   4.901   1.194 -0.0794  0.7803 -1.7791
 2966SOL    HW218938   9.755   4.826   1.065  3.8100 -0.4478  0.8812
 2967SOL     OW18939   3.085   6.258   1.586  0.7383 -0.6949  0.4220
 2967SOL    HW118940   3.094   6.272   1.684 -0.9546 -2.1548  0.8091
 2967SOL    HW218941   3.076   6.161   1.566 -0.5906 -0.3140 -1.0148
 2968SOL     OW18942   2.072   2.194   1.257  0.0006  0.3807  0.3004
 2968SOL    HW118943   1.979   2.157   1.255  0.0719  0.2090  0.1455
 2968SOL    HW218944   2.106   2.192   1.351  0.3909 -0.9167  0.1440
 2969SOL     OW18945   4.078   8.429   1.215  0.0337  0.3025  0.6345
 2969SOL    HW118946   4.164   8.445   1.167 -0.5273  0.5268 -0.3174
 2969SOL    HW218947   4.096   8.403   1.310  1.1815 -0.7940  0.1211
 2970SOL     OW18948   1.020   6.522   0.565 -0.5645  0.3790  0.1889
 2970SOL    HW118949   0.924   6.541   0.546 -0.5075 -0.0844 -0.5734
 2970SOL    HW218950   1.048   6.440   0.515 -0.3479 -0.7258  2.0555
 2971SOL     OW18951   4.847   1.564   1.639  0.0978  0.5616  0.0247
 2971SOL    HW118952   4.795   1.490   1.683 -0.8413  1.2426  0.0780
 2971SOL    HW218953   4.853   1.547   1.541  2.3357 -1.0481  0.3877
 2972SOL     OW18954   2.989   9.764   1.702 -0.2530 -0.2186  0.1314
 2972SOL    HW118955   2.949   9.703   1.633  0.4712  0.5851 -1.0050
 2972SOL    HW218956   3.018   9.849   1.659 -0.1807  0.4676  1.5118
 2973SOL     OW18957   3.950   2.747   0.694 -0.3921 -0.8635  0.1300
 2973SOL    HW118958   3.890   2.800   0.754  0.2774  0.4314 -0.3171
 2973SOL    HW218959   4.029   2.803   0.668  0.0177 -1.8759 -0.8525
 2974SOL     OW18960   3.297   1.728   2.148  0.2172  0.6174  0.8170
 2974SOL    HW118961   3.287   1.763   2.241  0.3042  2.1658  0.2690
 2974SOL    HW218962   3.301   1.805   2.084  2.8555 -0.3184 -0.2198
 2975SOL     OW18963   4.692   2.351   0.504  0.5290 -0.2774  0.7239
 2975SOL    HW118964   4.706   2.414   0.580  1.2700  1.0074 -0.4619
 2975SOL    HW218965   4.769   2.287   0.499  1.6465  1.1140 -0.3388
 2976SOL     OW18966   1.314   6.565   1.152  0.2007 -0.0561  0.0622
 2976SOL    HW118967   1.388   6.588   1.215 -1.4529 -1.0942  2.4594
 2976SOL    HW218968   1.252   6.643   1.144  0.0081 -0.1777  0.3372
 2977SOL     OW18969   4.052  10.345   2.503 -0.1165  0.6142 -0.2478
 2977SOL    HW118970   4.063  10.317   2.408 -1.9906 -0.0773 -0.2709
 2977SOL    HW218971   3.990  10.423   2.508  2.2107  2.5082  0.1710
 2978SOL     OW18972   1.293   3.898   1.524  0.0495  0.2249  0.4007
 2978SOL    HW118973   1.286   3.985   1.573  0.5207  0.4607  0.0537
 2978SOL    HW218974   1.261   3.910   1.430  0.4411  0.1113  0.2496
 2979SOL     OW18975   0.621   5.961   0.988 -0.2046 -0.2173 -0.2836
 2979SOL    HW118976   0.690   5.937   1.056 -0.3620  0.6263  0.1706
 2979SOL    HW218977   0.633   5.903   0.907  1.5588  0.5124 -0.5567
 2980SOL     OW18978   1.968   3.080   0.614 -0.5757  0.7676  0.1085
 2980SOL    HW118979   1.989   2.982   0.611 -2.5787  0.3364 -0.5815
 2980SOL    HW218980   2.043   3.131   0.570  0.4247 -0.4574  0.3610
 2981SOL     OW18981  10.291   1.534   2.492 -0.2672 -0.5779  0.1166
 2981SOL    HW118982  10.320   1.601   2.424  2.2077 -0.1780  1.5131
 2981SOL    HW218983  10.191   1.532   2.496 -0.4439 -0.3342 -3.2073
 2982SOL     OW18984   2.840   1.588   1.636  0.1907  0.5291  0.3113
 2982SOL    HW118985   2.928   1.636   1.628  0.6054 -0.3128 -0.2173
 2982SOL    HW218986   2.850   1.495   1.602 -1.2033  0.7702 -0.7530
 2983SOL     OW18987   0.866   2.822   0.333 -0.0237 -0.2983 -0.9982
 2983SOL    HW118988   0.836   2.833   0.239 -0.7172  1.4428 -0.5825
 2983SOL    HW218989   0.821   2.889   0.392  1.1740 -0.6795  0.4110
 2984SOL     OW18990   2.051   8.781   1.389 -0.2083 -0.2395 -0.3041
 2984SOL    HW118991   1.972   8.842   1.384 -1.0087 -0.8926  3.3294
 2984SOL    HW218992   2.035   8.701   1.330 -2.2078 -0.3010  0.2875
 2985SOL     OW18993   4.369   1.394   2.248  0.0190  0.0148 -0.2474
 2985SOL    HW118994   4.417   1.306   2.253 -0.7438 -0.4095 -0.2773
 2985SOL    HW218995   4.422   1.464   2.296 -1.1089 -1.2641  2.9670
 2986SOL     OW18996   1.896   1.076   2.405  0.2143  0.5216 -0.2119
 2986SOL    HW118997   1.992   1.095   2.385  1.2301 -2.3387  1.7319
 2986SOL    HW218998   1.859   1.016   2.334  1.0925 -1.8234  1.2852
 2987SOL     OW18999   3.094   7.930   1.745  0.3254  0.7129 -0.4365
 2987SOL    HW119000   3.157   7.956   1.819 -1.4955  2.2721  0.5952
 2987SOL    HW219001   3.145   7.925   1.659  1.9015  1.7310  0.4055
 2988SOL     OW19002   2.841   2.522   2.555  0.1746 -0.2080  0.0149
 2988SOL    HW119003   2.883   2.610   2.537  0.0920 -0.3744 -1.0418
 2988SOL    HW219004   2.741   2.531   2.549  0.2297 -0.9960 -3.2547
 2989SOL     OW19005   4.377   1.988   2.297  0.1132 -0.0753 -0.0216
 2989SOL    HW119006   4.359   1.994   2.395  0.2013 -0.9283  0.0523
 2989SOL    HW219007   4.468   1.950   2.283 -0.3339 -1.0018 -0.4403
 2990SOL     OW19008   0.626   4.067   2.530 -0.1423  0.5685 -0.0166
 2990SOL    HW119009   0.542   4.031   2.490  0.0334 -1.3088  1.2816
 2990SOL    HW219010   0.611   4.090   2.626  1.4335 -1.9885  0.8750
 2991SOL     OW19011   1.928   5.868   1.130 -0.2832 -0.3909 -0.6608
 2991SOL    HW119012   2.004   5.930   1.108 -0.6378  0.3478  0.1637
 2991SOL    HW219013   1.859   5.873   1.058 -0.4255  0.3685 -0.4784
 2992SOL     OW19014   1.964   8.725   2.591 -0.7093 -0.5460  0.4585
 2992SOL    HW119015   2.063   8.707   2.590 -0.6708 -0.2622 -1.4800
 2992SOL    HW219016   1.921   8.668   2.662  0.6790 -1.5476  0.5166
 2993SOL     OW19017   9.559   1.603   0.638  0.4354  0.7088 -0.0189
 2993SOL    HW119018   9.477   1.653   0.667 -0.3699 -0.8316  0.3842
 2993SOL    HW219019   9.635   1.624   0.700 -0.0876  0.9007  0.5553
 2994SOL     OW19020   1.406   4.754   1.369  0.2968 -0.0448 -0.1000
 2994SOL    HW119021   1.418   4.846   1.331 -0.5932 -0.6263 -1.8343
 2994SOL    HW219022   1.483   4.697   1.341  0.2854 -0.1360  0.0543
 2995SOL     OW19023  10.158   4.770   0.407 -0.1869  0.5354 -0.0615
 2995SOL    HW119024  10.074   4.764   0.353 -0.0499 -2.3147 -0.0175
 2995SOL    HW219025  10.236   4.776   0.345 -0.2160  0.1310 -0.1375
 2996SOL     OW19026   2.452   0.899   0.550 -0.6223  0.2208 -0.4990
 2996SOL    HW119027   2.372   0.951   0.521 -0.3223 -0.0434 -1.8386
 2996SOL    HW219028   2.441   0.803   0.522 -0.3340 -0.0426  0.2875
 2997SOL     OW19029   4.289   3.680   0.707 -0.6760 -0.1901  0.6389
 2997SOL    HW119030   4.201   3.640   0.682 -0.1993 -0.4178 -0.6660
 2997SOL    HW219031   4.325   3.733   0.631  1.2056 -1.6297  0.4880
 2998SOL     OW19032   3.102   9.179   1.521  0.1188 -0.4430 -0.6852
 2998SOL    HW119033   3.104   9.273   1.556  1.0449 -0.9514  0.6404
 2998SOL    HW219034   3.068   9.118   1.592  2.8933 -1.6159 -0.3193
 2999SOL     OW19035   0.749  10.491   0.647  0.0363 -0.3972 -0.6141
 2999SOL    HW119036   0.702  10.403   0.658  1.0867 -1.0534 -1.2635
 2999SOL    HW219037   0.808  10.507   0.727  1.5934 -1.3961 -1.5146
 3000SOL     OW19038   3.198   5.200   0.489 -0.2157 -0.1534 -0.6214
 3000SOL    HW119039   3.241   5.147   0.562 -0.2377  0.9638  0.2209
 3000SOL    HW219040   3.268   5.231   0.425  0.2013  1.3002  0.5138
 3001SOL     OW19041   4.093   4.987   1.367  0.3823  0.6673  0.0538
 3001SOL    HW119042   4.079   4.955   1.273  0.4394 -1.2904  0.6921
 3001SOL    HW219043   4.105   4.909   1.428  0.9104  1.9290  1.6211
 3002SOL     OW19044   1.254   9.550   1.670 -0.1362 -0.9458 -0.1938
 3002SOL    HW119045   1.304   9.500   1.600  0.3603 -0.1879 -0.3826
 3002SOL    HW219046   1.194   9.487   1.720  0.6888 -1.7787 -0.2465
 3003SOL     OW19047   3.736   1.065   0.664  0.2419 -0.5035  0.5079
 3003SOL    HW119048   3.688   1.053   0.577 -0.1465 -1.4716  0.8488
 3003SOL    HW219049   3.823   1.110   0.648 -0.8691  1.5219 -0.1008
 3004SOL     OW19050  10.076   2.248   0.963 -0.1660  0.0679  0.0148
 3004SOL    HW119051   9.992   2.301   0.973 -0.0378  0.1328  0.7482
 3004SOL    HW219052  10.054   2.151   0.963 -0.5568  0.1208 -2.7689
 3005SOL     OW19053   1.447   9.448   1.485  0.6068  1.4526  0.4794
 3005SOL    HW119054   1.432   9.394   1.403 -0.5912  1.5364  0.6405
 3005SOL    HW219055   1.542   9.479   1.487  0.9789  0.3764 -0.2189
 3006SOL     OW19056   2.334   8.489   1.558  0.4637  0.0032  0.3863
 3006SOL    HW119057   2.297   8.552   1.490 -1.6572  0.7608  2.1707
 3006SOL    HW219058   2.379   8.413   1.512 -0.8501  0.5405 -1.8573
 3007SOL     OW19059   8.772   2.105   2.570  0.5538  0.0001  0.3328
 3007SOL    HW119060   8.725   2.016   2.574  0.0116  0.2177 -0.9026
 3007SOL    HW219061   8.817   2.122   2.657 -0.1027 -1.0756  0.9063
 3008SOL     OW19062   3.882   0.751   2.239 -0.0769  0.0003 -0.7766
 3008SOL    HW119063   3.810   0.789   2.297  0.5111 -0.1280  0.0470
 3008SOL    HW219064   3.860   0.656   2.215  1.6613 -1.3932  2.7246
 3009SOL     OW19065   1.389   8.704   1.018 -0.7208 -0.4454 -0.2514
 3009SOL    HW119066   1.337   8.780   1.055  0.7752 -0.2498  1.5053
 3009SOL    HW219067   1.359   8.618   1.061  0.7750 -0.2593  1.2217
 3010SOL     OW19068  10.516   3.113   0.660 -0.5083 -0.0265 -0.0938
 3010SOL    HW119069  10.559   3.126   0.750  0.3386 -1.9464 -0.1921
 3010SOL    HW219070  10.416   3.112   0.671 -0.4195  0.1273  0.7831
 3011SOL     OW19071   0.872   2.704   1.720  0.1881 -0.7492 -0.3862
 3011SOL    HW119072   0.945   2.716   1.653 -1.2896  0.4482 -1.8189
 3011SOL    HW219073   0.905   2.728   1.811  1.5746 -0.2445 -1.0188
 3012SOL     OW19074   2.261  10.156   0.830 -0.2508  0.3831  0.2026
 3012SOL    HW119075   2.182  10.204   0.791 -0.5022 -0.1902 -0.0002
 3012SOL    HW219076   2.262  10.062   0.796  0.9873  0.6275 -0.4420
 3013SOL     OW19077   1.836   3.128   0.369  1.0676  0.5940  0.2383
 3013SOL    HW119078   1.871   3.117   0.462 -0.1066 -0.5637  0.5591
 3013SOL    HW219079   1.876   3.057   0.311  0.9597  0.6418  0.1056
 3014SOL     OW19080   4.326   1.492   1.758  0.0574  0.1594 -0.1251
 3014SOL    HW119081   4.293   1.444   1.839 -0.9050  0.2799 -0.4395
 3014SOL    HW219082   4.414   1.536   1.778  0.9906 -1.8010  0.1375
 3015SOL     OW19083   2.787   8.542   0.721 -0.2420 -0.5718 -0.5326
 3015SOL    HW119084   2.871   8.501   0.757 -0.1814 -0.4611 -0.5481
 3015SOL    HW219085   2.710   8.514   0.778 -0.5965 -2.9039 -2.1032
 3016SOL     OW19086   0.606   4.254   2.123 -0.3790 -0.2434 -0.0211
 3016SOL    HW119087   0.595   4.303   2.209  0.0382 -1.6682  0.8620
 3016SOL    HW219088   0.603   4.319   2.047 -1.5108  0.9405  1.0129
 3017SOL     OW19089   8.840   2.646   1.799  0.6873  0.1980 -0.1517
 3017SOL    HW119090   8.857   2.618   1.704 -0.7138  2.1884 -1.0217
 3017SOL    HW219091   8.751   2.692   1.805 -0.3776 -2.0364  2.6000
 3018SOL     OW19092   2.159   2.683   1.234 -0.1102 -0.3222  0.3313
 3018SOL    HW119093   2.173   2.601   1.179 -1.2800  0.4135 -1.0937
 3018SOL    HW219094   2.247   2.724   1.257  0.3767 -0.6249 -0.9971
 3019SOL     OW19095   2.503   4.360   0.723  0.4319 -0.2289 -0.4323
 3019SOL    HW119096   2.541   4.303   0.651  0.9293 -1.3553  0.6971
 3019SOL    HW219097   2.407   4.377   0.705 -0.2100 -2.9939  0.1644
 3020SOL     OW19098  10.009   0.948   2.362  0.0746  0.4299  0.3248
 3020SOL    HW119099  10.092   1.004   2.363 -1.1438  2.2680 -0.5702
 3020SOL    HW219100  10.033   0.854   2.335  1.7873  1.0591 -0.4047
 3021SOL     OW19101   1.964   2.028   0.346  0.5197 -0.1334  0.0851
 3021SOL    HW119102   1.996   2.122   0.341  0.5336 -0.1374  0.1000
 3021SOL    HW219103   1.879   2.024   0.400 -0.2188  0.0627 -1.0381
 3022SOL     OW19104   4.512   2.126   1.338  0.2906  0.1752  0.3070
 3022SOL    HW119105   4.609   2.144   1.354  0.4911 -1.8206  1.4809
 3022SOL    HW219106   4.458   2.206   1.363  1.6810  1.5850 -1.1099
 3023SOL     OW19107   1.873   9.659   1.016  0.0801  0.1399  0.1984
 3023SOL    HW119108   1.811   9.681   0.941  1.1828  0.6076 -0.5904
 3023SOL    HW219109   1.840   9.577   1.063 -0.7143 -0.0726 -0.7030
 3024SOL     OW19110   3.876   5.574   0.622  0.0650  1.0710  0.5859
 3024SOL    HW119111   3.810   5.648   0.636 -0.8988  0.5902 -1.2149
 3024SOL    HW219112   3.925   5.589   0.537 -0.4119 -0.5344  0.0045
 3025SOL     OW19113  10.587   2.358   0.736  0.4539  0.1319  0.2255
 3025SOL    HW119114  10.643   2.280   0.764 -0.0248  0.1557  1.2921
 3025SOL    HW219115  10.507   2.364   0.796 -1.0033 -0.2661 -1.6342
 3026SOL     OW19116   4.115   9.564   2.259 -0.2197 -0.2996 -0.0630
 3026SOL    HW119117   4.140   9.589   2.166 -0.9670  0.2672 -0.1150
 3026SOL    HW219118   4.015   9.559   2.267 -0.1594 -0.4727  0.6720
 3027SOL     OW19119   2.292   3.615   2.088 -0.6835 -0.6644  0.3411
 3027SOL    HW119120   2.199   3.582   2.072 -0.7533  0.1318 -0.9059
 3027SOL    HW219121   2.318   3.680   2.017  0.7089 -0.6180  0.8684
 3028SOL     OW19122  10.392   6.297   1.393  0.4527 -0.0687  0.6539
 3028SOL    HW119123  10.402   6.273   1.489  1.6794 -1.4285  0.2196
 3028SOL    HW219124  10.480   6.284   1.347  0.3062  2.2143 -0.2983
 3029SOL     OW19125   8.995   2.801   2.047 -0.1736 -0.1244 -0.4523
 3029SOL    HW119126   8.963   2.847   1.964 -0.8649  1.5646  0.7150
 3029SOL    HW219127   9.003   2.868   2.121 -0.2489 -1.7192  1.0366
 3030SOL     OW19128   2.039   6.432   2.136  0.3804 -0.7319 -0.1610
 3030SOL    HW119129   2.091   6.500   2.189  0.1601  1.2399 -2.3901
 3030SOL    HW219130   1.944   6.431   2.169 -0.2327  1.8506 -1.6451
 3031SOL     OW19131   2.964   5.426   1.239 -0.5739  0.0002  0.1108
 3031SOL    HW119132   3.013   5.452   1.322 -0.9012  2.5262 -0.4501
 3031SOL    HW219133   2.938   5.330   1.244 -0.6381  0.1426  2.9357
 3032SOL     OW19134   1.481   3.712   1.505 -0.1977 -0.0961  0.7044
 3032SOL    HW119135   1.444   3.634   1.455 -0.7839 -0.1944  1.2791
 3032SOL    HW219136   1.406   3.772   1.533  0.3031  1.0011 -0.2687
 3033SOL     OW19137  10.067   3.821   2.498 -0.0704  0.2338 -0.0433
 3033SOL    HW119138  10.048   3.724   2.511 -0.3930  0.3972  0.7522
 3033SOL    HW219139  10.060   3.844   2.401 -1.0666 -0.3167 -0.1053
 3034SOL     OW19140   3.251   0.863   0.969  0.3652 -0.6410 -0.1146
 3034SOL    HW119141   3.334   0.918   0.965 -0.1116  0.0684 -0.3223
 3034SOL    HW219142   3.207   0.875   1.059  0.1298 -0.4946 -0.2496
 3035SOL     OW19143   1.480   2.423   2.069 -0.3666  0.0158  0.4760
 3035SOL    HW119144   1.476   2.506   2.124 -0.6743 -0.1840  0.7578
 3035SOL    HW219145   1.529   2.352   2.119  1.0844  0.4493 -0.3240
 3036SOL     OW19146   3.021   5.990   1.546 -0.4970  0.4905 -0.7183
 3036SOL    HW119147   3.030   5.982   1.645  1.0635  0.4256 -0.8641
 3036SOL    HW219148   3.080   5.923   1.501  0.4390  1.9580 -1.7138
 3037SOL     OW19149   9.661   3.171   1.167  0.0525 -0.1334  0.1369
 3037SOL    HW119150   9.741   3.119   1.137  0.6189  0.7004  0.1793
 3037SOL    HW219151   9.592   3.108   1.202  0.8276 -0.8384  0.4299
 3038SOL     OW19152   0.841   8.960   2.156 -0.0074  0.1476  0.3926
 3038SOL    HW119153   0.808   9.050   2.183 -1.3594 -0.1127 -0.3595
 3038SOL    HW219154   0.867   8.961   2.060 -0.9746 -0.5251  0.1210
 3039SOL     OW19155   2.380   2.331   1.328  0.3743  0.8244  0.2126
 3039SOL    HW119156   2.337   2.378   1.251  0.6580  1.9081  0.7086
 3039SOL    HW219157   2.321   2.255   1.357  1.0194 -0.6190 -2.0788
 3040SOL     OW19158   3.234  10.297   2.223 -0.8806  0.1072 -0.6685
 3040SOL    HW119159   3.160  10.364   2.217  0.5851  1.8026 -0.1468
 3040SOL    HW219160   3.251  10.259   2.132 -0.5517  1.7328 -1.3076
 3041SOL     OW19161   3.887   4.918   0.733 -0.2883  0.3248  0.0409
 3041SOL    HW119162   3.917   5.004   0.691 -0.7663  1.2389  1.5418
 3041SOL    HW219163   3.791   4.926   0.760 -0.2988 -0.6479  0.3051
 3042SOL     OW19164   3.539   3.359   1.270  0.6483 -0.2251 -0.3381
 3042SOL    HW119165   3.571   3.419   1.342 -1.7807 -1.1249  1.5475
 3042SOL    HW219166   3.576   3.267   1.284  2.0002  0.0910 -1.5817
 3043SOL     OW19167   4.712   1.243   0.720  0.8471 -0.8275  0.3852
 3043SOL    HW119168   4.763   1.327   0.704 -2.8591  1.1641 -1.5344
 3043SOL    HW219169   4.716   1.185   0.639  0.9083 -1.1295  0.6033
 3044SOL     OW19170   2.460   5.027   1.334  0.4337  0.0768  0.1151
 3044SOL    HW119171   2.385   4.979   1.378  0.9264  0.1297  1.0114
 3044SOL    HW219172   2.529   4.962   1.304  0.8630  0.1741  0.8790
 3045SOL     OW19173   4.042   3.380   1.043  0.1923 -0.2830  0.4764
 3045SOL    HW119174   3.984   3.441   0.990 -0.9390  0.6730  2.7768
 3045SOL    HW219175   4.062   3.298   0.989 -1.2905  0.4605 -1.2449
 3046SOL     OW19176   9.361   1.740   1.798 -0.6284  0.4204 -0.2853
 3046SOL    HW119177   9.408   1.772   1.716 -1.3742 -0.5276 -1.0995
 3046SOL    HW219178   9.343   1.818   1.858 -1.1831  1.3356 -1.5934
 3047SOL     OW19179  10.514   1.762   1.729 -0.0420 -0.5985 -0.3509
 3047SOL    HW119180  10.461   1.847   1.729  0.4688 -0.2683  1.2449
 3047SOL    HW219181  10.452   1.684   1.741 -0.5969 -0.5444 -2.5134
 3048SOL     OW19182   3.706   2.500   0.576 -0.3298 -0.3393  0.1115
 3048SOL    HW119183   3.776   2.526   0.643 -0.4356  0.6965 -0.1638
 3048SOL    HW219184   3.726   2.410   0.539  1.7669  0.6400 -1.1725
 3049SOL     OW19185   3.658   5.258   0.740 -0.2838 -0.0090 -0.5923
 3049SOL    HW119186   3.745   5.268   0.789 -0.5671 -0.3809 -0.0081
 3049SOL    HW219187   3.583   5.290   0.798 -0.6365 -0.5881 -0.7242
 3050SOL     OW19188   2.778   6.677   1.219  0.5083  0.1747 -0.8419
 3050SOL    HW119189   2.706   6.732   1.178 -0.5756 -0.8019 -0.2901
 3050SOL    HW219190   2.745   6.639   1.306  1.0911 -1.6335 -1.3945
 3051SOL     OW19191   4.255   4.639   2.127  0.4070 -0.8370 -0.1253
 3051SOL    HW119192   4.317   4.694   2.071 -1.3653  1.4188  0.0497
 3051SOL    HW219193   4.221   4.694   2.203 -0.5365 -2.5453  0.7254
 3052SOL     OW19194   1.745   9.605   0.392  0.6096 -0.4231  0.7140
 3052SOL    HW119195   1.837   9.641   0.375  0.9547 -1.6080 -0.0466
 3052SOL    HW219196   1.748   9.505   0.391 -0.9309 -0.4819 -0.7321
 3053SOL     OW19197   1.469   4.841   0.791  0.3989 -0.6889  0.9471
 3053SOL    HW119198   1.370   4.853   0.799  0.6142  1.4695  0.8307
 3053SOL    HW219199   1.494   4.845   0.694  0.7700  0.5317  1.0819
 3054SOL     OW19200   3.069   1.534   0.381  0.0122 -0.3351 -0.0276
 3054SOL    HW119201   3.014   1.463   0.337 -0.1306 -0.3973  0.2505
 3054SOL    HW219202   3.149   1.554   0.324 -2.0351  2.1754 -2.1281
 3055SOL     OW19203   0.909   2.912   2.374  0.6910  0.1203  0.0783
 3055SOL    HW119204   0.953   2.963   2.299 -0.7474  1.7006  0.2841
 3055SOL    HW219205   0.936   2.953   2.461  1.2666 -0.8573  0.3626
 3056SOL     OW19206   2.156   9.344   1.532  0.3578 -0.2137  0.1569
 3056SOL    HW119207   2.202   9.296   1.457 -1.6620  0.0163 -1.2878
 3056SOL    HW219208   2.118   9.277   1.596 -2.5978 -0.6544 -1.9448
 3057SOL     OW19209   9.815   2.550   0.434 -0.2193 -0.2678 -0.3129
 3057SOL    HW119210   9.840   2.455   0.455 -1.7794 -0.2550  1.7974
 3057SOL    HW219211   9.749   2.551   0.358  0.3637 -0.8182 -0.8315
 3058SOL     OW19212   3.104   0.935   1.253  0.1293  0.2243 -0.2567
 3058SOL    HW119213   3.045   0.993   1.196 -1.3546  0.6986  1.6856
 3058SOL    HW219214   3.046   0.876   1.310  1.5767 -0.3546  0.6251
 3059SOL     OW19215   2.865   1.351   1.499  0.0031  0.8857  0.8367
 3059SOL    HW119216   2.827   1.312   1.416 -0.0953  0.7940  0.9244
 3059SOL    HW219217   2.861   1.283   1.573  1.8927  0.2613  0.4101
 3060SOL     OW19218   4.014   4.873   2.708 -0.2980  0.3706  0.1196
 3060SOL    HW119219   4.100   4.915   2.679 -0.9839  1.9584  0.3368
 3060SOL    HW219220   4.023   4.773   2.705  1.1538  0.5231 -0.9926
 3061SOL     OW19221   4.459   2.620   1.006 -0.5167  0.0042 -0.0126
 3061SOL    HW119222   4.470   2.639   1.104 -0.6285  0.1333 -0.0253
 3061SOL    HW219223   4.397   2.687   0.966 -1.4523 -0.7954  0.0808
 3062SOL     OW19224   3.069   8.315   0.199 -0.2349  0.4296  0.1701
 3062SOL    HW119225   3.041   8.220   0.183 -0.4604  0.2320  1.6986
 3062SOL    HW219226   3.036   8.372   0.123 -1.8894 -0.3644  0.2509
 3063SOL     OW19227   3.519   8.035   0.350  0.4765  0.4519  0.2077
 3063SOL    HW119228   3.601   8.046   0.295  0.7284 -1.4232  0.1500
 3063SOL    HW219229   3.445   8.089   0.312  1.2533  0.9051 -0.6713
 3064SOL     OW19230   0.670   4.776   0.130 -0.2533  0.3810 -0.3998
 3064SOL    HW119231   0.745   4.712   0.143 -1.9855 -1.5580  0.4265
 3064SOL    HW219232   0.651   4.788   0.033  0.1645 -0.2446 -0.5552
 3065SOL     OW19233   3.619   8.460   0.650 -0.7289  0.0790 -0.1603
 3065SOL    HW119234   3.577   8.387   0.704  0.2301 -0.3664 -0.0103
 3065SOL    HW219235   3.640   8.426   0.559 -3.0447  1.0440 -1.1090
 3066SOL     OW19236   1.778  10.156   0.862 -0.6581 -0.2149 -0.4309
 3066SOL    HW119237   1.708  10.227   0.847 -1.1628 -0.8643 -1.2020
 3066SOL    HW219238   1.733  10.070   0.885 -0.0029  0.0075  1.7972
 3067SOL     OW19239   1.317   5.735   0.663 -0.4677  0.4614  0.7387
 3067SOL    HW119240   1.323   5.636   0.651 -0.0757  0.3371  1.8181
 3067SOL    HW219241   1.373   5.780   0.594  0.1947 -0.1209  0.8821
 3068SOL     OW19242   1.079   6.636   2.025  0.0664  0.1261 -0.3529
 3068SOL    HW119243   0.980   6.623   2.025  0.1821 -0.8729 -1.1705
 3068SOL    HW219244   1.119   6.580   1.952  1.3386 -0.3746  0.7128
 3069SOL     OW19245   1.755   7.657   1.247  0.0551  0.3803  0.2164
 3069SOL    HW119246   1.795   7.677   1.336 -1.9017  0.9397  1.0042
 3069SOL    HW219247   1.752   7.558   1.233 -1.0717  0.2255  1.4702
 3070SOL     OW19248   2.880   5.981   1.058  0.4865  0.2959  0.1557
 3070SOL    HW119249   2.869   6.072   1.099  1.4817  0.5286 -0.1029
 3070SOL    HW219250   2.794   5.930   1.068 -0.0393  1.2207  0.3988
 3071SOL     OW19251   3.066   3.351   2.398 -0.4428  0.0832 -0.1149
 3071SOL    HW119252   3.136   3.337   2.468 -0.5463  0.9754  0.1804
 3071SOL    HW219253   3.012   3.431   2.422 -1.1527 -0.2301 -0.6793
 3072SOL     OW19254   2.723   3.391   1.533 -1.0483  0.3353  0.0005
 3072SOL    HW119255   2.694   3.463   1.596 -1.5064 -0.0302  0.2147
 3072SOL    HW219256   2.651   3.322   1.526  0.2094 -1.1773  1.4136
 3073SOL     OW19257   1.145   4.289   0.506 -0.0735  0.0673  0.3504
 3073SOL    HW119258   1.149   4.212   0.569 -1.4683  0.8332  1.4019
 3073SOL    HW219259   1.143   4.255   0.412 -2.8671 -1.2936  0.8453
 3074SOL     OW19260  10.396   6.193   1.864 -0.2104 -0.1949 -0.3942
 3074SOL    HW119261  10.442   6.253   1.799  0.1904  0.5562  0.5661
 3074SOL    HW219262  10.301   6.179   1.836 -0.5685  1.6290 -0.1383
 3075SOL     OW19263  10.030   0.801   1.575 -0.2728 -0.3796  0.2926
 3075SOL    HW119264  10.099   0.816   1.504  0.2136  1.5821  1.1385
 3075SOL    HW219265   9.939   0.820   1.537 -0.0628  0.1574  0.0501
 3076SOL     OW19266   1.567  10.419   2.244  0.6729  0.1265  0.0569
 3076SOL    HW119267   1.657  10.461   2.256  1.8071 -1.9036 -1.1072
 3076SOL    HW219268   1.502  10.487   2.211  2.1399  1.2739 -0.4809
 3077SOL     OW19269   0.804   2.845   2.693 -0.0710  0.0835 -0.5021
 3077SOL    HW119270   0.712   2.806   2.688  0.0815 -0.6131  1.6796
 3077SOL    HW219271   0.868   2.786   2.643 -0.3997 -0.7715  0.0691
 3078SOL     OW19272   1.683   6.072   1.536 -0.4593  0.0721  0.1821
 3078SOL    HW119273   1.724   6.024   1.458  0.7087 -0.1683  0.9431
 3078SOL    HW219274   1.682   6.170   1.518 -0.9018 -0.0440 -0.4628
 3079SOL     OW19275   2.933   6.946   1.626 -0.0031 -0.3649 -0.1028
 3079SOL    HW119276   2.982   6.867   1.587  1.7266  0.3837  0.4827
 3079SOL    HW219277   2.996   7.024   1.632 -1.6369  1.0029 -0.4692
 3080SOL     OW19278   5.194   4.068   2.308 -0.4660 -0.2791 -0.4489
 3080SOL    HW119279   5.146   4.128   2.372  0.4085  0.2301 -0.2678
 3080SOL    HW219280   5.136   4.053   2.228 -0.2079  1.8382 -1.0691
 3081SOL     OW19281   1.691   5.602   2.092  0.1542  0.0459  0.0121
 3081SOL    HW119282   1.749   5.631   2.168 -0.9939  0.5985  0.6951
 3081SOL    HW219283   1.604   5.652   2.095  0.3266  0.4868 -2.0084
 3082SOL     OW19284   4.422   8.827   1.790 -0.2690  0.5660  0.4203
 3082SOL    HW119285   4.369   8.893   1.843  0.6724 -0.2423  2.4083
 3082SOL    HW219286   4.365   8.748   1.767 -0.5897  0.7746  0.5054
 3083SOL     OW19287   0.621   4.098   0.182 -0.6411 -0.0018 -0.4060
 3083SOL    HW119288   0.674   4.073   0.263 -1.2537  0.8582  0.2751
 3083SOL    HW219289   0.556   4.025   0.161  0.1392 -0.6265 -0.6662
 3084SOL     OW19290   2.401   4.288   2.395  0.1193 -0.4843 -0.6486
 3084SOL    HW119291   2.364   4.283   2.488  0.2061 -0.6829 -0.6240
 3084SOL    HW219292   2.435   4.380   2.377  0.7589 -0.6321 -0.2293
 3085SOL     OW19293   9.774   3.207   1.871  0.3025 -0.9101  0.2692
 3085SOL    HW119294   9.810   3.274   1.936  0.0760  0.0913 -0.6280
 3085SOL    HW219295   9.812   3.224   1.781  0.5157 -2.2182  0.1039
 3086SOL     OW19296   9.631   3.804   1.800  0.2493  0.5303 -0.1210
 3086SOL    HW119297   9.677   3.879   1.752  1.3883 -1.8690 -2.8653
 3086SOL    HW219298   9.586   3.744   1.734 -0.0477 -1.5993  1.9502
 3087SOL     OW19299   0.705   2.333   1.970  0.3867  0.3984  0.1289
 3087SOL    HW119300   0.701   2.421   1.922  0.2539  1.0396  1.2907
 3087SOL    HW219301   0.785   2.331   2.030  0.1653 -0.1143  0.4104
 3088SOL     OW19302   0.690   2.953   1.715 -0.4007  0.0125 -0.3469
 3088SOL    HW119303   0.764   2.891   1.742  0.3273  0.2249 -1.8109
 3088SOL    HW219304   0.606   2.925   1.761  0.1815 -1.3381 -0.0523
 3089SOL     OW19305   3.605   1.644   0.949 -0.8144 -0.5777 -0.3487
 3089SOL    HW119306   3.535   1.573   0.935 -0.7892 -0.7193  0.2180
 3089SOL    HW219307   3.582   1.725   0.896 -1.7803 -0.3680  0.3710
 3090SOL     OW19308   2.068   0.814   2.224 -0.2484 -0.1746 -0.2236
 3090SOL    HW119309   2.122   0.739   2.262 -0.1676  0.3092  0.6454
 3090SOL    HW219310   1.973   0.806   2.257 -0.5013 -0.5162 -1.0205
 3091SOL     OW19311   3.207  10.163   1.979 -0.2016  0.2173 -0.2068
 3091SOL    HW119312   3.202  10.197   1.885  0.3837  0.2382 -0.2283
 3091SOL    HW219313   3.175  10.068   1.982 -1.1896  0.5341 -0.2578
 3092SOL     OW19314   2.641   3.942   0.886  0.6772  0.2253 -0.6456
 3092SOL    HW119315   2.740   3.948   0.897  0.4306 -0.2850  2.1896
 3092SOL    HW219316   2.597   4.018   0.934 -0.3253  0.1784 -1.4685
 3093SOL     OW19317   2.666   6.218   0.719  0.5496 -0.1267 -0.0253
 3093SOL    HW119318   2.726   6.148   0.680 -0.1860 -0.7728 -0.0221
 3093SOL    HW219319   2.672   6.302   0.665  2.3640  0.2187  0.6903
 3094SOL     OW19320   1.583   0.766   1.700 -0.4605  0.8226  0.1371
 3094SOL    HW119321   1.672   0.722   1.690 -0.6831  0.5951 -0.9564
 3094SOL    HW219322   1.594   0.853   1.747  0.2031  0.3372  0.8746
 3095SOL     OW19323   1.911   6.707   1.296  0.1399 -0.0693 -0.0692
 3095SOL    HW119324   1.872   6.627   1.250  1.8757 -0.8234 -0.2557
 3095SOL    HW219325   1.856   6.788   1.275 -1.3588 -1.1176 -0.2702
 3096SOL     OW19326  10.509   4.098   1.323  0.4063 -0.4097 -0.3490
 3096SOL    HW119327  10.502   4.016   1.378  1.5804 -0.5794 -0.4362
 3096SOL    HW219328  10.419   4.140   1.313 -0.1707 -1.5982 -0.1854
 3097SOL     OW19329   3.900  10.514   0.276 -0.6900  0.1943 -0.1401
 3097SOL    HW119330   3.832  10.502   0.204 -1.2991 -0.3491  0.5115
 3097SOL    HW219331   3.974  10.449   0.264 -1.6172 -1.0415  0.6553
 3098SOL     OW19332   4.285   9.252   0.353 -0.1239  0.2197 -0.1410
 3098SOL    HW119333   4.204   9.222   0.404 -0.1256 -0.3740 -0.4933
 3098SOL    HW219334   4.321   9.335   0.396 -0.8155  0.3965  0.1227
 3099SOL     OW19335  10.125   2.475   0.478  0.4626  0.4806  0.7252
 3099SOL    HW119336  10.221   2.452   0.463  0.0851 -2.2498  2.1555
 3099SOL    HW219337  10.115   2.520   0.567  0.0800 -2.0216  2.0010
 3100SOL     OW19338   1.185   4.232   1.392  0.2399 -0.2825  0.1190
 3100SOL    HW119339   1.243   4.256   1.314 -0.5778 -0.7275 -0.6360
 3100SOL    HW219340   1.096   4.201   1.359 -0.5639  0.7511  1.2809
 3101SOL     OW19341   3.855   0.935   0.318 -0.2421 -0.5340 -0.1296
 3101SOL    HW119342   3.859   0.932   0.418 -1.2801  1.2957 -0.0021
 3101SOL    HW219343   3.921   1.002   0.284 -0.6191 -0.3964 -0.6016
 3102SOL     OW19344   9.922   1.395   0.556 -0.2698 -0.2969 -0.0065
 3102SOL    HW119345   9.899   1.309   0.600 -2.1251  0.0353 -0.3042
 3102SOL    HW219346  10.020   1.396   0.534 -0.1604 -2.1570  0.3405
 3103SOL     OW19347   1.410   7.705   0.860 -0.1216 -0.1194  0.1176
 3103SOL    HW119348   1.382   7.682   0.954  0.2207  1.0863  0.5241
 3103SOL    HW219349   1.435   7.622   0.812 -0.7246 -0.8027  0.9645
 3104SOL     OW19350   3.231  10.168   1.691  0.1749 -0.1849 -0.3912
 3104SOL    HW119351   3.221  10.099   1.619  1.0299  0.7160 -1.4000
 3104SOL    HW219352   3.327  10.173   1.719  0.3732  1.5683 -1.3278
 3105SOL     OW19353   3.483   1.124   0.793 -0.6955 -0.4531  0.5753
 3105SOL    HW119354   3.428   1.058   0.741 -0.9068  0.3669 -0.2450
 3105SOL    HW219355   3.579   1.112   0.769 -1.0637  2.0146 -2.4199
 3106SOL     OW19356   2.241   6.495   1.220 -0.1779  0.4762  0.1547
 3106SOL    HW119357   2.242   6.595   1.215 -1.6546  0.4643 -1.1718
 3106SOL    HW219358   2.330   6.459   1.194  0.3623  1.4623  0.6410
 3107SOL     OW19359   3.015   4.039   0.724 -0.5336 -0.0960  0.4280
 3107SOL    HW119360   2.975   3.947   0.723  0.1895 -0.4501  2.3425
 3107SOL    HW219361   2.964   4.096   0.788 -1.9206  1.2940 -1.8612
 3108SOL     OW19362   2.036   8.308   0.668 -0.1167  0.4016 -0.0043
 3108SOL    HW119363   1.961   8.260   0.714 -0.1226  0.3836 -0.0330
 3108SOL    HW219364   2.123   8.268   0.697 -0.1274  0.2980 -0.1146
 3109SOL     OW19365   3.098   3.519   0.898  0.4409  0.1178 -0.1687
 3109SOL    HW119366   3.112   3.422   0.919  1.7567 -0.1204 -1.9650
 3109SOL    HW219367   3.020   3.529   0.837  0.4339  0.1582 -0.1531
 3110SOL     OW19368   3.020   1.899   2.585  0.1174 -0.8395  0.0808
 3110SOL    HW119369   2.966   1.926   2.665  1.3474 -0.5636  0.8249
 3110SOL    HW219370   2.972   1.927   2.502  0.1421  1.3217  0.7833
 3111SOL     OW19371   2.599   2.407   2.000 -0.4421 -0.0086  0.0935
 3111SOL    HW119372   2.635   2.462   1.925  1.1326 -0.0527  0.7802
 3111SOL    HW219373   2.638   2.440   2.086 -1.2319 -0.7729  0.7534
 3112SOL     OW19374   3.173   8.475   2.035 -0.3524 -0.2111 -0.3402
 3112SOL    HW119375   3.192   8.427   1.949 -2.6973 -4.2176  1.2850
 3112SOL    HW219376   3.255   8.475   2.092  0.4834  0.2966 -1.5097
 3113SOL     OW19377   4.951   2.968   0.315  0.1782  0.2188 -0.3307
 3113SOL    HW119378   4.973   2.871   0.308  0.3582  0.0348  2.2530
 3113SOL    HW219379   4.985   3.016   0.233 -1.1793 -2.0708 -2.2926
 3114SOL     OW19380  10.095   3.599   0.704 -0.1456 -0.0962  0.0804
 3114SOL    HW119381  10.194   3.599   0.686 -0.1800 -1.5305 -0.1447
 3114SOL    HW219382  10.045   3.610   0.618 -0.2014  0.0268  0.1271
 3115SOL     OW19383   2.109   3.317   2.007  0.1095  0.1931  0.4650
 3115SOL    HW119384   2.113   3.363   1.918 -0.5307 -0.4247  0.1003
 3115SOL    HW219385   2.190   3.259   2.018  2.2288  3.3608  2.0608
 3116SOL     OW19386   5.054   3.282   1.708  0.5712  0.1191 -0.4712
 3116SOL    HW119387   5.006   3.317   1.628  1.0174 -0.5593 -1.0342
 3116SOL    HW219388   5.099   3.196   1.686 -0.0874 -0.5595  0.7646
 3117SOL     OW19389   0.639   1.829   1.968 -0.4218 -0.4140 -0.4613
 3117SOL    HW119390   0.550   1.800   2.001 -1.0972 -1.0827 -2.7857
 3117SOL    HW219391   0.638   1.833   1.868  1.4979  1.7091 -0.4225
 3118SOL     OW19392  10.200   1.341   1.709  0.1497 -0.1108 -0.4146
 3118SOL    HW119393  10.213   1.327   1.808 -0.1758 -0.6098 -0.4412
 3118SOL    HW219394  10.103   1.332   1.687  0.0542  1.2450 -0.5911
 3119SOL     OW19395   8.874   2.550   2.108  0.2752  0.0942  0.2841
 3119SOL    HW119396   8.901   2.485   2.037 -1.3625 -0.5374  0.2211
 3119SOL    HW219397   8.905   2.641   2.084  0.3901 -0.2431 -0.8728
 3120SOL     OW19398  10.238   4.810   2.236  0.0319 -0.5245  0.2074
 3120SOL    HW119399  10.244   4.909   2.245 -0.2562 -0.5603  0.8078
 3120SOL    HW219400  10.153   4.786   2.189  0.8952 -0.4080 -1.4606
 3121SOL     OW19401   3.450   5.241   0.290 -0.3737  0.1318 -0.5626
 3121SOL    HW119402   3.526   5.270   0.348  1.1336 -2.1597 -1.2906
 3121SOL    HW219403   3.432   5.144   0.307 -1.7396  0.1352 -1.9550
 3122SOL     OW19404   2.482   2.472   0.134 -0.2510  0.1701  0.0694
 3122SOL    HW119405   2.520   2.465   0.042  0.0572 -0.1029  0.2188
 3122SOL    HW219406   2.385   2.446   0.133 -0.3408  0.5240 -0.2443
 3123SOL     OW19407   2.205   6.235   1.998  0.3393 -0.3586  0.4192
 3123SOL    HW119408   2.303   6.255   2.004  0.6642 -1.7428 -0.1721
 3123SOL    HW219409   2.154   6.317   2.023  1.6440  0.7626 -0.4683
 3124SOL     OW19410   2.929   5.225   2.245  0.4770  0.4995  0.1909
 3124SOL    HW119411   2.913   5.205   2.341  0.7114  0.2669  0.1828
 3124SOL    HW219412   2.935   5.140   2.193 -1.7565  0.6643 -0.3861
 3125SOL     OW19413   4.833   8.995   1.232 -0.4032 -0.0536 -0.1190
 3125SOL    HW119414   4.931   9.018   1.229 -0.3025 -0.3043  0.9196
 3125SOL    HW219415   4.805   8.955   1.145  0.7441 -1.2456  0.0405
 3126SOL     OW19416   1.668   6.395   0.434  0.0659  0.2839  0.2766
 3126SOL    HW119417   1.672   6.433   0.526  0.3057  0.2930  0.2642
 3126SOL    HW219418   1.636   6.465   0.370  2.5439  1.1394 -0.0960
 3127SOL     OW19419   3.314   1.616   1.769  0.1226  0.5099 -0.7515
 3127SOL    HW119420   3.369   1.592   1.848 -0.9136  1.5032  0.2951
 3127SOL    HW219421   3.367   1.674   1.707  0.7183  0.2823 -0.4539
 3128SOL     OW19422   2.307  10.485   0.916 -0.2712 -0.4197  0.2444
 3128SOL    HW119423   2.402  10.489   0.884 -0.5769  1.7106 -0.5479
 3128SOL    HW219424   2.261  10.406   0.876  1.4614 -2.1271  1.5417
 3129SOL     OW19425   9.840   1.657   0.396 -0.2164 -0.4533  0.0410
 3129SOL    HW119426   9.912   1.594   0.427  2.1288  1.2284 -1.7745
 3129SOL    HW219427   9.822   1.724   0.469  2.2414  0.9080 -0.5242
 3130SOL     OW19428   2.677   3.915   1.639  0.3489 -0.1325 -0.8386
 3130SOL    HW119429   2.761   3.862   1.654 -1.3394 -3.0846 -1.4250
 3130SOL    HW219430   2.645   3.900   1.546 -0.7303  1.1714 -0.6914
 3131SOL     OW19431   1.036   6.893   0.936  0.8127 -0.2172  0.0305
 3131SOL    HW119432   1.035   6.992   0.933 -0.6193 -0.1940  0.6215
 3131SOL    HW219433   1.066   6.862   1.026 -2.7337 -0.2333  1.2851
 3132SOL     OW19434   2.185   8.225   2.340  0.3552 -0.7446  0.4114
 3132SOL    HW119435   2.171   8.230   2.241 -1.9137 -0.1157  0.7402
 3132SOL    HW219436   2.102   8.253   2.387  1.7748  0.0122  2.5300
 3133SOL     OW19437   2.260   9.808   2.387  0.0014 -0.6380 -0.5502
 3133SOL    HW119438   2.240   9.748   2.464  1.8910 -1.1609 -0.4507
 3133SOL    HW219439   2.359   9.822   2.380 -0.4026  2.4454 -0.5847
 3134SOL     OW19440   4.117  10.159   2.688  0.1890 -0.1038  0.3068
 3134SOL    HW119441   4.103  10.229   2.618  3.9300  0.2276 -0.2271
 3134SOL    HW219442   4.106  10.068   2.646  0.7681  0.1176 -0.3454
 3135SOL     OW19443  10.324   2.702   2.596 -0.0350 -0.3800  0.4314
 3135SOL    HW119444  10.246   2.694   2.534  0.2623 -1.6728  0.2185
 3135SOL    HW219445  10.304   2.655   2.682  0.3434 -0.3555  0.5369
 3136SOL     OW19446   2.876   7.105   2.072 -0.0934 -0.1259 -0.0303
 3136SOL    HW119447   2.857   7.065   2.161 -2.0908 -1.0969 -0.8657
 3136SOL    HW219448   2.845   7.043   2.000  1.0045  0.8828 -1.4037
 3137SOL     OW19449   1.914   5.344   2.105  0.2460  0.0575  0.1703
 3137SOL    HW119450   1.959   5.427   2.074  0.0128  1.5044  3.5663
 3137SOL    HW219451   1.952   5.316   2.193 -1.1193 -2.2748  0.0612
 3138SOL     OW19452   1.342   7.362   2.650  0.2235  0.2935  0.6383
 3138SOL    HW119453   1.325   7.460   2.643 -1.1295 -0.1119 -2.3221
 3138SOL    HW219454   1.265   7.312   2.611  1.9374 -1.9179  0.0042
 3139SOL     OW19455  10.491  10.600   0.527 -0.3522  0.3359  0.0801
 3139SOL    HW119456  10.471  10.552   0.442 -0.8584  0.7862 -0.0601
 3139SOL    HW219457  10.578  10.568   0.564 -0.6815 -0.6809 -0.0114
 3140SOL     OW19458  10.447  10.574   0.807  0.6704  0.1834  0.1130
 3140SOL    HW119459  10.466  10.604   0.713  0.6563  0.3765  0.1723
 3140SOL    HW219460  10.370  10.626   0.844  1.1943  0.6790  0.5176
 3141SOL     OW19461   1.460   7.325   0.462  0.4937  0.0062 -0.0352
 3141SOL    HW119462   1.510   7.367   0.387 -1.1661  0.1185 -1.1107
 3141SOL    HW219463   1.393   7.260   0.425 -0.6730  0.4107  1.3181
 3142SOL     OW19464   2.612   9.991   1.062  0.5896 -0.6542 -0.6455
 3142SOL    HW119465   2.528   9.950   1.028 -1.1143  2.7490 -0.6884
 3142SOL    HW219466   2.687   9.971   0.999 -0.6557 -1.8301 -1.7784
 3143SOL     OW19467   3.028   5.580   0.290  0.0321  0.2739  0.5475
 3143SOL    HW119468   2.958   5.510   0.301 -1.5682  2.0293  1.9382
 3143SOL    HW219469   3.012   5.628   0.203 -0.2207  0.3564  0.6366
 3144SOL     OW19470   3.338   5.327   1.527 -0.7314 -0.4543  0.3214
 3144SOL    HW119471   3.281   5.373   1.458 -0.6095 -0.8715 -0.0606
 3144SOL    HW219472   3.296   5.337   1.617 -1.5149 -0.9171  0.0171
 3145SOL     OW19473   1.784   4.063   2.120  0.2163 -0.1861 -0.3998
 3145SOL    HW119474   1.816   4.020   2.204 -0.8467 -0.5456 -0.1609
 3145SOL    HW219475   1.857   4.118   2.080 -0.0410  2.1342  2.1677
 3146SOL     OW19476   3.871   4.582   1.061  0.2187 -0.0132  0.2295
 3146SOL    HW119477   3.779   4.601   1.095  0.3394  0.6413  0.1962
 3146SOL    HW219478   3.901   4.493   1.095 -0.7059 -0.5607 -0.3464
 3147SOL     OW19479   1.161   0.989   0.457  0.5314  0.0724 -0.7008
 3147SOL    HW119480   1.068   0.987   0.493  0.8465  0.6786  0.1677
 3147SOL    HW219481   1.226   0.969   0.532  1.1359  0.3109 -1.1553
 3148SOL     OW19482   2.283   6.086   1.767 -0.6357  0.0569  0.3110
 3148SOL    HW119483   2.253   6.136   1.848  0.3188  4.0800 -1.7150
 3148SOL    HW219484   2.382   6.093   1.758 -0.6870 -0.7103 -0.9676
 3149SOL     OW19485   3.565   1.003   0.456  0.3501  0.3326 -0.1060
 3149SOL    HW119486   3.553   0.948   0.373  0.4959 -0.6489  0.5199
 3149SOL    HW219487   3.491   1.071   0.462  0.5465  0.6579 -1.2260
 3150SOL     OW19488   2.924   9.846   2.527 -0.2809 -0.1947 -0.3519
 3150SOL    HW119489   2.989   9.903   2.578 -0.4497 -0.8609  0.6242
 3150SOL    HW219490   2.959   9.830   2.435 -0.9167  2.6721 -1.1226
 3151SOL     OW19491   1.124   7.230   0.484 -0.6031  0.1163 -0.2073
 3151SOL    HW119492   1.167   7.146   0.517 -0.0553  1.2307  2.0450
 3151SOL    HW219493   1.136   7.302   0.552 -2.5052  1.5727 -1.3613
 3152SOL     OW19494   3.633  10.028   1.393  0.3303  0.8437  0.4560
 3152SOL    HW119495   3.669  10.101   1.335  0.1427 -0.8787 -1.9021
 3152SOL    HW219496   3.700  10.008   1.465  2.9657 -0.4026 -2.2015
 3153SOL     OW19497   2.177   3.441   2.589  0.2375  0.0648  0.3968
 3153SOL    HW119498   2.182   3.540   2.581 -0.8077  0.0758 -0.2358
 3153SOL    HW219499   2.083   3.411   2.571  0.0214 -0.8274  2.8372
 3154SOL     OW19500  10.306   5.385   1.007  0.2121  0.4764  0.0866
 3154SOL    HW119501  10.334   5.295   1.041 -0.1753 -0.3707 -1.7601
 3154SOL    HW219502  10.210   5.401   1.029  1.0998  1.8323  3.2195
 3155SOL     OW19503   3.367   4.809   1.491 -0.1793  0.0555  0.6251
 3155SOL    HW119504   3.446   4.837   1.544 -0.2442  0.7305  0.3630
 3155SOL    HW219505   3.389   4.725   1.441  0.5862  0.5801  0.0624
 3156SOL     OW19506   3.796   2.904   1.440  0.1725  0.1555 -0.2676
 3156SOL    HW119507   3.731   2.892   1.365 -1.0683 -1.7611  1.0915
 3156SOL    HW219508   3.888   2.881   1.409 -0.6502 -2.8197 -0.6299
 3157SOL     OW19509  10.562   3.327   2.524 -0.0131 -0.2033  0.0790
 3157SOL    HW119510  10.577   3.299   2.619 -0.4175  0.6612  0.4085
 3157SOL    HW219511  10.589   3.423   2.513 -1.1731  0.0850 -0.3606
 3158SOL     OW19512   4.185   5.357   2.171  0.1721 -0.0941 -0.4099
 3158SOL    HW119513   4.144   5.286   2.115 -1.4608 -0.2488  0.9419
 3158SOL    HW219514   4.204   5.320   2.263  0.8263  0.7492 -0.2021
 3159SOL     OW19515   2.105   6.144   1.561  0.0998  0.3970 -1.1614
 3159SOL    HW119516   2.178   6.115   1.623 -0.1540 -1.7642 -1.8478
 3159SOL    HW219517   2.018   6.108   1.595 -0.8198  3.5938  0.0877
 3160SOL     OW19518   3.058   5.877   1.841 -0.0583  0.1539 -0.5522
 3160SOL    HW119519   2.985   5.941   1.865 -0.2620  0.3290 -1.6125
 3160SOL    HW219520   3.143   5.926   1.827  0.0727  0.0475 -0.1236
 3161SOL     OW19521   1.919   5.210   0.831 -0.2059 -0.5956 -0.1272
 3161SOL    HW119522   1.996   5.265   0.798 -0.4113  0.0445  0.4490
 3161SOL    HW219523   1.842   5.270   0.851  0.0645 -0.9185  1.9443
 3162SOL     OW19524   2.901   3.808   0.719 -0.0690  0.2223 -0.0486
 3162SOL    HW119525   2.887   3.768   0.809 -0.2018 -1.0849 -0.6284
 3162SOL    HW219526   2.863   3.747   0.650 -1.0807  1.7877 -0.9077
 3163SOL     OW19527   2.341   8.953   1.681 -0.0868 -0.1357  0.2099
 3163SOL    HW119528   2.418   8.893   1.663 -1.0819 -1.4675  0.3503
 3163SOL    HW219529   2.365   9.016   1.755  0.5984 -1.0662  0.7898
 3164SOL     OW19530   8.312   2.391   0.328 -0.3678  0.0481 -0.3581
 3164SOL    HW119531   8.312   2.479   0.281 -0.3046  0.0164 -0.4194
 3164SOL    HW219532   8.293   2.404   0.425  1.6658  0.3358  0.0114
 3165SOL     OW19533   0.896   6.168   2.548 -0.5357  0.1739  0.1072
 3165SOL    HW119534   0.809   6.167   2.500 -0.8563  0.5367  0.6669
 3165SOL    HW219535   0.892   6.233   2.624 -0.4073 -1.1594  1.2811
 3166SOL     OW19536   0.900   9.815   0.140  0.2535  0.7376 -0.4339
 3166SOL    HW119537   0.846   9.836   0.058  0.6114  2.1565 -0.3314
 3166SOL    HW219538   0.945   9.726   0.129  0.2966  0.9137 -1.7890
 3167SOL     OW19539   0.998   7.935   1.544 -0.2888 -0.2065 -0.3224
 3167SOL    HW119540   1.010   7.987   1.628  1.1581 -1.2623  0.1413
 3167SOL    HW219541   1.032   7.842   1.557 -0.4821 -0.5198 -1.9363
 3168SOL     OW19542   2.544   1.985   1.065 -0.4734  0.4896  0.9685
 3168SOL    HW119543   2.525   1.950   0.974 -2.2338  1.1309  1.0677
 3168SOL    HW219544   2.633   2.032   1.066  0.1075 -0.5722 -0.0942
 3169SOL     OW19545   2.033   6.063   2.141 -0.0014  0.0993 -0.0571
 3169SOL    HW119546   2.091   6.118   2.081  0.4705  0.5308  0.7798
 3169SOL    HW219547   2.006   6.117   2.221 -1.0721 -0.2883 -0.1402
 3170SOL     OW19548   4.451   2.034   1.084 -0.2393 -0.7635  0.1487
 3170SOL    HW119549   4.357   2.057   1.062 -1.0855 -1.7841  2.5069
 3170SOL    HW219550   4.476   2.077   1.171  0.3952 -3.1104  1.1523
 3171SOL     OW19551  10.508   2.201   1.788  0.6204 -0.2412 -0.4596
 3171SOL    HW119552  10.592   2.209   1.841 -0.3602 -1.4837  1.3234
 3171SOL    HW219553  10.438   2.261   1.827 -1.0759 -3.4594  1.6533
 3172SOL     OW19554   0.651   6.192   1.296  0.3911  0.6977  0.1238
 3172SOL    HW119555   0.684   6.194   1.391  0.2768  2.0310  0.1452
 3172SOL    HW219556   0.722   6.156   1.236  0.1804 -0.9292  0.8175
 3173SOL     OW19557  10.317   5.782   0.343 -0.6607  0.2768 -0.1303
 3173SOL    HW119558  10.263   5.705   0.308 -1.7320  1.7350 -1.7614
 3173SOL    HW219559  10.263   5.835   0.408  0.4751 -0.9770  1.8984
 3174SOL     OW19560   3.991   3.083   0.358 -0.1445 -0.5616  0.2451
 3174SOL    HW119561   3.923   3.128   0.300  1.1484 -2.4260 -2.8727
 3174SOL    HW219562   4.046   3.153   0.405 -0.5798  1.0567 -1.5760
 3175SOL     OW19563   4.091   8.573   0.444 -0.2259  0.3768  0.1600
 3175SOL    HW119564   4.122   8.521   0.524  2.7851  0.3294 -0.9770
 3175SOL    HW219565   4.087   8.512   0.365  0.8233  1.2754 -0.6052
 3176SOL     OW19566   2.555   8.359   0.972 -0.1623 -0.3175 -0.0635
 3176SOL    HW119567   2.553   8.272   0.924  4.5071 -1.1324  0.9623
 3176SOL    HW219568   2.534   8.345   1.069  0.1871 -0.2391  0.0247
 3177SOL     OW19569   2.270   8.669   0.260 -0.2824  0.5589  0.3568
 3177SOL    HW119570   2.345   8.699   0.320  1.0834  1.2571 -1.6268
 3177SOL    HW219571   2.294   8.581   0.218 -0.4998  0.8494 -0.3876
 3178SOL     OW19572   4.458   2.167   0.728  0.0938  0.4311 -0.2228
 3178SOL    HW119573   4.478   2.144   0.633  0.3668  0.8789 -0.2774
 3178SOL    HW219574   4.419   2.087   0.774  1.4962 -0.3046 -0.2774
 3179SOL     OW19575   9.502   2.966   0.904 -0.1257  0.0900  0.1053
 3179SOL    HW119576   9.546   2.939   0.990 -1.0354  0.0316  0.5578
 3179SOL    HW219577   9.430   3.033   0.923 -0.4147 -0.0182 -0.6033
 3180SOL     OW19578   8.679   2.451   1.082 -0.0637 -0.3022 -0.3146
 3180SOL    HW119579   8.671   2.542   1.122  1.8547  0.2643 -1.1804
 3180SOL    HW219580   8.662   2.382   1.153 -1.5598  0.7182  0.3261
 3181SOL     OW19581   9.158   3.218   1.032  0.0509 -0.2552  0.7733
 3181SOL    HW119582   9.241   3.267   1.057  1.2097 -1.0009 -1.4664
 3181SOL    HW219583   9.086   3.284   1.008  0.2653  0.3774  1.8558
 3182SOL     OW19584   4.161   2.928   2.402 -0.3089 -0.4030  0.3731
 3182SOL    HW119585   4.137   2.979   2.319  0.0194 -0.1560  0.4306
 3182SOL    HW219586   4.257   2.902   2.399 -0.6684 -1.7246 -0.0291
 3183SOL     OW19587   2.487  10.535   1.961 -0.1261  0.3165 -0.6871
 3183SOL    HW119588   2.414  10.574   2.017  0.8228 -0.5682  1.1922
 3183SOL    HW219589   2.520  10.605   1.898 -1.0880  1.3798 -0.0369
 3184SOL     OW19590  10.268   4.115   1.689  0.5138  0.6656  0.6180
 3184SOL    HW119591  10.234   4.021   1.680  0.8570  0.6564 -0.6337
 3184SOL    HW219592  10.244   4.150   1.780 -1.3706  0.0707  0.3810
 3185SOL     OW19593   1.428   2.203   1.586 -0.0354  0.3207  0.1381
 3185SOL    HW119594   1.486   2.266   1.638  1.7216 -0.6833 -0.5661
 3185SOL    HW219595   1.485   2.140   1.534 -1.7738 -0.5946 -0.7160
 3186SOL     OW19596   1.116   6.929   2.049  0.6367 -0.4002 -0.2547
 3186SOL    HW119597   1.216   6.935   2.044  0.6834 -1.7059 -0.8843
 3186SOL    HW219598   1.085   6.843   2.009 -0.7987  0.3159 -0.7110
 3187SOL     OW19599   1.767   8.289   1.580  0.4564 -0.0788  0.4960
 3187SOL    HW119600   1.748   8.387   1.579  1.0320  0.0573  1.6521
 3187SOL    HW219601   1.744   8.249   1.491 -2.5863  0.5735  0.9251
 3188SOL     OW19602   2.430   1.177   0.379 -0.3860  0.3274  0.4379
 3188SOL    HW119603   2.496   1.183   0.454  0.4868 -1.4159 -0.1534
 3188SOL    HW219604   2.376   1.094   0.389 -0.0067 -0.1145 -1.0589
 3189SOL     OW19605   4.244   3.331   2.105  0.6033 -0.1785 -0.5642
 3189SOL    HW119606   4.242   3.289   2.196 -0.0672  2.1349  0.5178
 3189SOL    HW219607   4.335   3.368   2.086  0.3733  0.5412 -0.2695
 3190SOL     OW19608   1.244   5.520   1.630 -0.4179  0.3865 -0.3881
 3190SOL    HW119609   1.210   5.581   1.559  0.2324  0.0584 -0.9845
 3190SOL    HW219610   1.337   5.490   1.607 -0.0164  0.6646  0.8341
 3191SOL     OW19611   9.626   2.981   1.948  1.0175  0.4914 -0.2356
 3191SOL    HW119612   9.645   2.901   1.892 -1.8894 -0.1545 -0.4035
 3191SOL    HW219613   9.670   3.062   1.908  0.4579 -0.2770 -2.4590
 3192SOL     OW19614   2.996   9.389   1.672  0.0603  0.0506  0.1036
 3192SOL    HW119615   2.926   9.333   1.716  0.2131  0.2700  0.6374
 3192SOL    HW219616   2.953   9.455   1.611 -0.0906 -1.0410 -0.9983
 3193SOL     OW19617   3.506   9.615   1.778 -0.0053 -0.0002 -0.3526
 3193SOL    HW119618   3.597   9.583   1.749  0.1766 -0.7279  1.0032
 3193SOL    HW219619   3.450   9.630   1.697  0.9758 -0.5987 -1.1636
 3194SOL     OW19620   9.839   2.957   1.097 -0.0129 -0.1688  0.2864
 3194SOL    HW119621   9.932   2.970   1.133  0.4602 -1.5910 -0.4252
 3194SOL    HW219622   9.796   2.879   1.142  0.1307 -1.1978 -1.3345
 3195SOL     OW19623   0.887   9.267   0.868  0.3823  0.2876 -0.1853
 3195SOL    HW119624   0.833   9.227   0.794 -0.8336  0.9883  0.3175
 3195SOL    HW219625   0.846   9.245   0.956  1.6462 -0.2670  0.2783
 3196SOL     OW19626   1.264  10.018   1.148  0.0813  0.1683 -0.3247
 3196SOL    HW119627   1.290  10.024   1.244  0.9664  0.7020 -0.5976
 3196SOL    HW219628   1.190  10.083   1.130 -0.5950 -0.4518  0.1547
 3197SOL     OW19629   0.848   3.926   1.378 -0.1792  0.9593 -0.5084
 3197SOL    HW119630   0.863   3.951   1.473  1.6974 -1.9463 -0.0009
 3197SOL    HW219631   0.768   3.866   1.371  0.9289 -0.5600 -0.4414
 3198SOL     OW19632   3.589   8.076   2.229 -0.1265 -0.2797  0.2747
 3198SOL    HW119633   3.660   8.077   2.159  1.3929 -0.1304  1.7680
 3198SOL    HW219634   3.573   8.170   2.261 -0.8885 -0.3325  0.0573
 3199SOL     OW19635   1.097   3.065   1.772  0.1694 -0.1261 -0.2167
 3199SOL    HW119636   1.092   3.165   1.778  1.6160 -0.0644  0.0112
 3199SOL    HW219637   1.178   3.039   1.720 -1.1513 -1.1488 -1.7815
 3200SOL     OW19638   3.030   8.304   0.512 -0.6251  0.0070 -0.2438
 3200SOL    HW119639   3.068   8.253   0.435  1.2438  1.4652 -0.3179
 3200SOL    HW219640   3.059   8.262   0.598  1.6611  1.3823 -0.2886
 3201SOL     OW19641   9.768   3.241   2.409 -0.1794 -0.0211  0.5980
 3201SOL    HW119642   9.706   3.163   2.403  0.1100 -0.1550 -0.9486
 3201SOL    HW219643   9.849   3.225   2.352  0.7756  0.6122  1.7405
 3202SOL     OW19644   1.587   1.128   1.090 -0.3450 -1.0608 -0.0959
 3202SOL    HW119645   1.600   1.029   1.090  0.3754 -0.9719 -0.2687
 3202SOL    HW219646   1.502   1.151   1.138  0.5389 -1.6302  1.7964
 3203SOL     OW19647   4.585   8.868   1.277 -0.1025 -0.3611  0.3054
 3203SOL    HW119648   4.546   8.890   1.366 -0.0048  1.7363 -0.1432
 3203SOL    HW219649   4.685   8.872   1.282 -0.0767 -0.8811  0.2541
 3204SOL     OW19650   2.243   1.924   0.684 -0.1604 -0.0322 -0.1722
 3204SOL    HW119651   2.199   1.976   0.757  0.3421 -0.7423  0.6476
 3204SOL    HW219652   2.227   1.969   0.596  0.9473  1.9508  0.6159
 3205SOL     OW19653   0.863   1.464   1.194 -0.0548  0.3925  0.4901
 3205SOL    HW119654   0.768   1.454   1.165  0.1186 -2.2620  0.7007
 3205SOL    HW219655   0.867   1.522   1.275 -1.6026 -0.2588  1.0495
 3206SOL     OW19656   2.489   0.756   2.238 -0.2143  0.0666 -0.1371
 3206SOL    HW119657   2.442   0.806   2.165 -1.0982 -0.6057 -0.0515
 3206SOL    HW219658   2.423   0.697   2.285  0.8248 -1.2686 -0.3260
 3207SOL     OW19659   3.009   4.843   2.304 -0.2656 -0.3110 -0.0551
 3207SOL    HW119660   3.045   4.842   2.211 -0.1745 -0.6613 -0.0167
 3207SOL    HW219661   2.923   4.894   2.306 -1.3053 -2.0004 -0.7181
 3208SOL     OW19662   2.477  10.293   0.491  0.5410 -0.3166  0.5339
 3208SOL    HW119663   2.386  10.307   0.453 -0.6202 -2.2559  2.4829
 3208SOL    HW219664   2.541  10.271   0.417 -0.6555  0.5554 -0.7906
 3209SOL     OW19665   1.341   1.489   2.059  0.3741 -0.0532  0.0469
 3209SOL    HW119666   1.342   1.471   1.961  2.3407 -3.3000  0.6130
 3209SOL    HW219667   1.369   1.407   2.109 -0.3330  1.6155  3.3318
 3210SOL     OW19668   2.007   3.673   1.777  0.2714  0.2165  0.6665
 3210SOL    HW119669   1.967   3.681   1.685  0.8520 -0.1035  0.3798
 3210SOL    HW219670   1.944   3.712   1.844  0.7186  2.2825 -0.0738
 3211SOL     OW19671  10.509   3.881   1.503  0.3273  0.4772 -0.2029
 3211SOL    HW119672  10.584   3.840   1.452  2.1057  0.1276  2.5477
 3211SOL    HW219673  10.441   3.810   1.525  1.3516 -0.1813  0.9671
 3212SOL     OW19674   2.855   2.885   0.150 -0.1681 -0.2348 -0.2615
 3212SOL    HW119675   2.886   2.942   0.226 -0.6761 -0.1317 -0.1286
 3212SOL    HW219676   2.805   2.806   0.185  1.4280 -1.3360 -0.3964
 3213SOL     OW19677   1.567   4.707   0.254  0.2561 -0.1489 -0.2971
 3213SOL    HW119678   1.486   4.763   0.236 -0.3193 -0.7277  0.4769
 3213SOL    HW219679   1.601   4.669   0.168 -0.6757 -0.4234 -0.5521
 3214SOL     OW19680   4.167   3.668   0.132 -0.5672 -0.0514 -0.0419
 3214SOL    HW119681   4.160   3.581   0.085 -1.4822  0.5451 -1.0354
 3214SOL    HW219682   4.082   3.686   0.182  0.4583 -0.7769  2.0461
 3215SOL     OW19683   1.141   9.828   2.124 -0.1229  0.2196 -0.4517
 3215SOL    HW119684   1.222   9.769   2.120  0.7103  1.2079  1.4147
 3215SOL    HW219685   1.059   9.772   2.113  0.7325 -1.0191 -0.7005
 3216SOL     OW19686   2.288   5.477   2.227 -0.2366 -0.2657  0.0895
 3216SOL    HW119687   2.202   5.442   2.264 -0.2971 -0.0201  0.1785
 3216SOL    HW219688   2.359   5.473   2.297 -0.4475  0.5658  0.3518
 3217SOL     OW19689  10.294   5.348   0.188  0.0766 -0.0286 -0.2693
 3217SOL    HW119690  10.346   5.361   0.104 -0.6157 -0.5213 -0.7866
 3217SOL    HW219691  10.355   5.318   0.261  0.2567 -2.4309 -1.3422
 3218SOL     OW19692   2.824   1.953   2.089 -0.2660 -0.5725 -0.0191
 3218SOL    HW119693   2.726   1.940   2.104 -0.4589 -1.2826 -1.8648
 3218SOL    HW219694   2.848   1.925   1.996  1.5372  0.4297  0.1291
 3219SOL     OW19695   2.648   6.619   1.457 -0.1385 -0.1428 -0.2603
 3219SOL    HW119696   2.663   6.546   1.524  1.0725 -0.6105 -1.0372
 3219SOL    HW219697   2.550   6.641   1.455 -0.5045 -1.6264  0.1016
 3220SOL     OW19698   0.719   6.983   0.121 -0.1713 -0.3736  0.3605
 3220SOL    HW119699   0.626   6.954   0.146  1.5748 -3.0717  4.2122
 3220SOL    HW219700   0.754   6.924   0.048 -0.4677 -1.2167  0.8906
 3221SOL     OW19701   4.761   3.207   0.952  0.5947  0.4236 -0.4110
 3221SOL    HW119702   4.753   3.140   1.026 -1.6474  0.3774 -0.6524
 3221SOL    HW219703   4.791   3.295   0.990  1.2562 -0.0921  0.2754
 3222SOL     OW19704   1.594   1.005   1.838 -0.4019 -0.0760 -0.1199
 3222SOL    HW119705   1.647   1.007   1.923  0.7454  0.9863 -0.8503
 3222SOL    HW219706   1.500   1.033   1.858 -0.9242 -2.6658  1.3081
 3223SOL     OW19707  10.157   4.014   0.396  0.2174 -0.6275  0.0890
 3223SOL    HW119708  10.131   3.980   0.306 -0.8980  0.1742  0.1000
 3223SOL    HW219709  10.241   3.969   0.425  1.6010  0.4215 -2.1452
 3224SOL     OW19710   3.116   6.569   1.895 -0.5724  0.2482  0.1376
 3224SOL    HW119711   3.192   6.629   1.872  0.0809  0.1236  1.8350
 3224SOL    HW219712   3.047   6.571   1.823  1.7108 -0.7790 -2.1294
 3225SOL     OW19713  10.185   2.693   2.121 -0.1812 -0.4325 -0.0407
 3225SOL    HW119714  10.263   2.725   2.174  0.5551  0.1395 -1.4427
 3225SOL    HW219715  10.164   2.599   2.146 -0.4099  0.1088  1.8963
 3226SOL     OW19716   2.685   6.240   2.432  0.8904 -0.2596  0.4074
 3226SOL    HW119717   2.759   6.285   2.483  0.6625 -1.9115  2.2500
 3226SOL    HW219718   2.722   6.165   2.378  0.4645 -1.6112  1.9743
 3227SOL     OW19719   4.157   5.288   0.321  0.7124  0.1356  0.0951
 3227SOL    HW119720   4.068   5.335   0.322 -0.0846 -1.3469 -0.3232
 3227SOL    HW219721   4.207   5.311   0.404  0.2829  1.6368 -0.0478
 3228SOL     OW19722   1.753   2.370   2.681 -0.1655 -1.0907  0.0037
 3228SOL    HW119723   1.737   2.329   2.771 -1.5154 -1.1033 -0.2233
 3228SOL    HW219724   1.699   2.321   2.612 -0.9592  0.3526 -0.4333
 3229SOL     OW19725   3.718   9.562   1.989  0.1737  0.1422  0.5167
 3229SOL    HW119726   3.703   9.473   1.945  0.8087  0.4660 -0.3582
 3229SOL    HW219727   3.807   9.597   1.963  0.2918  0.6376  1.5705
 3230SOL     OW19728   2.790   7.298   2.593 -0.9257  0.2434 -0.2453
 3230SOL    HW119729   2.846   7.296   2.510  0.0512 -1.8247  0.4453
 3230SOL    HW219730   2.849   7.285   2.673 -2.0897  0.4939  0.6645
 3231SOL     OW19731   3.242   2.096   1.317  0.2601  0.7960 -0.3306
 3231SOL    HW119732   3.272   2.017   1.370  1.6910  0.7380 -1.1930
 3231SOL    HW219733   3.145   2.086   1.294  0.3223 -0.5083 -0.0701
 3232SOL     OW19734   2.881   0.780   1.899 -1.0126 -0.1332 -0.3105
 3232SOL    HW119735   2.818   0.725   1.954 -2.2214  1.0368 -0.4804
 3232SOL    HW219736   2.927   0.847   1.958  1.3536 -2.0662  0.1120
 3233SOL     OW19737   9.921   3.624   0.490  1.0691 -0.1399  0.4360
 3233SOL    HW119738   9.856   3.699   0.476  0.8429 -0.0735  1.7522
 3233SOL    HW219739   9.872   3.538   0.497  1.3190 -0.4026 -0.9079
 3234SOL     OW19740   1.276   3.014   0.879 -1.0001  0.1346 -0.7524
 3234SOL    HW119741   1.280   2.926   0.833  0.6277  0.0216 -0.4314
 3234SOL    HW219742   1.332   3.080   0.829 -0.9001  0.5526 -0.0988
 3235SOL     OW19743   9.629   2.360   0.887  0.6537 -0.3016 -0.9716
 3235SOL    HW119744   9.605   2.395   0.797 -1.0080  0.9746 -0.0670
 3235SOL    HW219745   9.560   2.294   0.916  1.2316 -0.7762 -0.6636
 3236SOL     OW19746   2.983   5.658   1.694  0.2911  0.1021 -0.1277
 3236SOL    HW119747   3.027   5.724   1.755  0.1073 -1.2126  1.4753
 3236SOL    HW219748   2.970   5.699   1.604  2.1261  1.5114  0.2119
 3237SOL     OW19749   9.424   1.263   1.122  0.2608  0.0780  0.0409
 3237SOL    HW119750   9.445   1.166   1.112 -2.4394 -0.6491  0.9020
 3237SOL    HW219751   9.489   1.317   1.068  1.6363 -2.1896 -0.6676
 3238SOL     OW19752   9.507   1.443   0.246  0.4119 -0.6176 -0.7435
 3238SOL    HW119753   9.508   1.524   0.304 -0.0945 -0.8792 -0.3662
 3238SOL    HW219754   9.424   1.390   0.264  2.0516 -2.7167  1.1109
 3239SOL     OW19755   3.287   3.494   0.263  0.6928  0.3095 -0.0069
 3239SOL    HW119756   3.338   3.579   0.251 -0.4143  1.5097  3.3484
 3239SOL    HW219757   3.221   3.504   0.337 -1.5466 -2.5614 -1.4977
 3240SOL     OW19758   4.118   9.295   1.459  0.1924  0.0770  0.0988
 3240SOL    HW119759   4.174   9.212   1.461 -0.2563 -0.2291  0.1182
 3240SOL    HW219760   4.174   9.372   1.430  0.6417 -0.2128  0.1894
 3241SOL     OW19761   3.238   8.582   2.432  0.0088 -0.0528  0.2641
 3241SOL    HW119762   3.255   8.526   2.350  0.1962  0.2728  0.0797
 3241SOL    HW219763   3.182   8.661   2.407  0.4333  0.2809  0.3650
 3242SOL     OW19764   9.304   4.652   2.229  0.5605  0.9973  0.4532
 3242SOL    HW119765   9.274   4.629   2.137  1.9605  1.4856 -0.1377
 3242SOL    HW219766   9.404   4.650   2.233  0.7166  5.1545  0.8283
 3243SOL     OW19767   2.741   0.726   2.146 -0.0345  0.2151  0.1401
 3243SOL    HW119768   2.739   0.651   2.081  1.2427  0.5104 -0.2616
 3243SOL    HW219769   2.650   0.740   2.185 -0.4524 -0.9947 -0.3966
 3244SOL     OW19770   1.793   6.386   2.532  0.7235 -0.2511 -0.0169
 3244SOL    HW119771   1.800   6.353   2.626 -2.3398  1.4166  0.8728
 3244SOL    HW219772   1.816   6.483   2.529  1.4818 -0.4615 -1.1174
 3245SOL     OW19773   1.273   7.641   2.613 -0.6702 -0.0048  0.0977
 3245SOL    HW119774   1.321   7.694   2.543  0.8147  0.4259  1.4204
 3245SOL    HW219775   1.181   7.619   2.580  0.2168 -0.3740 -2.2530
 3246SOL     OW19776   0.792   4.161   2.324  0.3127  0.0089 -0.4023
 3246SOL    HW119777   0.735   4.195   2.249 -0.6810  2.6507  1.4614
 3246SOL    HW219778   0.733   4.135   2.401  1.4324 -1.0026  0.1255
 3247SOL     OW19779   3.160   1.059   2.587 -0.0219  0.0684 -0.3799
 3247SOL    HW119780   3.205   1.143   2.557 -1.1612  0.6021 -0.6385
 3247SOL    HW219781   3.180   0.985   2.524 -0.0117  0.4567 -0.8332
 3248SOL     OW19782   2.898  10.299   1.928 -0.1052 -0.1500 -0.5524
 3248SOL    HW119783   2.992  10.311   1.895  0.3455 -0.4077  0.6231
 3248SOL    HW219784   2.899  10.250   2.015 -1.3898 -0.9235 -0.9572
 3249SOL     OW19785   3.005   2.654   2.217 -0.2918  1.0526 -0.2075
 3249SOL    HW119786   3.081   2.590   2.216 -1.0683  0.1347 -1.3169
 3249SOL    HW219787   2.998   2.696   2.308 -0.2013 -0.9546  0.7555
 3250SOL     OW19788   2.465   3.840   1.840 -0.8610  0.0275 -0.2798
 3250SOL    HW119789   2.397   3.768   1.828 -0.4979 -0.3199 -0.2740
 3250SOL    HW219790   2.537   3.830   1.772 -0.5573  0.0899  0.0290
 3251SOL     OW19791   2.411   3.067   0.211 -0.7047 -0.0355 -0.1431
 3251SOL    HW119792   2.441   3.089   0.303 -2.1851 -0.1769  0.3884
 3251SOL    HW219793   2.353   3.141   0.176 -0.6271 -0.2509 -0.7411
 3252SOL     OW19794   1.155   4.486   1.526 -0.2341 -0.1115 -0.2555
 3252SOL    HW119795   1.185   4.414   1.463  1.1448  0.6180 -0.4606
 3252SOL    HW219796   1.066   4.461   1.565 -0.1305 -1.5592 -0.8922
 3253SOL     OW19797   1.974   0.851   1.550  0.2887 -0.2477  0.1901
 3253SOL    HW119798   1.943   0.759   1.524  0.9353 -0.1004 -1.1783
 3253SOL    HW219799   2.073   0.850   1.564  0.5620  0.5934 -1.5318
 3254SOL     OW19800   2.506   5.128   1.708  0.3540 -0.0606 -0.1297
 3254SOL    HW119801   2.471   5.038   1.735 -0.9401  1.2731  2.7755
 3254SOL    HW219802   2.430   5.189   1.686  1.0270  1.4710  1.6789
 3255SOL     OW19803   2.863   3.311   0.615  0.0425  0.6007 -0.1545
 3255SOL    HW119804   2.775   3.265   0.603  0.1619  0.0492  0.9738
 3255SOL    HW219805   2.929   3.246   0.654  0.4899  1.4430  0.5090
 3256SOL     OW19806   1.037   5.387   2.428  0.2181  0.7730  0.1224
 3256SOL    HW119807   1.031   5.330   2.510 -0.0243 -0.2628 -0.5955
 3256SOL    HW219808   0.946   5.423   2.405  0.2138  0.7447  0.0947
 3257SOL     OW19809   8.829   2.555   0.858 -0.6477  0.1734  0.2739
 3257SOL    HW119810   8.748   2.579   0.913  0.1382  2.5916  0.4368
 3257SOL    HW219811   8.855   2.633   0.801  0.1844 -1.3951 -1.5261
 3258SOL     OW19812  10.337   4.071   0.950 -0.5479 -0.7588  0.5984
 3258SOL    HW119813  10.402   4.147   0.948 -1.6194  0.1689 -0.4530
 3258SOL    HW219814  10.383   3.987   0.979  0.7592  0.1940  1.3111
 3259SOL     OW19815   3.111   6.421   0.822  0.2853 -0.1702 -0.0306
 3259SOL    HW119816   3.107   6.399   0.920 -0.3289 -0.5176 -0.1324
 3259SOL    HW219817   3.056   6.502   0.804 -0.7384 -0.9175 -0.3099
 3260SOL     OW19818   1.542   0.755   0.667 -0.4082  0.0905 -0.5483
 3260SOL    HW119819   1.571   0.660   0.655 -3.4667 -0.7638 -1.7455
 3260SOL    HW219820   1.621   0.815   0.660  1.0964 -2.1007 -3.4555
 3261SOL     OW19821   9.498   4.623   1.144 -0.1481 -0.2670 -0.4864
 3261SOL    HW119822   9.545   4.544   1.105  0.4048 -0.0434 -0.2858
 3261SOL    HW219823   9.562   4.700   1.150  0.1972 -0.6772  2.0940
 3262SOL     OW19824   4.120   4.916   0.859 -0.2837  0.4120  0.6824
 3262SOL    HW119825   4.119   5.016   0.852 -0.3700  0.3477 -0.2562
 3262SOL    HW219826   4.038   4.879   0.817 -1.3184  0.0534  2.9627
 3263SOL     OW19827   2.135  10.463   1.985  0.0677  0.3234 -0.5275
 3263SOL    HW119828   2.125  10.546   1.930  0.0824  0.2327 -0.6640
 3263SOL    HW219829   2.218  10.415   1.958  0.2749  0.4786 -0.1671
 3264SOL     OW19830   1.185   6.194   2.450  0.1115  0.4181  0.0783
 3264SOL    HW119831   1.086   6.208   2.453  0.0129 -0.3968  1.0156
 3264SOL    HW219832   1.231   6.277   2.482 -0.3147  0.3117  0.9806
 3265SOL     OW19833   3.217   3.638   2.631 -0.3891 -0.3952 -0.2334
 3265SOL    HW119834   3.129   3.685   2.639 -0.7109 -0.8460 -1.0676
 3265SOL    HW219835   3.227   3.574   2.707 -0.0632  0.8154  0.7632
 3266SOL     OW19836  10.425   6.465   1.998 -0.6394  0.1507 -0.4984
 3266SOL    HW119837  10.346   6.525   2.012 -1.5721 -1.4235  1.2845
 3266SOL    HW219838  10.393   6.375   1.967  0.3569 -0.7149  0.9076
 3267SOL     OW19839   5.120   2.280   0.399 -0.5455 -0.5251 -0.2363
 3267SOL    HW119840   5.129   2.244   0.306  1.0896 -0.0349 -0.2789
 3267SOL    HW219841   5.210   2.306   0.433 -1.2112 -0.2016  1.2921
 3268SOL     OW19842   4.379   3.863   0.229  0.2705  0.2281  0.4084
 3268SOL    HW119843   4.466   3.870   0.181  0.3484  0.6923  0.6106
 3268SOL    HW219844   4.314   3.811   0.174 -0.4195  2.8181 -1.3337
 3269SOL     OW19845   4.309   9.059   1.489  0.3460  0.2973  0.4141
 3269SOL    HW119846   4.226   9.004   1.485  0.3801  0.3382 -1.0040
 3269SOL    HW219847   4.384   9.004   1.526 -0.1230  0.0307  0.9675
 3270SOL     OW19848   3.426  10.183   1.114 -0.2876  0.5892  0.2437
 3270SOL    HW119849   3.372  10.212   1.035  1.2248  2.6522 -0.0960
 3270SOL    HW219850   3.472  10.097   1.094 -1.9078 -0.1919 -0.1707
 3271SOL     OW19851   2.073   7.165   0.097 -0.0918  0.6988  0.4022
 3271SOL    HW119852   2.155   7.210   0.132  0.1582  0.6259 -0.0815
 3271SOL    HW219853   2.022   7.229   0.039  0.4824  0.2443 -0.6283
 3272SOL     OW19854   4.074   8.673   2.369  0.3971 -0.0263  0.4223
 3272SOL    HW119855   3.991   8.629   2.403 -0.6462  0.4189 -1.4887
 3272SOL    HW219856   4.096   8.638   2.279  1.6005  0.7412  0.4058
 3273SOL     OW19857   1.319   3.653   2.342 -0.2940  0.7607  0.1538
 3273SOL    HW119858   1.223   3.640   2.367 -0.4914  1.2821 -0.3142
 3273SOL    HW219859   1.376   3.588   2.392 -0.8525  0.7083  0.7243
 3274SOL     OW19860   9.933   4.559   0.848  0.5887  0.4933  0.3741
 3274SOL    HW119861   9.999   4.544   0.774 -0.8682 -0.8941 -0.6633
 3274SOL    HW219862   9.947   4.490   0.920  0.2271  0.1590  0.1238
 3275SOL     OW19863   2.089   4.345   0.989  0.0077  0.3311 -0.5147
 3275SOL    HW119864   2.009   4.386   1.033 -0.4222  0.0883 -1.0527
 3275SOL    HW219865   2.121   4.405   0.915 -0.0549  0.1397 -0.6984
 3276SOL     OW19866   1.647   4.302   1.054  0.0093  0.0681 -0.8903
 3276SOL    HW119867   1.633   4.366   0.978  0.7080 -0.1109 -1.1749
 3276SOL    HW219868   1.738   4.316   1.093  0.2051 -0.8231 -1.0186
 3277SOL     OW19869   1.042   8.085   1.768  0.0863 -0.1051 -0.0570
 3277SOL    HW119870   1.042   8.181   1.798  1.3850  0.4479 -1.7683
 3277SOL    HW219871   1.127   8.041   1.798  1.5694  0.5514 -3.1143
 3278SOL     OW19872   1.215   2.089   0.885  0.0799 -0.5912  0.2138
 3278SOL    HW119873   1.290   2.130   0.936 -0.2902  0.8168 -0.3486
 3278SOL    HW219874   1.142   2.062   0.949  0.2955 -0.2969  0.5841
 3279SOL     OW19875   4.861   3.604   1.512  0.1400 -0.1528 -0.1621
 3279SOL    HW119876   4.875   3.507   1.535  0.7149  0.3269  1.6432
 3279SOL    HW219877   4.778   3.637   1.557  0.4497  0.4262 -0.0077
 3280SOL     OW19878   3.638   4.148   1.656 -0.5355  0.3039 -0.5548
 3280SOL    HW119879   3.677   4.176   1.568 -0.2017  0.8437 -0.2418
 3280SOL    HW219880   3.708   4.101   1.709 -0.9424 -0.6415 -0.8591
 3281SOL     OW19881  10.465   6.136   1.605 -0.1020 -0.1255 -0.0383
 3281SOL    HW119882  10.382   6.086   1.582 -0.4592 -0.6450  2.2356
 3281SOL    HW219883  10.540   6.073   1.618 -0.7763 -0.2442  3.7820
 3282SOL     OW19884  10.211   1.683   0.382  0.2685 -0.3010  0.3349
 3282SOL    HW119885  10.308   1.701   0.364 -0.0765 -1.3202 -2.9194
 3282SOL    HW219886  10.175   1.752   0.445  2.6963  1.1297  0.2135
 3283SOL     OW19887   4.176   5.377   1.488 -0.0276 -0.2226  0.2603
 3283SOL    HW119888   4.207   5.357   1.394 -2.2798  0.3751 -0.6370
 3283SOL    HW219889   4.096   5.322   1.508 -0.5327  0.8709  1.2617
 3284SOL     OW19890   3.654   1.772   0.581  0.1556  0.0121 -1.0032
 3284SOL    HW119891   3.604   1.707   0.639  3.2878 -0.8018  0.9315
 3284SOL    HW219892   3.709   1.721   0.515  0.6329  0.7603 -1.1805
 3285SOL     OW19893   1.335   9.676   2.639 -0.2048 -0.1773 -0.1865
 3285SOL    HW119894   1.423   9.664   2.687 -0.1074 -1.3765 -0.6424
 3285SOL    HW219895   1.353   9.700   2.543 -0.3647 -0.8953 -0.3982
 3286SOL     OW19896   9.404   1.660   2.589  0.3244  0.0619 -0.3211
 3286SOL    HW119897   9.350   1.711   2.522  0.4186 -1.4250 -1.5585
 3286SOL    HW219898   9.435   1.574   2.548 -1.1739 -1.7472  2.2201
 3287SOL     OW19899   4.556   1.616   2.294 -0.2379  0.0495 -0.3461
 3287SOL    HW119900   4.570   1.713   2.274  0.0728  0.1845  0.5149
 3287SOL    HW219901   4.556   1.602   2.393  0.4060 -0.9262 -0.4806
 3288SOL     OW19902   1.453   5.546   2.385 -0.3095 -0.1718 -0.5041
 3288SOL    HW119903   1.515   5.468   2.393 -0.5775 -0.3227  0.1911
 3288SOL    HW219904   1.459   5.601   2.469  1.1707  1.5209 -1.6802
 3289SOL     OW19905   3.326   1.954   1.018 -0.1221 -0.8318  0.3325
 3289SOL    HW119906   3.419   1.987   1.028 -0.1219 -0.8634  0.4319
 3289SOL    HW219907   3.271   1.982   1.097 -1.2581  2.7028 -1.5925
 3290SOL     OW19908   3.793   2.107   0.175  0.3907 -0.5810  0.3190
 3290SOL    HW119909   3.780   2.099   0.076  1.2556 -0.2182  0.1719
 3290SOL    HW219910   3.733   2.043   0.222 -0.7659 -0.0452 -0.4004
 3291SOL     OW19911   1.446   7.088   1.240 -0.4511  0.0402  0.4237
 3291SOL    HW119912   1.478   7.035   1.161 -2.3481  1.3549 -1.2729
 3291SOL    HW219913   1.362   7.045   1.276  0.2802 -0.4234  1.6122
 3292SOL     OW19914   1.571   1.522   1.295 -0.5399  0.0878 -0.0261
 3292SOL    HW119915   1.503   1.500   1.365  0.6577  2.0885  1.8366
 3292SOL    HW219916   1.626   1.440   1.276 -0.8484 -0.4718  1.4089
 3293SOL     OW19917   3.544   3.165   1.937  0.1140 -0.1044  0.1659
 3293SOL    HW119918   3.566   3.067   1.945 -0.5582 -0.2734  0.0117
 3293SOL    HW219919   3.553   3.208   2.027  2.5418  0.1591 -0.1825
 3294SOL     OW19920   1.222   2.655   2.180  0.7783 -0.0841  0.5048
 3294SOL    HW119921   1.313   2.617   2.164  0.7369  0.2742 -0.5595
 3294SOL    HW219922   1.225   2.715   2.260  1.9832  1.6692 -0.8185
 3295SOL     OW19923   2.907   3.881   0.994 -0.1858  0.3859 -0.0115
 3295SOL    HW119924   2.911   3.863   1.092 -0.0386 -1.1463 -0.2893
 3295SOL    HW219925   2.922   3.979   0.977  0.7733  0.4954  1.4184
 3296SOL     OW19926   3.584   3.339   1.704  0.7277 -0.2333 -0.0080
 3296SOL    HW119927   3.648   3.301   1.637 -0.0331 -1.1145 -0.2298
 3296SOL    HW219928   3.562   3.270   1.773  0.4966  0.2655  0.4250
 3297SOL     OW19929   1.175   2.055   2.331 -0.1876 -0.6634 -0.3544
 3297SOL    HW119930   1.168   2.014   2.422  0.7903 -2.2611 -0.9919
 3297SOL    HW219931   1.155   1.987   2.261  1.3265 -0.0447 -1.4267
 3298SOL     OW19932   2.690   7.466   0.591 -0.2421  0.3312  0.4698
 3298SOL    HW119933   2.623   7.528   0.633 -0.5656  1.3898 -1.5396
 3298SOL    HW219934   2.766   7.520   0.555  1.1688 -0.7723  1.7514
 3299SOL     OW19935   2.462   8.606   0.934  0.4738  0.1008 -0.2061
 3299SOL    HW119936   2.396   8.617   0.860  0.8321 -0.7067 -0.6486
 3299SOL    HW219937   2.494   8.511   0.937  2.4798  0.7260 -0.7451
 3300SOL     OW19938   1.634   1.957   1.633  0.3779 -0.0335 -0.6101
 3300SOL    HW119939   1.640   1.859   1.653 -0.5694  0.3988  2.1480
 3300SOL    HW219940   1.585   1.971   1.547  0.3837 -1.9800 -0.9482
 3301SOL     OW19941   2.005   3.797   2.547  0.1552 -0.7459 -0.1595
 3301SOL    HW119942   1.936   3.801   2.619  0.0072 -1.3862 -0.2644
 3301SOL    HW219943   2.095   3.821   2.586 -0.5107  2.6854 -0.5616
 3302SOL     OW19944   0.944   5.663   1.795 -0.2116  0.2795  0.0904
 3302SOL    HW119945   0.997   5.588   1.837  1.1167  0.0753 -1.8993
 3302SOL    HW219946   1.007   5.732   1.760 -1.2924  0.3150 -1.8087
 3303SOL     OW19947   9.143   2.133   1.704  0.6019 -0.1187  0.3930
 3303SOL    HW119948   9.100   2.223   1.703  2.4146  0.7525  0.5733
 3303SOL    HW219949   9.104   2.079   1.780  0.1879  0.8242  0.8595
 3304SOL     OW19950   2.812   8.455   1.168  0.2218  0.3899  0.2658
 3304SOL    HW119951   2.736   8.501   1.213  1.2705  2.4288  0.0541
 3304SOL    HW219952   2.861   8.521   1.110  1.8485 -0.9833  0.0154
 3305SOL     OW19953   2.524   8.096   0.905 -0.4261 -0.7097 -0.4007
 3305SOL    HW119954   2.467   8.070   0.983  0.6218 -0.7300  0.3692
 3305SOL    HW219955   2.608   8.042   0.906 -0.7850 -1.3184 -2.0338
 3306SOL     OW19956   0.985   3.513   1.364  0.4770  0.4524  0.1030
 3306SOL    HW119957   1.038   3.469   1.437  0.2745 -0.4671 -0.3031
 3306SOL    HW219958   0.929   3.444   1.317 -0.2024  1.2224 -0.2256
 3307SOL     OW19959   3.645   4.186   1.388 -0.8574 -0.6665  0.0337
 3307SOL    HW119960   3.559   4.139   1.409 -1.1295  0.1751  0.8452
 3307SOL    HW219961   3.638   4.282   1.416 -0.4638 -0.0255 -2.0064
 3308SOL     OW19962   0.782   2.154   0.316 -0.0752  0.0642  0.3628
 3308SOL    HW119963   0.718   2.079   0.299 -1.5585  1.1734  0.9144
 3308SOL    HW219964   0.836   2.171   0.233 -0.5454 -0.8375 -0.1403
 3309SOL     OW19965   3.115   6.098   0.106  0.0074 -0.0401  0.7971
 3309SOL    HW119966   3.204   6.054   0.093  0.8078  0.9941  2.5507
 3309SOL    HW219967   3.072   6.114   0.018  2.6394  1.6621 -0.2275
 3310SOL     OW19968   3.523   3.819   2.573 -0.0519  0.3002  0.4368
 3310SOL    HW119969   3.507   3.748   2.642 -1.1250  1.3131  1.2669
 3310SOL    HW219970   3.557   3.902   2.618  0.7284  0.4725 -0.4585
 3311SOL     OW19971   2.124   9.183   2.448  0.4365 -0.2622 -0.4078
 3311SOL    HW119972   2.219   9.211   2.460  0.8441 -0.9167 -1.9668
 3311SOL    HW219973   2.099   9.119   2.521 -0.1165  3.0629  2.4122
 3312SOL     OW19974   1.188  10.144   2.463 -0.4940 -0.4928  0.2818
 3312SOL    HW119975   1.244  10.147   2.546  0.5508  1.8366 -0.4510
 3312SOL    HW219976   1.093  10.124   2.488 -0.1862  0.1575  2.0508
 3313SOL     OW19977   1.858   2.482   1.486 -0.3527  0.3709 -0.3059
 3313SOL    HW119978   1.920   2.561   1.481  0.3774 -0.2883 -2.3076
 3313SOL    HW219979   1.875   2.432   1.571  1.8429  0.2387 -0.7918
 3314SOL     OW19980   2.636   8.595   1.355 -0.0968 -0.3890  0.3829
 3314SOL    HW119981   2.581   8.642   1.424 -0.0387  1.0617 -0.5467
 3314SOL    HW219982   2.704   8.658   1.318  1.3039 -1.7711  0.5395
 3315SOL     OW19983  10.041   2.803   0.281 -0.7219  0.4347 -0.1276
 3315SOL    HW119984   9.987   2.832   0.202 -1.4147  2.1661  0.9515
 3315SOL    HW219985  10.006   2.847   0.364  1.8641  1.0314  0.7191
 3316SOL     OW19986   1.207   2.790   2.462 -0.0894 -0.3317  0.3645
 3316SOL    HW119987   1.300   2.766   2.489 -0.0088 -1.3558 -0.7743
 3316SOL    HW219988   1.209   2.871   2.404  0.1645 -0.7456 -0.2093
 3317SOL     OW19989   1.483   4.305   1.917 -0.5974  0.1709  0.4519
 3317SOL    HW119990   1.549   4.372   1.883 -1.3727  0.5599 -0.3217
 3317SOL    HW219991   1.508   4.276   2.009  0.3820  0.6645  0.3450
 3318SOL     OW19992   2.045   9.940   2.473  0.1510  0.4240 -0.3010
 3318SOL    HW119993   2.001   9.964   2.387  0.5858  0.3122 -0.5557
 3318SOL    HW219994   2.137   9.903   2.455  0.0644 -0.0300  0.1772
 3319SOL     OW19995   2.209   8.007   2.646  0.1947  0.7720 -0.7883
 3319SOL    HW119996   2.137   7.956   2.599 -0.2380  1.1421 -0.5244
 3319SOL    HW219997   2.286   8.021   2.583  1.0170 -1.6545 -0.3547
 3320SOL     OW19998   2.667   6.224   1.315 -0.0594 -0.2953  0.7543
 3320SOL    HW119999   2.744   6.218   1.252  1.1870  1.3021  2.0649
 3320SOL    HW220000   2.643   6.132   1.347  0.8733 -0.8692 -0.1623
 3321SOL     OW20001   2.536   2.314   0.347 -0.6312 -0.2155 -0.3878
 3321SOL    HW120002   2.515   2.371   0.267  2.4072  0.6447 -0.6168
 3321SOL    HW220003   2.604   2.359   0.404 -2.9761 -0.7013  2.9038
 3322SOL     OW20004   1.381   9.096   1.469  0.2904  0.1249 -0.5476
 3322SOL    HW120005   1.339   9.040   1.541 -0.1775  0.4941 -0.5313
 3322SOL    HW220006   1.459   9.147   1.508 -0.2779  0.7158 -0.1783
 3323SOL     OW20007   0.753   5.759   1.253 -0.5066  0.2818 -0.3337
 3323SOL    HW120008   0.729   5.710   1.169 -2.4141 -1.1214  0.9858
 3323SOL    HW220009   0.686   5.738   1.324  1.7369  0.5171  1.9115
 3324SOL     OW20010   2.641   7.589   2.245 -0.4199 -0.1267  0.1574
 3324SOL    HW120011   2.593   7.579   2.158  1.7592 -2.1749 -0.8914
 3324SOL    HW220012   2.626   7.507   2.301  1.9986 -0.9732 -0.3326
 3325SOL     OW20013   1.789   5.452   2.463  0.1889 -0.1975 -0.3384
 3325SOL    HW120014   1.734   5.385   2.413 -1.5810  0.8245  0.1947
 3325SOL    HW220015   1.790   5.539   2.412  0.4267  0.1074  0.1818
 3326SOL     OW20016   2.617   5.841   1.979 -0.0690 -0.9184 -0.0547
 3326SOL    HW120017   2.625   5.847   1.880  1.1323  1.6828  0.1720
 3326SOL    HW220018   2.627   5.745   2.007  2.0087 -1.3912 -2.2460
 3327SOL     OW20019   0.826   6.828   0.744 -0.7144 -0.2173 -0.5148
 3327SOL    HW120020   0.885   6.837   0.824  0.8717 -2.5562 -1.3625
 3327SOL    HW220021   0.769   6.746   0.753 -1.3590  0.1385 -1.2597
 3328SOL     OW20022   1.145   1.430   0.267 -0.2235 -0.1871  0.2452
 3328SOL    HW120023   1.227   1.479   0.238 -0.9894 -0.8132 -3.0921
 3328SOL    HW220024   1.161   1.331   0.260 -1.6080 -0.3061 -1.5066
 3329SOL     OW20025   9.195   2.610   2.376 -0.4152  0.2594  0.2320
 3329SOL    HW120026   9.234   2.533   2.427 -1.7298 -1.6669 -1.5452
 3329SOL    HW220027   9.096   2.614   2.392 -1.0807 -1.1960 -3.0616
 3330SOL     OW20028   4.679   1.730   1.952 -0.0018  0.5024  0.0604
 3330SOL    HW120029   4.726   1.781   1.880  0.8847  2.0465  1.6924
 3330SOL    HW220030   4.586   1.765   1.961  0.3804  1.3763  0.6985
 3331SOL     OW20031   3.975   3.221   2.389  0.1228  0.5416 -0.2821
 3331SOL    HW120032   3.883   3.236   2.352  0.4918  2.2944 -0.5073
 3331SOL    HW220033   3.967   3.179   2.480 -0.8538 -0.6936 -0.9162
 3332SOL     OW20034   2.857   4.198   2.218 -0.2290 -0.6537 -0.3645
 3332SOL    HW120035   2.884   4.146   2.137  0.5880 -1.2850  0.3067
 3332SOL    HW220036   2.927   4.191   2.288 -0.9322 -0.1185  0.4166
 3333SOL     OW20037   1.073   3.772   1.343  0.1754 -0.2099  0.0200
 3333SOL    HW120038   1.032   3.681   1.348  0.0772 -0.1646  0.0391
 3333SOL    HW220039   1.008   3.840   1.377  0.3921 -0.1775  0.3670
 3334SOL     OW20040   2.353   5.341   1.666 -0.7874 -0.1465  0.4746
 3334SOL    HW120041   2.382   5.428   1.708 -0.5763 -0.2990  0.6442
 3334SOL    HW220042   2.369   5.346   1.567 -0.2967 -0.1825  0.5513
 3335SOL     OW20043   9.577   3.182   0.557 -0.1112 -0.1067 -0.8561
 3335SOL    HW120044   9.619   3.154   0.643 -0.9267 -1.6642 -0.9379
 3335SOL    HW220045   9.612   3.272   0.530  1.4515 -0.3823  0.1999
 3336SOL     OW20046   3.136   3.279   1.006  0.0789 -0.1813  0.5671
 3336SOL    HW120047   3.208   3.214   1.032 -0.0032 -0.6209 -0.2847
 3336SOL    HW220048   3.119   3.342   1.082  1.8449  0.3606  0.5461
 3337SOL     OW20049   1.683   3.578   2.693 -0.8218 -0.6478  0.4152
 3337SOL    HW120050   1.744   3.650   2.726 -0.4427  0.0790 -1.7786
 3337SOL    HW220051   1.735   3.493   2.683 -0.8709 -0.7928  1.3961
 3338SOL     OW20052   9.821   2.863   2.436  0.3396  0.2665  0.1702
 3338SOL    HW120053   9.872   2.896   2.357  1.2597 -0.8344  0.2935
 3338SOL    HW220054   9.740   2.813   2.405 -1.2921  2.9203 -0.0149
 3339SOL     OW20055   2.453   5.346   2.689  0.4622  0.1201  0.3755
 3339SOL    HW120056   2.394   5.270   2.662  0.0663  0.8019 -0.7235
 3339SOL    HW220057   2.495   5.327   2.777  0.2414 -1.3055  0.1726
 3340SOL     OW20058   4.776   4.232   1.681 -0.2907 -0.3126  0.5955
 3340SOL    HW120059   4.768   4.318   1.632  1.3928 -0.1862  0.5068
 3340SOL    HW220060   4.795   4.250   1.778  2.3523 -0.5411  0.1696
 3341SOL     OW20061   2.018   7.654   1.804 -0.2065 -0.6343 -0.3420
 3341SOL    HW120062   2.048   7.733   1.857 -0.3670 -0.7476 -0.0797
 3341SOL    HW220063   1.959   7.596   1.860 -0.9339 -0.4040 -0.8535
 3342SOL     OW20064   4.308   2.659   2.203 -0.0058 -0.5206 -0.2083
 3342SOL    HW120065   4.238   2.619   2.261  1.7127 -1.8271  1.0312
 3342SOL    HW220066   4.353   2.734   2.252 -1.3395  1.1137 -1.4602
 3343SOL     OW20067  10.004   5.613   2.095  0.4934  0.1330 -0.1018
 3343SOL    HW120068   9.920   5.647   2.052  0.8470  1.2273  0.0563
 3343SOL    HW220069  10.083   5.645   2.043  0.7911 -1.9722 -1.0061
 3344SOL     OW20070   3.508   4.285   2.136 -0.2896  0.0025  0.7364
 3344SOL    HW120071   3.501   4.212   2.068 -0.7126 -1.2152  2.0766
 3344SOL    HW220072   3.417   4.301   2.176 -0.3166  1.6680  0.0382
 3345SOL     OW20073   2.489   8.995   2.136 -0.1382  0.1508  0.3544
 3345SOL    HW120074   2.463   8.936   2.060 -2.6750  1.3159  0.2574
 3345SOL    HW220075   2.526   9.081   2.101 -0.3474  0.2793  0.4489
 3346SOL     OW20076   9.716   5.135   2.428 -0.1364  0.3685 -0.4827
 3346SOL    HW120077   9.777   5.056   2.426 -0.7238 -0.1094  0.1307
 3346SOL    HW220078   9.764   5.214   2.465 -0.7208 -0.7494  2.8185
 3347SOL     OW20079   2.317   4.430   0.443  0.4847 -0.0313  0.2608
 3347SOL    HW120080   2.416   4.437   0.431  0.4800  0.1537  0.3190
 3347SOL    HW220081   2.279   4.522   0.452  0.0858 -0.0099 -1.4705
 3348SOL     OW20082  10.282   3.009   1.988  0.4136 -0.5817  0.7821
 3348SOL    HW120083  10.199   3.044   2.030  0.0410 -0.1248 -0.3115
 3348SOL    HW220084  10.355   3.005   2.056 -0.4028 -0.6536  1.6637
 3349SOL     OW20085   3.832   1.645   0.397 -0.2609 -0.2604 -0.5034
 3349SOL    HW120086   3.865   1.704   0.324  1.5042 -1.6233 -0.8297
 3349SOL    HW220087   3.909   1.607   0.448 -1.3883 -1.3904  0.4217
 3350SOL     OW20088  10.359   2.648   1.716  0.6635 -0.3893  0.1590
 3350SOL    HW120089  10.338   2.591   1.636  0.8688  0.0919 -0.2408
 3350SOL    HW220090  10.275   2.683   1.756  0.6386  0.7934 -0.8937
 3351SOL     OW20091  10.501   1.689   1.266  0.1001 -0.5317 -0.1698
 3351SOL    HW120092  10.584   1.706   1.319 -0.3515 -1.8412  0.9714
 3351SOL    HW220093  10.478   1.771   1.214  1.2866  0.3322  0.6312
 3352SOL     OW20094   2.019   2.690   0.155 -0.5507 -0.0883 -0.0837
 3352SOL    HW120095   2.114   2.663   0.141 -0.3557  0.4860  0.1106
 3352SOL    HW220096   1.964   2.659   0.078  0.4982  2.9870 -2.1499
 3353SOL     OW20097   1.770   9.999   0.191 -0.3431 -0.5948  0.2055
 3353SOL    HW120098   1.756  10.047   0.105 -2.2676 -2.3842 -0.5166
 3353SOL    HW220099   1.846   9.935   0.182 -0.7111 -0.9678 -0.2577
 3354SOL     OW20100   3.256  10.229   0.904 -0.1230  0.1874  0.2229
 3354SOL    HW120101   3.191  10.220   0.979 -1.3571  1.0993 -0.7385
 3354SOL    HW220102   3.223  10.178   0.824  1.2709 -0.9250  0.3280
 3355SOL     OW20103   3.702  10.407   1.818 -0.0189  0.6997  0.2771
 3355SOL    HW120104   3.784  10.463   1.828  0.6459  0.0497 -1.5194
 3355SOL    HW220105   3.639  10.450   1.753  1.0454 -1.2185 -2.0886
 3356SOL     OW20106   3.016  10.662   0.198 -0.3558 -0.0830  0.2576
 3356SOL    HW120107   3.098  10.606   0.213  0.3008 -0.0870 -3.0406
 3356SOL    HW220108   3.040  10.758   0.201 -0.6227 -0.0400  1.2623
 3357SOL     OW20109   0.940  10.365   1.764 -0.2812 -0.4817  0.4168
 3357SOL    HW120110   1.021  10.423   1.750  0.4991 -1.2100  1.8698
 3357SOL    HW220111   0.870  10.390   1.697  0.0667  2.1029  0.9794
 3358SOL     OW20112   2.176   9.957   1.402  0.2761 -0.2089  0.2049
 3358SOL    HW120113   2.179   9.923   1.496 -0.6773 -0.1267  0.2737
 3358SOL    HW220114   2.138   9.887   1.342  0.2511 -0.0183 -0.0014
 3359SOL     OW20115   4.048   3.455   2.631  0.2307 -0.4874  0.5204
 3359SOL    HW120116   3.977   3.435   2.699 -0.1577  2.4040  1.0178
 3359SOL    HW220117   4.004   3.483   2.546  0.7728 -1.4136 -0.0772
 3360SOL     OW20118   4.464   1.608   1.532 -0.0175  0.1648 -0.2762
 3360SOL    HW120119   4.384   1.564   1.574  0.0575 -0.6283 -0.9468
 3360SOL    HW220120   4.435   1.689   1.482 -0.4007 -0.0805 -0.4586
 3361SOL     OW20121   1.520   1.798   1.247 -0.1083  0.9548  0.6349
 3361SOL    HW120122   1.423   1.797   1.223 -0.0702 -0.1172  0.4894
 3361SOL    HW220123   1.543   1.712   1.293  1.3862  0.0478 -1.7529
 3362SOL     OW20124   3.198   4.399   0.396 -0.1299 -0.0555  0.1044
 3362SOL    HW120125   3.124   4.405   0.463 -0.1669  1.3183 -0.0409
 3362SOL    HW220126   3.265   4.471   0.413  1.0704 -1.1508  0.0927
 3363SOL     OW20127   3.776   4.551   0.501 -0.2364  0.0086 -0.3567
 3363SOL    HW120128   3.822   4.510   0.580 -0.4392 -1.4418 -0.9747
 3363SOL    HW220129   3.793   4.649   0.500 -0.0261  0.0142  1.3530
 3364SOL     OW20130   3.045   1.301   1.276  0.4314 -0.5164 -0.0635
 3364SOL    HW120131   3.004   1.388   1.301  0.7600 -0.8994  1.8904
 3364SOL    HW220132   2.973   1.237   1.247  0.1217  0.1679 -0.8158
 3365SOL     OW20133   1.010   5.202   2.629  0.3802  0.2081  0.0135
 3365SOL    HW120134   0.934   5.139   2.646  2.6145 -2.5857 -0.1705
 3365SOL    HW220135   1.087   5.179   2.688  2.0344  1.3724 -1.6330
 3366SOL     OW20136   3.845   4.496   0.786 -0.3266  0.3367  0.2305
 3366SOL    HW120137   3.850   4.408   0.834 -2.1577  0.9345  1.5792
 3366SOL    HW220138   3.875   4.569   0.848 -0.7286  0.8784 -0.2114
 3367SOL     OW20139   9.648   4.496   0.841 -0.1007 -0.3128  0.4832
 3367SOL    HW120140   9.694   4.475   0.755  0.4544 -1.9654  1.1685
 3367SOL    HW220141   9.712   4.483   0.917 -0.2516  2.2208  1.0784
 3368SOL     OW20142  10.535   2.360   2.454  0.0236  0.4744 -0.3201
 3368SOL    HW120143  10.483   2.374   2.370  0.7746  0.1426 -0.8541
 3368SOL    HW220144  10.489   2.291   2.510 -0.0418  0.0810 -0.8493
 3369SOL     OW20145   1.470   4.562   0.723 -0.0470 -0.1858 -0.3532
 3369SOL    HW120146   1.458   4.658   0.750 -1.3021 -0.4406  0.0235
 3369SOL    HW220147   1.494   4.558   0.626  2.9229  0.6488  0.2710
 3370SOL     OW20148   5.417   4.190   0.468 -0.4633  0.2085 -0.1747
 3370SOL    HW120149   5.365   4.104   0.466 -1.6038  0.8823  0.2739
 3370SOL    HW220150   5.477   4.190   0.548  0.8029 -0.8957 -1.1026
 3371SOL     OW20151   0.976   3.279   2.338  0.1225  0.0743 -0.3969
 3371SOL    HW120152   1.020   3.367   2.349  1.0308 -0.2941 -1.0042
 3371SOL    HW220153   0.949   3.243   2.427  4.4239 -1.4153  0.4364
 3372SOL     OW20154   9.992   4.962   2.404  0.2736 -0.7445 -0.6012
 3372SOL    HW120155   9.986   4.938   2.501 -1.0494  0.8240 -0.2703
 3372SOL    HW220156  10.080   5.006   2.386  0.8337 -1.7147 -0.2794
 3373SOL     OW20157   2.784   5.996   0.597 -0.3432 -0.3776  0.1979
 3373SOL    HW120158   2.859   5.959   0.543  0.8157  2.0983  0.0346
 3373SOL    HW220159   2.760   5.932   0.669  1.4765 -1.5118 -0.1713
 3374SOL     OW20160   1.882   4.661   1.721 -0.7106  0.1230 -0.1399
 3374SOL    HW120161   1.929   4.715   1.791 -0.1053 -0.9594  0.2971
 3374SOL    HW220162   1.881   4.712   1.635  2.8476 -0.5397 -0.6430
 3375SOL     OW20163   9.766   4.961   0.450  0.1186 -0.1099  0.0188
 3375SOL    HW120164   9.802   4.870   0.429  0.4531 -0.2289  1.0766
 3375SOL    HW220165   9.842   5.021   0.477 -0.0239  0.6424 -1.1947
 3376SOL     OW20166   0.788   3.371   0.686 -0.0836 -0.0878  0.3986
 3376SOL    HW120167   0.840   3.318   0.753  0.4601 -0.1561 -0.0793
 3376SOL    HW220168   0.793   3.326   0.597  2.9528  2.3508 -0.7562
 3377SOL     OW20169   3.292  10.663   1.712 -0.6091 -0.0655  0.0715
 3377SOL    HW120170   3.309  10.616   1.625 -2.2368 -2.0692  0.7948
 3377SOL    HW220171   3.210  10.719   1.704  2.5095  4.5841 -1.4709
 3378SOL     OW20172   1.278   4.358   2.355 -0.8984 -0.0001 -0.1273
 3378SOL    HW120173   1.200   4.298   2.371  0.3456 -1.9609 -1.2849
 3378SOL    HW220174   1.292   4.370   2.257  1.3205 -1.1569 -0.0044
 3379SOL     OW20175   3.869   9.608   0.930  0.4574 -0.4476  0.2869
 3379SOL    HW120176   3.917   9.604   0.842  0.9983  1.6482  0.4464
 3379SOL    HW220177   3.788   9.550   0.927  0.6337 -0.6331 -1.4862
 3380SOL     OW20178  10.191   1.392   1.288 -0.6326  0.0470 -0.1452
 3380SOL    HW120179  10.235   1.350   1.368  1.0795 -0.1031 -1.1425
 3380SOL    HW220180  10.135   1.324   1.241 -1.3242  0.0292  0.6941
 3381SOL     OW20181   1.486   3.487   1.056  0.2796  0.7318 -0.4744
 3381SOL    HW120182   1.489   3.387   1.062  1.1380  0.6386 -2.1946
 3381SOL    HW220183   1.392   3.518   1.072  0.3764 -0.1817  2.0943
 3382SOL     OW20184   2.338   8.934   2.614 -0.3313  0.6973  0.3374
 3382SOL    HW120185   2.290   8.846   2.619 -0.6851  0.8705  0.0071
 3382SOL    HW220186   2.409   8.930   2.544 -2.3604  1.6358 -1.8514
 3383SOL     OW20187   3.898   9.888   0.666 -0.0524 -0.3751 -0.4137
 3383SOL    HW120188   3.981   9.932   0.632  0.5146 -1.1330 -0.0072
 3383SOL    HW220189   3.840   9.957   0.710 -0.1666  0.3608 -1.6947
 3384SOL     OW20190   4.018   5.167   0.652  0.5081 -0.4867 -0.3787
 3384SOL    HW120191   3.978   5.249   0.693 -2.9381 -3.1805  1.9447
 3384SOL    HW220192   3.976   5.149   0.564 -0.1076 -0.7661 -0.0318
 3385SOL     OW20193   3.299  10.421   1.545  0.5589  0.7787 -0.0679
 3385SOL    HW120194   3.255  10.367   1.617 -1.4791  0.3667 -1.5794
 3385SOL    HW220195   3.284  10.377   1.457  2.1995  1.7949 -0.8812
 3386SOL     OW20196   2.118   9.316   0.659 -0.5700  0.3540  0.1407
 3386SOL    HW120197   2.081   9.313   0.752 -1.3493  0.0766 -0.1721
 3386SOL    HW220198   2.218   9.313   0.662 -0.6383 -2.0588  0.8895
 3387SOL     OW20199   3.679   3.331   2.410 -0.0343  0.3747  0.5538
 3387SOL    HW120200   3.679   3.281   2.497  1.0151 -0.4618  0.1034
 3387SOL    HW220201   3.665   3.428   2.426  1.7587  0.4456  1.8193
 3388SOL     OW20202  10.066   6.258   0.392 -0.3552  0.1448  0.5774
 3388SOL    HW120203  10.010   6.214   0.462  2.6000 -0.1692  2.8124
 3388SOL    HW220204  10.107   6.342   0.429  1.1386  0.0537 -0.8163
 3389SOL     OW20205   1.334   0.937   0.663  0.0489  0.2927  0.4719
 3389SOL    HW120206   1.396   0.859   0.656  0.1212  0.4639 -1.0115
 3389SOL    HW220207   1.378   1.010   0.715  0.8749  0.2015 -0.0958
 3390SOL     OW20208   1.629   4.263   0.406  0.0373 -0.2149 -0.6738
 3390SOL    HW120209   1.608   4.207   0.486 -3.0328  1.8790  0.0741
 3390SOL    HW220210   1.726   4.288   0.408  0.7607 -2.8406  0.6097
 3391SOL     OW20211   1.387   3.262   0.785 -0.5590 -0.5299  0.2364
 3391SOL    HW120212   1.314   3.310   0.833 -1.1530 -0.1100 -1.0788
 3391SOL    HW220213   1.475   3.289   0.824 -0.8717  1.7056 -0.5253
 3392SOL     OW20214   0.829   1.737   2.428 -0.0501 -0.0113  0.0920
 3392SOL    HW120215   0.797   1.669   2.494 -1.5013  0.7718  0.2247
 3392SOL    HW220216   0.780   1.823   2.443  1.2976  0.8641 -0.4984
 3393SOL     OW20217   1.112   4.894   2.404  0.2382  0.0884 -0.0366
 3393SOL    HW120218   1.051   4.952   2.350  1.7317  1.3996 -0.3709
 3393SOL    HW220219   1.058   4.835   2.464 -1.3568  0.8097 -0.7386
 3394SOL     OW20220   2.897   2.526   0.990 -0.3627  0.5242 -0.0057
 3394SOL    HW120221   2.856   2.550   0.902  1.4470  0.5180 -0.8778
 3394SOL    HW220222   2.911   2.609   1.044  1.5290  0.9388 -1.0825
 3395SOL     OW20223   1.719   1.267   1.271 -0.3524 -0.6688 -0.0074
 3395SOL    HW120224   1.775   1.208   1.329 -1.2990 -2.9271 -1.3442
 3395SOL    HW220225   1.684   1.215   1.194 -0.5915  1.8547 -1.6584
 3396SOL     OW20226   1.849   6.347   1.750 -0.2492 -0.4439  0.1505
 3396SOL    HW120227   1.871   6.251   1.765 -1.0561 -0.6824 -0.1561
 3396SOL    HW220228   1.804   6.357   1.661  1.3117  0.4434 -0.5478
 3397SOL     OW20229   1.691   8.400   0.963  0.2837  0.3581 -0.3971
 3397SOL    HW120230   1.718   8.465   1.035  0.8672 -0.6286  0.2958
 3397SOL    HW220231   1.631   8.330   1.002  0.3003  0.0244 -0.9633
 3398SOL     OW20232   1.299   8.840   2.293 -0.8091  0.4121  0.1377
 3398SOL    HW120233   1.386   8.882   2.321 -1.6220  2.1201  0.1482
 3398SOL    HW220234   1.224   8.902   2.315 -1.8837 -0.2862 -1.5131
 3399SOL     OW20235   3.992   1.729   1.230  0.2270  0.2073  0.4470
 3399SOL    HW120236   3.997   1.630   1.230  0.8437  0.2280 -0.5530
 3399SOL    HW220237   3.940   1.760   1.309  2.4135 -0.7728  2.3207
 3400SOL     OW20238   8.992   3.139   1.881  0.2118 -0.4154  0.0680
 3400SOL    HW120239   8.968   3.091   1.797  0.0513  3.0118 -1.9429
 3400SOL    HW220240   8.910   3.151   1.938 -0.0304 -1.1072 -0.1325
 3401SOL     OW20241  10.004   6.292   2.490 -0.3418 -0.1458 -0.4423
 3401SOL    HW120242  10.027   6.274   2.586  0.6685  0.8563 -0.4825
 3401SOL    HW220243  10.072   6.249   2.431 -1.1216 -0.9955 -0.7245
 3402SOL     OW20244   4.945   1.935   0.367 -0.4074 -0.2209 -0.0086
 3402SOL    HW120245   4.985   1.924   0.276  0.6017  0.8736  0.2740
 3402SOL    HW220246   4.965   1.855   0.422 -0.3955 -0.5807 -0.5347
 3403SOL     OW20247   3.310   4.603   1.037 -0.4509  0.6504  0.1242
 3403SOL    HW120248   3.235   4.666   1.019  0.8143  2.0981 -0.1750
 3403SOL    HW220249   3.283   4.511   1.010 -0.7798  1.7587 -3.6267
 3404SOL     OW20250   4.027   8.796   0.838  0.4940 -0.1984 -0.0787
 3404SOL    HW120251   3.949   8.814   0.898  0.6093  0.8675 -0.2244
 3404SOL    HW220252   3.995   8.764   0.749  0.1787  0.7546 -0.3228
 3405SOL     OW20253   2.499   3.479   0.776 -0.5089  0.1367  0.3645
 3405SOL    HW120254   2.567   3.469   0.849 -0.2883 -0.4319  0.0802
 3405SOL    HW220255   2.499   3.573   0.743  1.1711 -0.2054 -0.6525
 3406SOL     OW20256   3.389   2.156   0.727  0.5147 -0.1233 -0.2460
 3406SOL    HW120257   3.415   2.154   0.824 -0.6511 -1.2839  0.0551
 3406SOL    HW220258   3.416   2.243   0.687 -0.3426  0.9576  1.4968
 3407SOL     OW20259   3.970   4.103   2.272  0.4226  0.1128 -0.2991
 3407SOL    HW120260   3.997   4.027   2.212  1.4738  0.0527  0.2583
 3407SOL    HW220261   4.033   4.110   2.349 -0.7425  0.3941  0.6514
 3408SOL     OW20262   1.120   6.876   2.373  0.0962 -0.0391  0.4588
 3408SOL    HW120263   1.214   6.884   2.403 -0.3553  1.9166  1.3768
 3408SOL    HW220264   1.116   6.886   2.273  0.6605  1.7869  0.6032
 3409SOL     OW20265   1.442   4.406   1.341  0.2202  0.5837  0.2616
 3409SOL    HW120266   1.496   4.356   1.273  0.2273 -1.5878  1.8231
 3409SOL    HW220267   1.496   4.416   1.425 -1.1986 -0.1782  1.2702
 3410SOL     OW20268  10.110   4.077   1.396 -0.0635 -0.4620  0.6656
 3410SOL    HW120269  10.067   3.988   1.385 -2.5542  0.8404 -0.4659
 3410SOL    HW220270  10.064   4.128   1.469  0.5044  0.3957  0.4346
 3411SOL     OW20271   0.702   3.709   1.380  0.2475 -0.3761 -0.4105
 3411SOL    HW120272   0.626   3.645   1.370 -0.3031  0.1519  0.4019
 3411SOL    HW220273   0.786   3.666   1.346 -0.3581 -1.0535 -1.0664
 3412SOL     OW20274   1.090   8.754   1.236 -0.2420  0.0537  0.2112
 3412SOL    HW120275   1.074   8.834   1.294  0.5498  0.0890  0.3838
 3412SOL    HW220276   1.128   8.680   1.292  0.8706  0.2084 -0.3354
 3413SOL     OW20277   3.546   1.448   2.233  0.3007  0.2098  0.2484
 3413SOL    HW120278   3.567   1.356   2.267 -0.7903  0.0247  0.4279
 3413SOL    HW220279   3.587   1.516   2.293 -1.9074 -0.1017  2.1616
 3414SOL     OW20280   2.673   7.845   2.270 -0.2166 -0.4046  0.3948
 3414SOL    HW120281   2.574   7.859   2.274 -0.1014 -0.0219  1.9736
 3414SOL    HW220282   2.692   7.747   2.261 -0.7258 -0.5509  0.8878
 3415SOL     OW20283   2.327   2.504   1.078 -0.5530  0.0535  0.6874
 3415SOL    HW120284   2.426   2.495   1.088 -0.3286 -0.0595 -1.4567
 3415SOL    HW220285   2.304   2.518   0.982 -2.6717 -0.5217  1.0819
 3416SOL     OW20286   2.136   7.268   0.532  0.0709 -0.1748  0.3781
 3416SOL    HW120287   2.080   7.186   0.544 -0.6415  0.1086 -1.0625
 3416SOL    HW220288   2.109   7.337   0.599 -0.3888 -0.5324  0.5610
 3417SOL     OW20289   2.061  10.498   0.546 -0.0959  0.3653 -0.2723
 3417SOL    HW120290   1.978  10.518   0.494 -1.0737 -0.1852  1.0521
 3417SOL    HW220291   2.076  10.569   0.615  1.2826  1.1739 -1.3765
 3418SOL     OW20292   1.429   0.992   2.604  0.3213 -0.0470 -0.3473
 3418SOL    HW120293   1.515   0.957   2.567  0.5069  0.9836 -0.9047
 3418SOL    HW220294   1.387   0.922   2.661  0.6042 -1.2607 -1.5901
 3419SOL     OW20295   3.870   3.054   1.842 -0.5047 -0.0161  0.4877
 3419SOL    HW120296   3.965   3.021   1.849 -0.6734 -0.7835 -0.6349
 3419SOL    HW220297   3.870   3.154   1.831  0.2712 -0.1947 -1.2930
 3420SOL     OW20298   1.739   2.963   2.585  0.4432 -0.2947  0.3362
 3420SOL    HW120299   1.792   2.974   2.669 -2.2816 -1.9368  2.3754
 3420SOL    HW220300   1.739   2.866   2.559  0.0126 -0.0275 -0.6705
 3421SOL     OW20301   0.958   5.098   1.281 -0.3871  0.1335  0.5773
 3421SOL    HW120302   0.890   5.161   1.318  1.4654  1.5395  1.6594
 3421SOL    HW220303   1.036   5.150   1.246 -0.4929 -1.3520 -2.0600
 3422SOL     OW20304   9.063   2.510   0.409 -0.4482 -0.0106 -0.4979
 3422SOL    HW120305   9.120   2.454   0.349 -0.8361 -0.7683 -0.1540
 3422SOL    HW220306   9.121   2.576   0.458  0.0229 -0.2289 -0.7555
 3423SOL     OW20307   4.622   3.432   1.175 -0.6834 -0.2221  0.5762
 3423SOL    HW120308   4.612   3.365   1.248 -0.0749  0.4022  1.2444
 3423SOL    HW220309   4.713   3.472   1.179 -0.6566 -0.1686 -0.5177
 3424SOL     OW20310   8.941   2.109   1.234  0.2603  0.3233  0.0030
 3424SOL    HW120311   8.847   2.074   1.238  0.2105  0.5687  1.1177
 3424SOL    HW220312   8.972   2.109   1.139 -0.9618  0.5038 -0.4070
 3425SOL     OW20313   2.289   9.524   0.923  0.0429  0.1405 -0.1252
 3425SOL    HW120314   2.312   9.481   0.835  0.3779 -1.9315  0.9586
 3425SOL    HW220315   2.371   9.533   0.978 -0.5205 -0.4675  0.8133
 3426SOL     OW20316  10.061   5.472   0.504  0.2328  0.5158  0.4797
 3426SOL    HW120317  10.011   5.386   0.498  1.2385  0.0017 -0.6467
 3426SOL    HW220318  10.104   5.480   0.594 -1.0827  0.5272  1.1109
 3427SOL     OW20319   1.645   8.710   0.229  0.0643  0.1229 -0.2088
 3427SOL    HW120320   1.684   8.618   0.223  1.0293  0.4704  0.5260
 3427SOL    HW220321   1.704   8.774   0.179  0.4064  0.6418  0.8432
 3428SOL     OW20322   3.088   4.112   1.199  0.1184 -0.2324 -0.3343
 3428SOL    HW120323   3.123   4.197   1.240  0.6425  0.0747 -1.4026
 3428SOL    HW220324   3.029   4.066   1.265  0.9142  0.2724  0.7577
 3429SOL     OW20325   1.352   6.761   1.689  0.1031 -0.1040  0.1324
 3429SOL    HW120326   1.407   6.739   1.769  0.7412  0.1763 -0.2235
 3429SOL    HW220327   1.300   6.845   1.707 -0.7849 -0.7744  0.7409
 3430SOL     OW20328   2.734   4.907   0.818  0.3665  0.9288 -0.0479
 3430SOL    HW120329   2.708   4.983   0.759 -0.5043 -0.1277 -1.0430
 3430SOL    HW220330   2.806   4.853   0.775  1.0171  1.2065  0.6753
 3431SOL     OW20331   3.721   1.095   1.587 -0.6721 -0.1510 -0.2898
 3431SOL    HW120332   3.710   1.190   1.558 -1.8191  0.5219  2.2119
 3431SOL    HW220333   3.638   1.064   1.633  0.8893 -1.2829  1.8368
 3432SOL     OW20334   4.436   2.894   1.377  0.0837 -0.0377  0.0162
 3432SOL    HW120335   4.440   2.887   1.476  0.0264  0.0436  0.0254
 3432SOL    HW220336   4.448   2.804   1.335  2.8377  0.3195 -0.0081
 3433SOL     OW20337   4.285   3.579   0.956 -0.1137 -0.0515 -0.1085
 3433SOL    HW120338   4.290   3.624   0.867  0.3950 -0.5838 -0.3498
 3433SOL    HW220339   4.363   3.518   0.967 -0.2148 -0.0469  0.6740
 3434SOL     OW20340   4.716   3.927   0.180 -0.0950  0.1995  0.4575
 3434SOL    HW120341   4.795   3.873   0.212 -0.0264  0.4268  0.6687
 3434SOL    HW220342   4.714   4.014   0.228 -0.9532 -0.1454  1.0537
 3435SOL     OW20343   1.092   7.379   1.262 -0.3083  0.0959  0.0003
 3435SOL    HW120344   1.029   7.432   1.205 -0.0059 -0.9346 -1.3250
 3435SOL    HW220345   1.176   7.361   1.210  0.6955  0.6567  1.4138
 3436SOL     OW20346  10.483   3.836   0.995  0.1365 -0.2305  0.1224
 3436SOL    HW120347  10.395   3.792   1.010  0.3960 -0.8227 -0.0842
 3436SOL    HW220348  10.555   3.767   0.989  0.5334  0.2085 -0.2984
 3437SOL     OW20349   9.750   3.287   1.392  0.5648 -0.1087 -0.3700
 3437SOL    HW120350   9.737   3.237   1.306 -1.2246  1.6058 -1.1497
 3437SOL    HW220351   9.662   3.295   1.440  1.0440  1.1598  0.3340
 3438SOL     OW20352  10.432   2.990   1.526 -0.4095  0.0640  0.3290
 3438SOL    HW120353  10.419   2.897   1.491 -1.4928  0.1492  0.4823
 3438SOL    HW220354  10.476   2.986   1.615  1.0288 -0.2235 -0.3841
 3439SOL     OW20355  10.170   0.924   0.325 -0.2032 -0.3722 -0.3344
 3439SOL    HW120356  10.260   0.932   0.367  0.5158 -0.9640 -1.7059
 3439SOL    HW220357  10.139   0.830   0.329 -2.1023  0.3422  2.7569
 3440SOL     OW20358   0.598   2.313   1.549 -0.7514  0.0404 -0.1129
 3440SOL    HW120359   0.677   2.265   1.509 -0.2374 -0.4787  1.4966
 3440SOL    HW220360   0.560   2.259   1.624  0.1127  2.3108  2.0326
 3441SOL     OW20361   9.084   2.350   2.582  0.0614 -0.2106  0.0132
 3441SOL    HW120362   9.101   2.255   2.557 -1.2949 -0.3105 -0.5759
 3441SOL    HW220363   8.988   2.373   2.564  0.6658  1.6180 -0.9769
 3442SOL     OW20364   2.690  10.592   0.515  0.0027  0.5663 -0.1600
 3442SOL    HW120365   2.757  10.569   0.586 -0.1970  0.0433 -0.1433
 3442SOL    HW220366   2.732  10.654   0.449 -0.4802  2.9710  1.6868
 3443SOL     OW20367   3.516  10.110   1.689  0.2923  0.1509 -0.2602
 3443SOL    HW120368   3.602  10.105   1.638  0.5535  0.7235  0.1187
 3443SOL    HW220369   3.498  10.022   1.733  1.3511  0.4170  0.7285
 3444SOL     OW20370   3.591   4.431   1.452 -0.3288 -0.4179  0.5825
 3444SOL    HW120371   3.633   4.502   1.395 -0.2145  1.4280  2.8823
 3444SOL    HW220372   3.495   4.456   1.469 -0.2401 -0.7260  1.5285
 3445SOL     OW20373   1.772   1.344   2.110  0.6135  0.2022  0.5529
 3445SOL    HW120374   1.713   1.371   2.186  0.9681  1.5096  0.3760
 3445SOL    HW220375   1.865   1.377   2.127  1.2885 -1.8274  0.8205
 3446SOL     OW20376   4.133   0.832   2.109  0.2279 -0.7817 -0.1903
 3446SOL    HW120377   4.188   0.873   2.181  0.6438  0.7019 -1.3419
 3446SOL    HW220378   4.046   0.800   2.148  0.6304 -0.4084  1.0373
 3447SOL     OW20379   9.435   5.155   2.431  0.0345 -0.0269 -0.1779
 3447SOL    HW120380   9.530   5.121   2.429  0.8149  2.1731 -1.5430
 3447SOL    HW220381   9.433   5.245   2.476 -1.5720 -0.4965  0.7310
 3448SOL     OW20382   2.533   7.891   0.519 -1.0498 -0.1868 -0.1428
 3448SOL    HW120383   2.567   7.967   0.574  1.0193 -0.6665 -0.6867
 3448SOL    HW220384   2.575   7.805   0.549 -0.6779 -0.6077 -1.7620
 3449SOL     OW20385   9.129   2.651   1.718 -0.4000 -0.2326  0.3520
 3449SOL    HW120386   9.051   2.661   1.779  0.6992 -0.3220  1.7940
 3449SOL    HW220387   9.127   2.560   1.676 -1.2582 -0.1010  0.1007
 3450SOL     OW20388   1.707   2.505   1.248  0.2343 -0.2996  0.3355
 3450SOL    HW120389   1.765   2.551   1.182  0.8984  0.4151  1.4043
 3450SOL    HW220390   1.762   2.474   1.325 -0.9598  1.4272  1.9327
 3451SOL     OW20391   2.236   5.174   0.294 -0.3896  0.5001  0.8904
 3451SOL    HW120392   2.262   5.120   0.374 -0.1067 -1.4275 -0.4621
 3451SOL    HW220393   2.259   5.123   0.211  0.7666  3.1410 -0.4589
 3452SOL     OW20394   8.959   1.652   0.520  0.0249  0.0529  0.0669
 3452SOL    HW120395   8.899   1.615   0.590  1.8961  0.7040  2.0863
 3452SOL    HW220396   8.909   1.718   0.463 -1.0872  0.8414  1.9247
 3453SOL     OW20397   0.631   2.059   0.586  0.1799  0.4067 -0.3429
 3453SOL    HW120398   0.727   2.087   0.586  0.5809 -0.9747 -0.6971
 3453SOL    HW220399   0.624   1.961   0.570 -1.1960  0.1617  1.5924
 3454SOL     OW20400   1.810   9.414   2.611 -0.5417  0.5350  0.8715
 3454SOL    HW120401   1.823   9.382   2.704  2.5340  1.5142  0.8524
 3454SOL    HW220402   1.833   9.341   2.547  0.6215  0.8951  0.8703
 3455SOL     OW20403   2.268   3.667   1.812  0.9187 -0.5312 -0.4021
 3455SOL    HW120404   2.291   3.584   1.762 -0.5749 -0.9467 -0.4218
 3455SOL    HW220405   2.169   3.683   1.807  0.7137 -0.6566  2.5290
 3456SOL     OW20406   2.995   5.083   1.465 -0.3342 -0.3701 -0.2321
 3456SOL    HW120407   2.992   5.144   1.544  0.7138  2.5384 -2.3375
 3456SOL    HW220408   3.090   5.056   1.447 -0.4913 -0.5449 -0.8310
 3457SOL     OW20409   1.104   3.476   1.742  0.2982  0.2439 -0.0494
 3457SOL    HW120410   1.144   3.441   1.658  0.0946  1.6177 -0.7515
 3457SOL    HW220411   1.113   3.576   1.744 -2.3322  0.5325  0.1306
 3458SOL     OW20412   1.563   9.289   2.379 -0.1070 -0.0301  0.1309
 3458SOL    HW120413   1.559   9.372   2.323 -0.0539 -0.8239 -1.0642
 3458SOL    HW220414   1.658   9.270   2.404 -0.0970  0.1443  0.2285
 3459SOL     OW20415   2.263   1.074   0.792  0.2326  0.2174 -0.3713
 3459SOL    HW120416   2.174   1.029   0.782  0.4245 -0.4265  0.7114
 3459SOL    HW220417   2.273   1.145   0.723 -0.7408 -0.3413 -1.0908
 3460SOL     OW20418   3.733   9.902   1.828 -0.1360 -0.3408  0.0496
 3460SOL    HW120419   3.641   9.883   1.863  0.1531 -1.1228  0.3868
 3460SOL    HW220420   3.751  10.000   1.836 -1.1483 -0.0911 -0.5403
 3461SOL     OW20421   4.454  10.320   1.154  0.3059 -0.5416  0.4336
 3461SOL    HW120422   4.446  10.305   1.252 -0.1154 -0.5610  0.3980
 3461SOL    HW220423   4.368  10.358   1.119  0.4540 -0.5334  0.0742
 3462SOL     OW20424   9.368   4.486   0.858 -0.3785  0.0812 -0.7050
 3462SOL    HW120425   9.340   4.427   0.783 -0.7580 -0.1924 -0.3486
 3462SOL    HW220426   9.466   4.476   0.874 -0.4868 -0.6594 -0.4670
 3463SOL     OW20427   4.041   2.677   1.992 -0.0409 -0.2075 -0.0613
 3463SOL    HW120428   3.999   2.674   1.901  0.6216 -1.5371 -0.3325
 3463SOL    HW220429   4.104   2.600   2.002  1.9209  1.4235  0.5400
 3464SOL     OW20430   1.951   3.736   1.474  0.2103 -0.4703 -0.0265
 3464SOL    HW120431   2.039   3.761   1.433 -0.0347 -2.1978 -1.6661
 3464SOL    HW220432   1.877   3.772   1.416 -0.1461 -1.4105 -0.1544
 3465SOL     OW20433   2.865   9.173   1.348  0.2218  0.3588  0.2537
 3465SOL    HW120434   2.952   9.182   1.397 -0.4282 -1.9943  1.9316
 3465SOL    HW220435   2.883   9.143   1.254  1.1914 -0.9978  0.8571
 3466SOL     OW20436   1.653   4.163   1.307 -0.0895 -0.7678  0.6675
 3466SOL    HW120437   1.686   4.241   1.255 -0.9858 -0.8712 -0.0706
 3466SOL    HW220438   1.635   4.191   1.402 -0.7801  0.0252  0.3082
 3467SOL     OW20439   5.011   3.079   2.401  0.2900  0.4398  0.2706
 3467SOL    HW120440   4.919   3.068   2.362 -0.3913 -0.4812  2.0694
 3467SOL    HW220441   5.073   3.012   2.359 -0.5482 -0.8619  1.0622
 3468SOL     OW20442   5.201   3.559   2.681  0.0641 -0.8607  0.1197
 3468SOL    HW120443   5.102   3.573   2.679  0.0217 -0.7177  2.4472
 3468SOL    HW220444   5.221   3.465   2.654 -0.6100 -0.6029 -1.3716
 3469SOL     OW20445   2.486   1.311   2.386 -0.1226 -0.5282  0.0482
 3469SOL    HW120446   2.414   1.319   2.317 -1.8964 -3.9301  1.4137
 3469SOL    HW220447   2.508   1.214   2.401  1.7866  0.2448  2.6995
 3470SOL     OW20448   3.317   9.666   1.561 -0.5064 -0.2156  0.1306
 3470SOL    HW120449   3.272   9.614   1.488 -0.1228  1.3431 -1.2272
 3470SOL    HW220450   3.254   9.735   1.597 -0.9347 -1.4112  1.7831
 3471SOL     OW20451   3.984   3.834   0.662 -0.0063  0.5639  0.0818
 3471SOL    HW120452   4.000   3.837   0.564 -0.8066  1.2333 -0.0314
 3471SOL    HW220453   3.917   3.762   0.683 -1.4660  1.8496 -0.0998
 3472SOL     OW20454   2.454   7.363   1.721 -0.4021 -0.4983 -0.1606
 3472SOL    HW120455   2.364   7.371   1.680 -0.5256 -1.4536 -0.1005
 3472SOL    HW220456   2.496   7.453   1.729 -1.7481  0.0622  0.7134
 3473SOL     OW20457   9.501   3.043   1.407 -0.6943  0.0286  0.7160
 3473SOL    HW120458   9.512   3.139   1.435 -1.8380  0.4004 -0.0447
 3473SOL    HW220459   9.589   2.997   1.410 -0.1451  1.0825  1.1820
 3474SOL     OW20460   1.368  10.063   0.895  0.1592 -0.2819  0.5236
 3474SOL    HW120461   1.341  10.022   0.982 -0.8545 -1.9886 -0.5642
 3474SOL    HW220462   1.454  10.022   0.864  0.8048  0.7223  0.9947
 3475SOL     OW20463  10.100   2.107   1.979 -0.3191  0.2851 -0.3522
 3475SOL    HW120464  10.103   2.017   1.935  2.1584  0.9093 -1.5700
 3475SOL    HW220465  10.118   2.177   1.910  2.8703  1.3481  1.4547
 3476SOL     OW20466   2.256   2.284   0.718  0.6303  0.0768  0.9713
 3476SOL    HW120467   2.289   2.221   0.648  2.6041  0.6608  1.3680
 3476SOL    HW220468   2.201   2.233   0.785 -2.5553 -0.2457 -1.7485
 3477SOL     OW20469   2.297   2.078   1.809  0.3257 -0.5630  0.0540
 3477SOL    HW120470   2.371   2.012   1.800  0.8184  0.1241 -1.0628
 3477SOL    HW220471   2.330   2.159   1.857  0.6945  0.3037 -1.6123
 3478SOL     OW20472   9.787   4.533   2.580 -0.6238 -0.5418  0.3829
 3478SOL    HW120473   9.861   4.531   2.512  1.0372  1.8407  2.0666
 3478SOL    HW220474   9.703   4.563   2.536  0.0822 -0.4743 -0.9474
 3479SOL     OW20475   2.043   2.666   1.513  0.6146 -0.2644  0.2590
 3479SOL    HW120476   2.083   2.674   1.422 -0.0351  1.2335  0.0954
 3479SOL    HW220477   2.111   2.689   1.582  1.1312 -1.4767  0.1651
 3480SOL     OW20478  10.407   0.752   2.117 -0.8515 -0.1922  0.4660
 3480SOL    HW120479  10.489   0.809   2.116 -0.2347 -1.0741  0.1354
 3480SOL    HW220480  10.334   0.798   2.067 -0.3843  0.3373  0.2618
 3481SOL     OW20481   2.370   6.283   0.104  0.0095 -0.1308 -0.4259
 3481SOL    HW120482   2.423   6.260   0.187  2.0738  0.8113 -1.4549
 3481SOL    HW220483   2.302   6.211   0.088 -0.2392 -0.4668  1.9361
 3482SOL     OW20484   0.858  10.544   1.060  0.2911 -0.2415 -0.0119
 3482SOL    HW120485   0.889  10.495   1.141  1.1419 -2.0982 -1.4326
 3482SOL    HW220486   0.880  10.491   0.978  0.1167  1.9490 -1.5223
 3483SOL     OW20487   4.018  10.717   1.605 -0.0202 -0.3673 -0.3860
 3483SOL    HW120488   3.966  10.801   1.588 -1.2660 -0.7790  1.3113
 3483SOL    HW220489   4.111  10.741   1.633 -0.7010  0.4975  1.2095
 3484SOL     OW20490  10.449   2.402   0.193  0.8540 -0.0348 -0.3492
 3484SOL    HW120491  10.400   2.335   0.138 -0.4944 -0.1414  0.9613
 3484SOL    HW220492  10.401   2.490   0.188  0.4324 -0.1791  1.0587
 3485SOL     OW20493   4.870   1.921   2.545 -0.4252 -0.1499  0.3434
 3485SOL    HW120494   4.859   1.831   2.502  0.6384 -0.0323 -0.2019
 3485SOL    HW220495   4.937   1.914   2.619 -0.0276  0.2689  0.0301
 3486SOL     OW20496   1.566   1.786   0.353  0.5867  0.1950 -0.5284
 3486SOL    HW120497   1.555   1.721   0.278 -0.1548 -0.7747  0.3988
 3486SOL    HW220498   1.489   1.849   0.354  0.7231  0.3668 -0.7258
 3487SOL     OW20499   9.990   3.811   0.849 -0.1493  0.1615  0.2658
 3487SOL    HW120500   9.893   3.793   0.862 -0.2725  1.3285  1.0546
 3487SOL    HW220501  10.030   3.739   0.792 -1.6304  0.1081 -0.7311
 3488SOL     OW20502  10.224   4.249   0.505 -0.1656  0.2498  0.4226
 3488SOL    HW120503  10.232   4.153   0.476  1.9794 -0.4980  3.1811
 3488SOL    HW220504  10.157   4.256   0.579 -1.0424  1.0764 -0.4337
 3489SOL     OW20505   2.380   6.771   0.767  0.1598 -0.1686 -0.4078
 3489SOL    HW120506   2.374   6.847   0.702 -0.7408  0.3902  0.2987
 3489SOL    HW220507   2.329   6.795   0.850 -0.3002 -1.6316 -0.2535
 3490SOL     OW20508   2.750  10.532   1.949 -0.5189 -0.3463 -0.0386
 3490SOL    HW120509   2.650  10.530   1.958 -0.4919 -0.3524  0.2693
 3490SOL    HW220510   2.785  10.439   1.951 -0.3320 -0.2606  1.9223
 3491SOL     OW20511   3.192   9.140   1.013 -0.0558  0.2149 -0.0290
 3491SOL    HW120512   3.206   9.091   1.100 -0.9238  1.3581  0.7698
 3491SOL    HW220513   3.275   9.190   0.989 -0.5523  1.7308  1.3317
 3492SOL     OW20514   9.917   1.885   1.723 -0.4129  0.5117  0.0804
 3492SOL    HW120515   9.995   1.851   1.669 -0.9308 -0.1193 -0.2734
 3492SOL    HW220516   9.852   1.811   1.738  0.4036  0.3076  2.8379
 3493SOL     OW20517   3.839  10.356   0.629  0.4132 -0.6771 -0.0142
 3493SOL    HW120518   3.916  10.398   0.676  0.2822 -0.8960  0.3962
 3493SOL    HW220519   3.870  10.319   0.541  0.5434  0.1914 -0.3309
 3494SOL     OW20520   9.842   5.925   0.503 -0.3148 -1.1205  0.1419
 3494SOL    HW120521   9.784   6.003   0.482 -0.1560 -1.4660 -1.6114
 3494SOL    HW220522   9.803   5.842   0.464  0.9605 -1.4774 -0.4162
 3495SOL     OW20523   1.886   1.329   2.492  0.4803 -0.1617 -0.1613
 3495SOL    HW120524   1.855   1.397   2.425 -1.0009  0.5396  1.1994
 3495SOL    HW220525   1.885   1.239   2.451  0.2802  0.3545 -1.3040
 3496SOL     OW20526   3.112   7.197   1.973 -0.3131  0.3858  0.6763
 3496SOL    HW120527   3.177   7.186   2.047  2.0678 -0.5350 -1.4835
 3496SOL    HW220528   3.028   7.147   1.994  0.6195 -0.4836  2.4019
 3497SOL     OW20529   1.098   7.683   1.565  0.3296 -0.9423 -0.0138
 3497SOL    HW120530   1.100   7.689   1.665  0.7866 -0.5229 -0.0468
 3497SOL    HW220531   1.138   7.596   1.536 -0.9037 -1.5942  0.2162
 3498SOL     OW20532  10.588   1.476   1.097  0.7630 -0.3339 -0.3716
 3498SOL    HW120533  10.560   1.553   1.154 -0.0190  0.1293 -1.3561
 3498SOL    HW220534  10.585   1.391   1.150  2.8142  0.4639  1.0642
 3499SOL     OW20535   3.538   2.365   0.923 -0.1842  0.2168 -0.0280
 3499SOL    HW120536   3.522   2.463   0.925 -0.3258  0.2070 -0.5821
 3499SOL    HW220537   3.580   2.336   1.009 -0.1297  0.7631  0.1300
 3500SOL     OW20538   4.593   8.440   0.727  0.0884  0.0160 -0.6695
 3500SOL    HW120539   4.671   8.474   0.675 -1.0135  3.2085 -0.3672
 3500SOL    HW220540   4.604   8.461   0.824 -0.4449 -0.8986 -0.3985
 3501SOL     OW20541   4.049   3.563   1.457 -0.1195  0.0010 -0.0312
 3501SOL    HW120542   4.070   3.529   1.548  0.4247 -1.6387 -0.7426
 3501SOL    HW220543   4.129   3.552   1.398 -0.1728  1.8760 -0.4843
 3502SOL     OW20544   2.784   6.408   2.639 -0.4193  0.2574 -0.2242
 3502SOL    HW120545   2.837   6.360   2.709 -0.4007  0.3826 -0.1530
 3502SOL    HW220546   2.710   6.459   2.682 -0.1434  0.6872 -0.2534
 3503SOL     OW20547   2.803   3.951   2.423  0.0967  0.7406  0.5182
 3503SOL    HW120548   2.804   4.043   2.384 -1.5696  0.5003 -0.1569
 3503SOL    HW220549   2.708   3.925   2.444  0.5866 -0.6766  1.0396
 3504SOL     OW20550  10.451   1.819   0.276 -0.6166  0.2890 -0.8217
 3504SOL    HW120551  10.550   1.830   0.276 -0.6393  0.5283 -0.5145
 3504SOL    HW220552  10.408   1.910   0.277 -0.8361  0.1842 -0.7908
 3505SOL     OW20553   3.952   3.408   2.105  0.5682 -0.0603  0.0892
 3505SOL    HW120554   4.049   3.393   2.087  0.2729  1.1522 -2.6711
 3505SOL    HW220555   3.907   3.320   2.119  1.9104 -0.6782  0.6474
 3506SOL     OW20556   2.620   3.412   0.191 -0.7076 -0.4694 -0.2101
 3506SOL    HW120557   2.666   3.357   0.121 -1.2078 -0.5704 -0.4617
 3506SOL    HW220558   2.526   3.432   0.161 -0.1548  1.5484 -0.7040
 3507SOL     OW20559   9.125   2.505   0.969 -0.7608 -0.2758 -0.0872
 3507SOL    HW120560   9.157   2.589   0.926 -0.5039 -0.4154 -0.1694
 3507SOL    HW220561   9.202   2.457   1.011 -0.6787 -1.1782 -1.2617
 3508SOL     OW20562   2.138   3.840   1.320  0.3175  0.2650  0.5558
 3508SOL    HW120563   2.069   3.868   1.253  0.0740  0.7250  0.9992
 3508SOL    HW220564   2.226   3.829   1.274 -0.2535 -1.2868 -0.2032
 3509SOL     OW20565   2.833   7.539   1.897 -0.2452 -0.5729 -0.1007
 3509SOL    HW120566   2.804   7.633   1.914  0.2536 -0.4249 -0.0889
 3509SOL    HW220567   2.824   7.519   1.800  1.0633 -0.0458 -0.3329
 3510SOL     OW20568  10.372   5.306   1.707 -0.4990 -0.2106  0.1700
 3510SOL    HW120569  10.436   5.282   1.780  0.6411 -2.2821 -1.4979
 3510SOL    HW220570  10.278   5.292   1.740 -0.0807  0.9899  1.9600
 3511SOL     OW20571   9.787   5.270   0.124  0.0135 -0.2333 -0.2201
 3511SOL    HW120572   9.761   5.290   0.030 -0.5746  0.8181  0.1539
 3511SOL    HW220573   9.733   5.193   0.158  1.6987 -1.9680 -1.4061
 3512SOL     OW20574   4.448   3.881   0.918 -0.3464  0.2818  0.0109
 3512SOL    HW120575   4.368   3.940   0.911  0.0813  0.9678  0.7918
 3512SOL    HW220576   4.446   3.813   0.845 -1.5181  0.4405 -0.1115
 3513SOL     OW20577   3.242   4.915   1.161  0.3630 -0.3015  0.2827
 3513SOL    HW120578   3.327   4.908   1.109  0.4235 -1.3159  0.4957
 3513SOL    HW220579   3.244   4.998   1.217  0.8975  0.0631 -0.2651
 3514SOL     OW20580   3.300   2.618   0.547  0.2320  0.1220  0.1705
 3514SOL    HW120581   3.254   2.670   0.475 -0.2925  1.7992  1.6777
 3514SOL    HW220582   3.233   2.564   0.597  0.2266  0.7734  0.8818
 3515SOL     OW20583   9.773   2.139   0.214  0.3619 -1.0006 -0.6107
 3515SOL    HW120584   9.818   2.194   0.284 -1.0369 -1.4343  0.6464
 3515SOL    HW220585   9.700   2.192   0.171  1.3311 -0.6752 -1.8739
 3516SOL     OW20586   2.866   2.427   0.171  0.0407  0.2030 -0.5633
 3516SOL    HW120587   2.866   2.458   0.076  0.9335 -0.6885 -0.8536
 3516SOL    HW220588   2.817   2.340   0.178 -1.4397  1.0734  0.0628
 3517SOL     OW20589   2.976   3.803   1.908  0.1447  0.1791 -0.2988
 3517SOL    HW120590   2.938   3.827   1.997  1.1082  1.0667 -0.1124
 3517SOL    HW220591   2.984   3.703   1.901  0.2185  0.1123  0.6670
 3518SOL     OW20592   1.645   2.523   0.354  0.1237 -0.0700  0.0918
 3518SOL    HW120593   1.683   2.433   0.333  2.0356  0.4777  1.0477
 3518SOL    HW220594   1.720   2.590   0.356 -1.1750  1.4003  0.1619
 3519SOL     OW20595   8.967   2.883   0.927 -0.4287 -0.2672  0.0018
 3519SOL    HW120596   8.900   2.852   0.860  0.3309 -1.0591 -0.4018
 3519SOL    HW220597   9.059   2.862   0.895  0.1173  2.4277 -0.2676
 3520SOL     OW20598   2.538   4.905   1.948  0.2489  0.1799  0.0993
 3520SOL    HW120599   2.470   4.879   1.879 -1.2687  1.9504  0.9044
 3520SOL    HW220600   2.619   4.941   1.901  0.0603 -0.5609 -0.8225
 3521SOL     OW20601   2.175   7.744   1.331 -0.4197  0.3804 -0.0157
 3521SOL    HW120602   2.148   7.746   1.428 -0.3167 -0.2220  0.0320
 3521SOL    HW220603   2.108   7.691   1.279  1.6299 -2.8422  0.4397
 3522SOL     OW20604   2.330  10.102   1.210 -0.4805 -0.0377 -0.0376
 3522SOL    HW120605   2.286  10.050   1.284 -0.7246  0.2001 -0.0178
 3522SOL    HW220606   2.425  10.122   1.235 -1.5673  3.1572  1.7861
 3523SOL     OW20607   3.724   8.689   1.406  0.1253  0.3752  0.4325
 3523SOL    HW120608   3.714   8.775   1.457  0.1664  0.7982 -0.2644
 3523SOL    HW220609   3.820   8.673   1.385  0.0414  0.5913 -0.1540
 3524SOL     OW20610   1.693   1.698   1.706  0.7074  0.5222 -0.7198
 3524SOL    HW120611   1.665   1.624   1.767 -1.7298 -0.2346 -2.6553
 3524SOL    HW220612   1.791   1.690   1.686  0.7680 -1.3310  0.2387
 3525SOL     OW20613   4.900   2.511   1.171 -0.9999 -0.1889  0.5371
 3525SOL    HW120614   4.939   2.566   1.097  1.0355 -1.6575  0.4669
 3525SOL    HW220615   4.909   2.414   1.149 -1.2148 -0.6339  2.2967
 3526SOL     OW20616   3.025   7.651   2.316  0.5946  0.3371  0.2057
 3526SOL    HW120617   2.980   7.648   2.405  0.9562  0.9549  0.4129
 3526SOL    HW220618   2.992   7.575   2.260 -0.7864  0.8318  0.3129
 3527SOL     OW20619   0.797   3.075   0.201  0.1948 -0.1823 -0.7525
 3527SOL    HW120620   0.724   3.141   0.183  1.3234  0.5791 -2.7415
 3527SOL    HW220621   0.786   2.997   0.139  0.0478 -0.9146  0.1852
 3528SOL     OW20622   2.650   9.056   0.332 -0.2138  0.0999  0.0177
 3528SOL    HW120623   2.655   8.964   0.294  1.2734  0.4408 -0.6305
 3528SOL    HW220624   2.716   9.065   0.407  1.6267  1.4435 -1.7054
 3529SOL     OW20625   2.520   9.202   1.750  0.4798  0.4636  0.7762
 3529SOL    HW120626   2.599   9.175   1.805  1.8166  1.7820 -0.4264
 3529SOL    HW220627   2.550   9.221   1.657 -1.6305 -1.0077 -0.2287
 3530SOL     OW20628   1.253   6.928   1.353  0.6217  0.0372 -0.1321
 3530SOL    HW120629   1.306   6.864   1.409  0.8644  0.8106  0.5152
 3530SOL    HW220630   1.167   6.950   1.400 -0.8091 -2.0592 -1.6545
 3531SOL     OW20631   1.971   7.452   1.608  0.4058 -0.3197 -0.8400
 3531SOL    HW120632   1.875   7.469   1.586  0.2312 -1.6273 -1.1213
 3531SOL    HW220633   2.004   7.524   1.668 -1.0096 -0.3544  0.0102
 3532SOL     OW20634   2.151   6.771   0.331  0.2541 -0.6426  0.0892
 3532SOL    HW120635   2.196   6.689   0.296  0.0321 -0.5487 -0.4314
 3532SOL    HW220636   2.090   6.808   0.260  2.1753  1.3525 -0.5694
 3533SOL     OW20637   3.486  10.386   1.974 -0.0588 -0.2868 -0.0888
 3533SOL    HW120638   3.566  10.410   1.919 -0.6203  0.2111 -0.7000
 3533SOL    HW220639   3.403  10.418   1.928 -0.4846  0.8420  1.4103
 3534SOL     OW20640   1.542  10.158   2.149 -0.3208 -0.2455 -0.2643
 3534SOL    HW120641   1.541  10.251   2.187  0.5746 -0.9760  1.6131
 3534SOL    HW220642   1.448  10.132   2.126 -0.3585  1.8404 -2.6769
 3535SOL     OW20643   2.304   2.727   2.121  0.1693 -0.3137 -0.2260
 3535SOL    HW120644   2.288   2.720   2.219  1.2092 -2.5593 -0.1825
 3535SOL    HW220645   2.401   2.746   2.104 -0.0090  0.0915 -0.8121
 3536SOL     OW20646   4.108   5.606   2.077 -0.2441 -0.5121  0.0799
 3536SOL    HW120647   4.182   5.651   2.025  0.7129  0.6058  2.3397
 3536SOL    HW220648   4.145   5.528   2.126 -1.0690 -1.3420 -0.6134
 3537SOL     OW20649   1.944   5.119   1.111 -0.7695  0.3445  0.4735
 3537SOL    HW120650   2.005   5.198   1.119 -0.1746 -0.0440 -0.1498
 3537SOL    HW220651   1.890   5.126   1.027  1.5165 -1.4087 -1.2409
 3538SOL     OW20652   5.315   3.746   0.228  0.0825  0.3648  0.4572
 3538SOL    HW120653   5.267   3.678   0.172 -1.8887  2.0608  0.0326
 3538SOL    HW220654   5.294   3.838   0.194 -1.1128  1.4485  3.9343
 3539SOL     OW20655   1.277   4.310   1.069 -0.0498  0.2728  0.4456
 3539SOL    HW120656   1.217   4.230   1.067 -0.5716  0.5314  3.1228
 3539SOL    HW220657   1.324   4.319   0.981 -0.4332 -2.6076 -0.1188
 3540SOL     OW20658   3.082   4.891   0.520 -0.2018  0.6400 -0.2794
 3540SOL    HW120659   3.105   4.817   0.458 -1.0040  1.1585 -1.2136
 3540SOL    HW220660   3.081   4.978   0.470  0.5882  1.2730  0.7670
 3541SOL     OW20661   2.253   8.138   0.723  0.5852 -0.0784 -0.4153
 3541SOL    HW120662   2.330   8.174   0.776 -0.0587  0.6347  0.0435
 3541SOL    HW220663   2.237   8.043   0.748 -0.4539  0.5809  1.5359
 3542SOL     OW20664   0.878   3.330   1.778  0.2391 -0.1069  0.1446
 3542SOL    HW120665   0.933   3.405   1.741 -1.1959  1.4775  1.1479
 3542SOL    HW220666   0.922   3.295   1.861  0.0946  0.7160  0.5754
 3543SOL     OW20667   4.277   9.438   1.081  0.3427  0.5772  0.6008
 3543SOL    HW120668   4.297   9.416   1.177 -0.5635  0.7844  0.8403
 3543SOL    HW220669   4.229   9.361   1.039  0.1811  0.7431  0.4850
 3544SOL     OW20670   0.906   2.660   2.258 -0.0007 -0.1887  0.4471
 3544SOL    HW120671   0.910   2.744   2.313 -0.5145  1.2474 -1.6442
 3544SOL    HW220672   0.962   2.589   2.302  1.8011  1.7534  1.4144
 3545SOL     OW20673   2.029   1.349   0.115 -0.0646 -0.0103 -0.0308
 3545SOL    HW120674   1.995   1.357   0.021  0.5382  1.2410 -0.1649
 3545SOL    HW220675   2.032   1.253   0.142  1.1735 -0.5088 -1.8303
 3546SOL     OW20676  10.394   6.467   0.632  0.3949 -0.4340  0.4909
 3546SOL    HW120677  10.393   6.481   0.731  1.4985  0.2800  0.4026
 3546SOL    HW220678  10.469   6.405   0.607  0.7521  0.1888 -0.0007
 3547SOL     OW20679   2.513   5.214   2.180 -0.4228 -0.3727 -0.4831
 3547SOL    HW120680   2.573   5.147   2.137  1.5189  1.9624 -1.5605
 3547SOL    HW220681   2.436   5.233   2.120  0.8770  0.8978 -1.8010
 3548SOL     OW20682   0.815   4.978   1.098  0.3055  0.1290 -0.2076
 3548SOL    HW120683   0.819   4.878   1.103  1.3167  0.1193 -0.9402
 3548SOL    HW220684   0.876   5.018   1.167  2.4665  0.1758 -2.0675
 3549SOL     OW20685   4.631   4.139   0.828 -0.3584 -0.3261  0.5107
 3549SOL    HW120686   4.600   4.064   0.770  0.6135  0.3897 -0.9701
 3549SOL    HW220687   4.552   4.184   0.869 -1.1715  0.1294 -1.4980
 3550SOL     OW20688   2.345   7.849   2.400  0.1443 -0.4642 -0.0193
 3550SOL    HW120689   2.367   7.940   2.434 -0.0807 -0.4033 -0.0342
 3550SOL    HW220690   2.363   7.844   2.302 -1.4166  0.0735 -0.3391
 3551SOL     OW20691   1.923   9.514   1.278  0.4828 -0.2859  0.0525
 3551SOL    HW120692   1.861   9.444   1.242  0.2209 -1.5453  2.7956
 3551SOL    HW220693   2.015   9.500   1.241  0.1646 -1.3841 -0.3315
 3552SOL     OW20694   3.789   4.205   2.098 -0.2378  0.2052 -0.0615
 3552SOL    HW120695   3.729   4.272   2.143  0.6300  0.9664 -0.0263
 3552SOL    HW220696   3.850   4.165   2.166 -1.5149 -1.4794  0.1341
 3553SOL     OW20697   1.108   1.186   2.100 -0.3494  0.7283  0.1528
 3553SOL    HW120698   1.087   1.195   2.003  2.3116  4.5435 -0.1941
 3553SOL    HW220699   1.049   1.246   2.153  0.7231  1.5126  0.4785
 3554SOL     OW20700   1.485   5.344   2.644  0.3882 -0.0377 -0.1736
 3554SOL    HW120701   1.580   5.370   2.662  0.9157 -0.0575 -2.7149
 3554SOL    HW220702   1.482   5.283   2.564 -1.8684  1.1446 -1.0323
 3555SOL     OW20703   2.682   1.787   1.809 -0.3389 -1.1225 -0.0894
 3555SOL    HW120704   2.590   1.800   1.773 -0.4366  0.4838  0.6859
 3555SOL    HW220705   2.728   1.713   1.760 -0.7515  0.4528 -2.9325
 3556SOL     OW20706   3.646  10.438   0.113  0.6228 -0.0505 -0.0810
 3556SOL    HW120707   3.581  10.392   0.173 -1.8711  0.6806 -2.1370
 3556SOL    HW220708   3.657  10.384   0.029  1.4741  0.6217 -0.4123
 3557SOL     OW20709   3.561  10.546   2.267 -0.4915  0.1110 -0.4215
 3557SOL    HW120710   3.489  10.478   2.257  2.0680 -2.8781  0.5027
 3557SOL    HW220711   3.650  10.503   2.251  1.2617  3.1995  0.5053
 3558SOL     OW20712   4.292   3.314   1.350 -0.3270  0.0111  0.4950
 3558SOL    HW120713   4.308   3.407   1.317  1.9110  0.0654  1.5956
 3558SOL    HW220714   4.251   3.317   1.441 -0.0866 -0.0771  0.6065
 3559SOL     OW20715  10.138   4.924   1.802 -0.0987  0.3114 -0.1416
 3559SOL    HW120716  10.143   4.828   1.832 -0.5115  0.0081 -1.0071
 3559SOL    HW220717  10.093   4.928   1.713  0.9546  1.2144 -0.6344
 3560SOL     OW20718   2.178   9.757   0.326 -0.1275 -0.2922 -0.2784
 3560SOL    HW120719   2.146   9.668   0.295  0.7568 -0.4572 -0.7141
 3560SOL    HW220720   2.146   9.773   0.420 -0.2949 -1.0564 -0.2049
 3561SOL     OW20721   3.525   2.736   0.622 -0.0987  0.1967  0.1601
 3561SOL    HW120722   3.428   2.714   0.611 -0.1835  0.4047  0.4978
 3561SOL    HW220723   3.581   2.659   0.589 -0.3662  0.4155 -0.8196
 3562SOL     OW20724   1.914   5.991   2.609  0.1437 -0.0689  0.4841
 3562SOL    HW120725   1.993   5.962   2.555  1.2109 -0.4614  2.2057
 3562SOL    HW220726   1.943   6.011   2.702 -1.5984  0.9545  0.8352
 3563SOL     OW20727   3.290   7.904   1.527 -0.4458  0.0855  0.0815
 3563SOL    HW120728   3.287   7.820   1.582  1.0890 -0.0064  0.0613
 3563SOL    HW220729   3.333   7.884   1.439  2.3368  1.4141  1.0821
 3564SOL     OW20730   1.869  10.348   2.549  0.0044  0.1305 -0.2429
 3564SOL    HW120731   1.848  10.252   2.528  2.8184 -0.5407 -0.1894
 3564SOL    HW220732   1.943  10.352   2.615 -0.3522  2.3731  0.0660
 3565SOL     OW20733   1.584   7.953   1.361  0.0412  0.0286 -0.2993
 3565SOL    HW120734   1.607   7.913   1.273 -0.6193  1.1267 -0.9914
 3565SOL    HW220735   1.491   7.925   1.387  0.2806 -0.3926  0.1088
 3566SOL     OW20736  10.122   1.122   2.691  0.4395  0.4168  0.1031
 3566SOL    HW120737  10.123   1.063   2.772  0.1797  0.5080  0.1710
 3566SOL    HW220738  10.096   1.215   2.718  1.9112  0.8317  0.1847
 3567SOL     OW20739   0.651   3.497   0.194  0.6265 -0.4459 -0.1853
 3567SOL    HW120740   0.751   3.504   0.191  0.6083  0.1549  0.4562
 3567SOL    HW220741   0.614   3.577   0.240 -0.1566 -0.6665 -0.4309
 3568SOL     OW20742   2.067   6.889   1.680  0.2771 -0.1574  0.3340
 3568SOL    HW120743   2.085   6.812   1.619 -2.3168 -0.3022 -0.3147
 3568SOL    HW220744   2.018   6.857   1.761 -0.8111  0.8139  0.0612
 3569SOL     OW20745  10.080   1.923   0.444  0.3698  0.2182  0.4673
 3569SOL    HW120746  10.090   2.018   0.415  0.4795 -0.6312 -2.3993
 3569SOL    HW220747   9.991   1.910   0.487 -0.9784  0.9714 -1.9930
 3570SOL     OW20748   2.573   8.357   2.550  0.1428 -0.1230  0.6828
 3570SOL    HW120749   2.650   8.385   2.493  0.1452  0.4728  0.9698
 3570SOL    HW220750   2.591   8.382   2.645  0.2246 -1.2953  0.9760
 3571SOL     OW20751   2.891   4.393   2.591 -0.0878 -0.0313  0.3076
 3571SOL    HW120752   2.927   4.336   2.517 -0.5054  0.8952 -0.6176
 3571SOL    HW220753   2.792   4.378   2.599  0.0010 -0.3374  0.8659
 3572SOL     OW20754   2.798   1.043   2.490 -0.7035  0.4227 -0.3485
 3572SOL    HW120755   2.893   1.068   2.508 -0.5764 -0.3599  0.1076
 3572SOL    HW220756   2.759   1.001   2.572 -1.2701  0.2152 -0.7230
 3573SOL     OW20757   9.678   4.406   1.150 -0.3321 -0.3042  0.2334
 3573SOL    HW120758   9.631   4.322   1.124 -0.7761  0.4814 -1.6067
 3573SOL    HW220759   9.721   4.394   1.240 -0.9569 -2.2466  0.2998
 3574SOL     OW20760   2.218   3.866   2.682  0.2893 -0.4567  0.3198
 3574SOL    HW120761   2.170   3.840   2.766 -0.7849 -3.2302 -1.1157
 3574SOL    HW220762   2.314   3.841   2.689  0.4787  0.4394  1.1639
 3575SOL     OW20763   3.025  10.620   1.153 -0.2486 -0.2923  0.0814
 3575SOL    HW120764   3.086  10.652   1.225  0.7377  0.8540 -1.2351
 3575SOL    HW220765   2.933  10.607   1.190  0.2780  0.1674  1.5635
 3576SOL     OW20766   1.870   9.331   2.121  0.6483 -0.0576  0.1564
 3576SOL    HW120767   1.899   9.425   2.100 -0.8598 -0.0844 -2.3077
 3576SOL    HW220768   1.940   9.267   2.088  0.4841  0.1188 -0.5567
 3577SOL     OW20769   2.595   1.305   1.854  0.1616 -0.1621  0.1800
 3577SOL    HW120770   2.630   1.350   1.936 -1.8535  0.9174  0.4844
 3577SOL    HW220771   2.670   1.261   1.805  2.0400  2.5394  0.5319
 3578SOL     OW20772   0.681   4.423   1.916  0.1687  0.6993 -0.5506
 3578SOL    HW120773   0.642   4.397   1.828 -1.1214 -0.6448  0.3909
 3578SOL    HW220774   0.682   4.522   1.925  1.0816  0.8719 -2.4095
 3579SOL     OW20775   1.109   4.678   2.220  0.1665  0.2476 -0.1612
 3579SOL    HW120776   1.136   4.735   2.297  1.5825 -2.1012  1.1619
 3579SOL    HW220777   1.031   4.622   2.246  2.4623 -2.7072  0.6708
 3580SOL     OW20778   9.900   2.433   1.306  0.7174  0.1073  0.1656
 3580SOL    HW120779   9.980   2.492   1.319  0.6993  0.5538 -1.6265
 3580SOL    HW220780   9.888   2.415   1.209  0.4623 -2.5004  0.6443
 3581SOL     OW20781   1.806   0.923   0.565 -0.3411 -0.2037 -0.0646
 3581SOL    HW120782   1.790   1.020   0.553 -1.1507 -0.1459  1.3218
 3581SOL    HW220783   1.839   0.883   0.480  0.4961  1.3769 -0.5032
 3582SOL     OW20784  10.318   2.476   2.341 -0.5448 -0.3073 -0.5138
 3582SOL    HW120785  10.344   2.568   2.311 -1.6778  0.9138  2.0730
 3582SOL    HW220786  10.254   2.437   2.276 -1.9721  1.7565 -0.3950
 3583SOL     OW20787   9.631   1.236   2.063 -0.1705 -0.1129 -0.2294
 3583SOL    HW120788   9.691   1.187   2.126 -0.5919  0.1464  0.3775
 3583SOL    HW220789   9.623   1.331   2.092 -0.5697 -0.0558 -0.5275
 3584SOL     OW20790  10.205   1.915   0.676 -0.5167  0.0471 -0.3740
 3584SOL    HW120791  10.146   1.914   0.595 -1.4078 -1.5495  0.2750
 3584SOL    HW220792  10.267   1.993   0.671 -1.3410  0.6164 -2.0367
 3585SOL     OW20793  10.105   5.356   1.824 -0.2280 -0.2629  0.3738
 3585SOL    HW120794  10.169   5.379   1.897 -0.6272  0.9505  0.3410
 3585SOL    HW220795  10.049   5.278   1.851 -0.3699  0.1826  1.3560
 3586SOL     OW20796   9.260   3.389   1.407 -0.2934  0.5524  0.5778
 3586SOL    HW120797   9.220   3.305   1.372  0.6466 -0.0744  1.0056
 3586SOL    HW220798   9.188   3.456   1.424 -0.9174  0.3070 -1.0293
 3587SOL     OW20799   1.686   9.560   2.420  0.3460  0.7580 -0.5534
 3587SOL    HW120800   1.761   9.599   2.367  0.8745 -0.8838 -1.0282
 3587SOL    HW220801   1.723   9.511   2.499 -0.2358  0.2731 -0.5755
 3588SOL     OW20802   1.650   3.542   2.292  0.2371  0.2920  0.0023
 3588SOL    HW120803   1.654   3.626   2.347  0.2570 -0.4679  1.1860
 3588SOL    HW220804   1.737   3.529   2.244  0.8830  0.0125  1.2323
 3589SOL     OW20805   0.778   9.121   1.078  0.2244  0.4072 -0.3226
 3589SOL    HW120806   0.687   9.082   1.065  0.4937 -1.3942  2.6406
 3589SOL    HW220807   0.846   9.049   1.073  1.2021  1.2640  0.4182
 3590SOL     OW20808   2.364   5.024   1.046  0.1971 -0.4594 -0.2724
 3590SOL    HW120809   2.315   5.111   1.037 -0.4174 -0.8036 -0.2620
 3590SOL    HW220810   2.413   5.023   1.134 -1.0288 -0.7413  0.4127
 3591SOL     OW20811   1.971   7.937   0.892  0.9150 -0.2373 -0.1552
 3591SOL    HW120812   2.068   7.945   0.918  0.6375 -0.2220  0.9109
 3591SOL    HW220813   1.929   8.028   0.892  0.7745 -0.3021 -0.1121
 3592SOL     OW20814   9.842   3.037   0.840  0.7571  0.1050 -0.0450
 3592SOL    HW120815   9.765   3.093   0.809  0.7057  0.1483  0.1641
 3592SOL    HW220816   9.826   3.006   0.933  1.2730  0.6171  0.2129
 3593SOL     OW20817   1.781   8.913   2.423  0.1042 -0.0139  0.7576
 3593SOL    HW120818   1.840   8.971   2.367 -0.4921 -0.4224 -0.3284
 3593SOL    HW220819   1.830   8.830   2.448  0.4341  0.2478  0.9931
 3594SOL     OW20820   9.894   1.937   0.986 -0.2976  0.6382  0.0066
 3594SOL    HW120821   9.973   1.892   0.944 -0.6749  0.3104 -0.3602
 3594SOL    HW220822   9.817   1.873   0.987 -0.5065  0.9030  0.5164
 3595SOL     OW20823   3.999   1.137   1.693  0.5451  0.3200 -0.0876
 3595SOL    HW120824   3.966   1.075   1.623 -0.2097 -0.0841  0.6177
 3595SOL    HW220825   3.922   1.177   1.742  1.0654  0.0985  0.9398
 3596SOL     OW20826   2.503   6.699   2.343 -0.0761 -0.8439  0.4577
 3596SOL    HW120827   2.520   6.786   2.296 -1.8784 -0.6919  0.0153
 3596SOL    HW220828   2.458   6.635   2.280 -0.8923 -1.2664  1.4375
 3597SOL     OW20829  10.308   1.037   0.843  0.5671 -0.2745 -0.1760
 3597SOL    HW120830  10.392   1.027   0.789  0.6386  1.0941 -0.3289
 3597SOL    HW220831  10.306   1.128   0.886 -0.3943 -0.6445  0.5824
 3598SOL     OW20832  10.386   2.090   1.281 -0.3766  0.5366 -0.3735
 3598SOL    HW120833  10.395   2.015   1.215  0.4840  0.2779  0.0306
 3598SOL    HW220834  10.325   2.160   1.243 -1.8229 -0.7228 -0.4198
 3599SOL     OW20835   4.795   8.905   1.642  0.9769 -0.2195  0.3821
 3599SOL    HW120836   4.882   8.868   1.610  0.0798 -1.5191 -0.5929
 3599SOL    HW220837   4.769   8.983   1.586  2.3509  1.2690  1.7724
 3600SOL     OW20838   0.908  10.009   0.370  0.6030 -0.2424  0.0238
 3600SOL    HW120839   0.929   9.942   0.299  1.8968 -0.3663  0.5106
 3600SOL    HW220840   0.919  10.102   0.333 -2.1063 -0.2556 -0.9255
 3601SOL     OW20841   0.605   7.435   2.665  0.0119 -0.2125  0.0941
 3601SOL    HW120842   0.540   7.410   2.736 -1.3364  2.1570 -0.2584
 3601SOL    HW220843   0.572   7.404   2.576 -0.2881  0.3265  0.0127
 3602SOL     OW20844   2.617   2.077   2.644 -0.4464  0.3071  0.0964
 3602SOL    HW120845   2.630   1.984   2.679 -0.9128  0.1367 -0.1737
 3602SOL    HW220846   2.616   2.075   2.544  0.8915  0.7938  0.0724
 3603SOL     OW20847   1.266   7.357   2.019 -0.2834 -0.7493 -0.1130
 3603SOL    HW120848   1.180   7.337   1.973  0.0675 -0.3114 -0.9836
 3603SOL    HW220849   1.334   7.388   1.952  1.3667 -3.5688  0.1758
 3604SOL     OW20850   1.369   1.586   0.211  0.2322  0.2089  0.1694
 3604SOL    HW120851   1.409   1.655   0.152  1.0484  0.1926  0.6978
 3604SOL    HW220852   1.422   1.502   0.206 -1.6612 -0.9370 -1.6862
 3605SOL     OW20853   8.922   2.754   0.667 -0.2613  0.0255 -0.3791
 3605SOL    HW120854   8.902   2.818   0.592 -3.4341 -1.3180 -0.7457
 3605SOL    HW220855   8.984   2.683   0.634 -1.4108 -0.3985 -1.6986
 3606SOL     OW20856   1.932   4.111   0.669 -0.4630  0.1202  0.2425
 3606SOL    HW120857   1.863   4.133   0.738 -1.8136  0.0102 -1.0542
 3606SOL    HW220858   1.986   4.032   0.700 -1.1682 -0.0374  1.0941
 3607SOL     OW20859   3.320   5.942   1.036  0.3308 -0.0843  0.4529
 3607SOL    HW120860   3.381   5.863   1.029  1.3066  0.6897  0.0553
 3607SOL    HW220861   3.317   5.989   0.948 -3.7106 -2.1750 -0.6484
 3608SOL     OW20862   1.865   2.211   0.758  0.1296  0.2379 -0.5511
 3608SOL    HW120863   1.781   2.181   0.803 -0.5138  1.6787 -0.7582
 3608SOL    HW220864   1.940   2.211   0.825 -0.2688 -0.0298 -0.1009
 3609SOL     OW20865   3.526   1.530   1.382  0.0551 -0.0423 -0.1756
 3609SOL    HW120866   3.574   1.596   1.324 -0.4424 -0.7526 -1.4199
 3609SOL    HW220867   3.473   1.468   1.324  0.9187 -1.8423  0.9310
 3610SOL     OW20868   9.352   5.371   0.149  0.2757  0.2264  0.2186
 3610SOL    HW120869   9.415   5.353   0.073 -0.3641  1.0642 -0.5379
 3610SOL    HW220870   9.259   5.382   0.112  0.2575  2.5490  0.8864
 3611SOL     OW20871   4.044   9.199   1.210 -0.2260  0.0619 -0.9477
 3611SOL    HW120872   3.945   9.183   1.213  0.1121 -2.0384 -0.5671
 3611SOL    HW220873   4.070   9.264   1.281 -1.3153  0.5703 -1.0066
 3612SOL     OW20874   1.187   7.757   0.699  0.2343  0.1590  0.6313
 3612SOL    HW120875   1.171   7.769   0.601 -0.5060  0.8368  0.8299
 3612SOL    HW220876   1.284   7.737   0.714  0.4402  0.4809 -0.2068
 3613SOL     OW20877   9.454   4.854   1.442  0.2363 -0.1155  0.3364
 3613SOL    HW120878   9.512   4.904   1.378  1.1859 -0.3515  1.0048
 3613SOL    HW220879   9.399   4.787   1.392 -1.5066  1.9745 -0.6556
 3614SOL     OW20880  10.378   5.053   2.094 -0.2643  0.5236  0.9634
 3614SOL    HW120881  10.355   5.055   1.997 -0.0081 -1.3278  0.8416
 3614SOL    HW220882  10.446   4.982   2.110  0.3008  1.3698  2.3782
 3615SOL     OW20883   1.520   2.655   1.682 -0.0562 -0.2345 -0.1412
 3615SOL    HW120884   1.515   2.556   1.690  0.4930 -0.2157  0.4135
 3615SOL    HW220885   1.510   2.697   1.772 -1.9053  0.2896 -0.5634
 3616SOL     OW20886   0.975   6.683   2.488 -0.1024  0.2570 -0.5543
 3616SOL    HW120887   0.909   6.711   2.557 -2.3604  0.1038 -2.6097
 3616SOL    HW220888   0.999   6.763   2.431  1.7531  0.3883  0.3590
 3617SOL     OW20889   3.700   9.690   0.286  0.0299 -0.0626 -0.2684
 3617SOL    HW120890   3.733   9.687   0.192  0.5606 -0.9734 -0.0600
 3617SOL    HW220891   3.620   9.631   0.296  0.2590 -0.3361 -0.0402
 3618SOL     OW20892   3.781  10.106   1.063  0.2189 -0.2292  0.8674
 3618SOL    HW120893   3.850  10.040   1.090  2.5503  1.0101 -1.7953
 3618SOL    HW220894   3.771  10.175   1.134  3.0355  0.5625  0.5333
 3619SOL     OW20895   1.497   8.634   1.325  0.0016  0.3149 -0.8705
 3619SOL    HW120896   1.447   8.720   1.325 -0.8275 -0.1641 -0.2152
 3619SOL    HW220897   1.465   8.576   1.250  0.9263  0.7785 -1.6374
 3620SOL     OW20898   2.731   3.040   0.522  0.2245  0.3069 -0.1267
 3620SOL    HW120899   2.652   3.101   0.525 -0.2434 -0.3130  0.2677
 3620SOL    HW220900   2.774   3.038   0.613  0.3837  0.2395 -0.2050
 3621SOL     OW20901   1.765   3.047   1.971  0.2670 -0.3516 -0.2510
 3621SOL    HW120902   1.850   3.060   1.920  1.2071 -0.3553  1.2601
 3621SOL    HW220903   1.687   3.059   1.910  1.3206  0.9689 -1.3918
 3622SOL     OW20904   1.730  10.302   1.184  0.1026  0.2878  0.3151
 3622SOL    HW120905   1.663  10.376   1.196 -0.9520 -0.4700 -0.7644
 3622SOL    HW220906   1.692  10.234   1.122  2.1483  0.1466 -0.7898
 3623SOL     OW20907   2.600  10.568   1.426 -0.2956 -0.6584  0.0096
 3623SOL    HW120908   2.626  10.653   1.470  1.5352 -0.7864 -0.7962
 3623SOL    HW220909   2.553  10.509   1.492  1.0381 -0.2262  1.3539
 3624SOL     OW20910   3.008   7.171   1.352 -0.3319  0.0878 -0.2839
 3624SOL    HW120911   3.044   7.124   1.272 -0.6047  1.5887 -1.3056
 3624SOL    HW220912   3.074   7.240   1.383 -0.8968  0.5857 -0.1678
 3625SOL     OW20913   2.110   8.423   1.205  0.4725  0.0818  0.0116
 3625SOL    HW120914   2.123   8.329   1.174  0.1687  0.6530 -1.9456
 3625SOL    HW220915   2.074   8.423   1.298  2.6031 -1.6889  0.8899
 3626SOL     OW20916   0.993   7.995   2.316  0.3211  0.1069 -0.0581
 3626SOL    HW120917   1.088   7.973   2.337  0.3147  0.1444  0.0139
 3626SOL    HW220918   0.934   7.959   2.389  0.1635 -0.9858 -0.7212
 3627SOL     OW20919   1.019   4.214   1.720 -0.1101 -0.1082 -0.2004
 3627SOL    HW120920   1.022   4.258   1.810 -0.4925 -1.6045  0.5705
 3627SOL    HW220921   1.112   4.205   1.685  0.3856 -2.3609  1.5140
 3628SOL     OW20922   4.107   1.190   1.371  0.3881 -0.3185  0.2265
 3628SOL    HW120923   4.156   1.252   1.432  1.4169 -0.7631 -0.1528
 3628SOL    HW220924   4.009   1.198   1.389  0.5738  0.7153  0.8423
 3629SOL     OW20925  10.488   3.239   1.446 -0.2854 -0.0583 -0.5564
 3629SOL    HW120926  10.458   3.145   1.464 -0.2538  0.0922  0.2877
 3629SOL    HW220927  10.573   3.257   1.495  0.2142  0.1175 -1.4664
 3630SOL     OW20928   4.699   1.763   0.160 -0.0771 -0.2105  0.1384
 3630SOL    HW120929   4.697   1.668   0.131 -1.6734  0.4820 -2.1290
 3630SOL    HW220930   4.792   1.799   0.150  0.5123 -1.4826  0.9406
 3631SOL     OW20931   4.108   8.601   2.109 -0.5647 -0.2011 -0.1009
 3631SOL    HW120932   4.041   8.585   2.037  0.1831 -0.6228 -0.7046
 3631SOL    HW220933   4.194   8.556   2.086  0.1634  0.9566  0.3218
 3632SOL     OW20934   1.110  10.318   2.158  0.3917  0.6379  0.5524
 3632SOL    HW120935   1.019  10.304   2.120 -0.8404  1.7797  2.9262
 3632SOL    HW220936   1.169  10.241   2.135 -0.5893  0.7653 -2.6259
 3633SOL     OW20937   3.533   3.864   0.764  0.7145  0.4111  0.2576
 3633SOL    HW120938   3.434   3.879   0.771  0.4326 -0.1458 -2.0680
 3633SOL    HW220939   3.562   3.802   0.836 -0.6835  0.3438  0.7849
 3634SOL     OW20940   1.104   3.285   1.960  0.0364 -0.6336 -0.0611
 3634SOL    HW120941   1.106   3.347   1.881  0.6104 -1.0721 -0.3921
 3634SOL    HW220942   1.123   3.337   2.043 -1.8940  0.0723 -0.0462
 3635SOL     OW20943  10.575   0.892   0.158 -0.5933  0.0621 -0.1180
 3635SOL    HW120944  10.515   0.967   0.184  0.6401  1.3222 -0.8425
 3635SOL    HW220945  10.653   0.888   0.219  0.2168  0.4581 -1.1051
 3636SOL     OW20946  10.053   4.606   0.613 -0.1240  0.1710 -0.3563
 3636SOL    HW120947  10.107   4.677   0.570  0.9464 -0.4592 -0.0671
 3636SOL    HW220948  10.039   4.531   0.548  1.0418 -0.5447  0.2112
 3637SOL     OW20949   0.765   6.371   1.686  0.2528 -0.7763  0.0383
 3637SOL    HW120950   0.788   6.299   1.620  0.8418 -1.9753  1.5104
 3637SOL    HW220951   0.839   6.438   1.689  0.8524 -1.4426  0.4417
 3638SOL     OW20952   9.571   2.382   1.403  0.2196 -0.3942 -0.2767
 3638SOL    HW120953   9.648   2.437   1.373  0.2506 -0.7955 -0.9473
 3638SOL    HW220954   9.582   2.288   1.370  0.5526 -0.9937  1.4999
 3639SOL     OW20955   1.241   6.970   0.571 -0.4350 -0.1516  0.4111
 3639SOL    HW120956   1.216   6.879   0.604 -0.6595 -0.3910 -0.4122
 3639SOL    HW220957   1.338   6.987   0.591 -0.5035 -0.3952  0.9509
 3640SOL     OW20958   9.446   2.259   2.262  0.2014  0.0432 -0.0752
 3640SOL    HW120959   9.461   2.207   2.177  0.3015 -0.0729  0.0125
 3640SOL    HW220960   9.349   2.282   2.270  0.4626  1.5875 -1.1045
 3641SOL     OW20961   2.495   8.186   1.671 -0.3411  0.5781 -0.5819
 3641SOL    HW120962   2.543   8.101   1.653 -0.0874  0.1868  1.8587
 3641SOL    HW220963   2.409   8.187   1.619 -1.1614 -1.9178  0.6299
 3642SOL     OW20964   0.860  10.691   2.555 -0.3389  0.5813 -0.2343
 3642SOL    HW120965   0.944  10.678   2.606  0.0325  1.6155 -0.5753
 3642SOL    HW220966   0.847  10.788   2.536 -0.5831  0.2405 -1.9003
 3643SOL     OW20967   2.693   8.819   0.217  0.2608 -0.4111 -0.1457
 3643SOL    HW120968   2.764   8.752   0.240  1.4458 -0.0039 -2.4939
 3643SOL    HW220969   2.634   8.781   0.146 -0.9443 -0.1333  0.6929
 3644SOL     OW20970   3.031   6.715   1.480 -0.7305 -0.6291 -0.0652
 3644SOL    HW120971   3.035   6.764   1.393 -1.0131 -0.4347  0.0315
 3644SOL    HW220972   3.111   6.656   1.488 -0.6642 -0.5894 -0.4228
 3645SOL     OW20973   0.888   3.767   1.751  0.5238  0.5910 -0.1385
 3645SOL    HW120974   0.861   3.682   1.796  0.0277 -0.1634 -1.8304
 3645SOL    HW220975   0.978   3.756   1.709  0.4925  0.9269 -0.2971
 3646SOL     OW20976  10.403   4.063   1.983  0.0456  0.6643  0.3911
 3646SOL    HW120977  10.488   4.094   2.026  1.0808  0.9532 -1.7656
 3646SOL    HW220978  10.423   4.028   1.892 -2.0166 -0.3609  0.3110
 3647SOL     OW20979   3.914  10.579   2.485 -0.4535 -0.0696 -0.6018
 3647SOL    HW120980   3.996  10.614   2.440  0.3762 -0.0133  0.9206
 3647SOL    HW220981   3.871  10.652   2.536 -0.2403 -0.6148  0.3657
 3648SOL     OW20982   9.389   4.601   0.285  0.1771 -0.1514  0.2299
 3648SOL    HW120983   9.321   4.624   0.354 -0.3470  1.1173 -0.6960
 3648SOL    HW220984   9.479   4.633   0.314  0.2196 -0.9219  0.9809
 3649SOL     OW20985   3.386   2.335   0.458 -0.4156 -0.9185 -0.2938
 3649SOL    HW120986   3.319   2.378   0.519 -0.3741 -1.7325  0.3384
 3649SOL    HW220987   3.443   2.405   0.416  0.3579 -0.4339  1.5419
 3650SOL     OW20988   0.978   1.660   0.333 -0.1183  0.2663  0.2525
 3650SOL    HW120989   0.974   1.669   0.234  1.5027  1.9969  0.3141
 3650SOL    HW220990   1.052   1.598   0.359 -1.5625 -1.4810  0.3713
 3651SOL     OW20991   4.302   0.962   1.011  0.0632  0.9982 -0.3692
 3651SOL    HW120992   4.322   1.007   1.098 -0.3480 -0.0485  0.2609
 3651SOL    HW220993   4.212   0.992   0.979 -1.1345 -0.9481  1.0839
 3652SOL     OW20994   2.871   9.491   0.967 -0.4161 -0.1529 -0.2393
 3652SOL    HW120995   2.966   9.463   0.950 -0.4790 -0.3550 -0.2553
 3652SOL    HW220996   2.863   9.590   0.955 -0.3771 -0.2367 -0.9931
 3653SOL     OW20997   1.717   6.382   1.221  0.2873  0.5326  0.2249
 3653SOL    HW120998   1.749   6.296   1.261 -0.4461  0.8307  1.4807
 3653SOL    HW220999   1.687   6.366   1.127 -1.6778 -0.9872  1.0782
 3654SOL     OW21000  10.007   3.652   1.262 -0.7368 -0.4731 -0.1490
 3654SOL    HW121001   9.914   3.624   1.237 -1.2963  0.0128  1.3233
 3654SOL    HW221002  10.039   3.721   1.198 -1.3035 -0.8172 -0.8125
 3655SOL     OW21003   2.043   6.849   2.155  0.0689  0.1467  0.3663
 3655SOL    HW121004   2.070   6.939   2.122  3.1852 -0.7786  0.2666
 3655SOL    HW221005   2.058   6.844   2.254 -0.6109 -0.0839  0.4604
 3656SOL     OW21006   2.832   6.802   2.552 -0.0037  0.5030  0.3868
 3656SOL    HW121007   2.823   6.710   2.513 -1.2266  0.4722  0.7372
 3656SOL    HW221008   2.745   6.831   2.590  0.5222  1.5947  0.7796
 3657SOL     OW21009   9.670   4.491   0.562 -0.1164 -0.1326  0.3374
 3657SOL    HW121010   9.571   4.481   0.547  0.1185 -1.6268 -0.3215
 3657SOL    HW221011   9.706   4.558   0.498 -0.4536 -0.7072 -0.4611
 3658SOL     OW21012   2.156   1.759   2.554 -0.3106 -0.0621 -0.2053
 3658SOL    HW121013   2.119   1.778   2.645 -1.1834  0.8329 -0.7368
 3658SOL    HW221014   2.082   1.732   2.492  0.2098 -0.2387 -0.7605
 3659SOL     OW21015   3.522  10.119   2.053  0.0755  0.3886 -0.4412
 3659SOL    HW121016   3.493  10.195   1.995 -1.3242  0.1268 -0.0916
 3659SOL    HW221017   3.560  10.046   1.996  1.6337  1.4222 -0.7630
 3660SOL     OW21018   2.617   4.416   1.827 -0.0813 -0.4404 -0.3369
 3660SOL    HW121019   2.623   4.341   1.761 -0.6261 -0.7418 -0.0472
 3660SOL    HW221020   2.656   4.386   1.914  2.5294  0.6409 -1.1111
 3661SOL     OW21021   2.888  10.538   0.674 -0.5943  0.5503  0.0331
 3661SOL    HW121022   2.951  10.464   0.649 -1.1201  0.2325 -0.3643
 3661SOL    HW221023   2.921  10.582   0.758 -0.7989 -0.8007  0.8560
 3662SOL     OW21024   1.334   4.655   2.067  0.3424 -0.1573 -0.1033
 3662SOL    HW121025   1.368   4.564   2.092 -0.0762 -0.2062  0.3053
 3662SOL    HW221026   1.249   4.673   2.117 -0.1755  0.0006 -1.0271
 3663SOL     OW21027  10.073   4.551   1.507  0.1887 -0.3447 -0.2369
 3663SOL    HW121028  10.029   4.577   1.422  1.9936  0.4729 -0.9529
 3663SOL    HW221029  10.171   4.536   1.491  0.7189  0.6296  1.8200
 3664SOL     OW21030   2.504   3.994   0.283  0.2153  0.0054  0.2092
 3664SOL    HW121031   2.533   4.077   0.235  0.0771 -0.1755 -0.1877
 3664SOL    HW221032   2.485   3.922   0.216  1.1935 -0.6253  0.5941
 3665SOL     OW21033   0.833   5.878   0.430 -0.0624 -0.4982  0.3043
 3665SOL    HW121034   0.854   5.871   0.333 -2.4907  0.1218 -0.2911
 3665SOL    HW221035   0.843   5.788   0.473  1.7857 -0.6212 -0.3148
 3666SOL     OW21036   1.389   6.088   2.629  0.0152  0.0099 -0.1514
 3666SOL    HW121037   1.329   6.119   2.555  0.8545  0.1536 -0.7783
 3666SOL    HW221038   1.479   6.131   2.619  0.6166 -1.1904  0.0431
 3667SOL     OW21039   9.874   2.259   0.447  0.0797 -0.4894  0.3130
 3667SOL    HW121040   9.816   2.217   0.517  0.1314  0.3009  0.8324
 3667SOL    HW221041   9.964   2.215   0.448  0.1186 -0.3931  0.8211
 3668SOL     OW21042   9.266   2.327   0.366 -0.3714  0.1074  0.0511
 3668SOL    HW121043   9.275   2.346   0.464  4.3871 -0.1039 -0.2749
 3668SOL    HW221044   9.316   2.243   0.344  1.0558  1.7333 -3.0692
 3669SOL     OW21045   3.853   1.743   1.482 -0.0378  0.4626  0.2348
 3669SOL    HW121046   3.863   1.655   1.527  0.3673  0.0799 -0.5751
 3669SOL    HW221047   3.883   1.816   1.543 -1.3170  0.1221  1.2601
 3670SOL     OW21048  10.236   2.168   1.499 -0.0428 -0.0820  0.0136
 3670SOL    HW121049  10.139   2.162   1.475  0.3106  0.7936 -1.7286
 3670SOL    HW221050  10.291   2.137   1.421  1.0926 -0.3176  0.8937
 3671SOL     OW21051   3.097   9.553   1.886 -0.3046 -0.2367  0.1865
 3671SOL    HW121052   3.079   9.474   1.828  1.4967  0.0674 -0.8466
 3671SOL    HW221053   3.082   9.637   1.833  0.8912  0.0518  0.2902
 3672SOL     OW21054   2.384   4.019   1.695  0.5034 -0.0653  0.5141
 3672SOL    HW121055   2.295   4.050   1.731  0.6939  0.8198  0.2413
 3672SOL    HW221056   2.430   3.964   1.764  0.4036  0.7424  1.2388
 3673SOL     OW21057   1.699   7.551   0.097  0.0477  0.0163  0.0391
 3673SOL    HW121058   1.748   7.634   0.123  2.7629 -1.2272 -0.8935
 3673SOL    HW221059   1.652   7.565   0.010  0.0352  0.7505  0.1629
 3674SOL     OW21060   2.816   2.128   0.986  0.5598 -0.1831 -0.5826
 3674SOL    HW121061   2.772   2.174   0.909 -0.0328  1.4896  0.7333
 3674SOL    HW221062   2.863   2.046   0.953  0.5218  0.6350 -2.7499
 3675SOL     OW21063  10.573   0.850   1.429  0.2290 -0.1025 -0.1408
 3675SOL    HW121064  10.529   0.826   1.515  0.0508 -1.5591 -0.6366
 3675SOL    HW221065  10.597   0.947   1.431 -0.3949  0.0421  1.2702
 3676SOL     OW21066   4.117  10.355   0.269  0.3689 -0.6223  0.2253
 3676SOL    HW121067   4.193  10.340   0.331  3.7719  1.1000 -3.3273
 3676SOL    HW221068   4.122  10.289   0.193 -1.9429 -0.7400  0.1181
 3677SOL     OW21069   9.154   1.787   1.277 -0.1066  0.2464  0.6420
 3677SOL    HW121070   9.246   1.826   1.270  0.5040 -1.5376 -2.0447
 3677SOL    HW221071   9.092   1.837   1.217  0.1787 -1.4811 -1.1129
 3678SOL     OW21072   2.317   2.802   0.182  0.2274  0.2915 -0.0023
 3678SOL    HW121073   2.377   2.735   0.139  0.1439 -0.0385  0.4014
 3678SOL    HW221074   2.361   2.892   0.181  0.7088  0.0567  0.2585
 3679SOL     OW21075   4.206   1.705   0.503  0.0247 -0.2136 -0.0664
 3679SOL    HW121076   4.298   1.734   0.530 -0.1025  0.5911 -0.4947
 3679SOL    HW221077   4.146   1.785   0.494 -0.6034 -0.6926 -0.2291
 3680SOL     OW21078   3.289  10.619   1.344 -0.4744  0.5033 -0.0376
 3680SOL    HW121079   3.241  10.584   1.424 -0.5150 -1.1898 -0.7656
 3680SOL    HW221080   3.302  10.544   1.278  0.6130  1.5946 -1.0854
 3681SOL     OW21081   2.060   9.351   0.918  0.1694  0.2349  0.1134
 3681SOL    HW121082   2.065   9.265   0.968  0.8096 -1.3068 -2.4993
 3681SOL    HW221083   2.145   9.401   0.929  0.7125 -0.5936 -0.2708
 3682SOL     OW21084   1.083   1.363   2.501  0.2548 -0.3761  0.2829
 3682SOL    HW121085   1.026   1.313   2.566  1.7495 -0.5970  1.4296
 3682SOL    HW221086   1.029   1.384   2.420 -0.8685 -2.4578  0.4464
 3683SOL     OW21087   2.365   7.334   2.009  0.0011  0.0938 -0.1679
 3683SOL    HW121088   2.452   7.324   2.057 -0.9183 -0.8430  1.3450
 3683SOL    HW221089   2.373   7.296   1.917  1.5299  1.1144 -0.4660
 3684SOL     OW21090   3.998   8.503   0.941 -0.1953 -0.6252 -0.0659
 3684SOL    HW121091   4.025   8.492   1.037  0.0927  0.5002 -0.0205
 3684SOL    HW221092   3.922   8.568   0.935  0.2128 -0.2082 -0.6659
 3685SOL     OW21093   4.420   4.322   0.542  0.0201  0.1636  0.0932
 3685SOL    HW121094   4.353   4.278   0.482 -0.3016 -2.3793  2.2095
 3685SOL    HW221095   4.373   4.361   0.621  1.0637 -2.7719  2.2515
 3686SOL     OW21096   3.884   2.855   0.266  0.6942 -0.1634 -0.1041
 3686SOL    HW121097   3.941   2.918   0.318 -1.3929  0.1058  1.9671
 3686SOL    HW221098   3.905   2.761   0.294 -0.2569 -0.0319  1.1212
 3687SOL     OW21099   2.860   2.788   1.155 -0.1272 -0.9105  0.1382
 3687SOL    HW121100   2.803   2.847   1.098  0.5421 -1.4227 -1.0731
 3687SOL    HW221101   2.895   2.841   1.232 -0.6866 -0.0900 -0.1632
 3688SOL     OW21102   1.302   6.159   0.672 -0.1833  0.4295  0.4302
 3688SOL    HW121103   1.249   6.074   0.680  1.3846 -0.6454 -0.3394
 3688SOL    HW221104   1.306   6.187   0.577 -1.6412  1.9990  0.8201
 3689SOL     OW21105   2.467  10.502   0.240  0.1102  0.3828 -0.3405
 3689SOL    HW121106   2.418  10.421   0.209 -1.1505  0.5490  1.1343
 3689SOL    HW221107   2.432  10.530   0.330  3.0257  0.3939  0.8645
 3690SOL     OW21108   4.375   8.479   2.087 -0.3452  0.2272  0.1531
 3690SOL    HW121109   4.472   8.504   2.089  0.0647 -1.2842 -0.1620
 3690SOL    HW221110   4.366   8.381   2.103 -1.9434  0.6174  1.7732
 3691SOL     OW21111   9.908   1.235   0.901  0.3260  0.8116  0.3902
 3691SOL    HW121112   9.847   1.184   0.962  1.0837  1.0371  1.3412
 3691SOL    HW221113   9.939   1.176   0.828 -0.3003  0.4340  0.4294
 3692SOL     OW21114   4.342   2.646   1.790 -0.3267 -0.2253 -0.6662
 3692SOL    HW121115   4.307   2.577   1.853 -1.0912 -1.1023 -2.0130
 3692SOL    HW221116   4.265   2.696   1.750  0.0374 -0.8608 -2.2015
 3693SOL     OW21117   9.531   5.516   0.328  0.0638  0.2746  0.0725
 3693SOL    HW121118   9.459   5.464   0.282  0.7453  0.0168 -0.7154
 3693SOL    HW221119   9.529   5.496   0.426 -1.1063  0.4837  0.1007
 3694SOL     OW21120   2.228  10.699   2.663  0.5552 -0.0837 -0.1662
 3694SOL    HW121121   2.177  10.785   2.652  0.8451  0.0468 -0.5180
 3694SOL    HW221122   2.319  10.710   2.623  0.0727 -1.0274 -1.5490
 3695SOL     OW21123   2.227   4.185   1.204 -0.0469 -0.0816 -0.5798
 3695SOL    HW121124   2.193   4.272   1.167 -0.3660  0.5771  1.2165
 3695SOL    HW221125   2.241   4.194   1.302 -1.5663 -2.5184 -0.0871
 3696SOL     OW21126   0.905   6.661   0.254 -0.2929 -0.4132 -0.4549
 3696SOL    HW121127   0.830   6.596   0.269 -0.1396 -0.4323  0.2842
 3696SOL    HW221128   0.897   6.736   0.319 -1.4070  1.1776 -2.4107
 3697SOL     OW21129  10.283   2.585   0.700  0.2920  0.5237 -0.5804
 3697SOL    HW121130  10.316   2.557   0.609  3.4753  0.9933  0.3693
 3697SOL    HW221131  10.292   2.685   0.708 -2.5418  0.8137 -0.6999
 3698SOL     OW21132   8.810   2.195   0.438  0.1034 -0.3121 -0.2976
 3698SOL    HW121133   8.843   2.275   0.487  0.4466  0.2503 -1.4222
 3698SOL    HW221134   8.712   2.205   0.419  0.0085 -0.4527  0.1337
 3699SOL     OW21135   9.733   1.065   0.490  0.6068 -0.0563  0.1490
 3699SOL    HW121136   9.694   0.990   0.436  1.3429 -0.3833  0.0640
 3699SOL    HW221137   9.687   1.150   0.467 -0.2803 -0.4927  0.2841
 3700SOL     OW21138   1.287   7.986   1.817  0.1726  0.1015  0.4898
 3700SOL    HW121139   1.363   8.049   1.801  1.2813 -1.1537  0.6964
 3700SOL    HW221140   1.314   7.919   1.887 -0.0939 -2.0217 -1.3733
 3701SOL     OW21141   4.086   9.191   0.157 -0.0611  0.0660  0.0208
 3701SOL    HW121142   4.149   9.217   0.230 -0.2664  0.3559  0.0975
 3701SOL    HW221143   4.063   9.272   0.103 -2.6015  0.5591  1.7461
 3702SOL     OW21144   2.012   4.392   1.731  0.6714 -0.2754 -0.5098
 3702SOL    HW121145   1.935   4.454   1.717  0.3902 -0.3188  0.7395
 3702SOL    HW221146   2.031   4.385   1.829  1.0425 -1.7387 -0.6735
 3703SOL     OW21147   1.665   2.821   0.988  0.2982  0.3377  0.3961
 3703SOL    HW121148   1.577   2.778   0.967  1.1943 -1.2329 -0.2385
 3703SOL    HW221149   1.727   2.752   1.026  1.4070  1.3217  0.3724
 3704SOL     OW21150   9.859   1.622   1.112 -0.2613  0.1555  0.3382
 3704SOL    HW121151   9.915   1.602   1.032 -1.7352 -1.0300 -0.4220
 3704SOL    HW221152   9.832   1.536   1.156  0.0774  0.7762  1.8136
 3705SOL     OW21153   1.719   7.278   2.113 -0.0888  0.3340  0.2882
 3705SOL    HW121154   1.689   7.331   2.193  3.4913  0.1992  1.8163
 3705SOL    HW221155   1.764   7.194   2.144  0.8563  0.0096 -1.9193
 3706SOL     OW21156   9.538   1.686   0.391  0.3674 -0.0139  0.2814
 3706SOL    HW121157   9.530   1.661   0.487 -0.1774  5.0167  1.7191
 3706SOL    HW221158   9.634   1.708   0.370  0.5447 -1.4465 -0.4363
 3707SOL     OW21159  10.374   3.062   0.979 -0.2039 -0.4168 -0.0245
 3707SOL    HW121160  10.329   3.120   1.046 -1.7505 -2.1441  0.4964
 3707SOL    HW221161  10.473   3.069   0.988 -0.4035  0.2550  1.6495
 3708SOL     OW21162   1.374   8.706   0.128 -0.1348  0.0140 -0.0864
 3708SOL    HW121163   1.374   8.753   0.039 -0.9293  0.6270  0.2273
 3708SOL    HW221164   1.465   8.713   0.169 -0.3340  1.6320  0.1222
 3709SOL     OW21165   2.692   8.965   1.325 -0.2629 -0.1761  0.0435
 3709SOL    HW121166   2.761   9.035   1.346 -0.6545 -0.1254  1.2056
 3709SOL    HW221167   2.604   9.010   1.307 -0.4298 -0.3457  0.4275
 3710SOL     OW21168   4.079   3.223   0.757 -0.0784  0.4824  0.3443
 3710SOL    HW121169   4.011   3.157   0.725  0.5156  0.0224  0.0021
 3710SOL    HW221170   4.148   3.175   0.812 -0.3464  1.0401  1.1752
 3711SOL     OW21171   4.259   4.104   1.802  0.0315 -0.6890 -0.4926
 3711SOL    HW121172   4.241   4.019   1.752 -0.6281  0.1360 -1.6921
 3711SOL    HW221173   4.218   4.099   1.893  0.0944 -1.6983 -0.5160
 3712SOL     OW21174   3.394   1.258   1.691  0.3077 -0.0107 -0.0019
 3712SOL    HW121175   3.476   1.313   1.676  1.1877 -1.5138 -0.7632
 3712SOL    HW221176   3.313   1.317   1.684  1.3439  1.6674  1.7158
 3713SOL     OW21177   4.284   0.853   0.734  0.4199  0.1968  0.7584
 3713SOL    HW121178   4.290   0.878   0.831  1.7569 -1.4636  1.1214
 3713SOL    HW221179   4.326   0.924   0.679  1.8261  0.0109  1.5819
 3714SOL     OW21180   8.582   2.380   1.364  0.2567  0.4474  0.5015
 3714SOL    HW121181   8.519   2.457   1.359 -0.2988 -0.1060 -1.4664
 3714SOL    HW221182   8.676   2.413   1.350  0.1159  0.8896  0.5880
 3715SOL     OW21183   2.330   3.558   0.282 -0.3662 -0.5122  0.4746
 3715SOL    HW121184   2.251   3.618   0.269 -1.3197 -2.0322 -1.0437
 3715SOL    HW221185   2.358   3.560   0.378  0.4728  3.3284  0.2521
 3716SOL     OW21186  10.066   3.609   1.964 -0.3950 -0.4838  0.0320
 3716SOL    HW121187  10.060   3.633   2.061  1.7341 -0.1058  0.0893
 3716SOL    HW221188  10.132   3.535   1.952 -0.2483 -0.1634 -1.1898
 3717SOL     OW21189   1.608   9.087   0.536  0.0530 -0.1171 -0.6780
 3717SOL    HW121190   1.675   9.019   0.566  1.8703  0.8722 -2.3950
 3717SOL    HW221191   1.519   9.044   0.527  0.6849 -1.7313  0.5499
 3718SOL     OW21192   2.140   7.933   1.847  0.0202 -0.0279  0.0344
 3718SOL    HW121193   2.100   8.008   1.899 -0.4817 -0.3562  0.1143
 3718SOL    HW221194   2.239   7.929   1.865 -0.2694 -0.5948  1.4994
 3719SOL     OW21195   1.696   9.153   1.250 -0.4984 -0.0671 -0.3440
 3719SOL    HW121196   1.700   9.249   1.223 -3.2563  0.4540  1.0144
 3719SOL    HW221197   1.654   9.099   1.177  0.8563 -0.2292 -1.0180
 3720SOL     OW21198   0.608   2.905   2.413 -0.5409  0.3487 -0.5920
 3720SOL    HW121199   0.588   2.807   2.415 -0.4187  0.3398  1.5091
 3720SOL    HW221200   0.708   2.918   2.413 -0.5006  0.4610  3.0910
 3721SOL     OW21201   4.161   3.108   1.976 -0.0876  0.2176  0.5348
 3721SOL    HW121202   4.124   3.033   2.031 -0.0796  0.2698  0.6104
 3721SOL    HW221203   4.196   3.180   2.036  3.2086 -1.2776  0.5507
 3722SOL     OW21204   4.243   8.293   0.247 -0.0888  0.4416 -0.1290
 3722SOL    HW121205   4.167   8.354   0.224  1.0614  1.8121 -0.4007
 3722SOL    HW221206   4.327   8.326   0.202  0.9942 -0.1237  1.4250
 3723SOL     OW21207   1.285  10.117   1.907 -0.1019 -0.1873  0.3332
 3723SOL    HW121208   1.298  10.215   1.915  1.6254 -0.3900  0.2713
 3723SOL    HW221209   1.282  10.076   1.999 -2.2141  0.0617  0.4092
 3724SOL     OW21210   9.310   3.410   1.098 -0.3035  0.4273  0.9052
 3724SOL    HW121211   9.355   3.443   1.015 -1.1843 -1.0918 -0.2159
 3724SOL    HW221212   9.367   3.429   1.177  1.0704  0.9113 -0.1848
 3725SOL     OW21213   1.871   1.912   2.223 -0.0221 -0.0369  0.2801
 3725SOL    HW121214   1.772   1.923   2.217  0.0326  0.0333 -0.5473
 3725SOL    HW221215   1.916   1.979   2.163  0.4512 -1.4125 -0.9394
 3726SOL     OW21216   2.181   9.620   1.434 -0.1549  0.1182 -0.0633
 3726SOL    HW121217   2.099   9.649   1.386 -1.3126  0.1351  1.8739
 3726SOL    HW221218   2.174   9.522   1.455 -0.6305  0.5542  1.9031
  10.00000  10.00000   2.82800
