chitosan Film  in water:acetic acid 2%
10523
    1CHTO  H203    1   4.030   6.536   0.793  0.5771  2.0702 -1.1893
    1CHTO   O82    2   4.071   6.491   0.722 -0.1663 -1.1367  0.3107
    1CHTO  C123    3   4.207   6.462   0.768 -0.0198  0.7553  0.1152
    1CHTO  H227    4   4.225   6.510   0.866  1.1956  0.2578  0.1399
    1CHTO   O77    5   4.201   6.315   0.785 -0.3873  0.0922  0.0509
    1CHTO  C118    6   4.321   6.252   0.830  0.1995 -0.5206  0.6406
    1CHTO  H222    7   4.324   6.296   0.931  1.2933  0.7382  0.0825
    1CHTO  C125    8   4.290   6.099   0.851 -0.3329 -0.3881  0.4282
    1CHTO   O84    9   4.235   6.046   0.725 -0.1593 -0.5849  0.0855
    1CHTO  H205   10   4.149   6.079   0.710  0.1843  0.7789  1.0519
    1CHTO  C114   11   4.443   6.286   0.745  0.4771 -0.6393 -0.0319
    1CHTO  H218   12   4.435   6.230   0.652  0.7994 -2.4866  1.0385
    1CHTO  C116   13   4.455   6.440   0.708  0.7167  0.6394  0.3812
    1CHTO  H220   14   4.491   6.499   0.795 -2.0033  2.4920  0.3193
    1CHTO   O79   15   4.556   6.444   0.605  0.1178  0.1674  0.4428
    1CHTO  H201   16   4.520   6.434   0.520  0.0877  0.5393  0.4129
    1CHTO  C120   17   4.317   6.494   0.663  0.0933 -0.2735  0.7211
    1CHTO  H224   18   4.296   6.446   0.565 -0.3599 -3.5956  2.3723
    1CHTO   N21   19   4.332   6.640   0.639  0.0018  0.3730  0.0101
    1CHTO  H211   20   4.414   6.675   0.700  2.0715 -3.4930 -0.4688
    1CHTO  H212   21   4.360   6.650   0.535  2.4941 -0.2115  0.6120
    1CHTO   O75   22   4.551   6.243   0.834  0.0388  0.4559  0.5141
    1CHTO  C112   23   4.673   6.179   0.750  0.1959  0.0509 -0.2395
    1CHTO  H216   24   4.668   6.202   0.642  1.7084  1.1446 -0.0853
    1CHTO   O73   25   4.655   6.042   0.773  0.1553  0.0641  0.0897
    1CHTO  C113   26   4.755   5.959   0.710  0.2819 -0.3076 -0.3239
    1CHTO  H217   27   4.762   5.987   0.603 -0.1801 -0.7256 -0.4693
    1CHTO  C124   28   4.714   5.816   0.710  0.3163 -0.3050  0.1226
    1CHTO   O83   29   4.625   5.796   0.597 -0.4092 -0.7224  0.3464
    1CHTO  H204   30   4.599   5.706   0.591 -0.9042 -0.5200 -0.6251
    1CHTO  C109   31   4.897   5.987   0.761 -0.1478 -0.1594  0.1490
    1CHTO  H213   32   4.902   5.957   0.867 -0.4038  0.8868  0.4605
    1CHTO  C110   33   4.922   6.146   0.757  0.2201 -0.3459  0.8121
    1CHTO  H214   34   4.946   6.172   0.653  0.3506 -1.1725  0.6305
    1CHTO   O78   35   5.046   6.168   0.822  0.1841 -0.4908  0.2383
    1CHTO  H200   36   5.036   6.126   0.905  0.5095  0.6161  0.8452
    1CHTO  C111   37   4.807   6.234   0.805 -0.3035 -0.1111  0.3309
    1CHTO  H215   38   4.801   6.230   0.915 -0.5133  2.0661  0.4345
    1CHTO   N19   39   4.820   6.375   0.767  0.3134  0.0729  0.0594
    1CHTO  H207   40   4.753   6.410   0.690  0.9240 -0.7091 -0.8266
    1CHTO  H208   41   4.793   6.444   0.846  1.7876 -0.2979  0.9008
    1CHTO   O74   42   4.996   5.915   0.685  0.1497 -0.2192 -0.5547
    1CHTO  C115   43   5.125   5.869   0.749 -0.5234 -0.3345 -0.0087
    1CHTO  H219   44   5.136   5.905   0.851  2.1213  1.0408 -0.7281
    1CHTO   O76   45   5.126   5.699   0.760 -0.1609 -0.0253  0.2685
    1CHTO  C122   46   5.111   5.638   0.638  0.2660  0.0722  0.5334
    1CHTO  H226   47   5.016   5.662   0.590  0.9783  0.2854 -0.7857
    1CHTO  C126   48   5.109   5.478   0.656  0.7363 -0.6353  0.3732
    1CHTO   O85   49   5.025   5.432   0.547 -0.4575  0.8684 -0.0205
    1CHTO  H206   50   4.938   5.428   0.583  0.2041  1.4400  1.7006
    1CHTO  C121   51   5.228   5.683   0.538 -0.3450 -0.3055  0.3540
    1CHTO  H225   52   5.284   5.592   0.509  2.9727  1.3223  1.4139
    1CHTO   O81   53   5.178   5.737   0.415  0.1089 -0.2330  0.3450
    1CHTO  H202   54   5.148   5.671   0.356  2.8064  0.1097 -1.5183
    1CHTO  C119   55   5.327   5.779   0.604 -0.1954 -0.4458 -0.0856
    1CHTO  H223   56   5.369   5.726   0.689  2.1738 -2.1198 -2.2141
    1CHTO  C117   57   5.247   5.914   0.658  0.4120  0.4753 -0.3014
    1CHTO  H221   58   5.202   5.976   0.580  0.1513  0.7277  0.0508
    1CHTO   N20   59   5.338   5.998   0.735  0.2737 -0.3921  0.2823
    1CHTO  H209   60   5.387   5.931   0.804 -0.0951 -0.0915  0.8379
    1CHTO  H210   61   5.410   6.048   0.672 -1.8034 -0.2632 -2.0891
    1CHTO   O80   62   5.441   5.792   0.522  0.2869 -0.2337 -0.6137
    1CHTO  C103   63   5.568   5.716   0.546 -1.0584  0.1078  0.6189
    1CHTO  H190   64   5.594   5.693   0.649  1.5818 -1.5636 -0.3676
    1CHTO  C101   65   5.588   5.577   0.458 -0.0844 -0.3933  0.2513
    1CHTO  H188   66   5.566   5.604   0.354  1.7530 -0.6526 -0.2193
    1CHTO   O68   67   5.480   5.466   0.505  0.5851 -0.4375 -0.0347
    1CHTO  H168   68   5.531   5.404   0.554  0.1033  0.7543  2.0249
    1CHTO   C99   69   5.727   5.511   0.450 -0.8491  0.0656  0.0854
    1CHTO  H186   70   5.766   5.488   0.552 -0.8865  2.3674  0.6490
    1CHTO   N17   71   5.737   5.388   0.363 -0.0679 -0.6037 -1.1017
    1CHTO  H174   72   5.835   5.370   0.322  0.4476 -1.5179  0.4517
    1CHTO  H175   73   5.716   5.299   0.422  0.4219 -1.5490 -2.3358
    1CHTO   C97   74   5.824   5.624   0.411  0.2884  0.3196  0.1587
    1CHTO  H184   75   5.799   5.643   0.305  2.5004  0.4072 -0.3687
    1CHTO   O64   76   5.811   5.744   0.487  0.0246  0.2308  0.1974
    1CHTO  C104   77   5.676   5.811   0.493  0.1463 -0.1235  0.0022
    1CHTO  H191   78   5.651   5.846   0.393  3.6725  0.8322 -0.6358
    1CHTO  C108   79   5.696   5.941   0.580 -0.0748  0.6735  0.1668
    1CHTO   O71   80   5.812   6.016   0.548 -0.2521 -0.7741 -0.2745
    1CHTO  H171   81   5.890   5.980   0.586  0.2865  1.3473  0.6906
    1CHTO   O62   82   5.961   5.594   0.427  0.1657 -0.0169 -0.8128
    1CHTO   C91   83   6.054   5.624   0.321 -0.0693  0.0852 -0.6076
    1CHTO  H178   84   6.011   5.706   0.263 -0.2910 -1.1340 -2.1952
    1CHTO   C92   85   6.068   5.507   0.225 -0.0727  0.2102 -0.7892
    1CHTO  H179   86   6.045   5.418   0.285  0.1424  0.2379 -0.6635
    1CHTO   O66   87   5.954   5.513   0.140  0.2205  0.2243 -0.4025
    1CHTO  H166   88   5.939   5.435   0.091  0.6592 -0.4850  0.5660
    1CHTO   C93   89   6.199   5.496   0.146 -0.5780 -0.1364 -0.2844
    1CHTO  H180   90   6.195   5.571   0.066  0.4465 -0.4411 -0.6250
    1CHTO   N16   91   6.228   5.365   0.082 -0.6748  0.3738  0.2492
    1CHTO  H172   92   6.323   5.321   0.111  0.3877  2.1699 -0.4669
    1CHTO  H173   93   6.206   5.361  -0.023  0.2691 -1.3503  0.0986
    1CHTO   C94   94   6.320   5.532   0.240 -0.9283  0.4700  0.2210
    1CHTO  H181   95   6.319   5.470   0.329 -1.2655  1.0760  0.6434
    1CHTO   O61   96   6.303   5.668   0.285  0.9063 -0.3959  0.2113
    1CHTO   C95   97   6.197   5.675   0.384  0.3208  0.0914  0.3679
    1CHTO  H182   98   6.222   5.611   0.469 -0.6847 -0.9255 -0.0928
    1CHTO  C106   99   6.187   5.836   0.438 -0.0942  1.4533  0.2136
    1CHTO   O69  100   6.083   5.842   0.533  1.1736  0.6541 -0.2340
    1CHTO  H169  101   6.071   5.933   0.554  4.1553  0.9812  0.3004
    1CHTO   O63  102   6.470   5.523   0.168  0.5484  0.4194  0.1032
    1CHTO   C96  103   6.614   5.529   0.260  0.1505 -0.1177 -0.4380
    1CHTO  H183  104   6.618   5.636   0.280 -0.4671  0.0139 -1.0007
    1CHTO   C98  105   6.742   5.483   0.175  0.5824  0.0189 -0.2274
    1CHTO  H185  106   6.730   5.514   0.070 -0.9491  0.6384  0.1177
    1CHTO   O67  107   6.864   5.535   0.233 -0.1427 -0.0765  0.1557
    1CHTO  H167  108   6.866   5.519   0.325 -1.2573  1.3757  0.4429
    1CHTO  C102  109   6.754   5.320   0.188 -0.3642  0.1243  0.5717
    1CHTO  H189  110   6.846   5.289   0.138 -1.4693  0.0839 -1.4691
    1CHTO   N18  111   6.648   5.245   0.115 -0.3501  0.0776 -0.4088
    1CHTO  H176  112   6.550   5.255   0.160 -0.2460 -2.0096  0.3234
    1CHTO  H177  113   6.678   5.142   0.107 -1.9518 -0.4646  0.3343
    1CHTO  C105  114   6.759   5.285   0.340 -0.0894 -0.0159 -0.2394
    1CHTO  H192  115   6.709   5.191   0.364  0.9067 -0.6069 -0.4193
    1CHTO   O65  116   6.719   5.389   0.430  0.3531  0.1183  0.4241
    1CHTO  C100  117   6.597   5.445   0.392 -0.4646 -0.2147 -0.0586
    1CHTO  H187  118   6.532   5.359   0.368 -2.7872  2.1130 -2.4551
    1CHTO  C107  119   6.539   5.517   0.518 -0.1222  0.1581  0.3878
    1CHTO   O70  120   6.520   5.415   0.617  0.2045 -0.3745  0.0014
    1CHTO  H170  121   6.602   5.386   0.653  0.0910 -0.2336  0.3804
    1CHTO   O57  122   6.913   5.277   0.394  0.5874 -0.5936 -0.8265
    1CHTO   C85  123   6.976   5.143   0.384 -1.1827 -0.1690 -0.2682
    1CHTO  H157  124   6.915   5.070   0.325 -0.6321  0.5294 -1.7214
    1CHTO   C83  125   6.969   5.074   0.528  0.3595  0.3965  1.1217
    1CHTO  H155  126   6.864   5.057   0.551  0.3018 -1.3098 -0.2655
    1CHTO   O56  127   7.017   5.166   0.630 -0.3625  0.0344  0.3310
    1CHTO  H135  128   6.951   5.230   0.648  0.1392  0.1215  2.0340
    1CHTO   C81  129   7.045   4.941   0.526  0.6033 -0.1426  0.0133
    1CHTO  H153  130   7.011   4.876   0.445 -0.7865  0.6086 -0.0256
    1CHTO   N14  131   7.013   4.851   0.639  0.1311 -0.3978  0.0547
    1CHTO  H141  132   6.966   4.901   0.721  0.1810  0.5000 -0.4624
    1CHTO  H142  133   6.946   4.779   0.596  0.6673 -0.6266 -0.3942
    1CHTO   C79  134   7.190   4.973   0.494  0.0459  0.0910  0.6426
    1CHTO  H151  135   7.241   4.877   0.490 -1.1405 -0.6688  3.0020
    1CHTO   O52  136   7.204   5.034   0.367  0.6191 -0.9690 -0.3534
    1CHTO   C86  137   7.121   5.149   0.332  0.1637  0.1781 -0.4414
    1CHTO  H158  138   7.178   5.235   0.375  0.3597 -0.5235  0.7284
    1CHTO   C90  139   7.116   5.176   0.184 -0.1537 -0.1973 -0.1436
    1CHTO   O60  140   7.244   5.213   0.143 -0.2427 -0.4199  0.2866
    1CHTO  H138  141   7.268   5.177   0.060 -2.0826  2.5188 -1.6178
    1CHTO   O50  142   7.265   5.055   0.589 -0.2199  0.2736  0.0526
    1CHTO   C73  143   7.397   5.106   0.613  0.3477  0.2132 -0.0014
    1CHTO  H145  144   7.456   5.086   0.522 -1.5924  1.6139 -1.6055
    1CHTO   C74  145   7.467   5.037   0.728  0.0110 -0.0651  0.1197
    1CHTO  H146  146   7.459   4.930   0.704  0.0620 -0.7567  2.9351
    1CHTO   O54  147   7.609   5.075   0.734 -0.2123  0.1398  0.0697
    1CHTO  H133  148   7.624   5.138   0.803 -1.4643  0.2004  0.2888
    1CHTO   C75  149   7.386   5.071   0.865 -0.0775 -0.1912 -0.2788
    1CHTO  H147  150   7.284   5.032   0.852  0.6455 -1.9926 -0.8345
    1CHTO   N13  151   7.436   5.005   0.986  0.3192  0.1496  0.1494
    1CHTO  H139  152   7.438   4.898   0.976 -1.0193 -0.0479  1.6915
    1CHTO  H140  153   7.367   5.032   1.065  0.5398 -0.4615  0.5526
    1CHTO   C76  154   7.383   5.229   0.876  0.2198  0.0743 -0.4060
    1CHTO  H148  155   7.486   5.260   0.893  0.3521 -0.7070  0.2572
    1CHTO   O49  156   7.323   5.278   0.754 -0.4422  0.6581 -0.2924
    1CHTO   C77  157   7.407   5.256   0.639 -0.1790  0.1704  0.1672
    1CHTO  H149  158   7.510   5.283   0.660  0.6833 -2.1863 -0.9010
    1CHTO   C88  159   7.365   5.350   0.529 -0.1725 -0.6582 -0.5242
    1CHTO   O58  160   7.476   5.368   0.450 -0.8928  0.4602 -0.2157
    1CHTO  H136  161   7.513   5.452   0.467  1.8297 -1.2425  2.7443
    1CHTO   O51  162   7.291   5.289   1.001  0.4026 -0.6776  0.2705
    1CHTO   C78  163   7.259   5.459   0.982  0.0088  0.2729 -0.3955
    1CHTO  H150  164   7.282   5.490   0.878  0.9269 -0.1883 -0.3312
    1CHTO   C80  165   7.347   5.542   1.078 -0.1303  0.4253  0.4564
    1CHTO  H152  166   7.318   5.520   1.183 -2.4672  2.7751  0.3411
    1CHTO   O55  167   7.484   5.495   1.055  0.2785 -0.6337  0.0377
    1CHTO  H134  168   7.492   5.402   1.056 -1.3438 -0.8045 -0.4923
    1CHTO   C84  169   7.323   5.697   1.048  0.5078 -0.1096 -0.2083
    1CHTO  H156  170   7.357   5.716   0.946  0.4166 -2.2551 -0.6717
    1CHTO   N15  171   7.414   5.788   1.136 -0.3073 -0.1383  0.1385
    1CHTO  H143  172   7.461   5.728   1.211 -0.9480 -1.0065 -0.1529
    1CHTO  H144  173   7.488   5.834   1.073  0.4480 -0.1330  1.0205
    1CHTO   C87  174   7.176   5.741   1.066  0.8160 -0.0142  0.0146
    1CHTO  H159  175   7.146   5.760   1.169  1.3142 -2.6245  0.6929
    1CHTO   O53  176   7.086   5.629   0.995 -0.0272 -0.1900 -0.6937
    1CHTO   C82  177   7.112   5.488   1.005  0.0351 -0.1445  0.1537
    1CHTO  H154  178   7.089   5.438   1.100  1.5454  0.1246  0.6750
    1CHTO   C89  179   7.025   5.419   0.901 -0.5713 -0.9237 -0.2548
    1CHTO   O59  180   7.051   5.465   0.767  0.1247 -0.4225  0.0451
    1CHTO  H137  181   7.109   5.402   0.729 -0.7432  0.1745 -2.3729
    1CHTO   O45  182   7.148   5.881   0.981 -0.2997  0.5831  0.0827
    1CHTO   C67  183   7.020   5.953   0.979  0.1546  0.5576 -0.2299
    1CHTO  H124  184   7.035   6.050   0.933 -2.5009  1.5851  0.9633
    1CHTO   C65  185   6.906   5.875   0.908 -0.1770 -0.9812 -0.0371
    1CHTO  H122  186   6.907   5.774   0.948 -1.5262 -0.2994  1.8061
    1CHTO   O44  187   6.959   5.880   0.777 -0.4044 -0.3525  0.0469
    1CHTO  H102  188   6.955   5.794   0.740  0.3159 -0.1330 -0.5635
    1CHTO   C63  189   6.757   5.924   0.956  0.3579  0.3418  0.0991
    1CHTO  H120  190   6.722   5.855   1.032 -1.8046  1.7234  0.3802
    1CHTO   N11  191   6.649   5.907   0.854 -0.1821  0.5809  0.0381
    1CHTO  H108  192   6.552   5.869   0.876 -0.5570  1.8837  0.6896
    1CHTO  H109  193   6.692   5.870   0.763 -2.3242 -0.1527 -0.6883
    1CHTO   C61  194   6.767   6.064   1.029  0.5341  1.1517  0.0316
    1CHTO  H118  195   6.668   6.075   1.075 -0.1607 -2.6015 -0.3763
    1CHTO   O40  196   6.867   6.064   1.137  0.7567 -0.3372 -0.2021
    1CHTO   C68  197   6.987   5.983   1.130 -0.4698 -0.2746 -0.2145
    1CHTO  H125  198   6.956   5.885   1.171  0.4200  0.2648  1.7902
    1CHTO   C72  199   7.101   6.038   1.219 -0.2041 -0.1724 -0.0713
    1CHTO   O48  200   7.158   6.161   1.184  0.2737 -0.3102  0.5209
    1CHTO  H105  201   7.104   6.232   1.214  1.0654  0.9456 -0.8860
    1CHTO   O38  202   6.788   6.173   0.935  0.4951  0.4793 -0.1801
    1CHTO   C55  203   6.744   6.299   0.988 -0.1179  0.2139 -0.6167
    1CHTO  H112  204   6.753   6.298   1.097 -1.7103  3.3345 -0.4234
    1CHTO   C56  205   6.595   6.321   0.947  0.4702  0.1948 -0.0332
    1CHTO  H113  206   6.594   6.300   0.839 -1.1096  0.6835 -0.1266
    1CHTO   O42  207   6.508   6.241   1.025 -0.3023  0.7768  0.0396
    1CHTO  H100  208   6.527   6.150   1.014 -2.6711  0.4946 -2.0278
    1CHTO   C57  209   6.551   6.471   0.974  0.1002 -0.0333  0.9118
    1CHTO  H114  210   6.538   6.484   1.082  1.5095  0.2503  1.0554
    1CHTO   N10  211   6.414   6.500   0.925 -0.9634 -0.3943  0.0679
    1CHTO  H106  212   6.398   6.605   0.906  2.4893  0.3393  0.8071
    1CHTO  H107  213   6.394   6.444   0.835  1.5879 -0.4451 -0.5277
    1CHTO   C58  214   6.661   6.576   0.920  0.7881  0.5751  0.0108
    1CHTO  H115  215   6.662   6.569   0.810 -0.7168 -0.1277  0.0313
    1CHTO   O37  216   6.790   6.543   0.974 -0.7057  0.4726  0.4456
    1CHTO   C59  217   6.843   6.408   0.945  0.1719 -0.3491 -0.2434
    1CHTO  H116  218   6.870   6.410   0.839 -0.4243  0.8179 -0.3845
    1CHTO   C70  219   6.979   6.400   1.020 -0.3566  0.1833 -0.5776
    1CHTO   O46  220   6.972   6.409   1.160  0.6254 -0.1808  0.0038
    1CHTO  H103  221   6.919   6.480   1.190  2.2619  1.2100 -0.3257
    1CHTO   O39  222   6.627   6.724   0.970 -0.2595 -0.3683  0.5342
    1CHTO   C60  223   6.719   6.824   0.918 -0.8018 -0.3814 -0.6470
    1CHTO  H117  224   6.824   6.795   0.924 -0.0622  1.9703 -1.5416
    1CHTO   C62  225   6.695   6.856   0.766  0.4701  0.2489 -0.5947
    1CHTO  H119  226   6.692   6.761   0.709 -0.8499  0.9005 -1.6476
    1CHTO   O43  227   6.558   6.898   0.727  0.1458  0.4969 -0.0642
    1CHTO  H101  228   6.485   6.860   0.772 -0.5315  0.4607 -1.1759
    1CHTO   C66  229   6.806   6.954   0.717  0.0772  0.3004  0.8376
    1CHTO  H123  230   6.903   6.918   0.753 -0.2187 -1.4056 -0.0229
    1CHTO   N12  231   6.823   6.957   0.568  0.6366  0.4009  0.3321
    1CHTO  H110  232   6.727   6.962   0.519 -0.1517  0.6688  1.8621
    1CHTO  H111  233   6.880   7.042   0.533 -0.1200  1.5167  1.7314
    1CHTO   C69  234   6.781   7.089   0.784  0.8729 -0.1262  0.3681
    1CHTO  H126  235   6.681   7.136   0.776  0.8724 -0.0451  0.8516
    1CHTO   O41  236   6.789   7.067   0.929 -0.3805 -0.3465 -0.5635
    1CHTO   C64  237   6.704   6.957   0.995  0.6111  0.2321  0.3706
    1CHTO  H121  238   6.601   6.998   0.991  1.0735  1.2184 -2.9298
    1CHTO   C71  239   6.753   6.942   1.149 -0.2908 -0.3862 -0.3817
    1CHTO   O47  240   6.728   7.055   1.219  0.0621  0.2656 -0.0374
    1CHTO  H104  241   6.795   7.067   1.283 -0.5185 -1.8566  0.9955
    1CHTO   O34  242   6.896   7.203   0.730 -0.0597  0.5197 -0.4199
    1CHTO   C49  243   7.022   7.258   0.796  0.0173  1.2030  0.5819
    1CHTO   H91  244   7.037   7.343   0.730  1.2227  0.5561  0.0029
    1CHTO   C47  245   7.139   7.158   0.774  0.8405 -0.1460  0.3694
    1CHTO   H89  246   7.152   7.137   0.666  0.7360  0.9146  0.1475
    1CHTO   O33  247   7.101   7.034   0.832 -0.0553 -0.0232 -0.1123
    1CHTO   H70  248   7.094   7.044   0.926 -0.9431  1.0795 -0.2829
    1CHTO   C45  249   7.280   7.214   0.849  0.0043  0.3937  0.4868
    1CHTO   H87  250   7.304   7.137   0.924 -0.5905 -1.3562 -1.0531
    1CHTO    N8  251   7.399   7.224   0.752 -0.2046 -0.0419  0.1398
    1CHTO   H75  252   7.478   7.163   0.792  0.3881  2.0888  2.3232
    1CHTO   H76  253   7.370   7.180   0.657  1.0895 -2.6942  0.9462
    1CHTO   C43  254   7.257   7.352   0.923  0.3280  0.1107 -0.4549
    1CHTO   H85  255   7.344   7.379   0.983 -0.3689  2.9164 -0.6164
    1CHTO   O29  256   7.135   7.345   0.999 -0.2509  0.8283 -0.0654
    1CHTO   C50  257   7.010   7.301   0.946 -0.1025 -0.0876 -0.4993
    1CHTO   H92  258   6.969   7.213   0.999 -1.0614  1.8212  2.0464
    1CHTO   C54  259   6.902   7.411   0.976  0.0961  0.4349 -0.5811
    1CHTO   O36  260   6.936   7.534   0.920  0.0221 -0.2490  0.7164
    1CHTO   H72  261   6.936   7.593   0.993 -1.9359 -1.7031  1.9517
    1CHTO   O27  262   7.252   7.465   0.837 -0.1371 -0.0493 -0.4145
    1CHTO   C37  263   7.307   7.586   0.779  0.3431 -0.3068 -0.4717
    1CHTO   H79  264   7.309   7.671   0.849 -1.4675 -0.5232 -0.1508
    1CHTO   C38  265   7.459   7.561   0.731 -1.1020  0.6408  0.2011
    1CHTO   H80  266   7.467   7.474   0.663 -1.0641  2.4582 -2.1661
    1CHTO   O31  267   7.522   7.526   0.857 -0.1245 -0.4190  0.0188
    1CHTO   H68  268   7.538   7.602   0.910 -1.0316  0.3150 -0.7230
    1CHTO   C39  269   7.512   7.688   0.658  0.5307  0.4847 -0.0437
    1CHTO   H81  270   7.491   7.768   0.729 -2.3036 -1.2190  1.1376
    1CHTO    N7  271   7.654   7.687   0.627 -0.2725  0.5950 -0.6645
    1CHTO   H73  272   7.691   7.691   0.729 -1.9369 -0.9191  0.0212
    1CHTO   H74  273   7.683   7.775   0.571 -1.5701  0.0435 -2.2507
    1CHTO   C40  274   7.419   7.711   0.532 -0.4825 -0.0401 -0.0264
    1CHTO   H82  275   7.421   7.615   0.480 -0.6263 -0.1588  0.1850
    1CHTO   O26  276   7.288   7.735   0.587 -0.1041  0.4884 -0.5502
    1CHTO   C41  277   7.224   7.628   0.656  0.0050  0.7186  0.1658
    1CHTO   H83  278   7.226   7.543   0.587  0.1050 -1.8663  3.2315
    1CHTO   C52  279   7.084   7.677   0.687  0.3197 -0.1173 -0.1928
    1CHTO   O35  280   7.097   7.793   0.822 -0.4784 -0.0075  0.0719
    1CHTO   H71  281   7.074   7.753   0.904  0.9224 -1.4478 -0.2122
    1CHTO   O28  282   7.449   7.825   0.446  0.3407 -0.1020 -0.0805
    1CHTO   C42  283   7.414   7.824   0.306  0.0781 -0.5373  0.3037
    1CHTO   H84  284   7.369   7.726   0.292  0.3415 -0.4406 -1.2587
    1CHTO   C44  285   7.537   7.823   0.211 -0.0325  0.4139 -0.9140
    1CHTO   H86  286   7.577   7.925   0.202  0.4898  0.0223 -3.7632
    1CHTO   O32  287   7.639   7.733   0.272 -0.1541 -0.0524  0.1307
    1CHTO   H69  288   7.665   7.673   0.205  1.0014 -0.4357  0.8912
    1CHTO   C48  289   7.497   7.783   0.064 -0.0577 -0.3679  0.0192
    1CHTO   H90  290   7.468   7.678   0.059  0.4269 -0.5339  0.5533
    1CHTO    N9  291   7.616   7.781  -0.029  1.0696 -1.1220  0.4320
    1CHTO   H77  292   7.581   7.813  -0.126  0.4856 -0.6584  0.7911
    1CHTO   H78  293   7.662   7.684  -0.047  0.2897 -1.5250  0.5818
    1CHTO   C51  294   7.388   7.878   0.013 -0.2750 -0.5149  0.1203
    1CHTO   H93  295   7.434   7.974  -0.012  0.2001 -0.5591  0.7935
    1CHTO   O30  296   7.276   7.890   0.104 -0.3073 -0.0861 -0.0161
    1CHTO   C46  297   7.307   7.933   0.253 -0.0524 -0.1900  0.5565
    1CHTO   H88  298   7.353   8.032   0.262 -0.8153  0.3863 -1.4473
    1CHTO   C53  299   7.166   7.936   0.321  0.1476 -0.4045 -0.8137
    1CHTO   O72  300   7.175   7.984   0.450 -0.5476 -0.6959  0.4671
    1CHTO  H199  301   7.238   7.934   0.498 -0.1919 -1.6824 -0.9872
    1CHTO   O22  302   7.326   7.805  -0.098 -0.1196  0.6142 -0.0230
    1CHTO   C31  303   7.228   7.867  -0.193 -0.2792  0.2427  0.1683
    1CHTO   H59  304   7.206   7.968  -0.154  0.9586  1.3543 -1.9157
    1CHTO   C29  305   7.288   7.881  -0.337  0.0077  0.3802 -0.1400
    1CHTO   H57  306   7.320   7.786  -0.383  0.5105 -0.1889  1.3700
    1CHTO   O21  307   7.403   7.961  -0.322 -0.1914 -0.3194  0.0328
    1CHTO   H37  308   7.452   7.959  -0.402  0.5607  0.7219  0.4497
    1CHTO   C27  309   7.189   7.958  -0.431 -0.7958 -0.0729  0.0343
    1CHTO   H55  310   7.175   8.063  -0.402  1.1987 -0.1186  1.2104
    1CHTO    N5  311   7.240   7.954  -0.573 -0.0153 -0.3004  0.1566
    1CHTO   H43  312   7.313   8.033  -0.569  0.9739 -1.3003  3.5214
    1CHTO   H44  313   7.158   7.965  -0.643 -2.0626 -1.6154  2.2638
    1CHTO   C25  314   7.047   7.886  -0.428  0.4035  0.5818  0.4661
    1CHTO   H53  315   7.048   7.800  -0.497 -1.4039  0.3578  0.6989
    1CHTO   O17  316   7.006   7.860  -0.296 -0.0652  0.1159 -0.2602
    1CHTO   C32  317   7.093   7.792  -0.205 -0.3005  0.4762  0.2224
    1CHTO   H60  318   7.109   7.699  -0.261 -1.0685 -0.4669  1.5371
    1CHTO   C36  319   7.024   7.754  -0.075 -0.3855 -0.1688  0.2533
    1CHTO   O25  320   6.942   7.642  -0.092  0.2717 -0.1654 -0.2260
    1CHTO   H40  321   6.855   7.668  -0.067  0.6068  0.5740  0.1516
    1CHTO   O15  322   6.923   7.981  -0.504 -0.6410  0.0273  0.1790
    1CHTO   C19  323   6.814   7.908  -0.566  0.8252  0.1459  0.0322
    1CHTO   H47  324   6.741   7.989  -0.582 -1.3754 -1.6415  0.7119
    1CHTO   C20  325   6.851   7.835  -0.701 -0.0275  0.0466  0.2249
    1CHTO   H48  326   6.937   7.768  -0.685 -0.0302  0.1280  0.5733
    1CHTO   O19  327   6.888   7.934  -0.799 -0.4034  0.5485  0.0266
    1CHTO   H35  328   6.977   7.962  -0.785 -0.0844 -0.8607  0.8644
    1CHTO   C21  329   6.732   7.746  -0.761  0.6744  0.0286  0.0031
    1CHTO   H49  330   6.652   7.812  -0.795  0.6690  1.8899  3.4257
    1CHTO    N4  331   6.776   7.667  -0.884  0.3521  0.3132  0.3264
    1CHTO   H41  332   6.810   7.740  -0.957 -1.1731  1.5513  0.8284
    1CHTO   H42  333   6.687   7.619  -0.923  1.3973  0.2417 -2.0853
    1CHTO   C22  334   6.667   7.659  -0.648  0.0744  1.0592 -0.0319
    1CHTO   H50  335   6.741   7.584  -0.620 -0.7427  0.0798 -0.4385
    1CHTO   O14  336   6.632   7.747  -0.537  0.1577  0.0565  0.3922
    1CHTO   C23  337   6.747   7.804  -0.471  0.0456 -0.8473 -0.3688
    1CHTO   H51  338   6.816   7.721  -0.449 -0.4266 -0.9294  0.8529
    1CHTO   C34  339   6.692   7.861  -0.337  0.2624  0.5931  0.2091
    1CHTO   O23  340   6.637   7.754  -0.257  0.0491  0.1211 -0.0388
    1CHTO   H38  341   6.559   7.723  -0.297  0.4151 -1.3166  0.3588
    1CHTO   O16  342   6.537   7.589  -0.686 -0.1019  0.2783  0.3844
    1CHTO   C24  343   6.542   7.433  -0.681 -0.3660  0.1244 -0.0010
    1CHTO   H52  344   6.643   7.393  -0.695 -1.1109 -2.0382  0.6299
    1CHTO   C26  345   6.436   7.376  -0.778  0.8574 -0.7367  0.1589
    1CHTO   H54  346   6.338   7.426  -0.757 -0.5382 -2.2416 -2.6052
    1CHTO   O20  347   6.483   7.424  -0.904 -0.0646  0.1554  0.6039
    1CHTO   H36  348   6.427   7.388  -0.970 -1.2235  0.0820  1.6060
    1CHTO   C30  349   6.417   7.221  -0.765  0.1756  0.4035 -0.1281
    1CHTO   H58  350   6.514   7.171  -0.783  1.4639  2.6447  0.4924
    1CHTO    N6  351   6.314   7.162  -0.858  0.4624  0.2373  0.2067
    1CHTO   H45  352   6.214   7.165  -0.816  0.2552  0.4993 -0.2999
    1CHTO   H46  353   6.340   7.062  -0.889 -2.9622 -0.1702 -1.6781
    1CHTO   C33  354   6.381   7.199  -0.616  0.0187 -0.2108 -0.3187
    1CHTO   H61  355   6.290   7.253  -0.590  1.9854  2.3042  1.6135
    1CHTO   O18  356   6.489   7.253  -0.541 -0.1142 -0.2720 -0.4602
    1CHTO   C28  357   6.492   7.396  -0.544 -0.0678  0.6227  0.6725
    1CHTO   H56  358   6.389   7.431  -0.534 -0.2186  0.1754  0.6875
    1CHTO   C35  359   6.577   7.442  -0.435 -0.1593  0.2502  0.3919
    1CHTO   O24  360   6.715   7.384  -0.426 -0.3351 -0.0527  0.2877
    1CHTO   H39  361   6.718   7.291  -0.439 -2.7478 -0.1300 -0.0813
    1CHTO    O9  362   6.355   7.058  -0.580 -0.0331 -0.5124  0.3125
    1CHTO   C13  363   6.320   7.024  -0.417 -0.5010  0.1165 -0.4875
    1CHTO   H26  364   6.245   7.096  -0.377 -0.0457  0.5514 -0.4155
    1CHTO   C11  365   6.455   7.023  -0.332 -0.4429 -0.3427 -0.2810
    1CHTO   H24  366   6.483   7.129  -0.345 -2.0405  0.0856 -0.2593
    1CHTO    O8  367   6.569   6.955  -0.388  0.4567 -0.3162  0.6114
    1CHTO    H3  368   6.641   7.009  -0.416 -0.4516  0.4203 -0.3146
    1CHTO    C9  369   6.426   7.006  -0.181 -0.2304  0.3320 -0.3216
    1CHTO   H22  370   6.341   7.073  -0.163 -1.1489 -0.8508 -0.1906
    1CHTO    N2  371   6.534   7.042  -0.090 -0.1536  0.1302  0.1317
    1CHTO   H10  372   6.610   6.965  -0.088 -0.1179  0.1796  1.2433
    1CHTO   H11  373   6.574   7.132  -0.135  2.3249 -1.2285 -0.4821
    1CHTO    C7  374   6.373   6.858  -0.174  0.4310 -0.3921 -0.3717
    1CHTO   H20  375   6.349   6.849  -0.066  3.5616 -0.0176  0.4144
    1CHTO    O4  376   6.253   6.839  -0.260  0.4086  0.3170  0.5739
    1CHTO   C14  377   6.246   6.884  -0.393  0.3918  0.4488  0.5555
    1CHTO   H27  378   6.140   6.898  -0.421  1.1397  3.5602 -0.9089
    1CHTO   C18  379   6.306   6.781  -0.491 -0.4644 -0.5988 -0.0815
    1CHTO   O13  380   6.234   6.656  -0.492  0.1596  0.0384 -0.0876
    1CHTO    H7  381   6.280   6.583  -0.527 -0.9738  0.0493 -1.6973
    1CHTO    O2  382   6.486   6.731  -0.206  0.2419  0.6648 -0.1530
    1CHTO    C1  383   6.511   6.636  -0.098 -0.1324 -0.4261 -0.5561
    1CHTO   H14  384   6.456   6.665  -0.006 -0.6705  1.2229 -1.3743
    1CHTO    C2  385   6.669   6.613  -0.050 -0.1008  0.0851 -0.0850
    1CHTO   H15  386   6.727   6.604  -0.144  1.1286  1.3435  0.5187
    1CHTO    O6  387   6.711   6.729   0.021  0.1033 -0.0447 -0.1442
    1CHTO    H1  388   6.699   6.808  -0.028  0.8609  0.0737 -0.1543
    1CHTO    C3  389   6.693   6.484   0.039  0.3081  0.7838  0.1947
    1CHTO   H16  390   6.652   6.512   0.137  0.6103  0.2410  0.4779
    1CHTO    N1  391   6.842   6.454   0.054 -0.3419 -0.2308  0.1958
    1CHTO    H8  392   6.894   6.549   0.050  1.8402 -1.4534 -1.4968
    1CHTO    H9  393   6.875   6.392  -0.028  1.0350  0.3405  0.3067
    1CHTO    C4  394   6.612   6.362  -0.014  1.0842 -0.0032 -0.0240
    1CHTO   H17  395   6.646   6.329  -0.112  0.9342  1.0836 -0.4380
    1CHTO    O1  396   6.475   6.401  -0.027  0.3186  0.7377 -1.2897
    1CHTO    C5  397   6.456   6.493  -0.138  0.1593 -0.8754  0.0359
    1CHTO   H18  398   6.500   6.448  -0.227 -0.9465  1.9738 -2.0477
    1CHTO   C16  399   6.306   6.517  -0.169  0.6479 -0.0519  0.4483
    1CHTO   O11  400   6.235   6.392  -0.182 -0.4539  0.0823  0.1755
    1CHTO    H5  401   6.295   6.327  -0.212 -0.5175  0.1112 -0.0149
    1CHTO    O3  402   6.613   6.247   0.073 -0.1696  0.0972  0.3216
    1CHTO    C6  403   6.570   6.117   0.018 -0.0463  0.5457  0.0011
    1CHTO   H19  404   6.518   6.140  -0.075  2.6895 -0.6236 -1.8786
    1CHTO    C8  405   6.687   6.019  -0.006  0.0989  0.6845  0.4270
    1CHTO   H21  406   6.737   5.998   0.088 -0.9625 -0.1093  0.8180
    1CHTO    O7  407   6.774   6.080  -0.103 -0.1876 -0.6750  0.0718
    1CHTO    H2  408   6.800   6.166  -0.074  1.8871 -1.6506  1.2526
    1CHTO   C12  409   6.629   5.883  -0.067  0.5663 -0.4021  0.0355
    1CHTO   H25  410   6.595   5.906  -0.171 -2.5185 -0.7354  0.9032
    1CHTO    N3  411   6.734   5.777  -0.074 -0.0555  0.0841  0.2095
    1CHTO   H12  412   6.787   5.766   0.020 -0.3608  0.6719  0.4508
    1CHTO   H13  413   6.678   5.687  -0.094 -0.2085  0.2454 -0.0784
    1CHTO   C15  414   6.499   5.830   0.010 -0.1237  0.2663 -0.1872
    1CHTO   H28  415   6.524   5.763   0.093 -1.8943  0.1320  0.2591
    1CHTO   O10  416   6.410   5.753  -0.077 -0.2532  0.0825  0.7696
    1CHTO    H4  417   6.421   5.663  -0.052 -0.4581 -0.3741 -0.7835
    1CHTO    O5  418   6.410   5.935   0.056 -0.4741 -0.1468 -0.0163
    1CHTO   C10  419   6.466   6.043   0.114  0.4135  0.2154  0.5774
    1CHTO   H23  420   6.519   5.998   0.198  0.4525  0.3919  0.6473
    1CHTO   C17  421   6.353   6.136   0.159  0.7048  0.3534 -0.2517
    1CHTO   O12  422   6.279   6.198   0.049 -0.4920  0.1820 -0.1601
    1CHTO    H6  423   6.224   6.136   0.005  1.2880 -0.4589 -1.5420
    2CHTO  H203  424   3.698   4.576   1.688  0.8927 -0.9868  0.3618
    2CHTO   O82  425   3.711   4.550   1.599 -0.8024  0.1385 -0.2393
    2CHTO  C123  426   3.705   4.670   1.525  0.4403  0.0368  0.3725
    2CHTO  H227  427   3.763   4.751   1.571 -0.3727  2.0581 -2.0297
    2CHTO   O77  428   3.774   4.641   1.390 -0.0042  0.3990  0.1290
    2CHTO  C118  429   3.788   4.755   1.307  0.5565 -0.3005  0.3779
    2CHTO  H222  430   3.844   4.830   1.367  0.1872 -1.7848  2.6399
    2CHTO  C125  431   3.874   4.718   1.184 -0.9423  0.1147  0.1074
    2CHTO   O84  432   3.927   4.830   1.124  0.9784 -0.1696 -0.0255
    2CHTO  H205  433   4.019   4.811   1.123  0.9227 -0.8072  2.1170
    2CHTO  C114  434   3.652   4.815   1.262  0.7142 -0.4286 -0.0064
    2CHTO  H218  435   3.605   4.739   1.198  0.4857 -0.1452 -0.1747
    2CHTO  C116  436   3.555   4.845   1.379 -0.1857 -0.0883 -0.3622
    2CHTO  H220  437   3.582   4.945   1.419 -0.3162  0.2787 -1.1896
    2CHTO   O79  438   3.419   4.858   1.337 -0.3379  0.0887 -0.2025
    2CHTO  H201  439   3.394   4.777   1.298 -1.1018 -0.0799  0.6164
    2CHTO  C120  440   3.557   4.727   1.490  0.3950  0.3523 -0.3137
    2CHTO  H224  441   3.495   4.640   1.459  0.4145  0.0589  0.4590
    2CHTO   N21  442   3.488   4.774   1.610  0.2667  0.2978  0.2467
    2CHTO  H211  443   3.411   4.847   1.588  0.9207  0.2327 -2.4956
    2CHTO  H212  444   3.560   4.831   1.666  0.6131 -0.3947  0.5159
    2CHTO   O75  445   3.689   4.939   1.189  0.3171  0.4367  0.1895
    2CHTO  C112  446   3.570   5.034   1.139  0.5135  0.1324 -0.4031
    2CHTO  H216  447   3.497   5.055   1.218  0.7388  0.5976 -0.3189
    2CHTO   O73  448   3.512   4.955   1.038 -0.3982 -0.4981 -0.0582
    2CHTO  C113  449   3.391   5.011   0.990  0.1693  0.4691 -0.1023
    2CHTO  H217  450   3.331   5.021   1.082  1.4306  0.6443  0.7199
    2CHTO  C124  451   3.315   4.904   0.908 -0.7747  0.1576 -0.8352
    2CHTO   O83  452   3.388   4.877   0.783 -0.4119  0.1077 -0.8376
    2CHTO  H204  453   3.333   4.833   0.721  0.8044 -1.1465 -1.0391
    2CHTO  C109  454   3.422   5.139   0.910 -0.1088 -0.2322 -0.3164
    2CHTO  H213  455   3.495   5.111   0.833  1.5226  0.1194  1.0950
    2CHTO  C110  456   3.494   5.237   1.008  0.7766 -0.6437  0.9752
    2CHTO  H214  457   3.418   5.263   1.082 -2.9180 -2.4745 -2.0208
    2CHTO   O78  458   3.515   5.359   0.936 -0.1134  0.5628  0.1826
    2CHTO  H200  459   3.436   5.407   0.922 -0.1069  0.1341 -1.3703
    2CHTO  C111  460   3.621   5.171   1.077 -0.4761 -0.4945 -0.0334
    2CHTO  H215  461   3.697   5.148   1.001  1.1884  2.4910  0.6532
    2CHTO   N19  462   3.688   5.245   1.187 -0.1832  0.7783  0.2040
    2CHTO  H207  463   3.619   5.242   1.271  1.0453 -1.9771  1.1905
    2CHTO  H208  464   3.777   5.191   1.216 -0.1457  0.5403 -0.3590
    2CHTO   O74  465   3.302   5.193   0.850 -0.4497 -0.5269  0.1591
    2CHTO  C115  466   3.313   5.233   0.694  0.0198 -0.4168  0.5704
    2CHTO  H219  467   3.413   5.268   0.668  0.1594  0.0085  1.6691
    2CHTO   O76  468   3.293   5.105   0.610 -0.0080 -0.6919 -0.3782
    2CHTO  C122  469   3.156   5.070   0.598 -0.1316  0.1370  0.3278
    2CHTO  H226  470   3.122   5.032   0.694 -2.2689 -0.8570 -0.8034
    2CHTO  C126  471   3.147   4.945   0.498 -0.1990  0.2352  1.0903
    2CHTO   O85  472   3.013   4.887   0.497  0.3558 -0.1195  0.1292
    2CHTO  H206  473   3.008   4.834   0.574 -0.7673  2.2443  1.7485
    2CHTO  C121  474   3.059   5.186   0.546  0.2386  0.0444  0.2465
    2CHTO  H225  475   2.998   5.173   0.454 -1.9685  0.3047  1.6316
    2CHTO   O81  476   2.948   5.213   0.635 -0.2425  0.4423  0.6441
    2CHTO  H202  477   2.973   5.257   0.714 -4.5239  0.7234  1.9209
    2CHTO  C119  478   3.141   5.318   0.530  0.0567 -0.2171 -0.5181
    2CHTO  H223  479   3.220   5.296   0.459  1.8362  0.9596  1.0287
    2CHTO  C117  480   3.208   5.358   0.665 -0.3890 -0.7968 -0.2963
    2CHTO  H221  481   3.158   5.370   0.760  0.9043  2.0179  0.0829
    2CHTO   N20  482   3.288   5.490   0.653 -0.6017 -0.4449  0.3226
    2CHTO  H209  483   3.330   5.523   0.747  0.6488  0.5798 -0.5789
    2CHTO  H210  484   3.362   5.492   0.574 -0.0190 -0.6811  0.8592
    2CHTO   O80  485   3.070   5.440   0.449 -0.0148 -0.8569  0.1914
    2CHTO  C103  486   3.114   5.467   0.293  0.5239 -0.7553  0.1734
    2CHTO  H190  487   3.221   5.480   0.279 -0.0455  3.4784 -1.0561
    2CHTO  C101  488   3.085   5.360   0.191  0.3024 -0.2951 -0.2899
    2CHTO  H188  489   2.979   5.335   0.192  0.7492 -2.2067 -0.4460
    2CHTO   O68  490   3.150   5.234   0.243  0.1662  0.4070 -0.0971
    2CHTO  H168  491   3.175   5.188   0.165 -0.9024  0.0405 -0.2358
    2CHTO   C99  492   3.127   5.398   0.041 -0.3078  0.5409  0.0556
    2CHTO  H186  493   3.234   5.427   0.050  0.2564 -1.6648  0.8743
    2CHTO   N17  494   3.119   5.274  -0.049 -0.1498 -0.4941 -0.0160
    2CHTO  H174  495   3.177   5.284  -0.139 -1.5840  1.7829 -0.7217
    2CHTO  H175  496   3.017   5.257  -0.078 -0.2050 -1.5526  0.7572
    2CHTO   C97  497   3.050   5.527  -0.003 -0.2846 -0.1337 -0.5046
    2CHTO  H184  498   2.943   5.511  -0.022 -0.5194 -0.5245  1.0647
    2CHTO   O64  499   3.078   5.625   0.100  0.6527 -0.3151  0.7359
    2CHTO  C104  500   3.045   5.603   0.243 -0.2497  0.0501  0.5992
    2CHTO  H191  501   2.937   5.601   0.256 -0.3609  3.3666  0.6712
    2CHTO  C108  502   3.082   5.723   0.334 -0.8857  0.2567  0.0677
    2CHTO   O71  503   3.220   5.745   0.350 -0.3738 -0.0144 -0.3013
    2CHTO  H171  504   3.263   5.662   0.361  1.1841  0.7758 -0.3577
    2CHTO   O62  505   3.120   5.579  -0.115 -0.2796 -0.0696  0.3327
    2CHTO   C91  506   3.090   5.699  -0.183 -0.0683 -0.0065  0.6905
    2CHTO  H178  507   3.060   5.774  -0.110  1.1625 -1.5155  2.7880
    2CHTO   C92  508   2.970   5.682  -0.285  0.2366 -0.3334 -0.0299
    2CHTO  H179  509   2.997   5.599  -0.351  0.3768  0.4129 -0.9189
    2CHTO   O66  510   2.852   5.632  -0.222 -0.4728 -0.0645 -0.6329
    2CHTO  H166  511   2.839   5.671  -0.138 -1.3785  0.8621 -1.1833
    2CHTO   C93  512   2.927   5.809  -0.369 -0.2177 -0.4506 -0.1307
    2CHTO  H180  513   2.826   5.851  -0.356  0.4772  1.6046 -1.2337
    2CHTO   N16  514   2.918   5.786  -0.518 -0.1903 -0.0374  0.1443
    2CHTO  H172  515   2.846   5.708  -0.538  2.3023 -2.0899 -1.0773
    2CHTO  H173  516   3.015   5.756  -0.552 -0.4507 -1.7224  0.8329
    2CHTO   C94  517   3.033   5.920  -0.330 -0.3446 -0.2422 -0.2734
    2CHTO  H181  518   3.024   6.010  -0.390  2.6613 -0.2077 -0.7464
    2CHTO   O61  519   3.166   5.872  -0.342 -0.3818 -0.6342  0.3318
    2CHTO   C95  520   3.206   5.766  -0.256 -0.6607  0.7725  0.2142
    2CHTO  H182  521   3.250   5.689  -0.320  1.1388  1.5645  0.4721
    2CHTO  C106  522   3.318   5.811  -0.151 -0.5867 -0.3055 -0.1657
    2CHTO   O69  523   3.439   5.869  -0.204  0.2658 -0.0371  0.0924
    2CHTO  H169  524   3.511   5.887  -0.147  3.0879 -0.9331 -3.0366
    2CHTO   O63  525   3.011   5.975  -0.173 -0.4554 -0.1999 -0.2477
    2CHTO   C96  526   2.880   6.067  -0.128 -0.3872 -0.6185  0.0922
    2CHTO  H183  527   2.797   5.999  -0.107  1.1359 -2.2176  1.1190
    2CHTO   C98  528   2.828   6.181  -0.219  0.3310 -0.4498  0.1189
    2CHTO  H185  529   2.903   6.259  -0.240 -0.5622  0.3921  0.0249
    2CHTO   O67  530   2.802   6.117  -0.341  0.4133  0.7971 -0.0663
    2CHTO  H167  531   2.724   6.150  -0.379  0.8719  2.0873  0.0765
    2CHTO  C102  532   2.702   6.247  -0.145  0.4471 -0.3426  0.2209
    2CHTO  H189  533   2.637   6.161  -0.124 -0.8656  0.4152 -0.6907
    2CHTO   N18  534   2.628   6.342  -0.226  0.1285 -0.2925 -0.3439
    2CHTO  H176  535   2.542   6.374  -0.168  0.1175 -1.6632  0.4177
    2CHTO  H177  536   2.692   6.427  -0.245 -1.6604  1.2322  0.2120
    2CHTO  C105  537   2.755   6.297  -0.006  0.7007 -0.5110  0.0138
    2CHTO  H192  538   2.829   6.373  -0.030 -0.8591  0.1561 -2.8467
    2CHTO   O65  539   2.802   6.185   0.064 -0.2626  0.4059 -0.8200
    2CHTO  C100  540   2.921   6.131   0.008  0.1731 -0.4858 -0.0960
    2CHTO  H187  541   2.991   6.215   0.001 -1.0099  0.5676  0.4391
    2CHTO  C107  542   2.972   6.027   0.106 -0.2545  0.2083  0.3332
    2CHTO   O70  543   3.099   5.968   0.076  0.0521  0.1298  0.3053
    2CHTO  H170  544   3.151   6.036   0.036  0.3415  0.8115  1.8053
    2CHTO   O57  545   2.631   6.355   0.091 -0.3931 -0.1381  0.2286
    2CHTO   C85  546   2.662   6.425   0.208  0.0425 -0.3594 -0.8942
    2CHTO  H157  547   2.566   6.426   0.263  0.6119  0.3031  0.0907
    2CHTO   C83  548   2.685   6.578   0.185 -0.2814  0.4859  0.2563
    2CHTO  H155  549   2.599   6.623   0.135 -0.0531 -1.2542 -1.7927
    2CHTO   O56  550   2.792   6.608   0.094 -0.0341  0.2711 -0.2301
    2CHTO  H135  551   2.877   6.582   0.122 -0.8922 -2.0918  0.3213
    2CHTO   C81  552   2.706   6.642   0.326  0.1756 -0.7781 -0.1718
    2CHTO  H153  553   2.624   6.613   0.391 -0.4427 -1.0748 -1.0656
    2CHTO   N14  554   2.707   6.792   0.321 -0.4663 -0.1195  0.2785
    2CHTO  H141  555   2.726   6.837   0.416 -1.7816 -0.8132  0.8856
    2CHTO  H142  556   2.780   6.822   0.250 -2.9908  1.9242 -1.5900
    2CHTO   C79  557   2.836   6.582   0.387 -0.1829  0.0954 -0.3029
    2CHTO  H151  558   2.841   6.618   0.490 -1.6161 -2.1680  0.5934
    2CHTO   O52  559   2.825   6.435   0.401  0.5277  0.1223  0.3444
    2CHTO   C86  560   2.774   6.359   0.296  0.1337  0.1744 -0.1935
    2CHTO  H158  561   2.870   6.343   0.241  0.5638 -0.7503  0.8205
    2CHTO   C90  562   2.727   6.223   0.344  0.1143 -0.1513  0.5769
    2CHTO   O60  563   2.614   6.225   0.441 -0.3908  0.6183 -0.1554
    2CHTO  H138  564   2.651   6.196   0.522 -0.5486 -2.9342 -1.2462
    2CHTO   O50  565   2.958   6.605   0.321  0.0201 -0.2108 -0.3560
    2CHTO   C73  566   3.092   6.648   0.306 -0.1572  0.4114  0.9955
    2CHTO  H145  567   3.109   6.754   0.330 -0.0515  0.5177  0.4453
    2CHTO   C74  568   3.129   6.619   0.147  0.0362  0.3307 -0.6074
    2CHTO  H146  569   3.051   6.664   0.084 -0.3976  0.1163 -0.2317
    2CHTO   O54  570   3.245   6.702   0.123  0.5995  0.0411  0.0329
    2CHTO  H133  571   3.315   6.650   0.087  0.6262  0.2550 -0.2147
    2CHTO   C75  572   3.141   6.464   0.119  0.0260 -0.1906 -0.4828
    2CHTO  H147  573   3.042   6.418   0.134 -0.2390  0.6145  0.2969
    2CHTO   N13  574   3.176   6.430  -0.022  0.4611 -0.2753  0.2638
    2CHTO  H139  575   3.106   6.482  -0.085  0.8482 -0.4994 -0.3564
    2CHTO  H140  576   3.176   6.323  -0.038 -1.2774 -0.2445  0.0585
    2CHTO   C76  577   3.239   6.395   0.232 -0.0416 -0.4644 -0.0786
    2CHTO  H148  578   3.341   6.430   0.215 -0.0403 -0.9630 -1.0928
    2CHTO   O49  579   3.191   6.425   0.362  0.2126  0.3879 -0.0408
    2CHTO   C77  580   3.182   6.563   0.399  0.7920 -0.6908  0.6143
    2CHTO  H149  581   3.281   6.610   0.405 -0.5179  1.9815  2.3667
    2CHTO   C88  582   3.145   6.582   0.551  1.1663 -0.5812 -0.4002
    2CHTO   O58  583   3.223   6.488   0.615  0.0806  0.4888  0.2083
    2CHTO  H136  584   3.214   6.501   0.708  0.0899  0.6363  0.1893
    2CHTO   O51  585   3.226   6.238   0.216 -0.7579 -0.1078  0.1725
    2CHTO   C78  586   3.346   6.162   0.306  0.0665  0.3044 -0.0405
    2CHTO  H150  587   3.389   6.240   0.371 -0.9599  0.1780  0.8118
    2CHTO   C80  588   3.453   6.095   0.225  0.0672 -0.1117  0.3305
    2CHTO  H152  589   3.406   6.021   0.157  0.3492  0.0084  0.0034
    2CHTO   O55  590   3.512   6.195   0.135 -0.2973  0.2440 -0.2383
    2CHTO  H134  591   3.584   6.239   0.177  0.5867  0.9151 -2.3666
    2CHTO   C84  592   3.566   6.032   0.324  0.4966  0.1061 -0.6936
    2CHTO  H156  593   3.621   6.114   0.371 -0.1593 -0.1012  0.4718
    2CHTO   N15  594   3.672   5.945   0.247  0.2866 -0.4882 -0.2926
    2CHTO  H143  595   3.729   5.889   0.319 -0.8196 -1.3041 -0.0296
    2CHTO  H144  596   3.735   6.016   0.198  0.8456  0.2181  1.4108
    2CHTO   C87  597   3.492   5.951   0.429  0.5261 -0.8078 -0.0834
    2CHTO  H159  598   3.449   5.862   0.384  0.0636 -0.2704 -0.7223
    2CHTO   O53  599   3.385   6.031   0.480  0.1284  0.8233 -0.4545
    2CHTO   C82  600   3.276   6.059   0.395 -0.1260  0.3893 -0.2657
    2CHTO  H154  601   3.239   5.970   0.345 -0.9206  1.0098 -0.7787
    2CHTO   C89  602   3.167   6.109   0.484  0.4453 -0.0721  0.0392
    2CHTO   O59  603   3.039   6.124   0.435  0.4618  0.2754  0.2398
    2CHTO  H137  604   2.991   6.043   0.437  0.1825  0.4721  2.4920
    2CHTO   O45  605   3.599   5.919   0.563  0.1798  0.0070 -0.1132
    2CHTO   C67  606   3.546   5.955   0.695  0.3618 -0.4891  0.4921
    2CHTO  H124  607   3.485   6.046   0.686 -0.4924 -1.3469 -3.1934
    2CHTO   C65  608   3.463   5.848   0.763 -0.1923  0.7005  0.1845
    2CHTO  H122  609   3.526   5.759   0.754 -0.7594  0.4080 -0.9747
    2CHTO   O44  610   3.340   5.834   0.693  0.0112  0.1425 -0.4830
    2CHTO  H102  611   3.342   5.824   0.600  1.3039 -0.1254 -0.4346
    2CHTO   C63  612   3.450   5.873   0.919  0.4619  0.4555  0.1462
    2CHTO  H120  613   3.540   5.834   0.968 -0.0370  0.5066  1.1085
    2CHTO   N11  614   3.336   5.804   0.990 -0.0196  0.5596  0.3020
    2CHTO  H108  615   3.254   5.847   0.938 -0.6784  1.4013  1.9863
    2CHTO  H109  616   3.332   5.829   1.094  1.2118  0.2445  0.4439
    2CHTO   C61  617   3.463   6.026   0.949 -0.3600  0.3901 -0.3024
    2CHTO  H118  618   3.452   6.043   1.057 -0.3887 -1.0063 -0.0760
    2CHTO   O40  619   3.598   6.077   0.910 -0.2789  0.1101  0.3838
    2CHTO   C68  620   3.663   5.996   0.806  0.1516 -0.6825 -0.5852
    2CHTO  H125  621   3.717   5.907   0.844 -1.3865 -1.6493 -0.6289
    2CHTO   C72  622   3.772   6.095   0.747 -0.0630 -0.4624 -1.2162
    2CHTO   O48  623   3.859   6.148   0.848 -0.9449 -0.3595  0.7835
    2CHTO  H105  624   3.901   6.224   0.813 -1.8557 -1.4237 -2.8733
    2CHTO   O38  625   3.361   6.102   0.878  0.1696  0.7893  0.5298
    2CHTO   C55  626   3.259   6.186   0.942 -0.3762  0.5299  0.3327
    2CHTO  H112  627   3.254   6.162   1.049  0.2963 -1.3420 -0.0447
    2CHTO   C56  628   3.115   6.161   0.861 -0.6121  0.5167  0.4445
    2CHTO  H113  629   3.134   6.186   0.756  1.5861  1.3098  1.0104
    2CHTO   O42  630   3.091   6.022   0.858  0.0269 -0.0060  0.0914
    2CHTO  H100  631   3.033   6.003   0.787  0.0784  1.1447 -0.2629
    2CHTO   C57  632   3.001   6.248   0.921 -0.2043 -0.0905 -0.1425
    2CHTO  H114  633   2.975   6.211   1.020 -0.9828  2.1487  0.5236
    2CHTO   N10  634   2.881   6.252   0.840  0.0377  0.1688  0.7578
    2CHTO  H106  635   2.785   6.271   0.887 -1.5352 -1.5436 -1.6105
    2CHTO  H107  636   2.867   6.159   0.787  1.6220 -1.0065  2.3539
    2CHTO   C58  637   3.053   6.396   0.942 -0.8087 -0.5620  0.0508
    2CHTO  H115  638   3.072   6.439   0.841 -0.5859  3.3652  1.6519
    2CHTO   O37  639   3.175   6.387   1.020 -0.2695 -0.0358  0.1613
    2CHTO   C59  640   3.284   6.338   0.942 -0.3757  0.3923  0.5907
    2CHTO  H116  641   3.288   6.370   0.838 -1.0924 -0.3189  0.3410
    2CHTO   C70  642   3.412   6.384   1.018 -0.1973  0.0892 -0.6532
    2CHTO   O46  643   3.532   6.361   0.946 -0.0544 -0.2797 -0.2889
    2CHTO  H103  644   3.599   6.313   0.991  0.7057  1.0810  0.0472
    2CHTO   O39  645   2.952   6.492   1.031 -0.0376 -0.3878  0.0580
    2CHTO   C60  646   2.951   6.632   0.994 -0.1798  0.5908  0.1550
    2CHTO  H117  647   3.045   6.659   0.946  0.9569 -1.9617  0.9140
    2CHTO   C62  648   2.842   6.668   0.884 -0.7322 -0.0186  0.0959
    2CHTO  H119  649   2.868   6.608   0.794 -0.2773 -1.0257  0.9030
    2CHTO   O43  650   2.710   6.632   0.932 -0.2359  0.3506 -0.7033
    2CHTO  H101  651   2.645   6.651   0.868 -2.2033  1.1876  1.4814
    2CHTO   C66  652   2.853   6.824   0.838  0.2672 -0.0559  0.1337
    2CHTO  H123  653   2.952   6.848   0.798 -0.2849  1.7501 -0.2154
    2CHTO   N12  654   2.749   6.858   0.733  0.5118 -0.1054 -0.0812
    2CHTO  H110  655   2.798   6.871   0.637 -2.2260 -1.4409 -1.7093
    2CHTO  H111  656   2.685   6.937   0.769 -3.5901 -2.5154 -1.7097
    2CHTO   C69  657   2.838   6.910   0.965  0.7492 -0.1973  0.1277
    2CHTO  H126  658   2.744   6.874   1.011  0.2797  0.0459 -0.6268
    2CHTO   O41  659   2.962   6.875   1.074 -0.3728  0.0874  0.3836
    2CHTO   C64  660   2.938   6.725   1.121  0.2088  0.0381 -0.0346
    2CHTO  H121  661   2.837   6.705   1.163  0.4958 -1.9307 -0.2436
    2CHTO   C71  662   3.042   6.684   1.229  0.1438 -0.0631  0.0982
    2CHTO   O47  663   3.009   6.751   1.350 -0.1861  0.4501  0.6320
    2CHTO  H104  664   3.046   6.837   1.357 -0.4293  0.4283  2.3698
    2CHTO   O34  665   2.833   7.078   0.922  0.2121  0.0428 -0.4162
    2CHTO   C49  666   2.792   7.194   1.030  0.5017 -0.7061  0.4789
    2CHTO   H91  667   2.765   7.137   1.119 -2.3081 -3.1856 -1.8807
    2CHTO   C47  668   2.676   7.281   0.968 -0.4967 -0.0265 -0.8665
    2CHTO   H89  669   2.639   7.344   1.051 -0.8810 -2.3244  0.7431
    2CHTO   O33  670   2.571   7.197   0.928  0.2609  0.4752  0.1396
    2CHTO   H70  671   2.490   7.237   0.951 -0.4633 -1.8966  1.9584
    2CHTO   C45  672   2.734   7.375   0.851 -0.0579 -0.1473 -0.0490
    2CHTO   H87  673   2.771   7.306   0.775 -0.2951  1.0067 -1.2249
    2CHTO    N8  674   2.624   7.453   0.789 -0.2269 -0.2912  0.7053
    2CHTO   H75  675   2.611   7.552   0.829  2.1824  0.5303 -0.4656
    2CHTO   H76  676   2.635   7.453   0.681 -1.5811 -0.4180  0.5581
    2CHTO   C43  677   2.867   7.450   0.896 -0.1791  0.3998 -0.1606
    2CHTO   H85  678   2.906   7.495   0.805  1.0427 -0.3292  0.0039
    2CHTO   O29  679   2.964   7.366   0.961  0.1415  0.7232  0.2321
    2CHTO   C50  680   2.920   7.281   1.068  0.2694 -0.3344 -1.2908
    2CHTO   H92  681   3.003   7.210   1.074 -0.1684 -0.6741  0.9289
    2CHTO   C54  682   2.906   7.339   1.200 -0.3460  0.3683  0.3864
    2CHTO   O36  683   3.040   7.377   1.251  0.3324  0.1481  0.1025
    2CHTO   H72  684   3.102   7.414   1.191  2.8776  1.2066  3.2445
    2CHTO   O27  685   2.823   7.563   0.989  0.3284  0.6186  0.3846
    2CHTO   C37  686   2.870   7.698   1.020 -0.3692 -0.1716 -0.9315
    2CHTO   H79  687   2.899   7.754   0.929  0.5078 -1.4759 -1.4744
    2CHTO   C38  688   2.753   7.770   1.083  0.0385  0.1981 -0.1593
    2CHTO   H80  689   2.710   7.701   1.156  1.1899 -1.6761 -1.1966
    2CHTO   O31  690   2.665   7.780   0.967 -0.2395 -0.0244  0.0489
    2CHTO   H68  691   2.581   7.747   0.993 -0.0018  0.6625  1.7559
    2CHTO   C39  692   2.780   7.909   1.155 -0.1554  0.5173 -1.1359
    2CHTO   H81  693   2.804   7.983   1.079  1.1183 -0.1662 -1.4177
    2CHTO    N7  694   2.657   7.963   1.226  0.2891  0.6043 -0.1872
    2CHTO   H73  695   2.682   8.032   1.305 -1.2808  0.1960  0.6890
    2CHTO   H74  696   2.599   7.878   1.262 -1.7569  1.7179 -0.8117
    2CHTO   C40  697   2.907   7.888   1.254 -0.4796  0.3564  0.1223
    2CHTO   H82  698   2.886   7.826   1.341  0.5519  0.0459  0.1575
    2CHTO   O26  699   3.016   7.834   1.175 -0.2451  0.1131  0.2617
    2CHTO   C41  700   2.989   7.696   1.120 -0.0755 -0.2521 -0.2576
    2CHTO   H83  701   2.956   7.628   1.200 -2.8648 -0.7123 -1.7028
    2CHTO   C52  702   3.115   7.645   1.045 -0.0801  0.5516 -0.9860
    2CHTO   O35  703   3.225   7.635   1.141  0.0275  0.2667  0.0943
    2CHTO   H71  704   3.279   7.559   1.129  0.9199  0.8838  0.1714
    2CHTO   O28  705   2.958   8.010   1.312 -0.1088  0.1631 -0.4396
    2CHTO   C42  706   3.055   8.029   1.422 -0.1508  0.4833 -0.5104
    2CHTO   H84  707   3.082   8.134   1.406  0.4215  0.3623 -0.3255
    2CHTO   C44  708   3.189   7.948   1.419 -0.2468 -0.6088 -0.7052
    2CHTO   H86  709   3.170   7.841   1.407 -0.2831 -0.3642 -3.1432
    2CHTO   O32  710   3.260   7.991   1.298  0.4041 -0.0890 -0.2172
    2CHTO   H69  711   3.299   7.914   1.261 -2.5911 -2.2371  0.9408
    2CHTO   C48  712   3.286   7.963   1.543  0.7927 -0.8221 -0.1021
    2CHTO   H90  713   3.338   8.055   1.518  0.5226 -0.9007 -0.9615
    2CHTO    N9  714   3.398   7.861   1.548  0.1289  0.5341 -0.3260
    2CHTO   H77  715   3.378   7.764   1.506 -0.1110  0.2703  0.3976
    2CHTO   H78  716   3.491   7.898   1.508  1.2875 -1.5205  0.4221
    2CHTO   C51  717   3.204   7.950   1.678  0.2940  0.4031 -0.2630
    2CHTO   H93  718   3.162   7.850   1.691  3.5618 -0.7974  1.3306
    2CHTO   O30  719   3.100   8.050   1.666  0.2518 -1.1226 -0.1489
    2CHTO   C46  720   2.986   8.016   1.557  0.9290 -0.0935  0.0626
    2CHTO   H88  721   2.954   7.915   1.583  1.0433 -0.3881 -0.9342
    2CHTO   C53  722   2.871   8.121   1.581  0.1034 -0.3725  0.7199
    2CHTO   O72  723   2.780   8.063   1.679 -0.4964  0.6480 -0.3327
    2CHTO  H199  724   2.699   8.046   1.633 -0.2579  0.1650 -0.5727
    2CHTO   O22  725   3.266   8.004   1.794  0.0556  0.3518 -0.0595
    2CHTO   C31  726   3.219   7.986   1.933  0.3289 -0.4380 -0.5169
    2CHTO   H59  727   3.305   8.023   1.994 -2.0540  1.8161  1.6063
    2CHTO   C29  728   3.099   8.070   1.978 -0.5736 -0.1294 -0.3894
    2CHTO   H57  729   3.018   8.050   1.906  0.6012  0.2311 -1.8424
    2CHTO   O21  730   3.141   8.214   1.965  0.0265  0.1854  0.0027
    2CHTO   H37  731   3.073   8.261   1.922 -0.5004 -0.3680  0.2214
    2CHTO   C27  732   3.050   8.034   2.126  0.7971 -0.3733 -0.5030
    2CHTO   H55  733   3.126   8.074   2.195  3.2607 -1.9101 -2.2420
    2CHTO    N5  734   2.919   8.094   2.155  0.0717 -0.1389  0.4323
    2CHTO   H43  735   2.906   8.191   2.109  0.9830 -0.6607 -0.9788
    2CHTO   H44  736   2.910   8.097   2.263 -0.8091 -1.7151  0.4162
    2CHTO   C25  737   3.042   7.877   2.146  0.1654 -0.5264 -0.0039
    2CHTO   H53  738   2.965   7.838   2.077  2.4331 -0.0980 -2.8860
    2CHTO   O17  739   3.163   7.814   2.105  0.0945  0.4268 -0.3393
    2CHTO   C32  740   3.203   7.832   1.966  0.3500 -0.0577  0.4381
    2CHTO   H60  741   3.123   7.796   1.901  1.3578 -1.3266 -0.1238
    2CHTO   C36  742   3.341   7.759   1.940 -0.1169  0.4823 -0.2714
    2CHTO   O25  743   3.333   7.618   1.968  0.8770  0.0616  0.1739
    2CHTO   H40  744   3.377   7.568   1.902 -1.8907 -1.4450 -0.6004
    2CHTO   O15  745   3.018   7.843   2.297 -0.1534  0.0690  0.1486
    2CHTO   C19  746   3.077   7.807   2.425 -0.3778 -0.1432 -0.0958
    2CHTO   H47  747   2.994   7.748   2.468  0.4687 -0.1457  1.5873
    2CHTO   C20  748   3.207   7.723   2.407  0.4473 -0.2527  0.5389
    2CHTO   H48  749   3.283   7.781   2.354 -1.3071  3.6789  2.0539
    2CHTO   O19  750   3.164   7.606   2.332 -0.1539  0.0043 -0.1539
    2CHTO   H35  751   3.234   7.573   2.279  0.5668  0.6977  0.3455
    2CHTO   C21  752   3.274   7.680   2.546  0.3243  0.7697 -0.9829
    2CHTO   H49  753   3.211   7.602   2.588  0.4478 -0.1177 -2.4126
    2CHTO    N4  754   3.408   7.615   2.529 -0.1615 -0.4242 -0.3126
    2CHTO   H41  755   3.416   7.550   2.443 -1.4902  1.5364 -1.9590
    2CHTO   H42  756   3.476   7.697   2.511  1.5039 -1.3783  1.4477
    2CHTO   C22  757   3.287   7.813   2.625  0.5329  0.4154 -0.1903
    2CHTO   H50  758   3.359   7.883   2.581  1.9541 -2.0917 -1.9879
    2CHTO   O14  759   3.154   7.879   2.640 -0.6996 -0.3832 -0.1171
    2CHTO   C23  760   3.103   7.931   2.519 -0.6696  0.5360  0.7696
    2CHTO   H51  761   3.175   8.003   2.477 -0.0121 -0.4622  0.1947
    2CHTO   C34  762   2.975   8.011   2.537  0.5189 -1.1526  0.0951
    2CHTO   O23  763   2.887   7.933   2.622  0.1427 -0.0508 -0.3029
    2CHTO   H38  764   2.914   7.947   2.710  1.4382 -3.1804 -0.1411
    2CHTO   O16  765   3.315   7.777   2.760  0.2759 -0.0598  0.3741
    2CHTO   C24  766   3.343   7.897   2.852 -0.2515 -0.2280  0.5811
    2CHTO   H52  767   3.297   7.989   2.816 -2.0759 -0.8609  1.2478
    2CHTO   C26  768   3.498   7.910   2.872  0.2611 -0.3948  0.0061
    2CHTO   H54  769   3.544   7.812   2.894  1.5344  0.1389 -0.2475
    2CHTO   O20  770   3.557   7.948   2.744  0.2679  0.0857 -0.4708
    2CHTO   H36  771   3.565   8.041   2.735  0.5625  0.0716 -0.3811
    2CHTO   C30  772   3.523   8.009   2.984 -0.1388  0.5505  0.1834
    2CHTO   H58  773   3.488   8.108   2.952 -2.0447  0.3690  1.6340
    2CHTO    N6  774   3.669   8.016   3.018 -0.3204  0.1871 -0.2437
    2CHTO   H45  775   3.724   8.023   2.925 -1.0055 -1.8326 -0.8213
    2CHTO   H46  776   3.699   8.091   3.089  1.1174  0.0833 -0.7287
    2CHTO   C33  777   3.439   7.973   3.112 -0.0937 -0.0839  1.2331
    2CHTO   H61  778   3.473   7.877   3.153 -0.1577 -0.4554  0.4420
    2CHTO   O18  779   3.296   7.965   3.076  0.3418  0.3355 -0.2150
    2CHTO   C28  780   3.275   7.866   2.986 -0.4185 -0.1757 -0.1644
    2CHTO   H56  781   3.299   7.766   3.021  2.1152  0.3508 -0.3158
    2CHTO   C35  782   3.125   7.863   2.960  0.4873 -0.1425  0.0592
    2CHTO   O24  783   3.080   7.743   2.896  0.4239  0.7029  0.0457
    2CHTO   H39  784   3.063   7.680   2.963 -0.0605  1.8797  1.0571
    2CHTO    O9  785   3.463   8.074   3.213 -0.3917 -0.5220  0.0987
    2CHTO   C13  786   3.423   8.024   3.376 -0.2020 -0.8254  0.5794
    2CHTO   H26  787   3.462   7.922   3.395 -0.3726 -1.1797 -0.8533
    2CHTO   C11  788   3.260   8.030   3.400 -0.2217  0.3831 -0.3913
    2CHTO   H24  789   3.211   7.951   3.341  1.2911 -0.0039 -1.1728
    2CHTO    O8  790   3.211   8.167   3.371  0.9382  0.8316  0.2413
    2CHTO    H3  791   3.130   8.159   3.325  1.2337  2.6485 -0.6534
    2CHTO    C9  792   3.218   7.992   3.549 -0.8061 -0.1619  0.8263
    2CHTO   H22  793   3.249   7.887   3.561 -1.4752 -0.5357 -0.6222
    2CHTO    N2  794   3.073   7.984   3.586  0.0066  0.0075 -0.0382
    2CHTO   H10  795   3.053   7.887   3.628 -0.1834 -0.5555 -1.4205
    2CHTO   H11  796   3.042   8.061   3.656  1.2187  2.0184 -1.6587
    2CHTO    C7  797   3.311   8.079   3.649 -0.0067 -0.2730  0.5039
    2CHTO   H20  798   3.291   8.035   3.750  0.2439 -1.3288  0.0973
    2CHTO    O4  799   3.449   8.087   3.614 -0.0369  0.5312  0.7091
    2CHTO   C14  800   3.500   8.107   3.479  0.4004  0.7145 -0.5966
    2CHTO   H27  801   3.606   8.073   3.480  0.0432 -0.4418  0.1592
    2CHTO   C18  802   3.509   8.260   3.448 -0.0531  0.3862 -0.5416
    2CHTO   O13  803   3.592   8.330   3.539 -0.1833 -0.2916 -0.1430
    2CHTO    H7  804   3.548   8.406   3.572 -0.1336 -0.6140  0.6782
    2CHTO    O2  805   3.257   8.235   3.669  0.5421 -0.4851 -0.1501
    2CHTO    C1  806   3.188   8.266   3.788  0.4252 -0.5161 -0.1263
    2CHTO   H14  807   3.162   8.172   3.840  0.1148  1.0416  2.5972
    2CHTO    C2  808   3.048   8.341   3.754 -0.0942 -0.5948 -0.1199
    2CHTO   H15  809   3.074   8.434   3.701  1.2754  0.2012  1.9077
    2CHTO    O6  810   2.971   8.258   3.665 -0.1113 -0.2510  0.7976
    2CHTO    H1  811   2.961   8.289   3.577  1.7802  0.6287  0.8744
    2CHTO    C3  812   2.971   8.362   3.891 -0.6057 -0.2211 -0.1741
    2CHTO   H16  813   2.940   8.268   3.938 -1.1636  1.2051  2.3703
    2CHTO    N1  814   2.840   8.437   3.875 -0.0920 -0.2451 -0.6216
    2CHTO    H8  815   2.754   8.373   3.882 -0.1876 -0.5738 -3.7681
    2CHTO    H9  816   2.833   8.528   3.933  1.6276  1.0740 -2.3803
    2CHTO    C4  817   3.062   8.432   4.000 -0.2760  0.1034  0.3513
    2CHTO   H17  818   3.082   8.535   3.971 -1.1178 -0.5778 -2.8010
    2CHTO    O1  819   3.194   8.362   4.005  0.0648 -0.1284 -0.2627
    2CHTO    C5  820   3.266   8.354   3.886 -0.4119 -0.4888 -0.5431
    2CHTO   H18  821   3.283   8.449   3.834 -0.6609 -0.9067 -1.3941
    2CHTO   C16  822   3.412   8.295   3.922  0.0523 -0.5694  0.0952
    2CHTO   O11  823   3.486   8.401   3.988  0.1060  0.1623  0.2779
    2CHTO    H5  824   3.568   8.406   3.943  0.3887  1.6394  0.9388
    2CHTO    O3  825   3.013   8.424   4.137 -0.4276 -0.2425  0.1017
    2CHTO    C6  826   3.060   8.512   4.244 -0.2155  0.6361 -0.7120
    2CHTO   H19  827   3.132   8.585   4.207  1.8449 -0.1756  1.5456
    2CHTO    C8  828   2.931   8.585   4.295 -0.2092 -0.1833  0.2237
    2CHTO   H21  829   2.856   8.507   4.313 -1.5118  0.5911 -1.6779
    2CHTO    O7  830   2.893   8.667   4.182  0.6442  0.4331 -0.5680
    2CHTO    H2  831   2.824   8.725   4.210  2.0166  1.6226  0.4280
    2CHTO   C12  832   2.957   8.673   4.428 -0.6057  0.5387  0.2995
    2CHTO   H25  833   3.017   8.762   4.400  1.7333 -1.0543  0.0309
    2CHTO    N3  834   2.833   8.733   4.479 -0.0671  0.6002 -0.0981
    2CHTO   H12  835   2.769   8.652   4.509  1.5702 -1.5941 -2.3337
    2CHTO   H13  836   2.792   8.801   4.406  0.4515  0.0367 -0.9256
    2CHTO   C15  837   3.033   8.595   4.538 -0.2779  0.2816 -0.3368
    2CHTO   H28  838   2.969   8.518   4.582 -0.5761  0.2470 -0.8311
    2CHTO   O10  839   3.094   8.678   4.646  0.2623 -0.4650 -0.2373
    2CHTO    H4  840   3.139   8.755   4.619  1.0226 -0.3606  1.2575
    2CHTO    O5  841   3.153   8.539   4.485 -0.5070  0.1356  0.3047
    2CHTO   C10  842   3.131   8.447   4.371  0.2306 -0.3237  0.1300
    2CHTO   H23  843   3.068   8.362   4.399  0.5087  0.1610  2.3368
    2CHTO   C17  844   3.267   8.383   4.335  0.4356 -0.1514 -0.0692
    2CHTO   O12  845   3.283   8.260   4.406 -0.0497  0.3841 -0.3914
    2CHTO    H6  846   3.212   8.202   4.386 -0.5041  0.3681  1.1700
    3CHTO  H203  847   7.015   2.966   2.307  0.4786  2.1948  0.3267
    3CHTO   O82  848   7.054   2.917   2.378 -0.2765 -0.0491 -0.7475
    3CHTO  C123  849   7.056   2.780   2.342 -0.3808  0.3132 -0.0952
    3CHTO  H227  850   7.159   2.742   2.354 -0.4685 -0.7498 -2.5132
    3CHTO   O77  851   6.968   2.713   2.444  0.1188  0.5658  0.2695
    3CHTO  C118  852   6.986   2.567   2.453  0.2989 -0.3379  0.1790
    3CHTO  H222  853   7.086   2.536   2.489  0.8174 -1.2559 -1.9667
    3CHTO  C125  854   6.882   2.508   2.560  0.3794 -0.0523  1.0952
    3CHTO   O84  855   6.891   2.571   2.690 -0.1148  0.5631 -0.3249
    3CHTO  H205  856   6.977   2.601   2.710  1.0179 -1.6455 -1.7083
    3CHTO  C114  857   6.942   2.506   2.319  0.5650  0.0875  0.1807
    3CHTO  H218  858   6.835   2.522   2.306  0.2697 -1.3361  0.7386
    3CHTO  C116  859   7.009   2.571   2.194 -0.2850 -0.1814  0.5400
    3CHTO  H220  860   7.115   2.539   2.194 -0.6041 -1.2687  1.1975
    3CHTO   O79  861   6.952   2.525   2.069 -0.1070 -0.1643 -0.2653
    3CHTO  H201  862   6.860   2.508   2.082 -0.4123  1.1173 -0.6476
    3CHTO  C120  863   6.999   2.730   2.201  0.2160  0.8201 -0.0353
    3CHTO  H224  864   6.895   2.755   2.172  0.5416 -2.3716 -4.3735
    3CHTO   N21  865   7.081   2.796   2.095 -0.7745 -0.3621  0.5417
    3CHTO  H211  866   7.019   2.798   2.006  0.4558 -0.1371 -0.3256
    3CHTO  H212  867   7.111   2.898   2.114 -2.5397  0.5918 -1.5735
    3CHTO   O75  868   6.966   2.365   2.332  0.0633 -0.4694 -0.2675
    3CHTO  C112  869   6.861   2.277   2.235 -0.6969 -0.2790 -0.8828
    3CHTO  H216  870   6.878   2.309   2.131  0.6737  1.8794 -0.0386
    3CHTO   O73  871   6.726   2.302   2.279  0.2926 -0.5367 -0.0861
    3CHTO  C113  872   6.623   2.218   2.221 -0.0560 -0.1397 -0.6907
    3CHTO  H217  873   6.607   2.257   2.119  0.6479 -0.4642 -0.9276
    3CHTO  C124  874   6.492   2.253   2.288  0.4929 -0.1587  0.5440
    3CHTO   O83  875   6.375   2.200   2.225  0.3346  0.2528 -0.1290
    3CHTO  H204  876   6.293   2.218   2.267 -1.3736 -0.5901 -2.9107
    3CHTO  C109  877   6.646   2.065   2.234  0.2463 -0.1408 -0.4942
    3CHTO  H213  878   6.634   2.038   2.340  1.9736 -0.3514 -0.3386
    3CHTO  C110  879   6.785   2.036   2.180 -0.0845 -0.2907  0.5230
    3CHTO  H214  880   6.800   2.068   2.077  0.0801 -0.5215  0.4751
    3CHTO   O78  881   6.812   1.898   2.199 -0.8986 -0.3040  0.1208
    3CHTO  H200  882   6.904   1.878   2.200 -0.7267  0.4674  0.9230
    3CHTO  C111  883   6.889   2.125   2.262 -0.4652  0.4232  0.1615
    3CHTO  H215  884   6.874   2.101   2.368 -0.7338 -0.4580 -0.0724
    3CHTO   N19  885   7.030   2.093   2.227 -0.5216  0.3875 -0.4517
    3CHTO  H207  886   7.105   2.136   2.291 -1.0595 -0.1640  0.5589
    3CHTO  H208  887   7.042   1.986   2.223  0.8352  0.5967 -4.0706
    3CHTO   O74  888   6.559   1.987   2.146  0.1855 -0.5458  0.0590
    3CHTO  C115  889   6.521   1.851   2.217 -0.3576 -0.1711 -0.8455
    3CHTO  H219  890   6.603   1.816   2.279 -0.3384  0.1806 -0.6727
    3CHTO   O76  891   6.409   1.866   2.308 -0.0790 -0.2363  0.0113
    3CHTO  C122  892   6.277   1.893   2.255 -0.1755 -0.4721  0.0299
    3CHTO  H226  893   6.271   1.982   2.193 -1.8145  0.0427  0.8781
    3CHTO  C126  894   6.163   1.919   2.367  0.1652 -0.4292  0.1946
    3CHTO   O85  895   6.165   1.816   2.467  0.1845  0.1632 -0.8129
    3CHTO  H206  896   6.190   1.729   2.443  0.4584  0.0739 -0.2227
    3CHTO  C121  897   6.233   1.767   2.167  0.3464  0.1370  0.2455
    3CHTO  H225  898   6.152   1.719   2.225 -1.2821  1.4812 -0.8817
    3CHTO   O81  899   6.187   1.826   2.042 -0.7726 -0.1636  0.1208
    3CHTO  H202  900   6.186   1.758   1.977  1.6263 -0.5856  0.4634
    3CHTO  C119  901   6.347   1.669   2.137 -0.3844  0.1762 -0.0042
    3CHTO  H223  902   6.367   1.623   2.234  1.3302  1.9382  0.5052
    3CHTO  C117  903   6.490   1.737   2.106 -0.3861 -0.1224 -0.3132
    3CHTO  H221  904   6.507   1.797   2.017  2.1429 -0.4978 -0.1511
    3CHTO   N20  905   6.605   1.632   2.098  0.1414 -0.0635 -0.2564
    3CHTO  H209  906   6.693   1.690   2.075 -1.0118  1.5342 -0.7527
    3CHTO  H210  907   6.577   1.554   2.029 -0.3014 -1.5648  1.5844
    3CHTO   O80  908   6.310   1.545   2.044 -0.4147  0.5127  0.6456
    3CHTO  C103  909   6.211   1.460   2.082 -0.0897  0.2430 -0.1427
    3CHTO  H190  910   6.189   1.480   2.188  0.0998  1.3432 -0.2991
    3CHTO  C101  911   6.078   1.473   2.005 -0.5560  0.4747 -0.6465
    3CHTO  H188  912   6.100   1.474   1.898 -0.1485  1.4152 -0.5573
    3CHTO   O68  913   5.989   1.612   2.047 -0.2172  0.2024  0.5407
    3CHTO  H168  914   6.013   1.695   2.008  0.1703  0.1264  0.6106
    3CHTO   C99  915   5.995   1.342   2.037 -0.8875  0.5452  0.0023
    3CHTO  H186  916   5.964   1.355   2.143 -2.2528 -2.3864 -0.0029
    3CHTO   N17  917   5.863   1.326   1.956 -0.1394 -0.1418 -0.8396
    3CHTO  H174  918   5.858   1.401   1.879  0.4916  2.5802  1.6864
    3CHTO  H175  919   5.777   1.331   2.021 -0.3544  2.1131 -1.2655
    3CHTO   C97  920   6.066   1.207   2.039 -0.1007 -0.2644  0.8024
    3CHTO  H184  921   6.091   1.186   1.934 -2.3088 -1.8031  0.5498
    3CHTO   O64  922   6.186   1.230   2.121  0.3433 -0.5500 -0.5569
    3CHTO  C104  923   6.277   1.319   2.071 -0.6141 -0.0250 -0.2272
    3CHTO  H191  924   6.304   1.302   1.966 -0.0714 -0.2815 -0.0530
    3CHTO  C108  925   6.411   1.311   2.153  0.3225 -0.2503  0.5355
    3CHTO   O71  926   6.457   1.172   2.154  0.4682  0.3142 -0.8102
    3CHTO  H171  927   6.532   1.166   2.210 -0.3992 -0.3732  0.2934
    3CHTO   O62  928   5.995   1.098   2.107 -0.2253  0.2076  0.4934
    3CHTO   C91  929   6.032   0.964   2.068  0.8561  0.1212  0.1095
    3CHTO  H178  930   6.035   0.961   1.959 -1.2888 -0.4060  0.0538
    3CHTO   C92  931   5.910   0.887   2.108 -0.5267 -0.0802 -0.2334
    3CHTO  H179  932   5.883   0.912   2.211 -0.4478  0.3704 -0.3192
    3CHTO   O66  933   5.805   0.939   2.026  0.0890  0.7122  0.3338
    3CHTO  H166  934   5.744   0.986   2.081  0.2081  0.0084  1.0829
    3CHTO   C93  935   5.929   0.731   2.077 -0.9649  0.9954  0.3536
    3CHTO  H180  936   5.935   0.713   1.969  0.4904 -0.8897  0.7115
    3CHTO   N16  937   5.814   0.655   2.125  0.1444  0.1844 -0.4056
    3CHTO  H172  938   5.822   0.664   2.233 -0.2616 -0.9030 -0.2847
    3CHTO  H173  939   5.728   0.714   2.099  0.2372  0.8835  0.7968
    3CHTO   C94  940   6.057   0.672   2.142 -0.8557  0.2760 -0.2887
    3CHTO  H181  941   6.032   0.605   2.224 -3.1355 -0.2662 -1.3683
    3CHTO   O61  942   6.141   0.770   2.199  0.5023 -0.7546  0.4880
    3CHTO   C95  943   6.155   0.902   2.145 -0.1979  0.8620  0.0554
    3CHTO  H182  944   6.189   0.968   2.224  1.0519 -0.6138  0.7647
    3CHTO  C106  945   6.276   0.895   2.042  0.2600  0.0163  0.0491
    3CHTO   O69  946   6.398   0.861   2.113  0.0115 -0.2320 -0.4392
    3CHTO  H169  947   6.398   0.771   2.139  1.2097  0.0487  0.6009
    3CHTO   O63  948   6.135   0.571   2.027 -0.7269 -0.1954  0.0205
    3CHTO   C96  949   6.134   0.421   2.062  0.2989  0.1918 -0.6472
    3CHTO  H183  950   6.212   0.379   1.998  0.8427  1.2889 -0.7287
    3CHTO   C98  951   5.994   0.347   2.033 -0.1367 -0.6417  0.3082
    3CHTO  H185  952   5.909   0.399   2.080 -0.9055 -1.4291 -0.2017
    3CHTO   O67  953   5.966   0.346   1.891 -0.1960  0.4886 -0.0061
    3CHTO  H167  954   5.909   0.418   1.873 -1.1871 -0.2627  0.0789
    3CHTO  C102  955   5.974   0.196   2.095 -0.4652  0.8115  0.3507
    3CHTO  H189  956   6.033   0.129   2.031  0.0676  2.3284 -0.7693
    3CHTO   N18  957   5.837   0.132   2.099  0.2565 -0.5197 -0.4875
    3CHTO  H176  958   5.819   0.044   2.159 -0.8585  0.2683  0.3574
    3CHTO  H177  959   5.808   0.126   1.995  1.9841  0.8563 -1.0595
    3CHTO  C105  960   6.049   0.191   2.237  0.4341 -0.1272  0.2016
    3CHTO  H192  961   5.987   0.240   2.312 -0.3850 -2.3291  1.0225
    3CHTO   O65  962   6.180   0.249   2.239  0.2815 -0.0461  0.0791
    3CHTO  C100  963   6.184   0.387   2.214  0.6513 -0.6216  0.6196
    3CHTO  H187  964   6.121   0.440   2.287 -0.3343 -1.9277  0.7274
    3CHTO  C107  965   6.331   0.419   2.249 -0.1341 -0.6110 -0.1417
    3CHTO   O70  966   6.366   0.548   2.200 -0.0807 -0.5239 -0.5305
    3CHTO  H170  967   6.449   0.568   2.237 -0.7255 -0.8801  1.1652
    3CHTO   O57  968   6.079   0.035   2.277  0.2285 -0.4342 -0.1395
    3CHTO   C85  969   6.039  -0.051   2.379  0.0436 -0.3111 -0.0883
    3CHTO  H157  970   6.102  -0.138   2.351 -1.8181 -1.9234  0.5560
    3CHTO   C83  971   5.888  -0.088   2.371 -0.0885 -0.0087 -0.0025
    3CHTO  H155  972   5.861  -0.115   2.269 -1.0021  2.9553 -0.5927
    3CHTO   O56  973   5.816   0.036   2.396  0.4442 -0.1142  0.0684
    3CHTO  H135  974   5.816   0.095   2.324  3.9353 -0.0635  0.0335
    3CHTO   C81  975   5.843  -0.203   2.467  0.5835 -0.4014  0.1439
    3CHTO  H153  976   5.887  -0.296   2.432  0.2302 -0.4556 -0.1504
    3CHTO   N14  977   5.696  -0.227   2.458  0.1258 -0.0001 -0.4341
    3CHTO  H141  978   5.656  -0.217   2.557 -0.4040  1.7537 -0.7937
    3CHTO  H142  979   5.685  -0.324   2.414  0.8153  0.5595 -1.8640
    3CHTO   C79  980   5.893  -0.165   2.612  0.3787  0.1186  0.7147
    3CHTO  H151  981   5.887  -0.254   2.674  0.1341 -1.0812 -0.9995
    3CHTO   O52  982   6.026  -0.113   2.618  0.6604 -0.4829 -0.3101
    3CHTO   C86  983   6.067  -0.009   2.526 -0.1509 -0.5985  0.3162
    3CHTO  H158  984   6.005   0.078   2.556  0.3607 -1.0132  2.6756
    3CHTO   C90  985   6.207   0.027   2.566 -1.3851  0.5067  0.0008
    3CHTO   O60  986   6.284   0.113   2.484 -0.1163  0.4732  0.1219
    3CHTO  H138  987   6.295   0.086   2.395  0.5633  1.3860 -0.0887
    3CHTO   O50  988   5.816  -0.065   2.682 -0.3098  0.0916  0.0118
    3CHTO   C73  989   5.764  -0.048   2.815  0.0399 -0.4470 -0.4182
    3CHTO  H145  990   5.829  -0.104   2.885 -2.0132 -1.8749  0.4136
    3CHTO   C74  991   5.619  -0.100   2.820  0.1247  0.0274  0.0673
    3CHTO  H146  992   5.639  -0.203   2.791  0.0212  0.3095 -1.0098
    3CHTO   O54  993   5.577  -0.094   2.961  0.5276 -0.2590 -0.6034
    3CHTO  H133  994   5.645  -0.119   3.020  1.5429  0.5513 -1.4234
    3CHTO   C75  995   5.538  -0.025   2.711  0.1835  0.3625 -1.0865
    3CHTO  H147  996   5.583  -0.056   2.615  3.4545 -3.3940  1.4968
    3CHTO   N13  997   5.391  -0.052   2.721  0.5892 -0.2185 -0.5403
    3CHTO  H139  998   5.355  -0.120   2.644 -2.5218 -0.3441  0.9448
    3CHTO  H140  999   5.324   0.031   2.737  0.1591 -1.1731  2.9062
    3CHTO   C76 1000   5.558   0.136   2.724  0.3664  0.3571  0.9658
    3CHTO  H148 1001   5.506   0.176   2.811  0.1932  0.3022  0.8895
    3CHTO   O49 1002   5.700   0.176   2.743 -0.2283  0.5105 -0.3966
    3CHTO   C77 1003   5.775   0.104   2.845 -0.4220  0.4463  0.3827
    3CHTO  H149 1004   5.732   0.124   2.943 -2.3874  2.1130 -0.7797
    3CHTO   C88 1005   5.915   0.171   2.846 -0.7554  0.4533 -0.1932
    3CHTO   O58 1006   5.932   0.262   2.935  0.1017 -0.2387 -0.5181
    3CHTO  H136 1007   5.913   0.348   2.904  0.8921 -0.4776 -1.7342
    3CHTO   O51 1008   5.501   0.204   2.597 -0.5343  0.3787 -0.4245
    3CHTO   C78 1009   5.473   0.346   2.609  0.1965  0.1612 -0.6488
    3CHTO  H150 1010   5.515   0.394   2.700  0.7624 -1.8755  0.1989
    3CHTO   C80 1011   5.323   0.366   2.608  0.1014  0.4133 -0.1793
    3CHTO  H152 1012   5.283   0.299   2.529  1.5532 -0.5609 -0.1264
    3CHTO   O55 1013   5.283   0.310   2.727  0.0038  0.4883  0.2864
    3CHTO  H134 1014   5.190   0.297   2.732  0.0486 -0.9849 -1.9078
    3CHTO   C84 1015   5.268   0.511   2.592 -0.2972  0.1279 -0.5561
    3CHTO  H156 1016   5.290   0.567   2.683 -2.6972 -0.3566  0.3668
    3CHTO   N15 1017   5.118   0.520   2.580 -0.2685  0.1935  0.5800
    3CHTO  H143 1018   5.096   0.449   2.503 -3.2497 -0.2251  1.7510
    3CHTO  H144 1019   5.050   0.507   2.662 -1.9418  0.5404 -0.7254
    3CHTO   C87 1020   5.337   0.589   2.478 -0.6073 -0.0362  0.7663
    3CHTO  H159 1021   5.311   0.552   2.379  2.1765  0.3473 -0.1622
    3CHTO   O53 1022   5.496   0.567   2.492 -0.3039  0.2709 -0.2450
    3CHTO   C82 1023   5.539   0.423   2.489 -0.2692  0.4288 -1.0946
    3CHTO  H154 1024   5.513   0.387   2.390 -1.4091  0.7655 -0.9167
    3CHTO   C89 1025   5.692   0.419   2.499 -0.0913  0.3210 -0.0602
    3CHTO   O59 1026   5.748   0.417   2.367 -0.4968  0.3988 -0.4934
    3CHTO  H137 1027   5.823   0.362   2.359 -0.3044  0.3825  1.1259
    3CHTO   O45 1028   5.310   0.754   2.486 -0.0060  0.0099 -0.3526
    3CHTO   C67 1029   5.420   0.844   2.483 -0.1648 -0.7379 -0.3301
    3CHTO  H124 1030   5.504   0.783   2.517  1.6162  0.3065 -2.6567
    3CHTO   C65 1031   5.454   0.887   2.338 -0.2442  0.0751 -0.8951
    3CHTO  H122 1032   5.356   0.871   2.294 -1.0486 -0.0761  0.9319
    3CHTO   O44 1033   5.541   0.786   2.282 -0.3688  0.1036  0.8455
    3CHTO  H102 1034   5.628   0.819   2.279 -0.4740  0.5973  2.4943
    3CHTO   C63 1035   5.491   1.038   2.322 -0.0169  0.2239  0.2321
    3CHTO  H120 1036   5.406   1.101   2.348  0.3650  0.9228 -0.2045
    3CHTO   N11 1037   5.528   1.088   2.184  0.2138 -0.3360  0.6125
    3CHTO  H108 1038   5.479   1.045   2.100  0.3520  1.3933 -0.3693
    3CHTO  H109 1039   5.521   1.195   2.183 -2.3094 -0.4893 -0.5526
    3CHTO   C61 1040   5.594   1.068   2.432  0.9426  0.1517 -0.3290
    3CHTO  H118 1041   5.623   1.174   2.426 -2.2861  1.0431 -1.4196
    3CHTO   O40 1042   5.534   1.048   2.569 -0.3981 -0.0185 -0.0653
    3CHTO   C68 1043   5.413   0.971   2.579 -0.6946  0.0817  0.7535
    3CHTO  H125 1044   5.337   1.049   2.559  0.5524  0.7268 -1.7501
    3CHTO   C72 1045   5.392   0.929   2.728  1.1773  0.5596  0.1265
    3CHTO   O48 1046   5.292   1.006   2.789  0.4357  0.6506 -0.3749
    3CHTO  H105 1047   5.319   1.024   2.877 -1.8112 -0.5671  0.6123
    3CHTO   O38 1048   5.709   0.977   2.421 -0.0641 -0.2759  0.1023
    3CHTO   C55 1049   5.819   0.998   2.517 -0.1943 -0.1747 -0.4947
    3CHTO  H112 1050   5.767   1.036   2.605 -0.9694  0.2641 -1.1411
    3CHTO   C56 1051   5.928   1.093   2.475  0.1567  0.0125 -0.5437
    3CHTO  H113 1052   5.953   1.058   2.373  0.5563 -1.3216 -0.0038
    3CHTO   O42 1053   5.886   1.233   2.459 -0.4187  0.4732  0.4565
    3CHTO  H100 1054   5.820   1.269   2.516  0.4737  1.0775  1.1075
    3CHTO   C57 1055   6.068   1.087   2.549 -0.5739  0.9875  0.5357
    3CHTO  H114 1056   6.051   1.139   2.643  0.5781  0.3840  1.0882
    3CHTO   N10 1057   6.184   1.151   2.477 -0.5570  0.2315 -0.6984
    3CHTO  H106 1058   6.256   1.201   2.540 -0.3635  1.3634 -1.7944
    3CHTO  H107 1059   6.234   1.080   2.413  1.1440  1.6439 -0.9696
    3CHTO   C58 1060   6.108   0.939   2.581 -0.0739  1.1081 -0.0946
    3CHTO  H115 1061   6.131   0.892   2.483  1.3760  1.5560  0.0182
    3CHTO   O37 1062   5.999   0.878   2.642  0.6630 -0.0694  0.2324
    3CHTO   C59 1063   5.881   0.859   2.565 -0.8687  0.2140 -0.1089
    3CHTO  H116 1064   5.906   0.800   2.477  1.5648  1.6193 -0.4075
    3CHTO   C70 1065   5.793   0.771   2.653 -0.2789 -0.0323 -0.1295
    3CHTO   O46 1066   5.834   0.634   2.683  0.0286 -0.1669  0.0830
    3CHTO  H103 1067   5.850   0.584   2.605 -1.4477 -1.1600  0.4044
    3CHTO   O39 1068   6.234   0.924   2.684  0.5845  0.6317 -0.6492
    3CHTO   C60 1069   6.308   0.794   2.678  0.2170 -0.3486  0.6694
    3CHTO  H117 1070   6.353   0.778   2.776 -0.1160 -0.2178  0.8423
    3CHTO   C62 1071   6.219   0.671   2.684 -0.0015 -0.2263 -0.0883
    3CHTO  H119 1072   6.147   0.707   2.761  1.4600 -3.7336  3.0546
    3CHTO   O43 1073   6.151   0.649   2.562  0.6048 -0.2857 -0.2015
    3CHTO  H101 1074   6.070   0.602   2.569  0.3509 -0.1836 -2.2086
    3CHTO   C66 1075   6.307   0.553   2.739  0.5972  0.2520  0.5126
    3CHTO  H123 1076   6.352   0.587   2.832  0.2040 -1.1372  1.2102
    3CHTO   N12 1077   6.220   0.437   2.779  0.1183  0.0257 -0.5547
    3CHTO  H110 1078   6.148   0.450   2.858  0.9138 -1.7960  0.5139
    3CHTO  H111 1079   6.173   0.385   2.698  0.9840  0.1935 -1.1720
    3CHTO   C69 1080   6.411   0.527   2.633  0.2602  0.4965  1.3051
    3CHTO  H126 1081   6.361   0.486   2.543 -0.0712  0.0957  1.6660
    3CHTO   O41 1082   6.500   0.658   2.585  0.6767  0.0627 -0.2339
    3CHTO   C64 1083   6.421   0.783   2.573 -0.1315  0.3011  0.0244
    3CHTO  H121 1084   6.362   0.789   2.478  1.8399  1.6858 -1.1608
    3CHTO   C71 1085   6.520   0.899   2.566  0.0492 -0.5315 -0.2745
    3CHTO   O47 1086   6.559   0.917   2.430 -0.2336 -0.2806 -0.0041
    3CHTO  H104 1087   6.572   1.007   2.406  1.8119 -0.8323 -1.0481
    3CHTO   O34 1088   6.525   0.415   2.686  0.9314 -0.0774 -0.4848
    3CHTO   C49 1089   6.624   0.296   2.728 -0.1513 -0.3448  0.6541
    3CHTO   H91 1090   6.621   0.219   2.651 -0.3241  1.4239 -1.1197
    3CHTO   C47 1091   6.573   0.229   2.855 -0.0675  0.0826  0.1160
    3CHTO   H89 1092   6.488   0.167   2.821 -3.7147  3.7228  2.1875
    3CHTO   O33 1093   6.527   0.315   2.958 -0.3986 -0.0626  0.4310
    3CHTO   H70 1094   6.476   0.377   2.908 -0.4220 -1.0565 -0.8119
    3CHTO   C45 1095   6.688   0.118   2.922 -0.6285 -0.5517  0.0222
    3CHTO   H87 1096   6.745   0.160   3.006 -1.8835 -0.6705  0.9321
    3CHTO    N8 1097   6.626  -0.009   2.960 -0.1072 -0.2464  0.0932
    3CHTO   H75 1098   6.541  -0.035   2.899  1.8893 -1.2382 -2.3084
    3CHTO   H76 1099   6.594   0.014   3.061 -0.4158 -1.4788  0.2849
    3CHTO   C43 1100   6.805   0.097   2.814  0.5350  1.4203 -0.0919
    3CHTO   H85 1101   6.875   0.029   2.862  0.6516  1.0137 -0.8303
    3CHTO   O29 1102   6.864   0.224   2.779  0.8389  0.3059 -0.3694
    3CHTO   C50 1103   6.772   0.332   2.749 -0.2000  0.1545 -0.3437
    3CHTO   H92 1104   6.773   0.397   2.837 -0.2723 -0.5707  0.2021
    3CHTO   C54 1105   6.833   0.420   2.632 -0.0676 -0.5624  0.3683
    3CHTO   O36 1106   6.891   0.543   2.674  0.2267 -0.3872 -0.0362
    3CHTO   H72 1107   6.984   0.553   2.668  0.2839 -1.6954 -1.6892
    3CHTO   O27 1108   6.758   0.022   2.696 -0.1761 -0.4397  0.1261
    3CHTO   C37 1109   6.783  -0.044   2.572  0.0250  0.6699 -0.2979
    3CHTO   H79 1110   6.863  -0.116   2.595 -1.3159 -0.7530  0.0014
    3CHTO   C38 1111   6.650  -0.106   2.520  0.6421 -0.2378 -0.4433
    3CHTO   H80 1112   6.570  -0.034   2.543 -0.4466 -0.2081 -4.0161
    3CHTO   O31 1113   6.619  -0.235   2.586  0.1590  0.4628 -0.2189
    3CHTO   H68 1114   6.687  -0.300   2.588  2.4125  2.6992 -1.1823
    3CHTO   C39 1115   6.637  -0.117   2.369  0.5060  0.5662  0.7604
    3CHTO   H81 1116   6.687  -0.208   2.337 -1.3778  0.0911 -0.9542
    3CHTO    N7 1117   6.492  -0.147   2.330 -0.8525 -0.2306 -0.0640
    3CHTO   H73 1118   6.435  -0.151   2.422  1.3764 -0.0844  1.3565
    3CHTO   H74 1119   6.438  -0.064   2.286 -2.1755 -0.7069  0.6246
    3CHTO   C40 1120   6.701   0.005   2.292  0.0638 -0.1391  0.1827
    3CHTO   H82 1121   6.651   0.099   2.311  2.0577  0.9577  0.1373
    3CHTO   O26 1122   6.836   0.007   2.339  0.6134 -0.2002 -0.3092
    3CHTO   C41 1123   6.838   0.057   2.480 -0.4857 -0.1962 -0.4851
    3CHTO   H83 1124   6.801   0.161   2.488  0.4483  0.1248 -0.2526
    3CHTO   C52 1125   6.987   0.064   2.515  0.1224 -0.2635  0.1636
    3CHTO   O35 1126   7.064   0.172   2.449 -0.8447 -0.4401  0.5545
    3CHTO   H71 1127   7.156   0.152   2.442 -0.5219  0.9986  0.5047
    3CHTO   O28 1128   6.711  -0.015   2.146 -0.6775  0.4489  0.6445
    3CHTO   C42 1129   6.722   0.101   2.051  0.4409 -0.1478  0.0471
    3CHTO   H84 1130   6.752   0.054   1.957  0.3619  0.4119 -0.2603
    3CHTO   C44 1131   6.846   0.198   2.081  0.3622 -0.6305  0.1603
    3CHTO   H86 1132   6.829   0.250   2.175  0.5720  0.3937 -0.3586
    3CHTO   O32 1133   6.958   0.108   2.087 -0.4190  0.1634 -0.6215
    3CHTO   H69 1134   6.941   0.048   2.158  1.7728  0.0429 -0.1770
    3CHTO   C48 1135   6.869   0.309   1.973 -0.1745 -0.4647 -0.9170
    3CHTO   H90 1136   6.898   0.249   1.886  0.1866 -0.4426 -0.8129
    3CHTO    N9 1137   6.978   0.403   2.015 -0.6686  0.2541 -0.0360
    3CHTO   H77 1138   7.064   0.405   1.949  1.4095  0.6981  2.6123
    3CHTO   H78 1139   6.936   0.501   2.029 -2.6730 -0.9102  2.4962
    3CHTO   C51 1140   6.741   0.385   1.940 -0.4737 -0.7803  0.4192
    3CHTO   H93 1141   6.725   0.450   2.026 -2.4542 -0.2890 -0.2902
    3CHTO   O30 1142   6.627   0.300   1.916  0.1287  0.6357 -0.1411
    3CHTO   C46 1143   6.604   0.192   2.019  0.6023  0.0260 -0.4091
    3CHTO   H88 1144   6.566   0.234   2.112  0.3352 -1.6118  0.2298
    3CHTO   C53 1145   6.488   0.116   1.941  1.2757 -0.0014 -0.0225
    3CHTO   O72 1146   6.424   0.021   2.022 -0.0993  0.2640 -0.1982
    3CHTO  H199 1147   6.350  -0.018   1.979  1.3016 -1.7736 -0.8735
    3CHTO   O22 1148   6.766   0.461   1.818  0.3335  0.2499  0.1150
    3CHTO   C31 1149   6.750   0.599   1.804 -0.0686 -0.1497  0.9246
    3CHTO   H59 1150   6.767   0.640   1.906 -0.5928 -2.1698  1.8473
    3CHTO   C29 1151   6.853   0.668   1.710 -0.2505 -0.7608 -0.5230
    3CHTO   H57 1152   6.839   0.617   1.613 -2.7159 -0.2000 -0.4918
    3CHTO   O21 1153   6.984   0.645   1.762 -0.0429 -0.2385 -0.0722
    3CHTO   H37 1154   6.985   0.687   1.846 -0.2592 -2.2510  0.9888
    3CHTO   C27 1155   6.832   0.823   1.689 -0.4027  0.2626  0.0205
    3CHTO   H55 1156   6.852   0.867   1.787 -0.5323 -0.6582  0.4713
    3CHTO    N5 1157   6.927   0.881   1.590 -0.0096  0.2590  0.2471
    3CHTO   H43 1158   6.905   0.983   1.561 -0.6168  0.2164  0.5455
    3CHTO   H44 1159   7.028   0.876   1.629 -0.3645 -1.2010  1.0144
    3CHTO   C25 1160   6.683   0.849   1.647 -0.6669 -0.2358 -0.5979
    3CHTO   H53 1161   6.670   0.825   1.541  0.8414 -0.8487 -0.6553
    3CHTO   O17 1162   6.598   0.779   1.740 -0.7776 -0.2915 -0.4578
    3CHTO   C32 1163   6.604   0.636   1.761  0.0283  0.5691 -0.9252
    3CHTO   H60 1164   6.562   0.578   1.678 -0.2933  0.8487 -0.9610
    3CHTO   C36 1165   6.509   0.623   1.890  0.0851 -0.2839 -0.4324
    3CHTO   O25 1166   6.381   0.656   1.860 -0.0738  0.4980 -0.3362
    3CHTO   H40 1167   6.341   0.696   1.935  0.2774  1.9404 -0.8836
    3CHTO   O15 1168   6.655   1.013   1.651 -0.6281  0.5711  0.4308
    3CHTO   C19 1169   6.535   1.051   1.577  0.0714 -0.6889  0.5807
    3CHTO   H47 1170   6.498   0.960   1.527 -0.3993 -0.5428  0.6578
    3CHTO   C20 1171   6.423   1.095   1.670  0.3301 -0.1285  0.3540
    3CHTO   H48 1172   6.451   1.186   1.726  1.7941  0.1279 -0.7400
    3CHTO   O19 1173   6.403   0.986   1.757  0.4148  0.1646  0.2653
    3CHTO   H35 1174   6.485   0.973   1.801  0.5339  2.6780  0.8501
    3CHTO   C21 1175   6.282   1.126   1.600 -0.4235  0.2011 -0.2227
    3CHTO   H49 1176   6.247   1.031   1.559 -0.7831  0.2757 -0.0921
    3CHTO    N4 1177   6.179   1.177   1.694 -0.2495 -0.2062 -0.5062
    3CHTO   H41 1178   6.198   1.187   1.800  1.2895  3.8216 -1.0990
    3CHTO   H42 1179   6.085   1.126   1.677 -0.2124 -0.3136 -0.3894
    3CHTO   C22 1180   6.319   1.216   1.475 -0.1600  0.3744 -0.2146
    3CHTO   H50 1181   6.344   1.317   1.506  1.4607  1.2761 -4.1945
    3CHTO   O14 1182   6.432   1.172   1.398  0.2262  0.0999 -0.0629
    3CHTO   C23 1183   6.554   1.154   1.471  0.2378 -0.1341  0.6905
    3CHTO   H51 1184   6.577   1.254   1.509  1.4217  0.1121 -0.6358
    3CHTO   C34 1185   6.668   1.121   1.375 -0.3876 -0.1722  0.4074
    3CHTO   O23 1186   6.647   1.025   1.271 -0.0766  0.8061 -0.4834
    3CHTO   H38 1187   6.584   1.061   1.212 -1.3532  2.3320  1.7395
    3CHTO   O16 1188   6.209   1.223   1.385 -0.3719 -0.6737 -0.1458
    3CHTO   C24 1189   6.148   1.376   1.377 -0.8668 -0.0666  0.3542
    3CHTO   H52 1190   6.180   1.442   1.457  1.7316  1.4864 -1.8760
    3CHTO   C26 1191   5.994   1.385   1.384 -0.1360  0.1842 -0.4438
    3CHTO   H54 1192   5.958   1.300   1.323  1.8677 -1.0623  0.0643
    3CHTO   O20 1193   5.959   1.351   1.521 -0.1559  0.5005 -0.3084
    3CHTO   H36 1194   5.915   1.423   1.562  0.0415  0.3204  0.2315
    3CHTO   C30 1195   5.931   1.514   1.342 -0.3445 -0.0716 -0.6979
    3CHTO   H58 1196   5.931   1.588   1.424  0.4251  0.0152 -0.7677
    3CHTO    N6 1197   5.789   1.484   1.316 -0.8047 -0.3365  0.3683
    3CHTO   H45 1198   5.779   1.421   1.229  1.6069  2.4283 -2.0034
    3CHTO   H46 1199   5.715   1.562   1.309 -2.0063 -1.5878 -1.4333
    3CHTO   C33 1200   6.009   1.566   1.217  0.3562  0.4092  0.6344
    3CHTO   H61 1201   5.984   1.497   1.135  0.6148 -0.5689  1.3622
    3CHTO   O18 1202   6.153   1.566   1.231  0.0060 -0.2574 -0.3064
    3CHTO   C28 1203   6.209   1.436   1.251  0.5728 -0.0158  0.0545
    3CHTO   H56 1204   6.176   1.374   1.168 -2.0862  0.8803  0.3909
    3CHTO   C35 1205   6.362   1.455   1.246  0.5316  0.1973 -0.7366
    3CHTO   O24 1206   6.406   1.533   1.138 -0.0669 -0.1837  0.4702
    3CHTO   H39 1207   6.396   1.478   1.063 -0.1997 -0.5151  0.7259
    3CHTO    O9 1208   5.956   1.699   1.182  0.3468 -0.2977  0.0038
    3CHTO   C13 1209   6.042   1.828   1.262 -0.5830 -0.4437 -0.2449
    3CHTO   H26 1210   6.062   1.796   1.366  1.0717 -0.0470 -0.4203
    3CHTO   C11 1211   5.953   1.959   1.257  0.5118 -0.5094  0.3804
    3CHTO   H24 1212   5.868   1.937   1.323  0.2234  1.4446  0.6965
    3CHTO    O8 1213   5.904   1.977   1.128 -0.5381  0.2649 -0.8515
    3CHTO    H3 1214   5.975   1.972   1.066 -0.3929  0.3965 -0.6949
    3CHTO    C9 1215   6.031   2.075   1.319  0.2923  0.4003 -0.6472
    3CHTO   H22 1216   6.063   2.040   1.418  1.6625 -0.2595 -1.3141
    3CHTO    N2 1217   5.955   2.198   1.346 -0.0440 -0.0131 -0.0105
    3CHTO   H10 1218   5.996   2.284   1.295 -1.1286  0.0628 -0.7914
    3CHTO   H11 1219   5.922   2.217   1.447 -1.6325 -0.8827 -0.3399
    3CHTO    C7 1220   6.160   2.102   1.232 -0.5360  0.3920  0.2459
    3CHTO   H20 1221   6.217   2.171   1.297  3.2347 -1.3772 -1.0578
    3CHTO    O4 1222   6.239   1.984   1.217  0.1447 -0.6349  0.2490
    3CHTO   C14 1223   6.179   1.854   1.184 -0.3352 -0.4000 -0.2021
    3CHTO   H27 1224   6.245   1.772   1.221 -0.3167  1.0619  3.1788
    3CHTO   C18 1225   6.161   1.831   1.030  0.3049  0.0415  0.1091
    3CHTO   O13 1226   6.280   1.833   0.958 -0.1103 -0.2980  0.4264
    3CHTO    H7 1227   6.321   1.917   0.961 -0.4914 -0.0996  0.0972
    3CHTO    O2 1228   6.119   2.164   1.073 -0.0519 -0.0722 -0.4090
    3CHTO    C1 1229   6.206   2.272   1.028  0.3694  0.0052  0.4574
    3CHTO   H14 1230   6.158   2.313   0.937  0.0042  0.6588  0.9425
    3CHTO    C2 1231   6.348   2.230   0.998 -0.0727  0.0764 -0.1709
    3CHTO   H15 1232   6.392   2.198   1.094 -1.0879  0.7222  0.5148
    3CHTO    O6 1233   6.344   2.125   0.900  0.2984  0.3050  0.4602
    3CHTO    H1 1234   6.411   2.133   0.834 -0.2620  0.0508 -0.1378
    3CHTO    C3 1235   6.450   2.351   0.970  0.0011  0.1000  0.9031
    3CHTO   H16 1236   6.421   2.393   0.872 -3.0117 -1.9918  0.8427
    3CHTO    N1 1237   6.589   2.312   0.953  0.6424  0.1962 -0.0976
    3CHTO    H8 1238   6.653   2.346   1.034  1.1847 -1.1393  0.0523
    3CHTO    H9 1239   6.627   2.351   0.860 -0.7730  1.7384 -0.0530
    3CHTO    C4 1240   6.425   2.470   1.068  0.5145 -0.4280  0.0385
    3CHTO   H17 1241   6.441   2.437   1.171 -3.1032 -0.9972  0.4962
    3CHTO    O1 1242   6.284   2.502   1.056  0.4799  0.1662 -0.6036
    3CHTO    C5 1243   6.202   2.402   1.116 -0.4438  0.2067  0.6323
    3CHTO   H18 1244   6.236   2.368   1.214  0.2200 -2.0630 -0.3407
    3CHTO   C16 1245   6.055   2.459   1.117 -0.0921 -1.0207 -0.0289
    3CHTO   O11 1246   6.039   2.581   1.188  0.3718 -0.1228  0.8572
    3CHTO    H5 1247   6.044   2.560   1.279 -0.3642 -2.0947  0.4689
    3CHTO    O3 1248   6.496   2.593   1.032  0.5577 -0.2337  0.2854
    3CHTO    C6 1249   6.520   2.695   1.122 -0.3703  0.6330 -0.6835
    3CHTO   H19 1250   6.427   2.718   1.176  0.2856  1.4360  0.1255
    3CHTO    C8 1251   6.636   2.654   1.223 -0.3566 -0.2466  0.2777
    3CHTO   H21 1252   6.724   2.630   1.163 -0.1888  2.8459 -0.8362
    3CHTO    O7 1253   6.595   2.545   1.309 -0.3105  0.0425 -0.6605
    3CHTO    H2 1254   6.601   2.463   1.264  0.8671 -0.0093 -0.4342
    3CHTO   C12 1255   6.669   2.784   1.305 -0.0465 -0.0891  0.1550
    3CHTO   H25 1256   6.584   2.802   1.375 -1.8737  0.3898 -2.1534
    3CHTO    N3 1257   6.787   2.767   1.395  0.3523  0.0661  0.4140
    3CHTO   H12 1258   6.777   2.814   1.491 -0.3607 -1.2881  1.0158
    3CHTO   H13 1259   6.880   2.781   1.341 -0.8327 -0.3944 -1.8101
    3CHTO   C15 1260   6.688   2.906   1.211 -0.6466  0.0509 -0.0647
    3CHTO   H28 1261   6.780   2.906   1.153 -0.0130  2.1725  0.8837
    3CHTO   O10 1262   6.691   3.043   1.292 -0.4083 -0.2166  0.3743
    3CHTO    H4 1263   6.779   3.062   1.319 -0.1117  2.1171 -2.0097
    3CHTO    O5 1264   6.571   2.928   1.128  0.2200 -0.7042 -0.2449
    3CHTO   C10 1265   6.560   2.825   1.039  0.0561 -0.4154  0.6619
    3CHTO   H23 1266   6.643   2.807   0.971 -0.9399  1.1912 -0.9954
    3CHTO   C17 1267   6.449   2.879   0.949 -0.3371 -0.4360  0.1398
    3CHTO   O12 1268   6.380   2.788   0.857 -0.4951 -0.3492  0.6896
    3CHTO    H6 1269   6.338   2.721   0.907  0.7892 -3.2994 -2.0717
    4CHTO  H203 1270   5.587   7.263   0.188 -2.0083  2.1403  0.3104
    4CHTO   O82 1271   5.633   7.289   0.266  0.1269 -0.1459 -0.1276
    4CHTO  C123 1272   5.714   7.409   0.257  0.0101 -0.5454 -0.1158
    4CHTO  H227 1273   5.650   7.496   0.278  0.8400  0.5310 -1.9013
    4CHTO   O77 1274   5.822   7.389   0.350 -0.0071  0.0101 -0.0642
    4CHTO  C118 1275   5.892   7.518   0.364  0.1007  0.6427  0.0521
    4CHTO  H222 1276   5.815   7.584   0.406  1.4816  2.3845 -0.1024
    4CHTO  C125 1277   6.009   7.494   0.471 -0.0180  0.5633  0.0044
    4CHTO   O84 1278   6.107   7.407   0.413  0.1788  0.1454  0.1164
    4CHTO  H205 1279   6.187   7.454   0.395  1.2180 -1.7766 -0.4501
    4CHTO  C114 1280   5.946   7.569   0.228  0.2369  0.2408  0.0543
    4CHTO  H218 1281   6.029   7.504   0.200 -0.0379  1.2212 -3.3608
    4CHTO  C116 1282   5.845   7.568   0.103 -0.1004 -0.0758 -0.5876
    4CHTO  H220 1283   5.782   7.659   0.105  0.5195  0.3229  1.3314
    4CHTO   O79 1284   5.927   7.567  -0.013  0.2747  0.2843  0.1080
    4CHTO  H201 1285   5.974   7.648  -0.014  0.0526  0.4056 -0.7577
    4CHTO  C120 1286   5.769   7.435   0.112 -0.1065  0.1074  0.3050
    4CHTO  H224 1287   5.836   7.348   0.094  0.9497  0.5496  1.9302
    4CHTO   N21 1288   5.661   7.442   0.013  0.0036  0.0720  0.3490
    4CHTO  H211 1289   5.576   7.495   0.054 -0.4709 -1.5646  1.5017
    4CHTO  H212 1290   5.700   7.483  -0.079  0.1244  1.9113  1.1955
    4CHTO   O75 1291   5.997   7.700   0.259 -0.0800  0.0448  0.0695
    4CHTO  C112 1292   6.091   7.777   0.140  0.3302 -0.0772 -0.2233
    4CHTO  H216 1293   6.072   7.731   0.042 -1.2746  2.4502 -1.1370
    4CHTO   O73 1294   6.229   7.767   0.179 -0.5538  0.6215  0.1048
    4CHTO  C113 1295   6.316   7.843   0.100  0.4227 -0.8403  0.5617
    4CHTO  H217 1296   6.311   7.810  -0.006 -1.4231  1.7821 -0.2060
    4CHTO  C124 1297   6.458   7.818   0.156 -0.2413 -0.7072  0.2165
    4CHTO   O83 1298   6.558   7.870   0.065  0.2204  0.1917  0.4812
    4CHTO  H204 1299   6.575   7.952   0.107 -1.1018  1.0134 -0.5249
    4CHTO  C109 1300   6.278   7.997   0.100 -0.4474  0.0255  0.3529
    4CHTO  H213 1301   6.298   8.027   0.204 -0.8331  0.6274  0.2528
    4CHTO  C110 1302   6.138   8.023   0.065  0.8777  0.3764  0.2661
    4CHTO  H214 1303   6.136   8.004  -0.043 -3.1270 -0.5223  0.4454
    4CHTO   O78 1304   6.096   8.159   0.077 -0.1647 -0.0328 -0.4687
    4CHTO  H200 1305   6.158   8.207   0.026  1.0974  0.4897  1.5209
    4CHTO  C111 1306   6.044   7.932   0.142  0.4467 -0.1803  0.5562
    4CHTO  H215 1307   6.058   7.960   0.247 -0.4741 -0.1486  0.6758
    4CHTO   N19 1308   5.893   7.948   0.117  0.1451 -0.0915  0.0866
    4CHTO  H207 1309   5.856   7.848   0.099  0.3728 -0.4221  1.4227
    4CHTO  H208 1310   5.838   7.973   0.206 -0.1733 -4.0004  1.0922
    4CHTO   O74 1311   6.370   8.072   0.010  0.7138 -0.2843 -0.1900
    4CHTO  C115 1312   6.422   8.206   0.073  0.8268  0.2536  0.5096
    4CHTO  H219 1313   6.374   8.225   0.169 -0.3206 -0.0522  0.0116
    4CHTO   O76 1314   6.564   8.197   0.105 -0.5016 -0.0866  0.4252
    4CHTO  C122 1315   6.636   8.165  -0.006  0.5438 -0.7362  1.1238
    4CHTO  H226 1316   6.603   8.064  -0.033  0.4728 -0.4181 -0.0057
    4CHTO  C126 1317   6.791   8.141   0.034  0.5774 -0.3546 -0.5678
    4CHTO   O85 1318   6.867   8.060  -0.057 -0.2844 -0.0251  0.1303
    4CHTO  H206 1319   6.875   8.092  -0.145 -1.0536 -0.0022  0.0691
    4CHTO  C121 1320   6.619   8.252  -0.134 -0.1488  0.2976  0.2911
    4CHTO  H225 1321   6.719   8.295  -0.158 -0.0204 -0.6417 -0.9270
    4CHTO   O81 1322   6.571   8.174  -0.242 -0.3485  0.3278  0.1675
    4CHTO  H202 1323   6.573   8.214  -0.327 -2.0201 -1.4911 -0.7840
    4CHTO  C119 1324   6.521   8.369  -0.102 -0.2796  0.8049  0.6538
    4CHTO  H223 1325   6.567   8.434  -0.028 -1.2439  1.5816  0.5916
    4CHTO  C117 1326   6.387   8.323  -0.032 -0.1557 -0.0163  0.3266
    4CHTO  H221 1327   6.316   8.287  -0.106 -1.2794 -0.1846  1.4896
    4CHTO   N20 1328   6.322   8.439   0.039  0.1960  0.1876  0.0649
    4CHTO  H209 1329   6.322   8.530  -0.019 -1.1025  0.4861  0.5243
    4CHTO  H210 1330   6.222   8.403   0.060 -0.0527  0.4671 -0.6275
    4CHTO   O80 1331   6.501   8.471  -0.223  0.6939 -0.7560 -0.9749
    4CHTO  C103 1332   6.548   8.605  -0.212 -0.5940 -1.3798 -0.5190
    4CHTO  H190 1333   6.534   8.643  -0.110  2.7933  0.7718 -0.7663
    4CHTO  C101 1334   6.700   8.604  -0.255  0.1845 -0.8957 -0.0538
    4CHTO  H188 1335   6.710   8.564  -0.356  1.3251  0.4536 -0.5074
    4CHTO   O68 1336   6.783   8.529  -0.159 -0.3197  0.1562 -0.3517
    4CHTO  H168 1337   6.760   8.438  -0.155 -0.5242  0.2488  0.7290
    4CHTO   C99 1338   6.755   8.760  -0.277 -0.3185 -0.2215 -0.3234
    4CHTO  H186 1339   6.739   8.818  -0.184 -2.4379 -1.9589  0.4298
    4CHTO   N17 1340   6.899   8.764  -0.317 -0.6678  0.3787 -0.2584
    4CHTO  H174 1341   6.951   8.674  -0.289 -0.7297  0.3925 -0.0996
    4CHTO  H175 1342   6.952   8.852  -0.285  0.7805 -0.4300 -0.4032
    4CHTO   C97 1343   6.662   8.825  -0.386 -0.6569  0.6560 -0.4235
    4CHTO  H184 1344   6.665   8.757  -0.472 -1.3536 -1.3132  1.0664
    4CHTO   O64 1345   6.529   8.834  -0.331 -0.1252  0.4233  0.3831
    4CHTO  C104 1346   6.465   8.708  -0.308 -1.0876  0.4230 -0.0902
    4CHTO  H191 1347   6.448   8.665  -0.406 -0.1144 -0.5517  0.1496
    4CHTO  C108 1348   6.330   8.735  -0.243 -0.2439 -0.7237  0.3239
    4CHTO   O71 1349   6.235   8.793  -0.328  0.2322  0.1339 -0.5000
    4CHTO  H171 1350   6.246   8.754  -0.413  2.0517  0.2728 -0.3336
    4CHTO   O62 1351   6.704   8.964  -0.415  0.2823  0.1904  0.2142
    4CHTO   C91 1352   6.718   8.995  -0.555 -0.6029 -0.1228  0.5284
    4CHTO  H178 1353   6.759   8.915  -0.617 -1.5579 -0.0818 -0.1613
    4CHTO   C92 1354   6.815   9.115  -0.570  0.0785  0.6188  0.3964
    4CHTO  H179 1355   6.764   9.197  -0.518 -0.5023  0.4422  0.1009
    4CHTO   O66 1356   6.927   9.081  -0.483 -0.1163  0.2578 -0.1725
    4CHTO  H166 1357   6.969   9.002  -0.510 -0.5313 -0.4748  1.2610
    4CHTO   C93 1358   6.857   9.146  -0.720 -0.0842 -0.1742 -0.1523
    4CHTO  H180 1359   6.938   9.081  -0.758  0.1294  0.0758 -0.1214
    4CHTO   N16 1360   6.922   9.276  -0.735  0.1267 -0.4064  0.0519
    4CHTO  H172 1361   6.865   9.357  -0.692  0.8281  0.9835 -1.5611
    4CHTO  H173 1362   7.020   9.267  -0.690  0.8984  2.4962 -0.9088
    4CHTO   C94 1363   6.726   9.130  -0.816 -0.1268 -0.7178 -0.0896
    4CHTO  H181 1364   6.716   9.209  -0.890 -3.3556 -0.8199  0.1504
    4CHTO   O61 1365   6.600   9.125  -0.737 -0.2111 -0.4192  0.5897
    4CHTO   C95 1366   6.579   9.037  -0.631  0.1073 -0.0452  0.1626
    4CHTO  H182 1367   6.515   9.084  -0.557 -0.0422 -0.3429  0.2255
    4CHTO  C106 1368   6.496   8.914  -0.690 -0.0805 -1.2723  0.6499
    4CHTO   O69 1369   6.419   8.853  -0.591  0.3915  0.0637 -0.0153
    4CHTO  H169 1370   6.334   8.836  -0.627  1.2795  1.6234 -2.9600
    4CHTO   O63 1371   6.745   8.986  -0.880  0.2412 -0.2043 -0.1608
    4CHTO   C96 1372   6.851   8.963  -0.999  0.4925  0.5322 -0.3016
    4CHTO  H183 1373   6.945   9.008  -0.969  0.0380  2.0320 -1.0850
    4CHTO   C98 1374   6.809   9.011  -1.136  0.0581 -0.7545  0.2907
    4CHTO  H185 1375   6.700   9.008  -1.147  0.1899 -1.4663 -0.8201
    4CHTO   O67 1376   6.838   9.155  -1.136 -0.0141  0.0569  0.4268
    4CHTO  H167 1377   6.827   9.188  -1.223 -0.2889  0.8335  0.7464
    4CHTO  C102 1378   6.885   8.938  -1.265 -0.1647  0.3831  0.5798
    4CHTO  H189 1379   6.976   8.999  -1.282  0.5095 -1.2436 -1.9378
    4CHTO   N18 1380   6.810   8.959  -1.391 -0.1852 -0.2015 -0.3571
    4CHTO  H176 1381   6.705   8.974  -1.369 -1.0953 -1.5858 -3.4902
    4CHTO  H177 1382   6.855   9.044  -1.439  1.2185 -0.4344  0.5156
    4CHTO  C105 1383   6.923   8.791  -1.240  0.4041  0.3354  0.3655
    4CHTO  H192 1384   6.836   8.728  -1.254  1.2415 -0.6578 -0.4645
    4CHTO   O65 1385   6.974   8.771  -1.104 -0.3429 -0.5474  0.3418
    4CHTO  C100 1386   6.883   8.803  -1.003 -0.6866 -0.0364 -0.7467
    4CHTO  H187 1387   6.784   8.756  -1.006  0.3508 -2.6248  2.3842
    4CHTO  C107 1388   6.943   8.750  -0.870 -0.1593  0.7169 -1.0510
    4CHTO   O70 1389   6.871   8.775  -0.747 -0.3591  0.7342 -0.1804
    4CHTO  H170 1390   6.907   8.845  -0.695 -0.6687 -1.0161  2.5200
    4CHTO   O57 1391   7.032   8.741  -1.340  0.4189 -0.0128 -0.3572
    4CHTO   C85 1392   7.003   8.609  -1.405 -0.1969  0.4687  0.1848
    4CHTO  H157 1393   6.895   8.617  -1.426  0.0641  2.6810 -0.3953
    4CHTO   C83 1394   7.027   8.480  -1.321 -0.3974  0.3205  0.1304
    4CHTO  H155 1395   6.953   8.478  -1.241 -0.4797 -3.2557  0.0168
    4CHTO   O56 1396   7.151   8.491  -1.249 -0.1432 -0.2480  0.0917
    4CHTO  H135 1397   7.153   8.474  -1.156  2.1011 -1.0455 -0.0597
    4CHTO   C81 1398   6.998   8.348  -1.402  0.5688  0.1643  0.2512
    4CHTO  H153 1399   6.895   8.348  -1.438  0.8833 -0.9001 -0.6810
    4CHTO   N14 1400   7.007   8.225  -1.322 -0.2095 -0.0543 -0.0989
    4CHTO  H141 1401   6.928   8.153  -1.336  0.9283 -1.0432 -1.5834
    4CHTO  H142 1402   7.022   8.238  -1.217  1.7014 -0.6358 -0.2877
    4CHTO   C79 1403   7.085   8.345  -1.535  0.3324  0.7578  1.1532
    4CHTO  H151 1404   7.045   8.262  -1.594 -2.5454 -0.1366  4.2567
    4CHTO   O52 1405   7.060   8.466  -1.615 -0.4162  0.5924  0.3380
    4CHTO   C86 1406   7.086   8.589  -1.539  0.1535 -0.2309 -0.0254
    4CHTO  H158 1407   7.192   8.580  -1.507  0.0898  0.4851  0.3875
    4CHTO   C90 1408   7.085   8.708  -1.637  0.0815 -0.1541  0.0801
    4CHTO   O60 1409   6.954   8.752  -1.671 -0.2798 -0.5266  0.4365
    4CHTO  H138 1410   6.918   8.792  -1.595 -0.3954 -0.4561  0.3449
    4CHTO   O50 1411   7.227   8.318  -1.513 -0.4247 -0.1124  0.2597
    4CHTO   C73 1412   7.370   8.311  -1.547  0.1618  0.6924  0.3170
    4CHTO  H145 1413   7.415   8.411  -1.543  1.1607  0.3770 -2.2766
    4CHTO   C74 1414   7.390   8.271  -1.703  0.0979  0.2511 -0.0222
    4CHTO  H146 1415   7.346   8.337  -1.779 -0.8492 -1.9826 -1.4697
    4CHTO   O54 1416   7.531   8.278  -1.735  0.1285  0.5975  0.1002
    4CHTO  H133 1417   7.555   8.366  -1.758 -1.4658  1.3380  1.1735
    4CHTO   C75 1418   7.334   8.126  -1.717  0.7683  0.5117  0.3430
    4CHTO  H147 1419   7.225   8.122  -1.703  0.2370  1.6146 -3.0552
    4CHTO   N13 1420   7.355   8.066  -1.852  0.9839  0.1175 -0.2962
    4CHTO  H139 1421   7.305   7.970  -1.843  1.9793 -0.4316 -0.5598
    4CHTO  H140 1422   7.297   8.124  -1.922  0.0981 -0.2358  0.1355
    4CHTO   C76 1423   7.405   8.026  -1.608 -0.0781 -0.5563  0.4368
    4CHTO  H148 1424   7.511   8.012  -1.629 -0.1887  0.3055 -0.7190
    4CHTO   O49 1425   7.399   8.077  -1.467  0.1523 -0.6177 -0.0076
    4CHTO   C77 1426   7.446   8.211  -1.452 -0.5200 -0.5094  0.0425
    4CHTO  H149 1427   7.552   8.216  -1.476  0.1642 -1.7987  2.6240
    4CHTO   C88 1428   7.430   8.247  -1.302 -0.1829  0.4304 -0.2110
    4CHTO   O58 1429   7.443   8.386  -1.273  0.4559 -0.5615 -0.1649
    4CHTO  H136 1430   7.534   8.404  -1.284  0.2655  0.0627 -0.7379
    4CHTO   O51 1431   7.334   7.889  -1.608  0.0906 -0.1448  0.6025
    4CHTO   C78 1432   7.390   7.766  -1.497  0.4576 -0.1494  0.8206
    4CHTO  H150 1433   7.392   7.807  -1.393  1.8092 -2.0805  1.5808
    4CHTO   C80 1434   7.529   7.709  -1.536  0.2581 -0.0989 -0.0335
    4CHTO  H152 1435   7.529   7.701  -1.647 -0.4647  0.7452 -0.1044
    4CHTO   O55 1436   7.616   7.806  -1.492  0.4162  0.0564  0.5771
    4CHTO  H134 1437   7.691   7.808  -1.548 -0.9842  2.2984 -1.2989
    4CHTO   C84 1438   7.571   7.575  -1.471  0.4198 -0.2097 -0.3778
    4CHTO  H156 1439   7.581   7.591  -1.364  0.6240  0.6808 -0.5237
    4CHTO   N15 1440   7.699   7.514  -1.512  0.6515  0.5066  0.0166
    4CHTO  H143 1441   7.789   7.572  -1.509  2.1970 -1.8222 -0.5313
    4CHTO  H144 1442   7.717   7.425  -1.455 -2.9032  0.9627  1.9721
    4CHTO   C87 1443   7.457   7.471  -1.489  0.3535 -0.1266  0.1429
    4CHTO  H159 1444   7.443   7.450  -1.595  3.1675 -0.3901 -0.2118
    4CHTO   O53 1445   7.338   7.536  -1.432  0.0430 -0.0780  0.7359
    4CHTO   C82 1446   7.287   7.653  -1.496 -0.3269  0.6912  0.7550
    4CHTO  H154 1447   7.256   7.631  -1.598 -1.2930  0.5644  1.0685
    4CHTO   C89 1448   7.158   7.692  -1.424  0.5701 -0.1917  0.0530
    4CHTO   O59 1449   7.176   7.737  -1.294  0.0331 -0.2137  0.5373
    4CHTO  H137 1450   7.266   7.763  -1.282 -0.2218  1.6816 -1.2705
    4CHTO   O45 1451   7.487   7.333  -1.412 -0.2369  0.6304 -0.4272
    4CHTO   C67 1452   7.427   7.214  -1.460 -0.0892  0.2954 -0.7257
    4CHTO  H124 1453   7.422   7.216  -1.569  1.0691 -0.6233 -0.8048
    4CHTO   C65 1454   7.497   7.081  -1.419 -0.6069  0.0567 -0.6665
    4CHTO  H122 1455   7.602   7.092  -1.448  0.2924  2.4543  3.1653
    4CHTO   O44 1456   7.438   6.976  -1.491 -0.2731  0.1130  0.1454
    4CHTO  H102 1457   7.466   6.892  -1.461  0.8889  0.4758  0.1167
    4CHTO   C63 1458   7.491   7.055  -1.261 -1.0185  0.4685 -0.3396
    4CHTO  H120 1459   7.538   7.139  -1.211  0.5631 -1.0319  0.7684
    4CHTO   N11 1460   7.554   6.928  -1.207  0.3155  0.4114  0.2744
    4CHTO  H108 1461   7.548   6.838  -1.265 -1.0587 -0.0957  1.1815
    4CHTO  H109 1462   7.659   6.943  -1.190  0.0188  2.0865  0.7243
    4CHTO   C61 1463   7.339   7.066  -1.208 -0.2331  0.0293  0.2999
    4CHTO  H118 1464   7.347   7.089  -1.100 -2.6617 -0.6229  0.6492
    4CHTO   O40 1465   7.257   7.176  -1.269  0.8427 -0.1408 -0.2675
    4CHTO   C68 1466   7.278   7.216  -1.415 -0.2359 -0.3315  0.0612
    4CHTO  H125 1467   7.241   7.321  -1.413 -0.4762 -0.3375 -2.3370
    4CHTO   C72 1468   7.187   7.130  -1.511 -0.0898 -0.3366  0.5396
    4CHTO   O48 1469   7.050   7.169  -1.500  0.2491 -0.3995  0.1125
    4CHTO  H105 1470   7.045   7.257  -1.532 -0.1618 -0.3563  0.3005
    4CHTO   O38 1471   7.259   6.950  -1.224  0.0229  0.0321  0.7886
    4CHTO   C55 1472   7.177   6.920  -1.108  0.5418  0.3809 -0.1080
    4CHTO  H112 1473   7.171   7.006  -1.041 -2.2239  0.1275  0.0052
    4CHTO   C56 1474   7.234   6.791  -1.037  0.0273 -0.3768 -0.0003
    4CHTO  H113 1475   7.230   6.708  -1.108 -1.7040 -0.6204  0.3564
    4CHTO   O42 1476   7.372   6.809  -1.000  0.2351  0.3840 -0.8005
    4CHTO  H100 1477   7.426   6.780  -1.071 -0.3742 -0.3186 -0.9870
    4CHTO   C57 1478   7.148   6.746  -0.902 -0.1140  0.4084 -0.6697
    4CHTO  H114 1479   7.154   6.830  -0.834 -0.1200 -1.7907  2.1378
    4CHTO   N10 1480   7.194   6.625  -0.832 -0.1426 -0.4712  0.6475
    4CHTO  H106 1481   7.253   6.562  -0.896 -2.8623 -1.2457 -1.1674
    4CHTO  H107 1482   7.106   6.572  -0.801  0.0176 -0.0114  1.9332
    4CHTO   C58 1483   7.000   6.731  -0.957 -0.3777 -0.3785 -0.4754
    4CHTO  H115 1484   6.995   6.646  -1.029  0.2409 -0.9016  0.0981
    4CHTO   O37 1485   6.958   6.853  -1.023  0.0261  0.4285 -0.1258
    4CHTO   C59 1486   7.027   6.887  -1.143  0.1182  0.0074  1.2790
    4CHTO  H116 1487   7.015   6.813  -1.222 -0.7675  0.0351  1.3820
    4CHTO   C70 1488   6.965   7.007  -1.210  0.7939 -0.3580  0.4911
    4CHTO   O46 1489   6.830   6.968  -1.249  0.1477  0.3890  0.1779
    4CHTO  H103 1490   6.775   7.034  -1.286  0.0399  1.7090  2.5962
    4CHTO   O39 1491   6.891   6.697  -0.812 -0.0745 -0.1367  0.3840
    4CHTO   C60 1492   6.757   6.653  -0.842 -0.2359  0.1216 -0.2670
    4CHTO  H117 1493   6.728   6.702  -0.935 -1.2415  1.3807  0.6856
    4CHTO   C62 1494   6.750   6.504  -0.864 -0.3378 -0.8789  0.3319
    4CHTO  H119 1495   6.802   6.484  -0.961 -0.9560 -0.0512 -0.1795
    4CHTO   O43 1496   6.807   6.447  -0.746 -0.5270  0.3700  0.4549
    4CHTO  H101 1497   6.740   6.432  -0.682 -2.1660 -2.0437 -1.7325
    4CHTO   C66 1498   6.595   6.456  -0.898  0.3013  0.2811 -0.1968
    4CHTO  H123 1499   6.559   6.514  -0.983 -1.2394  0.0406  0.2744
    4CHTO   N12 1500   6.590   6.311  -0.933  0.4087 -0.0037  0.1467
    4CHTO  H110 1501   6.585   6.252  -0.842  0.6306 -0.2697 -0.0133
    4CHTO  H111 1502   6.676   6.290  -0.995  0.3914 -0.4072  0.2579
    4CHTO   C69 1503   6.505   6.489  -0.780  0.7237 -0.4413  0.3675
    4CHTO  H126 1504   6.514   6.429  -0.688 -1.5265 -1.1265  0.1553
    4CHTO   O41 1505   6.519   6.623  -0.739 -0.1620 -0.2367 -0.3711
    4CHTO   C64 1506   6.657   6.699  -0.735 -0.0144 -0.4037 -0.0276
    4CHTO  H121 1507   6.703   6.680  -0.637  1.2368 -0.6883 -0.6602
    4CHTO   C71 1508   6.637   6.860  -0.739  0.0136 -0.4108 -0.3076
    4CHTO   O47 1509   6.567   6.898  -0.860  0.5363  0.4114  0.2331
    4CHTO  H104 1510   6.479   6.865  -0.859  0.3239  0.9862  2.1219
    4CHTO   O34 1511   6.353   6.477  -0.817  0.3181  0.3588 -0.1745
    4CHTO   C49 1512   6.215   6.534  -0.866 -0.2068  0.2317 -0.3055
    4CHTO   H91 1513   6.160   6.565  -0.777 -3.0437 -0.1812 -1.8805
    4CHTO   C47 1514   6.135   6.430  -0.946  0.0136 -0.5602  0.0074
    4CHTO   H89 1515   6.032   6.470  -0.948 -0.2701 -1.3399 -1.2692
    4CHTO   O33 1516   6.130   6.306  -0.872 -0.2027 -0.0513  0.1375
    4CHTO   H70 1517   6.167   6.245  -0.934 -0.8733 -0.2964 -0.0207
    4CHTO   C45 1518   6.184   6.414  -1.100  0.3308  0.9151 -0.1256
    4CHTO   H87 1519   6.245   6.323  -1.109  0.5684  1.0172  0.4011
    4CHTO    N8 1520   6.065   6.390  -1.185  0.1715  0.4139  0.7212
    4CHTO   H75 1521   6.003   6.309  -1.149  0.1798  0.2683  0.4143
    4CHTO   H76 1522   6.110   6.363  -1.279  1.0391 -0.8189  1.4816
    4CHTO   C43 1523   6.287   6.538  -1.150 -0.3134  0.4577  0.7804
    4CHTO   H85 1524   6.385   6.510  -1.112 -1.4200 -1.8693  1.9910
    4CHTO   O29 1525   6.239   6.664  -1.095  0.6971  0.0493  0.0941
    4CHTO   C50 1526   6.241   6.668  -0.959  0.0957 -0.5375 -0.8309
    4CHTO   H92 1527   6.340   6.707  -0.932 -0.1655  1.1658 -2.2612
    4CHTO   C54 1528   6.141   6.780  -0.933 -0.1179  0.6885 -0.2865
    4CHTO   O36 1529   6.155   6.827  -0.795  0.3817 -0.7693 -0.0694
    4CHTO   H72 1530   6.201   6.909  -0.796  1.1892 -1.2348 -1.3713
    4CHTO   O27 1531   6.296   6.550  -1.293 -0.2416 -0.7592  0.3185
    4CHTO   C37 1532   6.399   6.507  -1.383  0.3233 -1.2133 -0.7205
    4CHTO   H79 1533   6.361   6.539  -1.481 -0.5547  1.6310  0.5020
    4CHTO   C38 1534   6.529   6.592  -1.362 -0.3569 -0.7761  0.3664
    4CHTO   H80 1535   6.536   6.630  -1.259  0.3374 -1.3734  0.5452
    4CHTO   O31 1536   6.514   6.710  -1.446 -0.5409 -0.0957  0.1423
    4CHTO   H68 1537   6.496   6.780  -1.387 -1.0647  0.1299 -0.2781
    4CHTO   C39 1538   6.665   6.522  -1.407  0.3269  0.6449  0.0358
    4CHTO   H81 1539   6.681   6.507  -1.513  2.0217  0.4022  0.3068
    4CHTO    N7 1540   6.779   6.586  -1.353  0.1392  0.3468 -0.1223
    4CHTO   H73 1541   6.854   6.598  -1.430 -0.3242 -0.2465 -0.6674
    4CHTO   H74 1542   6.751   6.678  -1.304 -0.9409 -0.3480  0.5848
    4CHTO   C40 1543   6.657   6.368  -1.357  0.6663 -0.0521  0.7650
    4CHTO   H82 1544   6.639   6.370  -1.249 -0.9535  0.2258  0.4902
    4CHTO   O26 1545   6.545   6.315  -1.427  0.1856 -0.3461 -0.1997
    4CHTO   C41 1546   6.419   6.357  -1.381  0.0712 -0.1826 -0.8159
    4CHTO   H83 1547   6.406   6.324  -1.277 -0.0179 -0.1188 -0.8065
    4CHTO   C52 1548   6.302   6.286  -1.461  0.3028 -0.6468 -0.7131
    4CHTO   O35 1549   6.316   6.132  -1.449 -0.1033 -0.0918  0.7440
    4CHTO   H71 1550   6.354   6.101  -1.529  0.5389  0.6193  0.7749
    4CHTO   O28 1551   6.771   6.287  -1.385 -0.2485 -0.5803 -0.1090
    4CHTO   C42 1552   6.809   6.174  -1.303 -0.3221  0.5171  0.6687
    4CHTO   H84 1553   6.875   6.115  -1.367  0.0053 -0.5096  1.9220
    4CHTO   C44 1554   6.689   6.076  -1.261 -0.0523 -0.0027  0.2907
    4CHTO   H86 1555   6.612   6.136  -1.213  2.5610  2.5422  1.3958
    4CHTO   O32 1556   6.621   6.032  -1.381  0.5600  0.0929 -0.4510
    4CHTO   H69 1557   6.591   5.943  -1.374  1.8227 -0.4753 -1.8718
    4CHTO   C48 1558   6.739   5.953  -1.170  0.3555 -0.2620 -0.0701
    4CHTO   H90 1559   6.824   5.901  -1.215  0.2167 -1.9138  1.5187
    4CHTO    N9 1560   6.629   5.861  -1.131  0.0411  0.4711  0.4975
    4CHTO   H77 1561   6.581   5.832  -1.223  0.4062 -1.8502  1.0205
    4CHTO   H78 1562   6.669   5.778  -1.075 -3.9087 -2.0648 -0.1898
    4CHTO   C51 1563   6.806   6.021  -1.038  0.1038  0.0415 -0.1986
    4CHTO   H93 1564   6.727   6.084  -0.998  0.1250  0.3831 -0.6836
    4CHTO   O30 1565   6.918   6.094  -1.079 -0.4232  0.6151 -0.0607
    4CHTO   C46 1566   6.890   6.214  -1.180 -0.0242  0.1786  0.3457
    4CHTO   H88 1567   6.838   6.294  -1.128  0.7350  0.0872  1.2731
    4CHTO   C53 1568   7.021   6.281  -1.225  0.2106  1.0525  0.9841
    4CHTO   O72 1569   7.096   6.323  -1.119 -0.2101 -0.1207 -0.4196
    4CHTO  H199 1570   7.115   6.414  -1.131  2.4193 -0.2512  2.2898
    4CHTO   O22 1571   6.847   5.917  -0.950 -0.0809 -0.3168  0.0785
    4CHTO   C31 1572   6.868   5.954  -0.806 -0.0635  0.3306  0.0756
    4CHTO   H59 1573   6.881   6.064  -0.799  2.1368  0.1170 -0.3036
    4CHTO   C29 1574   6.754   5.911  -0.710  0.1676  0.4807 -0.1254
    4CHTO   H57 1575   6.735   5.803  -0.707 -1.6659  0.7698 -0.2634
    4CHTO   O21 1576   6.631   5.958  -0.762 -0.4581 -0.2642 -0.1195
    4CHTO   H37 1577   6.635   6.041  -0.807 -1.5821 -0.1636 -0.0568
    4CHTO   C27 1578   6.793   5.962  -0.562  0.3900 -0.2982 -0.6276
    4CHTO   H55 1579   6.791   6.071  -0.568 -1.0394 -0.3413 -1.2414
    4CHTO    N5 1580   6.697   5.919  -0.460  0.4761 -0.6314  0.2372
    4CHTO   H43 1581   6.724   5.962  -0.365 -0.4248  0.4903 -0.0004
    4CHTO   H44 1582   6.685   5.811  -0.460  2.2955 -0.8433  1.0058
    4CHTO   C25 1583   6.949   5.936  -0.517  0.8968 -0.0138  0.0373
    4CHTO   H53 1584   6.960   5.833  -0.482 -1.1219 -0.0638  0.5762
    4CHTO   O17 1585   7.045   5.954  -0.626 -0.3958  0.1774  0.0372
    4CHTO   C32 1586   7.003   5.891  -0.746  0.5791 -0.4725 -0.2808
    4CHTO   H60 1587   6.986   5.785  -0.726 -1.9383 -0.3167 -1.4464
    4CHTO   C36 1588   7.133   5.901  -0.834  0.1521 -0.2497 -0.0813
    4CHTO   O25 1589   7.129   5.811  -0.951  0.3013 -0.0088 -0.4535
    4CHTO   H40 1590   7.196   5.834  -1.012  0.8094 -1.4709 -0.4589
    4CHTO   O15 1591   6.993   6.040  -0.409 -0.4726 -0.2928  0.0447
    4CHTO   C19 1592   7.040   6.174  -0.383 -0.7822 -0.1521  0.0838
    4CHTO   H47 1593   7.028   6.175  -0.274 -0.7717  0.3513  0.0844
    4CHTO   C20 1594   7.191   6.201  -0.419  0.3435  0.8307 -0.0932
    4CHTO   H48 1595   7.212   6.175  -0.524 -0.1690  0.5581 -0.1285
    4CHTO   O19 1596   7.270   6.109  -0.335  0.2712  0.4708 -0.2110
    4CHTO   H35 1597   7.363   6.123  -0.346  0.3124 -0.1397 -0.6353
    4CHTO   C21 1598   7.240   6.349  -0.390 -0.1970  0.3411 -0.1791
    4CHTO   H49 1599   7.257   6.364  -0.283  0.1394 -1.4034  0.0297
    4CHTO    N4 1600   7.375   6.365  -0.444 -0.7843 -0.1231 -0.1919
    4CHTO   H41 1601   7.377   6.329  -0.546  0.3746 -2.1250  0.5226
    4CHTO   H42 1602   7.415   6.465  -0.439  0.4979 -0.5980 -0.9461
    4CHTO   C22 1603   7.140   6.451  -0.451  0.2845 -0.0919 -0.0404
    4CHTO   H50 1604   7.150   6.453  -0.560 -0.5657  0.9632 -0.1165
    4CHTO   O14 1605   7.001   6.419  -0.417 -0.2763  0.2756 -0.5661
    4CHTO   C23 1606   6.950   6.286  -0.444  0.1582 -0.6661  0.9762
    4CHTO   H51 1607   6.953   6.282  -0.554  1.5157  1.9003  0.8777
    4CHTO   C34 1608   6.810   6.282  -0.374  0.2471  0.0823 -0.2535
    4CHTO   O23 1609   6.721   6.374  -0.439 -0.4859 -0.2212  0.0131
    4CHTO   H38 1610   6.690   6.334  -0.518 -1.9119 -1.0692  0.9852
    4CHTO   O16 1611   7.175   6.576  -0.389  0.2454  0.6725  0.3689
    4CHTO   C24 1612   7.082   6.708  -0.423  0.6352 -0.9624 -0.0264
    4CHTO   H52 1613   7.012   6.693  -0.505 -1.7674 -2.7072  2.2166
    4CHTO   C26 1614   7.173   6.831  -0.444  0.3558 -0.2140 -0.3384
    4CHTO   H54 1615   7.258   6.793  -0.504  1.3216 -0.1299  0.9542
    4CHTO   O20 1616   7.109   6.928  -0.518  0.3415  0.6473  0.4093
    4CHTO   H36 1617   7.084   6.888  -0.598 -0.5687  0.8361  0.6018
    4CHTO   C30 1618   7.227   6.896  -0.315 -0.5745 -0.2036 -0.2558
    4CHTO   H58 1619   7.162   6.980  -0.286  1.0910  0.3160  2.1588
    4CHTO    N6 1620   7.362   6.961  -0.330 -0.2986 -0.3165 -0.5809
    4CHTO   H45 1621   7.388   7.006  -0.235  2.0339  0.6429 -1.6352
    4CHTO   H46 1622   7.439   6.888  -0.354  0.3948  0.2354 -0.0702
    4CHTO   C33 1623   7.221   6.798  -0.195 -0.1241 -0.1468  0.5032
    4CHTO   H61 1624   7.262   6.699  -0.220 -0.2187 -0.6664  2.3451
    4CHTO   O18 1625   7.079   6.787  -0.181  0.0022 -0.5725  0.4825
    4CHTO   C28 1626   7.002   6.724  -0.292 -0.4694  0.7115  0.0327
    4CHTO   H56 1627   6.960   6.627  -0.266  0.3080 -0.0202 -1.3598
    4CHTO   C35 1628   6.881   6.816  -0.310 -0.4830  0.4479 -0.2888
    4CHTO   O24 1629   6.805   6.801  -0.429  0.3161 -0.2614 -0.3161
    4CHTO   H39 1630   6.736   6.863  -0.419  0.9047  0.6383 -1.6373
    4CHTO    O9 1631   7.280   6.829  -0.065  0.7348  0.4713  0.3137
    4CHTO   C13 1632   7.366   6.701   0.004 -0.1945  0.4318 -0.1597
    4CHTO   H26 1633   7.436   6.674  -0.078 -0.5963  0.7271 -0.6081
    4CHTO   C11 1634   7.272   6.582   0.054 -0.7705 -0.3016  0.6619
    4CHTO   H24 1635   7.222   6.535  -0.033  0.3319  1.0239 -0.7207
    4CHTO    O8 1636   7.165   6.629   0.143  0.5040  0.0679 -0.0545
    4CHTO    H3 1637   7.154   6.721   0.128 -0.6136  0.2802  1.9264
    4CHTO    C9 1638   7.371   6.474   0.109 -0.7861  0.2912 -0.6506
    4CHTO   H22 1639   7.445   6.463   0.029  3.9817  0.8076  3.4718
    4CHTO    N2 1640   7.309   6.343   0.140  0.5318  0.4596  0.2461
    4CHTO   H10 1641   7.382   6.273   0.178  0.1608  0.5147  1.0904
    4CHTO   H11 1642   7.256   6.310   0.053  0.5796 -0.9279  0.7357
    4CHTO    C7 1643   7.449   6.534   0.229  0.3784  0.2124 -1.0652
    4CHTO   H20 1644   7.525   6.460   0.261 -0.2327 -0.0494 -0.2120
    4CHTO    O4 1645   7.518   6.654   0.202 -0.2281 -0.5951  0.4359
    4CHTO   C14 1646   7.455   6.759   0.119 -0.2535  0.3842 -0.5018
    4CHTO   H27 1647   7.543   6.805   0.068 -1.5624  1.8786 -1.4619
    4CHTO   C18 1648   7.386   6.866   0.210  0.5793 -0.1858  0.9963
    4CHTO   O13 1649   7.457   6.927   0.313 -0.3280 -0.4912 -0.3906
    4CHTO    H7 1650   7.404   6.980   0.369  1.9243  0.6619  0.7017
    4CHTO    O2 1651   7.358   6.551   0.368 -0.1322 -0.8937 -0.2596
    4CHTO    C1 1652   7.422   6.579   0.496 -0.2525 -0.3750 -0.4084
    4CHTO   H14 1653   7.487   6.667   0.476 -1.2037  0.8953  1.7968
    4CHTO    C2 1654   7.498   6.461   0.568 -0.5621 -0.6940 -0.0044
    4CHTO   H15 1655   7.440   6.368   0.574  0.3036 -1.2879 -0.6823
    4CHTO    O6 1656   7.620   6.445   0.487  0.0615 -0.6265  0.1569
    4CHTO    H1 1657   7.669   6.373   0.521 -2.5525 -1.6162  2.0207
    4CHTO    C3 1658   7.548   6.499   0.714  0.7004 -0.4576 -0.5703
    4CHTO   H16 1659   7.628   6.574   0.702 -0.5307  0.9104 -0.4428
    4CHTO    N1 1660   7.612   6.381   0.791 -0.9669 -0.4870  0.3941
    4CHTO    H8 1661   7.619   6.294   0.727 -1.4714  1.0756 -1.8572
    4CHTO    H9 1662   7.568   6.352   0.885 -1.2848  0.6848  0.6073
    4CHTO    C4 1663   7.428   6.564   0.791 -0.0875  0.0804 -0.0411
    4CHTO   H17 1664   7.352   6.487   0.802 -1.9309  1.8258 -0.3396
    4CHTO    O1 1665   7.370   6.672   0.714 -0.5996 -0.1659  0.2323
    4CHTO    C5 1666   7.310   6.632   0.589 -0.4007 -0.9400 -0.2151
    4CHTO   H18 1667   7.241   6.550   0.610  1.5195 -2.1024  1.8267
    4CHTO   C16 1668   7.232   6.758   0.531 -0.1366  0.9802 -0.0660
    4CHTO   O11 1669   7.125   6.786   0.616  0.1262  0.3696 -0.1333
    4CHTO    H5 1670   7.049   6.736   0.593 -0.6288  0.4650  2.0395
    4CHTO    O3 1671   7.464   6.626   0.923 -0.2757  0.2783 -0.4629
    4CHTO    C6 1672   7.366   6.608   1.031  0.0092  0.6046 -0.4553
    4CHTO   H19 1673   7.286   6.540   1.003 -0.5554  0.5562  1.2017
    4CHTO    C8 1674   7.436   6.547   1.156 -0.8979 -0.2999  0.1229
    4CHTO   H21 1675   7.521   6.613   1.179 -0.9510 -0.4287  0.6877
    4CHTO    O7 1676   7.484   6.414   1.111 -0.1313  0.1067  0.1420
    4CHTO    H2 1677   7.571   6.415   1.076 -0.5519  0.0167 -0.9019
    4CHTO   C12 1678   7.343   6.538   1.279 -0.3597  0.2210  0.0454
    4CHTO   H25 1679   7.261   6.467   1.253  0.4290 -0.0194 -1.9016
    4CHTO    N3 1680   7.419   6.480   1.400 -0.6655  0.8629  0.2747
    4CHTO   H12 1681   7.375   6.388   1.436 -3.5930  1.9742 -0.2999
    4CHTO   H13 1682   7.437   6.555   1.476 -0.2418 -1.2695  2.3265
    4CHTO   C15 1683   7.276   6.678   1.305  0.5070 -0.4662 -0.3112
    4CHTO   H28 1684   7.346   6.750   1.347 -0.2124 -0.3992  0.8164
    4CHTO   O10 1685   7.144   6.667   1.396  0.0262 -0.0065 -0.0707
    4CHTO    H4 1686   7.124   6.582   1.430  2.0538 -1.5822 -2.6880
    4CHTO    O5 1687   7.221   6.721   1.186  0.1844 -0.1333 -0.1285
    4CHTO   C10 1688   7.301   6.742   1.069 -0.0516 -0.3850 -0.9520
    4CHTO   H23 1689   7.382   6.810   1.094  0.9074 -1.2302 -1.6846
    4CHTO   C17 1690   7.206   6.797   0.960  0.1798 -0.1107 -0.0015
    4CHTO   O12 1691   7.107   6.697   0.930 -0.3301 -1.0005  0.2422
    4CHTO    H6 1692   7.024   6.741   0.939  0.4877  0.1098  2.8551
    5CHTO  H203 1693   6.688   4.293   2.333 -0.4089  0.7409  2.2129
    5CHTO   O82 1694   6.641   4.212   2.335  0.2895  0.2473  0.0519
    5CHTO  C123 1695   6.623   4.157   2.470 -0.1377 -0.2361  0.0764
    5CHTO  H227 1696   6.671   4.225   2.542 -1.5225  0.7783  0.0629
    5CHTO   O77 1697   6.472   4.169   2.489 -0.0793 -0.1644 -0.3866
    5CHTO  C118 1698   6.437   4.132   2.621  0.1877 -0.6451 -0.2696
    5CHTO  H222 1699   6.495   4.188   2.695  1.5057 -1.9213 -0.3212
    5CHTO  C125 1700   6.285   4.167   2.640 -0.1065  0.0082 -0.7890
    5CHTO   O84 1701   6.268   4.309   2.651  0.3370 -0.3422  0.6362
    5CHTO  H205 1702   6.229   4.340   2.572  2.2925 -0.9715 -0.6149
    5CHTO  C114 1703   6.453   3.984   2.633  0.2592 -0.7160 -0.3453
    5CHTO  H218 1704   6.387   3.934   2.562 -0.9214  1.8466 -1.1105
    5CHTO  C116 1705   6.600   3.933   2.605 -0.2219 -0.2805 -0.4272
    5CHTO  H220 1706   6.657   3.944   2.699  1.2895 -0.3812 -1.3109
    5CHTO   O79 1707   6.603   3.787   2.587  0.0529 -0.5141 -0.4565
    5CHTO  H201 1708   6.659   3.756   2.518  0.8394  2.2467 -1.1284
    5CHTO  C120 1709   6.673   4.008   2.480  0.9192 -0.0152 -0.4961
    5CHTO  H224 1710   6.629   3.957   2.392  2.5947 -0.1910 -1.2479
    5CHTO   N21 1711   6.816   3.993   2.479  0.7972 -0.3534  0.4645
    5CHTO  H211 1712   6.855   3.994   2.378  0.7118  0.4999  0.4331
    5CHTO  H212 1713   6.842   3.903   2.533 -1.7543 -1.1221  0.4485
    5CHTO   O75 1714   6.419   3.958   2.772 -0.3584 -0.5187  0.0341
    5CHTO  C112 1715   6.309   3.850   2.784  0.3623  0.0237  0.2306
    5CHTO  H216 1716   6.344   3.752   2.749  1.7754  0.1491  1.2257
    5CHTO   O73 1717   6.197   3.893   2.710  0.2261 -0.4029  0.3521
    5CHTO  C113 1718   6.077   3.820   2.701 -0.1725  0.2650  0.3936
    5CHTO  H217 1719   6.103   3.723   2.655  0.3072  0.9497 -0.8153
    5CHTO  C124 1720   5.977   3.899   2.607 -0.6082 -0.3638 -0.8348
    5CHTO   O83 1721   5.955   4.029   2.654  0.3814 -0.2853 -1.0903
    5CHTO  H204 1722   5.943   4.094   2.588 -0.6580  1.4784  0.7870
    5CHTO  C109 1723   6.018   3.805   2.841 -0.8478  0.3441  0.2506
    5CHTO  H213 1724   5.959   3.896   2.861 -0.7609  0.6366 -0.8282
    5CHTO  C110 1725   6.134   3.760   2.945 -0.0881  0.2053  0.1547
    5CHTO  H214 1726   6.143   3.651   2.942 -0.1766  0.2115 -0.4612
    5CHTO   O78 1727   6.074   3.784   3.079  0.3871  0.0043  0.1817
    5CHTO  H200 1728   6.012   3.720   3.106 -0.5098  1.0349  0.6236
    5CHTO  C111 1729   6.267   3.836   2.936 -0.3081 -0.7389  1.2320
    5CHTO  H215 1730   6.248   3.936   2.976 -0.1712 -0.7195  1.2500
    5CHTO   N19 1731   6.376   3.779   3.024  0.0625 -0.2411 -0.3307
    5CHTO  H207 1732   6.433   3.864   3.057 -1.7088  0.3671  1.2252
    5CHTO  H208 1733   6.345   3.724   3.111  0.9116 -1.5439 -0.8299
    5CHTO   O74 1734   5.925   3.691   2.852  0.6482  0.0433  0.3768
    5CHTO  C115 1735   5.788   3.678   2.773 -0.2947 -0.1659  0.1404
    5CHTO  H219 1736   5.745   3.776   2.751 -0.7024 -0.4030 -0.1212
    5CHTO   O76 1737   5.809   3.624   2.641 -0.5495  0.0637  0.0656
    5CHTO  C122 1738   5.693   3.606   2.555  0.6277 -0.4235 -0.0149
    5CHTO  H226 1739   5.714   3.540   2.471  0.3806 -1.8814  1.0708
    5CHTO  C126 1740   5.651   3.748   2.492 -0.3036 -0.1775  0.1339
    5CHTO   O85 1741   5.534   3.748   2.412 -0.1757 -0.1935  0.3250
    5CHTO  H206 1742   5.469   3.796   2.461 -1.9842 -0.9910 -1.2370
    5CHTO  C121 1743   5.561   3.539   2.618 -0.1638 -0.3810 -0.1012
    5CHTO  H225 1744   5.471   3.574   2.563 -0.5693 -0.5567  0.4579
    5CHTO   O81 1745   5.582   3.392   2.608 -0.2855 -0.0576  0.0094
    5CHTO  H202 1746   5.502   3.359   2.642 -0.7474  0.0687 -0.9507
    5CHTO  C119 1747   5.537   3.590   2.761 -0.5991  0.7026 -0.4675
    5CHTO  H223 1748   5.514   3.696   2.754 -1.7137  0.4311 -1.1527
    5CHTO  C117 1749   5.676   3.590   2.850  0.6336 -0.5158  0.1315
    5CHTO  H221 1750   5.725   3.495   2.869 -0.8147 -1.5612 -1.1702
    5CHTO   N20 1751   5.646   3.644   2.990  0.2551 -0.1843  0.6798
    5CHTO  H209 1752   5.554   3.699   3.000 -0.1885 -1.0088  1.2840
    5CHTO  H210 1753   5.737   3.685   3.032  1.9708 -0.5246 -2.5846
    5CHTO   O80 1754   5.399   3.528   2.835  0.1231 -0.0160  0.1131
    5CHTO  C103 1755   5.368   3.372   2.844  0.6313 -0.2742  0.7515
    5CHTO  H190 1756   5.391   3.325   2.749 -2.7709 -1.4081  0.4145
    5CHTO  C101 1757   5.416   3.299   2.974 -0.4962 -0.3635  0.0362
    5CHTO  H188 1758   5.402   3.369   3.057 -1.1337  0.0794 -0.4363
    5CHTO   O68 1759   5.586   3.287   2.952  0.1316  0.2897 -0.5632
    5CHTO  H168 1760   5.603   3.206   2.906  2.7314  0.5800 -0.1765
    5CHTO   C99 1761   5.348   3.156   2.998 -0.2515  0.2416  0.0292
    5CHTO  H186 1762   5.378   3.093   2.911 -0.0974  2.5794 -1.6710
    5CHTO   N17 1763   5.400   3.080   3.121 -0.0491 -0.0278 -0.3581
    5CHTO  H174 1764   5.447   2.987   3.094  1.0929  0.9076 -1.5940
    5CHTO  H175 1765   5.309   3.067   3.179  0.2057 -1.2043 -0.2119
    5CHTO   C97 1766   5.191   3.173   2.993 -0.5768  0.3107  0.5460
    5CHTO  H184 1767   5.169   3.230   3.085 -0.5014  0.2118  0.6258
    5CHTO   O64 1768   5.149   3.246   2.874  0.0116 -0.1731 -0.3605
    5CHTO  C104 1769   5.207   3.376   2.848  0.1078  0.5367 -0.1725
    5CHTO  H191 1770   5.174   3.442   2.928  0.1909  0.6189 -0.2062
    5CHTO  C108 1771   5.149   3.435   2.719  0.4155 -0.1323  0.1662
    5CHTO   O71 1772   5.178   3.343   2.611  0.3589 -0.0667 -0.5612
    5CHTO  H171 1773   5.129   3.267   2.637  0.1058  0.6703  1.1610
    5CHTO   O62 1774   5.118   3.048   3.004  0.4819 -0.4751 -0.3245
    5CHTO   C91 1775   4.975   3.053   3.038  0.6364 -0.1250  0.2865
    5CHTO  H178 1776   4.963   3.090   3.140  1.3029  1.5910 -0.2503
    5CHTO   C92 1777   4.941   2.901   3.054 -0.0291  0.6406  0.0313
    5CHTO  H179 1778   5.019   2.861   3.120  0.9221  0.8931 -0.9272
    5CHTO   O66 1779   4.816   2.888   3.119  0.1797  0.1327  0.2333
    5CHTO  H166 1780   4.773   2.805   3.113 -1.2503  0.8700  0.1435
    5CHTO   C93 1781   4.923   2.818   2.915 -0.0896  0.4259 -0.6074
    5CHTO  H180 1782   4.856   2.734   2.936 -0.0122  0.3292 -0.7510
    5CHTO   N16 1783   5.055   2.766   2.870 -0.7922  0.4622 -0.1583
    5CHTO  H172 1784   5.057   2.716   2.774  0.2066 -0.7316  0.4694
    5CHTO  H173 1785   5.111   2.714   2.946  1.3964  2.1614 -0.5547
    5CHTO   C94 1786   4.859   2.903   2.803 -0.4158 -0.5550  0.0072
    5CHTO  H181 1787   4.936   2.943   2.737  0.8668 -1.3441  1.0075
    5CHTO   O61 1788   4.793   3.022   2.859 -0.3983  0.5276  0.6672
    5CHTO   C95 1789   4.876   3.116   2.928 -0.3187 -0.6511 -0.0684
    5CHTO  H182 1790   4.937   3.174   2.858 -0.6165 -1.0968 -0.6996
    5CHTO  C106 1791   4.769   3.225   2.983 -0.5752  0.3255 -0.4237
    5CHTO   O69 1792   4.838   3.324   3.062 -0.2442  0.7483  0.3721
    5CHTO  H169 1793   4.788   3.402   3.072  0.6001  1.3779 -0.2495
    5CHTO   O63 1794   4.744   2.813   2.738 -0.1918 -0.4553 -0.1790
    5CHTO   C96 1795   4.728   2.840   2.571  0.7804 -0.3651  0.2289
    5CHTO  H183 1796   4.802   2.914   2.537  1.2141  2.1041  6.0381
    5CHTO   C98 1797   4.588   2.897   2.537 -0.5672 -0.2903 -0.3864
    5CHTO  H185 1798   4.515   2.833   2.587 -1.1739  0.0209 -0.8677
    5CHTO   O67 1799   4.573   3.025   2.595 -0.0276  0.4635 -0.4536
    5CHTO  H167 1800   4.481   3.041   2.597  0.2258  1.9301  0.1230
    5CHTO  C102 1801   4.571   2.901   2.380 -0.1875 -0.6427  0.2534
    5CHTO  H189 1802   4.638   2.979   2.341 -0.9762 -1.0610 -2.0249
    5CHTO   N18 1803   4.438   2.953   2.335  0.0696 -0.4011  0.0359
    5CHTO  H176 1804   4.449   3.024   2.255  0.9492 -1.9523 -1.2344
    5CHTO  H177 1805   4.361   2.877   2.325 -2.3644  2.0280 -0.2656
    5CHTO  C105 1806   4.605   2.766   2.303 -0.5691 -0.5369 -0.2546
    5CHTO  H192 1807   4.532   2.691   2.334  0.3425 -0.5110  2.0286
    5CHTO   O65 1808   4.737   2.721   2.341 -0.0871  0.2042 -0.3834
    5CHTO  C100 1809   4.747   2.703   2.484 -1.0458  0.3466  0.1282
    5CHTO  H187 1810   4.662   2.638   2.510 -0.6024  0.4154  1.8297
    5CHTO  C107 1811   4.883   2.624   2.518 -0.4677  0.0887 -0.4587
    5CHTO   O70 1812   4.992   2.709   2.479  0.4424  0.0366  0.2389
    5CHTO  H170 1813   5.046   2.659   2.420  0.7231 -0.7210  1.1168
    5CHTO   O57 1814   4.600   2.798   2.140  0.7401  0.1044 -0.1209
    5CHTO   C85 1815   4.614   2.682   2.049  0.1088 -0.0710 -0.8595
    5CHTO  H157 1816   4.548   2.602   2.089 -2.8103  1.9244 -1.4518
    5CHTO   C83 1817   4.750   2.611   2.060  0.6168  0.3741  0.2597
    5CHTO  H155 1818   4.753   2.575   2.162 -1.1745 -0.7222 -0.0453
    5CHTO   O56 1819   4.856   2.708   2.047 -0.1075 -0.0495 -0.0309
    5CHTO  H135 1820   4.935   2.662   2.026 -0.0679 -0.5755  1.2515
    5CHTO   C81 1821   4.751   2.482   1.964  0.5644 -0.3552 -0.3083
    5CHTO  H153 1822   4.666   2.421   1.992  0.2179 -0.0867 -0.7697
    5CHTO   N14 1823   4.873   2.397   1.972 -0.1328 -0.0145  0.0089
    5CHTO  H141 1824   4.888   2.378   2.076 -0.3061  1.0444  0.2396
    5CHTO  H142 1825   4.861   2.304   1.921  2.1325  0.0909 -0.7667
    5CHTO   C79 1826   4.727   2.534   1.816 -0.2952 -0.0454 -0.5161
    5CHTO  H151 1827   4.721   2.448   1.749  1.0742 -0.2706 -0.3767
    5CHTO   O52 1828   4.594   2.601   1.805  0.0293 -0.0136  0.3898
    5CHTO   C86 1829   4.581   2.714   1.895  0.3405  0.4830  0.9784
    5CHTO  H158 1830   4.645   2.790   1.845 -0.5059 -0.5083 -1.6936
    5CHTO   C90 1831   4.440   2.777   1.891  0.8536  0.1381  0.0896
    5CHTO   O60 1832   4.432   2.913   1.926 -0.4349 -0.0184 -0.4499
    5CHTO  H138 1833   4.348   2.955   1.920  0.1910  2.4870  5.0128
    5CHTO   O50 1834   4.833   2.611   1.755 -0.5375 -0.1423  0.0559
    5CHTO   C73 1835   4.883   2.669   1.632  0.0119 -0.1221  0.3789
    5CHTO  H145 1836   4.806   2.721   1.574 -1.1631  1.2605  3.1142
    5CHTO   C74 1837   4.953   2.556   1.549  0.1752  0.1215  0.9358
    5CHTO  H146 1838   4.880   2.476   1.527  1.1667 -0.6999  0.5761
    5CHTO   O54 1839   4.996   2.606   1.415 -0.7661 -0.3424  0.7663
    5CHTO  H133 1840   4.927   2.610   1.351 -0.2492  0.0146  0.2337
    5CHTO   C75 1841   5.082   2.500   1.621 -0.3039 -0.7314 -0.1526
    5CHTO  H147 1842   5.049   2.443   1.709  0.4668 -1.2097 -0.1758
    5CHTO   N13 1843   5.161   2.400   1.546 -0.5491 -0.0806  0.6229
    5CHTO  H139 1844   5.113   2.303   1.545  0.4124 -0.5659  0.8594
    5CHTO  H140 1845   5.179   2.435   1.445  2.2521 -3.8871 -0.3105
    5CHTO   C76 1846   5.170   2.612   1.683  0.0074 -0.4180 -0.7228
    5CHTO  H148 1847   5.232   2.650   1.603  1.5915 -1.9253 -0.2244
    5CHTO   O49 1848   5.091   2.713   1.752 -0.2842  0.1155  0.2219
    5CHTO   C77 1849   4.992   2.783   1.670 -0.2182 -0.1933  0.0681
    5CHTO  H149 1850   5.039   2.828   1.582  0.4761 -2.6682 -0.8723
    5CHTO   C88 1851   4.944   2.896   1.759  0.0933 -0.5943  0.6400
    5CHTO   O58 1852   4.856   2.964   1.708  0.6261 -0.1470  0.1883
    5CHTO  H136 1853   4.899   3.032   1.660  1.3484 -1.6554 -1.3047
    5CHTO   O51 1854   5.261   2.560   1.792  0.4110  0.7160 -0.3533
    5CHTO   C78 1855   5.339   2.674   1.873 -0.1963  0.1308 -0.2562
    5CHTO  H150 1856   5.303   2.773   1.837 -0.2055  0.1029 -0.3237
    5CHTO   C80 1857   5.491   2.664   1.846  0.1856  0.5619 -0.4181
    5CHTO  H152 1858   5.527   2.565   1.882  0.9430  0.8714 -0.3075
    5CHTO   O55 1859   5.511   2.687   1.707  0.4740  0.5760  0.2062
    5CHTO  H134 1860   5.562   2.763   1.686  0.0263  0.8458  0.0825
    5CHTO   C84 1861   5.579   2.761   1.940  0.8415 -0.4246  0.0928
    5CHTO  H156 1862   5.557   2.863   1.907 -0.0886  0.0584  2.1337
    5CHTO   N15 1863   5.730   2.742   1.936 -0.3106 -0.2715  0.6989
    5CHTO  H143 1864   5.778   2.755   1.842  0.0538  1.1729  1.0693
    5CHTO  H144 1865   5.752   2.645   1.977  0.4213 -2.2153 -3.9556
    5CHTO   C87 1866   5.528   2.751   2.082 -0.3476  0.1223  0.3141
    5CHTO  H159 1867   5.551   2.651   2.119 -0.6230 -0.4464 -1.0235
    5CHTO   O53 1868   5.378   2.763   2.092 -0.0518 -0.1073 -0.0749
    5CHTO   C82 1869   5.311   2.663   2.024 -0.4688  1.0269  0.5804
    5CHTO  H154 1870   5.337   2.563   2.059 -0.7884  1.1749  1.2343
    5CHTO   C89 1871   5.157   2.674   2.045 -0.1240 -0.1917 -0.5556
    5CHTO   O59 1872   5.123   2.663   2.184  0.2524 -0.0892 -0.6751
    5CHTO  H137 1873   5.035   2.682   2.209  0.5213 -0.5120  0.6784
    5CHTO   O45 1874   5.576   2.862   2.186  0.0968  0.0572 -0.0687
    5CHTO   C67 1875   5.614   2.803   2.311 -0.9605  0.3316 -0.3387
    5CHTO  H124 1876   5.588   2.697   2.310 -2.3284  0.6630 -2.0841
    5CHTO   C65 1877   5.770   2.820   2.333 -1.0485 -0.5767 -0.0084
    5CHTO  H122 1878   5.812   2.786   2.238 -0.8550  2.3708 -1.0363
    5CHTO   O44 1879   5.810   2.738   2.441 -0.1663  0.2105 -0.4715
    5CHTO  H102 1880   5.770   2.763   2.522  0.1663 -0.3925 -0.1149
    5CHTO   C63 1881   5.807   2.972   2.357 -0.3806 -0.2379  0.6916
    5CHTO  H120 1882   5.761   3.032   2.279  0.3834 -0.5957 -0.0392
    5CHTO   N11 1883   5.951   3.011   2.342 -0.1384  0.4036 -0.2161
    5CHTO  H108 1884   5.961   3.117   2.355 -2.1215  0.5783  0.0625
    5CHTO  H109 1885   5.971   2.990   2.239  1.8352  1.0191  0.0267
    5CHTO   C61 1886   5.735   3.018   2.491 -0.6240 -0.3246 -0.5239
    5CHTO  H118 1887   5.749   3.127   2.488  2.7437 -0.7423 -3.0640
    5CHTO   O40 1888   5.587   2.991   2.486 -0.0891 -0.2161  0.6654
    5CHTO   C68 1889   5.529   2.870   2.431  0.6108  0.2293  0.0911
    5CHTO  H125 1890   5.429   2.898   2.391  0.7752  2.4671  1.1771
    5CHTO   C72 1891   5.493   2.777   2.547  0.1110  0.3267  0.0349
    5CHTO   O48 1892   5.394   2.837   2.629  0.1013 -0.0269  0.3732
    5CHTO  H105 1893   5.320   2.871   2.582 -0.1282 -0.5119  0.3759
    5CHTO   O38 1894   5.796   2.959   2.609  0.1837 -0.8570 -0.6959
    5CHTO   C55 1895   5.787   3.045   2.721  0.0546  0.2504  0.3108
    5CHTO  H112 1896   5.694   3.104   2.725 -0.8610 -1.2571  2.3797
    5CHTO   C56 1897   5.915   3.138   2.720  0.2664 -0.0353 -0.4423
    5CHTO  H113 1898   5.992   3.060   2.709 -0.8136 -0.8031 -2.8683
    5CHTO   O42 1899   5.917   3.228   2.605  0.1721 -0.1664 -0.2895
    5CHTO  H100 1900   5.964   3.182   2.538  1.5315  0.2344  0.3727
    5CHTO   C57 1901   5.942   3.221   2.854 -0.5835  0.0260 -0.2735
    5CHTO  H114 1902   5.853   3.278   2.880 -2.2114 -2.3237 -0.5352
    5CHTO   N10 1903   6.071   3.301   2.848  0.4929 -0.2204  0.0876
    5CHTO  H106 1904   6.145   3.248   2.789  1.6100  3.2387 -1.7969
    5CHTO  H107 1905   6.051   3.395   2.800 -0.3062  0.9948  2.7157
    5CHTO   C58 1906   5.945   3.114   2.966  0.2592  0.0298  1.1697
    5CHTO  H115 1907   6.024   3.039   2.947 -0.4944 -1.3263  3.2520
    5CHTO   O37 1908   5.812   3.063   2.966 -0.1221  0.2733  0.0131
    5CHTO   C59 1909   5.794   2.964   2.862 -0.5254 -0.1579  0.6321
    5CHTO  H116 1910   5.873   2.891   2.869  0.0240  0.6350  2.9126
    5CHTO   C70 1911   5.661   2.896   2.875 -0.2049  0.0386  0.6642
    5CHTO   O46 1912   5.646   2.820   2.996  0.2937  0.4142 -0.2920
    5CHTO  H103 1913   5.589   2.874   3.048  0.5392 -2.2446  2.8809
    5CHTO   O39 1914   5.987   3.172   3.109 -0.3454  0.1280 -0.0401
    5CHTO   C60 1915   5.886   3.234   3.188 -0.3767  0.4733  0.9397
    5CHTO  H117 1916   5.817   3.275   3.114  0.6027  0.9394  0.2657
    5CHTO   C62 1917   5.814   3.131   3.282  0.3836  0.2119 -0.9723
    5CHTO  H119 1918   5.776   3.047   3.221 -0.5199 -0.5248  0.5507
    5CHTO   O43 1919   5.915   3.067   3.368 -0.1370  0.1297  0.1733
    5CHTO  H101 1920   5.908   3.099   3.456  0.4300 -0.8168  0.5653
    5CHTO   C66 1921   5.696   3.202   3.370  0.5423 -0.5302 -0.3795
    5CHTO  H123 1922   5.620   3.245   3.304 -0.1619  0.7724  1.2399
    5CHTO   N12 1923   5.630   3.106   3.468 -0.4757 -0.0846 -0.5171
    5CHTO  H110 1924   5.523   3.101   3.454 -0.6314  1.0635  0.1630
    5CHTO  H111 1925   5.663   3.124   3.569 -0.2006 -1.4946 -0.3524
    5CHTO   C69 1926   5.750   3.330   3.441  0.1620 -0.6993 -0.3269
    5CHTO  H126 1927   5.824   3.288   3.513  0.5698 -0.6171 -0.6958
    5CHTO   O41 1928   5.822   3.429   3.356  0.3369 -0.4564 -0.1450
    5CHTO   C64 1929   5.939   3.357   3.267  0.0183 -0.0606  0.4997
    5CHTO  H121 1930   6.016   3.323   3.338  0.9672  1.5238  0.2444
    5CHTO   C71 1931   5.996   3.462   3.175  0.4940  0.4598 -0.1459
    5CHTO   O47 1932   5.910   3.525   3.076 -0.3950  0.0234  0.5444
    5CHTO  H104 1933   5.961   3.553   3.002  0.4481  1.0411  1.4992
    5CHTO   O34 1934   5.638   3.411   3.508 -0.4126  0.6789  0.0536
    5CHTO   C49 1935   5.525   3.513   3.484 -0.1057  0.1632  0.1059
    5CHTO   H91 1936   5.576   3.608   3.471 -1.2613  0.8681  0.6090
    5CHTO   C47 1937   5.435   3.530   3.609 -0.5649 -0.2621  0.4579
    5CHTO   H89 1938   5.371   3.615   3.577  0.8281  0.2119 -1.1789
    5CHTO   O33 1939   5.513   3.568   3.727 -0.5198  0.4725 -0.4980
    5CHTO   H70 1940   5.604   3.587   3.713 -0.4698  0.0289 -0.7731
    5CHTO   C45 1941   5.352   3.394   3.609  0.2884 -1.0767  0.8584
    5CHTO   H87 1942   5.428   3.315   3.616  1.7254 -0.1457 -3.0352
    5CHTO    N8 1943   5.262   3.398   3.728 -0.0376  0.0817 -0.3345
    5CHTO   H75 1944   5.222   3.297   3.733  0.6702 -0.2918 -1.7976
    5CHTO   H76 1945   5.189   3.477   3.717 -2.1536 -1.8257 -0.3556
    5CHTO   C43 1946   5.262   3.381   3.475  0.0977  0.3088  0.3061
    5CHTO   H85 1947   5.200   3.292   3.487 -0.2243  0.7303  1.9616
    5CHTO   O29 1948   5.347   3.374   3.359 -0.2842  0.2917 -0.8406
    5CHTO   C50 1949   5.445   3.482   3.358 -0.3984 -0.3486  0.7414
    5CHTO   H92 1950   5.529   3.456   3.291 -1.1405 -1.4989  0.2397
    5CHTO   C54 1951   5.385   3.606   3.285 -0.1544 -0.2344 -0.2209
    5CHTO   O36 1952   5.326   3.565   3.160  0.5414  0.7555  0.8138
    5CHTO   H72 1953   5.238   3.537   3.175  0.1773  0.4698 -1.7102
    5CHTO   O27 1954   5.171   3.495   3.461 -0.4008  0.3483  0.0078
    5CHTO   C37 1955   5.044   3.543   3.513  0.1838 -0.0053 -0.1633
    5CHTO   H79 1956   5.025   3.501   3.613 -3.2931 -0.4511 -0.9396
    5CHTO   C38 1957   5.032   3.698   3.528 -0.7938  0.1268  0.0150
    5CHTO   H80 1958   5.041   3.745   3.429 -1.3025 -2.2457 -1.1770
    5CHTO   O31 1959   5.146   3.743   3.610  0.1746  0.1749  0.4509
    5CHTO   H68 1960   5.126   3.722   3.699  1.1279  1.2072  0.9090
    5CHTO   C39 1961   4.892   3.749   3.582  0.1328  0.2351  0.5999
    5CHTO   H81 1962   4.891   3.723   3.687 -2.0623 -0.6025  0.3822
    5CHTO    N7 1963   4.870   3.895   3.574 -0.5924  0.9740  0.2856
    5CHTO   H73 1964   4.891   3.955   3.661  1.3773 -0.2728  0.6905
    5CHTO   H74 1965   4.776   3.923   3.529 -0.1022  0.9914 -0.7451
    5CHTO   C40 1966   4.771   3.676   3.506  0.5343 -0.1694  0.5807
    5CHTO   H82 1967   4.748   3.728   3.412  0.9485 -0.5694  0.2561
    5CHTO   O26 1968   4.802   3.533   3.483 -0.2944 -0.0979 -0.4905
    5CHTO   C41 1969   4.928   3.494   3.429  0.5402  0.4514  0.3559
    5CHTO   H83 1970   4.943   3.529   3.326 -0.1008 -2.2730 -0.6864
    5CHTO   C52 1971   4.930   3.340   3.416 -0.2710 -0.3919 -0.7447
    5CHTO   O35 1972   4.901   3.266   3.538 -0.1342 -0.4889 -0.4332
    5CHTO   H71 1973   4.850   3.321   3.594 -0.8445 -0.0118 -1.5395
    5CHTO   O28 1974   4.642   3.690   3.574 -0.6025  0.1303 -0.0532
    5CHTO   C42 1975   4.598   3.594   3.674  0.1764 -0.2440 -0.1852
    5CHTO   H84 1976   4.520   3.653   3.722 -0.0502 -2.1780  1.9296
    5CHTO   C44 1977   4.702   3.560   3.791  0.2876 -0.7883  0.5607
    5CHTO   H86 1978   4.797   3.529   3.746  1.4850 -0.7275  2.9435
    5CHTO   O32 1979   4.713   3.689   3.855 -0.1096 -0.4489  0.6736
    5CHTO   H69 1980   4.797   3.683   3.896  0.4368  1.3190 -0.1181
    5CHTO   C48 1981   4.643   3.453   3.885 -0.0600  0.8294  0.0314
    5CHTO   H90 1982   4.554   3.484   3.939  1.3435 -0.8628  3.4382
    5CHTO    N9 1983   4.749   3.436   3.995  0.3296 -0.5377  0.5087
    5CHTO   H77 1984   4.848   3.468   3.965  0.3285  0.0447  1.1051
    5CHTO   H78 1985   4.759   3.340   4.043  2.3889 -1.1939 -1.0879
    5CHTO   C51 1986   4.609   3.322   3.794  0.5680  0.5874  0.3285
    5CHTO   H93 1987   4.697   3.294   3.736  0.8314  1.7970  0.1157
    5CHTO   O30 1988   4.502   3.366   3.710 -0.3485  0.5307 -0.3200
    5CHTO   C46 1989   4.537   3.468   3.614 -0.0646  0.2722  0.0667
    5CHTO   H88 1990   4.602   3.416   3.543 -1.0131 -0.4784 -0.2559
    5CHTO   C53 1991   4.402   3.509   3.542  0.1339 -0.1824 -0.2238
    5CHTO   O72 1992   4.398   3.433   3.421 -0.1187 -0.2303 -0.2062
    5CHTO  H199 1993   4.337   3.362   3.423 -0.6526  0.2344  0.0427
    5CHTO   O22 1994   4.547   3.217   3.877 -0.1588  0.3428  0.7026
    5CHTO   C31 1995   4.598   3.082   3.849 -0.0372  0.2656 -0.1684
    5CHTO   H59 1996   4.538   3.019   3.917  0.1028 -0.0189 -0.3092
    5CHTO   C29 1997   4.568   3.025   3.703  0.3299 -0.8344  0.0058
    5CHTO   H57 1998   4.611   3.087   3.623 -0.4611  0.2006  0.3651
    5CHTO   O21 1999   4.427   3.037   3.697  0.3945 -0.3579 -0.2418
    5CHTO   H37 2000   4.415   3.120   3.657 -1.7365 -0.1878  0.6516
    5CHTO   C27 2001   4.613   2.877   3.690  0.6171 -0.6859 -0.0258
    5CHTO   H55 2002   4.563   2.821   3.771 -1.3149 -0.4835 -1.0317
    5CHTO    N5 2003   4.578   2.815   3.560  0.0490  0.1830  0.1775
    5CHTO   H43 2004   4.470   2.821   3.555  0.0952  0.4938 -0.4172
    5CHTO   H44 2005   4.613   2.713   3.557  0.6015  0.3703  0.1296
    5CHTO   C25 2006   4.766   2.885   3.703 -0.7052  0.2768 -0.4076
    5CHTO   H53 2007   4.814   2.962   3.641  0.4171 -0.9093 -1.0428
    5CHTO   O17 2008   4.790   2.925   3.845 -0.5521  0.2961 -0.2875
    5CHTO   C32 2009   4.749   3.053   3.890  0.0841  1.1347  0.3451
    5CHTO   H60 2010   4.815   3.126   3.842  1.3777 -0.7740 -0.8984
    5CHTO   C36 2011   4.765   3.054   4.042 -0.8990 -0.5151  0.4777
    5CHTO   O25 2012   4.720   2.938   4.113 -0.1736 -0.0598 -0.4393
    5CHTO   H40 2013   4.737   2.949   4.205  0.5062  1.1578 -0.6854
    5CHTO   O15 2014   4.842   2.736   3.677 -0.3267 -0.1317 -0.3892
    5CHTO   C19 2015   4.968   2.659   3.709 -0.5656  0.5230  0.5511
    5CHTO   H47 2016   5.017   2.720   3.787  1.2737  0.9119 -0.8685
    5CHTO   C20 2017   4.952   2.524   3.781  0.2666  0.1383  0.2805
    5CHTO   H48 2018   4.914   2.448   3.711 -1.3707  1.3564 -0.1754
    5CHTO   O19 2019   4.857   2.549   3.881 -0.1290 -0.0674  0.0206
    5CHTO   H35 2020   4.768   2.526   3.867  0.1689 -0.4180 -1.4022
    5CHTO   C21 2021   5.094   2.485   3.832  0.2303  0.0966 -0.4038
    5CHTO   H49 2022   5.132   2.562   3.900 -1.1390 -0.1379  0.6689
    5CHTO    N4 2023   5.097   2.356   3.908 -0.5927 -0.0484 -0.2267
    5CHTO   H41 2024   5.027   2.365   3.990 -1.0521 -1.4832 -0.4590
    5CHTO   H42 2025   5.198   2.339   3.943 -0.4150  1.0119 -0.2034
    5CHTO   C22 2026   5.194   2.490   3.715  0.0257  0.8240  0.8293
    5CHTO   H50 2027   5.183   2.407   3.645  1.0657  2.6632 -1.5541
    5CHTO   O14 2028   5.190   2.612   3.639 -1.2051 -0.8042  0.0129
    5CHTO   C23 2029   5.071   2.647   3.589  0.3053  0.1501  0.5284
    5CHTO   H51 2030   5.039   2.578   3.510 -1.9999  1.8799 -0.1406
    5CHTO   C34 2031   5.099   2.787   3.534  0.3980  0.4463  0.4605
    5CHTO   O23 2032   5.151   2.773   3.402  0.2975  0.2667  0.2266
    5CHTO   H38 2033   5.244   2.777   3.393  0.5017  1.1035  2.4547
    5CHTO   O16 2034   5.327   2.480   3.769 -0.2655  0.1378 -0.0075
    5CHTO   C24 2035   5.441   2.440   3.660 -0.1220 -0.8037 -0.3668
    5CHTO   H52 2036   5.412   2.462   3.557  0.6832 -0.6979 -0.5749
    5CHTO   C26 2037   5.477   2.292   3.667  0.4026  0.6211 -0.3939
    5CHTO   H54 2038   5.498   2.265   3.773 -0.1265 -2.2851 -0.9769
    5CHTO   O20 2039   5.366   2.202   3.639 -0.4623 -0.0598 -0.2724
    5CHTO   H36 2040   5.396   2.119   3.607  2.5238  0.1569  1.6963
    5CHTO   C30 2041   5.604   2.257   3.579  0.4910 -0.7942 -0.6982
    5CHTO   H58 2042   5.572   2.262   3.474 -0.5949  1.8077 -0.2829
    5CHTO    N6 2043   5.657   2.116   3.596 -0.0933 -0.2804  0.3008
    5CHTO   H45 2044   5.693   2.102   3.697  1.7895  0.5830 -0.2430
    5CHTO   H46 2045   5.574   2.049   3.579 -0.7571  0.5400  0.2626
    5CHTO   C33 2046   5.719   2.366   3.607  0.9098  0.3079 -0.0879
    5CHTO   H61 2047   5.754   2.347   3.710 -0.6513  0.3574  0.4680
    5CHTO   O18 2048   5.660   2.493   3.597  0.0298 -0.1742  0.3781
    5CHTO   C28 2049   5.568   2.528   3.696 -0.0344  0.0160  0.0670
    5CHTO   H56 2050   5.605   2.507   3.796  1.6162 -0.9990 -0.7352
    5CHTO   C35 2051   5.549   2.684   3.690  1.1507  0.3451 -0.4788
    5CHTO   O24 2052   5.662   2.755   3.744  0.0526  0.5805  0.5004
    5CHTO   H39 2053   5.738   2.704   3.728  0.8250  1.9116 -0.1688
    5CHTO    O9 2054   5.834   2.359   3.529 -0.3889 -0.0428  0.1143
    5CHTO   C13 2055   5.803   2.404   3.367 -1.0325 -0.1557 -0.0323
    5CHTO   H26 2056   5.703   2.365   3.340  0.4344 -1.0790 -4.6580
    5CHTO   C11 2057   5.916   2.329   3.278  0.0346 -0.1161  0.0252
    5CHTO   H24 2058   5.899   2.221   3.284  2.1341 -0.4808 -0.1213
    5CHTO    O8 2059   6.051   2.361   3.322 -0.0246  0.2092  0.3201
    5CHTO    H3 2060   6.063   2.308   3.398  0.0873 -0.5724 -0.2376
    5CHTO    C9 2061   5.899   2.375   3.132  0.2408 -0.3929 -0.4276
    5CHTO   H22 2062   5.797   2.357   3.096  0.6734  2.2040 -3.1781
    5CHTO    N2 2063   5.987   2.304   3.032 -0.8145 -0.0928 -0.3892
    5CHTO   H10 2064   6.091   2.318   3.058 -0.7863  0.1115 -0.6043
    5CHTO   H11 2065   5.964   2.199   3.039 -2.5843  0.4756  4.0275
    5CHTO    C7 2066   5.905   2.534   3.121  0.3278 -0.4120  0.5573
    5CHTO   H20 2067   5.859   2.553   3.022 -1.0193  1.5727  1.5440
    5CHTO    O4 2068   5.814   2.602   3.210 -0.0762 -0.0572 -0.3287
    5CHTO   C14 2069   5.805   2.558   3.349  0.0222  0.2093  0.9791
    5CHTO   H27 2070   5.701   2.586   3.374 -0.9529  0.1944 -2.6916
    5CHTO   C18 2071   5.898   2.652   3.427  0.1391  0.3682  0.4361
    5CHTO   O13 2072   5.844   2.784   3.461 -0.0244  0.4022 -0.2262
    5CHTO    H7 2073   5.907   2.854   3.463 -0.0967  0.4430  0.6899
    5CHTO    O2 2074   6.068   2.607   3.148 -0.5602  0.6776  0.3161
    5CHTO    C1 2075   6.110   2.710   3.053  0.2071  0.0091  0.1570
    5CHTO   H14 2076   6.033   2.789   3.059 -1.1355 -1.3762  1.6308
    5CHTO    C2 2077   6.129   2.666   2.893  0.3691  0.0513 -0.1339
    5CHTO   H15 2078   6.203   2.585   2.883 -2.1178 -2.5675  1.8406
    5CHTO    O6 2079   6.005   2.628   2.832  0.1020  0.7102 -0.2733
    5CHTO    H1 2080   5.954   2.564   2.878  2.0740  0.2487  1.3693
    5CHTO    C3 2081   6.187   2.795   2.819 -0.5552  0.5566 -0.2335
    5CHTO   H16 2082   6.111   2.873   2.833 -2.1288 -0.7703 -1.2613
    5CHTO    N1 2083   6.197   2.773   2.676  0.1072  0.1590 -0.2247
    5CHTO    H8 2084   6.287   2.716   2.659 -0.9180 -1.6098  0.1414
    5CHTO    H9 2085   6.201   2.874   2.639  0.8312  0.9790  2.0094
    5CHTO    C4 2086   6.319   2.847   2.884  0.2694  0.1227  0.2954
    5CHTO   H17 2087   6.391   2.766   2.875 -0.1861 -0.2879  0.3574
    5CHTO    O1 2088   6.304   2.874   3.024 -0.5464  0.0691  0.2121
    5CHTO    C5 2089   6.250   2.765   3.103 -0.0918 -0.0404 -0.2843
    5CHTO   H18 2090   6.324   2.685   3.108 -2.4749 -2.2107  1.9903
    5CHTO   C16 2091   6.230   2.823   3.246 -0.1527 -0.1887 -0.5933
    5CHTO   O11 2092   6.347   2.894   3.285  0.0549  0.0989 -0.2532
    5CHTO    H5 2093   6.361   2.962   3.223  0.6549  0.3074  0.1109
    5CHTO    O3 2094   6.365   2.975   2.835  0.2741 -0.0755  0.5132
    5CHTO    C6 2095   6.510   2.989   2.840  0.1696  0.6569  0.1265
    5CHTO   H19 2096   6.561   2.917   2.903 -0.8003 -0.0712  0.0943
    5CHTO    C8 2097   6.569   2.979   2.703 -0.2580 -0.3990  0.2391
    5CHTO   H21 2098   6.504   3.035   2.635  0.7986  0.3239 -0.1773
    5CHTO    O7 2099   6.566   2.834   2.670  0.5102 -0.0785  0.1648
    5CHTO    H2 2100   6.602   2.811   2.586  1.7161 -2.7714  1.3721
    5CHTO   C12 2101   6.720   3.021   2.689  0.1427 -0.3380 -0.6254
    5CHTO   H25 2102   6.786   2.940   2.724  1.0478  0.5700 -0.1936
    5CHTO    N3 2103   6.750   3.034   2.537  0.0010 -0.4747 -0.3543
    5CHTO   H12 2104   6.838   2.982   2.503  1.6101  1.8950  0.0245
    5CHTO   H13 2105   6.752   3.140   2.514 -2.2998 -0.3368 -0.0501
    5CHTO   C15 2106   6.754   3.153   2.773  0.5440 -0.2401 -0.2642
    5CHTO   H28 2107   6.736   3.244   2.715 -2.1731 -0.9484 -0.5778
    5CHTO   O10 2108   6.903   3.157   2.806 -1.2913 -0.4897  0.0813
    5CHTO    H4 2109   6.934   3.092   2.866  1.2033 -0.7322 -1.4203
    5CHTO    O5 2110   6.682   3.150   2.900  0.6104 -0.5870  0.3685
    5CHTO   C10 2111   6.539   3.126   2.901 -0.1298  0.2143 -0.3026
    5CHTO   H23 2112   6.503   3.208   2.838  0.7733  0.8464 -0.0171
    5CHTO   C17 2113   6.494   3.137   3.051 -0.7276 -0.2606  0.4181
    5CHTO   O12 2114   6.542   3.260   3.112  0.0479 -0.2093 -0.8038
    5CHTO    H6 2115   6.624   3.248   3.154 -0.6686  0.6295  0.8950
    6CHTO  H203 2116   3.662   4.864   0.798  1.2034  0.4272  1.3451
    6CHTO   O82 2117   3.716   4.793   0.771 -0.1764 -0.1899  0.1497
    6CHTO  C123 2118   3.845   4.848   0.744 -0.9767  0.8438 -0.1690
    6CHTO  H227 2119   3.847   4.877   0.638 -0.8041 -0.2658 -0.4727
    6CHTO   O77 2120   3.862   4.960   0.828 -0.2258  0.1871 -0.2335
    6CHTO  C118 2121   3.987   5.030   0.813 -0.0170 -1.2298 -1.0400
    6CHTO  H222 2122   3.998   5.061   0.708  0.3073  1.4704 -0.2508
    6CHTO  C125 2123   3.970   5.163   0.900 -0.3280 -0.1257 -0.7991
    6CHTO   O84 2124   3.867   5.241   0.850  0.7155  0.5737 -0.1864
    6CHTO  H205 2125   3.783   5.206   0.872  1.2896  0.5082  2.0282
    6CHTO  C114 2126   4.103   4.935   0.858  0.3269 -0.8341  0.2638
    6CHTO  H218 2127   4.080   4.896   0.957  0.1466  0.5875  0.7916
    6CHTO  C116 2128   4.102   4.807   0.769 -0.2892  0.3594 -0.0282
    6CHTO  H220 2129   4.142   4.835   0.670 -2.1889  1.7341 -0.4305
    6CHTO   O79 2130   4.204   4.727   0.821  0.0186 -0.0333 -1.1710
    6CHTO  H201 2131   4.193   4.701   0.911 -0.5661 -0.8163 -1.4638
    6CHTO  C120 2132   3.961   4.741   0.762  0.6493 -0.5146  0.1528
    6CHTO  H224 2133   3.946   4.697   0.863  1.6718 -1.4342 -0.0893
    6CHTO   N21 2134   3.952   4.630   0.670 -0.0253  0.0889  0.2204
    6CHTO  H211 2135   3.873   4.563   0.702  0.8322 -1.3737 -0.6790
    6CHTO  H212 2136   3.914   4.677   0.580  0.2168 -0.5914 -0.2346
    6CHTO   O75 2137   4.225   5.012   0.855 -0.5299  0.2251  0.4550
    6CHTO  C112 2138   4.319   4.975   0.993 -0.3927  0.0314 -0.1975
    6CHTO  H216 2139   4.313   4.866   1.005  0.1571  0.2969  2.8816
    6CHTO   O73 2140   4.253   5.042   1.102 -0.4189  0.2243  0.2901
    6CHTO  C113 2141   4.323   5.041   1.227 -0.2821 -0.0328  0.6670
    6CHTO  H217 2142   4.336   4.934   1.254 -1.1512 -0.6483 -1.2383
    6CHTO  C124 2143   4.225   5.103   1.329  0.0377 -0.1857  0.5849
    6CHTO   O83 2144   4.091   5.043   1.327  0.7017  0.4432  0.1313
    6CHTO  H204 2145   4.102   4.950   1.320 -0.1925  0.2293  1.4798
    6CHTO  C109 2146   4.464   5.100   1.217  0.2052  0.0179  0.1876
    6CHTO  H213 2147   4.451   5.207   1.196 -0.1776  0.2375  1.5274
    6CHTO  C110 2148   4.545   5.037   1.097 -0.3464 -0.3091  0.2303
    6CHTO  H214 2149   4.557   4.930   1.119 -0.1718 -0.6496 -1.4650
    6CHTO   O78 2150   4.677   5.090   1.069  0.3156  0.8636  0.0283
    6CHTO  H200 2151   4.737   5.066   1.138 -0.9512  0.5374  1.0287
    6CHTO  C111 2152   4.464   5.029   0.968 -0.5980  0.1838 -0.3229
    6CHTO  H215 2153   4.456   5.133   0.931 -0.2184  0.2410 -0.2452
    6CHTO   N19 2154   4.527   4.952   0.858 -0.2025 -0.1928 -0.4820
    6CHTO  H207 2155   4.612   5.004   0.815 -0.5246  0.9706  0.2759
    6CHTO  H208 2156   4.454   4.932   0.782  1.3296 -1.0975 -1.7616
    6CHTO   O74 2157   4.531   5.085   1.348 -0.2375  0.3976  0.1532
    6CHTO  C115 2158   4.649   5.176   1.375 -0.0613 -0.4619 -0.0232
    6CHTO  H219 2159   4.675   5.235   1.288 -1.0682  0.7797  0.5149
    6CHTO   O76 2160   4.621   5.289   1.492 -1.0626 -0.3197 -0.6923
    6CHTO  C122 2161   4.572   5.223   1.610 -0.5588 -0.2478  0.2274
    6CHTO  H226 2162   4.465   5.203   1.599 -0.6417  0.1191  0.3721
    6CHTO  C126 2163   4.577   5.322   1.729  0.4783  0.4070  0.2413
    6CHTO   O85 2164   4.494   5.434   1.711 -0.2053 -0.3272  0.5367
    6CHTO  H206 2165   4.507   5.518   1.750  0.9263 -0.1181 -0.2960
    6CHTO  C121 2166   4.655   5.089   1.646  0.2715  0.6870  0.3288
    6CHTO  H225 2167   4.676   5.105   1.754  2.0254  0.8329 -0.0279
    6CHTO   O81 2168   4.572   4.975   1.641  0.0951  0.3906 -0.5198
    6CHTO  H202 2169   4.525   4.961   1.561 -0.1715  1.6283 -0.5867
    6CHTO  C119 2170   4.789   5.077   1.563  0.3386  0.5883  0.0567
    6CHTO  H223 2171   4.852   5.161   1.595  1.5205  0.8619 -2.7706
    6CHTO  C117 2172   4.769   5.082   1.408 -0.0685  0.4153  0.2749
    6CHTO  H221 2173   4.749   4.984   1.364 -0.8060  0.1105  1.2614
    6CHTO   N20 2174   4.893   5.134   1.340 -0.9531 -0.5397 -0.5811
    6CHTO  H209 2175   4.909   5.235   1.375 -0.0874 -0.6862 -0.5382
    6CHTO  H210 2176   4.877   5.135   1.233  1.4391 -1.9796 -0.9913
    6CHTO   O80 2177   4.882   4.947   1.607  0.0495 -0.3895 -0.7515
    6CHTO  C103 2178   4.960   4.946   1.741 -0.0170 -0.3888  0.1938
    6CHTO  H190 2179   5.039   4.871   1.728 -1.0887 -1.0287 -3.3220
    6CHTO  C101 2180   5.024   5.078   1.799  0.2197 -0.5595 -0.4108
    6CHTO  H188 2181   4.943   5.152   1.797 -1.2864 -2.1799 -0.7978
    6CHTO   O68 2182   5.151   5.129   1.690 -0.1950 -0.1964 -0.3672
    6CHTO  H168 2183   5.222   5.069   1.675  2.0315  2.7732 -2.3552
    6CHTO   C99 2184   5.068   5.057   1.950 -0.2703  0.8308  0.4755
    6CHTO  H186 2185   5.130   4.965   1.952 -1.9150 -0.2710  2.1545
    6CHTO   N17 2186   5.141   5.170   2.010 -0.1319 -0.4595  0.4612
    6CHTO  H174 2187   5.231   5.194   1.954 -0.9584  2.7799  0.4115
    6CHTO  H175 2188   5.157   5.156   2.116  1.7086 -0.0952  0.2620
    6CHTO   C97 2189   4.939   5.026   2.028 -0.7711  0.2883  0.3780
    6CHTO  H184 2190   4.866   5.105   2.002 -3.1342 -1.0483  2.6296
    6CHTO   O64 2191   4.901   4.901   1.981  0.7454  0.2644  0.0656
    6CHTO  C104 2192   4.857   4.891   1.844  0.2322  0.1325  0.0862
    6CHTO  H191 2193   4.764   4.949   1.841  0.2460  0.1697  0.3351
    6CHTO  C108 2194   4.816   4.746   1.812  0.1104 -0.4387 -0.1348
    6CHTO   O71 2195   4.932   4.673   1.806 -0.1450  0.2131  0.3842
    6CHTO  H171 2196   4.938   4.592   1.855  1.6352 -1.0261 -1.7921
    6CHTO   O62 2197   4.959   4.989   2.167  0.1193 -0.1835 -0.2229
    6CHTO   C91 2198   4.851   5.029   2.249  0.3103 -0.0214 -0.2239
    6CHTO  H178 2199   4.856   5.137   2.265 -0.4803  0.0548 -0.4510
    6CHTO   C92 2200   4.869   4.973   2.394  0.1582 -0.7087 -0.3429
    6CHTO  H179 2201   4.973   4.990   2.427  0.4655 -2.0472 -0.5692
    6CHTO   O66 2202   4.779   5.044   2.486  0.4194  0.1537 -0.8237
    6CHTO  H166 2203   4.819   5.120   2.523  0.3130 -0.1603 -0.0311
    6CHTO   C93 2204   4.848   4.819   2.414  0.2013 -0.2519 -0.3318
    6CHTO  H180 2205   4.837   4.803   2.523 -3.3979 -0.1336 -0.6252
    6CHTO   N16 2206   4.959   4.729   2.364 -0.0918 -0.2739  0.0893
    6CHTO  H172 2207   5.033   4.718   2.442 -0.2957  1.3297  0.5264
    6CHTO  H173 2208   4.915   4.633   2.342  2.2920 -1.5440  0.6188
    6CHTO   C94 2209   4.710   4.784   2.342 -0.0740 -0.2269  0.0665
    6CHTO  H181 2210   4.727   4.729   2.250  0.2356  0.1489 -0.1026
    6CHTO   O61 2211   4.630   4.898   2.307 -0.0915  0.2928  0.2077
    6CHTO   C95 2212   4.690   4.984   2.206 -0.2688  0.1179 -0.0021
    6CHTO  H182 2213   4.699   4.928   2.112  2.0050  0.2305  0.1208
    6CHTO  C106 2214   4.589   5.097   2.181  0.2114  0.5201  0.5174
    6CHTO   O69 2215   4.473   5.038   2.119 -0.4574 -0.2981 -0.3040
    6CHTO  H169 2216   4.424   4.982   2.177  1.7716 -0.2173  1.7343
    6CHTO   O63 2217   4.625   4.699   2.432  0.7069  0.2364 -0.4142
    6CHTO   C96 2218   4.476   4.679   2.378 -0.6085  0.1642 -0.1112
    6CHTO  H183 2219   4.471   4.699   2.271  1.5757  0.1650 -0.2477
    6CHTO   C98 2220   4.377   4.773   2.462 -0.6146  0.3069  0.1625
    6CHTO  H185 2221   4.379   4.742   2.568 -1.5472 -0.2313  0.0326
    6CHTO   O67 2222   4.412   4.913   2.460  0.2912  0.3730  0.4668
    6CHTO  H167 2223   4.353   4.957   2.518 -0.8705 -2.1398  1.2635
    6CHTO  C102 2224   4.224   4.744   2.412  0.0927  0.5609  0.2735
    6CHTO  H189 2225   4.209   4.818   2.332 -0.2312  1.5237  1.2011
    6CHTO   N18 2226   4.121   4.786   2.512 -0.0306  0.2675 -0.3359
    6CHTO  H176 2227   4.163   4.753   2.605  0.3595  0.5840 -0.3982
    6CHTO  H177 2228   4.023   4.750   2.483 -0.8348  1.4398  0.8826
    6CHTO  C105 2229   4.211   4.601   2.353 -0.3348  0.7677 -0.3641
    6CHTO  H192 2230   4.107   4.569   2.360  0.0121 -0.9619 -2.3397
    6CHTO   O65 2231   4.298   4.500   2.414  0.5559 -0.5098  0.3257
    6CHTO  C100 2232   4.438   4.527   2.407 -0.0131 -0.2662  0.2588
    6CHTO  H187 2233   4.481   4.514   2.507 -0.6648  0.4177  0.6321
    6CHTO  C107 2234   4.504   4.430   2.305  0.2042 -0.1182  0.0670
    6CHTO   O70 2235   4.640   4.427   2.263  0.2704 -0.1093 -1.1156
    6CHTO  H170 2236   4.702   4.415   2.333  0.5116 -0.6751 -1.4194
    6CHTO   O57 2237   4.250   4.605   2.173  0.0661 -0.2775 -0.2844
    6CHTO   C85 2238   4.155   4.670   2.083 -0.0261 -0.3500  0.6257
    6CHTO  H157 2239   4.129   4.767   2.130  1.4887  0.6536 -0.5408
    6CHTO   C83 2240   4.023   4.588   2.076  0.2862 -0.2104 -0.3608
    6CHTO  H155 2241   3.982   4.596   2.177  1.2532  0.4573 -0.0089
    6CHTO   O56 2242   4.056   4.456   2.045 -0.6145  0.4644  0.3579
    6CHTO  H135 2243   3.989   4.425   1.987  1.9808 -2.6591 -1.1490
    6CHTO   C81 2244   3.921   4.653   1.982 -0.0744 -0.0434 -0.6711
    6CHTO  H153 2245   3.899   4.754   2.017 -0.7843 -0.5715  0.4277
    6CHTO   N14 2246   3.784   4.591   1.971  0.1031 -0.5017  0.1489
    6CHTO  H141 2247   3.714   4.639   2.036  1.0528 -0.4576  1.1573
    6CHTO  H142 2248   3.794   4.488   1.998  0.6967  0.0550  2.1360
    6CHTO   C79 2249   3.983   4.667   1.838  0.1027 -0.2186 -0.2660
    6CHTO  H151 2250   3.917   4.735   1.784 -1.1073 -1.3473 -0.2237
    6CHTO   O52 2251   4.110   4.749   1.842 -0.7097 -0.4814 -0.0521
    6CHTO   C86 2252   4.211   4.696   1.931  0.1888  0.0567  0.2976
    6CHTO  H158 2253   4.245   4.604   1.878 -0.1729  0.2497 -0.2772
    6CHTO   C90 2254   4.340   4.787   1.944 -0.4190 -0.7261  0.0922
    6CHTO   O60 2255   4.406   4.799   1.816  0.2526  0.1212  0.7187
    6CHTO  H138 2256   4.437   4.885   1.795  1.8907 -0.1958  1.7738
    6CHTO   O50 2257   4.005   4.544   1.758  0.5256 -0.3883  0.2098
    6CHTO   C73 2258   4.032   4.460   1.648  0.0337  0.3800 -0.6236
    6CHTO  H145 2259   3.938   4.441   1.595  0.5059  0.7338 -1.5967
    6CHTO   C74 2260   4.086   4.318   1.686  0.4398 -0.8632 -0.1968
    6CHTO  H146 2261   4.011   4.287   1.760  0.0966  0.8193  0.1702
    6CHTO   O54 2262   4.084   4.224   1.576  0.6117  0.2948 -0.1599
    6CHTO  H133 2263   4.133   4.272   1.512 -1.0406  1.8204 -0.3256
    6CHTO   C75 2264   4.231   4.335   1.752  0.1899  0.2417  0.4498
    6CHTO  H147 2265   4.223   4.409   1.833 -1.3089  0.4261  0.1524
    6CHTO   N13 2266   4.273   4.205   1.818 -0.3711 -0.0012  0.6362
    6CHTO  H139 2267   4.190   4.181   1.883  0.1286  0.3182  1.3973
    6CHTO  H140 2268   4.352   4.238   1.885  2.5450  1.1350 -3.1811
    6CHTO   C76 2269   4.329   4.405   1.644  0.2229  0.1897 -0.6275
    6CHTO  H148 2270   4.347   4.347   1.554  0.3278 -0.7637  0.0072
    6CHTO   O49 2271   4.270   4.537   1.614 -0.1715 -0.3374 -0.0433
    6CHTO   C77 2272   4.137   4.526   1.552  0.0535 -0.2820 -0.1445
    6CHTO  H149 2273   4.132   4.474   1.457  0.3379  1.7969 -1.3401
    6CHTO   C88 2274   4.096   4.667   1.507 -0.0814  0.2973  0.4301
    6CHTO   O58 2275   4.190   4.734   1.398 -0.3682  0.1346 -0.1178
    6CHTO  H136 2276   4.269   4.769   1.434  0.7906 -3.1115  0.6655
    6CHTO   O51 2277   4.491   4.445   1.728  0.5612 -0.0506 -0.1088
    6CHTO   C78 2278   4.628   4.481   1.629 -0.9135 -1.1319  0.1375
    6CHTO  H150 2279   4.710   4.527   1.687 -1.3672 -0.9119  0.6123
    6CHTO   C80 2280   4.588   4.576   1.514  0.2006 -0.1160  0.0877
    6CHTO  H152 2281   4.501   4.529   1.464  0.1201  0.4474 -0.3093
    6CHTO   O55 2282   4.543   4.691   1.581 -0.3032 -0.4756  0.4024
    6CHTO  H134 2283   4.453   4.702   1.557  0.1384  2.5355 -0.1133
    6CHTO   C84 2284   4.703   4.599   1.409 -0.1720  0.0312  1.0614
    6CHTO  H156 2285   4.779   4.666   1.448  0.1180  0.2594  0.1221
    6CHTO   N15 2286   4.642   4.662   1.282 -0.1368 -0.4387  0.4134
    6CHTO  H143 2287   4.568   4.595   1.242 -1.6087  0.5425  1.4569
    6CHTO  H144 2288   4.600   4.758   1.302 -0.6750 -0.1458 -1.8866
    6CHTO   C87 2289   4.768   4.463   1.377 -0.1507 -0.0703  0.1922
    6CHTO  H159 2290   4.699   4.403   1.318  1.1161  0.5694 -2.0202
    6CHTO   O53 2291   4.809   4.382   1.506  0.1633 -0.2294  0.0245
    6CHTO   C82 2292   4.694   4.353   1.586  0.7213 -0.0016  0.2553
    6CHTO  H154 2293   4.631   4.290   1.524  1.7878  1.8737 -2.8549
    6CHTO   C89 2294   4.741   4.266   1.701 -0.2060 -0.1804  0.0314
    6CHTO   O59 2295   4.805   4.152   1.656 -0.2352  0.0820  0.1491
    6CHTO  H137 2296   4.893   4.173   1.629  0.2131  0.4916  1.7913
    6CHTO   O45 2297   4.904   4.496   1.290 -0.1778  0.2328  0.1694
    6CHTO   C67 2298   5.032   4.485   1.353 -0.3014 -0.0566  0.4339
    6CHTO  H124 2299   5.042   4.380   1.381  1.0299 -0.3110 -0.9492
    6CHTO   C65 2300   5.148   4.532   1.253 -0.2660  0.3943 -0.0402
    6CHTO  H122 2301   5.125   4.490   1.155  0.6727  1.2667 -0.6436
    6CHTO   O44 2302   5.269   4.478   1.306  0.4545  0.5085 -0.3358
    6CHTO  H102 2303   5.287   4.495   1.397  1.2724 -2.8374  0.1841
    6CHTO   C63 2304   5.144   4.691   1.235 -0.1073  0.1729 -0.1004
    6CHTO  H120 2305   5.053   4.720   1.182 -1.8025 -2.3853  1.3007
    6CHTO   N11 2306   5.240   4.751   1.140  0.2571 -0.0666 -0.1579
    6CHTO  H108 2307   5.236   4.683   1.057 -0.4457 -0.5597  0.2715
    6CHTO  H109 2308   5.231   4.848   1.095  0.5805 -0.6607 -1.5377
    6CHTO   C61 2309   5.143   4.763   1.374 -0.5913 -0.4894  0.4689
    6CHTO  H118 2310   5.101   4.860   1.345  1.6466 -0.3178 -2.4846
    6CHTO   O40 2311   5.061   4.710   1.473 -0.2270  0.1326  0.2020
    6CHTO   C68 2312   5.045   4.560   1.488  0.2205 -0.6914  0.0732
    6CHTO  H125 2313   4.949   4.556   1.543 -0.4420  2.3713 -0.7863
    6CHTO   C72 2314   5.151   4.515   1.591 -0.1410 -0.0017 -0.2221
    6CHTO   O48 2315   5.132   4.381   1.640  0.4089 -0.1759  0.0192
    6CHTO  H105 2316   5.042   4.382   1.665  0.9214 -0.7822  2.0134
    6CHTO   O38 2317   5.271   4.786   1.441 -0.0234 -0.0834  0.1497
    6CHTO   C55 2318   5.306   4.911   1.503 -0.1469 -0.4522 -0.0288
    6CHTO  H112 2319   5.218   4.932   1.564 -0.3434 -0.7976 -0.1890
    6CHTO   C56 2320   5.339   5.023   1.401 -0.4251 -0.1429  0.1306
    6CHTO  H113 2321   5.409   4.987   1.323 -0.5181 -1.6097  0.7078
    6CHTO   O42 2322   5.223   5.075   1.327 -0.0956 -0.2616 -0.6002
    6CHTO  H100 2323   5.254   5.125   1.254  1.4298  0.0017  0.1883
    6CHTO   C57 2324   5.403   5.149   1.466  0.3968 -0.3773  0.0354
    6CHTO  H114 2325   5.318   5.183   1.525 -0.0642 -0.9499 -0.2980
    6CHTO   N10 2326   5.454   5.257   1.371 -0.1731  0.5246 -0.6862
    6CHTO  H106 2327   5.430   5.350   1.419  0.5416  0.6131 -0.4944
    6CHTO  H107 2328   5.405   5.246   1.276  1.5129 -0.9816 -1.4037
    6CHTO   C58 2329   5.515   5.107   1.565 -1.0037 -0.3464 -0.2398
    6CHTO  H115 2330   5.609   5.079   1.512 -2.0260 -0.0133 -2.2656
    6CHTO   O37 2331   5.471   5.004   1.658 -0.2162  0.0298  0.2700
    6CHTO   C59 2332   5.428   4.886   1.591  0.8556  0.8642  0.8153
    6CHTO  H116 2333   5.514   4.855   1.531 -1.5583 -0.5725 -2.0393
    6CHTO   C70 2334   5.410   4.782   1.698  0.3457  0.3104 -0.5038
    6CHTO   O46 2335   5.526   4.711   1.741  0.7806 -0.7631  0.3131
    6CHTO  H103 2336   5.497   4.630   1.778  0.5912 -0.4388  0.8880
    6CHTO   O39 2337   5.541   5.229   1.671 -0.3263 -0.0127  0.0517
    6CHTO   C60 2338   5.677   5.243   1.715 -0.4484 -0.2056 -0.1581
    6CHTO  H117 2339   5.727   5.148   1.731  0.3329 -0.0515 -1.6127
    6CHTO   C62 2340   5.765   5.309   1.602  0.1824 -0.4288  0.0491
    6CHTO  H119 2341   5.766   5.233   1.521  0.0338 -1.9423  1.4523
    6CHTO   O43 2342   5.697   5.430   1.563 -0.3139 -0.1263 -0.0932
    6CHTO  H101 2343   5.740   5.472   1.491 -1.2406 -1.8018 -1.6949
    6CHTO   C66 2344   5.910   5.329   1.648 -0.4157 -0.3685 -0.3102
    6CHTO  H123 2345   5.951   5.237   1.688 -1.8930  0.2762  2.8669
    6CHTO   N12 2346   5.997   5.388   1.540 -0.1986  0.2582  0.6337
    6CHTO  H110 2347   5.980   5.495   1.535  0.6954  0.4572  1.6673
    6CHTO  H111 2348   6.098   5.360   1.565  1.0061  3.0938 -0.8177
    6CHTO   C69 2349   5.906   5.417   1.774  0.1198  0.1036 -0.8270
    6CHTO  H126 2350   5.870   5.520   1.755 -0.9689  0.2994  1.9099
    6CHTO   O41 2351   5.823   5.354   1.879 -0.2362 -0.6197 -0.1769
    6CHTO   C64 2352   5.678   5.324   1.851  0.7316 -0.4489  0.0979
    6CHTO  H121 2353   5.614   5.413   1.836  0.0883 -0.9280 -0.0553
    6CHTO   C71 2354   5.626   5.229   1.967  0.1881  0.7117  0.0165
    6CHTO   O47 2355   5.480   5.218   1.955 -0.4709 -0.4071  0.5167
    6CHTO  H104 2356   5.441   5.195   2.038  0.4422 -2.8833  0.3160
    6CHTO   O34 2357   6.036   5.438   1.854  0.4369 -1.0206  0.3936
    6CHTO   C49 2358   6.196   5.436   1.830 -0.1482 -0.2395  0.1808
    6CHTO   H91 2359   6.219   5.438   1.724  1.3020 -0.0235  0.4876
    6CHTO   C47 2360   6.265   5.311   1.899  0.0358  0.1773 -0.6213
    6CHTO   H89 2361   6.372   5.313   1.871  0.0803  1.4912 -0.4000
    6CHTO   O33 2362   6.200   5.194   1.847 -0.0313  0.5087  0.5761
    6CHTO   H70 2363   6.262   5.124   1.837 -1.1179 -0.4005  0.1280
    6CHTO   C45 2364   6.248   5.326   2.061  0.7630 -0.0102 -0.1985
    6CHTO   H87 2365   6.144   5.329   2.094 -0.7147  0.6157 -4.5834
    6CHTO    N8 2366   6.305   5.205   2.124  0.2546 -0.6063  0.1093
    6CHTO   H75 2367   6.402   5.186   2.080  0.6730  2.2510 -0.3116
    6CHTO   H76 2368   6.315   5.215   2.231  1.3929 -1.5695  0.1049
    6CHTO   C43 2369   6.307   5.466   2.115  0.1595 -0.2500 -0.4377
    6CHTO   H85 2370   6.272   5.479   2.218  0.0301  0.2505 -0.5459
    6CHTO   O29 2371   6.261   5.577   2.031  0.5071 -0.0493  0.2607
    6CHTO   C50 2372   6.266   5.567   1.887  0.7881 -0.4275  0.1962
    6CHTO   H92 2373   6.212   5.655   1.848  1.2110 -0.4492 -0.4469
    6CHTO   C54 2374   6.407   5.588   1.829  0.0329  0.3225 -0.0700
    6CHTO   O36 2375   6.415   5.556   1.689 -0.4042 -0.2047  0.2807
    6CHTO   H72 2376   6.375   5.473   1.671 -3.3700  0.5630  2.8508
    6CHTO   O27 2377   6.443   5.476   2.105 -0.1230 -0.1745  0.3103
    6CHTO   C37 2378   6.575   5.451   2.157 -0.4478  0.2844  0.2023
    6CHTO   H79 2379   6.583   5.343   2.180  1.3723  0.4248  0.2823
    6CHTO   C38 2380   6.682   5.484   2.050 -0.7271  0.1399  0.4735
    6CHTO   H80 2381   6.672   5.590   2.020 -0.7013 -0.5044 -1.8790
    6CHTO   O31 2382   6.657   5.394   1.938  0.2657  0.5108  0.2455
    6CHTO   H68 2383   6.716   5.410   1.867 -1.1515  1.1364 -0.8068
    6CHTO   C39 2384   6.826   5.455   2.095  0.0888 -0.4955  0.4683
    6CHTO   H81 2385   6.829   5.346   2.104 -2.5100 -0.5729  0.6348
    6CHTO    N7 2386   6.936   5.495   2.000 -0.4270  0.5020  0.0493
    6CHTO   H73 2387   6.915   5.460   1.900  0.6537 -2.6790  0.8945
    6CHTO   H74 2388   6.947   5.603   1.993  1.4898  0.2429 -1.2329
    6CHTO   C40 2389   6.854   5.517   2.241  0.5485  0.1714 -0.1582
    6CHTO   H82 2390   6.868   5.625   2.235  3.3649 -0.1913 -0.7768
    6CHTO   O26 2391   6.744   5.479   2.327  0.0168  0.2874 -0.2651
    6CHTO   C41 2392   6.609   5.523   2.287 -0.0719 -0.3193 -0.4927
    6CHTO   H83 2393   6.605   5.632   2.272  1.4839 -0.5258 -2.7014
    6CHTO   C52 2394   6.516   5.480   2.404  0.6777 -1.1467 -0.4345
    6CHTO   O35 2395   6.491   5.340   2.433 -0.4009 -0.2919  0.0666
    6CHTO   H71 2396   6.421   5.306   2.380  0.0851 -2.1121  0.5471
    6CHTO   O28 2397   6.964   5.454   2.308 -1.3683  0.1654  0.3161
    6CHTO   C42 2398   7.023   5.532   2.421  0.8583  0.5873  0.2471
    6CHTO   H84 2399   6.958   5.617   2.443 -1.6248 -1.7381  2.3830
    6CHTO   C44 2400   7.163   5.590   2.382  0.3908 -0.3576  0.2561
    6CHTO   H86 2401   7.238   5.511   2.380  0.4572 -0.2803 -0.7630
    6CHTO   O32 2402   7.162   5.639   2.250 -0.4334  0.1207 -0.1676
    6CHTO   H69 2403   7.243   5.683   2.239  0.7719 -2.3238 -1.3691
    6CHTO   C48 2404   7.219   5.690   2.495 -0.8546  0.5476 -0.3269
    6CHTO   H90 2405   7.148   5.772   2.512 -2.0184 -0.5694  0.2792
    6CHTO    N9 2406   7.352   5.739   2.453 -0.4416 -0.0538  0.0941
    6CHTO   H77 2407   7.347   5.784   2.355  0.4730 -1.0457 -0.4219
    6CHTO   H78 2408   7.402   5.807   2.520 -1.9109 -0.6790  1.8652
    6CHTO   C51 2409   7.211   5.621   2.639 -0.4311  0.0891 -1.2006
    6CHTO   H93 2410   7.287   5.543   2.638 -0.8909 -0.4089  0.6304
    6CHTO   O30 2411   7.075   5.566   2.663 -0.5446 -0.8406 -0.2842
    6CHTO   C46 2412   7.038   5.458   2.561  0.0139 -0.1042  0.3900
    6CHTO   H88 2413   7.119   5.386   2.545  0.2172  0.0432  0.7547
    6CHTO   C53 2414   6.911   5.378   2.609  0.0095  1.2550 -0.1265
    6CHTO   O72 2415   6.795   5.458   2.602  0.3698  0.2482  0.1841
    6CHTO  H199 2416   6.765   5.494   2.684  0.8777 -1.0786  0.9666
    6CHTO   O22 2417   7.249   5.717   2.743 -0.2238  0.3602  0.1895
    6CHTO   C31 2418   7.171   5.758   2.859  0.3695 -0.3340  0.6288
    6CHTO   H59 2419   7.064   5.738   2.834  0.5728 -1.1748  0.4282
    6CHTO   C29 2420   7.197   5.686   2.990  0.4482 -0.3946 -0.0618
    6CHTO   H57 2421   7.305   5.705   3.000  0.1717  2.3181 -1.8980
    6CHTO   O21 2422   7.174   5.545   2.966 -0.2719 -0.0349 -0.3084
    6CHTO   H37 2423   7.227   5.520   2.893  0.9112 -1.5547  1.0335
    6CHTO   C27 2424   7.111   5.744   3.112 -0.8865  0.2063 -0.1144
    6CHTO   H55 2425   7.007   5.713   3.097 -0.2377 -1.4555 -1.2513
    6CHTO    N5 2426   7.157   5.696   3.248 -0.2801  0.0991 -0.4908
    6CHTO   H43 2427   7.155   5.588   3.254 -0.3801  0.1253  0.0418
    6CHTO   H44 2428   7.084   5.729   3.321 -1.9995 -0.1444 -2.0432
    6CHTO   C25 2429   7.114   5.902   3.107  0.0399  0.7227  0.5305
    6CHTO   H53 2430   7.212   5.941   3.140  0.4405  0.4094 -0.2875
    6CHTO   O17 2431   7.089   5.956   2.981 -0.6173  0.0000 -0.1483
    6CHTO   C32 2432   7.177   5.910   2.875  0.2268 -0.6143  0.1536
    6CHTO   H60 2433   7.279   5.942   2.897  0.8384 -3.5270  1.8847
    6CHTO   C36 2434   7.136   5.999   2.750 -0.1649 -0.2017  0.0790
    6CHTO   O25 2435   7.013   5.954   2.701  0.5563  0.2988  0.3577
    6CHTO   H40 2436   6.978   6.013   2.637  1.6119  2.0410  1.3733
    6CHTO   O15 2437   7.007   5.956   3.204  0.2338  0.3659 -0.1297
    6CHTO   C19 2438   6.915   6.057   3.266 -0.0633 -0.3041 -0.2167
    6CHTO   H47 2439   6.891   6.012   3.363  1.3439  1.6341  1.0517
    6CHTO   C20 2440   6.991   6.191   3.279  0.0658 -0.5508 -0.4132
    6CHTO   H48 2441   7.037   6.223   3.184  1.2332 -1.4137 -0.1465
    6CHTO   O19 2442   7.094   6.160   3.369 -0.3782 -0.2623  0.1350
    6CHTO   H35 2443   7.164   6.112   3.328  0.0405  0.3914  0.0924
    6CHTO   C21 2444   6.908   6.307   3.328 -0.3960 -0.2661 -0.6345
    6CHTO   H49 2445   6.881   6.289   3.432  0.6414 -2.2162 -0.6848
    6CHTO    N4 2446   6.981   6.439   3.323  0.3028  0.0412 -0.4477
    6CHTO   H41 2447   7.085   6.410   3.334  0.1467 -0.6419 -0.7504
    6CHTO   H42 2448   6.955   6.503   3.406  0.8737  1.1582 -1.1255
    6CHTO   C22 2449   6.773   6.308   3.253 -0.1948  0.0276 -0.2741
    6CHTO   H50 2450   6.796   6.337   3.151  2.2804 -1.2071 -0.1052
    6CHTO   O14 2451   6.706   6.180   3.255 -0.7197  0.5469  0.0643
    6CHTO   C23 2452   6.779   6.073   3.190 -1.2592 -0.4772 -0.0534
    6CHTO   H51 2453   6.793   6.097   3.083 -0.0770  0.2013  0.2451
    6CHTO   C34 2454   6.701   5.943   3.198 -0.4564  0.1991  0.8547
    6CHTO   O23 2455   6.751   5.851   3.098 -0.3125 -0.4039 -0.4045
    6CHTO   H38 2456   6.728   5.882   3.012  0.1433  1.2693  0.0617
    6CHTO   O16 2457   6.662   6.389   3.317 -0.7721 -0.4238 -0.0753
    6CHTO   C24 2458   6.541   6.454   3.206 -0.0533  0.3831  0.5096
    6CHTO   H52 2459   6.548   6.403   3.110  0.3195 -1.8575  1.6893
    6CHTO   C26 2460   6.556   6.606   3.196 -0.4107 -0.3712 -0.5874
    6CHTO   H54 2461   6.534   6.652   3.295  0.5119  1.3122 -1.1503
    6CHTO   O20 2462   6.699   6.627   3.167 -0.1636 -0.3316  0.1275
    6CHTO   H36 2463   6.720   6.689   3.099  0.4535 -2.7445 -1.9620
    6CHTO   C30 2464   6.449   6.656   3.092  0.0335 -0.1922 -0.5418
    6CHTO   H58 2465   6.455   6.615   2.990 -0.2693 -0.6267 -0.3847
    6CHTO    N6 2466   6.458   6.805   3.079 -0.1332 -0.1671 -0.7273
    6CHTO   H45 2467   6.450   6.851   3.176 -0.8466 -1.3835 -0.2055
    6CHTO   H46 2468   6.559   6.827   3.047  0.0979 -0.6887 -0.3622
    6CHTO   C33 2469   6.311   6.598   3.121 -0.2069  0.1104 -0.7928
    6CHTO   H61 2470   6.271   6.652   3.208 -0.1871  1.2588 -1.4696
    6CHTO   O18 2471   6.314   6.458   3.150  0.9934 -0.4315 -0.4516
    6CHTO   C28 2472   6.402   6.424   3.255 -0.1859  0.1187  0.1811
    6CHTO   H56 2473   6.386   6.474   3.351 -0.2351 -3.1441  1.9540
    6CHTO   C35 2474   6.384   6.270   3.281  0.7952  0.3193 -1.0614
    6CHTO   O24 2475   6.255   6.231   3.327 -0.1750 -0.3548  0.2423
    6CHTO   H39 2476   6.236   6.260   3.414 -1.7335 -2.8725  0.7999
    6CHTO    O9 2477   6.218   6.629   3.022  0.2305 -0.4160 -0.4021
    6CHTO   C13 2478   6.077   6.560   3.068 -0.0804  0.1547 -0.1362
    6CHTO   H26 2479   6.061   6.551   3.177  1.3533  3.6949  0.4191
    6CHTO   C11 2480   6.051   6.418   2.993 -0.3945  0.0861 -0.4553
    6CHTO   H24 2481   6.133   6.346   3.008 -0.3012  0.1733 -0.5405
    6CHTO    O8 2482   6.052   6.434   2.845 -0.3998 -0.1634 -0.3560
    6CHTO    H3 2483   6.138   6.442   2.809 -0.4517  2.3242 -0.0137
    6CHTO    C9 2484   5.914   6.361   3.047 -0.5228 -0.2471  0.2344
    6CHTO   H22 2485   5.935   6.348   3.154  1.0746  0.0645 -0.0293
    6CHTO    N2 2486   5.881   6.224   3.002 -0.5041 -0.0791  0.2640
    6CHTO   H10 2487   5.785   6.223   2.951 -0.1687  0.7685 -0.4040
    6CHTO   H11 2488   5.874   6.148   3.078  1.1102 -1.1288 -0.6271
    6CHTO    C7 2489   5.798   6.472   3.025  0.0911 -0.4415 -0.2750
    6CHTO   H20 2490   5.772   6.505   3.128 -0.1978  0.4437 -0.6218
    6CHTO    O4 2491   5.852   6.597   2.966 -0.0283  0.2528  0.3576
    6CHTO   C14 2492   5.965   6.659   3.033 -0.4866  0.3312 -0.0639
    6CHTO   H27 2493   5.920   6.705   3.124  0.8553 -0.3330  0.9350
    6CHTO   C18 2494   5.999   6.776   2.937  0.5400  0.1450  0.1087
    6CHTO   O13 2495   6.055   6.744   2.811 -0.4057  0.2466 -0.2230
    6CHTO    H7 2496   6.115   6.673   2.802  0.2375  0.3986  2.3922
    6CHTO    O2 2497   5.672   6.428   2.952  0.1436  0.3090  0.0333
    6CHTO    C1 2498   5.559   6.505   2.991 -0.5106  0.2329  0.1264
    6CHTO   H14 2499   5.588   6.608   3.021  0.9859 -0.2068  0.2108
    6CHTO    C2 2500   5.479   6.432   3.107 -0.2155 -0.3883 -0.3568
    6CHTO   H15 2501   5.448   6.331   3.075 -2.6770 -0.1092  1.0570
    6CHTO    O6 2502   5.562   6.431   3.224 -0.2958  1.3676 -0.0871
    6CHTO    H1 2503   5.642   6.387   3.205 -0.2997  0.5619  1.6167
    6CHTO    C3 2504   5.345   6.504   3.136 -0.4991  0.0344 -0.2245
    6CHTO   H16 2505   5.378   6.603   3.169 -0.3658 -0.1621  0.2297
    6CHTO    N1 2506   5.267   6.430   3.243  0.3649 -0.0847 -0.3196
    6CHTO    H8 2507   5.258   6.323   3.236 -0.6183 -0.0693  0.6532
    6CHTO    H9 2508   5.304   6.452   3.342  1.7765 -0.8801 -0.6536
    6CHTO    C4 2509   5.267   6.533   3.003 -1.0077  0.1095  0.4452
    6CHTO   H17 2510   5.219   6.441   2.969 -0.3665 -0.9360  2.2700
    6CHTO    O1 2511   5.352   6.594   2.899  0.0019 -0.0972 -0.0303
    6CHTO    C5 2512   5.477   6.530   2.864  0.2148 -0.1727  0.0806
    6CHTO   H18 2513   5.462   6.433   2.816  1.8774 -0.7055  0.6220
    6CHTO   C16 2514   5.557   6.624   2.770  0.4201 -0.5947 -0.3878
    6CHTO   O11 2515   5.501   6.656   2.645  0.1559 -0.0465  0.3779
    6CHTO    H5 2516   5.550   6.727   2.607 -0.5960  0.3690  0.1743
    6CHTO    O3 2517   5.162   6.630   3.024 -0.1232 -0.0016  0.4739
    6CHTO    C6 2518   5.052   6.634   2.929  0.3405  0.3076 -0.6081
    6CHTO   H19 2519   4.991   6.719   2.959  1.6665  1.1633 -0.2820
    6CHTO    C8 2520   5.094   6.652   2.781 -0.7288  0.7710  0.3726
    6CHTO   H21 2521   5.147   6.562   2.749 -0.1192  0.8474  1.1548
    6CHTO    O7 2522   5.176   6.768   2.779  0.5013  0.0873 -0.4422
    6CHTO    H2 2523   5.259   6.746   2.817  0.9740  1.2408 -0.7780
    6CHTO   C12 2524   4.976   6.668   2.686 -0.4836 -0.0566  0.3291
    6CHTO   H25 2525   4.927   6.764   2.712  0.4791 -0.0649  2.3201
    6CHTO    N3 2526   5.028   6.676   2.544  0.1708 -0.3424  0.0480
    6CHTO   H12 2527   5.078   6.771   2.552 -0.8688  0.0317  2.4188
    6CHTO   H13 2528   4.950   6.700   2.472  0.8785  0.9552 -0.2906
    6CHTO   C15 2529   4.871   6.554   2.713 -0.0111  0.0813  0.4576
    6CHTO   H28 2530   4.918   6.461   2.680 -1.0691 -0.5240  0.6446
    6CHTO   O10 2531   4.724   6.575   2.659 -0.2033 -0.0335 -0.4787
    6CHTO    H4 2532   4.722   6.647   2.599  2.5513  0.7977  0.3689
    6CHTO    O5 2533   4.842   6.550   2.857 -0.1799 -0.2339 -0.2012
    6CHTO   C10 2534   4.954   6.512   2.935  0.7783 -0.3049 -0.4549
    6CHTO   H23 2535   5.003   6.420   2.901  1.0556 -0.6502  0.8335
    6CHTO   C17 2536   4.896   6.486   3.079 -0.4951  0.5212 -0.0921
    6CHTO   O12 2537   4.883   6.599   3.170 -0.4230  0.4250 -0.0568
    6CHTO    H6 2538   4.963   6.614   3.216 -1.1503  2.1684  0.6953
    7CHTO  H203 2539   4.585   1.718   0.932  1.6266  1.0652  0.6790
    7CHTO   O82 2540   4.569   1.781   0.864  0.2189  0.4594  0.4286
    7CHTO  C123 2541   4.629   1.747   0.736 -0.0096  0.2277  1.0904
    7CHTO  H227 2542   4.563   1.692   0.667  0.6865 -0.1915  0.7480
    7CHTO   O77 2543   4.644   1.877   0.678 -0.1612 -0.1290  0.0635
    7CHTO  C118 2544   4.714   1.880   0.558  0.2342  0.4516 -0.3238
    7CHTO  H222 2545   4.647   1.838   0.481  0.3651 -0.3870  0.0158
    7CHTO  C125 2546   4.742   2.026   0.523  0.2187 -0.2428  0.3866
    7CHTO   O84 2547   4.622   2.102   0.502  0.1814 -0.0814  0.0076
    7CHTO  H205 2548   4.606   2.150   0.581 -1.0932  2.1708 -1.5682
    7CHTO  C114 2549   4.846   1.798   0.554  0.4200 -0.0735  0.1370
    7CHTO  H218 2550   4.919   1.846   0.620  0.9632  3.9183 -3.1989
    7CHTO  C116 2551   4.837   1.662   0.609 -0.0715 -0.1833 -0.1674
    7CHTO  H220 2552   4.775   1.595   0.545  3.0059 -4.5510  1.1875
    7CHTO   O79 2553   4.963   1.602   0.609  0.1611  0.2081  0.1472
    7CHTO  H201 2554   4.983   1.570   0.523 -2.2259  0.4386 -0.5163
    7CHTO  C120 2555   4.766   1.666   0.752  0.0480 -0.6541  0.3549
    7CHTO  H224 2556   4.835   1.719   0.822 -1.5711  0.6810  0.9883
    7CHTO   N21 2557   4.742   1.528   0.807 -0.0623 -0.1468  0.2087
    7CHTO  H211 2558   4.815   1.457   0.770 -1.2596 -1.1064 -0.3366
    7CHTO  H212 2559   4.745   1.534   0.914 -0.9991  2.3132  0.1345
    7CHTO   O75 2560   4.889   1.802   0.414 -0.9092  0.2192  0.7468
    7CHTO  C112 2561   5.044   1.856   0.383 -0.0183 -0.2056  0.4655
    7CHTO  H216 2562   5.118   1.775   0.394 -1.3269 -2.1055 -3.6217
    7CHTO   O73 2563   5.074   1.968   0.469 -0.0342  0.0069  0.0663
    7CHTO  C113 2564   5.189   2.035   0.441 -0.7497 -0.1379  0.0936
    7CHTO  H217 2565   5.269   1.958   0.433 -1.1042 -0.4793 -0.1766
    7CHTO  C124 2566   5.224   2.134   0.555  0.2016  0.7139 -0.0190
    7CHTO   O83 2567   5.135   2.237   0.588  1.0016 -0.5043 -0.1838
    7CHTO  H204 2568   5.101   2.207   0.670 -1.9060 -0.9987 -1.4798
    7CHTO  C109 2569   5.175   2.095   0.301  0.0525  0.2359  0.1906
    7CHTO  H213 2570   5.086   2.159   0.306 -0.2731 -0.3190  1.7151
    7CHTO  C110 2571   5.158   1.986   0.196  0.0841  0.5509  0.8781
    7CHTO  H214 2572   5.250   1.931   0.176  0.3730  1.1705  0.5015
    7CHTO   O78 2573   5.120   2.056   0.072  0.5261 -0.1432 -0.6941
    7CHTO  H200 2574   5.120   2.000  -0.003 -1.5371  0.1976 -0.9674
    7CHTO  C111 2575   5.044   1.891   0.228  0.1878  0.2505 -0.1525
    7CHTO  H215 2576   4.953   1.949   0.208 -0.2107 -0.3508 -0.0923
    7CHTO   N19 2577   5.034   1.767   0.148 -0.2647  0.3059 -0.1846
    7CHTO  H207 2578   5.133   1.728   0.131  0.0317  1.5695 -1.4947
    7CHTO  H208 2579   4.998   1.783   0.047  2.5605 -1.3820 -1.5153
    7CHTO   O74 2580   5.289   2.178   0.275  0.1520 -0.2974 -0.0919
    7CHTO  C115 2581   5.256   2.293   0.182  0.0936 -0.2343 -0.1456
    7CHTO  H219 2582   5.154   2.285   0.143 -1.4288  2.1698  3.0270
    7CHTO   O76 2583   5.256   2.445   0.264 -0.9645  0.0223 -0.2566
    7CHTO  C122 2584   5.384   2.469   0.315 -0.2558  0.3756 -0.1909
    7CHTO  H226 2585   5.419   2.382   0.371 -1.1869  0.2949  0.2643
    7CHTO  C126 2586   5.398   2.588   0.416 -0.3805  0.0644  0.7192
    7CHTO   O85 2587   5.346   2.551   0.543 -0.1576  0.3369  0.2368
    7CHTO  H206 2588   5.389   2.474   0.573  0.1656  1.3236  2.3973
    7CHTO  C121 2589   5.483   2.481   0.195 -0.2064 -0.2468 -0.1094
    7CHTO  H225 2590   5.446   2.557   0.123  1.2799  1.8152  1.2591
    7CHTO   O81 2591   5.611   2.523   0.236 -0.1896  0.2332 -0.1586
    7CHTO  H202 2592   5.682   2.462   0.224  0.1435  0.8842 -1.7101
    7CHTO  C119 2593   5.492   2.343   0.125  0.1477 -0.1985  0.2639
    7CHTO  H223 2594   5.560   2.360   0.041  1.5074 -0.2488  1.3298
    7CHTO  C117 2595   5.354   2.289   0.061 -0.1306  0.5440  0.4462
    7CHTO  H221 2596   5.339   2.188   0.023 -2.3301  0.9544  0.1693
    7CHTO   N20 2597   5.308   2.390  -0.048  0.2464  0.0883 -0.2469
    7CHTO  H209 2598   5.253   2.472  -0.003  0.9618  1.4577 -1.8237
    7CHTO  H210 2599   5.392   2.415  -0.110 -1.0320  0.2272 -1.9752
    7CHTO   O80 2600   5.567   2.251   0.199  0.1075  0.3251 -0.6623
    7CHTO  C103 2601   5.619   2.124   0.141 -0.4194 -0.9963 -1.0871
    7CHTO  H190 2602   5.534   2.073   0.095 -1.5738  0.7635 -0.9607
    7CHTO  C101 2603   5.742   2.133   0.038 -0.2472 -0.6057 -0.1375
    7CHTO  H188 2604   5.805   2.217   0.066  1.8935 -1.0421 -3.4117
    7CHTO   O68 2605   5.678   2.166  -0.088 -0.0068 -0.1895 -0.4618
    7CHTO  H168 2606   5.720   2.127  -0.162 -2.6144 -0.8976 -1.6369
    7CHTO   C99 2607   5.828   2.001   0.024 -0.3659 -0.3504 -0.4069
    7CHTO  H186 2608   5.777   1.937  -0.051  2.0809  1.4568 -3.7804
    7CHTO   N17 2609   5.959   2.026  -0.035 -0.2026  0.0791 -0.4085
    7CHTO  H174 2610   6.011   2.110   0.007 -0.5057 -0.8815  1.9679
    7CHTO  H175 2611   5.951   2.030  -0.143 -0.1169 -1.9545 -0.5165
    7CHTO   C97 2612   5.843   1.919   0.155 -0.3795  0.2321  0.4839
    7CHTO  H184 2613   5.928   1.967   0.205 -0.3114  0.5383  0.0806
    7CHTO   O64 2614   5.726   1.914   0.233  0.6397  0.3827 -0.2204
    7CHTO  C104 2615   5.667   2.044   0.264  0.1574  0.7369 -0.9439
    7CHTO  H191 2616   5.737   2.107   0.318 -1.5709  1.1574  0.8540
    7CHTO  C108 2617   5.552   2.024   0.368  0.3042 -0.4971 -0.1582
    7CHTO   O71 2618   5.603   1.947   0.480  0.0180 -0.4742 -0.1750
    7CHTO  H171 2619   5.536   1.900   0.524  0.2576  0.5496  1.3246
    7CHTO   O62 2620   5.875   1.781   0.142 -0.3321  0.3474 -0.2951
    7CHTO   C91 2621   5.848   1.699   0.023 -0.3909  0.5874  0.3868
    7CHTO  H178 2622   5.877   1.747  -0.070  1.5241 -3.4108 -1.1727
    7CHTO   C92 2623   5.694   1.663   0.008 -0.9328 -0.3221  0.1635
    7CHTO  H179 2624   5.637   1.757   0.015  1.9944  1.4967  0.3062
    7CHTO   O66 2625   5.676   1.618  -0.126  0.2399 -0.5271 -0.3110
    7CHTO  H166 2626   5.760   1.597  -0.161  1.3370  2.0280  0.6799
    7CHTO   C93 2627   5.639   1.553   0.102 -0.4183  0.3297  0.0459
    7CHTO  H180 2628   5.567   1.490   0.048  0.4022 -2.4273  2.0732
    7CHTO   N16 2629   5.574   1.608   0.227  0.1910  0.2952  0.2249
    7CHTO  H172 2630   5.540   1.524   0.286 -2.4960  1.6651  0.6704
    7CHTO  H173 2631   5.649   1.659   0.286 -0.0244  0.5967  0.2373
    7CHTO   C94 2632   5.763   1.458   0.137 -1.1055 -0.0202  0.3954
    7CHTO  H181 2633   5.826   1.495   0.218  0.4527 -0.0145 -0.8006
    7CHTO   O61 2634   5.849   1.451   0.022  0.3793  0.1058  0.1786
    7CHTO   C95 2635   5.933   1.569   0.014  0.6542  0.1685 -0.2722
    7CHTO  H182 2636   6.003   1.563   0.098  1.5734  1.2074 -0.9441
    7CHTO  C106 2637   6.022   1.574  -0.119  0.3339  0.1548  1.0697
    7CHTO   O69 2638   6.121   1.471  -0.110 -0.1227 -0.6559 -0.5520
    7CHTO  H169 2639   6.190   1.509  -0.059 -1.3183 -1.3430  1.6181
    7CHTO   O63 2640   5.704   1.310   0.173 -0.0789  0.2919 -0.0863
    7CHTO   C96 2641   5.720   1.277   0.326 -0.6344  0.3555 -0.5106
    7CHTO  H183 2642   5.717   1.377   0.369 -0.0176  0.7587 -1.4164
    7CHTO   C98 2643   5.858   1.214   0.372 -0.0109  0.0943 -0.4777
    7CHTO  H185 2644   5.939   1.282   0.342  1.3600 -2.3484 -2.4404
    7CHTO   O67 2645   5.869   1.220   0.516 -0.0048 -0.1951 -0.3113
    7CHTO  H167 2646   5.889   1.307   0.544 -2.8867  0.4672 -0.1632
    7CHTO  C102 2647   5.868   1.059   0.328 -0.5932  0.3708 -0.0796
    7CHTO  H189 2648   5.937   1.013   0.401  0.0233 -0.4975 -1.1839
    7CHTO   N18 2649   5.935   1.047   0.196 -0.3138 -0.1720  0.6695
    7CHTO  H176 2650   5.904   0.949   0.165  0.2277  0.2445 -1.3075
    7CHTO  H177 2651   6.043   1.053   0.198 -0.3109  0.5938 -0.6360
    7CHTO  C105 2652   5.725   0.992   0.331  0.4702  0.4563  0.1457
    7CHTO  H192 2653   5.682   0.995   0.231 -3.2201 -2.1573  1.5613
    7CHTO   O65 2654   5.628   1.057   0.412 -0.4040  0.0074  0.0431
    7CHTO  C100 2655   5.602   1.194   0.384  0.4613 -0.2203  0.5195
    7CHTO  H187 2656   5.519   1.203   0.313  0.1492 -0.8292  0.8042
    7CHTO  C107 2657   5.536   1.250   0.509  0.4085  0.5554 -0.1135
    7CHTO   O70 2658   5.413   1.200   0.562 -0.1453 -0.4223  0.1125
    7CHTO  H170 2659   5.350   1.269   0.565 -0.6188 -0.8220 -0.4547
    7CHTO   O57 2660   5.744   0.841   0.374  0.1429  0.0933 -0.4938
    7CHTO   C85 2661   5.708   0.735   0.286 -0.3070  0.3707  0.3749
    7CHTO  H157 2662   5.703   0.786   0.188 -2.3789 -0.5423 -0.0370
    7CHTO   C83 2663   5.563   0.682   0.316  0.2293  0.8205 -0.5654
    7CHTO  H155 2664   5.493   0.763   0.297 -2.2549 -1.4490 -1.3295
    7CHTO   O56 2665   5.560   0.662   0.459  0.5599 -0.2176 -0.6188
    7CHTO  H135 2666   5.521   0.740   0.494  0.4400 -0.8839  0.7717
    7CHTO   C81 2667   5.527   0.559   0.225 -0.2093  0.1069 -0.3950
    7CHTO  H153 2668   5.529   0.591   0.120  0.0584 -0.1830 -0.4769
    7CHTO   N14 2669   5.391   0.507   0.249 -0.6250  0.0464 -0.2673
    7CHTO  H141 2670   5.361   0.448   0.165 -0.9257  1.9251 -1.4901
    7CHTO  H142 2671   5.405   0.448   0.337  1.1246  1.5613  0.5042
    7CHTO   C79 2672   5.639   0.445   0.241  0.0633  0.0292 -0.2842
    7CHTO  H151 2673   5.607   0.367   0.173 -0.1730  1.4843 -1.8645
    7CHTO   O52 2674   5.767   0.498   0.200 -0.2674  0.3209  0.6774
    7CHTO   C86 2675   5.809   0.616   0.286 -0.0409  0.2103 -0.4619
    7CHTO  H158 2676   5.821   0.581   0.390  1.0687 -0.4483 -0.8026
    7CHTO   C90 2677   5.948   0.651   0.239 -0.0767  0.1599 -0.0564
    7CHTO   O60 2678   6.035   0.580   0.336 -0.3608  0.3529 -0.4130
    7CHTO  H138 2679   6.127   0.595   0.329 -0.4934 -0.1876 -4.1165
    7CHTO   O50 2680   5.642   0.397   0.370  0.4419  0.2962  0.3959
    7CHTO   C73 2681   5.671   0.278   0.447  0.6671 -0.2042  1.0430
    7CHTO  H145 2682   5.771   0.247   0.414  1.1308  1.9582  0.3084
    7CHTO   C74 2683   5.566   0.163   0.416  0.0600  0.1992 -0.0941
    7CHTO  H146 2684   5.564   0.140   0.309 -1.6040  0.5411 -0.1515
    7CHTO   O54 2685   5.623   0.044   0.478 -0.1563  0.3433  0.6630
    7CHTO  H133 2686   5.702   0.034   0.428 -1.8289 -0.6026 -1.9008
    7CHTO   C75 2687   5.423   0.201   0.470 -0.2423  0.7478  0.1279
    7CHTO  H147 2688   5.379   0.284   0.414  0.7362  1.1827 -0.0122
    7CHTO   N13 2689   5.312   0.101   0.446  0.2153  0.4724  0.5774
    7CHTO  H139 2690   5.222   0.157   0.468  0.5189  0.3719  2.1093
    7CHTO  H140 2691   5.318   0.028   0.525  0.6395  1.2208  1.2414
    7CHTO   C76 2692   5.435   0.230   0.631  0.2465  0.1896  0.3652
    7CHTO  H148 2693   5.457   0.141   0.689 -0.8853 -0.4861 -0.2074
    7CHTO   O49 2694   5.541   0.328   0.649 -0.1760  0.0278  0.5481
    7CHTO   C77 2695   5.676   0.305   0.595 -0.5144  0.0267  0.3066
    7CHTO  H149 2696   5.720   0.218   0.644  1.3248  2.1112  2.4621
    7CHTO   C88 2697   5.777   0.412   0.629  0.5194 -0.3199 -0.0704
    7CHTO   O58 2698   5.769   0.443   0.759  0.5931  0.6855 -0.1284
    7CHTO  H136 2699   5.810   0.368   0.798 -2.9276 -0.0991  2.3447
    7CHTO   O51 2700   5.291   0.287   0.692  0.3141 -0.2856 -0.2308
    7CHTO   C78 2701   5.262   0.245   0.834  0.1761 -0.9086  0.5430
    7CHTO  H150 2702   5.352   0.206   0.885  0.7903 -1.0589 -0.6368
    7CHTO   C80 2703   5.150   0.139   0.839 -0.5377  0.5169 -0.0721
    7CHTO  H152 2704   5.056   0.191   0.812 -1.5619 -0.2095  1.9833
    7CHTO   O55 2705   5.203   0.023   0.769  0.4469 -0.0505 -0.2068
    7CHTO  H134 2706   5.123  -0.025   0.758 -0.5462  1.4853  0.2451
    7CHTO   C84 2707   5.120   0.095   0.987  0.1995  0.2843 -1.2198
    7CHTO  H156 2708   5.212   0.059   1.033 -0.0983  1.8883  0.7197
    7CHTO   N15 2709   5.002   0.005   1.009 -0.2907  0.4040  0.2831
    7CHTO  H143 2710   4.934   0.042   1.083 -1.3583 -0.6367 -0.1711
    7CHTO  H144 2711   4.950  -0.004   0.917 -0.0212  0.5055  0.1197
    7CHTO   C87 2712   5.095   0.222   1.076  0.4170 -0.2752 -0.0960
    7CHTO  H159 2713   5.001   0.275   1.059  1.5399  1.2520 -1.7135
    7CHTO   O53 2714   5.214   0.323   1.054 -0.4587 -0.1289 -0.2639
    7CHTO   C82 2715   5.218   0.368   0.915 -0.3938  0.6122  0.2264
    7CHTO  H154 2716   5.123   0.412   0.884 -0.5622  0.1330  0.0587
    7CHTO   C89 2717   5.329   0.475   0.910  0.8312  0.2287 -0.3820
    7CHTO   O59 2718   5.284   0.593   0.973 -0.4351  0.1855  0.3525
    7CHTO  H137 2719   5.264   0.659   0.909 -0.7896  1.0782  1.3559
    7CHTO   O45 2720   5.105   0.170   1.242 -0.0387  0.2417 -0.1181
    7CHTO   C67 2721   5.134   0.277   1.333  0.7930 -0.6109  0.1399
    7CHTO  H124 2722   5.187   0.358   1.281 -1.4280 -0.6618 -2.2790
    7CHTO   C65 2723   4.998   0.335   1.392  0.1947 -0.2756  0.1124
    7CHTO  H122 2724   4.925   0.256   1.413 -0.0957 -0.2973 -0.9307
    7CHTO   O44 2725   4.937   0.411   1.285 -0.0144 -0.3644  0.2586
    7CHTO  H102 2726   4.976   0.496   1.275 -0.2531 -0.3259 -0.3331
    7CHTO   C63 2727   5.022   0.402   1.529 -0.2980 -0.9053  0.0426
    7CHTO  H120 2728   5.006   0.340   1.617 -0.1274 -0.4098  0.4290
    7CHTO   N11 2729   4.916   0.508   1.562 -0.3834  0.6767 -0.3707
    7CHTO  H108 2730   4.898   0.501   1.667  0.4225 -0.8673 -0.3093
    7CHTO  H109 2731   4.851   0.541   1.485  1.2296  0.8462 -1.7006
    7CHTO   C61 2732   5.167   0.456   1.548  0.3872  0.5069  0.1926
    7CHTO  H118 2733   5.167   0.497   1.650 -0.1251  2.1859 -0.4750
    7CHTO   O40 2734   5.268   0.350   1.544 -0.5809  0.5122 -0.1313
    7CHTO   C68 2735   5.229   0.236   1.447  0.4733  0.3736 -0.3364
    7CHTO  H125 2736   5.179   0.153   1.500 -0.7086  1.0199 -0.4058
    7CHTO   C72 2737   5.356   0.187   1.377  0.2006  0.7173  0.5986
    7CHTO   O48 2738   5.345   0.060   1.314  0.5644 -0.3938  0.4121
    7CHTO  H105 2739   5.404   0.065   1.241 -0.7967  1.5751 -0.5942
    7CHTO   O38 2740   5.189   0.557   1.452 -0.0633 -0.1040 -0.1578
    7CHTO   C55 2741   5.276   0.661   1.479 -0.0419 -0.1600 -0.3305
    7CHTO  H112 2742   5.349   0.626   1.555  0.9650  2.9229  0.2151
    7CHTO   C56 2743   5.195   0.796   1.532  0.6807  0.0020 -0.9275
    7CHTO  H113 2744   5.105   0.799   1.469 -0.6490  0.5211  0.9809
    7CHTO   O42 2745   5.143   0.782   1.666  0.0357  0.1991  0.1070
    7CHTO  H100 2746   5.107   0.696   1.673  1.5895 -0.2901  3.1851
    7CHTO   C57 2747   5.280   0.933   1.521 -0.4849  0.0043  1.2447
    7CHTO  H114 2748   5.340   0.940   1.612  0.5126 -0.4023  0.6295
    7CHTO   N10 2749   5.188   1.054   1.521  0.2646  0.5160  0.6069
    7CHTO  H106 2750   5.219   1.136   1.458 -1.0447  0.7988  0.3191
    7CHTO  H107 2751   5.182   1.094   1.621  0.9288 -0.1001  0.8933
    7CHTO   C58 2752   5.370   0.933   1.393 -0.5043 -0.3520 -0.1556
    7CHTO  H115 2753   5.307   0.931   1.302 -0.7861 -0.0783  0.0359
    7CHTO   O37 2754   5.447   0.807   1.391  0.4768 -0.0680  0.1428
    7CHTO   C59 2755   5.367   0.691   1.355 -0.4042  0.0478 -0.2983
    7CHTO  H116 2756   5.307   0.712   1.266  0.0465 -0.7536 -0.7993
    7CHTO   C70 2757   5.467   0.575   1.353 -0.2894  0.4552  0.7303
    7CHTO   O46 2758   5.562   0.569   1.247  0.0945 -0.8635  0.4135
    7CHTO  H103 2759   5.535   0.631   1.181  1.7924 -0.9467 -0.3837
    7CHTO   O39 2760   5.485   1.050   1.387 -0.0282  0.1936 -0.3657
    7CHTO   C60 2761   5.574   1.053   1.276 -0.2268  0.8364  0.3868
    7CHTO  H117 2762   5.597   0.954   1.237  0.1154  1.7106 -1.7391
    7CHTO   C62 2763   5.506   1.124   1.154  0.1285  0.2193 -0.0029
    7CHTO  H119 2764   5.414   1.067   1.132 -0.7493  2.0085 -1.1087
    7CHTO   O43 2765   5.475   1.264   1.177  0.2738 -0.4401  0.4150
    7CHTO  H101 2766   5.383   1.278   1.191  0.4926  0.8189  0.7047
    7CHTO   C66 2767   5.609   1.108   1.028  0.1630 -0.3961  0.3922
    7CHTO  H123 2768   5.620   1.001   1.011 -1.0481 -0.4696  0.0178
    7CHTO   N12 2769   5.545   1.159   0.901 -0.9321 -0.2533 -0.4446
    7CHTO  H110 2770   5.597   1.122   0.814  0.4891 -0.8863  0.6438
    7CHTO  H111 2771   5.440   1.137   0.900 -0.9105 -0.8075  2.6820
    7CHTO   C69 2772   5.748   1.178   1.059  0.7027  0.4012  0.1075
    7CHTO  H126 2773   5.749   1.288   1.075  2.2863  0.3453  0.5094
    7CHTO   O41 2774   5.801   1.118   1.198  0.3006 -0.2084  0.5159
    7CHTO   C64 2775   5.710   1.120   1.310  0.1860  0.4211  0.6570
    7CHTO  H121 2776   5.678   1.221   1.345 -0.5740  0.3585  0.1545
    7CHTO   C71 2777   5.778   1.044   1.420  0.3738  0.2993 -0.4086
    7CHTO   O47 2778   5.743   1.091   1.550  0.1228 -1.0406 -0.3030
    7CHTO  H104 2779   5.769   1.025   1.612 -0.1229 -0.2044  0.6969
    7CHTO   O34 2780   5.832   1.161   0.959  0.2748  0.6909 -0.5147
    7CHTO   C49 2781   5.974   1.099   0.907  0.6989 -0.0066  0.3554
    7CHTO   H91 2782   6.011   1.147   0.817  2.0495  0.7866  1.3161
    7CHTO   C47 2783   5.948   0.945   0.877 -0.8356 -0.5727  0.4553
    7CHTO   H89 2784   6.043   0.909   0.832 -1.0927 -0.3919 -0.2361
    7CHTO   O33 2785   5.848   0.944   0.775  0.7933 -0.1381 -0.1392
    7CHTO   H70 2786   5.884   0.959   0.689 -1.4118  2.2826 -0.7091
    7CHTO   C45 2787   5.905   0.866   1.005 -0.3746  0.0547 -0.2979
    7CHTO   H87 2788   5.820   0.919   1.052 -0.3951 -0.1226 -0.1369
    7CHTO    N8 2789   5.863   0.725   0.977 -0.6660 -0.1169 -0.0761
    7CHTO   H75 2790   5.799   0.736   0.891 -1.2449 -0.4112  0.3130
    7CHTO   H76 2791   5.818   0.684   1.066  0.3837  0.7866  0.8812
    7CHTO   C43 2792   6.021   0.885   1.113  0.4504 -0.7747  0.9464
    7CHTO   H85 2793   5.973   0.848   1.203 -0.7040 -1.6617 -0.0162
    7CHTO   O29 2794   6.060   1.020   1.126 -0.4971 -0.1040 -0.2396
    7CHTO   C50 2795   6.076   1.109   1.016 -0.0724  0.1049 -0.1744
    7CHTO   H92 2796   6.069   1.207   1.065 -1.9709 -0.6382  1.1422
    7CHTO   C54 2797   6.222   1.110   0.971  0.3067  0.4535 -0.3453
    7CHTO   O36 2798   6.308   1.187   1.053 -0.3010  0.1134  0.0535
    7CHTO   H72 2799   6.394   1.194   1.017 -0.6975  1.0558 -0.7426
    7CHTO   O27 2800   6.136   0.808   1.095 -0.2386 -0.7206 -0.5235
    7CHTO   C37 2801   6.204   0.702   1.164 -0.2334 -0.7898 -0.5499
    7CHTO   H79 2802   6.170   0.683   1.267 -1.1870 -2.3846 -1.1537
    7CHTO   C38 2803   6.202   0.569   1.095 -0.3960  0.3972 -0.7156
    7CHTO   H80 2804   6.206   0.583   0.986 -2.8605  0.7768 -0.7790
    7CHTO   O31 2805   6.070   0.509   1.113  0.1832  0.5026 -0.2991
    7CHTO   H68 2806   6.060   0.468   1.197  1.6636  0.6280 -0.0407
    7CHTO   C39 2807   6.313   0.468   1.139  0.4949  0.4538  0.0312
    7CHTO   H81 2808   6.300   0.423   1.238  1.7701  0.8882  0.4004
    7CHTO    N7 2809   6.317   0.345   1.046  0.7453  0.0750 -0.6403
    7CHTO   H73 2810   6.402   0.284   1.072  2.2068  2.1575 -0.4388
    7CHTO   H74 2811   6.321   0.374   0.942 -0.3578  0.3376 -0.6174
    7CHTO   C40 2812   6.451   0.539   1.148  1.0030 -0.0623  0.0941
    7CHTO   H82 2813   6.479   0.571   1.048 -2.6884 -0.6311 -1.1900
    7CHTO   O26 2814   6.435   0.650   1.234 -0.4529 -0.2941 -0.4384
    7CHTO   C41 2815   6.353   0.752   1.183  0.5604 -0.2310  0.4787
    7CHTO   H83 2816   6.396   0.786   1.087 -2.0529  1.5051 -0.1457
    7CHTO   C52 2817   6.353   0.861   1.292  0.1962 -0.5508  0.3120
    7CHTO   O35 2818   6.292   0.834   1.416 -0.0851 -0.3035  0.1228
    7CHTO   H71 2819   6.356   0.816   1.482 -1.3543 -3.6058  0.5197
    7CHTO   O28 2820   6.552   0.456   1.216  0.0705  0.4811  0.1328
    7CHTO   C42 2821   6.689   0.469   1.166 -0.6776 -0.3421 -0.7825
    7CHTO   H84 2822   6.749   0.410   1.235 -0.7938 -2.1478 -2.1788
    7CHTO   C44 2823   6.749   0.614   1.175  0.3612 -0.4135 -0.0282
    7CHTO   H86 2824   6.689   0.679   1.111 -1.1531 -1.3635  0.3975
    7CHTO   O32 2825   6.729   0.652   1.307  0.1998  0.4661 -0.1284
    7CHTO   H69 2826   6.653   0.707   1.313 -0.8140 -0.9909  0.9120
    7CHTO   C48 2827   6.903   0.617   1.133  0.1502  0.2068  0.1234
    7CHTO   H90 2828   6.956   0.549   1.200  1.0973  0.1773 -0.6394
    7CHTO    N9 2829   6.967   0.753   1.149 -0.6394  0.0801  0.0111
    7CHTO   H77 2830   7.026   0.773   1.237  1.1126 -1.9508 -0.6629
    7CHTO   H78 2831   6.901   0.835   1.128  1.6706  1.5329 -1.8746
    7CHTO   C51 2832   6.903   0.573   0.987  0.0491  0.3251  0.1650
    7CHTO   H93 2833   6.837   0.644   0.936 -0.6013 -1.2388 -1.2065
    7CHTO   O30 2834   6.852   0.437   0.979 -0.1867  0.1034 -0.3868
    7CHTO   C46 2835   6.718   0.415   1.026 -0.7012  0.7655 -0.2758
    7CHTO   H88 2836   6.654   0.465   0.953 -0.7881  2.3580  0.8559
    7CHTO   C53 2837   6.688   0.261   1.019  0.5093 -0.3799  0.3810
    7CHTO   O72 2838   6.720   0.189   0.897  0.0635 -0.2525 -0.4706
    7CHTO  H199 2839   6.723   0.097   0.919  2.3957 -0.1020 -0.1058
    7CHTO   O22 2840   7.029   0.565   0.915  0.6177 -0.3260 -0.6939
    7CHTO   C31 2841   7.056   0.568   0.766  0.0395  0.8206  0.6804
    7CHTO   H59 2842   7.161   0.598   0.751 -0.7771  2.0658 -3.1634
    7CHTO   C29 2843   7.036   0.432   0.701 -0.0661 -0.1529  0.3025
    7CHTO   H57 2844   6.940   0.386   0.728  0.1078 -0.5549  0.2358
    7CHTO   O21 2845   7.137   0.349   0.760  0.0060 -0.3195  0.2753
    7CHTO   H37 2846   7.219   0.395   0.765  0.8209 -1.8015  1.1784
    7CHTO   C27 2847   7.039   0.432   0.543 -0.1169  0.2282  0.4529
    7CHTO   H55 2848   7.141   0.455   0.507 -0.0053 -2.6104 -1.2281
    7CHTO    N5 2849   6.984   0.309   0.476 -0.1655  0.1651  0.0861
    7CHTO   H43 2850   6.876   0.314   0.477 -0.0562  3.6513  2.4357
    7CHTO   H44 2851   7.018   0.220   0.528 -0.8050  1.4455  2.7832
    7CHTO   C25 2852   6.962   0.560   0.488  0.7481 -0.3036  0.6306
    7CHTO   H53 2853   6.855   0.547   0.508  0.6742  1.4757  1.5226
    7CHTO   O17 2854   7.014   0.680   0.562  0.2204 -0.3727 -0.5814
    7CHTO   C32 2855   6.975   0.678   0.700 -0.1151 -0.5458 -0.2807
    7CHTO   H60 2856   6.868   0.654   0.706 -0.4001  0.5204 -0.8742
    7CHTO   C36 2857   6.984   0.812   0.772  0.5366 -0.1587  0.0391
    7CHTO   O25 2858   7.103   0.883   0.727  0.4112 -0.2056  0.4733
    7CHTO   H40 2859   7.105   0.977   0.733 -0.0838 -0.1491 -0.2161
    7CHTO   O15 2860   6.969   0.598   0.331 -0.1504 -0.2919  0.7152
    7CHTO   C19 2861   6.868   0.672   0.257 -1.0149 -0.4646  0.4592
    7CHTO   H47 2862   6.876   0.640   0.152 -0.7414  1.1157 -0.0120
    7CHTO   C20 2863   6.721   0.654   0.310 -0.3666 -0.3099  0.5601
    7CHTO   H48 2864   6.713   0.697   0.411  0.4560  1.1965  0.0112
    7CHTO   O19 2865   6.697   0.518   0.310  0.1956 -0.2995  0.0471
    7CHTO   H35 2866   6.609   0.499   0.337 -0.0549  2.0314  0.9592
    7CHTO   C21 2867   6.617   0.734   0.219 -0.1262 -0.0121 -0.3818
    7CHTO   H49 2868   6.624   0.695   0.118 -4.2824 -0.8018 -0.4594
    7CHTO    N4 2869   6.479   0.719   0.278  0.3508  0.3545  0.0724
    7CHTO   H41 2870   6.430   0.813   0.298 -0.3570  0.1941 -0.8827
    7CHTO   H42 2871   6.483   0.658   0.367  1.1882 -0.3537 -0.4429
    7CHTO   C22 2872   6.656   0.883   0.210 -0.2455 -0.0878 -0.6009
    7CHTO   H50 2873   6.655   0.924   0.311 -1.8047 -1.9812  0.1830
    7CHTO   O14 2874   6.787   0.882   0.160 -0.6034  0.0333  0.1899
    7CHTO   C23 2875   6.884   0.826   0.254  0.1619  0.5170 -0.0444
    7CHTO   H51 2876   6.876   0.870   0.355 -2.5741  0.9680 -0.4216
    7CHTO   C34 2877   7.021   0.882   0.208 -0.1172  0.4024  0.0410
    7CHTO   O23 2878   7.062   0.820   0.086 -0.3992 -0.1774 -0.1266
    7CHTO   H38 2879   7.147   0.852   0.065  0.3838 -0.2519  2.7780
    7CHTO   O16 2880   6.579   0.960   0.113  0.4112 -0.1749  0.2924
    7CHTO   C24 2881   6.540   1.109   0.164 -0.0630 -0.0054 -0.0463
    7CHTO   H52 2882   6.566   1.120   0.269 -1.2489  1.7310  0.0692
    7CHTO   C26 2883   6.389   1.133   0.140 -0.0076  0.7001  0.1006
    7CHTO   H54 2884   6.363   1.110   0.034  2.6133  1.6229 -0.7678
    7CHTO   O20 2885   6.313   1.031   0.216  0.1030 -0.6837  0.9211
    7CHTO   H36 2886   6.225   1.060   0.228  1.4124  3.1117  1.7789
    7CHTO   C30 2887   6.350   1.277   0.183 -1.0399 -0.9898  0.5430
    7CHTO   H58 2888   6.361   1.290   0.292 -0.5088  2.1001  0.1850
    7CHTO    N6 2889   6.207   1.303   0.148  0.2114  0.1926 -0.0580
    7CHTO   H45 2890   6.131   1.243   0.197 -0.0199  1.2270  0.8755
    7CHTO   H46 2891   6.175   1.405   0.130  0.8521  0.6985  1.5504
    7CHTO   C33 2892   6.454   1.372   0.118  1.0791 -0.0274 -0.3034
    7CHTO   H61 2893   6.441   1.362   0.009 -1.7602  1.9252 -0.2002
    7CHTO   O18 2894   6.588   1.337   0.151  0.1952  0.3313 -0.3160
    7CHTO   C28 2895   6.626   1.208   0.087  0.0699 -0.4544  0.2423
    7CHTO   H56 2896   6.591   1.211  -0.016 -2.6985  0.7582  1.1813
    7CHTO   C35 2897   6.782   1.195   0.091  0.2827  0.3190 -0.1455
    7CHTO   O24 2898   6.837   1.162   0.215 -0.3754  1.0090 -0.4514
    7CHTO   H39 2899   6.808   1.076   0.240 -1.5132  1.7361  0.8258
    7CHTO    O9 2900   6.428   1.512   0.153  0.2647  0.2735 -0.4340
    7CHTO   C13 2901   6.439   1.608   0.032  0.5204  0.2245 -0.0758
    7CHTO   H26 2902   6.389   1.557  -0.053 -0.6294 -0.5144  1.0220
    7CHTO   C11 2903   6.593   1.644  -0.006  1.1787 -0.2611 -0.6956
    7CHTO   H24 2904   6.637   1.548  -0.035  2.2261 -0.9239  2.9220
    7CHTO    O8 2905   6.657   1.692   0.113 -0.6043  0.1352  0.4331
    7CHTO    H3 2906   6.656   1.622   0.176 -0.7727  1.2704  1.7144
    7CHTO    C9 2907   6.584   1.752  -0.121 -0.3275  0.1312 -1.1311
    7CHTO   H22 2908   6.525   1.708  -0.203  0.9663 -0.7274 -1.6091
    7CHTO    N2 2909   6.715   1.774  -0.184  0.3376 -0.4663 -0.4594
    7CHTO   H10 2910   6.721   1.751  -0.290  0.2567  0.1315 -0.5940
    7CHTO   H11 2911   6.752   1.874  -0.169  1.3810 -0.6904 -1.3942
    7CHTO    C7 2912   6.506   1.883  -0.068  0.0159 -0.2056  0.1079
    7CHTO   H20 2913   6.501   1.950  -0.157  2.2931 -1.5380 -1.0646
    7CHTO    O4 2914   6.366   1.842  -0.034 -0.1336 -0.9019  0.0565
    7CHTO   C14 2915   6.344   1.734   0.054  0.1957  0.6609  0.5550
    7CHTO   H27 2916   6.239   1.707   0.029  0.8349 -0.2015 -1.2405
    7CHTO   C18 2917   6.346   1.788   0.200 -0.2980  0.5874  0.3991
    7CHTO   O13 2918   6.236   1.871   0.236  0.4028 -0.0690 -0.0482
    7CHTO    H7 2919   6.207   1.852   0.324  0.8766  0.6372  0.2662
    7CHTO    O2 2920   6.578   1.973   0.051  0.0002 -0.1965  0.1210
    7CHTO    C1 2921   6.516   2.093   0.099 -0.4042 -0.1135  0.5638
    7CHTO   H14 2922   6.418   2.071   0.146 -1.1325 -2.3168 -1.8260
    7CHTO    C2 2923   6.496   2.210  -0.007  0.2634 -1.2628  0.2108
    7CHTO   H15 2924   6.581   2.219  -0.076  0.0329  3.5689  0.3641
    7CHTO    O6 2925   6.374   2.172  -0.086 -0.1617 -0.9060  0.3466
    7CHTO    H1 2926   6.337   2.244  -0.132 -0.5525 -0.8215  0.8032
    7CHTO    C3 2927   6.476   2.353   0.064  0.1833  0.5421  0.2327
    7CHTO   H16 2928   6.373   2.348   0.102 -0.2115 -0.1712 -0.9060
    7CHTO    N1 2929   6.488   2.468  -0.024 -0.8635  0.3660 -0.2021
    7CHTO    H8 2930   6.461   2.554   0.035 -0.8937  0.4856 -0.3887
    7CHTO    H9 2931   6.422   2.454  -0.109  0.2580 -0.8341 -0.8856
    7CHTO    C4 2932   6.563   2.376   0.187 -0.1832  0.4820  0.7249
    7CHTO   H17 2933   6.668   2.393   0.163  0.1997 -1.2596  1.1116
    7CHTO    O1 2934   6.547   2.262   0.279  0.4487 -0.6588  0.5190
    7CHTO    C5 2935   6.608   2.147   0.221  0.2521  0.2779  0.0715
    7CHTO   H18 2936   6.711   2.172   0.194  0.7201 -3.2648 -1.7403
    7CHTO   C16 2937   6.615   2.039   0.336  0.0768  0.7295 -0.2757
    7CHTO   O11 2938   6.718   2.074   0.422 -0.5559 -0.7591 -0.5173
    7CHTO    H5 2939   6.805   2.071   0.387 -0.1173  2.4991  0.1156
    7CHTO    O3 2940   6.507   2.491   0.263  0.0423 -0.0800 -0.3841
    7CHTO    C6 2941   6.574   2.517   0.391 -0.0404 -0.3214 -0.3678
    7CHTO   H19 2942   6.650   2.443   0.417 -0.2067 -0.8131 -1.2750
    7CHTO    C8 2943   6.644   2.658   0.396 -0.5154  0.0861  0.1555
    7CHTO   H21 2944   6.571   2.738   0.387 -1.4422 -0.5185  2.0311
    7CHTO    O7 2945   6.726   2.651   0.277  0.3392  0.0326 -0.4268
    7CHTO    H2 2946   6.669   2.658   0.202  0.5580  3.6307 -0.3492
    7CHTO   C12 2947   6.717   2.672   0.534  0.2431  0.1420  0.1214
    7CHTO   H25 2948   6.796   2.595   0.544 -0.1159 -0.4652 -1.5434
    7CHTO    N3 2949   6.784   2.807   0.539  0.4334 -0.6221 -0.2707
    7CHTO   H12 2950   6.868   2.799   0.606  0.7464 -0.2735 -0.6212
    7CHTO   H13 2951   6.709   2.880   0.566  1.5751  0.9034 -1.1219
    7CHTO   C15 2952   6.630   2.646   0.650 -0.3296 -0.4767 -0.3270
    7CHTO   H28 2953   6.557   2.725   0.668 -0.8021 -1.0135  0.1421
    7CHTO   O10 2954   6.718   2.611   0.805  0.1762 -0.8155  0.3553
    7CHTO    H4 2955   6.659   2.594   0.875 -1.7029 -0.9609 -1.2379
    7CHTO    O5 2956   6.561   2.517   0.632  0.6514  0.8474 -0.0314
    7CHTO   C10 2957   6.479   2.519   0.514  0.9061 -0.2272 -0.3367
    7CHTO   H23 2958   6.410   2.603   0.521  2.5437  1.0670  0.6024
    7CHTO   C17 2959   6.392   2.396   0.506  0.0961  0.0399 -0.0325
    7CHTO   O12 2960   6.282   2.423   0.419 -0.8386 -0.3663 -0.5650
    7CHTO    H6 2961   6.305   2.437   0.329  1.9082  1.0503  0.2897
    8CHTO  H203 2962   7.278   8.255   2.213 -1.8545 -0.7222  2.3746
    8CHTO   O82 2963   7.273   8.348   2.210  0.3808 -0.6196  0.4155
    8CHTO  C123 2964   7.143   8.381   2.159  0.4718 -0.8085  0.1884
    8CHTO  H227 2965   7.132   8.491   2.162  0.2378 -0.8699  1.9824
    8CHTO   O77 2966   7.150   8.325   2.022  0.6029 -0.5330  1.2631
    8CHTO  C118 2967   7.026   8.328   1.950 -0.4270 -0.8688 -0.0924
    8CHTO  H222 2968   6.998   8.433   1.937 -0.0954 -0.6972  0.5880
    8CHTO  C125 2969   7.044   8.264   1.811  0.1617 -0.1953  0.0869
    8CHTO   O84 2970   7.088   8.131   1.816  0.0292  0.0282 -0.6744
    8CHTO  H205 2971   7.181   8.137   1.826 -0.1694  2.5508 -0.0900
    8CHTO  C114 2972   6.910   8.260   2.026  0.2229 -0.3575 -0.6782
    8CHTO  H218 2973   6.937   8.157   2.053  2.6468  0.2107 -0.8293
    8CHTO  C116 2974   6.894   8.329   2.161 -0.6740 -0.2567  0.3243
    8CHTO  H220 2975   6.853   8.432   2.147 -0.2730 -0.0940  0.3244
    8CHTO   O79 2976   6.794   8.257   2.233 -0.1057  0.4232  0.0485
    8CHTO  H201 2977   6.718   8.252   2.179  1.5478 -1.4095 -2.2581
    8CHTO  C120 2978   7.023   8.325   2.241 -0.3045 -0.2123 -0.0449
    8CHTO  H224 2979   7.047   8.219   2.266  1.1518  0.0753 -0.2047
    8CHTO   N21 2980   7.020   8.391   2.379  0.7438 -0.1597 -0.7824
    8CHTO  H211 2981   6.952   8.474   2.370 -0.1556 -1.0473 -2.5079
    8CHTO  H212 2982   6.974   8.323   2.449 -0.3990  0.7458 -0.6430
    8CHTO   O75 2983   6.788   8.258   1.940  0.6896 -0.1015  0.4996
    8CHTO  C112 2984   6.700   8.409   1.945  0.8701 -0.1289 -0.9768
    8CHTO  H216 2985   6.766   8.495   1.961  1.8230 -1.0625  0.1950
    8CHTO   O73 2986   6.604   8.401   2.051 -0.2097 -0.2662  0.4377
    8CHTO  C113 2987   6.504   8.504   2.076 -0.0822 -0.7892 -0.1577
    8CHTO  H217 2988   6.555   8.590   2.124 -2.2596  0.0987  0.6487
    8CHTO  C124 2989   6.395   8.446   2.172 -0.1698  1.0033 -0.2421
    8CHTO   O83 2990   6.435   8.357   2.281  0.1670  0.1438  0.0608
    8CHTO  H204 2991   6.494   8.390   2.346 -0.4175 -0.7096  1.0354
    8CHTO  C109 2992   6.433   8.538   1.935  0.1494 -0.0859  0.0304
    8CHTO  H213 2993   6.374   8.451   1.905  0.6824 -0.5046  0.1798
    8CHTO  C110 2994   6.534   8.560   1.822 -0.3179 -0.5321  0.3238
    8CHTO  H214 2995   6.602   8.638   1.859 -0.6591 -1.4872  3.1134
    8CHTO   O78 2996   6.468   8.591   1.699 -0.4985 -0.0323  0.3833
    8CHTO  H200 2997   6.459   8.684   1.689 -0.9216 -0.3961 -3.1287
    8CHTO  C111 2998   6.624   8.428   1.811 -0.1555 -0.6813 -0.3546
    8CHTO  H215 2999   6.558   8.343   1.793 -1.3499  0.1248  0.1415
    8CHTO   N19 3000   6.723   8.432   1.699 -0.0433 -0.0655  0.2334
    8CHTO  H207 3001   6.750   8.334   1.661  0.4345  0.3706 -0.5575
    8CHTO  H208 3002   6.678   8.489   1.619  1.1506 -0.7758 -0.9565
    8CHTO   O74 3003   6.346   8.649   1.944  0.0355  0.1712  0.2073
    8CHTO  C115 3004   6.190   8.603   1.924 -0.0801 -0.1282 -0.4784
    8CHTO  H219 3005   6.177   8.496   1.937  1.1394 -0.3218 -0.8250
    8CHTO   O76 3006   6.080   8.674   2.041 -0.5899 -1.1404  0.1396
    8CHTO  C122 3007   6.072   8.815   2.007  0.2426 -1.0530 -0.1204
    8CHTO  H226 3008   6.169   8.858   2.032 -0.5455 -0.0718  1.2947
    8CHTO  C126 3009   5.974   8.884   2.103  0.3440  0.5049 -0.5390
    8CHTO   O85 3010   6.039   8.907   2.228  0.0725 -0.2948 -0.1571
    8CHTO  H206 3011   6.127   8.939   2.219 -0.7232  2.1884  0.2644
    8CHTO  C121 3012   6.028   8.842   1.852 -0.8892  0.7875 -0.4386
    8CHTO  H225 3013   5.928   8.799   1.834 -0.3006 -0.6388 -0.3699
    8CHTO   O81 3014   6.025   8.987   1.841 -0.6373  0.2359 -0.2151
    8CHTO  H202 3015   5.941   9.010   1.807 -0.1612  1.7356 -0.4352
    8CHTO  C119 3016   6.134   8.776   1.754  0.0245  0.1284 -0.3744
    8CHTO  H223 3017   6.093   8.794   1.654  1.2095  1.7083 -0.5978
    8CHTO  C117 3018   6.143   8.622   1.770  0.7452 -0.4706  0.9520
    8CHTO  H221 3019   6.218   8.574   1.707 -0.8948 -0.1860 -1.3064
    8CHTO   N20 3020   6.023   8.546   1.734 -0.1711 -0.2047 -0.8101
    8CHTO  H209 3021   5.984   8.595   1.646  1.7625  1.9958 -0.5031
    8CHTO  H210 3022   6.039   8.440   1.715 -1.4884 -0.6184  0.3391
    8CHTO   O80 3023   6.292   8.853   1.737 -0.2360 -0.4192  0.3972
    8CHTO  C103 3024   6.300   8.991   1.672  0.4350 -0.0152 -0.0056
    8CHTO  H190 3025   6.201   9.023   1.639  0.7056  1.3831  0.4988
    8CHTO  C101 3026   6.371   9.097   1.758 -0.2527  0.2933  0.0271
    8CHTO  H188 3027   6.472   9.059   1.767  0.9509  2.9930 -1.3786
    8CHTO   O68 3028   6.292   9.109   1.892  0.3216  0.4007 -0.0673
    8CHTO  H168 3029   6.245   9.031   1.913  0.7653 -0.0766 -0.8427
    8CHTO   C99 3030   6.387   9.234   1.678  0.7728  0.2202  0.0257
    8CHTO  H186 3031   6.286   9.273   1.655  1.5509  1.5214 -1.3240
    8CHTO   N17 3032   6.461   9.337   1.760 -0.0820 -0.4847 -0.8111
    8CHTO  H174 3033   6.472   9.429   1.706  0.6122  0.8670  1.5731
    8CHTO  H175 3034   6.557   9.295   1.787  1.0581  2.1021 -0.7876
    8CHTO   C97 3035   6.461   9.204   1.545  0.0919  1.0145  0.5535
    8CHTO  H184 3036   6.566   9.181   1.567 -0.0927  0.8710  1.3034
    8CHTO   O64 3037   6.394   9.099   1.471  0.3856  0.1146  0.0465
    8CHTO  C104 3038   6.390   8.970   1.540 -0.1131 -0.4675  0.5694
    8CHTO  H191 3039   6.488   8.935   1.571 -0.5274 -1.0555  1.2349
    8CHTO  C108 3040   6.331   8.849   1.463  0.1620 -0.2124  0.4855
    8CHTO   O71 3041   6.430   8.789   1.377  0.0067  0.1582 -0.3738
    8CHTO  H171 3042   6.386   8.722   1.329 -2.4537  1.7869 -0.4912
    8CHTO   O62 3043   6.446   9.320   1.463 -0.2053 -1.0448 -0.3291
    8CHTO   C91 3044   6.566   9.356   1.390  0.9006  0.7526 -0.0065
    8CHTO  H178 3045   6.641   9.282   1.416 -0.8197 -1.7482 -1.9557
    8CHTO   C92 3046   6.607   9.494   1.449 -0.1021  0.5095  0.6330
    8CHTO  H179 3047   6.592   9.499   1.558  0.1778  1.3230  0.6368
    8CHTO   O66 3048   6.750   9.498   1.434  0.2810  0.4419  0.6275
    8CHTO  H166 3049   6.792   9.436   1.490  0.2346 -1.2900 -1.2247
    8CHTO   C93 3050   6.535   9.618   1.377 -0.3926 -0.6046 -0.1590
    8CHTO  H180 3051   6.596   9.706   1.405 -1.2730 -0.7434  2.3331
    8CHTO   N16 3052   6.400   9.649   1.420  0.8872 -0.6695  0.6022
    8CHTO  H172 3053   6.408   9.747   1.464 -2.0137  0.2042 -0.6867
    8CHTO  H173 3054   6.350   9.584   1.491  2.9583 -1.3330  1.4845
    8CHTO   C94 3055   6.543   9.596   1.223 -0.9852 -0.1477  0.8434
    8CHTO  H181 3056   6.444   9.601   1.178 -0.3979  0.4825 -0.4013
    8CHTO   O61 3057   6.602   9.469   1.179  0.3258  0.2343  0.6308
    8CHTO   C95 3058   6.537   9.353   1.234 -0.4893 -0.5291 -1.0928
    8CHTO  H182 3059   6.430   9.360   1.216 -0.5199  1.2226 -0.3231
    8CHTO  C106 3060   6.595   9.220   1.173  0.5849 -0.3166  0.1109
    8CHTO   O69 3061   6.510   9.106   1.200  0.0076 -0.2248 -0.2288
    8CHTO  H169 3062   6.500   9.096   1.293 -0.3959 -0.2417 -0.2766
    8CHTO   O63 3063   6.630   9.710   1.170  1.1266  0.3772 -0.1641
    8CHTO   C96 3064   6.573   9.779   1.036 -0.4663  0.2892 -0.8917
    8CHTO  H183 3065   6.484   9.728   1.001 -0.9663  0.6788 -0.1943
    8CHTO   C98 3066   6.675   9.772   0.920 -0.3028  0.0736 -0.4116
    8CHTO  H185 3067   6.764   9.832   0.942  1.0450 -1.6745 -0.9697
    8CHTO   O67 3068   6.723   9.638   0.911 -0.0316  0.2177 -0.3675
    8CHTO  H167 3069   6.709   9.575   0.979 -2.1962  1.1164  0.0653
    8CHTO  C102 3070   6.604   9.825   0.785  0.2234 -0.5541  0.3274
    8CHTO  H189 3071   6.546   9.736   0.755 -0.4725  0.5192 -1.5166
    8CHTO   N18 3072   6.702   9.841   0.680  0.7516  0.1074  0.0282
    8CHTO  H176 3073   6.800   9.866   0.717  1.1858  1.8427 -2.1562
    8CHTO  H177 3074   6.675   9.926   0.619 -1.0457  0.2490  0.9694
    8CHTO  C105 3075   6.514   9.942   0.808 -0.1884  0.4493  0.4082
    8CHTO  H192 3076   6.528  10.020   0.734  0.2680 -1.2604 -1.3654
    8CHTO   O65 3077   6.529  10.005   0.939 -1.1547  0.7946  0.0359
    8CHTO  C100 3078   6.540   9.924   1.061  0.0252 -0.2889 -0.5106
    8CHTO  H187 3079   6.622   9.962   1.124  0.2214 -1.6140  0.0544
    8CHTO  C107 3080   6.405   9.940   1.131 -0.0405  0.2357 -0.5884
    8CHTO   O70 3081   6.405  10.054   1.221  0.2133 -0.0408  0.0098
    8CHTO  H170 3082   6.329  10.057   1.275 -0.3059  2.3688 -0.7933
    8CHTO   O57 3083   6.346   9.880   0.783 -0.7554 -0.2490  0.6096
    8CHTO   C85 3084   6.240   9.961   0.732 -0.1812 -0.0053 -0.0293
    8CHTO  H157 3085   6.287  10.028   0.657  0.9354  0.0515  0.7166
    8CHTO   C83 3086   6.180  10.049   0.852  0.7493 -0.1150 -0.1971
    8CHTO  H155 3087   6.254  10.118   0.892 -1.0174  2.2693 -0.9826
    8CHTO   O56 3088   6.157   9.958   0.959 -0.4200 -0.0892  0.1956
    8CHTO  H135 3089   6.223   9.892   0.973 -2.4456 -2.3708 -0.6507
    8CHTO   C81 3090   6.056  10.127   0.792  0.4918 -0.0914 -0.0193
    8CHTO  H153 3091   6.085  10.201   0.718  1.2382  1.3707  1.6972
    8CHTO   N14 3092   6.001  10.218   0.898 -0.6557  0.2706 -0.1296
    8CHTO  H141 3093   6.046  10.210   0.994  2.4232 -2.2979 -1.6950
    8CHTO  H142 3094   5.895  10.226   0.899 -0.5299  2.1715  0.1873
    8CHTO   C79 3095   5.947  10.034   0.732 -0.4036 -0.4281  0.5245
    8CHTO  H151 3096   5.870  10.098   0.690 -0.2520 -0.3763  0.3267
    8CHTO   O52 3097   6.014   9.952   0.630  0.1211  0.2787 -1.3083
    8CHTO   C86 3098   6.128   9.873   0.666  0.0987 -0.4465  0.1816
    8CHTO  H158 3099   6.089   9.796   0.735  1.3466 -0.1786  1.2039
    8CHTO   C90 3100   6.191   9.800   0.544  0.6538 -0.6560  0.5574
    8CHTO   O60 3101   6.308   9.722   0.558  0.1587 -0.1012  0.0010
    8CHTO  H138 3102   6.316   9.669   0.481  1.6760 -0.1163  0.1545
    8CHTO   O50 3103   5.890   9.944   0.832  0.0518 -0.6451 -0.6983
    8CHTO   C73 3104   5.768   9.873   0.843 -0.6392  0.1366  0.2759
    8CHTO  H145 3105   5.748   9.818   0.750 -1.6378  0.9219  0.0180
    8CHTO   C74 3106   5.656   9.975   0.868 -0.3043  0.6689 -0.3437
    8CHTO  H146 3107   5.664  10.053   0.791  2.2933  2.0320  1.2410
    8CHTO   O54 3108   5.529   9.911   0.859 -1.0564 -0.4977  0.5798
    8CHTO  H133 3109   5.511   9.890   0.770 -1.3869 -0.2594  0.5902
    8CHTO   C75 3110   5.675  10.036   1.014 -0.0637  0.1489 -0.8557
    8CHTO  H147 3111   5.776  10.079   1.022  0.2775 -1.1152  2.4844
    8CHTO   N13 3112   5.574  10.136   1.056  0.5623  0.1321 -0.3930
    8CHTO  H139 3113   5.597  10.193   1.145 -1.6887  1.1382 -0.3970
    8CHTO  H140 3114   5.566  10.192   0.963 -0.0222  1.0299  0.1874
    8CHTO   C76 3115   5.682   9.921   1.123 -0.1654 -0.6035  0.5095
    8CHTO  H148 3116   5.581   9.878   1.128 -0.9663  0.9695 -1.2667
    8CHTO   O49 3117   5.782   9.819   1.084  0.1088 -0.1848  0.5438
    8CHTO   C77 3118   5.769   9.770   0.958 -0.2664  1.0811  0.4555
    8CHTO  H149 3119   5.675   9.717   0.968  1.4463 -1.8527  1.5795
    8CHTO   C88 3120   5.882   9.656   0.952 -0.1609 -0.1549  0.4194
    8CHTO   O58 3121   5.910   9.599   0.811  0.0142 -0.1100 -0.6795
    8CHTO  H136 3122   5.863   9.518   0.800 -1.9101  0.4356  2.8166
    8CHTO   O51 3123   5.739   9.960   1.245 -0.0716  0.0935  0.1109
    8CHTO   C78 3124   5.751   9.851   1.367 -0.4013  0.2330  0.0082
    8CHTO  H150 3125   5.760   9.750   1.321  0.6872  0.9822 -1.4857
    8CHTO   C80 3126   5.635   9.854   1.462 -0.1016  0.2909 -0.4347
    8CHTO  H152 3127   5.641   9.954   1.509  0.5817 -1.1452  2.6331
    8CHTO   O55 3128   5.508   9.849   1.392  0.7876  0.8068 -0.2933
    8CHTO  H134 3129   5.498   9.933   1.352 -1.2332  0.2678 -1.0245
    8CHTO   C84 3130   5.655   9.750   1.582  0.0374  0.6570 -0.1220
    8CHTO  H156 3131   5.651   9.651   1.536 -1.5368  0.3785  0.5892
    8CHTO   N15 3132   5.536   9.760   1.678  0.2280 -0.0716 -0.1917
    8CHTO  H143 3133   5.551   9.854   1.726  1.0941 -1.0722  1.5346
    8CHTO  H144 3134   5.442   9.761   1.625 -0.6945  1.0899  1.4213
    8CHTO   C87 3135   5.796   9.770   1.645 -0.1276 -0.9706 -0.0825
    8CHTO  H159 3136   5.793   9.859   1.707 -0.0974 -1.5628  0.7769
    8CHTO   O53 3137   5.898   9.775   1.545 -0.3383 -0.4640 -0.1771
    8CHTO   C82 3138   5.884   9.867   1.440 -0.0574 -0.4797  0.2416
    8CHTO  H154 3139   5.897   9.963   1.489 -1.9229  0.5760 -1.2819
    8CHTO   C89 3140   6.010   9.849   1.352 -0.9078  1.6219  0.4932
    8CHTO   O59 3141   6.026   9.962   1.266 -0.2653  0.4248  0.0220
    8CHTO  H137 3142   6.072   9.937   1.188  2.1612  1.4704  1.0528
    8CHTO   O45 3143   5.815   9.643   1.740 -0.3295  0.4592 -0.3126
    8CHTO   C67 3144   5.909   9.652   1.846 -0.1302  0.2247 -0.3868
    8CHTO  H124 3145   5.898   9.566   1.913  2.1207  0.0917 -0.1627
    8CHTO   C65 3146   6.062   9.660   1.801  1.1673  1.0682  0.1108
    8CHTO  H122 3147   6.063   9.713   1.706 -0.9750  1.7250  0.4189
    8CHTO   O44 3148   6.111   9.526   1.771  0.6150 -0.2878  0.4963
    8CHTO  H102 3149   6.203   9.518   1.784  0.8607  1.3874 -0.1135
    8CHTO   C63 3150   6.153   9.746   1.898  0.3817 -0.9398 -0.2337
    8CHTO  H120 3151   6.150   9.850   1.867  1.8856 -0.7518  0.2267
    8CHTO   N11 3152   6.303   9.729   1.878 -0.6130  0.0025 -0.3411
    8CHTO  H108 3153   6.320   9.744   1.774 -2.1297  1.8126 -0.3683
    8CHTO  H109 3154   6.321   9.624   1.884 -0.1705  0.0886 -0.1599
    8CHTO   C61 3155   6.100   9.740   2.048  0.0897 -0.2114 -0.0128
    8CHTO  H118 3156   6.156   9.812   2.108 -0.5657  0.1922  0.1169
    8CHTO   O40 3157   5.965   9.779   2.065 -0.1086  0.2533 -0.5800
    8CHTO   C68 3158   5.877   9.772   1.945 -0.4975 -0.4073 -0.0312
    8CHTO  H125 3159   5.866   9.864   1.883 -1.5312 -1.1490 -0.9642
    8CHTO   C72 3160   5.741   9.751   2.014 -0.3680 -0.3784 -0.0441
    8CHTO   O48 3161   5.729   9.618   2.071  0.3074  0.0700  0.0858
    8CHTO  H105 3162   5.683   9.567   2.007 -0.7423  2.8830 -1.4812
    8CHTO   O38 3163   6.086   9.604   2.101 -0.3314 -0.4417  0.4194
    8CHTO   C55 3164   6.194   9.557   2.181  0.1116  0.8309  0.4362
    8CHTO  H112 3165   6.283   9.621   2.188  1.7075 -1.0044 -2.1293
    8CHTO   C56 3166   6.234   9.405   2.133 -0.0161  0.3204 -0.1431
    8CHTO  H113 3167   6.266   9.413   2.028  1.4048  3.0854  0.4548
    8CHTO   O42 3168   6.345   9.355   2.212  0.1700  0.0373 -0.8561
    8CHTO  H100 3169   6.424   9.382   2.169 -0.2823  0.4659 -1.4361
    8CHTO   C57 3170   6.115   9.303   2.155  0.1217  0.4322  0.8063
    8CHTO  H114 3171   6.164   9.215   2.197  1.2459  0.7243  0.1225
    8CHTO   N10 3172   6.049   9.276   2.022 -0.0843  0.0680 -0.2149
    8CHTO  H106 3173   5.969   9.346   2.005  0.2321  0.6208  0.5016
    8CHTO  H107 3174   6.127   9.285   1.948  0.2203  1.5159  0.2628
    8CHTO   C58 3175   6.014   9.350   2.262 -0.1959  0.0257  0.0627
    8CHTO  H115 3176   5.934   9.413   2.217  0.3770  0.5371 -0.2432
    8CHTO   O37 3177   6.075   9.422   2.370  0.2864 -0.3992  0.0246
    8CHTO   C59 3178   6.143   9.548   2.328 -0.3316  0.4853 -0.3323
    8CHTO  H116 3179   6.082   9.636   2.349 -2.4681 -1.0458  0.1301
    8CHTO   C70 3180   6.256   9.573   2.430  0.1941  0.5775  0.0723
    8CHTO   O46 3181   6.212   9.566   2.563  0.5298 -0.7456 -0.6391
    8CHTO  H103 3182   6.270   9.501   2.597  0.5303 -0.6917 -0.5349
    8CHTO   O39 3183   5.930   9.205   2.327 -0.0374 -0.3380  0.0356
    8CHTO   C60 3184   5.787   9.228   2.355  0.1277 -0.1154  0.4557
    8CHTO  H117 3185   5.763   9.328   2.391 -2.3881 -1.3288  2.3606
    8CHTO   C62 3186   5.700   9.195   2.226 -0.0926 -0.4342 -0.3227
    8CHTO  H119 3187   5.732   9.272   2.153  1.5664  0.2445  1.0961
    8CHTO   O43 3188   5.712   9.058   2.176 -0.3512  0.6450 -0.2709
    8CHTO  H101 3189   5.740   9.061   2.087 -1.9204 -0.5026 -0.8260
    8CHTO   C66 3190   5.545   9.219   2.263  0.2011 -0.2975 -0.4829
    8CHTO  H123 3191   5.531   9.318   2.306  1.5804  0.4780 -1.7502
    8CHTO   N12 3192   5.453   9.212   2.147  0.2933  0.1209  0.1211
    8CHTO  H110 3193   5.490   9.264   2.061  0.8708  1.2705  1.0586
    8CHTO  H111 3194   5.425   9.109   2.125 -0.6517  0.9143 -2.5708
    8CHTO   C69 3195   5.493   9.139   2.387 -0.3579 -0.3246  0.6370
    8CHTO  H126 3196   5.480   9.031   2.363  0.5241 -0.7206  1.8912
    8CHTO   O41 3197   5.588   9.153   2.512  0.2066  0.5920  0.2860
    8CHTO   C64 3198   5.736   9.132   2.470 -0.2484 -0.2967 -0.1434
    8CHTO  H121 3199   5.742   9.026   2.438 -0.5742 -0.7030  1.0929
    8CHTO   C71 3200   5.828   9.160   2.598 -0.0176  0.0397  0.4271
    8CHTO   O47 3201   5.806   9.291   2.651 -0.4802  0.0816 -0.0691
    8CHTO  H104 3202   5.885   9.340   2.645  0.3820 -1.4937 -2.1701
    8CHTO   O34 3203   5.341   9.180   2.436 -0.0765 -0.5861 -0.0629
    8CHTO   C49 3204   5.283   9.313   2.512  0.4609  0.0653  0.0583
    8CHTO   H91 3205   5.327   9.313   2.612 -1.8820 -2.0530  1.1349
    8CHTO   C47 3206   5.126   9.304   2.518  0.2003 -0.1323 -0.0221
    8CHTO   H89 3207   5.082   9.390   2.573  1.3524 -0.5141  1.5135
    8CHTO   O33 3208   5.075   9.186   2.582  0.0748  0.1547  0.4223
    8CHTO   H70 3209   4.998   9.211   2.629 -2.1428 -1.9743 -1.8840
    8CHTO   C45 3210   5.082   9.301   2.356 -0.1974  0.0211 -0.7827
    8CHTO   H87 3211   5.130   9.217   2.305 -0.2748 -0.4146 -0.1460
    8CHTO    N8 3212   4.934   9.283   2.345 -0.2088 -0.3231 -0.0476
    8CHTO   H75 3213   4.917   9.289   2.239 -1.1379 -0.7345  0.0744
    8CHTO   H76 3214   4.900   9.191   2.390 -0.9702 -0.0067  0.0217
    8CHTO   C43 3215   5.129   9.434   2.281 -0.4344  0.5657 -0.5247
    8CHTO   H85 3216   5.113   9.408   2.176  0.7596 -0.5174 -0.4333
    8CHTO   O29 3217   5.272   9.459   2.306  0.4235 -0.4748  0.2445
    8CHTO   C50 3218   5.326   9.448   2.444 -0.3313 -0.5927 -0.7237
    8CHTO   H92 3219   5.434   9.447   2.425 -0.0167 -1.1198  0.9661
    8CHTO   C54 3220   5.292   9.569   2.535  0.2937  0.2890  0.1925
    8CHTO   O36 3221   5.338   9.696   2.478 -0.0136 -0.5672 -0.0202
    8CHTO   H72 3222   5.431   9.696   2.492  0.0939 -0.2419 -0.7295
    8CHTO   O27 3223   5.054   9.560   2.302 -0.5012 -0.3015  0.2826
    8CHTO   C37 3224   5.025   9.632   2.180 -0.3450 -0.1683 -0.5804
    8CHTO   H79 3225   5.047   9.569   2.092 -0.8901  2.4777 -2.6851
    8CHTO   C38 3226   4.870   9.650   2.176  0.1751 -0.5047  0.3516
    8CHTO   H80 3227   4.835   9.686   2.273 -0.2314 -3.3943  1.3382
    8CHTO   O31 3228   4.803   9.523   2.141  0.6912  0.4416  0.4139
    8CHTO   H68 3229   4.853   9.475   2.078  0.5291 -1.6415  1.8349
    8CHTO   C39 3230   4.827   9.764   2.069  0.6387  0.1809  0.3062
    8CHTO   H81 3231   4.864   9.731   1.972  0.7026 -0.1199  0.4357
    8CHTO    N7 3232   4.680   9.794   2.073  0.0300  0.2073 -0.3606
    8CHTO   H73 3233   4.627   9.722   2.013  1.5602 -0.9875 -0.3090
    8CHTO   H74 3234   4.673   9.892   2.028 -1.1559  1.1254  1.7407
    8CHTO   C40 3235   4.914   9.894   2.098  0.1729  0.0010 -0.2067
    8CHTO   H82 3236   4.893   9.915   2.203 -1.0819  0.3629 -0.5240
    8CHTO   O26 3237   5.053   9.861   2.070 -0.0376 -0.2614 -0.0163
    8CHTO   C41 3238   5.104   9.773   2.178 -1.1903  0.1176 -0.3399
    8CHTO   H83 3239   5.092   9.806   2.282  0.5062 -3.6881  1.1235
    8CHTO   C52 3240   5.254   9.746   2.174 -0.5250  1.0047  0.1176
    8CHTO   O35 3241   5.307   9.694   2.036 -0.4246 -0.1772  0.6663
    8CHTO   H71 3242   5.270   9.753   1.973 -1.1237 -1.1319  0.1676
    8CHTO   O28 3243   4.877  10.017   2.025 -0.0414  0.0793 -0.5066
    8CHTO   C42 3244   4.892  10.053   1.883  0.1326  0.0939 -0.2405
    8CHTO   H84 3245   4.907  10.161   1.881  2.1210 -0.1663 -0.7826
    8CHTO   C44 3246   4.762  10.024   1.804 -0.2747  0.3493  0.1419
    8CHTO   H86 3247   4.726   9.924   1.829 -1.4260  0.8059  0.3594
    8CHTO   O32 3248   4.665  10.111   1.851 -0.3724 -0.4595  0.4703
    8CHTO   H69 3249   4.582  10.093   1.812 -0.1086 -2.7432  0.8623
    8CHTO   C48 3250   4.776  10.022   1.645 -0.1618 -0.2849 -0.1317
    8CHTO   H90 3251   4.784  10.127   1.617  0.6631  0.2581  2.0404
    8CHTO    N9 3252   4.648   9.970   1.587  0.1232 -0.4553  0.3441
    8CHTO   H77 3253   4.602  10.029   1.509 -1.4250 -0.2157  1.4229
    8CHTO   H78 3254   4.674   9.871   1.552 -0.0844 -0.8782  1.3669
    8CHTO   C51 3255   4.910   9.956   1.594 -0.4177 -0.5805  0.7873
    8CHTO   H93 3256   4.918   9.849   1.612  1.1158 -0.7024 -0.4903
    8CHTO   O30 3257   5.015  10.027   1.651 -0.2844 -0.0335 -0.2028
    8CHTO   C46 3258   5.020   9.995   1.811  0.5945  0.5849  0.1342
    8CHTO   H88 3259   5.019   9.887   1.820 -0.2553  0.6105  0.4850
    8CHTO   C53 3260   5.144  10.062   1.857 -0.1947 -0.4727 -0.2089
    8CHTO   O72 3261   5.263  10.008   1.805 -0.0980  0.6241 -0.1700
    8CHTO  H199 3262   5.293  10.044   1.723  0.5840  2.0876  0.6987
    8CHTO   O22 3263   4.932   9.972   1.456  0.1390 -0.5785  0.4492
    8CHTO   C31 3264   5.008   9.869   1.376 -0.1711 -0.0884 -0.3080
    8CHTO   H59 3265   5.052   9.923   1.290  0.7822  0.0306  0.2438
    8CHTO   C29 3266   5.122   9.790   1.450 -0.3521  0.5031 -0.6143
    8CHTO   H57 3267   5.084   9.724   1.529  0.2438  0.3426 -0.4656
    8CHTO   O21 3268   5.227   9.871   1.509  0.4235 -0.2271 -0.1285
    8CHTO   H37 3269   5.211   9.905   1.595  0.2876 -1.5114  0.3808
    8CHTO   C27 3270   5.192   9.694   1.345 -0.2142  0.1811 -0.5990
    8CHTO   H55 3271   5.252   9.760   1.280  1.1643  0.5004  0.9744
    8CHTO    N5 3272   5.284   9.595   1.406 -0.0715 -0.3148 -0.3014
    8CHTO   H43 3273   5.237   9.548   1.492 -1.5385  0.3768 -0.7143
    8CHTO   H44 3274   5.377   9.638   1.440  0.2404 -1.0278 -0.2283
    8CHTO   C25 3275   5.090   9.612   1.246  0.8337 -0.5639 -0.1785
    8CHTO   H53 3276   5.055   9.524   1.304  0.8387 -1.1902 -1.1185
    8CHTO   O17 3277   4.971   9.687   1.204  0.1313 -0.1479  0.0054
    8CHTO   C32 3278   4.913   9.765   1.309  0.7974 -0.1717  0.1864
    8CHTO   H60 3279   4.876   9.696   1.384 -0.5378  1.1759  0.8150
    8CHTO   C36 3280   4.781   9.828   1.250 -0.1705 -0.2129 -0.0870
    8CHTO   O25 3281   4.679   9.737   1.228  0.2137 -0.4294  0.2594
    8CHTO   H40 3282   4.602   9.779   1.261  0.5862  1.1509 -0.8428
    8CHTO   O15 3283   5.155   9.566   1.127  0.2391 -0.1401 -0.1236
    8CHTO   C19 3284   5.213   9.536   1.000 -0.0582 -0.0677 -0.0312
    8CHTO   H47 3285   5.180   9.433   0.981 -2.1688  0.9582 -2.1866
    8CHTO   C20 3286   5.163   9.626   0.885  0.1410  0.0437 -0.2289
    8CHTO   H48 3287   5.162   9.733   0.910 -1.2385  0.1599 -0.7490
    8CHTO   O19 3288   5.022   9.598   0.874 -0.1380  0.5359  0.4121
    8CHTO   H35 3289   4.977   9.664   0.825  1.1680 -0.7157 -2.6180
    8CHTO   C21 3290   5.240   9.601   0.746 -0.3604  0.6038  0.7558
    8CHTO   H49 3291   5.214   9.504   0.705 -0.8014  1.1643 -0.2889
    8CHTO    N4 3292   5.198   9.692   0.637  0.1267  0.4188  0.2230
    8CHTO   H41 3293   5.093   9.717   0.633 -0.1394 -0.7337 -0.1041
    8CHTO   H42 3294   5.219   9.643   0.543  1.1836  2.8480 -0.8430
    8CHTO   C22 3295   5.391   9.591   0.774  0.0315  0.9414  0.1307
    8CHTO   H50 3296   5.417   9.693   0.804 -0.3684  1.7645 -2.2074
    8CHTO   O14 3297   5.427   9.501   0.882  0.4984 -0.0164  0.2040
    8CHTO   C23 3298   5.374   9.534   1.012  0.4915 -0.5211  0.4075
    8CHTO   H51 3299   5.411   9.633   1.043  1.1705  0.1250 -2.3401
    8CHTO   C34 3300   5.437   9.440   1.119 -0.0891  0.1605  0.0486
    8CHTO   O23 3301   5.564   9.490   1.165  0.3949  0.3553 -0.0469
    8CHTO   H38 3302   5.589   9.463   1.251 -1.1058  2.6281  1.1180
    8CHTO   O16 3303   5.462   9.542   0.659  0.3361  0.1258 -0.1290
    8CHTO   C24 3304   5.619   9.560   0.648  0.2632 -0.4721 -0.2947
    8CHTO   H52 3305   5.665   9.589   0.743  0.9527 -1.9123 -0.1799
    8CHTO   C26 3306   5.643   9.671   0.538  0.2098  0.1489  0.2910
    8CHTO   H54 3307   5.577   9.658   0.451 -0.5296  0.5520  0.7846
    8CHTO   O20 3308   5.579   9.797   0.576  0.0566  0.2202  0.0471
    8CHTO   H36 3309   5.621   9.838   0.649 -2.1318  0.1778  1.3870
    8CHTO   C30 3310   5.794   9.686   0.498  0.2362 -0.0527 -0.0940
    8CHTO   H58 3311   5.861   9.723   0.578  0.8120  0.1634 -0.6709
    8CHTO    N6 3312   5.818   9.794   0.392  0.3458  0.4490 -0.0066
    8CHTO   H45 3313   5.895   9.762   0.323  0.1440  1.3368 -0.6553
    8CHTO   H46 3314   5.851   9.887   0.436  0.1930  0.2162  0.5999
    8CHTO   C33 3315   5.844   9.539   0.466 -0.5853 -0.2129 -0.0006
    8CHTO   H61 3316   5.791   9.503   0.377 -2.8930  2.2702  0.2989
    8CHTO   O18 3317   5.822   9.449   0.577  0.3625 -0.5942  0.1723
    8CHTO   C28 3318   5.683   9.426   0.610 -0.2020  0.9764 -0.3915
    8CHTO   H56 3319   5.632   9.381   0.525 -1.7318 -2.2120  2.0924
    8CHTO   C35 3320   5.670   9.317   0.733  1.2451 -0.4673 -0.1229
    8CHTO   O24 3321   5.739   9.356   0.852 -0.1046  0.1914 -0.3142
    8CHTO   H39 3322   5.718   9.446   0.866 -0.3440  0.2420 -0.9946
    8CHTO    O9 3323   5.985   9.540   0.429  0.1150  0.2348 -0.0259
    8CHTO   C13 3324   6.022   9.411   0.342  0.4919  0.3546 -0.3042
    8CHTO   H26 3325   5.938   9.338   0.343  1.7601 -1.1269  1.0957
    8CHTO   C11 3326   6.154   9.351   0.411  0.3576  0.0036 -0.0787
    8CHTO   H24 3327   6.140   9.309   0.512  0.3910  0.0725 -0.0454
    8CHTO    O8 3328   6.256   9.452   0.424  0.5944 -0.1036 -0.4050
    8CHTO    H3 3329   6.283   9.482   0.339 -0.4900 -0.2220 -0.7901
    8CHTO    C9 3330   6.198   9.231   0.313 -0.2469  0.0560 -0.3771
    8CHTO   H22 3331   6.109   9.167   0.312  0.0428 -0.3690  0.8696
    8CHTO    N2 3332   6.305   9.142   0.369 -0.0206  0.5357  0.1232
    8CHTO   H10 3333   6.266   9.042   0.357 -0.3335  0.8225 -1.2802
    8CHTO   H11 3334   6.394   9.153   0.309  1.0717 -3.7191  0.8123
    8CHTO    C7 3335   6.225   9.278   0.173 -0.1142  0.4638  0.2370
    8CHTO   H20 3336   6.233   9.186   0.111  0.3401  0.2505  0.6157
    8CHTO    O4 3337   6.117   9.351   0.114  0.7635  0.1572 -0.1740
    8CHTO   C14 3338   6.045   9.446   0.195 -0.2291  0.1689 -0.3463
    8CHTO   H27 3339   5.943   9.458   0.152 -0.6404 -0.5912  0.4194
    8CHTO   C18 3340   6.116   9.575   0.168  0.7418 -0.3540 -0.0793
    8CHTO   O13 3341   6.033   9.694   0.187 -0.6624  0.7745 -0.5667
    8CHTO    H7 3342   6.038   9.733   0.272 -2.4277  1.0096 -0.5647
    8CHTO    O2 3343   6.351   9.355   0.156  0.4930 -0.2507  0.0271
    8CHTO    C1 3344   6.418   9.364   0.028  0.0968  0.0934 -1.1450
    8CHTO   H14 3345   6.398   9.468  -0.007 -0.3770 -0.0584 -1.3220
    8CHTO    C2 3346   6.379   9.265  -0.081  0.1260  1.0834 -0.1605
    8CHTO   H15 3347   6.373   9.163  -0.040  0.4061  0.2264 -2.1617
    8CHTO    O6 3348   6.246   9.284  -0.128  0.0057 -0.0758 -0.0447
    8CHTO    H1 3349   6.232   9.228  -0.202  1.4926  1.2356 -1.3742
    8CHTO    C3 3350   6.491   9.266  -0.201 -0.6747  0.9599  0.0689
    8CHTO   H16 3351   6.473   9.363  -0.248  1.3341  1.6708  0.7354
    8CHTO    N1 3352   6.469   9.159  -0.301  0.0507  0.3296 -0.3295
    8CHTO    H8 3353   6.560   9.102  -0.308  0.9990  1.8061 -0.3400
    8CHTO    H9 3354   6.388   9.098  -0.265 -0.8670  1.3962 -0.5652
    8CHTO    C4 3355   6.646   9.277  -0.148  0.0553  0.5983 -0.2527
    8CHTO   H17 3356   6.677   9.177  -0.116 -0.1666  0.2457 -1.1095
    8CHTO    O1 3357   6.656   9.375  -0.048 -0.0811  0.1119  0.1463
    8CHTO    C5 3358   6.574   9.361   0.066  0.0491  0.4399  0.1983
    8CHTO   H18 3359   6.597   9.270   0.122 -1.4871  0.0728  0.2627
    8CHTO   C16 3360   6.611   9.481   0.158  0.8416 -0.0244  0.4326
    8CHTO   O11 3361   6.746   9.471   0.198 -0.5758 -0.3915 -0.4598
    8CHTO    H5 3362   6.776   9.551   0.161 -1.9107  1.4741  2.3138
    8CHTO    O3 3363   6.735   9.309  -0.262  0.1351 -0.2921  0.2672
    8CHTO    C6 3364   6.780   9.447  -0.293 -1.5244  0.1220 -1.0138
    8CHTO   H19 3365   6.717   9.519  -0.239 -1.2862 -0.9434  0.7235
    8CHTO    C8 3366   6.929   9.454  -0.235 -0.5554 -0.0767 -0.5655
    8CHTO   H21 3367   6.988   9.366  -0.259 -1.5814 -0.8518 -0.2488
    8CHTO    O7 3368   6.913   9.462  -0.090 -0.1036 -0.4272 -0.7848
    8CHTO    H2 3369   6.997   9.465  -0.049 -1.1330 -1.2257  1.4682
    8CHTO   C12 3370   7.005   9.585  -0.281 -0.4570 -1.0096 -0.1618
    8CHTO   H25 3371   6.964   9.665  -0.215  0.7588 -0.3529 -0.1759
    8CHTO    N3 3372   7.148   9.585  -0.243  0.2069  0.1569 -0.1852
    8CHTO   H12 3373   7.196   9.682  -0.239  0.7818 -0.1934  2.4534
    8CHTO   H13 3374   7.167   9.520  -0.159  2.8446 -2.0165 -2.3576
    8CHTO   C15 3375   6.972   9.611  -0.434  0.1286  0.4953 -1.4224
    8CHTO   H28 3376   7.029   9.533  -0.483 -1.0301  0.3398 -2.5137
    8CHTO   O10 3377   7.004   9.767  -0.484  0.0239  0.2188  0.6390
    8CHTO    H4 3378   6.994   9.824  -0.409 -0.0134  0.8639  0.1514
    8CHTO    O5 3379   6.830   9.608  -0.463 -0.1829  0.6577 -0.1418
    8CHTO   C10 3380   6.780   9.476  -0.446  0.6450 -0.6001  0.0145
    8CHTO   H23 3381   6.832   9.402  -0.506 -1.7184 -1.5891 -0.8949
    8CHTO   C17 3382   6.637   9.477  -0.494  0.0220 -0.2174 -0.0749
    8CHTO   O12 3383   6.635   9.506  -0.632 -0.4100 -0.8732  0.3276
    8CHTO    H6 3384   6.697   9.456  -0.681  0.9490 -1.2481  2.3900
    9CHTO  H203 3385   6.706   3.553   1.479  0.8035  1.8869 -0.8294
    9CHTO   O82 3386   6.613   3.559   1.480  0.7121  0.4524 -0.2216
    9CHTO  C123 3387   6.576   3.479   1.363 -0.2228  0.3947  0.2428
    9CHTO  H227 3388   6.539   3.382   1.399 -1.2399 -0.7093 -3.4704
    9CHTO   O77 3389   6.462   3.556   1.316 -0.1602 -0.3737 -0.2515
    9CHTO  C118 3390   6.414   3.512   1.188 -0.4236  0.1061  0.0158
    9CHTO  H222 3391   6.352   3.421   1.198 -0.9293  0.4727  0.2424
    9CHTO  C125 3392   6.322   3.632   1.138 -0.5943 -0.7936  0.1232
    9CHTO   O84 3393   6.212   3.651   1.227  0.1978 -0.4256 -0.1111
    9CHTO  H205 3394   6.135   3.686   1.187 -0.1370 -0.2229  0.6991
    9CHTO  C114 3395   6.533   3.491   1.087  0.2632 -0.8987 -0.2267
    9CHTO  H218 3396   6.588   3.585   1.077 -0.7918  0.2824  4.0583
    9CHTO  C116 3397   6.635   3.395   1.141 -0.3926 -0.2754 -0.4513
    9CHTO  H220 3398   6.583   3.304   1.176 -0.0626 -0.7491 -1.1896
    9CHTO   O79 3399   6.732   3.358   1.040  0.2961  0.7780  0.6169
    9CHTO  H201 3400   6.697   3.283   0.996 -1.8653  1.6002  0.8771
    9CHTO  C120 3401   6.701   3.465   1.265 -0.6420 -0.2560  0.4687
    9CHTO  H224 3402   6.718   3.572   1.241  0.0004  0.0327  2.1236
    9CHTO   N21 3403   6.821   3.392   1.321 -0.6377  0.4655  0.3573
    9CHTO  H211 3404   6.836   3.386   1.428  0.4857 -2.1033  0.0725
    9CHTO  H212 3405   6.830   3.295   1.276 -1.0768 -0.0631  1.3861
    9CHTO   O75 3406   6.465   3.435   0.974  0.0065 -0.2609 -0.0582
    9CHTO  C112 3407   6.533   3.495   0.833  0.7848 -0.2757 -0.2755
    9CHTO  H216 3408   6.638   3.464   0.819  0.9401  0.7061 -1.2896
    9CHTO   O73 3409   6.517   3.635   0.836 -0.0800 -0.3770  0.0660
    9CHTO  C113 3410   6.597   3.703   0.741  0.0525 -0.4482  0.1839
    9CHTO  H217 3411   6.702   3.667   0.750 -0.1396 -1.5346 -1.6625
    9CHTO  C124 3412   6.592   3.845   0.780  0.5969  0.0649 -0.4435
    9CHTO   O83 3413   6.675   3.923   0.693  0.2792  0.4447  0.0695
    9CHTO  H204 3414   6.751   3.963   0.730  1.3618 -1.1586 -0.3252
    9CHTO  C109 3415   6.537   3.671   0.605 -0.2276  0.3817 -0.2853
    9CHTO  H213 3416   6.438   3.718   0.601  0.4191  1.7887 -0.0263
    9CHTO  C110 3417   6.542   3.513   0.581 -0.3215 -0.7226 -0.2611
    9CHTO  H214 3418   6.644   3.476   0.584  0.0039 -0.2104 -3.4577
    9CHTO   O78 3419   6.476   3.501   0.455 -0.1155 -0.1098 -0.0464
    9CHTO  H200 3420   6.543   3.475   0.395  1.3192 -1.3319  2.0432
    9CHTO  C111 3421   6.462   3.440   0.695  0.2516 -0.3698 -0.6524
    9CHTO  H215 3422   6.355   3.463   0.689  0.2666  0.3155  1.2065
    9CHTO   N19 3423   6.474   3.289   0.695 -0.3347 -0.3417  0.0047
    9CHTO  H207 3424   6.390   3.244   0.744 -0.3230 -0.3355  0.0311
    9CHTO  H208 3425   6.473   3.270   0.589  0.6741 -0.1986 -0.0353
    9CHTO   O74 3426   6.613   3.738   0.505 -0.1411 -0.1199  0.0361
    9CHTO  C115 3427   6.771   3.685   0.472  0.1239  0.7122 -0.1804
    9CHTO  H219 3428   6.818   3.636   0.558  1.9095 -0.1208 -1.5890
    9CHTO   O76 3429   6.773   3.576   0.355 -0.0404  0.1213 -0.8734
    9CHTO  C122 3430   6.746   3.636   0.226  0.2292  0.0132 -0.3964
    9CHTO  H226 3431   6.652   3.690   0.236  0.5851  0.1387  2.7967
    9CHTO  C126 3432   6.724   3.524   0.124  0.0955 -0.2260 -0.6862
    9CHTO   O85 3433   6.606   3.445   0.128 -0.3522  0.1829  0.1522
    9CHTO  H206 3434   6.631   3.359   0.101 -1.2149 -0.0603  0.1371
    9CHTO  C121 3435   6.865   3.735   0.191  0.3052  0.4769 -0.6530
    9CHTO  H225 3436   6.959   3.681   0.212  0.6320  0.2232 -2.6782
    9CHTO   O81 3437   6.884   3.764   0.053 -0.3820 -0.1421 -0.1134
    9CHTO  H202 3438   6.832   3.706   0.001  1.5672 -1.0997 -1.0386
    9CHTO  C119 3439   6.850   3.854   0.287 -0.2987  0.6624  0.1626
    9CHTO  H223 3440   6.937   3.914   0.258  2.6174 -1.2914  4.3713
    9CHTO  C117 3441   6.860   3.816   0.445  0.2666  0.2062 -0.1002
    9CHTO  H221 3442   6.831   3.899   0.510 -0.6592  0.1461 -0.4427
    9CHTO   N20 3443   7.007   3.792   0.485  0.0963  0.4771  0.2950
    9CHTO  H209 3444   7.007   3.735   0.577 -2.2757 -1.0205 -0.5948
    9CHTO  H210 3445   7.054   3.889   0.500  0.5436  0.2724  0.2341
    9CHTO   O80 3446   6.734   3.940   0.243 -0.0575 -0.4030  0.2655
    9CHTO  C103 3447   6.752   4.092   0.238 -0.3468  0.2318  0.0803
    9CHTO  H190 3448   6.811   4.123   0.324 -0.3050  0.1828  0.0702
    9CHTO  C101 3449   6.824   4.137   0.105  0.3183 -0.1893  0.4955
    9CHTO  H188 3450   6.771   4.121   0.011 -0.8549 -2.9917  1.5769
    9CHTO   O68 3451   6.956   4.072   0.084  0.0339  0.1323  0.0482
    9CHTO  H168 3452   7.011   4.117   0.022  0.0281 -1.3415 -1.0564
    9CHTO   C99 3453   6.846   4.293   0.114 -0.2889  0.6908  0.2264
    9CHTO  H186 3454   6.898   4.318   0.209  0.8426  0.6617 -0.3817
    9CHTO   N17 3455   6.912   4.370   0.001 -0.0006  0.4542  0.2317
    9CHTO  H174 3456   6.839   4.380  -0.078  0.3352  0.4162 -0.0909
    9CHTO  H175 3457   6.943   4.468   0.033  0.8836 -0.1211  1.1571
    9CHTO   C97 3458   6.703   4.357   0.131  0.5024  0.0511 -0.2383
    9CHTO  H184 3459   6.658   4.342   0.032  2.7141  0.1696 -1.3065
    9CHTO   O64 3460   6.619   4.300   0.235 -0.0211  0.6137 -0.0713
    9CHTO  C104 3461   6.611   4.158   0.245  0.6635 -0.7483 -0.5917
    9CHTO  H191 3462   6.542   4.117   0.172 -2.8094  1.6833  1.1868
    9CHTO  C108 3463   6.545   4.120   0.383  0.0767 -0.0080  0.3806
    9CHTO   O71 3464   6.631   4.172   0.487 -0.0365  0.5081  0.5750
    9CHTO  H171 3465   6.597   4.257   0.510  1.3940  0.9218  1.1931
    9CHTO   O62 3466   6.701   4.497   0.160 -0.0405 -0.0283  0.8047
    9CHTO   C91 3467   6.616   4.588   0.080  0.3158  0.9998  0.1886
    9CHTO  H178 3468   6.618   4.556  -0.024 -2.3151  2.2961 -0.2969
    9CHTO   C92 3469   6.694   4.726   0.067 -0.5281  0.1170  0.0623
    9CHTO  H179 3470   6.796   4.714   0.027  0.3834  0.7168  2.1397
    9CHTO   O66 3471   6.624   4.821  -0.021 -0.2868  0.6384 -0.2570
    9CHTO  H166 3472   6.536   4.826   0.011  0.2135  0.4994  1.1639
    9CHTO   C93 3473   6.697   4.796   0.205 -0.4361  0.4643 -0.5268
    9CHTO  H180 3474   6.729   4.897   0.177 -3.5159  0.7148 -3.5412
    9CHTO   N16 3475   6.802   4.754   0.299  0.6271 -0.1086  0.1375
    9CHTO  H172 3476   6.793   4.808   0.393 -2.8521  0.5514 -0.5095
    9CHTO  H173 3477   6.789   4.647   0.306  2.9853 -0.3636  0.9668
    9CHTO   C94 3478   6.553   4.800   0.272  0.8701 -0.1132 -0.1336
    9CHTO  H181 3479   6.551   4.741   0.363 -1.5791  0.4491  0.2023
    9CHTO   O61 3480   6.448   4.742   0.185 -0.2717 -0.0528 -0.2212
    9CHTO   C95 3481   6.476   4.607   0.141  0.0083 -0.0550 -0.4660
    9CHTO  H182 3482   6.462   4.539   0.225 -0.7013 -0.7883 -1.1594
    9CHTO  C106 3483   6.353   4.570   0.045  1.0371 -0.0019 -0.1819
    9CHTO   O69 3484   6.233   4.627   0.099  0.0131  0.2777 -0.5319
    9CHTO  H169 3485   6.210   4.560   0.161  0.0386 -0.3523 -1.2027
    9CHTO   O63 3486   6.516   4.937   0.309  0.3033 -0.6047  0.8413
    9CHTO   C96 3487   6.387   4.972   0.406 -0.3009 -0.1759  1.1028
    9CHTO  H183 3488   6.366   4.891   0.475 -1.1980 -1.4594 -0.6433
    9CHTO   C98 3489   6.258   5.006   0.336 -0.3876 -0.4877 -0.0626
    9CHTO  H185 3490   6.283   5.081   0.260  0.8134 -1.9408 -1.1279
    9CHTO   O67 3491   6.221   4.896   0.255  0.0111  0.0244 -0.4300
    9CHTO  H167 3492   6.150   4.915   0.196 -0.0485 -0.4533 -0.5146
    9CHTO  C102 3493   6.146   5.051   0.438 -0.7394 -0.1301 -0.3591
    9CHTO  H189 3494   6.131   4.962   0.502  0.9037 -0.2275 -0.0955
    9CHTO   N18 3495   6.021   5.079   0.365  0.2455  0.2418 -0.0141
    9CHTO  H176 3496   6.001   5.183   0.344 -0.3570  0.2295  0.4754
    9CHTO  H177 3497   5.936   5.043   0.422  0.8663 -0.8698  0.2146
    9CHTO  C105 3498   6.205   5.168   0.525  0.8398 -0.7914  0.1979
    9CHTO  H192 3499   6.205   5.263   0.472 -1.8787  0.2274  1.9214
    9CHTO   O65 3500   6.333   5.144   0.585 -0.1440 -0.3013  0.0458
    9CHTO  C100 3501   6.432   5.099   0.492  1.0710  0.0212  0.2338
    9CHTO  H187 3502   6.451   5.180   0.420  2.8026 -1.0626 -0.5702
    9CHTO  C107 3503   6.554   5.087   0.584  0.3986 -0.1452 -0.7064
    9CHTO   O70 3504   6.630   4.966   0.558 -0.4366 -0.2360 -0.8817
    9CHTO  H170 3505   6.574   4.893   0.543  2.0645 -2.5925  0.8334
    9CHTO   O57 3506   6.100   5.198   0.646  0.2221  0.5415 -0.9918
    9CHTO   C85 3507   6.083   5.330   0.694  0.5018  0.7748  0.0826
    9CHTO  H157 3508   6.040   5.388   0.611 -1.6672  3.1214  2.7473
    9CHTO   C83 3509   6.218   5.403   0.729 -0.3702 -0.5580 -0.2117
    9CHTO  H155 3510   6.277   5.415   0.638  0.6732  0.5518  0.6033
    9CHTO   O56 3511   6.301   5.334   0.824  0.1648 -0.2796  0.3743
    9CHTO  H135 3512   6.306   5.242   0.805 -1.0119  0.1541 -2.2373
    9CHTO   C81 3513   6.182   5.543   0.775 -0.4253 -0.0841 -0.8655
    9CHTO  H153 3514   6.124   5.600   0.702 -0.7372  1.6555  0.6904
    9CHTO   N14 3515   6.297   5.634   0.795 -0.2553 -1.0554  0.7447
    9CHTO  H141 3516   6.265   5.736   0.809  1.2267 -0.0380 -2.8548
    9CHTO  H142 3517   6.355   5.634   0.705  1.2776  0.0952  1.7095
    9CHTO   C79 3518   6.099   5.539   0.907  0.2472  1.0281 -0.6277
    9CHTO  H151 3519   6.077   5.640   0.942  1.4396  0.8863  0.5665
    9CHTO   O52 3520   5.977   5.457   0.887 -0.4972  0.0699  0.5854
    9CHTO   C86 3521   5.984   5.329   0.820  0.4983 -0.4827 -0.2152
    9CHTO  H158 3522   6.018   5.262   0.902 -0.0520  0.7973  1.0912
    9CHTO   C90 3523   5.847   5.285   0.785  0.3321 -0.1390 -0.5700
    9CHTO   O60 3524   5.840   5.158   0.713 -0.2602 -0.2498 -0.2300
    9CHTO  H138 3525   5.906   5.167   0.647 -1.2222  0.3297 -1.1423
    9CHTO   O50 3526   6.172   5.481   1.017 -0.8451 -0.3013 -0.1585
    9CHTO   C73 3527   6.169   5.466   1.156 -0.0012 -0.2506 -0.0631
    9CHTO  H145 3528   6.070   5.439   1.195  1.3403 -2.1550  2.1734
    9CHTO   C74 3529   6.189   5.604   1.229 -0.0185  0.7878  0.2443
    9CHTO  H146 3530   6.113   5.676   1.196 -0.3327  1.1899  1.7703
    9CHTO   O54 3531   6.161   5.577   1.368  0.7612  0.0207  0.1138
    9CHTO  H133 3532   6.196   5.495   1.398 -0.8747 -0.5212  0.5930
    9CHTO   C75 3533   6.343   5.655   1.199  0.4608 -0.4418  0.0381
    9CHTO  H147 3534   6.350   5.674   1.091 -1.5638  3.4595  0.4943
    9CHTO   N13 3535   6.366   5.785   1.264  0.0839  0.4524  0.5218
    9CHTO  H139 3536   6.288   5.854   1.237  1.0162  1.6201  0.7618
    9CHTO  H140 3537   6.389   5.774   1.369 -0.2585 -0.4799  0.5034
    9CHTO   C76 3538   6.441   5.535   1.239  0.1816 -1.1952 -0.1680
    9CHTO  H148 3539   6.436   5.540   1.348  1.3172 -0.1559 -0.1604
    9CHTO   O49 3540   6.414   5.400   1.180  0.0261  0.2347 -0.2127
    9CHTO   C77 3541   6.281   5.365   1.216  0.3373  0.0028 -0.2282
    9CHTO  H149 3542   6.273   5.364   1.325  1.9588  4.9563  0.0173
    9CHTO   C88 3543   6.263   5.221   1.175  0.6732  0.0394 -0.7076
    9CHTO   O58 3544   6.334   5.195   1.039  0.5351  0.2726 -0.8462
    9CHTO  H136 3545   6.380   5.114   1.047  0.8691  0.6992  2.3128
    9CHTO   O51 3546   6.595   5.576   1.172 -0.3837  0.3744 -0.3144
    9CHTO   C78 3547   6.718   5.539   1.274  0.4406 -0.4000  0.6138
    9CHTO  H150 3548   6.670   5.536   1.374 -2.4928  1.6678 -0.6680
    9CHTO   C80 3549   6.834   5.650   1.281 -0.3772  0.4549 -0.6574
    9CHTO  H152 3550   6.889   5.660   1.185  1.8327 -0.1941  0.5030
    9CHTO   O55 3551   6.772   5.772   1.300 -0.4433  0.6919  0.0106
    9CHTO  H134 3552   6.826   5.837   1.258 -0.7324  0.4233 -0.7859
    9CHTO   C84 3553   6.941   5.613   1.399  0.6732 -0.2566 -0.2770
    9CHTO  H156 3554   6.888   5.604   1.494  1.8635 -0.9100  0.3404
    9CHTO   N15 3555   7.064   5.703   1.411  0.2310  0.0939  0.5145
    9CHTO  H143 3556   7.034   5.801   1.442 -2.6144 -0.6477  0.2417
    9CHTO  H144 3557   7.148   5.672   1.470  1.6681  1.6906 -0.6116
    9CHTO   C87 3558   6.988   5.470   1.379 -0.1598  0.0721  0.8584
    9CHTO  H159 3559   7.064   5.460   1.301 -1.2462  2.1966 -0.5261
    9CHTO   O53 3560   6.874   5.362   1.351 -0.0997  0.2200  0.0111
    9CHTO   C82 3561   6.784   5.401   1.247  0.0244 -0.2214 -0.7297
    9CHTO  H154 3562   6.839   5.402   1.154  0.0159 -2.4675 -0.7793
    9CHTO   C89 3563   6.684   5.282   1.246 -0.1527  0.2931  0.3546
    9CHTO   O59 3564   6.747   5.155   1.215 -0.7635  0.4935  0.2075
    9CHTO  H137 3565   6.691   5.083   1.237 -0.0840 -0.2178 -0.3706
    9CHTO   O45 3566   7.052   5.416   1.517 -0.6985 -0.1396 -0.6221
    9CHTO   C67 3567   7.129   5.295   1.517 -0.5315 -0.2563  0.1179
    9CHTO  H124 3568   7.081   5.227   1.447  1.2008  0.0303 -1.3984
    9CHTO   C65 3569   7.286   5.316   1.473  0.3982  0.5487 -0.0487
    9CHTO  H122 3570   7.315   5.420   1.481 -0.8539  0.8550  0.6617
    9CHTO   O44 3571   7.302   5.279   1.335  0.2695 -0.8480  0.7198
    9CHTO  H102 3572   7.375   5.323   1.296 -0.5419  0.5458  0.7420
    9CHTO   C63 3573   7.393   5.245   1.569  0.3488  0.3813  0.6144
    9CHTO  H120 3574   7.409   5.308   1.657  1.2041  1.0083  0.0143
    9CHTO   N11 3575   7.530   5.248   1.528 -0.3039 -0.6747  0.4592
    9CHTO  H108 3576   7.539   5.332   1.462 -1.1662 -1.5983 -0.8534
    9CHTO  H109 3577   7.565   5.163   1.473  0.9091  0.1404 -0.0592
    9CHTO   C61 3578   7.344   5.099   1.611 -0.3721 -0.4614  0.2435
    9CHTO  H118 3579   7.403   5.069   1.699 -2.2706 -0.9332  1.3816
    9CHTO   O40 3580   7.202   5.099   1.657  0.0330  0.5753 -0.5083
    9CHTO   C68 3581   7.124   5.225   1.655  0.1644 -0.4371  0.2113
    9CHTO  H125 3582   7.168   5.286   1.737  0.4680  0.5995 -0.7183
    9CHTO   C72 3583   6.981   5.194   1.691 -0.1928  0.0186 -0.0223
    9CHTO   O48 3584   6.919   5.103   1.612 -0.0699 -0.0588  0.3983
    9CHTO  H105 3585   6.889   5.150   1.536  0.5877 -0.8287 -0.3481
    9CHTO   O38 3586   7.357   5.003   1.502 -0.3110 -0.5440  0.6164
    9CHTO   C55 3587   7.320   4.868   1.526  0.0797 -0.0457 -0.5865
    9CHTO  H112 3588   7.244   4.862   1.604 -0.0653  0.4194 -0.6921
    9CHTO   C56 3589   7.448   4.777   1.559 -0.0794 -0.7979  0.1522
    9CHTO  H113 3590   7.527   4.780   1.483 -0.8022  1.0484 -0.5683
    9CHTO   O42 3591   7.502   4.823   1.684 -0.0628  0.6377  0.5486
    9CHTO  H100 3592   7.586   4.785   1.701  0.2764  1.3351  0.4792
    9CHTO   C57 3593   7.409   4.625   1.564  0.1393 -0.2139  0.6229
    9CHTO  H114 3594   7.355   4.607   1.657 -1.5721 -4.3565 -1.0628
    9CHTO   N10 3595   7.527   4.537   1.563  0.6360 -0.4434  0.2083
    9CHTO  H106 3596   7.618   4.580   1.602  0.1073  1.7502 -0.8960
    9CHTO  H107 3597   7.512   4.438   1.603  1.1463 -0.8412 -0.5796
    9CHTO   C58 3598   7.315   4.587   1.443 -0.0467 -0.2169 -0.0747
    9CHTO  H115 3599   7.372   4.592   1.348 -1.2016 -0.6141 -0.7856
    9CHTO   O37 3600   7.209   4.680   1.433  0.3162  0.5783  0.2282
    9CHTO   C59 3601   7.247   4.814   1.402  0.4125  0.6342  0.4592
    9CHTO  H116 3602   7.305   4.814   1.309 -0.6556  0.0562 -0.2181
    9CHTO   C70 3603   7.119   4.885   1.364  0.7672 -0.1497 -0.1835
    9CHTO   O46 3604   7.016   4.891   1.461 -0.5586 -0.2520  0.7722
    9CHTO  H103 3605   7.059   4.912   1.542 -0.0357 -3.3085  1.3280
    9CHTO   O39 3606   7.237   4.427   1.483 -0.7442  0.2758  0.5013
    9CHTO   C60 3607   7.182   4.351   1.378  0.3164  0.4836  0.3414
    9CHTO  H117 3608   7.143   4.257   1.418  0.1535  0.2314 -0.3931
    9CHTO   C62 3609   7.072   4.418   1.291 -0.4474 -0.5150  0.9726
    9CHTO  H119 3610   6.990   4.450   1.359 -0.5189  1.0513  0.1475
    9CHTO   O43 3611   7.126   4.534   1.216 -0.8762 -0.0437 -0.4140
    9CHTO  H101 3612   7.056   4.589   1.189 -1.9351 -1.9061 -1.5648
    9CHTO   C66 3613   7.006   4.302   1.196 -0.2190  0.0255 -0.0941
    9CHTO  H123 3614   6.991   4.206   1.246  1.2512 -0.2726 -0.2015
    9CHTO   N12 3615   6.872   4.338   1.148 -0.6388  0.1244 -0.1123
    9CHTO  H110 3616   6.838   4.263   1.078 -0.4213 -0.2213  0.1543
    9CHTO  H111 3617   6.805   4.356   1.231  0.5305 -0.3520  0.9557
    9CHTO   C69 3618   7.105   4.253   1.083 -0.3279  0.0744 -0.5079
    9CHTO  H126 3619   7.114   4.337   1.010  1.8262  1.4372  1.2401
    9CHTO   O41 3620   7.249   4.238   1.145  0.2699 -0.7696 -0.0082
    9CHTO   C64 3621   7.293   4.310   1.276  0.2262  0.4131 -1.1153
    9CHTO  H121 3622   7.350   4.401   1.246 -0.0035  0.5875 -1.0263
    9CHTO   C71 3623   7.400   4.212   1.340 -0.2633 -0.0023 -0.0797
    9CHTO   O47 3624   7.338   4.091   1.384  0.2584  0.4676  0.3519
    9CHTO  H104 3625   7.311   4.037   1.313  0.6234 -0.9864  1.2976
    9CHTO   O34 3626   7.056   4.104   1.017  0.3561 -0.0592  0.2116
    9CHTO   C49 3627   7.145   3.992   0.997 -0.6515  0.0618 -0.1652
    9CHTO   H91 3628   7.235   4.032   0.949 -0.8303 -0.7538 -1.2042
    9CHTO   C47 3629   7.079   3.890   0.900 -0.0934  0.1565  0.0764
    9CHTO   H89 3630   7.149   3.805   0.884 -0.2721  0.5508 -3.3210
    9CHTO   O33 3631   7.063   3.957   0.771  0.6320  0.7643  0.3383
    9CHTO   H70 3632   7.031   4.043   0.786  0.1489  0.9678 -1.7102
    9CHTO   C45 3633   6.939   3.825   0.959  0.0815  0.1092 -0.0620
    9CHTO   H87 3634   6.856   3.888   0.924  1.1994  2.1325  0.8161
    9CHTO    N8 3635   6.919   3.684   0.914  0.5600  0.5943  0.4977
    9CHTO   H75 3636   6.844   3.632   0.972  2.5191 -1.2205  1.4753
    9CHTO   H76 3637   6.892   3.680   0.809 -2.3892  2.3467  1.1399
    9CHTO   C43 3638   6.938   3.844   1.120  0.1285  0.1776  1.0354
    9CHTO   H85 3639   6.920   3.951   1.131  1.9988  0.7552 -1.1635
    9CHTO   O29 3640   7.069   3.810   1.164  0.0072  0.4160  0.3487
    9CHTO   C50 3641   7.166   3.912   1.131 -0.2270 -0.2513  0.6003
    9CHTO   H92 3642   7.164   3.987   1.211  1.3860  0.1774  0.2760
    9CHTO   C54 3643   7.311   3.869   1.141  0.2352  1.1860  0.0645
    9CHTO   O36 3644   7.363   3.828   1.263  0.2059  0.4293  0.2393
    9CHTO   H72 3645   7.383   3.737   1.255  1.4469  0.5985  1.1059
    9CHTO   O27 3646   6.831   3.785   1.192 -0.8563 -0.2328 -0.0402
    9CHTO   C37 3647   6.762   3.833   1.311  0.1928  0.0996 -0.4286
    9CHTO   H79 3648   6.695   3.756   1.353 -0.9075  1.4463  0.3252
    9CHTO   C38 3649   6.865   3.869   1.423 -0.1045 -0.0256 -0.5086
    9CHTO   H80 3650   6.940   3.937   1.380 -0.4735  0.3032 -0.6367
    9CHTO   O31 3651   6.934   3.741   1.449 -0.0241 -0.8336 -0.6842
    9CHTO   H68 3652   6.982   3.719   1.371 -0.0275 -0.8537 -0.6805
    9CHTO   C39 3653   6.797   3.924   1.553  0.3295  0.0257 -0.0830
    9CHTO   H81 3654   6.731   3.853   1.603  1.0342 -2.0143 -1.9986
    9CHTO    N7 3655   6.904   3.964   1.653  0.3447  0.3576  0.1005
    9CHTO   H73 3656   6.983   3.891   1.661 -0.6571 -0.6620  0.9433
    9CHTO   H74 3657   6.847   3.990   1.741 -2.5129 -0.1616 -1.5423
    9CHTO   C40 3658   6.715   4.048   1.507  0.0130  0.1180 -0.7143
    9CHTO   H82 3659   6.783   4.119   1.460  1.2812 -0.5608  0.0786
    9CHTO   O26 3660   6.618   3.996   1.415  0.7733 -0.7331 -0.5414
    9CHTO   C41 3661   6.680   3.968   1.288  0.1578  0.2964  0.0521
    9CHTO   H83 3662   6.753   4.043   1.256  0.0579 -0.1451 -1.2365
    9CHTO   C52 3663   6.574   3.951   1.183  0.3808  0.2898  0.0794
    9CHTO   O35 3664   6.490   4.089   1.161  0.3006 -0.1210  0.0993
    9CHTO   H71 3665   6.409   4.075   1.115  0.8746 -2.5227 -0.2371
    9CHTO   O28 3666   6.656   4.116   1.624 -0.0721 -0.3416 -0.0341
    9CHTO   C42 3667   6.567   4.239   1.606  0.3732 -0.5617 -0.3401
    9CHTO   H84 3668   6.555   4.268   1.710 -1.1081 -0.5569 -0.5030
    9CHTO   C44 3669   6.421   4.201   1.547  0.2897 -0.4323  0.3083
    9CHTO   H86 3670   6.432   4.174   1.442 -2.4892 -0.7242  0.0613
    9CHTO   O32 3671   6.352   4.097   1.624 -0.2404 -0.0274  0.2799
    9CHTO   H69 3672   6.264   4.084   1.595 -0.1822  0.6033 -0.1621
    9CHTO   C48 3673   6.336   4.338   1.536 -0.4128  0.4528  0.3239
    9CHTO   H90 3674   6.332   4.372   1.639 -1.0398 -1.8758  1.1014
    9CHTO    N9 3675   6.208   4.325   1.463  0.1461  0.0774  0.2215
    9CHTO   H77 3676   6.229   4.303   1.359 -1.2147  0.0625 -0.0650
    9CHTO   H78 3677   6.160   4.246   1.518 -1.7190  1.9905  1.4287
    9CHTO   C51 3678   6.421   4.458   1.463 -0.6785 -0.2046  0.0109
    9CHTO   H93 3679   6.442   4.427   1.361 -0.2367  1.6565 -0.4847
    9CHTO   O30 3680   6.538   4.474   1.540  0.1337 -0.4421  0.2390
    9CHTO   C46 3681   6.631   4.363   1.528  0.0555 -0.0654  0.7662
    9CHTO   H88 3682   6.644   4.344   1.422 -2.4450  0.3269  0.3603
    9CHTO   C53 3683   6.769   4.401   1.598  0.0427 -0.1200  0.4380
    9CHTO   O72 3684   6.800   4.539   1.565  0.7152  0.1786  0.2116
    9CHTO  H199 3685   6.823   4.584   1.644 -2.1012  0.6387  0.8058
    9CHTO   O22 3686   6.365   4.589   1.463 -0.3854 -0.8762 -0.1322
    9CHTO   C31 3687   6.402   4.669   1.349 -0.1801  0.6636  0.0271
    9CHTO   H59 3688   6.372   4.773   1.375 -0.6593  0.4449  0.3458
    9CHTO   C29 3689   6.550   4.682   1.303 -0.4107  0.0596 -0.2190
    9CHTO   H57 3690   6.574   4.578   1.275 -0.9062  0.4179 -2.0725
    9CHTO   O21 3691   6.619   4.723   1.416 -0.0793 -0.0525  0.3163
    9CHTO   H37 3692   6.705   4.686   1.415 -1.3805 -3.2272 -1.1500
    9CHTO   C27 3693   6.567   4.770   1.175 -0.1886  0.5552 -0.8684
    9CHTO   H55 3694   6.553   4.874   1.207  0.5201  0.1408  0.8654
    9CHTO    N5 3695   6.710   4.754   1.129 -0.4574  0.5284  0.0263
    9CHTO   H43 3696   6.775   4.799   1.203  0.3935 -2.6827  1.3079
    9CHTO   H44 3697   6.725   4.787   1.028 -0.2954 -1.7494 -0.7149
    9CHTO   C25 3698   6.471   4.715   1.066  0.6474  0.1647  0.0288
    9CHTO   H53 3699   6.512   4.620   1.030 -2.6281 -0.9082 -1.0051
    9CHTO   O17 3700   6.336   4.696   1.109  0.0029 -0.6083  1.0926
    9CHTO   C32 3701   6.312   4.624   1.230  0.1669 -0.4674 -0.1615
    9CHTO   H60 3702   6.339   4.522   1.204 -0.4234 -0.8739  0.7922
    9CHTO   C36 3703   6.167   4.648   1.272 -0.1167 -0.1674 -0.2394
    9CHTO   O25 3704   6.077   4.604   1.169 -0.2170 -0.5756  0.2119
    9CHTO   H40 3705   6.041   4.683   1.134  1.4699 -0.5434 -1.5460
    9CHTO   O15 3706   6.470   4.811   0.944  0.4297  0.0998 -0.0697
    9CHTO   C19 3707   6.446   4.768   0.808 -0.2792 -0.1754 -0.3053
    9CHTO   H47 3708   6.492   4.845   0.745 -0.9242 -0.6984 -1.4229
    9CHTO   C20 3709   6.515   4.631   0.767 -0.5188  0.0173 -0.6091
    9CHTO   H48 3710   6.496   4.552   0.841 -0.0477  1.0637  0.6665
    9CHTO   O19 3711   6.653   4.658   0.781 -0.0567 -0.0460 -0.3759
    9CHTO   H35 3712   6.712   4.615   0.721  1.0075 -1.8041  1.8405
    9CHTO   C21 3713   6.476   4.588   0.622 -0.2189 -0.8362  0.2481
    9CHTO   H49 3714   6.519   4.662   0.555 -0.2889 -0.6139  0.4460
    9CHTO    N4 3715   6.529   4.457   0.585 -0.3540 -0.0814  0.7255
    9CHTO   H41 3716   6.579   4.458   0.489  1.0099 -1.1765  1.4115
    9CHTO   H42 3717   6.457   4.377   0.592  0.2877 -0.7553 -0.0944
    9CHTO   C22 3718   6.321   4.595   0.604 -0.1923 -0.1701 -0.2500
    9CHTO   H50 3719   6.275   4.527   0.675  0.1080 -0.6126 -0.4765
    9CHTO   O14 3720   6.268   4.716   0.647  0.4476  0.5608  0.0784
    9CHTO   C23 3721   6.291   4.753   0.781 -0.3204  0.1958 -0.2355
    9CHTO   H51 3722   6.246   4.674   0.842  0.2872 -0.1279 -0.2075
    9CHTO   C34 3723   6.217   4.884   0.807  0.4512 -0.1390 -0.1125
    9CHTO   O23 3724   6.206   4.911   0.946  0.3941  0.1267 -0.3050
    9CHTO   H38 3725   6.183   4.998   0.970  0.2339 -0.5581  2.1559
    9CHTO   O16 3726   6.271   4.571   0.468 -0.1231 -0.2087 -0.0075
    9CHTO   C24 3727   6.124   4.474   0.459 -0.1849  0.6782 -0.0827
    9CHTO   H52 3728   6.098   4.430   0.556  0.9090  0.4989  0.1437
    9CHTO   C26 3729   6.151   4.354   0.363 -0.2910 -0.4887 -0.2069
    9CHTO   H54 3730   6.171   4.391   0.260  1.0931 -0.8614 -0.0749
    9CHTO   O20 3731   6.262   4.281   0.415  0.5428 -0.7844  0.0434
    9CHTO   H36 3732   6.261   4.253   0.504  2.7879 -2.5878 -0.4314
    9CHTO   C30 3733   6.027   4.261   0.360 -0.0540 -0.6550 -0.3416
    9CHTO   H58 3734   6.012   4.203   0.452  2.3843 -1.4963 -0.4552
    9CHTO    N6 3735   6.042   4.154   0.263 -0.1132  0.0732  0.0529
    9CHTO   H45 3736   6.124   4.087   0.283 -0.1060  0.5560  1.7693
    9CHTO   H46 3737   5.955   4.092   0.251 -0.8342  0.8672  1.1156
    9CHTO   C33 3738   5.893   4.344   0.332  0.3154 -0.5537  0.0717
    9CHTO   H61 3739   5.888   4.379   0.227 -2.3271 -0.2543  0.2685
    9CHTO   O18 3740   5.888   4.466   0.418 -0.0109  0.4217 -0.0792
    9CHTO   C28 3741   6.005   4.553   0.411  0.2191  0.1939  0.3484
    9CHTO   H56 3742   6.030   4.582   0.309  1.9472  0.5936  0.8715
    9CHTO   C35 3743   5.969   4.678   0.504 -0.0338 -0.4478 -0.4359
    9CHTO   O24 3744   5.987   4.637   0.640  0.2813 -0.8351  0.8256
    9CHTO   H39 3745   5.983   4.708   0.703 -1.5060 -0.3216  0.1827
    9CHTO    O9 3746   5.780   4.257   0.349  0.5618 -0.2486  0.5530
    9CHTO   C13 3747   5.638   4.310   0.264 -0.4886  0.4595 -0.3952
    9CHTO   H26 3748   5.672   4.343   0.163  1.0058  0.4340  0.0856
    9CHTO   C11 3749   5.566   4.427   0.344  0.1024 -0.4609  0.5394
    9CHTO   H24 3750   5.629   4.514   0.318 -0.9533  1.1304  3.0968
    9CHTO    O8 3751   5.570   4.403   0.491  0.4641 -0.4463 -0.4730
    9CHTO    H3 3752   5.609   4.480   0.528  1.4894 -1.3975  0.4291
    9CHTO    C9 3753   5.422   4.455   0.296 -0.2705  0.0624 -0.1830
    9CHTO   H22 3754   5.431   4.476   0.189 -1.9192 -0.4546 -0.4321
    9CHTO    N2 3755   5.351   4.570   0.356 -0.6651 -0.4679  0.3715
    9CHTO   H10 3756   5.350   4.651   0.285  0.7863  0.2291  1.1226
    9CHTO   H11 3757   5.249   4.540   0.368  0.2509 -3.4000  1.1944
    9CHTO    C7 3758   5.341   4.321   0.308  0.1846  0.2168 -0.1358
    9CHTO   H20 3759   5.294   4.323   0.207  1.1709 -0.3127 -0.6153
    9CHTO    O4 3760   5.419   4.198   0.314  0.1929  0.2223  0.0043
    9CHTO   C14 3761   5.537   4.192   0.235 -0.3026 -0.1629 -0.4658
    9CHTO   H27 3762   5.497   4.200   0.131  0.5811  0.6046 -0.7579
    9CHTO   C18 3763   5.604   4.051   0.245 -0.2869  0.0901 -0.2252
    9CHTO   O13 3764   5.608   4.011   0.385  0.0571  0.7570  0.1809
    9CHTO    H7 3765   5.668   4.063   0.436 -0.4797 -0.3155  1.9702
    9CHTO    O2 3766   5.226   4.311   0.429  0.0992  0.1000 -0.3740
    9CHTO    C1 3767   5.114   4.232   0.386  0.5906 -0.4522 -0.1145
    9CHTO   H14 3768   5.140   4.166   0.301 -2.2599  1.0904 -2.2611
    9CHTO    C2 3769   4.980   4.318   0.350 -0.3831  0.2990  0.4176
    9CHTO   H15 3770   4.945   4.366   0.442  1.5642  0.8570  0.8910
    9CHTO    O6 3771   5.011   4.422   0.253  0.2020 -0.2242 -0.0823
    9CHTO    H1 3772   4.937   4.449   0.202 -0.5338 -0.4776  0.8213
    9CHTO    C3 3773   4.877   4.217   0.304  0.3294  0.0976 -0.5474
    9CHTO   H16 3774   4.908   4.176   0.207  0.7236  2.6346 -1.5309
    9CHTO    N1 3775   4.744   4.283   0.290  0.1582  0.6323  0.0347
    9CHTO    H8 3776   4.691   4.293   0.383 -0.3861 -2.5489  0.1331
    9CHTO    H9 3777   4.683   4.249   0.207  0.1138  0.1573  0.2582
    9CHTO    C4 3778   4.849   4.090   0.402 -0.0622 -0.5471  0.3338
    9CHTO   H17 3779   4.784   4.124   0.483  0.0123 -3.6031  1.7407
    9CHTO    O1 3780   4.978   4.040   0.451  0.1770 -0.5932 -0.3349
    9CHTO    C5 3781   5.079   4.132   0.496 -1.1962 -0.2230  0.0225
    9CHTO   H18 3782   5.037   4.184   0.582 -0.3890 -0.1565  0.3837
    9CHTO   C16 3783   5.198   4.044   0.542 -0.1273 -0.3862  0.3966
    9CHTO   O11 3784   5.176   3.969   0.664 -0.6195 -0.5032 -0.1780
    9CHTO    H5 3785   5.129   4.023   0.725  1.8061 -0.1095  1.3903
    9CHTO    O3 3786   4.783   3.985   0.336 -0.2711 -0.0822 -0.2487
    9CHTO    C6 3787   4.719   3.880   0.414  0.5468 -0.0304 -0.4897
    9CHTO   H19 3788   4.742   3.874   0.521  1.3183 -0.3466 -0.6733
    9CHTO    C8 3789   4.565   3.895   0.397  0.2132 -0.2507 -0.2494
    9CHTO   H21 3790   4.551   3.916   0.291  1.0282  1.0061 -0.1156
    9CHTO    O7 3791   4.524   4.018   0.468  0.2269  0.0112 -0.0080
    9CHTO    H2 3792   4.436   4.039   0.444  0.3261  0.2543 -0.1549
    9CHTO   C12 3793   4.495   3.768   0.452  0.0376  0.3973  0.2359
    9CHTO   H25 3794   4.521   3.785   0.559 -0.6030  0.0321  0.4516
    9CHTO    N3 3795   4.347   3.781   0.424  0.1996 -0.1972  0.2927
    9CHTO   H12 3796   4.328   3.846   0.339 -2.7321 -0.8453  0.3826
    9CHTO   H13 3797   4.310   3.837   0.509  0.8553 -0.9123  1.0477
    9CHTO   C15 3798   4.564   3.638   0.397  0.2221  0.3813  0.1866
    9CHTO   H28 3799   4.538   3.630   0.291 -0.2423 -1.9833  0.4530
    9CHTO   O10 3800   4.522   3.528   0.460  0.2625  0.7033 -0.0171
    9CHTO    H4 3801   4.440   3.502   0.422 -0.1345  0.8442  0.7475
    9CHTO    O5 3802   4.703   3.631   0.424 -0.0025 -0.1068  0.1250
    9CHTO   C10 3803   4.765   3.741   0.354 -0.7192 -0.3204  0.8411
    9CHTO   H23 3804   4.745   3.732   0.247 -0.1241  0.2534  0.6839
    9CHTO   C17 3805   4.918   3.737   0.355  0.0355 -0.1011 -0.4285
    9CHTO   O12 3806   4.964   3.639   0.261  0.0046  0.5395 -0.4469
    9CHTO    H6 3807   4.959   3.677   0.175 -0.0919 -0.1153 -0.7370
   10CHTO  H203 3808   3.828   6.390   2.581  1.1809  0.1530  0.5123
   10CHTO   O82 3809   3.845   6.477   2.550 -0.2468  0.1861 -0.1802
   10CHTO  C123 3810   3.807   6.580   2.646  0.8221  0.0714 -0.6630
   10CHTO  H227 3811   3.831   6.547   2.748  0.5587  0.2500 -0.5436
   10CHTO   O77 3812   3.896   6.695   2.610  0.0870  0.5451  0.0127
   10CHTO  C118 3813   3.872   6.821   2.666 -0.5972  0.3080 -0.3217
   10CHTO  H222 3814   3.893   6.805   2.773 -0.3951 -0.6773 -0.4968
   10CHTO  C125 3815   3.974   6.928   2.613  0.1575 -0.1549  0.5874
   10CHTO   O84 3816   4.106   6.873   2.633 -0.1396 -0.2498 -0.8473
   10CHTO  H205 3817   4.160   6.939   2.673 -1.1115 -0.5659  1.0743
   10CHTO  C114 3818   3.729   6.868   2.653 -0.0745 -0.1084  0.6191
   10CHTO  H218 3819   3.713   6.882   2.546  0.0582  1.2023  0.7687
   10CHTO  C116 3820   3.630   6.761   2.701  0.1876  0.2722  0.1447
   10CHTO  H220 3821   3.638   6.748   2.811  0.1937  2.5707  0.4451
   10CHTO   O79 3822   3.504   6.812   2.677 -0.1344  0.4035 -0.3042
   10CHTO  H201 3823   3.476   6.869   2.746  3.4353  0.3555  1.3052
   10CHTO  C120 3824   3.660   6.616   2.636  0.5769 -0.1730 -0.2122
   10CHTO  H224 3825   3.630   6.633   2.531 -2.9207  1.1741  0.9523
   10CHTO   N21 3826   3.576   6.509   2.702 -0.1630  0.1034 -0.5543
   10CHTO  H211 3827   3.481   6.491   2.654  0.0331 -0.8663 -0.5899
   10CHTO  H212 3828   3.566   6.520   2.809 -0.7894 -0.0175 -0.6021
   10CHTO   O75 3829   3.729   6.995   2.715 -0.3048 -0.4336 -0.0385
   10CHTO  C112 3830   3.687   6.996   2.896 -0.3720  0.4951  0.5541
   10CHTO  H216 3831   3.736   6.912   2.947  0.1060  0.8815  0.7310
   10CHTO   O73 3832   3.547   6.992   2.915  0.2709  0.0570 -0.1691
   10CHTO  C113 3833   3.513   6.974   3.050 -0.0375 -0.2542  0.1594
   10CHTO  H217 3834   3.562   6.879   3.079  1.3346  0.3716 -0.0546
   10CHTO  C124 3835   3.361   6.953   3.065  0.4063  0.0382 -0.0296
   10CHTO   O83 3836   3.318   6.855   3.158 -0.2592  0.5495 -0.2731
   10CHTO  H204 3837   3.298   6.907   3.234  1.6309  0.3561  0.3812
   10CHTO  C109 3838   3.559   7.089   3.146  0.3830  0.4827 -0.3705
   10CHTO  H213 3839   3.497   7.177   3.125  0.4237  1.0461  1.8414
   10CHTO  C110 3840   3.709   7.105   3.115  0.6008  0.6042 -0.2770
   10CHTO  H214 3841   3.769   7.019   3.145  0.8848  0.7150 -0.5201
   10CHTO   O78 3842   3.750   7.210   3.194  0.4710 -0.4427  0.0175
   10CHTO  H200 3843   3.838   7.198   3.224  0.4644  1.3069  0.7754
   10CHTO  C111 3844   3.732   7.128   2.968 -1.0760  0.3732 -0.1181
   10CHTO  H215 3845   3.654   7.200   2.938 -0.5018  1.1708  0.2769
   10CHTO   N19 3846   3.861   7.183   2.912 -0.3645  0.1379 -0.2533
   10CHTO  H207 3847   3.925   7.097   2.923  0.8176  1.0206 -0.1802
   10CHTO  H208 3848   3.849   7.203   2.807 -3.3139 -1.0567 -0.2039
   10CHTO   O74 3849   3.533   7.047   3.286 -0.6241 -0.1695  0.6930
   10CHTO  C115 3850   3.491   7.158   3.395 -0.3365 -0.3914  0.2507
   10CHTO  H219 3851   3.533   7.256   3.370  1.2500 -1.1892 -0.2572
   10CHTO   O76 3852   3.338   7.185   3.405 -0.0288 -0.6615  0.2522
   10CHTO  C122 3853   3.265   7.080   3.465 -0.5398  0.8385 -0.4199
   10CHTO  H226 3854   3.300   6.989   3.417 -0.1544 -0.0517  1.5477
   10CHTO  C126 3855   3.118   7.087   3.439 -0.1106  0.2724  0.2947
   10CHTO   O85 3856   3.076   7.047   3.312  1.1519  0.7570 -0.0555
   10CHTO  H206 3857   3.025   7.113   3.270  2.1091  1.9844  0.6903
   10CHTO  C121 3858   3.305   7.064   3.621 -0.2232 -0.8622 -0.1762
   10CHTO  H225 3859   3.241   7.136   3.677 -0.2388  0.2274 -1.5568
   10CHTO   O81 3860   3.292   6.934   3.680  0.6132 -0.1112 -0.2158
   10CHTO  H202 3861   3.202   6.923   3.705  0.7842 -2.5089 -0.5222
   10CHTO  C119 3862   3.453   7.115   3.646 -0.6318  0.1532 -0.0633
   10CHTO  H223 3863   3.445   7.223   3.660  1.2980  0.3685 -0.3853
   10CHTO  C117 3864   3.554   7.099   3.527 -0.3777 -0.4660  0.3304
   10CHTO  H221 3865   3.582   6.998   3.498  2.4649 -0.2099  2.0157
   10CHTO   N20 3866   3.679   7.166   3.565  0.2170 -0.1895  0.0173
   10CHTO  H209 3867   3.716   7.231   3.487  2.9084 -0.5366  0.9393
   10CHTO  H210 3868   3.753   7.089   3.578  0.0378 -0.3369  0.1624
   10CHTO   O80 3869   3.496   7.070   3.791 -0.2154 -0.3298  0.3670
   10CHTO  C103 3870   3.487   7.175   3.925  0.1872  0.7168 -0.2174
   10CHTO  H190 3871   3.543   7.135   4.010  0.6776  1.6548 -0.0904
   10CHTO  C101 3872   3.552   7.318   3.910  0.8520  0.5387 -0.5563
   10CHTO  H188 3873   3.505   7.368   3.825 -0.2310 -0.2012 -0.3964
   10CHTO   O68 3874   3.702   7.314   3.874 -0.5204  0.7294 -0.2886
   10CHTO  H168 3875   3.753   7.258   3.930 -1.5299 -0.4260 -0.4954
   10CHTO   C99 3876   3.522   7.405   4.043 -0.4953 -0.6393 -0.0477
   10CHTO  H186 3877   3.590   7.368   4.122 -1.7014 -2.8683  0.0007
   10CHTO   N17 3878   3.557   7.551   4.022 -0.2492 -0.8332  0.0703
   10CHTO  H174 3879   3.485   7.588   3.951 -2.1649 -0.6087  2.0746
   10CHTO  H175 3880   3.658   7.557   3.983 -0.0766  0.9939  0.7734
   10CHTO   C97 3881   3.378   7.393   4.093  0.7223 -0.2288 -0.0264
   10CHTO  H184 3882   3.313   7.451   4.025  0.2277 -0.2212  0.4431
   10CHTO   O64 3883   3.344   7.256   4.100  0.1867 -0.3942  0.1178
   10CHTO  C104 3884   3.337   7.190   3.977 -0.7363 -0.2726  0.5229
   10CHTO  H191 3885   3.285   7.240   3.895 -2.1245 -2.0439  0.2957
   10CHTO  C108 3886   3.267   7.058   3.996 -0.4495  0.0086  0.3711
   10CHTO   O71 3887   3.133   7.069   4.047 -0.2091  0.3606  0.1642
   10CHTO  H171 3888   3.077   7.005   4.006 -0.6509 -0.0784  1.4155
   10CHTO   O62 3889   3.361   7.453   4.226  0.4522  0.0746  0.4253
   10CHTO   C91 3890   3.247   7.414   4.296  0.0430 -0.3961 -0.2714
   10CHTO  H178 3891   3.189   7.334   4.250  0.7201 -1.9723  1.5219
   10CHTO   C92 3892   3.150   7.540   4.306  0.0301 -0.0813  0.5962
   10CHTO  H179 3893   3.200   7.627   4.350  2.1837 -0.9338 -0.0741
   10CHTO   O66 3894   3.110   7.580   4.172  0.3978 -0.1370 -0.3650
   10CHTO  H166 3895   3.070   7.664   4.169  0.3544 -0.0799  1.2863
   10CHTO   C93 3896   3.019   7.508   4.380 -0.0066 -0.0623  1.0602
   10CHTO  H180 3897   2.961   7.438   4.318 -0.1500  1.1448 -0.1918
   10CHTO   N16 3898   2.931   7.624   4.401  0.6202 -0.1541  0.0282
   10CHTO  H172 3899   2.989   7.713   4.421  0.1133 -0.3121  2.3245
   10CHTO  H173 3900   2.864   7.637   4.317  0.5695  0.6002  0.1849
   10CHTO   C94 3901   3.051   7.443   4.523 -0.3334  0.1743  0.1054
   10CHTO  H181 3902   3.105   7.510   4.590 -2.1155  3.2441 -1.4151
   10CHTO   O61 3903   3.138   7.331   4.500 -0.3383  0.6564  0.3170
   10CHTO   C95 3904   3.267   7.362   4.447 -0.1195  0.0158  0.4466
   10CHTO  H182 3905   3.321   7.440   4.502 -1.8716 -0.0542  2.3363
   10CHTO  C106 3906   3.355   7.237   4.442 -0.5980 -0.5062  0.6071
   10CHTO   O69 3907   3.294   7.139   4.359  0.3569 -0.3165 -0.4076
   10CHTO  H169 3908   3.332   7.056   4.380 -0.6707 -0.9153 -0.8875
   10CHTO   O63 3909   2.930   7.387   4.585  0.4371  0.2808 -0.1056
   10CHTO   C96 3910   2.939   7.341   4.719 -0.4611 -0.1184  0.4166
   10CHTO  H183 3911   3.028   7.387   4.762 -0.6884  1.0426 -0.3221
   10CHTO   C98 3912   2.939   7.185   4.727 -0.7162 -0.0592 -1.1158
   10CHTO  H185 3913   2.870   7.140   4.653  1.2287 -2.4078 -1.5574
   10CHTO   O67 3914   3.076   7.138   4.697  0.8295  0.3125 -0.1364
   10CHTO  H167 3915   3.094   7.152   4.605 -0.8739 -0.9728 -0.6946
   10CHTO  C102 3916   2.909   7.125   4.870  0.3933 -0.9453 -0.0840
   10CHTO  H189 3917   3.006   7.131   4.921  0.3202  0.4420 -0.0950
   10CHTO   N18 3918   2.868   6.983   4.883 -0.2021  0.4593 -0.1834
   10CHTO  H176 3919   2.941   6.904   4.890  0.3213  1.1131  2.1581
   10CHTO  H177 3920   2.790   6.957   4.812 -1.3368  1.4239  0.6888
   10CHTO  C105 3921   2.810   7.217   4.957 -0.2757  0.3762  0.1807
   10CHTO  H192 3922   2.707   7.191   4.932 -0.1824 -1.2210  1.3918
   10CHTO   O65 3923   2.822   7.359   4.923  0.1970  0.1990  0.1046
   10CHTO  C100 3924   2.818   7.397   4.784  0.5526  0.1454  0.7378
   10CHTO  H187 3925   2.733   7.348   4.735  1.1726  0.4484 -0.6697
   10CHTO  C107 3926   2.801   7.544   4.799 -0.1618 -0.1965  0.1705
   10CHTO   O70 3927   2.759   7.615   4.684  0.0589 -0.2255 -0.2977
   10CHTO  H170 3928   2.785   7.705   4.688  0.6558 -0.4918  3.7295
   10CHTO   O57 3929   2.844   7.183   5.105 -0.1528 -0.4235 -0.2001
   10CHTO   C85 3930   2.779   7.251   5.215  0.4143  0.1996  0.3154
   10CHTO  H157 3931   2.689   7.295   5.167  0.5296 -0.5432 -0.5856
   10CHTO   C83 3932   2.856   7.375   5.268 -0.3759 -0.2838 -0.6506
   10CHTO  H155 3933   2.879   7.449   5.191 -0.3045  1.9238  1.4426
   10CHTO   O56 3934   2.986   7.325   5.301 -0.4040 -0.4785  0.8678
   10CHTO  H135 3935   3.021   7.379   5.369  2.1850 -2.5256  1.2761
   10CHTO   C81 3936   2.775   7.445   5.383  0.0156  1.0189  0.0792
   10CHTO  H153 3937   2.681   7.477   5.339  0.0263  1.8550  0.6557
   10CHTO   N14 3938   2.845   7.573   5.426 -0.2408 -0.5529 -0.9995
   10CHTO  H141 3939   2.768   7.639   5.461 -0.1360 -0.4541 -0.9536
   10CHTO  H142 3940   2.916   7.564   5.505 -0.6993 -1.2845 -0.6581
   10CHTO   C79 3941   2.734   7.347   5.495  0.2756  0.2620 -0.1911
   10CHTO  H151 3942   2.652   7.394   5.549  1.9211  1.4293  1.3631
   10CHTO   O52 3943   2.670   7.233   5.428 -0.4551  0.3577  0.6332
   10CHTO   C86 3944   2.735   7.155   5.330 -0.3187 -0.2976  0.2026
   10CHTO  H158 3945   2.823   7.107   5.379 -0.4776 -0.1457  0.6390
   10CHTO   C90 3946   2.641   7.039   5.282 -0.3879 -0.5305  0.5050
   10CHTO   O60 3947   2.586   6.969   5.394  0.0737 -0.3083  0.3530
   10CHTO  H138 3948   2.559   6.883   5.368 -0.7208 -0.3122  1.2031
   10CHTO   O50 3949   2.839   7.308   5.585  0.3620 -0.2088  0.7082
   10CHTO   C73 3950   2.832   7.233   5.702  0.5788 -0.2145  0.2335
   10CHTO  H145 3951   2.761   7.152   5.685  0.0350  0.5120 -0.9925
   10CHTO   C74 3952   2.783   7.311   5.829  0.1563  0.1231 -0.6100
   10CHTO  H146 3953   2.682   7.354   5.818  1.1723  2.5514 -0.6077
   10CHTO   O54 3954   2.762   7.224   5.943  0.6758 -0.1074  0.5612
   10CHTO  H133 3955   2.840   7.223   5.995 -0.4120 -1.3662  2.2527
   10CHTO   C75 3956   2.885   7.429   5.848 -0.3315 -0.2496  0.1709
   10CHTO  H147 3957   2.889   7.492   5.758  2.6846 -0.5908  0.0122
   10CHTO   N13 3958   2.843   7.523   5.948  0.3390 -0.0025  0.2846
   10CHTO  H139 3959   2.814   7.483   6.044 -1.9650  1.0369  0.0608
   10CHTO  H140 3960   2.921   7.598   5.958 -1.5291  2.0966 -0.5269
   10CHTO   C76 3961   3.029   7.373   5.855  0.0866  0.8303 -0.8509
   10CHTO  H148 3962   3.053   7.318   5.947  0.7020  1.7139 -0.4777
   10CHTO   O49 3963   3.065   7.282   5.742 -0.3356  0.2191  0.5794
   10CHTO   C77 3964   2.971   7.175   5.723  0.4145  0.0429 -0.1403
   10CHTO  H149 3965   2.966   7.110   5.810  1.5155 -0.9295 -0.7811
   10CHTO   C88 3966   3.023   7.086   5.608  0.2821  0.3967 -0.2888
   10CHTO   O58 3967   2.944   6.943   5.617  0.0587  0.5855  0.3244
   10CHTO  H136 3968   2.936   6.913   5.705  1.7030 -0.2416  0.2162
   10CHTO   O51 3969   3.136   7.501   5.834  0.4362  0.1812 -0.5729
   10CHTO   C78 3970   3.273   7.458   5.920 -0.5212 -0.6716  0.8768
   10CHTO  H150 3971   3.255   7.352   5.946  1.1357 -0.5995  2.3285
   10CHTO   C80 3972   3.267   7.534   6.049 -0.1090 -0.1414  0.5459
   10CHTO  H152 3973   3.255   7.641   6.022  0.5109 -0.4234 -0.9061
   10CHTO   O55 3974   3.153   7.494   6.127  0.1328  0.1476 -0.4220
   10CHTO  H134 3975   3.089   7.561   6.143  0.4564 -0.0639  2.0201
   10CHTO   C84 3976   3.400   7.527   6.127 -0.9444  0.5511 -0.4898
   10CHTO  H156 3977   3.398   7.424   6.163  1.3553  0.6887  0.0884
   10CHTO   N15 3978   3.406   7.621   6.246  0.7481  0.3714  0.4825
   10CHTO  H143 3979   3.507   7.624   6.281  1.3874  0.8983 -1.3218
   10CHTO  H144 3980   3.342   7.596   6.327 -0.7398  0.0305 -0.7789
   10CHTO   C87 3981   3.523   7.543   6.034  0.8756 -0.6632  0.4583
   10CHTO  H159 3982   3.526   7.643   5.992  0.7973 -1.4386 -1.4501
   10CHTO   O53 3983   3.508   7.447   5.906  0.4182  0.3186 -0.4186
   10CHTO   C82 3984   3.397   7.486   5.831  0.1015  0.0283 -0.4658
   10CHTO  H154 3985   3.402   7.591   5.801  0.9164 -0.5275 -2.4004
   10CHTO   C89 3986   3.380   7.398   5.709 -0.5178 -0.0219  0.0798
   10CHTO   O59 3987   3.489   7.428   5.625  0.0539 -0.3466 -0.5652
   10CHTO  H137 3988   3.518   7.517   5.625  0.8725 -0.6031 -0.4348
   10CHTO   O45 3989   3.662   7.497   6.095 -0.1747  0.1349 -0.2607
   10CHTO   C67 3990   3.771   7.601   6.093 -0.3944  0.1727 -0.2890
   10CHTO  H124 3991   3.739   7.698   6.055 -1.5720  0.6550  1.8770
   10CHTO   C65 3992   3.831   7.625   6.237  0.5467  0.8488  0.1460
   10CHTO  H122 3993   3.746   7.596   6.298  0.3357 -1.0673 -1.0008
   10CHTO   O44 3994   3.858   7.762   6.256 -0.2833  0.1166 -0.3383
   10CHTO  H102 3995   3.780   7.814   6.259  0.1950  0.7853  0.6164
   10CHTO   C63 3996   3.944   7.523   6.266 -0.5705  0.7275 -0.5677
   10CHTO  H120 3997   3.909   7.428   6.226  0.7482 -0.4478  0.9662
   10CHTO   N11 3998   3.972   7.489   6.411  0.3741  0.5664 -0.0153
   10CHTO  H108 3999   4.031   7.567   6.453  0.6021  1.5612 -2.1381
   10CHTO  H109 4000   4.028   7.398   6.403  2.1965  1.7987 -1.9037
   10CHTO   C61 4001   4.066   7.564   6.172  0.3315  0.4404 -0.1106
   10CHTO  H118 4002   4.138   7.482   6.159 -0.0711 -0.1560  1.4011
   10CHTO   O40 4003   4.023   7.589   6.028 -0.1416  0.5764 -0.2016
   10CHTO   C68 4004   3.888   7.546   5.990  0.3938 -0.2736 -0.4788
   10CHTO  H125 4005   3.891   7.435   5.998  1.1354  0.0225  5.1176
   10CHTO   C72 4006   3.854   7.586   5.845  0.1576  0.0181  0.2321
   10CHTO   O48 4007   3.874   7.729   5.814  0.2803  0.2788  0.6021
   10CHTO  H105 4008   3.817   7.772   5.876 -1.1301  0.0725 -0.5448
   10CHTO   O38 4009   4.131   7.686   6.212  0.1647  0.2209 -0.0297
   10CHTO   C55 4010   4.261   7.707   6.159  0.1287  0.1561  0.1617
   10CHTO  H112 4011   4.283   7.641   6.073 -0.4668  2.0616 -1.4931
   10CHTO   C56 4012   4.374   7.695   6.270 -0.1450 -0.2800  0.1137
   10CHTO  H113 4013   4.340   7.746   6.362  1.9827  0.8825  0.2895
   10CHTO   O42 4014   4.396   7.557   6.301  0.0278  0.5549 -0.2234
   10CHTO  H100 4015   4.413   7.501   6.228 -0.6049 -0.7846  0.6353
   10CHTO   C57 4016   4.512   7.757   6.218 -0.1646  0.9020  0.0362
   10CHTO  H114 4017   4.557   7.697   6.138 -1.1870  2.8626 -2.0840
   10CHTO   N10 4018   4.609   7.774   6.327 -0.4975  0.7222  0.4379
   10CHTO  H106 4019   4.588   7.696   6.400 -2.5742  0.6115 -0.2666
   10CHTO  H107 4020   4.712   7.767   6.296 -0.1382 -1.1540  1.9333
   10CHTO   C58 4021   4.492   7.892   6.158 -0.2466 -0.4313  0.2443
   10CHTO  H115 4022   4.451   7.961   6.234  0.0620  0.3529 -0.2968
   10CHTO   O37 4023   4.392   7.879   6.053  0.0362  0.3036  0.1792
   10CHTO   C59 4024   4.265   7.850   6.097 -0.2417 -0.2758 -0.0508
   10CHTO  H116 4025   4.231   7.924   6.170  3.2106  1.2483  0.1186
   10CHTO   C70 4026   4.174   7.869   5.978  0.1509  0.2020  0.3944
   10CHTO   O46 4027   4.180   7.996   5.912 -0.1216  0.3687  0.1906
   10CHTO  H103 4028   4.099   8.016   5.869 -0.1533  0.3802  0.2543
   10CHTO   O39 4029   4.640   7.962   6.076 -0.6883  0.2256  0.1799
   10CHTO   C60 4030   4.630   8.083   5.998 -0.7566  1.3250 -0.2724
   10CHTO  H117 4031   4.605   8.049   5.898 -0.5156 -4.0724  1.3571
   10CHTO   C62 4032   4.523   8.189   6.043 -0.7459 -0.0941  0.2804
   10CHTO  H119 4033   4.425   8.139   6.034  0.0243 -1.4808 -0.4756
   10CHTO   O43 4034   4.547   8.219   6.178 -0.0934 -0.2256  0.2830
   10CHTO  H101 4035   4.638   8.235   6.196 -0.2287  1.5592 -0.5693
   10CHTO   C66 4036   4.529   8.330   5.949  0.3252 -0.1227  0.1130
   10CHTO  H123 4037   4.494   8.299   5.850  1.7215 -0.3687 -0.3090
   10CHTO   N12 4038   4.446   8.444   5.996  0.0517 -0.1991  0.1477
   10CHTO  H110 4039   4.370   8.457   5.920  2.1351  1.4070 -1.7216
   10CHTO  H111 4040   4.396   8.436   6.091  0.0295  2.4510  0.3918
   10CHTO   C69 4041   4.673   8.388   5.920 -0.1039 -0.8566 -0.3772
   10CHTO  H126 4042   4.713   8.444   6.007  0.6469  0.0483 -1.2942
   10CHTO   O41 4043   4.767   8.266   5.881  0.8753  0.1953 -0.1146
   10CHTO   C64 4044   4.769   8.148   5.985 -0.4409 -0.4220  0.6955
   10CHTO  H121 4045   4.786   8.186   6.088 -0.6808  0.0874  0.5468
   10CHTO   C71 4046   4.890   8.054   5.944  0.2796 -0.5416 -0.5791
   10CHTO   O47 4047   5.020   8.087   5.994 -0.1870 -0.2048  0.0422
   10CHTO  H104 4048   5.036   8.055   6.081  1.0875 -0.8683 -0.4264
   10CHTO   O34 4049   4.676   8.488   5.804 -0.1461 -1.1968  0.0594
   10CHTO   C49 4050   4.757   8.598   5.776 -0.2501 -1.0072 -0.9406
   10CHTO   H91 4051   4.859   8.592   5.814  1.0132 -0.1151 -4.0516
   10CHTO   C47 4052   4.684   8.720   5.841 -0.1124  0.1839  0.5997
   10CHTO   H89 4053   4.754   8.803   5.820 -0.0651  0.3055  1.2246
   10CHTO   O33 4054   4.681   8.699   5.980 -0.3375 -0.8569 -0.3209
   10CHTO   H70 4055   4.662   8.779   6.025  1.4340  0.1326 -1.2535
   10CHTO   C45 4056   4.546   8.731   5.768  0.6893  0.1770  0.0219
   10CHTO   H87 4057   4.495   8.635   5.752  0.0905  0.2843  1.2648
   10CHTO    N8 4058   4.457   8.829   5.837  0.5482 -0.3108 -0.2648
   10CHTO   H75 4059   4.417   8.898   5.763 -1.8486 -0.6692  0.6360
   10CHTO   H76 4060   4.381   8.766   5.882  2.0598 -0.0660  2.7023
   10CHTO   C43 4061   4.570   8.770   5.615 -0.2215  0.2272 -0.0675
   10CHTO   H85 4062   4.471   8.778   5.570 -0.1451 -0.5938 -0.4096
   10CHTO   O29 4063   4.648   8.670   5.550 -0.4347  0.1740  0.7068
   10CHTO   C50 4064   4.764   8.619   5.619  0.9651 -0.0736 -0.2950
   10CHTO   H92 4065   4.792   8.521   5.578  0.8452 -0.3914  0.3811
   10CHTO   C54 4066   4.893   8.698   5.578  0.0525  0.3587  0.2956
   10CHTO   O36 4067   4.909   8.829   5.647  0.5321  0.1071 -0.0456
   10CHTO   H72 4068   4.908   8.809   5.738 -0.1050  2.5740  0.5259
   10CHTO   O27 4069   4.632   8.894   5.588  0.3039  0.1319  0.1729
   10CHTO   C37 4070   4.671   8.992   5.493  0.6107  0.0691 -0.4531
   10CHTO   H79 4071   4.779   8.983   5.474  0.8527 -1.4472  1.4148
   10CHTO   C38 4072   4.594   8.976   5.356 -0.0564 -0.0408 -0.1242
   10CHTO   H80 4073   4.487   8.964   5.381 -0.3614  1.6427 -0.5794
   10CHTO   O31 4074   4.648   8.853   5.314 -0.1566 -0.1697  0.3180
   10CHTO   H68 4075   4.731   8.880   5.279 -0.8758  0.8070 -0.6872
   10CHTO   C39 4076   4.611   9.095   5.253  0.1326  0.4094  1.2175
   10CHTO   H81 4077   4.715   9.087   5.221 -0.3074  1.0408 -0.3999
   10CHTO    N7 4078   4.528   9.079   5.126  0.2353 -0.1543 -0.0234
   10CHTO   H73 4079   4.457   9.161   5.122 -1.3989 -1.5253  0.4148
   10CHTO   H74 4080   4.485   8.981   5.117 -1.4043  0.5836 -0.4270
   10CHTO   C40 4081   4.601   9.239   5.319 -0.1625  0.1562  0.2610
   10CHTO   H82 4082   4.496   9.259   5.342  0.2148  0.0188  2.1267
   10CHTO   O26 4083   4.682   9.235   5.444  0.1952 -0.0894  0.3129
   10CHTO   C41 4084   4.636   9.138   5.544  0.0242 -0.3970  0.9794
   10CHTO   H83 4085   4.526   9.152   5.546 -0.0264 -0.8814  3.3503
   10CHTO   C52 4086   4.711   9.168   5.670 -0.1182  0.3858  0.3537
   10CHTO   O35 4087   4.717   9.309   5.715  0.5139  1.0647  0.8655
   10CHTO   H71 4088   4.630   9.321   5.749  0.5486  0.7930  1.0520
   10CHTO   O28 4089   4.662   9.349   5.241  0.0924  0.3282  0.0412
   10CHTO   C42 4090   4.622   9.479   5.265 -0.9335  0.3779  1.0703
   10CHTO   H84 4091   4.565   9.473   5.358  1.8267  0.6540  2.8183
   10CHTO   C44 4092   4.526   9.539   5.149 -0.2191 -0.6571 -0.0371
   10CHTO   H86 4093   4.577   9.536   5.053 -2.0628 -2.9203 -1.0070
   10CHTO   O32 4094   4.417   9.439   5.136 -0.3920  0.2585  0.4530
   10CHTO   H69 4095   4.450   9.357   5.167  0.3566 -0.3277 -1.7469
   10CHTO   C48 4096   4.474   9.681   5.195 -0.0586 -0.2470  0.6247
   10CHTO   H90 4097   4.428   9.679   5.294  1.4498 -2.9535  1.3130
   10CHTO    N9 4098   4.378   9.742   5.094 -0.5035 -0.2044 -0.0593
   10CHTO   H77 4099   4.413   9.726   4.993  1.6556  0.9372  0.4801
   10CHTO   H78 4100   4.289   9.682   5.104  0.6037 -1.7491  0.5822
   10CHTO   C51 4101   4.603   9.776   5.225 -0.2827 -0.5012  0.0587
   10CHTO   H93 4102   4.658   9.772   5.131 -1.2901 -0.5968 -0.5314
   10CHTO   O30 4103   4.672   9.710   5.330  0.0843 -0.3667  0.0014
   10CHTO   C46 4104   4.739   9.577   5.290 -0.1880  0.0727  0.7206
   10CHTO   H88 4105   4.796   9.586   5.198 -0.5335  1.4046  0.6241
   10CHTO   C53 4106   4.837   9.530   5.406 -0.0831  1.1903  0.5181
   10CHTO   O72 4107   4.934   9.634   5.427 -0.5364 -0.3304 -0.3332
   10CHTO  H199 4108   5.016   9.592   5.443 -0.2787 -0.2165 -1.2919
   10CHTO   O22 4109   4.569   9.911   5.268 -0.1717  0.1255  0.6546
   10CHTO   C31 4110   4.668  10.024   5.250 -0.0491 -0.1510 -0.2698
   10CHTO   H59 4111   4.622  10.105   5.311  0.2621  1.9520 -2.7624
   10CHTO   C29 4112   4.808   9.995   5.319  0.3740 -0.3167  0.6579
   10CHTO   H57 4113   4.834   9.895   5.279 -2.7152 -0.9552  0.1210
   10CHTO   O21 4114   4.786   9.983   5.460 -0.5938  0.5282  0.2299
   10CHTO   H37 4115   4.829   9.905   5.489  0.4308  0.4084 -1.5853
   10CHTO   C27 4116   4.924  10.090   5.293  0.6758 -0.3377 -0.3429
   10CHTO   H55 4117   4.910  10.184   5.347  1.6640 -0.0416 -0.6001
   10CHTO    N5 4118   5.052  10.033   5.329  0.5185  0.1605 -0.3339
   10CHTO   H43 4119   5.130  10.042   5.254  1.8478  3.0886  1.3448
   10CHTO   H44 4120   5.095  10.083   5.415 -3.6700  0.4224  1.7132
   10CHTO   C25 4121   4.923  10.130   5.144  0.1004 -0.6639  0.2694
   10CHTO   H53 4122   4.952  10.043   5.083 -2.6902 -1.6741  0.2872
   10CHTO   O17 4123   4.793  10.179   5.104 -0.0743  0.1172 -0.2472
   10CHTO   C32 4124   4.685  10.081   5.102  0.3778  0.0915  0.2242
   10CHTO   H60 4125   4.703   9.994   5.039  1.0806 -0.4657  1.1753
   10CHTO   C36 4126   4.547  10.142   5.041 -0.5993  0.0624  0.1896
   10CHTO   O25 4127   4.565  10.196   4.907 -0.8822  0.6519 -0.4628
   10CHTO   H40 4128   4.480  10.217   4.873 -1.2772 -0.6026 -0.2637
   10CHTO   O15 4129   5.039  10.254   5.121 -0.4863 -0.1517 -0.4068
   10CHTO   C19 4130   5.076  10.274   4.983  0.1988 -0.8147 -0.5824
   10CHTO   H47 4131   5.049  10.186   4.922 -0.3595 -0.8861 -0.2266
   10CHTO   C20 4132   5.002  10.398   4.920 -0.1366 -0.6342 -0.2836
   10CHTO   H48 4133   5.005  10.486   4.987  0.8003 -0.5532 -0.4257
   10CHTO   O19 4134   4.862  10.357   4.916 -0.1029 -0.1546  0.3431
   10CHTO   H35 4135   4.846  10.268   4.941 -1.4575 -0.5263 -1.7373
   10CHTO   C21 4136   5.060  10.448   4.777 -0.6030 -0.0634 -0.1286
   10CHTO   H49 4137   5.048  10.366   4.707  0.0807  0.1729 -0.5238
   10CHTO    N4 4138   4.982  10.560   4.724  0.2379  0.2406 -0.0711
   10CHTO   H41 4139   4.913  10.598   4.798  2.3551  1.5803  1.2762
   10CHTO   H42 4140   5.053  10.635   4.694  1.1320 -0.8000 -0.5932
   10CHTO   C22 4141   5.215  10.460   4.786 -0.3827  0.8597  0.6639
   10CHTO   H50 4142   5.255  10.535   4.854 -0.3711  2.2605 -0.8530
   10CHTO   O14 4143   5.263  10.331   4.825 -0.2822 -0.4697  0.1870
   10CHTO   C23 4144   5.227  10.293   4.959 -0.0071 -0.2612  0.7325
   10CHTO   H51 4145   5.272  10.362   5.032  1.6364 -2.2289  1.6695
   10CHTO   C34 4146   5.302  10.159   4.989 -0.0650 -0.0491 -0.1840
   10CHTO   O23 4147   5.446  10.184   4.985  0.0779  0.2731 -0.5400
   10CHTO   H38 4148   5.471  10.227   5.065  1.9345 -0.1781 -0.8615
   10CHTO   O16 4149   5.272  10.482   4.655  0.3363 -0.1852 -0.2121
   10CHTO   C24 4150   5.420  10.519   4.665  0.0893  0.4912  0.1669
   10CHTO   H52 4151   5.459  10.505   4.766  0.0296 -0.4890  0.0590
   10CHTO   C26 4152   5.430  10.660   4.605  0.3748  0.3185 -0.3797
   10CHTO   H54 4153   5.361  10.657   4.518 -0.3860  1.3826  0.1745
   10CHTO   O20 4154   5.374  10.750   4.700 -0.3469 -0.2327  0.3763
   10CHTO   H36 4155   5.419  10.747   4.782  0.4445 -0.0271 -0.0420
   10CHTO   C30 4156   5.576  10.698   4.563 -0.5421  0.0384  0.5870
   10CHTO   H58 4157   5.640  10.720   4.650  0.3502  1.3065 -0.3717
   10CHTO    N6 4158   5.579  10.825   4.480  0.4762  0.4123 -0.1736
   10CHTO   H45 4159   5.667  10.823   4.417  0.5867 -0.4985  0.0039
   10CHTO   H46 4160   5.490  10.817   4.421  0.3637 -2.2177  0.2943
   10CHTO   C33 4161   5.654  10.581   4.493  0.2162  0.7304 -0.5260
   10CHTO   H61 4162   5.612  10.557   4.394 -0.5132  1.8214 -0.4875
   10CHTO   O18 4163   5.631  10.465   4.576 -0.3074 -0.1071  0.5429
   10CHTO   C28 4164   5.498  10.417   4.571  0.5838 -0.1955  0.2438
   10CHTO   H56 4165   5.459  10.422   4.470 -0.5663 -2.8465  0.5171
   10CHTO   C35 4166   5.489  10.272   4.627  0.2956 -0.2598 -0.1596
   10CHTO   O24 4167   5.513  10.180   4.519 -0.6797  0.2495 -0.0924
   10CHTO   H39 4168   5.432  10.172   4.472  0.4925 -0.3243 -2.0476
   10CHTO    O9 4169   5.796  10.602   4.470 -0.0693  0.3672 -0.8354
   10CHTO   C13 4170   5.861  10.579   4.326 -0.7925  0.6687  0.1885
   10CHTO   H26 4171   5.821  10.655   4.256  1.6445  0.7931 -1.1646
   10CHTO   C11 4172   5.835  10.432   4.272  0.3092 -0.2120  0.6040
   10CHTO   H24 4173   5.729  10.432   4.243  0.3721  3.7421  0.0161
   10CHTO    O8 4174   5.843  10.338   4.379 -0.9837  0.4739  0.4458
   10CHTO    H3 4175   5.805  10.256   4.353  0.0392 -0.3764  1.5196
   10CHTO    C9 4176   5.935  10.406   4.156 -0.3459 -0.2688 -0.1765
   10CHTO   H22 4177   5.927  10.491   4.087 -0.7994 -1.3655 -1.4833
   10CHTO    N2 4178   5.906  10.290   4.068  0.0775  0.6140  0.4753
   10CHTO   H10 4179   5.803  10.288   4.037 -0.0167  0.3887  0.7956
   10CHTO   H11 4180   5.973  10.287   3.983 -0.6752  0.9212 -0.1317
   10CHTO    C7 4181   6.084  10.407   4.222  0.9625  0.1163  0.1557
   10CHTO   H20 4182   6.143  10.454   4.141 -1.0898  1.0357 -0.8292
   10CHTO    O4 4183   6.096  10.487   4.337 -0.7478 -0.4123 -0.0661
   10CHTO   C14 4184   6.015  10.601   4.326  0.3579 -0.0139  0.3074
   10CHTO   H27 4185   6.041  10.657   4.234  1.2973 -0.0542  0.5377
   10CHTO   C18 4186   6.047  10.703   4.446  0.4120 -0.0188 -0.7545
   10CHTO   O13 4187   6.175  10.759   4.411 -0.1071 -0.3717  0.0367
   10CHTO    H7 4188   6.217  10.796   4.486 -2.5476 -0.2849  1.4038
   10CHTO    O2 4189   6.141  10.274   4.249  0.0859  0.5612  0.0342
   10CHTO    C1 4190   6.262  10.253   4.323  0.5005 -0.0143  0.1860
   10CHTO   H14 4191   6.262  10.298   4.425  0.9910  0.3877  0.0096
   10CHTO    C2 4192   6.392  10.308   4.237  0.0521  0.2466 -0.1323
   10CHTO   H15 4193   6.395  10.262   4.137 -0.3769  2.6985 -1.3150
   10CHTO    O6 4194   6.382  10.451   4.231 -0.5817  0.2406 -0.3304
   10CHTO    H1 4195   6.414  10.476   4.146  1.5922 -0.2233  0.3108
   10CHTO    C3 4196   6.524  10.253   4.318  0.6767 -0.7046  0.2548
   10CHTO   H16 4197   6.515  10.287   4.423  1.6563 -1.4544  0.5974
   10CHTO    N1 4198   6.645  10.302   4.253  0.3349  0.4249  0.0744
   10CHTO    H8 4199   6.724  10.267   4.318  0.4785 -0.1612 -0.4068
   10CHTO    H9 4200   6.654  10.246   4.160 -2.3100 -1.3624  0.8459
   10CHTO    C4 4201   6.512  10.095   4.325  0.2689 -0.6772 -0.0538
   10CHTO   H17 4202   6.496  10.064   4.222  2.5961 -0.8866 -0.3930
   10CHTO    O1 4203   6.391  10.054   4.399  0.2248  0.2034 -0.2165
   10CHTO    C5 4204   6.262  10.096   4.350 -0.0987  0.7724  0.4250
   10CHTO   H18 4205   6.243  10.034   4.262 -2.7244  0.4644  1.1804
   10CHTO   C16 4206   6.163  10.058   4.465 -0.0240 -0.2594  0.1071
   10CHTO   O11 4207   6.024  10.072   4.432 -0.5233  0.8016 -0.2220
   10CHTO    H5 4208   5.973  10.116   4.497 -1.0757 -1.1273  0.6922
   10CHTO    O3 4209   6.625  10.034   4.387 -0.6220 -0.7133 -0.0512
   10CHTO    C6 4210   6.685   9.915   4.326  0.2886 -0.5602  0.2595
   10CHTO   H19 4211   6.617   9.844   4.280 -0.7031  0.6006 -0.0854
   10CHTO    C8 4212   6.770   9.958   4.208 -0.2891  0.4348  1.1402
   10CHTO   H21 4213   6.819  10.050   4.241  1.3859 -0.2362  0.6112
   10CHTO    O7 4214   6.684   9.997   4.107  0.3885  0.2236  0.6013
   10CHTO    H2 4215   6.662   9.927   4.048  3.2219 -0.0562 -0.1834
   10CHTO   C12 4216   6.883   9.851   4.161 -0.1094 -0.3304  0.0280
   10CHTO   H25 4217   6.828   9.760   4.127  0.4822 -1.0147  0.8756
   10CHTO    N3 4218   6.970   9.903   4.049  0.1271  0.1884  0.7818
   10CHTO   H12 4219   6.915   9.919   3.957 -0.6892  1.9768  1.5537
   10CHTO   H13 4220   7.018   9.992   4.086  0.7995  0.8430 -1.5820
   10CHTO   C15 4221   6.958   9.801   4.289 -0.2160 -0.4926 -0.0640
   10CHTO   H28 4222   7.015   9.876   4.344  1.7411 -1.7511 -0.3381
   10CHTO   O10 4223   7.050   9.683   4.260  0.3325  1.1127  0.7058
   10CHTO    H4 4224   7.140   9.706   4.273  0.4082  1.9742 -1.1247
   10CHTO    O5 4225   6.868   9.741   4.382  0.3071  0.6887  0.0458
   10CHTO   C10 4226   6.770   9.834   4.436  0.3749  0.2951 -0.5679
   10CHTO   H23 4227   6.831   9.904   4.492 -1.0324  0.9885  0.1179
   10CHTO   C17 4228   6.673   9.761   4.532 -0.0792  0.1823  0.4681
   10CHTO   O12 4229   6.725   9.686   4.643  0.3846 -0.3938 -0.0927
   10CHTO    H6 4230   6.801   9.634   4.624 -0.0643 -0.3583 -2.0501
   11CHTO  H203 4231   4.957   5.437   1.978  0.2361 -1.6534  0.2199
   11CHTO   O82 4232   4.906   5.468   1.905 -0.1342 -0.6993  0.8814
   11CHTO  C123 4233   4.971   5.585   1.846 -0.1162  0.1434 -0.7799
   11CHTO  H227 4234   4.975   5.662   1.924  0.2155 -0.7070  0.0538
   11CHTO   O77 4235   5.108   5.542   1.807  0.5448 -0.4617 -0.2420
   11CHTO  C118 4236   5.198   5.643   1.763 -0.3673  0.0559 -0.0188
   11CHTO  H222 4237   5.200   5.724   1.837  0.9990  2.3179 -2.4350
   11CHTO  C125 4238   5.336   5.575   1.753  0.4261  0.3657  0.1635
   11CHTO   O84 4239   5.399   5.561   1.881 -0.0848 -0.6994  0.0152
   11CHTO  H205 4240   5.401   5.472   1.907  0.1152 -0.7242 -0.0813
   11CHTO  C114 4241   5.142   5.702   1.629  0.4534 -0.8072  0.8594
   11CHTO  H218 4242   5.149   5.627   1.550  2.0206  0.3360 -0.1210
   11CHTO  C116 4243   4.989   5.743   1.646 -0.4170 -0.1294  0.1935
   11CHTO  H220 4244   4.990   5.843   1.695  2.4667 -0.0043 -0.0205
   11CHTO   O79 4245   4.938   5.772   1.512 -0.1413 -0.1664  0.2081
   11CHTO  H201 4246   4.974   5.720   1.444  0.4578  0.5918 -0.0558
   11CHTO  C120 4247   4.900   5.635   1.715  0.7960  0.0672 -0.0818
   11CHTO  H224 4248   4.882   5.549   1.647 -0.8532 -0.1413  0.6050
   11CHTO   N21 4249   4.770   5.697   1.752 -0.1353  0.0472 -0.2037
   11CHTO  H211 4250   4.699   5.703   1.671  1.4020  1.9419 -1.4731
   11CHTO  H212 4251   4.723   5.641   1.831 -0.6607 -3.6197 -2.9978
   11CHTO   O75 4252   5.220   5.813   1.585 -0.3275 -0.2813  0.3449
   11CHTO  C112 4253   5.305   5.911   1.687 -0.3683  0.4562  0.0394
   11CHTO  H216 4254   5.343   5.842   1.763 -0.7112 -1.2427 -1.2980
   11CHTO   O73 4255   5.221   6.007   1.744 -0.0573 -0.3732  0.5835
   11CHTO  C113 4256   5.282   6.063   1.866  0.2482  0.3322  0.3251
   11CHTO  H217 4257   5.311   5.980   1.933  0.3248 -0.7085 -0.9737
   11CHTO  C124 4258   5.179   6.153   1.943  0.5117  0.2341  0.6751
   11CHTO   O83 4259   5.230   6.190   2.074 -0.0783  0.3681 -0.7044
   11CHTO  H204 4260   5.215   6.117   2.131 -0.5324 -0.0229 -1.3276
   11CHTO  C109 4261   5.406   6.153   1.809 -0.2859 -0.0558  0.2364
   11CHTO  H213 4262   5.361   6.234   1.751  1.1578  0.7652  0.2377
   11CHTO  C110 4263   5.513   6.068   1.724 -0.3297  0.4506  0.6486
   11CHTO  H214 4264   5.562   5.996   1.789 -0.3373 -0.4753 -0.3652
   11CHTO   O78 4265   5.611   6.155   1.661 -0.1007  0.3274 -0.5413
   11CHTO  H200 4266   5.563   6.206   1.599  0.0981  1.7657  0.4671
   11CHTO  C111 4267   5.427   5.993   1.618 -0.1124  0.7400  0.7601
   11CHTO  H215 4268   5.386   6.065   1.545 -0.4492  0.2760  0.4869
   11CHTO   N19 4269   5.522   5.901   1.546 -0.5304 -0.2002  0.1555
   11CHTO  H207 4270   5.601   5.865   1.611 -0.3128  0.0474  0.0320
   11CHTO  H208 4271   5.563   5.967   1.470 -0.6761 -0.1590  0.1120
   11CHTO   O74 4272   5.478   6.210   1.920 -0.2709  0.2716 -0.0225
   11CHTO  C115 4273   5.513   6.361   1.906 -0.0469  0.3778 -0.5042
   11CHTO  H219 4274   5.499   6.399   1.805 -0.1548 -0.5264 -0.8325
   11CHTO   O76 4275   5.413   6.457   2.004 -0.6239  0.2040 -0.3506
   11CHTO  C122 4276   5.440   6.429   2.141  0.2786  0.8946 -0.3284
   11CHTO  H226 4277   5.413   6.326   2.164  1.7146 -0.2742 -3.5862
   11CHTO  C126 4278   5.344   6.518   2.224  0.3145  1.0648  0.1825
   11CHTO   O85 4279   5.351   6.489   2.363 -0.8094 -0.2227 -0.2213
   11CHTO  H206 4280   5.322   6.402   2.381 -0.6871 -0.7915 -2.5121
   11CHTO  C121 4281   5.596   6.451   2.181 -0.0695 -0.5695  0.1733
   11CHTO  H225 4282   5.606   6.531   2.257 -2.7610 -0.5588  0.5785
   11CHTO   O81 4283   5.646   6.325   2.231  0.0656  0.2107 -0.3247
   11CHTO  H202 4284   5.740   6.322   2.238  0.2370  1.1996 -2.0546
   11CHTO  C119 4285   5.681   6.491   2.061 -0.5502 -0.2033  0.7810
   11CHTO  H223 4286   5.643   6.583   2.016  0.2251  0.3660  1.2608
   11CHTO  C117 4287   5.667   6.387   1.948  0.0842  0.2046  0.1303
   11CHTO  H221 4288   5.696   6.286   1.973 -0.1662 -0.2424 -1.3130
   11CHTO   N20 4289   5.745   6.415   1.821  0.3354  0.1353 -0.2802
   11CHTO  H209 4290   5.847   6.384   1.832  0.4722  1.0906  1.3951
   11CHTO  H210 4291   5.742   6.520   1.793 -1.8572  0.1596 -0.0676
   11CHTO   O80 4292   5.833   6.535   2.090 -0.3296  0.1090  0.5337
   11CHTO  C103 4293   5.871   6.696   2.102 -0.1805  0.4843  0.7833
   11CHTO  H190 4294   5.979   6.713   2.097  0.1132 -1.6419 -0.5016
   11CHTO  C101 4295   5.803   6.803   2.002  0.4457  0.5063 -0.3087
   11CHTO  H188 4296   5.696   6.786   2.004  0.3434  1.2188  1.6212
   11CHTO   O68 4297   5.839   6.769   1.854  0.3431  0.3382 -0.0330
   11CHTO  H168 4298   5.831   6.677   1.835  0.2935 -0.3324  3.0622
   11CHTO   C99 4299   5.821   6.957   2.055  0.1991  0.1057  0.2424
   11CHTO  H186 4300   5.929   6.980   2.047 -0.4700  2.9829 -1.0996
   11CHTO   N17 4301   5.748   7.059   1.971  0.3905  0.1027 -0.3513
   11CHTO  H174 4302   5.759   7.027   1.868  2.1972  1.2066 -0.5199
   11CHTO  H175 4303   5.641   7.066   1.987  0.2192  2.1708 -2.1253
   11CHTO   C97 4304   5.783   6.968   2.206 -0.0622  0.9028  0.3326
   11CHTO  H184 4305   5.674   6.964   2.217 -0.1122 -1.5830 -0.9112
   11CHTO   O64 4306   5.851   6.869   2.285  0.4128 -0.3878  0.1247
   11CHTO  C104 4307   5.826   6.733   2.249 -0.3499  0.1070  0.7547
   11CHTO  H191 4308   5.720   6.714   2.262 -0.0638 -1.3448  1.0819
   11CHTO  C108 4309   5.899   6.653   2.353 -0.2529 -0.1780 -0.1677
   11CHTO   O71 4310   5.851   6.683   2.483  0.0995  0.0883 -0.3244
   11CHTO  H171 4311   5.891   6.764   2.507 -3.1267  0.9018  2.5977
   11CHTO   O62 4312   5.822   7.090   2.260  0.1078  0.3013 -0.0434
   11CHTO   C91 4313   5.742   7.163   2.359  0.1674  0.5505  0.0377
   11CHTO  H178 4314   5.639   7.143   2.328  1.1179  0.9523 -3.5927
   11CHTO   C92 4315   5.759   7.310   2.339 -0.9527  0.7197 -0.4488
   11CHTO  H179 4316   5.751   7.333   2.231 -2.1899 -0.9937 -0.7469
   11CHTO   O66 4317   5.659   7.382   2.406  0.5893  0.7448  0.1209
   11CHTO  H166 4318   5.578   7.359   2.364  1.9411 -2.1803 -1.0544
   11CHTO   C93 4319   5.896   7.369   2.396 -0.3025  0.0057  0.8731
   11CHTO  H180 4320   5.862   7.468   2.433 -2.6674 -1.1901  2.0202
   11CHTO   N16 4321   5.996   7.405   2.296  0.0628  0.2776  0.0576
   11CHTO  H172 4322   5.942   7.428   2.206  1.0920 -1.6571 -1.0762
   11CHTO  H173 4323   6.047   7.493   2.331 -0.8404  0.5173  0.7950
   11CHTO   C94 4324   5.952   7.285   2.518  0.1347 -0.3036  0.0208
   11CHTO  H181 4325   6.019   7.204   2.489  2.1892  1.1677  0.5021
   11CHTO   O61 4326   5.841   7.222   2.591 -0.1937 -0.3783  0.8612
   11CHTO   C95 4327   5.771   7.124   2.512  0.0192 -0.4745 -0.2836
   11CHTO  H182 4328   5.825   7.029   2.514  1.7563  0.4939 -0.6556
   11CHTO  C106 4329   5.632   7.099   2.579 -0.5358 -0.0669 -0.0909
   11CHTO   O69 4330   5.657   7.001   2.681  0.2549  0.0603  0.2770
   11CHTO  H169 4331   5.601   6.929   2.662 -0.3592  1.0043 -1.6401
   11CHTO   O63 4332   6.016   7.369   2.604 -0.0216  0.2259  0.0329
   11CHTO   C96 4333   6.134   7.303   2.682  0.1607  0.0407  0.1952
   11CHTO  H183 4334   6.173   7.223   2.619  1.0366  1.4637 -1.0923
   11CHTO   C98 4335   6.095   7.218   2.809  0.0613  0.7804  0.3895
   11CHTO  H185 4336   6.035   7.282   2.875 -1.6149  0.4897 -0.8278
   11CHTO   O67 4337   6.015   7.099   2.763 -0.3483 -0.1121 -0.0162
   11CHTO  H167 4338   5.930   7.123   2.731 -0.2359  0.6767  0.2633
   11CHTO  C102 4339   6.226   7.172   2.891  0.2097 -0.4624 -0.2118
   11CHTO  H189 4340   6.269   7.096   2.825  0.0252 -0.1327 -0.7159
   11CHTO   N18 4341   6.189   7.103   3.016  0.4052  0.5174  0.4365
   11CHTO  H176 4342   6.269   7.049   3.064  1.3012  0.1134 -1.4647
   11CHTO  H177 4343   6.101   7.041   3.017  1.1790 -0.6978 -2.0156
   11CHTO  C105 4344   6.333   7.290   2.914 -0.7807 -0.8966  0.8390
   11CHTO  H192 4345   6.299   7.360   2.989 -1.2282  0.8447 -0.9486
   11CHTO   O65 4346   6.356   7.360   2.789  0.1495  0.3298 -0.0551
   11CHTO  C100 4347   6.245   7.416   2.714  0.2824  0.0194  0.0223
   11CHTO  H187 4348   6.198   7.492   2.779  0.4829 -0.2460  0.4840
   11CHTO  C107 4349   6.293   7.477   2.584 -0.8224 -0.5541  0.2972
   11CHTO   O70 4350   6.377   7.591   2.608  0.9489  0.0660 -0.3112
   11CHTO  H170 4351   6.429   7.616   2.535  1.7060 -1.0252 -0.1648
   11CHTO   O57 4352   6.458   7.228   2.986  0.0001  0.1638  0.0112
   11CHTO   C85 4353   6.532   7.317   3.074 -0.3349  0.0584 -0.1757
   11CHTO  H157 4354   6.464   7.393   3.116 -1.3001 -0.1537 -1.3148
   11CHTO   C83 4355   6.637   7.395   2.981  0.2581  0.7417 -0.1757
   11CHTO  H155 4356   6.576   7.469   2.929  2.0679  1.9318 -0.6657
   11CHTO   O56 4357   6.693   7.310   2.872  0.3195 -0.4424  0.2206
   11CHTO  H135 4358   6.755   7.366   2.829  0.6560 -0.5423  0.5692
   11CHTO   C81 4359   6.741   7.481   3.074 -0.0565  0.1347 -0.2411
   11CHTO  H153 4360   6.682   7.556   3.128 -1.3558 -0.2610 -1.0616
   11CHTO   N14 4361   6.827   7.556   2.977 -0.3981  0.0928 -0.0456
   11CHTO  H141 4362   6.839   7.506   2.883 -2.4615 -0.0862 -0.2483
   11CHTO  H142 4363   6.786   7.653   2.958  0.1377  0.7783  2.1656
   11CHTO   C79 4364   6.816   7.383   3.171  0.1305  0.4219 -0.3010
   11CHTO  H151 4365   6.885   7.444   3.230 -3.2223  1.5690  2.6530
   11CHTO   O52 4366   6.713   7.316   3.256 -0.0782  0.1174  0.1967
   11CHTO   C86 4367   6.606   7.236   3.187 -0.2950 -0.0753  0.8130
   11CHTO  H158 4368   6.671   7.153   3.152  0.1034  0.3401  0.5646
   11CHTO   C90 4369   6.496   7.166   3.269  0.0490  0.1940  0.0694
   11CHTO   O60 4370   6.425   7.255   3.357 -0.7910  0.0019  0.1981
   11CHTO  H138 4371   6.463   7.340   3.347 -0.3094 -0.3773 -1.3273
   11CHTO   O50 4372   6.890   7.278   3.105 -0.2078 -0.3709 -0.3976
   11CHTO   C73 4373   7.000   7.182   3.104 -0.1895  0.1135  0.2289
   11CHTO  H145 4374   6.995   7.105   3.182 -0.6321 -0.6020 -0.4972
   11CHTO   C74 4375   7.133   7.262   3.145 -0.0422 -0.1633  0.5515
   11CHTO  H146 4376   7.121   7.316   3.240 -1.3099 -0.6263  0.6656
   11CHTO   O54 4377   7.229   7.165   3.174 -0.2882 -0.0901 -0.1584
   11CHTO  H133 4378   7.192   7.109   3.240 -0.8195  1.8949  1.2795
   11CHTO   C75 4379   7.175   7.358   3.029 -0.2984 -0.1485 -0.2026
   11CHTO  H147 4380   7.098   7.437   3.024  0.0190  0.3774  2.4884
   11CHTO   N13 4381   7.305   7.428   3.057 -0.1793 -0.1073 -0.2019
   11CHTO  H139 4382   7.349   7.469   2.967  0.1114 -0.2053 -0.1032
   11CHTO  H140 4383   7.387   7.391   3.115 -0.5991  1.2994  1.3358
   11CHTO   C76 4384   7.170   7.289   2.880 -1.0972  0.0044 -0.7229
   11CHTO  H148 4385   7.259   7.227   2.864 -1.3534 -0.2770 -1.0758
   11CHTO   O49 4386   7.049   7.205   2.866  0.3870 -0.4696  0.7548
   11CHTO   C77 4387   7.026   7.111   2.972  0.0121  0.8419 -0.2765
   11CHTO  H149 4388   7.111   7.046   2.987  0.1525  1.0020 -0.3748
   11CHTO   C88 4389   6.914   7.015   2.926 -0.3797  0.1569 -0.2433
   11CHTO   O58 4390   6.975   6.926   2.830 -0.4651 -0.5417  0.3259
   11CHTO  H136 4391   7.061   6.905   2.862 -0.1290 -1.1514 -0.9467
   11CHTO   O51 4392   7.148   7.387   2.781  0.1461  0.1698 -0.0489
   11CHTO   C78 4393   7.198   7.342   2.626  0.1846 -0.3964  0.5442
   11CHTO  H150 4394   7.218   7.233   2.614 -0.5180 -0.7217  2.1931
   11CHTO   C80 4395   7.325   7.425   2.604 -0.4147  0.0784  0.5324
   11CHTO  H152 4396   7.303   7.531   2.624  0.5128  0.3342  0.2504
   11CHTO   O55 4397   7.420   7.401   2.708  0.2688 -0.4321  0.2327
   11CHTO  H134 4398   7.490   7.343   2.686  2.0882  1.1197  1.7237
   11CHTO   C84 4399   7.373   7.395   2.450  0.1665 -0.3950  0.4336
   11CHTO  H156 4400   7.398   7.289   2.451  3.1105  0.2729  0.7143
   11CHTO   N15 4401   7.494   7.477   2.417 -0.3055  0.0476  0.3046
   11CHTO  H143 4402   7.589   7.437   2.444 -0.0291  0.7642  0.3953
   11CHTO  H144 4403   7.492   7.580   2.448  0.9534 -0.1591  1.0761
   11CHTO   C87 4404   7.259   7.431   2.347 -0.6065  0.1645 -0.5591
   11CHTO  H159 4405   7.224   7.534   2.347 -0.2172  0.3108  1.0517
   11CHTO   O53 4406   7.132   7.332   2.392 -0.1382  0.1363 -0.4423
   11CHTO   C82 4407   7.088   7.371   2.523  0.0315  0.1732  0.0163
   11CHTO  H154 4408   7.067   7.478   2.521  2.4354  0.6649 -0.0975
   11CHTO   C89 4409   6.953   7.299   2.566 -0.4083 -0.6464  0.2590
   11CHTO   O59 4410   6.958   7.159   2.573  0.7106  0.1635  0.5434
   11CHTO  H137 4411   6.928   7.141   2.660  0.0178  2.7205  0.8655
   11CHTO   O45 4412   7.306   7.378   2.195 -0.9359  0.1031 -0.1431
   11CHTO   C67 4413   7.214   7.377   2.086 -0.0813  0.5845  0.6259
   11CHTO  H124 4414   7.130   7.313   2.112 -0.4103  1.3657  1.5030
   11CHTO   C65 4415   7.157   7.524   2.058 -0.4990  0.6124  0.4552
   11CHTO  H122 4416   7.221   7.586   2.122 -0.9502 -0.1536  1.6491
   11CHTO   O44 4417   7.025   7.523   2.100 -0.6230  0.7870  0.3629
   11CHTO  H102 4418   6.995   7.611   2.103 -3.1024 -0.0144  0.8798
   11CHTO   C63 4419   7.195   7.565   1.910  0.3640 -0.1468 -0.0309
   11CHTO  H120 4420   7.303   7.573   1.900  0.3917 -0.9864 -0.3753
   11CHTO   N11 4421   7.154   7.708   1.878 -0.4119  0.3998 -0.1629
   11CHTO  H108 4422   7.190   7.737   1.782  0.5129  1.1771  0.4128
   11CHTO  H109 4423   7.052   7.736   1.896 -0.7856 -0.0603 -1.5484
   11CHTO   C61 4424   7.144   7.452   1.819  0.4241  0.1892 -0.3397
   11CHTO  H118 4425   7.178   7.476   1.717 -1.7005 -1.6792 -1.5442
   11CHTO   O40 4426   7.196   7.319   1.845  0.1501 -0.3583 -0.4086
   11CHTO   C68 4427   7.280   7.313   1.959 -0.2271 -0.2317 -0.0151
   11CHTO  H125 4428   7.377   7.362   1.937 -0.7060  0.1816 -1.2086
   11CHTO   C72 4429   7.315   7.158   1.993  0.1198 -0.1633  0.0576
   11CHTO   O48 4430   7.201   7.075   2.006  0.3649 -0.5856  0.2976
   11CHTO  H105 4431   7.223   7.000   1.955  2.5667  1.2144 -1.4867
   11CHTO   O38 4432   7.000   7.446   1.818  0.4050  0.6303  0.3310
   11CHTO   C55 4433   6.935   7.364   1.722  0.9061 -0.0760 -0.2211
   11CHTO  H112 4434   6.997   7.274   1.705  1.2049  0.2008 -0.6122
   11CHTO   C56 4435   6.915   7.444   1.592 -0.4227  0.1662  0.6072
   11CHTO  H113 4436   6.881   7.545   1.621 -1.1715  0.1924 -0.3572
   11CHTO   O42 4437   7.041   7.462   1.534 -0.4253 -0.1528 -0.2850
   11CHTO  H100 4438   7.087   7.389   1.498 -0.6247 -1.1766  1.4699
   11CHTO   C57 4439   6.815   7.371   1.486  0.3338  0.2562 -0.4369
   11CHTO  H114 4440   6.868   7.285   1.445  0.3364  0.8902 -1.8060
   11CHTO   N10 4441   6.788   7.452   1.368  0.7475 -0.1084 -0.2179
   11CHTO  H106 4442   6.698   7.419   1.319 -0.5201  2.8902 -0.0091
   11CHTO  H107 4443   6.870   7.457   1.298  0.2055 -1.5392 -0.9633
   11CHTO   C58 4444   6.688   7.321   1.558 -0.3737 -0.8600  0.0722
   11CHTO  H115 4445   6.632   7.411   1.590  0.8573 -0.0164 -0.1115
   11CHTO   O37 4446   6.734   7.247   1.673  0.5981 -0.1257 -0.1107
   11CHTO   C59 4447   6.796   7.324   1.779 -0.0351  0.1266  0.0008
   11CHTO  H116 4448   6.737   7.411   1.810 -3.9760 -2.0998 -0.9015
   11CHTO   C70 4449   6.793   7.229   1.905 -0.1011 -0.7866 -0.2389
   11CHTO   O46 4450   6.831   7.096   1.873 -0.0540 -0.6115 -0.3953
   11CHTO  H103 4451   6.786   7.065   1.797  0.1932 -0.5278 -0.5736
   11CHTO   O39 4452   6.620   7.204   1.463 -0.8753  0.1271 -0.2814
   11CHTO   C60 4453   6.480   7.197   1.468 -0.4060  0.0837  0.0539
   11CHTO  H117 4454   6.445   7.253   1.555  2.3823  1.5202  0.2983
   11CHTO   C62 4455   6.414   7.264   1.345 -0.3394  1.5386  0.3054
   11CHTO  H119 4456   6.464   7.363   1.336 -1.4315  2.0569 -0.1064
   11CHTO   O43 4457   6.448   7.196   1.222 -0.8708 -0.1405  0.3668
   11CHTO  H101 4458   6.541   7.188   1.220 -0.8935 -0.2780 -0.1748
   11CHTO   C66 4459   6.257   7.282   1.366  0.1806  0.3516 -0.2864
   11CHTO  H123 4460   6.244   7.345   1.454 -1.3894  0.0213 -0.2709
   11CHTO   N12 4461   6.195   7.365   1.260  0.3421 -0.0258 -0.2858
   11CHTO  H110 4462   6.270   7.384   1.184  1.4254 -0.0788  0.7451
   11CHTO  H111 4463   6.153   7.456   1.301  0.6300  0.3108 -0.7370
   11CHTO   C69 4464   6.186   7.149   1.393  0.0383 -0.1288  0.2645
   11CHTO  H126 4465   6.192   7.100   1.293  0.6932 -1.2919  0.8559
   11CHTO   O41 4466   6.261   7.070   1.510  0.3768 -0.2359 -0.3031
   11CHTO   C64 4467   6.423   7.052   1.479  0.4346  0.2064 -0.4410
   11CHTO  H121 4468   6.442   7.001   1.383 -0.5259  0.7729 -0.9358
   11CHTO   C71 4469   6.507   6.974   1.576  0.6519 -0.1224 -0.1967
   11CHTO   O47 4470   6.449   6.846   1.578  0.3277  0.0065 -0.3041
   11CHTO  H104 4471   6.509   6.797   1.630  0.9492  0.0563 -0.9750
   11CHTO   O34 4472   6.039   7.167   1.440  0.7307  0.4632 -0.4456
   11CHTO   C49 4473   5.920   7.123   1.539  0.0264  0.7572  0.1091
   11CHTO   H91 4474   5.955   7.156   1.637 -1.2672  1.3568  0.3790
   11CHTO   C47 4475   5.902   6.970   1.536  0.2749  0.1882  0.3268
   11CHTO   H89 4476   5.832   6.942   1.617  0.1374  1.6145  0.7136
   11CHTO   O33 4477   6.029   6.907   1.558 -0.7558 -0.4896 -0.2712
   11CHTO   H70 4478   6.074   6.940   1.633  1.4662 -0.5250 -1.5540
   11CHTO   C45 4479   5.829   6.928   1.398 -0.2517 -0.4982 -0.2229
   11CHTO   H87 4480   5.894   6.964   1.317  2.3784  0.7176  2.3086
   11CHTO    N8 4481   5.818   6.782   1.395 -0.7852  0.2966 -0.2083
   11CHTO   H75 4482   5.860   6.735   1.483  1.0081  0.3379 -1.0166
   11CHTO   H76 4483   5.860   6.754   1.299 -2.1089  1.0434 -1.0276
   11CHTO   C43 4484   5.685   7.009   1.391 -0.6047  0.2303  0.0678
   11CHTO   H85 4485   5.630   6.978   1.303  0.6283  1.0499 -1.0145
   11CHTO   O29 4486   5.702   7.156   1.394 -0.1701 -0.8632 -0.8162
   11CHTO   C50 4487   5.791   7.205   1.498 -0.2014  0.0222  0.6153
   11CHTO   H92 4488   5.825   7.305   1.466 -0.4877 -0.5842 -1.6689
   11CHTO   C54 4489   5.715   7.230   1.631  0.0153  0.0843 -1.1209
   11CHTO   O36 4490   5.609   7.319   1.608  0.5693 -0.0979 -0.3103
   11CHTO   H72 4491   5.547   7.329   1.678  2.5677  3.1988  1.1185
   11CHTO   O27 4492   5.595   6.958   1.496  0.1987  0.0893  0.1238
   11CHTO   C37 4493   5.456   6.960   1.545 -1.2606  0.5433  0.3823
   11CHTO   H79 4494   5.448   7.042   1.617 -3.4819 -0.5942  1.4826
   11CHTO   C38 4495   5.353   6.975   1.428  0.1700  0.4232  0.1890
   11CHTO   H80 4496   5.381   6.904   1.349  1.7778  0.4554  0.7085
   11CHTO   O31 4497   5.371   7.106   1.367  0.0104  0.4464  0.3859
   11CHTO   H68 4498   5.308   7.118   1.299  0.5024  0.9586  0.0180
   11CHTO   C39 4499   5.205   6.943   1.477  0.1051  0.0763 -0.3731
   11CHTO   H81 4500   5.169   7.026   1.538 -0.1921 -1.0948  1.0767
   11CHTO    N7 4501   5.108   6.938   1.366  0.0020  0.2683 -0.1927
   11CHTO   H73 4502   5.108   7.033   1.316  1.7848  1.2641  1.6460
   11CHTO   H74 4503   5.009   6.927   1.407 -1.0078  2.0829 -2.0378
   11CHTO   C40 4504   5.206   6.811   1.565  0.2445 -0.2677 -0.6989
   11CHTO   H82 4505   5.225   6.723   1.505  1.9750 -1.6119  1.7532
   11CHTO   O26 4506   5.297   6.820   1.678  0.3918  0.1191  0.2281
   11CHTO   C41 4507   5.436   6.825   1.628 -0.6184 -0.4183  0.2884
   11CHTO   H83 4508   5.471   6.733   1.578  0.0857 -0.1195  0.2219
   11CHTO   C52 4509   5.534   6.824   1.749  0.6004 -0.7526  0.2756
   11CHTO   O35 4510   5.509   6.731   1.830 -0.2061  0.5791  0.7970
   11CHTO   H71 4511   5.430   6.744   1.879 -0.8259 -1.4758  0.4317
   11CHTO   O28 4512   5.074   6.788   1.630 -0.1798  0.4145  0.2163
   11CHTO   C42 4513   4.995   6.660   1.617 -0.6608  0.1859  0.1876
   11CHTO   H84 4514   5.042   6.601   1.538 -2.0395 -0.1119 -0.4328
   11CHTO   C44 4515   4.843   6.693   1.571  0.4421  0.8093 -0.3289
   11CHTO   H86 4516   4.801   6.765   1.642 -0.4573 -1.5915  1.6429
   11CHTO   O32 4517   4.852   6.759   1.443 -0.0226 -0.2023  0.4909
   11CHTO   H69 4518   4.904   6.836   1.455  1.0218 -0.9285  0.7101
   11CHTO   C48 4519   4.750   6.564   1.571  0.0914  0.1381 -0.3556
   11CHTO   H90 4520   4.763   6.514   1.475 -1.0200  1.0022 -0.9700
   11CHTO    N9 4521   4.608   6.605   1.556 -0.0488  0.1795 -0.2069
   11CHTO   H77 4522   4.540   6.521   1.548 -0.5378  0.7670 -2.5525
   11CHTO   H78 4523   4.586   6.659   1.647 -0.7258 -0.9270  0.3085
   11CHTO   C51 4524   4.771   6.472   1.700  0.8152 -0.6269  0.3781
   11CHTO   H93 4525   4.728   6.526   1.784  0.4617 -1.0703  0.4837
   11CHTO   O30 4526   4.911   6.448   1.718  0.1199 -0.1411 -0.6461
   11CHTO   C46 4527   4.983   6.566   1.740  0.2574 -0.5109  0.2107
   11CHTO   H88 4528   4.924   6.624   1.811  1.5858 -1.6284  2.2368
   11CHTO   C53 4529   5.119   6.543   1.808 -0.1791  0.5555 -0.6777
   11CHTO   O72 4530   5.108   6.464   1.923  0.1472  0.1911 -0.0322
   11CHTO  H199 4531   5.178   6.487   1.981  0.4885 -0.8178 -0.0443
   11CHTO   O22 4532   4.707   6.348   1.674 -0.1593  0.2894 -0.3344
   11CHTO   C31 4533   4.635   6.285   1.781  0.1494 -0.4861 -0.3026
   11CHTO   H59 4534   4.647   6.349   1.871 -1.5092 -2.7755  1.6342
   11CHTO   C29 4535   4.477   6.277   1.752 -0.9226  0.1389 -0.0204
   11CHTO   H57 4536   4.466   6.214   1.663 -3.7649 -0.6778  0.8537
   11CHTO   O21 4537   4.425   6.408   1.717 -0.3933 -0.5734  0.1579
   11CHTO   H37 4538   4.409   6.458   1.795 -0.6541 -2.0619  1.0885
   11CHTO   C27 4539   4.408   6.206   1.873 -0.3213 -0.1840  0.1196
   11CHTO   H55 4540   4.422   6.265   1.965 -0.9568  2.0280 -1.1548
   11CHTO    N5 4541   4.256   6.195   1.848 -0.5534 -0.1988 -0.1997
   11CHTO   H43 4542   4.201   6.169   1.937 -0.6554 -0.1920 -0.2616
   11CHTO   H44 4543   4.231   6.128   1.768 -0.9430 -0.2661 -0.0199
   11CHTO   C25 4544   4.480   6.063   1.885 -0.2755  0.0596  0.9689
   11CHTO   H53 4545   4.467   6.018   1.786 -1.6912 -3.4694  2.6409
   11CHTO   O17 4546   4.620   6.081   1.918  0.1675  0.4461 -0.1504
   11CHTO   C32 4547   4.696   6.141   1.818 -0.2323  0.9241  0.0632
   11CHTO   H60 4548   4.680   6.078   1.730 -0.1269 -0.2292  0.8693
   11CHTO   C36 4549   4.835   6.137   1.866 -0.3053 -0.0036 -0.3548
   11CHTO   O25 4550   4.851   6.239   1.971 -0.6742  0.6156 -0.5902
   11CHTO   H40 4551   4.939   6.272   1.968  0.0214 -1.2173 -0.7794
   11CHTO   O15 4552   4.406   5.983   2.008  0.3321 -0.1056  0.0083
   11CHTO   C19 4553   4.382   5.842   1.998 -0.0946  0.0296 -0.1730
   11CHTO   H47 4554   4.406   5.823   1.893  2.1972  1.2361  0.1105
   11CHTO   C20 4555   4.484   5.758   2.077 -0.6697 -0.2966  0.0066
   11CHTO   H48 4556   4.474   5.783   2.184  0.4641 -1.4213  0.3864
   11CHTO   O19 4557   4.608   5.804   2.039 -0.2535 -0.3353 -0.1217
   11CHTO   H35 4558   4.665   5.802   2.113  0.6661 -0.8717 -0.8245
   11CHTO   C21 4559   4.468   5.606   2.045 -0.6614 -0.1862 -0.4708
   11CHTO   H49 4560   4.523   5.584   1.953  1.7992  0.5762  0.7797
   11CHTO    N4 4561   4.545   5.516   2.138  0.1972 -0.4301  0.2785
   11CHTO   H41 4562   4.521   5.411   2.132  0.3109 -0.4243 -0.2946
   11CHTO   H42 4563   4.535   5.551   2.240 -1.7459  4.9208 -1.5801
   11CHTO   C22 4564   4.319   5.557   2.038 -0.1043 -0.4082  0.4734
   11CHTO   H50 4565   4.279   5.541   2.138 -2.3173 -0.1623 -0.3470
   11CHTO   O14 4566   4.229   5.649   1.970 -0.8690  0.0230 -0.5053
   11CHTO   C23 4567   4.237   5.792   2.017  0.7853  0.4762  0.6055
   11CHTO   H51 4568   4.203   5.794   2.122 -2.0332  2.8444 -0.2872
   11CHTO   C34 4569   4.139   5.880   1.933 -0.1238  0.4623 -0.0747
   11CHTO   O23 4570   4.001   5.848   1.951 -0.4484  0.1066  0.2764
   11CHTO   H38 4571   3.964   5.903   2.017 -0.1842 -0.5629  0.9862
   11CHTO   O16 4572   4.311   5.441   1.953 -0.0477  0.0923 -0.0750
   11CHTO   C24 4573   4.197   5.356   1.967 -0.0829  0.5566  0.5354
   11CHTO   H52 4574   4.103   5.409   1.985 -0.4869 -0.4360  1.3793
   11CHTO   C26 4575   4.212   5.242   2.073 -0.6537 -0.0382 -0.3316
   11CHTO   H54 4576   4.290   5.172   2.038 -1.7910 -1.4476 -0.1182
   11CHTO   O20 4577   4.236   5.303   2.205  0.3615  0.1178  0.1138
   11CHTO   H36 4578   4.178   5.278   2.275  1.6227 -1.3280  0.6792
   11CHTO   C30 4579   4.081   5.158   2.068  0.9564 -0.1471 -0.6235
   11CHTO   H58 4580   4.000   5.230   2.085  0.3241 -0.5710 -1.7733
   11CHTO    N6 4581   4.068   5.060   2.181 -0.4132  0.7046  0.2069
   11CHTO   H45 4582   4.152   5.007   2.222 -1.0413  0.1831  0.8320
   11CHTO   H46 4583   4.020   5.105   2.267  2.5203 -0.9860  2.8120
   11CHTO   C33 4584   4.061   5.092   1.933  0.2954 -0.1271  0.0655
   11CHTO   H61 4585   4.153   5.033   1.918  0.9263  0.5720  1.0909
   11CHTO   O18 4586   4.064   5.191   1.831 -0.1669  0.0867  0.1320
   11CHTO   C28 4587   4.180   5.289   1.828  0.1624  0.1436  0.4220
   11CHTO   H56 4588   4.265   5.226   1.801  0.1009 -0.6249  1.9485
   11CHTO   C35 4589   4.140   5.383   1.715 -0.1814 -0.0233 -0.3734
   11CHTO   O24 4590   4.242   5.422   1.616  0.2962 -0.5420 -0.3257
   11CHTO   H39 4591   4.232   5.367   1.540  1.3278  1.8020 -2.2348
   11CHTO    O9 4592   3.946   5.009   1.924 -0.0786  0.7070 -0.6177
   11CHTO   C13 4593   3.802   5.101   1.887 -0.0349  0.0385  0.5313
   11CHTO   H26 4594   3.816   5.201   1.932 -0.5552  1.9332 -3.3132
   11CHTO   C11 4595   3.679   5.027   1.946 -0.2720 -0.5419 -0.8280
   11CHTO   H24 4596   3.693   5.020   2.055  0.5306  2.5073 -0.7104
   11CHTO    O8 4597   3.678   4.893   1.894  0.0423  0.4293 -0.2054
   11CHTO    H3 4598   3.740   4.836   1.934 -0.3716  1.5935  2.1736
   11CHTO    C9 4599   3.560   5.118   1.920  0.4313 -0.1897  0.7670
   11CHTO   H22 4600   3.572   5.205   1.985  2.5524 -1.3364  1.9644
   11CHTO    N2 4601   3.434   5.057   1.965 -0.2234  0.2337 -0.0317
   11CHTO   H10 4602   3.415   4.959   1.924 -0.3783 -0.0762  0.7735
   11CHTO   H11 4603   3.350   5.122   1.945 -1.8421 -1.8319 -0.1427
   11CHTO    C7 4604   3.559   5.177   1.771  0.7803  0.5101 -0.1465
   11CHTO   H20 4605   3.590   5.284   1.777  0.4752  0.6383 -0.7654
   11CHTO    O4 4606   3.648   5.100   1.685 -0.5090 -0.4228 -0.2950
   11CHTO   C14 4607   3.786   5.107   1.718 -0.4942  0.8901 -0.3131
   11CHTO   H27 4608   3.827   5.208   1.697  0.2323  0.5651 -0.4705
   11CHTO   C18 4609   3.860   5.009   1.629  0.0830 -0.0864  0.0317
   11CHTO   O13 4610   3.842   5.051   1.493  0.3929 -0.5078  0.0913
   11CHTO    H7 4611   3.810   4.977   1.444 -1.6872  0.3258  0.1416
   11CHTO    O2 4612   3.405   5.184   1.700 -0.5200  0.3371  0.2221
   11CHTO    C1 4613   3.381   5.219   1.563 -0.2505 -0.0748 -0.5046
   11CHTO   H14 4614   3.426   5.147   1.492 -1.5164 -0.5810 -0.8035
   11CHTO    C2 4615   3.443   5.365   1.520  0.3148 -0.1158  0.6318
   11CHTO   H15 4616   3.403   5.434   1.595 -3.5292  0.5410 -1.8840
   11CHTO    O6 4617   3.586   5.358   1.533 -0.0961 -0.9093 -0.1898
   11CHTO    H1 4618   3.617   5.272   1.553 -0.8483 -1.0427  0.4056
   11CHTO    C3 4619   3.401   5.399   1.372 -0.2670 -0.5587  0.8067
   11CHTO   H16 4620   3.457   5.328   1.308 -0.5762 -1.0300  1.0576
   11CHTO    N1 4621   3.439   5.539   1.332 -0.3068 -0.4516  0.3519
   11CHTO    H8 4622   3.349   5.593   1.309 -2.2910 -3.4636  0.7364
   11CHTO    H9 4623   3.491   5.583   1.416 -1.2089  0.2440  0.5599
   11CHTO    C4 4624   3.250   5.368   1.349  0.1350  0.5307  0.1222
   11CHTO   H17 4625   3.192   5.448   1.394 -2.1440 -1.5570  1.0335
   11CHTO    O1 4626   3.205   5.239   1.393 -0.4324 -0.0569  0.4913
   11CHTO    C5 4627   3.234   5.206   1.538  0.4797 -0.2303  0.0217
   11CHTO   H18 4628   3.182   5.275   1.605  1.4145  0.7879 -0.2798
   11CHTO   C16 4629   3.180   5.061   1.565 -0.0279 -0.2526  0.3778
   11CHTO   O11 4630   3.039   5.052   1.521 -0.0850  0.2730 -0.2208
   11CHTO    H5 4631   3.031   5.062   1.428  0.7099 -0.5355 -0.3783
   11CHTO    O3 4632   3.221   5.355   1.210  0.3021  0.4900 -1.0766
   11CHTO    C6 4633   3.084   5.394   1.173 -0.6079 -0.1700  0.1800
   11CHTO   H19 4634   3.010   5.401   1.253  0.6409  1.3183  1.2580
   11CHTO    C8 4635   3.091   5.540   1.120  0.3055 -0.6127  0.3464
   11CHTO   H21 4636   3.182   5.556   1.062 -0.7020 -0.1651 -1.1336
   11CHTO    O7 4637   3.077   5.629   1.229  0.0444 -0.4761 -0.1203
   11CHTO    H2 4638   3.154   5.681   1.241  0.8202 -1.7340  0.4593
   11CHTO   C12 4639   2.965   5.566   1.020 -0.4227 -0.0176 -0.0819
   11CHTO   H25 4640   2.878   5.596   1.082  1.2925  1.3646  1.7175
   11CHTO    N3 4641   2.997   5.689   0.934 -0.5252  0.1628 -0.9219
   11CHTO   H12 4642   3.040   5.767   0.995  0.4963 -0.3190 -1.0201
   11CHTO   H13 4643   2.900   5.724   0.902 -0.7539  0.1531 -0.2518
   11CHTO   C15 4644   2.924   5.451   0.937 -0.3829 -0.1194 -0.3701
   11CHTO   H28 4645   2.987   5.441   0.848 -1.8872 -2.1903 -1.2431
   11CHTO   O10 4646   2.763   5.465   0.886 -0.1527 -0.3477  0.3643
   11CHTO    H4 4647   2.710   5.473   0.964  2.6791  0.1348  2.3230
   11CHTO    O5 4648   2.912   5.323   1.007  0.5271  0.6472 -0.9518
   11CHTO   C10 4649   3.039   5.291   1.074 -0.5705  0.3492 -0.2026
   11CHTO   H23 4650   3.117   5.267   1.002  0.2974  0.1717  0.7858
   11CHTO   C17 4651   3.017   5.155   1.144  0.4417  0.3240  0.9636
   11CHTO   O12 4652   2.906   5.157   1.234 -0.4689  1.1607 -0.7313
   11CHTO    H6 4653   2.889   5.071   1.266  0.3135  1.8664  1.6471
   12CHTO  H203 4654   4.884   1.602   0.327 -2.4600 -0.5732  1.2640
   12CHTO   O82 4655   4.876   1.521   0.279 -0.3502 -0.1568  0.1442
   12CHTO  C123 4656   4.976   1.430   0.312 -0.4704  0.3024  0.1176
   12CHTO  H227 4657   5.068   1.488   0.324 -0.4225 -0.1751  2.2810
   12CHTO   O77 4658   4.926   1.369   0.436  0.6654  0.3384  1.0561
   12CHTO  C118 4659   5.035   1.291   0.492 -0.4735 -0.0710 -0.4782
   12CHTO  H222 4660   5.125   1.354   0.499 -0.6373  0.0626  0.4604
   12CHTO  C125 4661   4.986   1.246   0.638  0.3641 -0.2235  0.4671
   12CHTO   O84 4662   5.096   1.223   0.723  0.3648  0.1171 -0.1703
   12CHTO  H205 4663   5.167   1.280   0.702  0.1620 -0.1888 -1.7294
   12CHTO  C114 4664   5.061   1.166   0.400  0.3293  0.2876  0.3609
   12CHTO  H218 4665   4.977   1.097   0.407  1.0301 -0.3856  2.5455
   12CHTO  C116 4666   5.083   1.210   0.251  0.1892  0.1882 -0.2824
   12CHTO  H220 4667   5.188   1.232   0.224 -0.0681 -0.1053 -1.5378
   12CHTO   O79 4668   5.060   1.091   0.171 -0.0877 -0.0193  0.7902
   12CHTO  H201 4669   5.140   1.091   0.121 -0.5908  0.8965 -0.0425
   12CHTO  C120 4670   4.993   1.320   0.199  0.4593 -0.0228 -0.0420
   12CHTO  H224 4671   4.898   1.264   0.183 -0.9127  1.5515  2.2227
   12CHTO   N21 4672   5.045   1.374   0.074 -0.6469  0.0419  0.0803
   12CHTO  H211 4673   5.121   1.448   0.096 -0.8781  0.8067 -1.6792
   12CHTO  H212 4674   4.969   1.421   0.014  0.0104 -1.2349 -1.7997
   12CHTO   O75 4675   5.174   1.094   0.450 -0.3285  0.0687 -0.0197
   12CHTO  C112 4676   5.186   0.917   0.425 -0.5312 -0.2229 -0.3111
   12CHTO  H216 4677   5.288   0.895   0.389 -0.8797  0.2672 -1.6449
   12CHTO   O73 4678   5.085   0.879   0.329  0.3216  0.0509  0.4671
   12CHTO  C113 4679   5.071   0.742   0.314 -0.3498 -0.6866 -0.0919
   12CHTO  H217 4680   5.170   0.700   0.285  0.3252  0.2430  0.8034
   12CHTO  C124 4681   4.973   0.725   0.196  0.2627  0.0108 -0.3628
   12CHTO   O83 4682   4.988   0.794   0.075 -0.1781  0.3434  0.1162
   12CHTO  H204 4683   5.077   0.790   0.046 -0.7982 -1.6500 -1.5854
   12CHTO  C109 4684   5.039   0.661   0.440 -0.1831  0.0561 -0.0407
   12CHTO  H213 4685   4.940   0.696   0.473 -1.3411 -3.3215  0.2757
   12CHTO  C110 4686   5.154   0.696   0.545 -0.6627 -0.5916 -0.1320
   12CHTO  H214 4687   5.246   0.654   0.503 -1.1221 -0.2295 -1.5274
   12CHTO   O78 4688   5.128   0.624   0.669  0.2032 -0.1805 -0.3287
   12CHTO  H200 4689   5.196   0.641   0.731 -1.1528  0.5077  1.0043
   12CHTO  C111 4690   5.165   0.845   0.568 -0.9607  0.0017 -0.3650
   12CHTO  H215 4691   5.070   0.882   0.609  0.1079  1.8716  0.5275
   12CHTO   N19 4692   5.274   0.900   0.653 -0.4618  0.2979 -0.1486
   12CHTO  H207 4693   5.287   1.006   0.669 -0.8000  0.3346 -0.1074
   12CHTO  H208 4694   5.278   0.841   0.743  0.7429 -0.2703 -0.5702
   12CHTO   O74 4695   5.029   0.514   0.418  0.2045 -0.1036 -0.0163
   12CHTO  C115 4696   4.899   0.438   0.427 -0.1850 -0.8628  0.5072
   12CHTO  H219 4697   4.835   0.474   0.508  0.0118 -2.4249  1.3633
   12CHTO   O76 4698   4.813   0.451   0.298 -0.3886 -0.4634 -0.2791
   12CHTO  C122 4699   4.890   0.388   0.191 -0.5510 -0.1227  0.2570
   12CHTO  H226 4700   4.985   0.435   0.165 -0.5696 -0.0558  0.3112
   12CHTO  C126 4701   4.809   0.402   0.058 -0.4886 -0.4987 -0.3106
   12CHTO   O85 4702   4.799   0.529   0.002  0.7412 -0.0480 -0.0970
   12CHTO  H206 4703   4.741   0.521  -0.071 -1.8788 -1.5325  2.0273
   12CHTO  C121 4704   4.926   0.238   0.221  0.2814 -0.5540  0.0148
   12CHTO  H225 4705   4.885   0.177   0.137  0.6381 -0.8585  0.0638
   12CHTO   O81 4706   5.071   0.216   0.230  0.3945  0.4479 -0.4884
   12CHTO  H202 4707   5.112   0.173   0.158 -0.4388 -1.5744  0.1970
   12CHTO  C119 4708   4.867   0.187   0.352  0.0531 -0.2317  0.3021
   12CHTO  H223 4709   4.760   0.201   0.338 -0.1746 -3.1353 -1.0518
   12CHTO  C117 4710   4.921   0.284   0.466  0.3672  0.0972 -0.0303
   12CHTO  H221 4711   5.028   0.278   0.483  0.5314 -1.5362 -1.4906
   12CHTO   N20 4712   4.860   0.252   0.604  0.4217  0.4967  0.0663
   12CHTO  H209 4713   4.898   0.159   0.645 -1.6183 -0.9210 -1.1769
   12CHTO  H210 4714   4.754   0.242   0.590  0.6957 -0.6749 -1.3894
   12CHTO   O80 4715   4.876   0.022   0.368  0.2276 -0.2214  0.1975
   12CHTO  C103 4716   4.732  -0.061   0.379 -0.3551 -0.1655  0.1330
   12CHTO  H190 4717   4.654  -0.007   0.431 -0.6362  0.3662 -0.8383
   12CHTO  C101 4718   4.668  -0.108   0.246 -0.0997  0.0547 -0.1093
   12CHTO  H188 4719   4.744  -0.156   0.184 -0.4878 -0.4766 -0.1724
   12CHTO   O68 4720   4.605   0.015   0.160  0.2444  0.5478 -0.1665
   12CHTO  H168 4721   4.660   0.091   0.154 -0.9298  1.4524  0.3989
   12CHTO   C99 4722   4.559  -0.226   0.268  0.1473  0.0012 -0.4513
   12CHTO  H186 4723   4.463  -0.176   0.294 -0.7316 -1.2961 -1.1568
   12CHTO   N17 4724   4.529  -0.310   0.143  0.6989  0.2599 -0.0378
   12CHTO  H174 4725   4.557  -0.259   0.052 -1.8758  2.1745  0.1919
   12CHTO  H175 4726   4.426  -0.342   0.142  0.8163 -0.0959 -0.9549
   12CHTO   C97 4727   4.592  -0.322   0.382  0.0436  0.8674 -0.3372
   12CHTO  H184 4728   4.654  -0.409   0.354 -0.5938  0.6547 -1.1058
   12CHTO   O64 4729   4.650  -0.252   0.489  0.2097 -0.5036  0.0368
   12CHTO  C104 4730   4.770  -0.188   0.465  0.1120 -0.6836 -0.1694
   12CHTO  H191 4731   4.856  -0.233   0.415  0.6118  1.7162 -1.5794
   12CHTO  C108 4732   4.805  -0.146   0.608  0.0410  0.2921 -0.2312
   12CHTO   O71 4733   4.814  -0.235   0.715 -0.6006 -0.2309  0.0703
   12CHTO  H171 4734   4.732  -0.273   0.737 -1.0343  0.1702 -0.8315
   12CHTO   O62 4735   4.477  -0.361   0.466  0.5382  0.4561 -0.3337
   12CHTO   C91 4736   4.417  -0.489   0.450  0.3290 -0.1206  0.0825
   12CHTO  H178 4737   4.435  -0.519   0.347 -1.0109 -2.1110  0.3945
   12CHTO   C92 4738   4.262  -0.463   0.467  0.7881  0.4530 -0.0652
   12CHTO  H179 4739   4.234  -0.399   0.383 -0.6100 -2.8730 -2.2278
   12CHTO   O66 4740   4.192  -0.586   0.437  0.6549 -0.0959  0.3704
   12CHTO  H166 4741   4.100  -0.581   0.422  0.5840 -3.2258 -0.5026
   12CHTO   C93 4742   4.223  -0.419   0.618  0.7481  0.1524  0.1325
   12CHTO  H180 4743   4.129  -0.474   0.633  1.3471 -0.5966  1.1643
   12CHTO   N16 4744   4.200  -0.277   0.628  0.4129  0.1314  0.4704
   12CHTO  H172 4745   4.256  -0.217   0.558  0.0309 -0.4789 -0.3576
   12CHTO  H173 4746   4.095  -0.250   0.634  0.0995 -1.0435  0.2896
   12CHTO   C94 4747   4.326  -0.483   0.713 -0.5040  0.6739  0.6382
   12CHTO  H181 4748   4.414  -0.420   0.728 -0.1175 -0.0626  1.5302
   12CHTO   O61 4749   4.374  -0.614   0.663 -0.2855 -0.0564  0.1755
   12CHTO   C95 4750   4.473  -0.595   0.558 -0.4104 -0.9422  0.0204
   12CHTO  H182 4751   4.564  -0.554   0.602 -1.3601  0.7553  0.4117
   12CHTO  C106 4752   4.512  -0.727   0.489  0.0817 -0.0091  0.0622
   12CHTO   O69 4753   4.405  -0.808   0.437  0.1230  0.4451  0.1439
   12CHTO  H169 4754   4.368  -0.853   0.511  1.8160 -0.7841  0.2786
   12CHTO   O63 4755   4.267  -0.516   0.847  0.6285  0.0814 -0.3110
   12CHTO   C96 4756   4.376  -0.562   0.944 -0.1643 -0.0496 -0.8756
   12CHTO  H183 4757   4.446  -0.620   0.883 -1.6713 -2.0318 -0.7561
   12CHTO   C98 4758   4.315  -0.647   1.055 -0.5513  0.3344  0.1199
   12CHTO  H185 4759   4.234  -0.708   1.013 -0.9729 -0.2233  1.7311
   12CHTO   O67 4760   4.420  -0.745   1.091  0.2304 -0.7900  0.0230
   12CHTO  H167 4761   4.442  -0.799   1.018 -1.5287 -3.9214  1.6744
   12CHTO  C102 4762   4.268  -0.569   1.182  0.5425  0.5879  0.3692
   12CHTO  H189 4763   4.256  -0.644   1.261  0.8125  0.7516  0.5655
   12CHTO   N18 4764   4.142  -0.492   1.171  0.2616  0.0519  0.1797
   12CHTO  H176 4765   4.137  -0.427   1.085 -0.6387 -2.2526 -1.5894
   12CHTO  H177 4766   4.110  -0.445   1.262 -2.5398 -0.3813 -0.5543
   12CHTO  C105 4767   4.382  -0.474   1.225  0.1593  0.9670  0.8018
   12CHTO  H192 4768   4.341  -0.408   1.302 -1.2332 -0.1141  1.0176
   12CHTO   O65 4769   4.433  -0.387   1.123 -0.3942 -1.1860 -0.7990
   12CHTO  C100 4770   4.452  -0.435   0.989  0.5585  0.4132 -0.4329
   12CHTO  H187 4771   4.426  -0.350   0.925 -1.4738  0.7179  0.7769
   12CHTO  C107 4772   4.604  -0.454   0.979  0.4934  0.7267  0.5990
   12CHTO   O70 4773   4.658  -0.449   0.848  0.6858  0.1585 -0.0094
   12CHTO  H170 4774   4.614  -0.389   0.791 -0.2918 -1.4192 -0.9638
   12CHTO   O57 4775   4.493  -0.577   1.302 -0.1371 -0.9685 -0.4350
   12CHTO   C85 4776   4.499  -0.579   1.446  0.3037  0.3888 -0.1966
   12CHTO  H157 4777   4.411  -0.531   1.494 -1.1747  0.2017 -2.6185
   12CHTO   C83 4778   4.623  -0.487   1.486  0.2824  0.0007 -0.1078
   12CHTO  H155 4779   4.610  -0.388   1.443 -0.6333  0.3995  1.0741
   12CHTO   O56 4780   4.741  -0.532   1.408  0.0122  0.6181 -0.1927
   12CHTO  H135 4781   4.791  -0.455   1.389 -1.3445  2.2190  2.3228
   12CHTO   C81 4782   4.637  -0.474   1.640 -0.9051 -0.0762 -0.5033
   12CHTO  H153 4783   4.546  -0.435   1.685 -0.0042  0.9591  0.4411
   12CHTO   N14 4784   4.747  -0.383   1.688  0.3887 -0.3661  0.3743
   12CHTO  H141 4785   4.842  -0.421   1.656  1.2008  2.1861 -0.3631
   12CHTO  H142 4786   4.751  -0.359   1.793  1.2917  2.1232 -0.1855
   12CHTO   C79 4787   4.655  -0.622   1.686  0.0669 -0.2371 -0.1640
   12CHTO  H151 4788   4.649  -0.615   1.794  1.0601 -0.7026 -0.0691
   12CHTO   O52 4789   4.538  -0.703   1.653 -0.3911  0.3062 -0.4671
   12CHTO   C86 4790   4.531  -0.714   1.516 -0.2647  0.2679 -0.4070
   12CHTO  H158 4791   4.631  -0.756   1.493  0.1502 -0.6786  2.8613
   12CHTO   C90 4792   4.431  -0.824   1.466 -0.5054 -0.0790 -0.4517
   12CHTO   O60 4793   4.474  -0.946   1.522 -0.0557 -0.0245  0.0368
   12CHTO  H138 4794   4.458  -1.013   1.458 -1.0151  1.8256 -1.7555
   12CHTO   O50 4795   4.780  -0.684   1.657 -0.6395 -0.1230 -0.3141
   12CHTO   C73 4796   4.841  -0.785   1.735  0.3601  0.5014  0.5588
   12CHTO  H145 4797   4.765  -0.852   1.777  0.4951 -1.6306 -2.3959
   12CHTO   C74 4798   4.931  -0.728   1.851 -0.2124 -0.0157 -0.5652
   12CHTO  H146 4799   4.860  -0.669   1.912  0.5881  0.7773 -0.3994
   12CHTO   O54 4800   4.969  -0.839   1.941  0.3311  0.4488  1.0086
   12CHTO  H133 4801   5.028  -0.805   2.005  2.3718  0.2403 -0.6885
   12CHTO   C75 4802   5.057  -0.646   1.796 -0.0984 -0.3565 -0.2572
   12CHTO  H147 4803   5.018  -0.560   1.740 -1.1927 -0.9079 -0.3512
   12CHTO   N13 4804   5.143  -0.585   1.901  0.0340 -0.7026  0.4755
   12CHTO  H139 4805   5.119  -0.644   1.989 -3.2421 -1.7287 -0.9982
   12CHTO  H140 4806   5.095  -0.490   1.915  0.4608 -0.8998  3.7427
   12CHTO   C76 4807   5.137  -0.745   1.699 -0.3351 -0.4148 -0.1098
   12CHTO  H148 4808   5.188  -0.829   1.748 -1.4881 -1.1993 -0.2441
   12CHTO   O49 4809   5.046  -0.791   1.591 -0.1460  0.5943 -0.0343
   12CHTO   C77 4810   4.934  -0.863   1.647  0.0235  0.1496  0.4706
   12CHTO  H149 4811   4.976  -0.941   1.710 -0.2491  0.3152  0.8567
   12CHTO   C88 4812   4.853  -0.934   1.534 -0.6189  0.1778 -0.4124
   12CHTO   O58 4813   4.929  -1.016   1.476  0.0086 -0.1753  0.2791
   12CHTO  H136 4814   4.930  -1.094   1.528 -2.3759  1.2521  2.5975
   12CHTO   O51 4815   5.257  -0.661   1.611  0.5924  0.3816 -0.0367
   12CHTO   C78 4816   5.402  -0.749   1.614  0.5295 -0.0835  0.0153
   12CHTO  H150 4817   5.378  -0.855   1.640 -1.2803 -0.2144 -2.0054
   12CHTO   C80 4818   5.508  -0.689   1.716  1.0725  0.5211 -0.5392
   12CHTO  H152 4819   5.532  -0.587   1.681 -1.8739  1.3155 -0.3824
   12CHTO   O55 4820   5.447  -0.678   1.843 -0.1471 -0.2859 -0.4167
   12CHTO  H134 4821   5.502  -0.620   1.893 -0.1231  0.1593 -0.9604
   12CHTO   C84 4822   5.645  -0.770   1.715  0.4314  0.1915  0.3659
   12CHTO  H156 4823   5.617  -0.863   1.766  0.8835 -0.4710 -0.5860
   12CHTO   N15 4824   5.738  -0.704   1.814 -0.1554  0.1460 -0.4468
   12CHTO  H143 4825   5.815  -0.769   1.850 -0.3180 -0.3291 -0.9486
   12CHTO  H144 4826   5.785  -0.618   1.772 -0.2061  1.6951  2.5532
   12CHTO   C87 4827   5.699  -0.785   1.573  0.3005 -0.2647  0.0823
   12CHTO  H159 4828   5.738  -0.687   1.547  0.9009 -0.8214 -1.2179
   12CHTO   O53 4829   5.573  -0.828   1.471  0.3677  0.2048  0.1323
   12CHTO   C82 4830   5.451  -0.748   1.471  0.1735  0.1118  0.1248
   12CHTO  H154 4831   5.463  -0.644   1.442  0.9404 -0.1589 -0.5425
   12CHTO   C89 4832   5.344  -0.812   1.380  0.0650  0.4765  0.0364
   12CHTO   O59 4833   5.314  -0.952   1.396  0.5863  0.7409  0.0643
   12CHTO  H137 4834   5.382  -1.014   1.417  0.4482  0.0965 -1.3362
   12CHTO   O45 4835   5.827  -0.877   1.574 -0.2786  0.0166  0.5193
   12CHTO   C67 4836   5.909  -0.883   1.455  0.0457  0.1714 -0.0253
   12CHTO  H124 4837   5.995  -0.946   1.478  0.6519  0.3617 -1.7428
   12CHTO   C65 4838   5.836  -0.946   1.325  0.1421 -0.3148 -0.1587
   12CHTO  H122 4839   5.741  -0.991   1.354 -1.1060  1.0484 -2.0091
   12CHTO   O44 4840   5.920  -1.042   1.268 -0.6963 -0.4342 -0.2563
   12CHTO  H102 4841   5.879  -1.125   1.283 -0.4311  0.1885  4.4417
   12CHTO   C63 4842   5.794  -0.833   1.223  0.3696 -0.1421 -0.2851
   12CHTO  H120 4843   5.742  -0.752   1.275  2.2040  0.2380  1.0257
   12CHTO   N11 4844   5.705  -0.873   1.118 -0.0298 -0.3515  0.5441
   12CHTO  H108 4845   5.693  -0.791   1.051  0.9382 -0.1572  0.5913
   12CHTO  H109 4846   5.730  -0.965   1.070 -0.0416 -0.7821  1.3587
   12CHTO   C61 4847   5.934  -0.762   1.173 -0.4037 -0.3111 -0.8763
   12CHTO  H118 4848   5.913  -0.663   1.130 -0.3682 -0.5491 -1.4511
   12CHTO   O40 4849   6.025  -0.748   1.277  0.6946 -0.3510  0.7003
   12CHTO   C68 4850   5.971  -0.736   1.418 -0.1957 -1.0428  0.1373
   12CHTO  H125 4851   5.886  -0.665   1.410  0.6744 -0.0956 -0.9659
   12CHTO   C72 4852   6.069  -0.674   1.518  0.2788  0.1171 -0.1161
   12CHTO   O48 4853   6.131  -0.554   1.468 -0.0100 -0.0566 -0.1317
   12CHTO  H105 4854   6.182  -0.568   1.391 -1.6014  1.0156 -1.4358
   12CHTO   O38 4855   5.997  -0.839   1.068 -0.2018 -0.1393 -0.0437
   12CHTO   C55 4856   6.133  -0.812   1.034  1.1245  0.0633 -0.5837
   12CHTO  H112 4857   6.200  -0.799   1.120  0.9369 -0.0047 -0.4255
   12CHTO   C56 4858   6.150  -0.693   0.929 -0.0380  0.4133 -0.4994
   12CHTO  H113 4859   6.079  -0.715   0.848 -0.2725 -0.4843 -0.0494
   12CHTO   O42 4860   6.114  -0.570   0.991  0.3553 -0.4617 -0.0940
   12CHTO  H100 4861   6.160  -0.493   0.963  0.9686 -0.7096  0.2333
   12CHTO   C57 4862   6.291  -0.684   0.866 -0.2101  0.2111  0.1232
   12CHTO  H114 4863   6.356  -0.634   0.939 -0.5901  0.5070  0.2629
   12CHTO   N10 4864   6.300  -0.587   0.754  0.0435 -1.0186  0.5577
   12CHTO  H106 4865   6.312  -0.491   0.803 -0.0124 -0.9031  0.3494
   12CHTO  H107 4866   6.392  -0.611   0.702  0.5861 -1.9262  1.9214
   12CHTO   C58 4867   6.347  -0.826   0.827 -0.5104 -0.7196 -0.6274
   12CHTO  H115 4868   6.319  -0.849   0.722 -2.6099  1.5764 -0.6179
   12CHTO   O37 4869   6.315  -0.931   0.919  0.0553  0.4513  0.5549
   12CHTO   C59 4870   6.181  -0.947   0.971  0.2145  0.2145  0.4542
   12CHTO  H116 4871   6.115  -0.972   0.888 -1.0089  0.8744  1.1983
   12CHTO   C70 4872   6.174  -1.076   1.054  0.5623 -0.0347 -0.1067
   12CHTO   O46 4873   6.283  -1.102   1.140 -0.4475  0.4265  0.6851
   12CHTO  H103 4874   6.332  -1.024   1.157 -2.3543  1.7603  0.2533
   12CHTO   O39 4875   6.504  -0.827   0.862  0.1736 -0.0179  0.2864
   12CHTO   C60 4876   6.591  -0.859   0.756 -0.0571 -0.0750 -0.0430
   12CHTO  H117 4877   6.557  -0.893   0.659  1.1327  2.5532 -1.4488
   12CHTO   C62 4878   6.676  -0.731   0.720 -0.4743 -0.2784 -0.3016
   12CHTO  H119 4879   6.602  -0.653   0.695 -0.1670  0.0948 -0.0468
   12CHTO   O43 4880   6.767  -0.686   0.829 -0.3851 -0.2459  0.2855
   12CHTO  H101 4881   6.816  -0.613   0.797  0.5245 -1.7110 -1.7927
   12CHTO   C66 4882   6.756  -0.763   0.589 -0.0288  0.3153  0.2867
   12CHTO  H123 4883   6.688  -0.803   0.514  2.1232 -0.3314 -1.3943
   12CHTO   N12 4884   6.812  -0.640   0.533 -0.1199 -0.5090  0.0471
   12CHTO  H110 4885   6.818  -0.560   0.604 -0.1735  2.4005 -3.1036
   12CHTO  H111 4886   6.773  -0.596   0.442 -2.3986  0.4407  1.4355
   12CHTO   C69 4887   6.865  -0.870   0.615  0.5524  0.9135  0.0888
   12CHTO  H126 4888   6.952  -0.826   0.668 -0.5692  2.2590  0.8673
   12CHTO   O41 4889   6.797  -0.998   0.703  0.0727 -0.5647  0.2126
   12CHTO   C64 4890   6.681  -0.967   0.808  0.2910 -0.2255  0.1539
   12CHTO  H121 4891   6.733  -0.932   0.899 -0.0428  0.0777  0.2284
   12CHTO   C71 4892   6.590  -1.093   0.837  0.2858 -0.0525 -0.0739
   12CHTO   O47 4893   6.653  -1.207   0.901 -0.4471 -0.2280 -0.2541
   12CHTO  H104 4894   6.732  -1.226   0.853 -0.4156 -0.5621 -0.0709
   12CHTO   O34 4895   6.922  -0.927   0.477 -0.0572  0.2531 -0.3834
   12CHTO   C49 4896   7.053  -0.955   0.395 -0.4667 -0.3736  0.5682
   12CHTO   H91 4897   7.135  -0.928   0.461  0.4063 -0.4411 -0.4682
   12CHTO   C47 4898   7.053  -0.881   0.263 -0.1883 -0.5327  0.6342
   12CHTO   H89 4899   7.155  -0.904   0.227 -0.1966 -0.1186  0.3394
   12CHTO   O33 4900   7.037  -0.735   0.283 -0.2800 -0.2398  0.5105
   12CHTO   H70 4901   7.115  -0.700   0.322 -0.5333  0.6015  0.2860
   12CHTO   C45 4902   6.938  -0.927   0.159  0.4988  0.0679 -0.2744
   12CHTO   H87 4903   6.856  -0.854   0.146  0.6588  0.2251 -0.4262
   12CHTO    N8 4904   7.006  -0.940   0.026  0.3537  0.2763 -0.2764
   12CHTO   H75 4905   6.961  -0.867  -0.040  0.8501 -0.0888 -1.0329
   12CHTO   H76 4906   6.999  -1.045  -0.002  2.3102  0.0011  0.2418
   12CHTO   C43 4907   6.874  -1.068   0.212 -0.3576  0.2952  0.0684
   12CHTO   H85 4908   6.801  -1.036   0.286  0.5688  2.7007 -0.0197
   12CHTO   O29 4909   6.971  -1.159   0.265  0.2677 -0.8001  0.1811
   12CHTO   C50 4910   7.060  -1.105   0.367  0.2024  0.8684 -0.0728
   12CHTO   H92 4911   7.019  -1.155   0.456 -0.2465 -1.3723 -1.5160
   12CHTO   C54 4912   7.204  -1.151   0.348  0.4399 -0.1403 -0.0375
   12CHTO   O36 4913   7.259  -1.105   0.229 -0.5590 -0.0210  0.0605
   12CHTO   H72 4914   7.352  -1.110   0.236 -0.4549  0.3819 -0.9539
   12CHTO   O27 4915   6.795  -1.143   0.118  0.4732 -0.0941  0.0431
   12CHTO   C37 4916   6.697  -1.249   0.137 -0.5888  0.1067 -0.5788
   12CHTO   H79 4917   6.674  -1.293   0.039  0.3477 -2.1280  0.1814
   12CHTO   C38 4918   6.743  -1.364   0.230 -0.4237  0.1077 -1.0981
   12CHTO   H80 4919   6.767  -1.321   0.328  1.8182  0.6676 -1.8641
   12CHTO   O31 4920   6.863  -1.422   0.169 -0.2387  0.2692 -0.7819
   12CHTO   H68 4921   6.939  -1.367   0.181 -0.2805  0.6334 -2.1045
   12CHTO   C39 4922   6.626  -1.460   0.258  0.0508 -0.0854 -0.4356
   12CHTO   H81 4923   6.588  -1.491   0.160  0.5708  1.0953 -1.0157
   12CHTO    N7 4924   6.668  -1.576   0.345  0.0658  0.0056 -0.4034
   12CHTO   H73 4925   6.756  -1.623   0.303 -1.2475 -0.6078 -2.5525
   12CHTO   H74 4926   6.691  -1.533   0.441  3.2201 -0.1750 -0.9965
   12CHTO   C40 4927   6.514  -1.377   0.328 -0.2021 -0.0505 -0.1886
   12CHTO   H82 4928   6.553  -1.324   0.415 -2.1484  0.2179  0.5375
   12CHTO   O26 4929   6.473  -1.286   0.232  0.1849 -0.1548 -0.3523
   12CHTO   C41 4930   6.570  -1.186   0.192  0.1983 -0.4784  0.8315
   12CHTO   H83 4931   6.597  -1.123   0.278 -2.4262  2.1129 -0.1751
   12CHTO   C52 4932   6.487  -1.095   0.095 -0.6272  0.1235 -0.0840
   12CHTO   O35 4933   6.555  -0.958   0.087 -0.0361 -0.4438  0.0712
   12CHTO   H71 4934   6.500  -0.887   0.115  1.5616  1.3283 -1.1490
   12CHTO   O28 4935   6.403  -1.455   0.375  0.1428 -0.8410  0.2357
   12CHTO   C42 4936   6.325  -1.394   0.484 -0.0666 -0.2294 -0.4511
   12CHTO   H84 4937   6.359  -1.291   0.491 -2.3756  0.5959 -1.2170
   12CHTO   C44 4938   6.341  -1.463   0.622  0.1664 -0.1195  0.4355
   12CHTO   H86 4939   6.311  -1.568   0.618  0.8035 -0.3002  0.3273
   12CHTO   O32 4940   6.482  -1.456   0.641 -0.5567 -0.6141  0.2208
   12CHTO   H69 4941   6.513  -1.368   0.654  0.7398 -1.0517  0.0885
   12CHTO   C48 4942   6.263  -1.384   0.729 -0.0822  0.9642 -0.5858
   12CHTO   H90 4943   6.317  -1.294   0.758  0.9239  0.0229  0.4826
   12CHTO    N9 4944   6.257  -1.469   0.861  0.1483  0.5114  0.1173
   12CHTO   H77 4945   6.216  -1.568   0.845 -0.2459  0.7378 -0.2896
   12CHTO   H78 4946   6.206  -1.419   0.942  1.3769 -0.3096  1.4145
   12CHTO   C51 4947   6.120  -1.348   0.684  0.0918  0.6297 -0.1403
   12CHTO   H93 4948   6.067  -1.443   0.685  2.1067 -0.5270 -0.4805
   12CHTO   O30 4949   6.119  -1.291   0.555  0.1848 -0.0221  0.1379
   12CHTO   C46 4950   6.174  -1.381   0.454 -0.0844 -0.4846 -0.9073
   12CHTO   H88 4951   6.135  -1.482   0.466 -1.1439 -0.1028 -1.0771
   12CHTO   C53 4952   6.139  -1.336   0.311 -0.6822  0.3236 -0.4673
   12CHTO   O72 4953   5.999  -1.345   0.287 -0.0077 -0.3240 -0.0179
   12CHTO  H199 4954   5.981  -1.286   0.217  1.4149  2.6657  1.9971
   12CHTO   O22 4955   6.063  -1.246   0.769  0.6535  0.4390 -0.2690
   12CHTO   C31 4956   5.917  -1.249   0.775 -0.4738  0.8157  0.1533
   12CHTO   H59 4957   5.883  -1.314   0.692  0.1118  0.0652  0.4945
   12CHTO   C29 4958   5.856  -1.305   0.906 -0.2798  0.8452 -0.3639
   12CHTO   H57 4959   5.881  -1.246   0.995  0.8108 -1.1318  0.6810
   12CHTO   O21 4960   5.920  -1.433   0.931 -0.2809  0.0049 -0.1266
   12CHTO   H37 4961   5.907  -1.448   1.023  0.5256 -1.1051 -0.1864
   12CHTO   C27 4962   5.698  -1.316   0.891 -0.2223  0.1258 -0.6643
   12CHTO   H55 4963   5.672  -1.386   0.809  2.3959 -1.5615 -0.1081
   12CHTO    N5 4964   5.628  -1.362   1.015 -0.3478  0.1379  0.0664
   12CHTO   H43 4965   5.572  -1.452   0.996  2.5427 -1.4547 -1.2718
   12CHTO   H44 4966   5.701  -1.384   1.092  0.0140  1.3239  0.0721
   12CHTO   C25 4967   5.640  -1.171   0.848 -0.1377  0.2803  0.0034
   12CHTO   H53 4968   5.670  -1.109   0.934 -3.9069  0.6412  1.1447
   12CHTO   O17 4969   5.711  -1.124   0.726 -0.2717  0.4044 -0.0222
   12CHTO   C32 4970   5.853  -1.111   0.749 -0.1494 -0.4565  0.1938
   12CHTO   H60 4971   5.862  -1.047   0.836 -1.7988 -0.6862  0.5428
   12CHTO   C36 4972   5.915  -1.042   0.624  0.2491 -0.0306  0.2116
   12CHTO   O25 4973   5.875  -0.904   0.615 -0.7171  0.1191  0.8069
   12CHTO   H40 4974   5.912  -0.876   0.533  1.4616 -1.5640  1.1405
   12CHTO   O15 4975   5.493  -1.146   0.826  0.1353  0.7230  0.7948
   12CHTO   C19 4976   5.415  -1.033   0.822  0.5248 -0.6504 -0.2410
   12CHTO   H47 4977   5.484  -0.958   0.863  1.3932 -0.4097 -2.0498
   12CHTO   C20 4978   5.381  -0.979   0.675  0.2833  0.5235 -0.9687
   12CHTO   H48 4979   5.311  -1.046   0.623 -1.9112  0.6419  1.7403
   12CHTO   O19 4980   5.505  -0.967   0.597  0.2088 -0.2783  0.7502
   12CHTO   H35 4981   5.564  -0.897   0.617  0.3672  0.3269 -1.7194
   12CHTO   C21 4982   5.304  -0.840   0.679  0.4802  0.0935 -0.2551
   12CHTO   H49 4983   5.367  -0.764   0.726 -0.0887  0.3441  0.0989
   12CHTO    N4 4984   5.276  -0.787   0.545  0.5092 -0.3135 -0.2993
   12CHTO   H41 4985   5.235  -0.866   0.484 -0.3573 -1.9257  2.2653
   12CHTO   H42 4986   5.361  -0.741   0.497 -0.5581 -0.9402 -2.8897
   12CHTO   C22 4987   5.184  -0.868   0.770  0.0649 -0.3007 -0.5901
   12CHTO   H50 4988   5.124  -0.946   0.722 -0.4011 -0.6659  0.5815
   12CHTO   O14 4989   5.225  -0.912   0.900 -0.2654 -0.2156  0.3728
   12CHTO   C23 4990   5.288  -1.042   0.913  0.3887  0.2370  0.6112
   12CHTO   H51 4991   5.214  -1.113   0.872  1.3625  0.4180 -1.5043
   12CHTO   C34 4992   5.330  -1.068   1.057  0.0877 -0.3659 -0.1171
   12CHTO   O23 4993   5.349  -1.216   1.078  0.1559  0.2938  0.0597
   12CHTO   H38 4994   5.270  -1.251   1.114 -0.5987 -0.0481 -1.8844
   12CHTO   O16 4995   5.101  -0.748   0.788 -0.2026  0.0136 -0.2254
   12CHTO   C24 4996   4.950  -0.761   0.825 -0.5718 -0.0707  0.0684
   12CHTO   H52 4997   4.900  -0.665   0.818  0.4388  0.3646 -1.4229
   12CHTO   C26 4998   4.921  -0.809   0.967  0.0137  0.6309 -0.2241
   12CHTO   H54 4999   4.966  -0.910   0.979 -3.1281 -0.8830 -0.6943
   12CHTO   O20 5000   4.989  -0.712   1.051  0.5265 -0.5738 -0.8202
   12CHTO   H36 5001   5.079  -0.737   1.059  0.3386 -0.8185  0.8574
   12CHTO   C30 5002   4.769  -0.815   1.002  0.5426 -0.7606 -0.8135
   12CHTO   H58 5003   4.724  -0.717   0.981 -0.8080 -1.1894  0.0136
   12CHTO    N6 5004   4.737  -0.856   1.141  0.4307 -0.9791  0.1585
   12CHTO   H45 5005   4.753  -0.763   1.194 -2.7308 -0.0524 -0.3669
   12CHTO   H46 5006   4.633  -0.885   1.150 -0.0284  0.8703  1.1186
   12CHTO   C33 5007   4.716  -0.913   0.899 -0.0909 -0.4684 -0.1185
   12CHTO   H61 5008   4.770  -1.009   0.904  1.1467  0.1217 -1.8169
   12CHTO   O18 5009   4.740  -0.861   0.766 -0.9191  0.5768  0.5430
   12CHTO   C28 5010   4.878  -0.855   0.726  0.2641 -0.4937  0.9392
   12CHTO   H56 5011   4.921  -0.954   0.739 -1.2301 -1.2505  0.2394
   12CHTO   C35 5012   4.888  -0.803   0.579  0.0085  0.2923 -0.1460
   12CHTO   O24 5013   4.886  -0.667   0.559 -0.3803 -0.1104  0.1608
   12CHTO   H39 5014   4.964  -0.624   0.588 -0.4789  0.0298  0.2228
   12CHTO    O9 5015   4.577  -0.940   0.913 -0.0692  0.2349 -0.2817
   12CHTO   C13 5016   4.535  -1.055   0.838 -0.5761  0.1464 -0.1876
   12CHTO   H26 5017   4.606  -1.076   0.755 -1.2828  3.3853 -1.7051
   12CHTO   C11 5018   4.388  -1.035   0.786  0.0154 -0.2009  0.4189
   12CHTO   H24 5019   4.395  -0.953   0.713 -0.8858 -0.3861  0.1075
   12CHTO    O8 5020   4.298  -0.983   0.887  0.9078  0.0366  0.3982
   12CHTO    H3 5021   4.210  -1.015   0.893 -0.1152  2.4550 -0.8679
   12CHTO    C9 5022   4.344  -1.159   0.715  0.3077 -0.9331  0.1451
   12CHTO   H22 5023   4.421  -1.180   0.639 -0.1572 -1.0071 -0.3116
   12CHTO    N2 5024   4.213  -1.139   0.638  0.0909 -0.3416 -0.1940
   12CHTO   H10 5025   4.147  -1.109   0.718  1.4113  0.4456  0.6300
   12CHTO   H11 5026   4.181  -1.233   0.596  1.3354 -2.3880  3.1977
   12CHTO    C7 5027   4.341  -1.286   0.811 -0.6366 -0.0001  0.6678
   12CHTO   H20 5028   4.336  -1.371   0.739  0.9638 -0.7571  1.4186
   12CHTO    O4 5029   4.471  -1.302   0.870  0.3417  0.3177  0.4607
   12CHTO   C14 5030   4.532  -1.186   0.932 -0.3496  0.5339  0.2083
   12CHTO   H27 5031   4.632  -1.233   0.933 -1.3279 -1.7264 -2.0034
   12CHTO   C18 5032   4.484  -1.161   1.073 -0.2319 -0.5679  0.4925
   12CHTO   O13 5033   4.536  -1.257   1.165 -0.0705 -0.4279  0.4252
   12CHTO    H7 5034   4.497  -1.239   1.248  0.0494 -0.1287  0.4153
   12CHTO    O2 5035   4.220  -1.286   0.944 -0.3532 -0.2507  0.4292
   12CHTO    C1 5036   4.119  -1.383   0.917  0.4258  0.3354  0.1211
   12CHTO   H14 5037   4.129  -1.422   0.813  0.4651 -2.5547  1.1737
   12CHTO    C2 5038   3.972  -1.329   0.937  0.4015 -0.3849  0.0034
   12CHTO   H15 5039   3.977  -1.280   1.035  0.5861  0.2901 -0.3420
   12CHTO    O6 5040   3.945  -1.235   0.840  0.4188 -0.1755  0.4866
   12CHTO    H1 5041   3.937  -1.152   0.884  1.2733 -0.2227  0.7405
   12CHTO    C3 5042   3.857  -1.440   0.937 -0.3375 -0.1532  0.1071
   12CHTO   H16 5043   3.852  -1.461   0.829 -0.6801 -0.9808  0.2854
   12CHTO    N1 5044   3.718  -1.387   0.980  0.2159 -0.1743  0.1092
   12CHTO    H8 5045   3.640  -1.460   0.965 -1.6519  1.8013  0.0864
   12CHTO    H9 5046   3.715  -1.338   1.076 -1.0834  1.8828 -0.9421
   12CHTO    C4 5047   3.903  -1.566   1.006  0.0698 -0.0615 -0.5382
   12CHTO   H17 5048   3.902  -1.548   1.114 -0.3444  0.4879 -0.6301
   12CHTO    O1 5049   4.038  -1.601   0.967  0.4383 -0.1889 -0.0484
   12CHTO    C5 5050   4.138  -1.507   1.003  0.5911  0.1220  0.0663
   12CHTO   H18 5051   4.114  -1.488   1.107  0.2049 -0.5099  0.0948
   12CHTO   C16 5052   4.266  -1.591   0.985 -0.7435 -0.0257  0.2243
   12CHTO   O11 5053   4.262  -1.718   1.057  0.1598 -0.2519 -0.1879
   12CHTO    H5 5054   4.201  -1.781   1.024  0.9537 -0.2964 -1.5965
   12CHTO    O3 5055   3.830  -1.681   0.965  0.6493  0.2092  0.2883
   12CHTO    C6 5056   3.867  -1.808   1.026  0.2874  0.5824 -0.2344
   12CHTO   H19 5057   3.960  -1.815   1.084  0.2930 -2.5319 -0.5654
   12CHTO    C8 5058   3.757  -1.854   1.130 -0.1358  0.0883  0.0338
   12CHTO   H21 5059   3.656  -1.836   1.092 -0.1791 -1.5183 -0.6476
   12CHTO    O7 5060   3.789  -1.766   1.241 -0.1900  0.0086 -0.5582
   12CHTO    H2 5061   3.724  -1.785   1.306 -0.4662  0.2827 -0.7505
   12CHTO   C12 5062   3.771  -2.001   1.171 -0.1990 -0.2684  0.5171
   12CHTO   H25 5063   3.861  -2.002   1.237  0.4341  1.8544 -0.2849
   12CHTO    N3 5064   3.652  -2.045   1.248  0.4441 -0.0186  0.3822
   12CHTO   H12 5065   3.597  -2.113   1.185  0.9860  0.9829 -1.2289
   12CHTO   H13 5066   3.677  -2.108   1.332  1.8768  0.0477  0.0186
   12CHTO   C15 5067   3.805  -2.089   1.047 -0.2055 -0.5038 -0.3022
   12CHTO   H28 5068   3.719  -2.087   0.981 -1.0724 -2.1289  0.7461
   12CHTO   O10 5069   3.844  -2.247   1.088  0.5822  0.3166 -0.4814
   12CHTO    H4 5070   3.856  -2.296   1.008  0.3898  1.9116 -1.5003
   12CHTO    O5 5071   3.919  -2.037   0.977  0.0074 -0.3078 -0.0683
   12CHTO   C10 5072   3.879  -1.913   0.912 -0.5782 -0.2239  0.5247
   12CHTO   H23 5073   3.782  -1.923   0.862 -1.6379  1.8344  2.0982
   12CHTO   C17 5074   3.983  -1.880   0.812 -0.3402 -0.5915 -0.6349
   12CHTO   O12 5075   3.939  -1.908   0.675  0.4635 -0.5692  0.1631
   12CHTO    H6 5076   3.906  -1.832   0.630  1.1962 -0.6776 -0.5662
   13CHTO  H203 5077   7.410   4.596   2.444  2.2816 -2.2981  0.0565
   13CHTO   O82 5078   7.346   4.542   2.404  0.2702 -0.3231  0.5163
   13CHTO  C123 5079   7.235   4.633   2.376  0.1211 -0.0556 -0.8178
   13CHTO  H227 5080   7.275   4.718   2.319  1.3842 -0.6320 -0.8004
   13CHTO   O77 5081   7.140   4.554   2.294  0.0524  0.2822  0.2437
   13CHTO  C118 5082   7.041   4.648   2.247 -0.0420 -0.3621  0.2667
   13CHTO  H222 5083   7.081   4.729   2.183  0.0324 -0.4083  0.2554
   13CHTO  C125 5084   6.942   4.563   2.149 -0.1447  0.1975  0.1104
   13CHTO   O84 5085   7.012   4.476   2.068 -0.3956 -0.4237  0.8061
   13CHTO  H205 5086   7.063   4.415   2.118  0.5214  0.6908  1.2425
   13CHTO  C114 5087   6.954   4.703   2.356  0.7714  0.0381 -1.1174
   13CHTO  H218 5088   6.911   4.618   2.409  0.5033  0.9058  0.1022
   13CHTO  C116 5089   7.039   4.773   2.464 -0.3219  0.2873 -0.0692
   13CHTO  H220 5090   7.073   4.870   2.421  1.3050  0.7722  2.1986
   13CHTO   O79 5091   6.957   4.814   2.575  0.0898  0.5449  0.0051
   13CHTO  H201 5092   6.886   4.753   2.579  0.3388  0.2262 -0.3955
   13CHTO  C120 5093   7.166   4.688   2.509  0.7629 -0.7288  1.1272
   13CHTO  H224 5094   7.120   4.598   2.554  1.8170 -1.2968  1.0918
   13CHTO   N21 5095   7.264   4.757   2.603  0.4801  0.1706  0.1726
   13CHTO  H211 5096   7.369   4.730   2.608  0.8220  1.5421  0.6714
   13CHTO  H212 5097   7.223   4.789   2.698  1.7453 -0.7017  1.0411
   13CHTO   O75 5098   6.851   4.781   2.296  0.0350  0.0038  0.4137
   13CHTO  C112 5099   6.715   4.768   2.374 -0.3134 -0.4765 -0.1372
   13CHTO  H216 5100   6.729   4.751   2.482  0.0429 -0.3493 -0.1616
   13CHTO   O73 5101   6.641   4.655   2.316  0.2123 -0.1713  0.2947
   13CHTO  C113 5102   6.517   4.629   2.377  0.1310  0.6921  0.9498
   13CHTO  H217 5103   6.527   4.627   2.488  0.1803  1.2835  0.9583
   13CHTO  C124 5104   6.457   4.493   2.313 -0.2342 -0.1263  0.2300
   13CHTO   O83 5105   6.359   4.430   2.400 -0.2941 -0.0778 -0.2716
   13CHTO  H204 5106   6.398   4.390   2.475 -2.7154  1.3525  1.8252
   13CHTO  C109 5107   6.423   4.750   2.360 -0.3893  0.1833 -0.7410
   13CHTO  H213 5108   6.401   4.757   2.252 -0.8159 -2.4794 -0.8657
   13CHTO  C110 5109   6.492   4.893   2.403  0.5706 -0.0297 -0.4501
   13CHTO  H214 5110   6.507   4.893   2.511  2.5505 -1.0739 -0.6862
   13CHTO   O78 5111   6.411   4.997   2.346  0.0961  0.0534  0.3125
   13CHTO  H200 5112   6.379   4.977   2.260  0.3746  0.2526  0.1600
   13CHTO  C111 5113   6.636   4.904   2.357  0.3077 -0.0278  0.0183
   13CHTO  H215 5114   6.639   4.925   2.249  0.7731  1.3043  0.2792
   13CHTO   N19 5115   6.711   5.014   2.423 -0.2717  0.3376  0.0344
   13CHTO  H207 5116   6.801   5.042   2.370  1.3103 -0.9190  2.0183
   13CHTO  H208 5117   6.744   4.981   2.520 -1.2103  2.4491  1.1114
   13CHTO   O74 5118   6.294   4.722   2.432 -0.2142 -0.2327 -0.0918
   13CHTO  C115 5119   6.167   4.836   2.425  0.1697 -0.3980  0.4025
   13CHTO  H219 5120   6.201   4.939   2.416 -1.3027  0.0180 -0.6794
   13CHTO   O76 5121   6.077   4.814   2.312  0.2162 -0.3248 -0.2443
   13CHTO  C122 5122   5.940   4.856   2.310 -0.7538  0.0752  0.3531
   13CHTO  H226 5123   5.889   4.792   2.237 -0.0882  1.3543 -1.2615
   13CHTO  C126 5124   5.932   5.002   2.250 -0.2134 -0.5411 -0.5142
   13CHTO   O85 5125   5.957   4.997   2.111  0.1263 -0.5218  0.0700
   13CHTO  H206 5126   5.878   4.958   2.078 -0.5946  1.3417 -0.4551
   13CHTO  C121 5127   5.863   4.847   2.451  0.4496 -0.0552 -0.2257
   13CHTO  H225 5128   5.771   4.910   2.456  0.2801 -0.1374 -2.1078
   13CHTO   O81 5129   5.812   4.712   2.462 -0.3612 -0.0738 -0.0036
   13CHTO  H202 5130   5.744   4.694   2.399  0.1951 -1.2669 -0.2885
   13CHTO  C119 5131   5.952   4.897   2.567 -0.3250  0.6660  1.0935
   13CHTO  H223 5132   5.959   5.004   2.550 -1.1490  0.6940  0.9407
   13CHTO  C117 5133   6.100   4.823   2.573 -0.2955  0.5473  0.6219
   13CHTO  H221 5134   6.099   4.719   2.603  3.1923  0.2123 -0.2597
   13CHTO   N20 5135   6.181   4.900   2.678 -0.2327 -0.2159 -0.3164
   13CHTO  H209 5136   6.147   4.870   2.776  0.3408  0.7499  0.1977
   13CHTO  H210 5137   6.287   4.880   2.683 -0.0746  0.9785  1.8291
   13CHTO   O80 5138   5.877   4.894   2.706  0.5140  0.7415 -0.1420
   13CHTO  C103 5139   5.780   5.021   2.758 -0.8193 -0.1772  0.6350
   13CHTO  H190 5140   5.809   5.057   2.856  0.5404 -0.3769  0.3173
   13CHTO  C101 5141   5.784   5.142   2.674  0.8940 -0.8116  0.0857
   13CHTO  H188 5142   5.762   5.116   2.570 -0.8986 -1.3123  0.5806
   13CHTO   O68 5143   5.928   5.230   2.669  0.0616  0.3606  0.5953
   13CHTO  H168 5144   5.997   5.199   2.725  0.1172 -0.7340 -0.0787
   13CHTO   C99 5145   5.672   5.245   2.729 -0.2854  0.0800  0.6530
   13CHTO  H186 5146   5.693   5.272   2.834  0.7407  1.8833 -0.0019
   13CHTO   N17 5147   5.672   5.372   2.649  0.6248 -0.0592 -0.2364
   13CHTO  H174 5148   5.606   5.439   2.702 -0.8462 -3.0386  1.8574
   13CHTO  H175 5149   5.646   5.350   2.546  2.6740  0.5393 -0.9095
   13CHTO   C97 5150   5.541   5.170   2.733  0.0903  0.1785  0.1177
   13CHTO  H184 5151   5.522   5.136   2.630  0.5407  1.1116 -0.2809
   13CHTO   O64 5152   5.549   5.060   2.827  0.9316  1.0880  0.4259
   13CHTO  C104 5153   5.631   4.956   2.774 -0.4738 -0.3377  0.6778
   13CHTO  H191 5154   5.598   4.909   2.681 -0.0576  0.7412 -0.0188
   13CHTO  C108 5155   5.633   4.845   2.873  0.1059 -0.2498 -0.1673
   13CHTO   O71 5156   5.507   4.777   2.891 -0.4432  0.1304 -0.2106
   13CHTO  H171 5157   5.526   4.705   2.948  0.2871  1.7057  1.6153
   13CHTO   O62 5158   5.439   5.252   2.792  0.3572 -0.0655  0.2204
   13CHTO   C91 5159   5.299   5.228   2.753 -0.3182  0.0412 -0.3191
   13CHTO  H178 5160   5.284   5.129   2.711 -1.1659 -0.1270  0.3670
   13CHTO   C92 5161   5.243   5.328   2.642 -0.9431  0.2556  0.1221
   13CHTO  H179 5162   5.252   5.434   2.672 -0.4493 -0.3823  2.3377
   13CHTO   O66 5163   5.324   5.310   2.528  0.1830  0.2017 -0.9057
   13CHTO  H166 5164   5.294   5.239   2.474  1.9484 -0.3143 -1.2652
   13CHTO   C93 5165   5.088   5.304   2.614 -0.3667  0.3946  0.2255
   13CHTO  H180 5166   5.070   5.210   2.559 -0.1750  0.2469  0.4151
   13CHTO   N16 5167   5.029   5.405   2.518 -0.0244 -0.5997 -0.0295
   13CHTO  H172 5168   5.082   5.407   2.424 -0.2682  0.9970 -0.1581
   13CHTO  H173 5169   5.033   5.506   2.557 -0.1198 -0.8726  0.6940
   13CHTO   C94 5170   5.008   5.293   2.750 -0.3810  0.3389  0.2085
   13CHTO  H181 5171   4.993   5.391   2.793 -1.0617  0.9104 -1.2885
   13CHTO   O61 5172   5.072   5.208   2.847  0.2225  0.3424  0.0509
   13CHTO   C95 5173   5.204   5.237   2.883  0.2916 -0.3708  0.1940
   13CHTO  H182 5174   5.213   5.337   2.924  2.2431 -0.4291 -0.0879
   13CHTO  C106 5175   5.251   5.146   3.003 -0.2343 -0.2259  0.3011
   13CHTO   O69 5176   5.243   5.002   2.974 -0.2890  0.4896  0.0439
   13CHTO  H169 5177   5.304   4.985   2.905  0.8203 -0.7467  1.2658
   13CHTO   O63 5178   4.871   5.220   2.720  0.0951 -0.4156  0.2044
   13CHTO   C96 5179   4.750   5.273   2.775  0.4117 -0.3645 -0.1052
   13CHTO  H183 5180   4.763   5.380   2.791 -1.7920  0.3592 -2.7555
   13CHTO   C98 5181   4.706   5.206   2.903 -0.1362  0.1131  0.1371
   13CHTO  H185 5182   4.724   5.098   2.897 -1.5104 -0.2126  1.7546
   13CHTO   O67 5183   4.796   5.253   3.007  0.0425 -0.2865 -0.1041
   13CHTO  H167 5184   4.752   5.266   3.090  0.2769 -0.2678  0.0165
   13CHTO  C102 5185   4.561   5.238   2.957 -0.3223  0.0623 -0.8444
   13CHTO  H189 5186   4.568   5.340   2.999 -0.9386 -0.4961  0.6330
   13CHTO   N18 5187   4.515   5.149   3.072  0.7557  0.2732  0.0976
   13CHTO  H176 5188   4.594   5.134   3.144  2.0765 -1.5150 -1.6537
   13CHTO  H177 5189   4.416   5.179   3.103  1.0106  0.8566  0.3577
   13CHTO  C105 5190   4.465   5.238   2.839 -0.0453  0.3578 -0.3961
   13CHTO  H192 5191   4.471   5.136   2.801 -0.2242 -0.7019  2.3122
   13CHTO   O65 5192   4.514   5.320   2.728 -0.2708  0.3025  0.4661
   13CHTO  C100 5193   4.636   5.267   2.671  0.3614  0.3185 -0.6013
   13CHTO  H187 5194   4.621   5.168   2.626 -0.3074 -0.6954  1.7389
   13CHTO  C107 5195   4.677   5.363   2.554  0.1353 -0.0385  0.2018
   13CHTO   O70 5196   4.582   5.356   2.443 -0.1287 -0.0030 -0.4684
   13CHTO  H170 5197   4.598   5.277   2.395 -0.7569  1.0074 -2.3666
   13CHTO   O57 5198   4.309   5.289   2.899  0.0451  0.5331 -0.6014
   13CHTO   C85 5199   4.223   5.376   2.826  0.3054 -0.0595  0.1134
   13CHTO  H157 5200   4.281   5.461   2.785  0.5269 -1.1559 -1.8629
   13CHTO   C83 5201   4.130   5.448   2.921 -0.1918  0.6920 -0.3761
   13CHTO  H155 5202   4.194   5.505   2.989 -0.5265 -0.8873  1.2972
   13CHTO   O56 5203   4.067   5.343   3.001  0.0541  0.7710  0.3096
   13CHTO  H135 5204   3.986   5.375   3.036 -1.2452 -0.1130 -1.7710
   13CHTO   C81 5205   4.038   5.541   2.838 -0.2039  0.0212  0.7941
   13CHTO  H153 5206   4.104   5.606   2.780  0.9245 -1.4393  0.3872
   13CHTO   N14 5207   3.948   5.623   2.926  0.0949 -0.5294 -0.3321
   13CHTO  H141 5208   3.859   5.648   2.872  1.5731 -0.9368 -3.0340
   13CHTO  H142 5209   3.990   5.715   2.962  0.0526 -0.4105 -0.5845
   13CHTO   C79 5210   3.948   5.463   2.730  0.1766  0.5328  0.3393
   13CHTO  H151 5211   3.876   5.531   2.686 -0.6828 -0.4777  0.1542
   13CHTO   O52 5212   4.037   5.390   2.639  0.5470  0.1133  0.3005
   13CHTO   C86 5213   4.128   5.305   2.714  0.6745 -0.7004 -0.6699
   13CHTO  H158 5214   4.057   5.236   2.762  0.2253 -0.8864 -1.5793
   13CHTO   C90 5215   4.220   5.218   2.617  0.0105  0.1505  0.2993
   13CHTO   O60 5216   4.303   5.298   2.542 -0.5313 -0.0796 -0.1568
   13CHTO  H138 5217   4.253   5.323   2.467 -1.1422 -1.2739 -0.1577
   13CHTO   O50 5218   3.854   5.372   2.786 -0.0218 -0.4361 -0.5051
   13CHTO   C73 5219   3.730   5.317   2.739  0.4614 -0.7935  0.2502
   13CHTO  H145 5220   3.732   5.282   2.634 -1.1578 -0.2996  0.0552
   13CHTO   C74 5221   3.623   5.427   2.757  0.1028  0.5450 -0.2970
   13CHTO  H146 5222   3.664   5.511   2.700  0.2869  1.1812  0.7664
   13CHTO   O54 5223   3.506   5.388   2.687  0.2456  0.2633  0.1622
   13CHTO  H133 5224   3.430   5.436   2.711  0.2645  0.5897 -0.4192
   13CHTO   C75 5225   3.588   5.460   2.912  1.0449 -0.3810 -0.0685
   13CHTO  H147 5226   3.677   5.507   2.956 -0.2160  1.4051  0.6093
   13CHTO   N13 5227   3.481   5.564   2.938  0.1015  0.3764  0.0826
   13CHTO  H139 5228   3.468   5.574   3.045  0.3171 -0.0560  0.1528
   13CHTO  H140 5229   3.388   5.542   2.887 -0.8302  0.4158  1.7325
   13CHTO   C76 5230   3.554   5.327   2.983  0.2196  0.1883 -0.4957
   13CHTO  H148 5231   3.461   5.289   2.941  0.2988 -0.6565  0.0770
   13CHTO   O49 5232   3.668   5.234   2.957 -0.1658  0.6260 -0.4500
   13CHTO   C77 5233   3.693   5.196   2.820 -0.3233  0.6395  0.2867
   13CHTO  H149 5234   3.603   5.151   2.777  1.7080 -1.5267 -1.7900
   13CHTO   C88 5235   3.808   5.088   2.830  0.6189 -0.1315  0.1278
   13CHTO   O58 5236   3.844   5.014   2.704  0.2752 -0.3092  0.5272
   13CHTO  H136 5237   3.804   5.052   2.629  1.1847  1.2216  0.7832
   13CHTO   O51 5238   3.537   5.344   3.155  0.3206 -1.0625 -0.0327
   13CHTO   C78 5239   3.654   5.373   3.257  0.1993  0.2830 -0.0868
   13CHTO  H150 5240   3.617   5.371   3.362  1.0323  3.1134  0.2972
   13CHTO   C80 5241   3.708   5.518   3.231  0.0556  1.0039 -0.2483
   13CHTO  H152 5242   3.745   5.512   3.126 -2.1362 -2.5660 -0.8830
   13CHTO   O55 5243   3.596   5.605   3.256 -0.1194  0.1282  0.1241
   13CHTO  H134 5244   3.594   5.634   3.345  1.3359 -0.1740  0.2737
   13CHTO   C84 5245   3.830   5.559   3.322 -0.5323  0.8109 -0.5510
   13CHTO  H156 5246   3.798   5.549   3.426 -1.0712  0.0369 -0.7886
   13CHTO   N15 5247   3.874   5.698   3.297 -0.2621 -0.1470  0.2246
   13CHTO  H143 5248   3.805   5.776   3.319 -1.5023 -0.0413 -3.7125
   13CHTO  H144 5249   3.969   5.718   3.343 -0.3944  0.2577  0.3229
   13CHTO   C87 5250   3.936   5.448   3.312  0.0211  0.7366 -0.1924
   13CHTO  H159 5251   3.967   5.445   3.207  1.7626 -3.1091  0.3582
   13CHTO   O53 5252   3.882   5.307   3.341 -0.6067  0.0281  0.2416
   13CHTO   C82 5253   3.773   5.274   3.247 -0.2008 -0.1239  0.1356
   13CHTO  H154 5254   3.816   5.274   3.147  2.8804  0.3344  1.3920
   13CHTO   C89 5255   3.736   5.126   3.274 -0.1695  0.2209  0.0655
   13CHTO   O59 5256   3.671   5.110   3.396 -0.0430 -0.2609 -0.3818
   13CHTO  H137 5257   3.745   5.103   3.453  2.4022 -1.6327 -3.5709
   13CHTO   O45 5258   4.035   5.467   3.412  0.1331 -0.7090  0.1369
   13CHTO   C67 5259   4.166   5.444   3.357  0.7018  0.2828 -0.2118
   13CHTO  H124 5260   4.161   5.441   3.248 -0.0255  1.4938 -0.2146
   13CHTO   C65 5261   4.260   5.567   3.387 -0.3970 -0.2180  0.0298
   13CHTO  H122 5262   4.195   5.651   3.362  0.2580 -0.2410 -1.8194
   13CHTO   O44 5263   4.378   5.567   3.306  0.3366 -0.2018  0.0566
   13CHTO  H102 5264   4.356   5.606   3.223 -0.9074  1.4561  1.1283
   13CHTO   C63 5265   4.280   5.556   3.546  0.4778  0.6301 -0.2367
   13CHTO  H120 5266   4.187   5.536   3.599  0.6952 -0.1628 -0.1389
   13CHTO   N11 5267   4.321   5.678   3.615 -0.9290  0.5871  0.0930
   13CHTO  H108 5268   4.248   5.755   3.612  0.1599  1.6286  0.0140
   13CHTO  H109 5269   4.339   5.654   3.718  0.6765  0.2128 -0.2597
   13CHTO   C61 5270   4.380   5.435   3.583 -0.7000 -0.3983 -0.1688
   13CHTO  H118 5271   4.379   5.403   3.688  3.0459 -0.5717 -0.1152
   13CHTO   O40 5272   4.351   5.310   3.503 -0.2058  0.4520 -1.1388
   13CHTO   C68 5273   4.227   5.307   3.422  0.6918 -0.6220 -0.3611
   13CHTO  H125 5274   4.151   5.270   3.493  0.4000 -0.1585 -0.4283
   13CHTO   C72 5275   4.241   5.207   3.316  0.2714  0.4292 -0.4519
   13CHTO   O48 5276   4.116   5.183   3.242 -0.6175 -0.0945 -0.8378
   13CHTO  H105 5277   4.110   5.245   3.172  3.7411  1.8873  0.3894
   13CHTO   O38 5278   4.526   5.457   3.554  0.1135  0.1208 -0.3013
   13CHTO   C55 5279   4.622   5.422   3.660  0.5278 -0.3107  0.2559
   13CHTO  H112 5280   4.583   5.325   3.696  0.8465 -0.0955  1.1872
   13CHTO   C56 5281   4.631   5.527   3.779 -0.1241  0.0426 -0.9721
   13CHTO  H113 5282   4.636   5.628   3.736  1.5968  1.2231  1.9257
   13CHTO   O42 5283   4.511   5.519   3.859  0.1240 -0.5064  0.5477
   13CHTO  H100 5284   4.437   5.561   3.818 -0.7012 -2.1654  0.3092
   13CHTO   C57 5285   4.760   5.492   3.870 -0.2292 -0.2700 -0.6108
   13CHTO  H114 5286   4.737   5.395   3.915 -0.7204 -1.3621 -3.1053
   13CHTO   N10 5287   4.783   5.590   3.980  0.9627  0.2451 -0.0607
   13CHTO  H106 5288   4.732   5.547   4.065 -1.5617  0.2274 -1.5346
   13CHTO  H107 5289   4.756   5.693   3.967  0.9870  0.2334 -0.2015
   13CHTO   C58 5290   4.883   5.476   3.785 -0.0457  0.9288 -0.2487
   13CHTO  H115 5291   4.914   5.573   3.741  0.4734  1.5623  1.4499
   13CHTO   O37 5292   4.863   5.368   3.692 -0.2289 -0.4409 -0.1410
   13CHTO   C59 5293   4.761   5.397   3.595  0.1193 -0.1821  0.0895
   13CHTO  H116 5294   4.789   5.484   3.536 -2.1256  0.4845 -0.0292
   13CHTO   C70 5295   4.777   5.272   3.509  0.4133 -0.2786 -0.0705
   13CHTO   O46 5296   4.692   5.282   3.395 -0.0608 -0.0461  0.5173
   13CHTO  H103 5297   4.723   5.217   3.336  0.5903 -2.3171  3.2765
   13CHTO   O39 5298   5.006   5.424   3.864 -0.4329  1.1615 -0.1347
   13CHTO   C60 5299   5.126   5.473   3.809  0.1615 -0.7324 -0.3732
   13CHTO  H117 5300   5.107   5.487   3.703  0.4038 -0.4606 -0.3813
   13CHTO   C62 5301   5.168   5.600   3.882 -0.0340 -0.4047  0.0000
   13CHTO  H119 5302   5.091   5.674   3.854 -0.8631 -1.3394 -0.2024
   13CHTO   O43 5303   5.166   5.575   4.024  0.1767  0.4629 -0.3426
   13CHTO  H101 5304   5.184   5.655   4.070  0.0279  0.9042 -1.0361
   13CHTO   C66 5305   5.311   5.650   3.814  0.3397  0.0959  0.1419
   13CHTO  H123 5306   5.298   5.659   3.706 -3.4697 -1.0759  0.4401
   13CHTO   N12 5307   5.354   5.778   3.873 -0.7729 -0.0074  0.6134
   13CHTO  H110 5308   5.267   5.842   3.877  0.0970  1.1268  1.5859
   13CHTO  H111 5309   5.426   5.827   3.811 -1.8384  0.7182 -0.0653
   13CHTO   C69 5310   5.413   5.533   3.833  0.1103  0.0263 -0.0746
   13CHTO  H126 5311   5.412   5.530   3.944  1.5008  0.6081 -0.0368
   13CHTO   O41 5312   5.362   5.401   3.765 -0.0150 -0.0268  0.1280
   13CHTO   C64 5313   5.233   5.354   3.821  0.0433  0.0739  0.0310
   13CHTO  H121 5314   5.236   5.333   3.930  0.9208  3.1164  0.6416
   13CHTO   C71 5315   5.192   5.231   3.732 -0.2008 -0.0342 -0.0922
   13CHTO   O47 5316   5.079   5.151   3.765 -0.4474 -0.4146  0.1766
   13CHTO  H104 5317   5.086   5.074   3.710  0.8042  0.4860 -0.9807
   13CHTO   O34 5318   5.571   5.566   3.801  1.1125  0.2546  0.3992
   13CHTO   C49 5319   5.728   5.610   3.756 -1.1246 -0.0512 -0.1069
   13CHTO   H91 5320   5.779   5.544   3.686 -0.9136 -0.0170  0.0125
   13CHTO   C47 5321   5.820   5.619   3.881  0.2230 -0.2478  1.0541
   13CHTO   H89 5322   5.924   5.635   3.844  1.0360 -0.6630  3.0753
   13CHTO   O33 5323   5.825   5.487   3.934 -0.0272  0.1774 -0.4086
   13CHTO   H70 5324   5.912   5.464   3.961 -0.0936 -1.4291 -1.4751
   13CHTO   C45 5325   5.766   5.733   3.984 -0.2058 -0.7358 -0.5632
   13CHTO   H87 5326   5.665   5.697   4.011 -0.5394  0.1095 -0.6697
   13CHTO    N8 5327   5.847   5.736   4.109  0.2759 -0.3158 -0.4475
   13CHTO   H75 5328   5.905   5.645   4.111 -0.2497 -0.6615 -0.5977
   13CHTO   H76 5329   5.769   5.742   4.184 -0.3825 -0.3119 -1.1269
   13CHTO   C43 5330   5.731   5.865   3.911  0.3159 -0.0863  0.1616
   13CHTO   H85 5331   5.672   5.910   3.990 -0.7796  1.9083 -1.7440
   13CHTO   O29 5332   5.655   5.839   3.787 -0.3654 -0.1573  0.4218
   13CHTO   C50 5333   5.703   5.741   3.690  0.1529  0.7183 -0.2490
   13CHTO   H92 5334   5.625   5.727   3.613 -0.4761  0.0262  0.5001
   13CHTO   C54 5335   5.823   5.792   3.612  0.1942 -0.0731  0.3161
   13CHTO   O36 5336   5.880   5.700   3.520  0.5413 -0.1585 -0.4438
   13CHTO   H72 5337   5.819   5.690   3.449 -2.6325  1.1694  1.9632
   13CHTO   O27 5338   5.849   5.941   3.893  0.3169 -0.5674 -0.3593
   13CHTO   C37 5339   5.851   6.078   3.862  0.0414  0.5181 -0.1808
   13CHTO   H79 5340   5.782   6.083   3.776 -0.0544  1.5348 -0.0484
   13CHTO   C38 5341   5.806   6.180   3.970 -0.0835 -0.1106 -0.3003
   13CHTO   H80 5342   5.862   6.163   4.063  0.1369  0.8186 -0.2587
   13CHTO   O31 5343   5.666   6.146   3.993  0.0486  0.1605 -0.5036
   13CHTO   H68 5344   5.600   6.169   3.931  1.2692 -0.5347 -2.1040
   13CHTO   C39 5345   5.818   6.324   3.919 -0.2257  0.1216  0.8212
   13CHTO   H81 5346   5.735   6.336   3.849  3.8953  0.2769 -4.2951
   13CHTO    N7 5347   5.786   6.421   4.026  0.5312  0.4217 -0.1944
   13CHTO   H73 5348   5.722   6.503   3.997  0.3966 -0.4053 -2.2652
   13CHTO   H74 5349   5.741   6.376   4.114  4.2329  2.3130  2.8113
   13CHTO   C40 5350   5.957   6.350   3.836 -0.4024  0.4840 -0.4240
   13CHTO   H82 5351   6.043   6.379   3.897 -0.3867 -0.4748  0.0295
   13CHTO   O26 5352   5.984   6.239   3.749  0.5831  0.1830 -0.1723
   13CHTO   C41 5353   5.997   6.121   3.823 -0.2439  0.9992  0.5723
   13CHTO   H83 5354   6.055   6.141   3.914  0.1415  1.7176  0.1755
   13CHTO   C52 5355   6.071   6.026   3.735 -0.3335 -0.1686  0.0973
   13CHTO   O35 5356   6.220   6.064   3.730  0.2901  0.4681  0.9158
   13CHTO   H71 5357   6.235   6.150   3.696  1.5603  0.1048  0.5494
   13CHTO   O28 5358   5.928   6.452   3.736  0.7714 -0.1936  0.1396
   13CHTO   C42 5359   6.019   6.552   3.693  0.0491  0.0015  0.4899
   13CHTO   H84 5360   6.111   6.502   3.663 -0.5071  0.6537 -2.4164
   13CHTO   C44 5361   6.065   6.656   3.803  0.5531 -0.6932 -0.1636
   13CHTO   H86 5362   5.980   6.683   3.866 -0.0849  0.6265 -1.5798
   13CHTO   O32 5363   6.151   6.582   3.895  0.2629  0.4265  0.1439
   13CHTO   H69 5364   6.215   6.530   3.851 -1.1464  0.2970 -1.8386
   13CHTO   C48 5365   6.129   6.793   3.752  0.1600 -0.0088  0.1352
   13CHTO   H90 5366   6.233   6.769   3.733  0.0856 -1.4231  1.4380
   13CHTO    N9 5367   6.132   6.895   3.864  0.1347  0.3925  0.5351
   13CHTO   H77 5368   6.094   6.991   3.832  0.9196  0.6479  0.3699
   13CHTO   H78 5369   6.220   6.909   3.926  0.0280  0.2446  0.7196
   13CHTO   C51 5370   6.052   6.843   3.618 -0.0893 -0.1107  0.1049
   13CHTO   H93 5371   5.950   6.853   3.658  0.1290 -1.7793  1.1705
   13CHTO   O30 5372   6.052   6.738   3.520 -0.7965 -0.0213  0.9320
   13CHTO   C46 5373   5.964   6.620   3.558  0.0223  0.3538 -0.9196
   13CHTO   H88 5374   5.863   6.647   3.588  0.2755 -0.8288  1.1389
   13CHTO   C53 5375   5.966   6.515   3.449  0.2767  0.0950  0.3248
   13CHTO   O72 5376   6.102   6.491   3.410  0.3737 -0.5401 -0.0185
   13CHTO  H199 5377   6.130   6.557   3.349 -1.9844  0.3214 -0.2368
   13CHTO   O22 5378   6.106   6.963   3.561 -0.2354  0.4145  0.2770
   13CHTO   C31 5379   6.021   7.069   3.493 -0.0386 -0.3948  0.1325
   13CHTO   H59 5380   6.088   7.149   3.455 -0.9185  1.0415  1.5650
   13CHTO   C29 5381   5.950   7.002   3.377 -0.1869  0.2144 -0.1803
   13CHTO   H57 5382   5.880   6.932   3.425 -0.4282  0.5171 -0.0912
   13CHTO   O21 5383   6.054   6.932   3.305 -0.0472 -0.4298  0.1515
   13CHTO   H37 5384   6.094   6.989   3.242  0.5603 -0.9833  0.0364
   13CHTO   C27 5385   5.861   7.093   3.292  0.1049 -0.1057 -0.1139
   13CHTO   H55 5386   5.925   7.169   3.244  1.0578 -0.1965  0.9891
   13CHTO    N5 5387   5.778   7.022   3.188 -1.0885  0.4530 -0.2323
   13CHTO   H43 5388   5.844   6.966   3.123 -0.3409  1.4089 -0.3151
   13CHTO   H44 5389   5.731   7.097   3.126 -1.1677  0.8577  0.3094
   13CHTO   C25 5390   5.769   7.178   3.396  0.8483  0.3015 -0.1158
   13CHTO   H53 5391   5.700   7.113   3.452  0.5494  1.8684  1.3705
   13CHTO   O17 5392   5.853   7.247   3.487  0.1748  0.4930  0.3594
   13CHTO   C32 5393   5.921   7.144   3.574  0.6568  0.5775  0.2335
   13CHTO   H60 5394   5.846   7.075   3.611 -0.3706  1.8720  0.5866
   13CHTO   C36 5395   5.996   7.212   3.693  0.4847 -0.2329  1.2927
   13CHTO   O25 5396   5.893   7.282   3.762 -0.0942  0.5619 -0.2673
   13CHTO   H40 5397   5.854   7.351   3.711 -1.1567 -0.1039 -0.3531
   13CHTO   O15 5398   5.664   7.285   3.321 -0.5128 -0.5089  0.4729
   13CHTO   C19 5399   5.530   7.338   3.352  0.3428  0.0660 -0.0200
   13CHTO   H47 5400   5.513   7.307   3.456  1.5458 -3.7003 -0.8747
   13CHTO   C20 5401   5.524   7.496   3.348  0.4595 -0.2137  0.9253
   13CHTO   H48 5402   5.547   7.539   3.249 -1.5311 -0.1347  0.4747
   13CHTO   O19 5403   5.635   7.534   3.427 -0.8824 -0.3279 -0.1876
   13CHTO   H35 5404   5.615   7.607   3.481  0.5742  1.3113 -1.7927
   13CHTO   C21 5405   5.387   7.544   3.393 -0.1055  0.4028  0.2542
   13CHTO   H49 5406   5.379   7.526   3.500  1.4890 -1.1841  0.1228
   13CHTO    N4 5407   5.376   7.689   3.397 -0.7788 -0.3083  0.1014
   13CHTO   H41 5408   5.342   7.726   3.301 -1.2068 -0.8976  0.0284
   13CHTO   H42 5409   5.308   7.715   3.477  0.3349 -1.9418  1.6300
   13CHTO   C22 5410   5.264   7.482   3.324 -0.8988  0.3553 -0.5412
   13CHTO   H50 5411   5.244   7.530   3.228 -2.0893  1.2330  0.1373
   13CHTO   O14 5412   5.279   7.337   3.324 -0.5657 -0.0798  0.2752
   13CHTO   C23 5413   5.408   7.291   3.272  0.2815 -0.2742 -0.6949
   13CHTO   H51 5414   5.411   7.324   3.167  0.0387  2.3752  0.0904
   13CHTO   C34 5415   5.404   7.136   3.275 -0.1745 -0.0248 -0.8620
   13CHTO   O23 5416   5.300   7.072   3.198 -0.3461  0.0297 -0.2222
   13CHTO   H38 5417   5.304   6.979   3.215 -1.5087 -1.1391 -5.4012
   13CHTO   O16 5418   5.138   7.500   3.388  0.3711  0.7485  0.5438
   13CHTO   C24 5419   5.006   7.457   3.285 -0.5296 -0.5891  0.5145
   13CHTO   H52 5420   5.040   7.408   3.194  0.6025  1.6376 -0.2701
   13CHTO   C26 5421   4.937   7.593   3.256  0.9345  0.6497 -0.0181
   13CHTO   H54 5422   4.911   7.638   3.354 -1.0518 -0.8435  0.1751
   13CHTO   O20 5423   5.029   7.681   3.186 -0.2026 -0.1005  0.8623
   13CHTO   H36 5424   5.048   7.631   3.109  0.2253 -1.3677  1.7599
   13CHTO   C30 5425   4.805   7.573   3.178  0.1280 -0.2105  0.6777
   13CHTO   H58 5426   4.818   7.547   3.072 -1.3982  1.3167  0.0974
   13CHTO    N6 5427   4.732   7.699   3.169 -0.0338 -0.5225 -0.0742
   13CHTO   H45 5428   4.778   7.754   3.088 -0.4946 -3.0253 -2.0936
   13CHTO   H46 5429   4.632   7.671   3.138 -0.3092  1.2656 -0.9055
   13CHTO   C33 5430   4.720   7.465   3.253  0.3472  0.2893  0.5416
   13CHTO   H61 5431   4.682   7.511   3.345 -0.0233  1.1300 -0.0187
   13CHTO   O18 5432   4.793   7.350   3.285  0.2688 -0.2434 -0.0761
   13CHTO   C28 5433   4.912   7.361   3.357  0.0692  0.0669 -0.4678
   13CHTO   H56 5434   4.903   7.396   3.460  0.4943 -0.1142 -0.3699
   13CHTO   C35 5435   4.989   7.220   3.363  0.6002 -0.9084 -0.4607
   13CHTO   O24 5436   4.904   7.114   3.412 -0.1781  0.1855 -0.1050
   13CHTO   H39 5437   4.882   7.127   3.502  0.9007  1.8728 -0.0763
   13CHTO    O9 5438   4.600   7.431   3.186 -0.2041 -0.1054  0.0066
   13CHTO   C13 5439   4.488   7.381   3.281  0.3211  0.7835  0.5695
   13CHTO   H26 5440   4.472   7.460   3.358 -0.6536  1.5867 -0.4325
   13CHTO   C11 5441   4.525   7.242   3.344  0.3127  0.7698  0.3130
   13CHTO   H24 5442   4.607   7.261   3.414  2.4953  1.6233 -2.4039
   13CHTO    O8 5443   4.569   7.144   3.248 -0.1612 -0.1540 -0.2713
   13CHTO    H3 5444   4.601   7.064   3.285 -2.0985 -0.3945  0.9352
   13CHTO    C9 5445   4.396   7.200   3.426  0.6335 -0.1208  0.8842
   13CHTO   H22 5446   4.375   7.285   3.493 -3.2408  0.1026 -0.5017
   13CHTO    N2 5447   4.433   7.094   3.520  0.0812  0.2202  0.3575
   13CHTO   H10 5448   4.370   7.088   3.607  0.4806  1.1787  0.7105
   13CHTO   H11 5449   4.452   7.003   3.464 -0.1057  1.1525 -1.2355
   13CHTO    C7 5450   4.267   7.185   3.344 -0.1684  0.4164 -0.0767
   13CHTO   H20 5451   4.194   7.233   3.412  0.1570  1.5164 -0.4951
   13CHTO    O4 5452   4.273   7.245   3.212 -0.0111  0.5073  0.5615
   13CHTO   C14 5453   4.342   7.364   3.198 -0.4252 -0.2662  0.2889
   13CHTO   H27 5454   4.282   7.451   3.232  1.4811  1.2869 -0.2101
   13CHTO   C18 5455   4.357   7.384   3.045  0.1366 -1.2678 -0.2775
   13CHTO   O13 5456   4.390   7.276   2.961 -0.6761  0.2729  0.7298
   13CHTO    H7 5457   4.385   7.299   2.870  0.5127 -0.8231  0.3781
   13CHTO    O2 5458   4.221   7.022   3.321  0.0795  0.3151 -0.1289
   13CHTO    C1 5459   4.085   6.993   3.341 -0.4904 -0.0599  0.0331
   13CHTO   H14 5460   4.024   7.081   3.311  0.5323  0.5380 -0.2943
   13CHTO    C2 5461   4.058   6.958   3.490 -0.1447 -0.3813 -0.6146
   13CHTO   H15 5462   4.135   6.882   3.504 -1.5052 -1.7580 -0.4982
   13CHTO    O6 5463   4.078   7.067   3.581 -0.3044  0.0851 -0.7833
   13CHTO    H1 5464   4.165   7.102   3.584 -1.1592  2.4887 -2.3718
   13CHTO    C3 5465   3.915   6.888   3.520  0.2015 -0.9960 -0.3221
   13CHTO   H16 5466   3.841   6.969   3.525  1.6389  0.4250 -1.5038
   13CHTO    N1 5467   3.903   6.823   3.662 -0.0479 -0.0852 -0.2197
   13CHTO    H8 5468   3.832   6.876   3.724 -0.9456  0.2544 -1.5129
   13CHTO    H9 5469   3.998   6.830   3.713  0.2380  2.0288 -1.0125
   13CHTO    C4 5470   3.864   6.799   3.403  0.2084  0.5517 -0.5741
   13CHTO   H17 5471   3.906   6.700   3.420 -1.7319  0.0579  1.6150
   13CHTO    O1 5472   3.907   6.843   3.273  0.8415 -0.1219 -0.0420
   13CHTO    C5 5473   4.042   6.875   3.250  0.8619 -0.1242 -0.0350
   13CHTO   H18 5474   4.109   6.795   3.282 -0.5210 -1.9244 -1.5332
   13CHTO   C16 5475   4.061   6.893   3.099  0.9067 -0.5596 -0.1134
   13CHTO   O11 5476   4.037   6.769   3.029 -0.5137 -0.5460 -0.1891
   13CHTO    H5 5477   4.088   6.704   3.073  1.3699 -0.0046 -1.5082
   13CHTO    O3 5478   3.717   6.806   3.398 -0.7379  0.5902 -0.3115
   13CHTO    C6 5479   3.636   6.695   3.353 -0.6978 -0.1532  0.5708
   13CHTO   H19 5480   3.547   6.730   3.301  0.4034 -1.1388 -2.1029
   13CHTO    C8 5481   3.704   6.595   3.246  0.0480  0.5813 -0.2109
   13CHTO   H21 5482   3.802   6.567   3.285 -0.7273 -1.2249  0.5074
   13CHTO    O7 5483   3.729   6.670   3.120 -0.1602 -0.4246  0.0953
   13CHTO    H2 5484   3.662   6.736   3.107  1.8829  1.5835 -0.6685
   13CHTO   C12 5485   3.610   6.475   3.220  0.0702  0.0037 -0.0861
   13CHTO   H25 5486   3.520   6.526   3.182 -0.2484 -0.4337  0.0791
   13CHTO    N3 5487   3.663   6.379   3.122 -0.3295 -0.3272  0.6169
   13CHTO   H12 5488   3.601   6.290   3.114  0.9560 -1.2325  0.5605
   13CHTO   H13 5489   3.762   6.340   3.143 -1.3732 -2.7482  1.2174
   13CHTO   C15 5490   3.577   6.409   3.356 -1.0070 -0.4152 -0.4037
   13CHTO   H28 5491   3.666   6.367   3.402  0.0616  1.3646 -0.7865
   13CHTO   O10 5492   3.453   6.298   3.349 -0.1361 -0.6521 -0.1766
   13CHTO    H4 5493   3.478   6.220   3.395 -3.5952 -2.0077 -0.4100
   13CHTO    O5 5494   3.511   6.501   3.447  0.2669  0.7374  0.3356
   13CHTO   C10 5495   3.589   6.618   3.477 -0.0964  0.5451 -0.3470
   13CHTO   H23 5496   3.679   6.597   3.535 -0.3577  0.0261 -0.1195
   13CHTO   C17 5497   3.492   6.708   3.559  0.1598  0.1590 -0.4421
   13CHTO   O12 5498   3.491   6.713   3.705 -0.2925 -0.1619 -0.6922
   13CHTO    H6 5499   3.441   6.787   3.734  1.1422 -0.0106  1.4849
   14CHTO  H203 5500   5.697   5.062   0.576  1.1030 -0.1993 -2.3257
   14CHTO   O82 5501   5.609   5.071   0.543 -0.0521  0.4266  0.6655
   14CHTO  C123 5502   5.511   5.013   0.629  0.3409  0.2930  0.4624
   14CHTO  H227 5503   5.517   5.061   0.728 -1.0540  1.7674 -0.1548
   14CHTO   O77 5504   5.378   5.039   0.570  0.1196 -0.7958 -0.0516
   14CHTO  C118 5505   5.274   4.995   0.659  0.0304 -0.2739 -0.2097
   14CHTO  H222 5506   5.275   5.028   0.764 -0.0554 -0.9488  0.0079
   14CHTO  C125 5507   5.130   5.040   0.605 -0.3188  0.0990 -0.2882
   14CHTO   O84 5508   5.017   5.008   0.685 -0.1409 -0.0937 -0.1940
   14CHTO  H205 5509   5.024   5.052   0.767 -0.4671  0.4954 -0.4731
   14CHTO  C114 5510   5.282   4.842   0.663  0.1454  0.3618 -1.0560
   14CHTO  H218 5511   5.265   4.807   0.562 -0.3508 -1.1111 -0.4772
   14CHTO  C116 5512   5.411   4.798   0.718  0.6385 -0.0118 -0.0137
   14CHTO  H220 5513   5.419   4.839   0.821  0.1456 -1.3529  0.5656
   14CHTO   O79 5514   5.428   4.656   0.730 -0.2719  0.3812  0.2847
   14CHTO  H201 5515   5.464   4.637   0.814 -0.8200  1.2096  0.7103
   14CHTO  C120 5516   5.535   4.862   0.640 -0.6380  0.1314 -0.3871
   14CHTO  H224 5517   5.546   4.828   0.535  1.4750  1.4668 -0.6306
   14CHTO   N21 5518   5.666   4.828   0.702  0.4026  0.1573  0.4131
   14CHTO  H211 5519   5.664   4.733   0.752  0.8036  0.8136  1.6981
   14CHTO  H212 5520   5.683   4.908   0.772 -0.5436  0.2953  0.4948
   14CHTO   O75 5521   5.165   4.802   0.744 -0.4077  0.1947  0.1957
   14CHTO  C112 5522   5.056   4.706   0.658  0.1572  0.3817 -0.1584
   14CHTO  H216 5523   5.092   4.603   0.659 -1.2317 -0.1181  1.4768
   14CHTO   O73 5524   5.043   4.759   0.528 -0.0317  0.2593 -0.4332
   14CHTO  C113 5525   4.956   4.701   0.438  0.3900  0.5945 -0.5146
   14CHTO  H217 5526   4.987   4.596   0.421 -0.5682  0.1273  0.5856
   14CHTO  C124 5527   4.961   4.785   0.312  0.9351  0.1479  0.2502
   14CHTO   O83 5528   4.895   4.910   0.338 -0.0712 -0.1802 -0.2673
   14CHTO  H204 5529   4.803   4.903   0.352 -0.1304 -0.4922 -0.7930
   14CHTO  C109 5530   4.811   4.698   0.497 -0.0790  0.1790  0.4817
   14CHTO  H213 5531   4.785   4.804   0.512 -1.2451 -0.2979  1.9480
   14CHTO  C110 5532   4.816   4.633   0.635 -0.0829  0.1461  0.2368
   14CHTO  H214 5533   4.828   4.526   0.617 -0.9859  0.2958 -1.3761
   14CHTO   O78 5534   4.687   4.638   0.696 -0.2262 -0.5913 -0.6299
   14CHTO  H200 5535   4.622   4.614   0.633  1.7161 -3.6940 -1.5859
   14CHTO  C111 5536   4.918   4.698   0.728 -0.0340  0.1232  0.2335
   14CHTO  H215 5537   4.892   4.804   0.738  0.4878  0.2743 -0.0246
   14CHTO   N19 5538   4.930   4.645   0.867 -0.1512  0.1131 -0.0967
   14CHTO  H207 5539   4.964   4.543   0.871  1.4279  0.6018 -0.6509
   14CHTO  H208 5540   4.856   4.676   0.940 -1.3395 -0.1615 -1.1733
   14CHTO   O74 5541   4.718   4.639   0.411  0.1061 -1.1779 -0.0356
   14CHTO  C115 5542   4.587   4.730   0.389  0.0427 -0.4547 -0.9527
   14CHTO  H219 5543   4.563   4.794   0.473  0.3858  0.5801 -1.6344
   14CHTO   O76 5544   4.608   4.820   0.259 -0.2691 -0.0473 -0.2986
   14CHTO  C122 5545   4.582   4.762   0.129 -0.5828  0.6517 -0.4959
   14CHTO  H226 5546   4.654   4.681   0.116 -0.9607  0.2424 -0.0444
   14CHTO  C126 5547   4.623   4.867   0.026 -0.0865  0.7807  0.8127
   14CHTO   O85 5548   4.767   4.879   0.018  0.1584  0.0942  0.0056
   14CHTO  H206 5549   4.794   4.811  -0.041 -1.3700  2.3753 -3.4756
   14CHTO  C121 5550   4.435   4.702   0.121 -0.2515 -0.7848 -0.0478
   14CHTO  H225 5551   4.374   4.777   0.066  1.6187  1.8996  1.4449
   14CHTO   O81 5552   4.430   4.581   0.037 -0.4051 -0.4943 -0.4353
   14CHTO  H202 5553   4.345   4.563   0.003 -0.4105  1.7554 -1.7181
   14CHTO  C119 5554   4.367   4.679   0.267  0.2868 -0.1218  0.6437
   14CHTO  H223 5555   4.340   4.777   0.309  0.3813 -0.0532  0.5457
   14CHTO  C117 5556   4.478   4.620   0.364  0.1560 -0.8366 -0.7151
   14CHTO  H221 5557   4.528   4.528   0.336  1.6894 -0.0764 -0.5195
   14CHTO   N20 5558   4.407   4.588   0.500 -0.3270  0.0751 -0.2391
   14CHTO  H209 5559   4.361   4.680   0.531  0.0288 -0.1612  1.0205
   14CHTO  H210 5560   4.336   4.508   0.497  1.4082 -1.7283  3.4091
   14CHTO   O80 5561   4.223   4.600   0.271  0.2476 -0.1981 -0.2697
   14CHTO  C103 5562   4.120   4.623   0.148  0.0425  0.7852  0.3727
   14CHTO  H190 5563   4.159   4.647   0.050  0.1579  1.7296  0.6512
   14CHTO  C101 5564   4.035   4.489   0.112  0.1428 -0.1344 -0.2416
   14CHTO  H188 5565   3.993   4.443   0.201 -1.8774 -3.0861 -2.6378
   14CHTO   O68 5566   4.134   4.385   0.069  0.3273  0.6374 -0.2956
   14CHTO  H168 5567   4.165   4.391  -0.019 -0.3386  0.6437 -0.5258
   14CHTO   C99 5568   3.907   4.523   0.010 -0.3802  0.0599 -0.0146
   14CHTO  H186 5569   3.947   4.561  -0.086  0.7939 -0.8545  0.0968
   14CHTO   N17 5570   3.815   4.405  -0.010 -0.3681  0.4612 -0.0015
   14CHTO  H174 5571   3.722   4.416   0.044 -2.0260 -1.6818 -2.3458
   14CHTO  H175 5572   3.869   4.314   0.012 -0.0728  0.7935  0.6621
   14CHTO   C97 5573   3.818   4.638   0.060  0.2589 -0.3773 -0.0920
   14CHTO  H184 5574   3.762   4.613   0.151  0.5282  1.2059  0.5326
   14CHTO   O64 5575   3.913   4.750   0.083  0.4678  0.5189  0.1189
   14CHTO  C104 5576   4.015   4.733   0.187 -0.0120 -0.6311  0.2579
   14CHTO  H191 5577   3.976   4.712   0.286 -0.2697  1.1717  0.5595
   14CHTO  C108 5578   4.084   4.872   0.199 -0.1073  0.1307  0.0391
   14CHTO   O71 5579   4.136   4.925   0.072 -0.4040 -0.0060  0.0543
   14CHTO  H171 5580   4.082   4.997   0.044 -0.0933 -0.4393 -1.6833
   14CHTO   O62 5581   3.735   4.692  -0.048 -0.0745 -0.1005  0.0124
   14CHTO   C91 5582   3.591   4.675  -0.034 -0.5531 -0.2475  0.5767
   14CHTO  H178 5583   3.562   4.595   0.034  1.0671 -0.5919  0.8902
   14CHTO   C92 5584   3.539   4.617  -0.162  0.2810 -0.3936  0.0367
   14CHTO  H179 5585   3.587   4.519  -0.179 -0.7105 -0.5663 -1.8617
   14CHTO   O66 5586   3.402   4.572  -0.147  0.5558  0.1598 -0.3674
   14CHTO  H166 5587   3.358   4.541  -0.224 -3.5619 -1.0614  2.3096
   14CHTO   C93 5588   3.548   4.708  -0.288  0.3281 -0.2644  0.1771
   14CHTO  H180 5589   3.468   4.679  -0.358  1.2274  0.1294 -1.0354
   14CHTO   N16 5590   3.670   4.700  -0.371  0.0694  0.3497  0.3877
   14CHTO  H172 5591   3.754   4.742  -0.319  0.6188 -1.2660  0.8440
   14CHTO  H173 5592   3.688   4.594  -0.387 -1.9536 -0.1090  0.9107
   14CHTO   C94 5593   3.529   4.862  -0.244 -0.6693 -0.5206  0.4795
   14CHTO  H181 5594   3.621   4.915  -0.220 -0.9708 -0.3922  1.3711
   14CHTO   O61 5595   3.447   4.873  -0.132  0.6151 -0.0892 -0.3345
   14CHTO   C95 5596   3.502   4.815  -0.009 -0.0806  0.3715 -0.0077
   14CHTO  H182 5597   3.553   4.893   0.047 -0.0025 -0.1961  0.7173
   14CHTO  C106 5598   3.373   4.787   0.076  0.6732 -0.1672  0.0266
   14CHTO   O69 5599   3.402   4.751   0.216  0.4588 -0.0568  0.4822
   14CHTO  H169 5600   3.438   4.820   0.269  0.9406 -0.6030  0.8754
   14CHTO   O63 5601   3.464   4.947  -0.366 -0.0823 -0.4077 -0.5712
   14CHTO   C96 5602   3.460   5.103  -0.340  0.3318  0.2062  0.2044
   14CHTO  H183 5603   3.476   5.121  -0.233 -3.1166  2.4419  0.3907
   14CHTO   C98 5604   3.327   5.172  -0.372  0.2930  0.4260 -0.3794
   14CHTO  H185 5605   3.288   5.134  -0.468 -2.1203  1.0951  0.3191
   14CHTO   O67 5606   3.237   5.115  -0.275 -0.0657 -0.3907 -0.2145
   14CHTO  H167 5607   3.259   5.152  -0.192  1.5176  3.2369 -2.1713
   14CHTO  C102 5608   3.331   5.328  -0.366  0.4953 -0.3803 -0.7214
   14CHTO  H189 5609   3.337   5.351  -0.259  1.8551 -2.0756 -0.4121
   14CHTO   N18 5610   3.212   5.397  -0.415 -0.0451 -0.0582  0.1352
   14CHTO  H176 5611   3.211   5.504  -0.400  1.3465  0.4650 -2.9849
   14CHTO  H177 5612   3.194   5.383  -0.521  2.6744 -2.3401 -0.0895
   14CHTO  C105 5613   3.450   5.373  -0.453  0.2751  0.2422  0.1574
   14CHTO  H192 5614   3.417   5.367  -0.557 -2.2835 -2.2419  1.0369
   14CHTO   O65 5615   3.571   5.307  -0.420 -0.2455  0.0884 -0.4331
   14CHTO  C100 5616   3.562   5.170  -0.437 -0.3311  0.1865 -0.4638
   14CHTO  H187 5617   3.531   5.154  -0.542 -0.6721 -0.7121 -0.2318
   14CHTO  C107 5618   3.703   5.105  -0.415 -0.2860 -0.0697  0.0811
   14CHTO   O70 5619   3.813   5.193  -0.443  0.5814 -0.1834 -0.2843
   14CHTO  H170 5620   3.796   5.243  -0.521  3.0660 -0.7211 -1.2271
   14CHTO   O57 5621   3.469   5.546  -0.407 -0.0848 -0.3298  0.0539
   14CHTO   C85 5622   3.566   5.608  -0.493 -0.3781 -0.9503 -0.1276
   14CHTO  H157 5623   3.575   5.548  -0.586 -2.1485  0.9303 -1.5493
   14CHTO   C83 5624   3.710   5.612  -0.431 -0.3136  0.1442 -0.0885
   14CHTO  H155 5625   3.741   5.508  -0.419 -0.6790 -0.1810 -1.7849
   14CHTO   O56 5626   3.691   5.653  -0.297  0.3119 -0.6277  0.6394
   14CHTO  H135 5627   3.735   5.594  -0.240 -0.8063 -3.4078 -1.2968
   14CHTO   C81 5628   3.814   5.678  -0.524  0.3359 -0.4781  0.2916
   14CHTO  H153 5629   3.805   5.635  -0.624 -0.5329 -2.8167  1.3290
   14CHTO   N14 5630   3.958   5.659  -0.483  0.3760 -0.3280  0.4226
   14CHTO  H141 5631   4.017   5.728  -0.540  0.8308  0.2130  1.5299
   14CHTO  H142 5632   3.994   5.561  -0.501  0.2305 -0.0850 -1.2201
   14CHTO   C79 5633   3.769   5.828  -0.527 -0.0954 -0.4200  0.5706
   14CHTO  H151 5634   3.831   5.878  -0.602 -0.2542 -2.2365 -0.7909
   14CHTO   O52 5635   3.633   5.840  -0.575 -0.1917  0.5554 -0.0273
   14CHTO   C86 5636   3.525   5.759  -0.520  0.5917 -0.7357  0.1673
   14CHTO  H158 5637   3.501   5.810  -0.424 -1.0508 -2.5894  0.7669
   14CHTO   C90 5638   3.397   5.776  -0.609  0.6651 -0.4199  0.1885
   14CHTO   O60 5639   3.301   5.680  -0.569  0.2178  0.2831 -0.2184
   14CHTO  H138 5640   3.261   5.703  -0.487  1.1333 -0.9829  0.6074
   14CHTO   O50 5641   3.783   5.894  -0.400  0.0734  0.5751 -0.0075
   14CHTO   C73 5642   3.785   6.025  -0.337 -0.4625  0.2232  0.4611
   14CHTO  H145 5643   3.692   6.045  -0.283 -0.6425  0.7310 -0.0321
   14CHTO   C74 5644   3.808   6.138  -0.448  0.9346 -1.0875 -0.3907
   14CHTO  H146 5645   3.735   6.119  -0.528  0.2642 -0.6110  0.1004
   14CHTO   O54 5646   3.768   6.268  -0.399 -0.2305  0.0773  0.0702
   14CHTO  H133 5647   3.772   6.333  -0.466 -0.2049  2.5259  2.3808
   14CHTO   C75 5648   3.962   6.115  -0.501  0.0152 -0.4962  0.0758
   14CHTO  H147 5649   3.964   6.024  -0.562  0.5866  0.5871 -1.5746
   14CHTO   N13 5650   4.011   6.215  -0.600 -0.2552 -0.4859  0.2569
   14CHTO  H139 5651   3.998   6.309  -0.550  2.1075  0.7562 -1.3409
   14CHTO  H140 5652   4.116   6.215  -0.628 -0.6639 -0.5295 -1.3432
   14CHTO   C76 5653   4.062   6.086  -0.382  0.0928 -0.5440  0.0877
   14CHTO  H148 5654   4.079   6.182  -0.333 -0.9592  0.2935 -1.1518
   14CHTO   O49 5655   4.018   5.987  -0.294 -0.3159 -0.4386 -0.1439
   14CHTO   C77 5656   3.897   6.024  -0.233  0.3289 -0.0262  0.5131
   14CHTO  H149 5657   3.895   6.123  -0.186 -0.9797  1.0523 -1.7238
   14CHTO   C88 5658   3.874   5.928  -0.118 -0.1004  0.4937 -0.3688
   14CHTO   O58 5659   3.962   5.946  -0.011 -0.0079 -0.2662  0.6287
   14CHTO  H136 5660   4.051   5.956  -0.040  0.3934 -0.9020  1.5842
   14CHTO   O51 5661   4.193   6.034  -0.439  0.3543  0.1886  0.2137
   14CHTO   C78 5662   4.329   6.103  -0.365  0.1266  0.9260 -0.3810
   14CHTO  H150 5663   4.315   6.151  -0.266  0.8283  0.4520 -0.0557
   14CHTO   C80 5664   4.381   6.212  -0.455  0.4490 -0.0635  0.3615
   14CHTO  H152 5665   4.398   6.171  -0.557 -0.9580 -1.9646  0.8495
   14CHTO   O55 5666   4.277   6.307  -0.463  0.3436  0.0234  0.2504
   14CHTO  H134 5667   4.272   6.373  -0.396  0.9128 -0.6181  0.9334
   14CHTO   C84 5668   4.520   6.269  -0.413  0.1122  0.5744  0.0190
   14CHTO  H156 5669   4.509   6.333  -0.326 -3.5175  1.4264 -0.9826
   14CHTO   N15 5670   4.574   6.372  -0.515  0.5726  0.0840 -0.4702
   14CHTO  H143 5671   4.635   6.443  -0.464 -1.6551  1.3980  0.4371
   14CHTO  H144 5672   4.503   6.423  -0.576  1.1162  1.4888  0.0560
   14CHTO   C87 5673   4.629   6.159  -0.384  0.4286 -0.6713  0.0268
   14CHTO  H159 5674   4.660   6.119  -0.481  1.9087  1.8878 -0.6100
   14CHTO   O53 5675   4.557   6.031  -0.288  0.0341 -0.0736  0.4427
   14CHTO   C82 5676   4.427   5.989  -0.348  0.2980 -0.1836 -0.4366
   14CHTO  H154 5677   4.440   5.942  -0.446  1.8284  0.6090 -0.6235
   14CHTO   C89 5678   4.367   5.883  -0.251 -0.0371 -0.1699  0.5597
   14CHTO   O59 5679   4.445   5.763  -0.257 -0.1506  0.1711  0.6446
   14CHTO  H137 5680   4.520   5.770  -0.201  0.8559  0.7403 -0.7302
   14CHTO   O45 5681   4.767   6.219  -0.302  0.8637 -0.1688  0.1812
   14CHTO   C67 5682   4.890   6.151  -0.311  0.0231  0.2091  0.0470
   14CHTO  H124 5683   4.965   6.183  -0.238 -1.7960  2.8060  0.8243
   14CHTO   C65 5684   4.880   5.993  -0.294  0.3890  0.0656  0.7076
   14CHTO  H122 5685   4.779   5.979  -0.257 -0.1332 -0.8331 -0.9799
   14CHTO   O44 5686   4.977   5.958  -0.196 -0.0481 -0.0187 -0.7976
   14CHTO  H102 5687   4.946   5.876  -0.161  1.0910  0.8913  2.5968
   14CHTO   C63 5688   4.877   5.918  -0.439  0.4341  0.2983  0.0656
   14CHTO  H120 5689   4.812   5.971  -0.507  0.6389  0.0677 -0.3104
   14CHTO   N11 5690   4.831   5.775  -0.440  0.2091  0.4874  0.1746
   14CHTO  H108 5691   4.733   5.770  -0.484  1.0785  2.2077 -2.0254
   14CHTO  H109 5692   4.893   5.707  -0.493 -1.6935 -1.8998  0.8881
   14CHTO   C61 5693   5.017   5.952  -0.502  0.0585  0.0767  0.1593
   14CHTO  H118 5694   5.013   5.922  -0.607 -1.9289 -1.2500  0.5842
   14CHTO   O40 5695   5.057   6.092  -0.499  0.8146  0.0330  0.4972
   14CHTO   C68 5696   4.954   6.187  -0.458 -0.0443 -0.1940 -0.0172
   14CHTO  H125 5697   4.872   6.183  -0.533  0.2811 -2.1623 -0.3053
   14CHTO   C72 5698   5.012   6.333  -0.457  0.4551  0.2783 -0.7431
   14CHTO   O48 5699   5.128   6.318  -0.378 -0.2451 -0.3344  0.2585
   14CHTO  H105 5700   5.205   6.334  -0.429  1.0883 -0.9681  2.0492
   14CHTO   O38 5701   5.126   5.885  -0.431 -0.4304  0.6122 -0.6732
   14CHTO   C55 5702   5.220   5.811  -0.510 -0.1950 -0.2527  0.4110
   14CHTO  H112 5703   5.228   5.843  -0.615  2.8454  1.8143  1.1907
   14CHTO   C56 5704   5.188   5.659  -0.496  0.0324  0.2579  0.4688
   14CHTO  H113 5705   5.167   5.627  -0.393 -0.7730 -0.6691  0.0232
   14CHTO   O42 5706   5.076   5.614  -0.573 -0.1198  0.6147  0.3070
   14CHTO  H100 5707   4.996   5.641  -0.530 -0.5587  0.3891 -0.3619
   14CHTO   C57 5708   5.312   5.580  -0.544  0.2139 -0.4370 -0.2036
   14CHTO  H114 5709   5.309   5.603  -0.650 -0.0362 -0.1895 -0.1412
   14CHTO   N10 5710   5.303   5.433  -0.521 -0.5708  0.0921 -0.0336
   14CHTO  H106 5711   5.315   5.399  -0.420  2.3508  2.1610  0.4112
   14CHTO  H107 5712   5.374   5.381  -0.583 -0.6234 -0.0187 -0.0010
   14CHTO   C58 5713   5.442   5.627  -0.490  0.4338  0.0329  0.3287
   14CHTO  H115 5714   5.445   5.614  -0.379 -1.2791 -1.4039  0.2158
   14CHTO   O37 5715   5.450   5.765  -0.530 -0.4302 -0.1143  0.5208
   14CHTO   C59 5716   5.363   5.851  -0.455 -0.5220  0.2104  0.2735
   14CHTO  H116 5717   5.374   5.833  -0.348 -0.1826 -0.0335  0.1994
   14CHTO   C70 5718   5.406   6.001  -0.484  0.8014  0.9320 -0.6968
   14CHTO   O46 5719   5.339   6.097  -0.399  0.3947  0.1334  0.1073
   14CHTO  H103 5720   5.400   6.141  -0.342 -0.5821  1.3459  0.2377
   14CHTO   O39 5721   5.579   5.552  -0.563  0.1056  0.1427  0.0354
   14CHTO   C60 5722   5.704   5.615  -0.533  0.4125  0.0038  0.5499
   14CHTO  H117 5723   5.691   5.721  -0.510 -0.3415  0.2334 -0.8984
   14CHTO   C62 5724   5.779   5.547  -0.416 -0.5096 -0.4340  0.4186
   14CHTO  H119 5725   5.713   5.548  -0.327 -2.4079 -0.8374 -0.9516
   14CHTO   O43 5726   5.809   5.411  -0.449  0.3173 -0.0266 -0.8305
   14CHTO  H101 5727   5.853   5.363  -0.381 -0.0185 -2.7045 -2.4258
   14CHTO   C66 5728   5.911   5.634  -0.386 -1.4031 -0.2799  0.8425
   14CHTO  H123 5729   5.877   5.735  -0.365  0.2958 -0.2069  3.4673
   14CHTO   N12 5730   5.979   5.588  -0.262  0.2445  0.3502 -0.4405
   14CHTO  H110 5731   5.913   5.562  -0.181  1.0808  2.9337  1.1176
   14CHTO  H111 5732   6.033   5.678  -0.235 -0.2791  0.5857 -0.1870
   14CHTO   C69 5733   5.998   5.645  -0.513  0.4196 -0.4384 -0.0568
   14CHTO  H126 5734   6.040   5.544  -0.535 -0.6078 -0.6320 -1.1637
   14CHTO   O41 5735   5.918   5.685  -0.635  0.3047 -0.4357  0.2547
   14CHTO   C64 5736   5.790   5.612  -0.663 -0.5364 -0.1654  0.4383
   14CHTO  H121 5737   5.807   5.505  -0.690  1.2494  0.3703 -0.5979
   14CHTO   C71 5738   5.732   5.687  -0.785  0.2593  0.5114 -0.2233
   14CHTO   O47 5739   5.692   5.823  -0.769  0.3463  0.0208  0.3731
   14CHTO  H104 5740   5.722   5.862  -0.689  1.2762  1.4827 -0.6446
   14CHTO   O34 5741   6.116   5.751  -0.483 -0.4885 -0.6346  1.0663
   14CHTO   C49 5742   6.150   5.883  -0.553 -0.4840  0.3395  0.3164
   14CHTO   H91 5743   6.165   5.878  -0.661 -0.9714  1.3472  0.1932
   14CHTO   C47 5744   6.288   5.932  -0.499  0.1095 -0.1861  0.0250
   14CHTO   H89 5745   6.318   6.013  -0.569  1.9683  0.8189  1.9149
   14CHTO   O33 5746   6.384   5.826  -0.508  0.1260 -0.0658 -0.0912
   14CHTO   H70 5747   6.339   5.748  -0.480  1.5664 -0.9815 -0.2678
   14CHTO   C45 5748   6.266   5.982  -0.337 -0.1441  0.6408 -0.1034
   14CHTO   H87 5749   6.298   5.901  -0.270  2.6958 -1.3212 -3.6157
   14CHTO    N8 5750   6.353   6.100  -0.321 -0.8565 -0.1904 -0.3640
   14CHTO   H75 5751   6.326   6.148  -0.228  3.1209  1.0705  0.2495
   14CHTO   H76 5752   6.458   6.076  -0.316 -1.0407 -0.8294  0.7513
   14CHTO   C43 5753   6.112   6.017  -0.311  0.2424  0.1906 -0.1623
   14CHTO   H85 5754   6.064   5.920  -0.297  0.9388 -0.2934 -1.0692
   14CHTO   O29 5755   6.060   6.089  -0.426 -0.5075 -0.2936  0.2961
   14CHTO   C50 5756   6.037   5.999  -0.533  0.2368  0.5440 -0.3547
   14CHTO   H92 5757   5.940   5.949  -0.524  1.0846 -0.8027  1.6024
   14CHTO   C54 5758   6.013   6.085  -0.661 -0.0180 -0.1379  0.1159
   14CHTO   O36 5759   5.949   6.005  -0.763  0.2058  0.2166  0.3543
   14CHTO   H72 5760   5.858   6.004  -0.738  0.3697 -2.3575  1.0023
   14CHTO   O27 5761   6.079   6.083  -0.190  0.3014 -0.0947 -0.0605
   14CHTO   C37 5762   5.962   6.113  -0.109 -0.1609  0.3456  0.9981
   14CHTO   H79 5763   5.984   6.174  -0.021 -0.1334  1.3322  0.3119
   14CHTO   C38 5764   5.857   6.199  -0.187 -0.1800  0.0724 -0.3996
   14CHTO   H80 5765   5.846   6.155  -0.287 -1.3106 -1.6605  0.4690
   14CHTO   O31 5766   5.915   6.328  -0.207 -0.1722 -0.1867 -0.2588
   14CHTO   H68 5767   6.009   6.324  -0.210 -0.1804  0.5419 -1.9076
   14CHTO   C39 5768   5.722   6.208  -0.109 -0.0866  0.0391 -0.0423
   14CHTO   H81 5769   5.739   6.273  -0.023 -3.3984 -0.9844  1.4892
   14CHTO    N7 5770   5.611   6.282  -0.180  0.2617 -0.5230  0.1195
   14CHTO   H73 5771   5.656   6.364  -0.234 -0.8173  0.1271  0.1995
   14CHTO   H74 5772   5.560   6.225  -0.256  0.4198 -1.6512  0.8533
   14CHTO   C40 5773   5.666   6.067  -0.066  0.4392 -0.3034 -0.2745
   14CHTO   H82 5774   5.636   6.004  -0.150  0.8276  2.5112 -2.6005
   14CHTO   O26 5775   5.771   6.007   0.010  0.3679  0.3671  0.6757
   14CHTO   C41 5776   5.892   5.974  -0.070 -0.1319  0.3410  0.0302
   14CHTO   H83 5777   5.858   5.918  -0.158 -0.1666  1.5034 -0.7049
   14CHTO   C52 5778   5.992   5.890   0.026 -0.2391  0.4347  0.0914
   14CHTO   O35 5779   6.092   5.848  -0.034 -0.2075 -0.3266 -0.1908
   14CHTO   H71 5780   6.057   5.783  -0.093  1.7722 -2.0461  0.4676
   14CHTO   O28 5781   5.580   6.087   0.051  0.3933  0.3004 -0.0892
   14CHTO   C42 5782   5.466   5.996   0.080 -0.2452  1.1663 -0.3109
   14CHTO   H84 5783   5.450   6.016   0.186 -2.7101  0.8703 -0.5975
   14CHTO   C44 5784   5.487   5.842   0.071  0.0145  0.3294 -0.0945
   14CHTO   H86 5785   5.521   5.816  -0.029 -0.9610  0.0594 -0.3670
   14CHTO   O32 5786   5.597   5.804   0.154  0.0507  0.0644 -0.6778
   14CHTO   H69 5787   5.580   5.810   0.246 -1.4132 -2.9121 -0.6932
   14CHTO   C48 5788   5.353   5.763   0.111  0.0696 -0.2668  0.0095
   14CHTO   H90 5789   5.339   5.771   0.218 -2.4716  1.5875 -0.4099
   14CHTO    N9 5790   5.380   5.617   0.090 -0.3140 -0.1607  0.5096
   14CHTO   H77 5791   5.476   5.605   0.041 -0.6709 -2.9332  0.4232
   14CHTO   H78 5792   5.296   5.559   0.057 -0.4224  0.2934 -0.0230
   14CHTO   C51 5793   5.215   5.816   0.053  0.0332 -0.1704 -0.2644
   14CHTO   H93 5794   5.210   5.780  -0.049  1.1503  0.4469 -0.5406
   14CHTO   O30 5795   5.210   5.955   0.059  0.0528  0.2210 -0.4069
   14CHTO   C46 5796   5.337   6.043   0.004  0.5747 -0.4172  0.1039
   14CHTO   H88 5797   5.348   6.011  -0.100 -1.8560 -0.2630 -0.2089
   14CHTO   C53 5798   5.301   6.192   0.021  0.2195 -0.1902 -0.1187
   14CHTO   O72 5799   5.218   6.223  -0.091  0.2095  0.2382 -0.3082
   14CHTO  H199 5800   5.136   6.178  -0.093  0.5101 -0.2544 -1.9921
   14CHTO   O22 5801   5.104   5.767   0.135 -0.0825 -0.3886  0.3148
   14CHTO   C31 5802   4.967   5.816   0.123  0.1656 -0.2140  0.4142
   14CHTO   H59 5803   4.972   5.898   0.048  0.2014  0.4517  1.1452
   14CHTO   C29 5804   4.866   5.712   0.079 -0.1345 -0.0176  0.2589
   14CHTO   H57 5805   4.887   5.627   0.146  0.1263 -0.2691 -0.1417
   14CHTO   O21 5806   4.892   5.671  -0.058 -0.5718  0.0372 -0.1600
   14CHTO   H37 5807   4.852   5.587  -0.068  1.4748 -0.8266 -1.1559
   14CHTO   C27 5808   4.712   5.751   0.090 -0.3657 -0.3249  0.4250
   14CHTO   H55 5809   4.690   5.825   0.011 -0.0894 -1.0945 -0.3683
   14CHTO    N5 5810   4.618   5.640   0.065  0.5419  0.0466  0.5475
   14CHTO   H43 5811   4.532   5.649   0.130 -0.1394 -1.3672 -0.1215
   14CHTO   H44 5812   4.595   5.635  -0.041 -2.2418  0.9800  1.0802
   14CHTO   C25 5813   4.687   5.826   0.221  0.4249 -0.1192  0.4437
   14CHTO   H53 5814   4.687   5.752   0.302  1.7737  0.0714  0.6218
   14CHTO   O17 5815   4.782   5.933   0.237  0.2471  0.0642 -0.0577
   14CHTO   C32 5816   4.916   5.878   0.258 -0.0154 -0.3232  0.3518
   14CHTO   H60 5817   4.917   5.805   0.338 -0.1086  0.6884  1.2906
   14CHTO   C36 5818   5.001   6.007   0.298 -0.7561 -0.1617 -0.0938
   14CHTO   O25 5819   4.935   6.083   0.399 -0.2908 -0.5164  0.8123
   14CHTO   H40 5820   4.992   6.101   0.471  0.8374  0.9469 -0.4200
   14CHTO   O15 5821   4.570   5.891   0.225 -0.3369  0.2677 -0.1412
   14CHTO   C19 5822   4.447   5.937   0.184 -0.0408 -0.3783 -0.1173
   14CHTO   H47 5823   4.437   5.889   0.085  0.9586 -0.9857  0.0705
   14CHTO   C20 5824   4.324   5.907   0.273  0.2890  0.5645  0.0535
   14CHTO   H48 5825   4.337   5.949   0.374  1.9307 -1.7274  0.8413
   14CHTO   O19 5826   4.322   5.766   0.294 -0.3240 -0.8168  0.2657
   14CHTO   H35 5827   4.263   5.736   0.361 -1.7613 -1.3539 -1.2281
   14CHTO   C21 5828   4.192   5.972   0.215 -0.2903 -0.0474 -0.1312
   14CHTO   H49 5829   4.168   5.921   0.121 -0.0076 -0.2394 -0.1002
   14CHTO    N4 5830   4.074   5.961   0.303  0.1740 -0.4192  0.1631
   14CHTO   H41 5831   4.103   6.024   0.385 -1.1547  0.4173  0.0169
   14CHTO   H42 5832   4.066   5.859   0.337 -1.0506 -1.2309 -2.3844
   14CHTO   C22 5833   4.221   6.123   0.181  0.0619 -0.0380  0.0227
   14CHTO   H50 5834   4.222   6.173   0.277 -1.0526  0.0760 -0.0184
   14CHTO   O14 5835   4.342   6.134   0.110  0.1052  0.1544  0.5202
   14CHTO   C23 5836   4.464   6.092   0.162  0.0776 -0.2311  0.8099
   14CHTO   H51 5837   4.485   6.143   0.257  0.9167  1.5233 -0.2892
   14CHTO   C34 5838   4.565   6.126   0.051 -0.4631 -0.5415  0.1234
   14CHTO   O23 5839   4.559   6.254  -0.005  0.1857  0.2613 -0.5324
   14CHTO   H38 5840   4.592   6.250  -0.093 -0.4692 -0.6450 -0.7447
   14CHTO   O16 5841   4.141   6.194   0.086 -0.0123 -0.4024  0.5015
   14CHTO   C24 5842   4.141   6.366   0.088  0.2543  0.2285 -0.6035
   14CHTO   H52 5843   4.039   6.403   0.077  0.1667 -0.0185 -0.6439
   14CHTO   C26 5844   4.221   6.416  -0.039  0.2124  0.2953 -0.1162
   14CHTO   H54 5845   4.318   6.361  -0.034 -0.1393 -0.3274 -0.0418
   14CHTO   O20 5846   4.148   6.376  -0.150 -0.5552  0.3483  0.0631
   14CHTO   H36 5847   4.083   6.443  -0.161  0.9935  2.3614  2.6406
   14CHTO   C30 5848   4.251   6.566  -0.048  0.8821 -0.0602  0.0595
   14CHTO   H58 5849   4.156   6.623  -0.053  0.3859 -0.9955 -1.1848
   14CHTO    N6 5850   4.329   6.595  -0.175  0.6590 -0.3490  0.7670
   14CHTO   H45 5851   4.382   6.688  -0.161  2.5513 -1.2279 -0.3752
   14CHTO   H46 5852   4.401   6.518  -0.197  2.2994  2.2693 -3.7646
   14CHTO   C33 5853   4.321   6.609   0.087  0.3035  0.0693  0.1101
   14CHTO   H61 5854   4.417   6.557   0.096 -0.1456 -0.6636  0.6984
   14CHTO   O18 5855   4.247   6.569   0.205  0.0259  0.4098  0.3518
   14CHTO   C28 5856   4.205   6.433   0.221  0.5187  0.2125  0.3334
   14CHTO   H56 5857   4.290   6.370   0.250 -0.1942 -1.0610 -0.2652
   14CHTO   C35 5858   4.105   6.428   0.342 -0.1804  0.0705 -0.4760
   14CHTO   O24 5859   3.987   6.503   0.304  0.3176  0.3685  0.5280
   14CHTO   H39 5860   3.926   6.449   0.257 -0.7714  0.8222  1.3773
   14CHTO    O9 5861   4.358   6.748   0.094  0.1872 -0.8842  0.0120
   14CHTO   C13 5862   4.517   6.773   0.114  0.8106  0.2480  0.1490
   14CHTO   H26 5863   4.572   6.679   0.095 -0.2479 -0.2304 -0.5711
   14CHTO   C11 5864   4.536   6.831   0.263 -0.3194  0.2360  0.5290
   14CHTO   H24 5865   4.489   6.767   0.339 -2.3400 -0.2787 -1.0835
   14CHTO    O8 5866   4.459   6.953   0.278  0.1040 -0.1118  0.6687
   14CHTO    H3 5867   4.384   6.936   0.332  0.6183  1.4200  1.9116
   14CHTO    C9 5868   4.689   6.853   0.282  0.2781 -0.0013 -0.6318
   14CHTO   H22 5869   4.737   6.763   0.243 -0.3000  0.8693 -3.4837
   14CHTO    N2 5870   4.744   6.877   0.418  0.0116  0.1426  0.1470
   14CHTO   H10 5871   4.821   6.953   0.411 -0.5764  1.0142  2.6043
   14CHTO   H11 5872   4.768   6.789   0.475 -1.0566  0.3347  0.9214
   14CHTO    C7 5873   4.742   6.954   0.176  0.7472  0.7244 -0.3929
   14CHTO   H20 5874   4.837   6.907   0.140  2.1660  2.2405  1.2777
   14CHTO    O4 5875   4.657   6.982   0.067  0.1022 -0.2380  0.1276
   14CHTO   C14 5876   4.575   6.883   0.010  0.3506 -0.3582  0.2480
   14CHTO   H27 5877   4.639   6.828  -0.062 -1.1522 -3.5407  1.2467
   14CHTO   C18 5878   4.469   6.957  -0.074 -0.2958 -0.4564  0.7097
   14CHTO   O13 5879   4.388   7.050   0.003 -0.1643  0.1128  0.3326
   14CHTO    H7 5880   4.318   7.077  -0.053 -0.2076  1.6331  1.0928
   14CHTO    O2 5881   4.782   7.090   0.230 -0.2703 -0.3189  0.4050
   14CHTO    C1 5882   4.884   7.156   0.153 -0.4269  0.0613 -0.4572
   14CHTO   H14 5883   4.875   7.125   0.047 -0.8936  0.9458 -0.6782
   14CHTO    C2 5884   5.038   7.122   0.212  0.6566 -0.5028 -0.3907
   14CHTO   H15 5885   5.045   7.139   0.320 -2.9813 -0.4525 -0.1050
   14CHTO    O6 5886   5.058   6.981   0.203  0.1470  0.5937 -0.1435
   14CHTO    H1 5887   5.067   6.946   0.290 -3.0304 -0.0364 -0.0021
   14CHTO    C3 5888   5.140   7.203   0.114  0.4036 -0.2039  0.1464
   14CHTO   H16 5889   5.125   7.189   0.006 -0.9142  3.2847 -0.1813
   14CHTO    N1 5890   5.287   7.180   0.154  0.0189  0.4778 -0.8672
   14CHTO    H8 5891   5.290   7.143   0.256  2.0607  2.0919 -0.3287
   14CHTO    H9 5892   5.344   7.271   0.145 -1.5296  1.4201 -1.2519
   14CHTO    C4 5893   5.096   7.350   0.129  0.1613  0.2715  0.3393
   14CHTO   H17 5894   5.107   7.374   0.235 -0.7977 -1.1943  0.7937
   14CHTO    O1 5895   4.955   7.371   0.094  0.4490  0.0820  0.1901
   14CHTO    C5 5896   4.851   7.304   0.167 -0.0458  0.3639 -0.1080
   14CHTO   H18 5897   4.855   7.338   0.270 -0.0434  0.7189 -0.2241
   14CHTO   C16 5898   4.713   7.329   0.111  0.5547  0.2812  0.1444
   14CHTO   O11 5899   4.679   7.468   0.122  0.0028  0.7496  0.3299
   14CHTO    H5 5900   4.625   7.491   0.194 -1.0269 -0.2485 -0.1148
   14CHTO    O3 5901   5.173   7.444   0.055 -0.7448  0.1014  0.1842
   14CHTO    C6 5902   5.197   7.573   0.128  0.3790 -0.2110  0.9152
   14CHTO   H19 5903   5.156   7.566   0.229  1.2615  1.4878  1.4235
   14CHTO    C8 5904   5.355   7.597   0.150  0.5705  0.1822 -0.6639
   14CHTO   H21 5905   5.403   7.575   0.055  2.0461 -0.1465  0.1336
   14CHTO    O7 5906   5.394   7.499   0.247  0.2766  0.4445  0.1185
   14CHTO    H2 5907   5.416   7.418   0.207 -1.9370  1.5060 -3.4833
   14CHTO   C12 5908   5.390   7.741   0.199  0.8451 -0.1034 -0.3448
   14CHTO   H25 5909   5.358   7.747   0.305 -0.6858  1.4188 -0.8569
   14CHTO    N3 5910   5.535   7.768   0.215 -0.5271  0.6594  0.7738
   14CHTO   H12 5911   5.595   7.678   0.213 -1.2911  0.1599 -0.4051
   14CHTO   H13 5912   5.570   7.829   0.297  0.8585  1.0727 -0.0976
   14CHTO   C15 5913   5.313   7.850   0.121 -1.3549 -0.2161 -0.1170
   14CHTO   H28 5914   5.348   7.862   0.019  0.0027  2.4794  0.6393
   14CHTO   O10 5915   5.315   7.993   0.203  0.4668  0.3228  0.3518
   14CHTO    H4 5916   5.240   8.042   0.174  1.5953  0.8793 -1.7334
   14CHTO    O5 5917   5.171   7.821   0.130  0.6813  0.2199 -0.2693
   14CHTO   C10 5918   5.128   7.700   0.069  0.2589 -0.0142  0.8298
   14CHTO   H23 5919   5.144   7.701  -0.039  1.6008  0.3581  1.0299
   14CHTO   C17 5920   4.980   7.695   0.108  0.3144 -0.5791  0.6823
   14CHTO   O12 5921   4.905   7.744  -0.003 -0.6048 -0.3164  0.6128
   14CHTO    H6 5922   4.812   7.731   0.004 -0.3219 -1.8849  1.8291
   15CHTO  H203 5923   5.588   5.163   2.358 -0.0727 -0.0872  0.4376
   15CHTO   O82 5924   5.584   5.071   2.377  0.3440 -0.2321 -0.1353
   15CHTO  C123 5925   5.493   5.007   2.288 -0.1796 -0.5342 -0.6611
   15CHTO  H227 5926   5.453   5.083   2.219 -1.5071 -0.3163  0.3271
   15CHTO   O77 5927   5.589   4.934   2.207  0.0402 -0.3966  0.2345
   15CHTO  C118 5928   5.534   4.845   2.112 -0.0710  0.4564  0.0352
   15CHTO  H222 5929   5.471   4.890   2.034 -1.7013 -2.1470 -0.2249
   15CHTO  C125 5930   5.654   4.790   2.041 -0.4394  0.1543 -0.2532
   15CHTO   O84 5931   5.727   4.881   1.959 -0.0821  0.1975 -0.0565
   15CHTO  H205 5932   5.792   4.835   1.910 -0.4077 -2.8961  2.2447
   15CHTO  C114 5933   5.440   4.736   2.174 -0.4503 -0.9396  0.0349
   15CHTO  H218 5934   5.502   4.668   2.232  1.4666  0.9773  0.3167
   15CHTO  C116 5935   5.335   4.792   2.273  0.4007  0.1140  0.4739
   15CHTO  H220 5936   5.254   4.832   2.208 -0.6771 -0.1857  1.6173
   15CHTO   O79 5937   5.284   4.688   2.360  0.6722  0.3758  0.0727
   15CHTO  H201 5938   5.356   4.637   2.391  0.3798 -0.3252 -0.4054
   15CHTO  C120 5939   5.390   4.910   2.365 -0.8869 -0.1126 -0.2192
   15CHTO  H224 5940   5.446   4.857   2.444  1.7309  0.9799 -1.2866
   15CHTO   N21 5941   5.278   4.982   2.428  0.0574 -0.5517 -0.3022
   15CHTO  H211 5942   5.302   5.018   2.527 -2.5061 -0.2642  0.2529
   15CHTO  H212 5943   5.239   5.059   2.363  0.0068 -1.3120 -1.1814
   15CHTO   O75 5944   5.378   4.672   2.067 -0.3668 -0.0706 -0.4747
   15CHTO  C112 5945   5.349   4.514   2.082  0.1940 -0.2225 -0.8056
   15CHTO  H216 5946   5.350   4.498   2.191  0.7305 -1.1420 -0.9411
   15CHTO   O73 5947   5.458   4.449   2.016 -0.0079  0.5997 -0.2677
   15CHTO  C113 5948   5.457   4.306   2.032  0.0757 -0.5331 -0.2872
   15CHTO  H217 5949   5.465   4.272   2.137  0.2052  0.0511 -0.1062
   15CHTO  C124 5950   5.592   4.262   1.976  0.5935  0.5404  0.1557
   15CHTO   O83 5951   5.592   4.250   1.833  0.4695  0.4099 -0.2242
   15CHTO  H204 5952   5.510   4.274   1.795 -0.2002 -0.5048  0.6077
   15CHTO  C109 5953   5.343   4.251   1.960  0.4089 -0.3757  0.2680
   15CHTO  H213 5954   5.349   4.281   1.854  0.0104 -2.0271 -0.2363
   15CHTO  C110 5955   5.211   4.308   2.009 -0.3472  0.2950  0.3541
   15CHTO  H214 5956   5.187   4.268   2.108 -1.1284  0.5516  0.2661
   15CHTO   O78 5957   5.104   4.251   1.930 -0.1413  0.0579 -0.1931
   15CHTO  H200 5958   5.092   4.160   1.953 -2.1438  0.3078 -0.1501
   15CHTO  C111 5959   5.217   4.462   2.013  0.4698 -0.6058  0.4081
   15CHTO  H215 5960   5.221   4.500   1.909  0.9471  1.2526  1.0902
   15CHTO   N19 5961   5.093   4.524   2.069  0.4511  0.8827 -0.0680
   15CHTO  H207 5962   5.005   4.502   2.011  0.1580  1.4376  0.1630
   15CHTO  H208 5963   5.080   4.511   2.175  0.5566 -3.3356 -0.4827
   15CHTO   O74 5964   5.344   4.114   1.969 -0.0583  0.2430  0.5954
   15CHTO  C115 5965   5.386   4.033   1.843 -0.1153 -0.1007 -0.1046
   15CHTO  H219 5966   5.428   4.099   1.768  1.0022 -0.4206  0.2385
   15CHTO   O76 5967   5.513   3.924   1.883  0.0430  0.3596 -0.2687
   15CHTO  C122 5968   5.462   3.809   1.948 -0.4709  0.7214 -0.0295
   15CHTO  H226 5969   5.417   3.845   2.040  0.6378  1.9135  0.0588
   15CHTO  C126 5970   5.581   3.719   1.998  0.1882 -0.4142 -0.1776
   15CHTO   O85 5971   5.544   3.613   2.086  0.3551  0.6301  0.0126
   15CHTO  H206 5972   5.609   3.602   2.152 -1.1024 -0.0266  1.3490
   15CHTO  C121 5973   5.356   3.734   1.867  0.5538  0.1459  0.2102
   15CHTO  H225 5974   5.405   3.645   1.823 -1.3048 -0.6391 -0.3430
   15CHTO   O81 5975   5.246   3.690   1.946  0.2441 -0.5519 -0.3394
   15CHTO  H202 5976   5.172   3.677   1.890  0.9018  0.1515 -1.3908
   15CHTO  C119 5977   5.297   3.818   1.743 -0.0851  0.1825  0.4941
   15CHTO  H223 5978   5.382   3.829   1.675  1.5219  0.1163  2.4360
   15CHTO  C117 5979   5.256   3.960   1.788  0.5129 -0.0861  0.2853
   15CHTO  H221 5980   5.185   3.969   1.870  0.4782 -1.5663  0.4267
   15CHTO   N20 5981   5.193   4.040   1.678  0.4308  0.4365 -0.2868
   15CHTO  H209 5982   5.111   3.989   1.629 -0.5974  1.6581  0.1371
   15CHTO  H210 5983   5.141   4.125   1.719 -0.3480 -0.6492  1.0489
   15CHTO   O80 5984   5.197   3.738   1.654 -0.0518  0.2479  0.5502
   15CHTO  C103 5985   5.249   3.591   1.578  0.2236  0.5612 -0.0030
   15CHTO  H190 5986   5.346   3.561   1.618 -0.6720 -0.5072  1.4536
   15CHTO  C101 5987   5.148   3.465   1.585 -0.4593 -0.6829 -0.0911
   15CHTO  H188 5988   5.050   3.485   1.542  0.3920  1.7514 -0.9240
   15CHTO   O68 5989   5.110   3.424   1.743 -0.3219 -0.3280  0.1373
   15CHTO  H168 5990   5.065   3.501   1.772  1.0934  0.5395  0.0733
   15CHTO   C99 5991   5.211   3.333   1.514  0.2237  0.5488  0.1463
   15CHTO  H186 5992   5.304   3.298   1.563  0.2714 -2.1158 -1.7128
   15CHTO   N17 5993   5.115   3.213   1.515  0.1528 -0.2735  0.1987
   15CHTO  H174 5994   5.021   3.244   1.471 -1.3271  0.8354  3.9481
   15CHTO  H175 5995   5.162   3.123   1.478  1.2891  0.0991  0.7140
   15CHTO   C97 5996   5.251   3.375   1.368  0.4191 -0.0414  0.0520
   15CHTO  H184 5997   5.154   3.393   1.320  0.3360  0.0211  0.2443
   15CHTO   O64 5998   5.332   3.497   1.365  0.5308  0.8260  0.5592
   15CHTO  C104 5999   5.280   3.620   1.419 -0.1103 -0.1401 -0.3549
   15CHTO  H191 6000   5.189   3.655   1.371  0.7023 -0.6065 -2.2642
   15CHTO  C108 6001   5.390   3.725   1.396  0.0524 -0.3827  0.0120
   15CHTO   O71 6002   5.423   3.746   1.254 -0.3015  0.4428 -0.3879
   15CHTO  H171 6003   5.481   3.679   1.223 -0.2485  0.3839 -0.1615
   15CHTO   O62 6004   5.328   3.274   1.301 -0.4546 -0.4889 -0.2682
   15CHTO   C91 6005   5.472   3.257   1.291  0.5770 -0.4632 -0.2644
   15CHTO  H178 6006   5.519   3.355   1.278 -1.7328  0.7325  0.1680
   15CHTO   C92 6007   5.498   3.189   1.156  0.0251 -1.0237 -0.7999
   15CHTO  H179 6008   5.436   3.233   1.077 -2.6118 -0.7178  1.3767
   15CHTO   O66 6009   5.634   3.213   1.115  0.5215 -0.0011  0.3459
   15CHTO  H166 6010   5.637   3.224   1.022  4.9091  0.7013  0.4944
   15CHTO   C93 6011   5.479   3.034   1.160  0.1160  0.2768 -0.3019
   15CHTO  H180 6012   5.529   2.988   1.073 -0.9261  0.1501 -0.8425
   15CHTO   N16 6013   5.337   2.996   1.138  0.4784 -0.0846  0.1126
   15CHTO  H172 6014   5.316   2.892   1.159 -0.8280 -0.2753 -1.9253
   15CHTO  H173 6015   5.298   3.029   1.043 -1.1707  1.5914  1.3440
   15CHTO   C94 6016   5.530   2.967   1.297 -0.1065  0.0642 -0.0671
   15CHTO  H181 6017   5.445   2.928   1.354 -1.0256  0.0733 -1.4104
   15CHTO   O61 6018   5.602   3.055   1.383 -0.4445 -0.5533 -0.4087
   15CHTO   C95 6019   5.538   3.179   1.423 -0.1451  0.0657 -0.2863
   15CHTO  H182 6020   5.465   3.156   1.501  0.1710  0.2141  0.0557
   15CHTO  C106 6021   5.639   3.271   1.486 -0.4356  0.3223 -0.1074
   15CHTO   O69 6022   5.583   3.401   1.515 -0.2913  0.7394  0.0650
   15CHTO  H169 6023   5.636   3.428   1.587  0.5590 -1.5537  0.3342
   15CHTO   O63 6024   5.639   2.840   1.269 -0.2731  0.3231  0.6817
   15CHTO   C96 6025   5.654   2.751   1.386  0.3937 -0.3042  0.1713
   15CHTO  H183 6026   5.605   2.789   1.476  0.2116  0.3214 -0.1921
   15CHTO   C98 6027   5.794   2.715   1.430 -0.3925  0.4175 -0.5036
   15CHTO  H185 6028   5.859   2.691   1.345 -0.4531  0.8822 -0.6863
   15CHTO   O67 6029   5.847   2.837   1.479 -0.2073  0.2779 -0.0847
   15CHTO  H167 6030   5.931   2.817   1.515 -0.4760 -2.7276 -1.0359
   15CHTO  C102 6031   5.799   2.594   1.548  0.1926  0.4339  0.0817
   15CHTO  H189 6032   5.739   2.620   1.637 -2.0022  0.0920 -1.2499
   15CHTO   N18 6033   5.931   2.552   1.602 -0.2818 -0.1456 -0.2698
   15CHTO  H176 6034   5.971   2.636   1.657  0.9495 -0.5094 -0.5873
   15CHTO  H177 6035   5.921   2.456   1.651  2.1212  0.0540  0.6807
   15CHTO  C105 6036   5.718   2.473   1.488  0.2660 -0.9766 -0.1358
   15CHTO  H192 6037   5.762   2.439   1.394 -1.3335 -4.1261  0.1886
   15CHTO   O65 6038   5.583   2.523   1.450 -1.4051 -0.0092 -0.7239
   15CHTO  C100 6039   5.587   2.619   1.342 -0.7390 -0.1662  0.0230
   15CHTO  H187 6040   5.636   2.569   1.257  0.6529  3.1782 -1.2566
   15CHTO  C107 6041   5.439   2.632   1.294  0.1444  0.2797 -0.2060
   15CHTO   O70 6042   5.344   2.680   1.392  0.0092  0.0289 -0.1007
   15CHTO  H170 6043   5.268   2.626   1.386 -0.3612  0.7401 -2.5477
   15CHTO   O57 6044   5.687   2.345   1.605 -0.0285  0.0479  0.5480
   15CHTO   C85 6045   5.567   2.277   1.603 -0.3823  0.4899  0.3648
   15CHTO  H157 6046   5.494   2.359   1.584  1.3568  2.2292  1.0712
   15CHTO   C83 6047   5.533   2.216   1.741 -0.3196 -0.8143 -0.4362
   15CHTO  H155 6048   5.530   2.300   1.811  0.9948 -2.3021  1.4530
   15CHTO   O56 6049   5.632   2.135   1.797 -0.1815 -0.3095 -0.6830
   15CHTO  H135 6050   5.615   2.132   1.890  0.6585 -1.0676 -0.5474
   15CHTO   C81 6051   5.392   2.144   1.742  0.2411  0.2402  0.0220
   15CHTO  H153 6052   5.324   2.218   1.699  1.0833  1.3200  0.5187
   15CHTO   N14 6053   5.341   2.120   1.877  0.2235  0.0202 -0.0749
   15CHTO  H141 6054   5.333   2.210   1.934  2.9518 -0.4550  1.1435
   15CHTO  H142 6055   5.247   2.068   1.887  0.1976  0.1581  0.4185
   15CHTO   C79 6056   5.401   2.022   1.639 -0.0911  0.5767  0.3145
   15CHTO  H151 6057   5.306   1.970   1.635 -0.2911  0.7342  2.6862
   15CHTO   O52 6058   5.427   2.071   1.502  0.1313  0.4182  0.3058
   15CHTO   C86 6059   5.551   2.148   1.501 -0.4001  0.0136  0.6761
   15CHTO  H158 6060   5.627   2.071   1.526  0.3039  0.4116 -0.2078
   15CHTO   C90 6061   5.582   2.185   1.352  0.8788  0.0630  0.4231
   15CHTO   O60 6062   5.468   2.244   1.289  0.4287 -0.0141 -0.7343
   15CHTO  H138 6063   5.418   2.179   1.243 -1.6091 -0.0807  1.4787
   15CHTO   O50 6064   5.484   1.908   1.677  0.2767 -0.1532 -0.2984
   15CHTO   C73 6065   5.512   1.772   1.655  0.1781 -0.7802 -0.0506
   15CHTO  H145 6066   5.424   1.730   1.605  0.0221 -0.4907 -0.0179
   15CHTO   C74 6067   5.534   1.708   1.793  0.2867  0.2706  0.3219
   15CHTO  H146 6068   5.444   1.726   1.853 -0.3632 -1.5736 -0.0531
   15CHTO   O54 6069   5.537   1.567   1.766  0.5182 -0.0378 -0.1579
   15CHTO  H133 6070   5.562   1.525   1.846 -1.5377  0.9463  1.0468
   15CHTO   C75 6071   5.661   1.774   1.857  0.4876  0.6480  0.2373
   15CHTO  H147 6072   5.640   1.882   1.865 -0.7634  0.6202 -2.0552
   15CHTO   N13 6073   5.684   1.711   1.991  0.3949  0.4895 -1.0617
   15CHTO  H139 6074   5.790   1.719   2.010  0.1718  0.1576  0.3890
   15CHTO  H140 6075   5.630   1.761   2.070  1.2479 -1.2510  0.6683
   15CHTO   C76 6076   5.784   1.769   1.754 -0.1500  0.0701 -0.0868
   15CHTO  H148 6077   5.808   1.664   1.736  0.0895 -0.0084  0.6563
   15CHTO   O49 6078   5.748   1.828   1.620 -0.1876  0.6206  0.2584
   15CHTO   C77 6079   5.639   1.760   1.560  0.0390  0.2280  0.2694
   15CHTO  H149 6080   5.658   1.653   1.547  0.5028  0.1614  1.3919
   15CHTO   C88 6081   5.616   1.810   1.418 -0.2281  0.2763 -0.2506
   15CHTO   O58 6082   5.473   1.760   1.347 -0.3086 -0.2945 -0.4247
   15CHTO  H136 6083   5.407   1.776   1.412  0.7159  1.4335  0.2033
   15CHTO   O51 6084   5.913   1.858   1.806  0.4830 -0.0708  0.2841
   15CHTO   C78 6085   6.046   1.855   1.701  0.0000 -0.3491  0.1196
   15CHTO  H150 6086   6.013   1.866   1.595  0.9757 -1.4459 -0.3129
   15CHTO   C80 6087   6.116   1.718   1.710  0.5618 -0.1868  0.4208
   15CHTO  H152 6088   6.121   1.690   1.817 -0.4298 -0.4922  0.3963
   15CHTO   O55 6089   6.044   1.621   1.640 -0.3122  0.2602  0.5560
   15CHTO  H134 6090   6.063   1.628   1.549  1.2250 -1.7496  0.6709
   15CHTO   C84 6091   6.263   1.724   1.639 -0.2434  0.1048 -0.4080
   15CHTO  H156 6092   6.255   1.729   1.531  0.9044  2.1255 -0.4293
   15CHTO   N15 6093   6.345   1.595   1.665  0.0787 -0.0714 -0.0819
   15CHTO  H143 6094   6.288   1.508   1.642 -0.3496 -0.0992  1.0613
   15CHTO  H144 6095   6.439   1.594   1.615  0.5188 -0.3681  0.7445
   15CHTO   C87 6096   6.345   1.850   1.684  0.1474  0.1337 -0.4322
   15CHTO  H159 6097   6.370   1.843   1.790 -2.4007 -1.2785  0.1023
   15CHTO   O53 6098   6.260   1.967   1.672  0.0541 -0.2705  0.3968
   15CHTO   C82 6099   6.134   1.965   1.743  0.7137 -0.1279 -0.4683
   15CHTO  H154 6100   6.159   1.964   1.849 -0.6174 -2.1874 -0.1525
   15CHTO   C89 6101   6.061   2.101   1.718 -0.0994  0.6844 -0.1968
   15CHTO   O59 6102   6.138   2.213   1.763 -0.3743 -0.1052  0.5158
   15CHTO  H137 6103   6.110   2.232   1.851  0.2889  1.2616  0.4435
   15CHTO   O45 6104   6.474   1.862   1.589 -0.3207  0.4448 -0.0601
   15CHTO   C67 6105   6.554   1.978   1.625  0.2619  0.4219  0.2740
   15CHTO  H124 6106   6.495   2.046   1.686 -2.0889 -0.9069 -0.4732
   15CHTO   C65 6107   6.684   1.932   1.706 -0.6242  0.0575 -0.1384
   15CHTO  H122 6108   6.706   1.830   1.675  0.9373  0.7023 -1.2126
   15CHTO   O44 6109   6.639   1.941   1.843 -0.4272  0.7789 -0.4916
   15CHTO  H102 6110   6.717   1.941   1.896  0.1459  0.4718 -1.3289
   15CHTO   C63 6111   6.805   2.015   1.651 -1.3562 -0.6928  0.3300
   15CHTO  H120 6112   6.839   1.974   1.556  1.1781 -0.7348  1.2232
   15CHTO   N11 6113   6.931   2.000   1.729  0.5951  0.4197  0.1923
   15CHTO  H108 6114   6.909   2.029   1.829 -0.6729 -0.0809  0.0747
   15CHTO  H109 6115   6.960   1.896   1.731  1.2153  0.6135  2.2520
   15CHTO   C61 6116   6.771   2.171   1.632 -0.6866 -0.3435  0.8223
   15CHTO  H118 6117   6.862   2.221   1.596 -0.9288  0.2880  1.0780
   15CHTO   O40 6118   6.671   2.181   1.521 -0.0642  0.6109  0.0719
   15CHTO   C68 6119   6.580   2.061   1.496  0.1496  0.2800 -0.1625
   15CHTO  H125 6120   6.625   1.992   1.421  0.6114  2.0130 -1.5330
   15CHTO   C72 6121   6.453   2.118   1.431 -0.2814  0.3448 -0.4448
   15CHTO   O48 6122   6.377   2.209   1.517 -0.5766  0.2877  0.0758
   15CHTO  H105 6123   6.291   2.234   1.487 -0.3843 -0.7043 -1.3761
   15CHTO   O38 6124   6.735   2.235   1.749  0.3734  0.2565 -0.3759
   15CHTO   C55 6125   6.681   2.365   1.746 -0.3533 -0.0215  0.5107
   15CHTO  H112 6126   6.624   2.373   1.653  2.1343 -0.1426 -1.0451
   15CHTO   C56 6127   6.795   2.470   1.754  0.1171  0.4533 -0.0377
   15CHTO  H113 6128   6.843   2.445   1.850  1.6084  0.7782 -0.6782
   15CHTO   O42 6129   6.884   2.454   1.645 -0.4413  0.2578  0.6154
   15CHTO  H100 6130   6.957   2.510   1.662 -1.8296  1.8072  1.6441
   15CHTO   C57 6131   6.733   2.623   1.755  0.4151  0.4085  0.3885
   15CHTO  H114 6132   6.701   2.652   1.654 -0.4891 -1.0306  0.2489
   15CHTO   N10 6133   6.843   2.714   1.798 -0.5391  0.9365 -1.0206
   15CHTO  H106 6134   6.828   2.817   1.768 -2.8713  0.0510 -3.0122
   15CHTO  H107 6135   6.934   2.673   1.757 -2.0155 -4.3619  0.5679
   15CHTO   C58 6136   6.612   2.630   1.851  0.0461 -0.7535  0.2168
   15CHTO  H115 6137   6.653   2.638   1.954  0.3966  0.1848  0.0087
   15CHTO   O37 6138   6.524   2.515   1.848 -0.6502 -0.4259 -0.0344
   15CHTO   C59 6139   6.589   2.391   1.863 -0.1922  0.3660  0.5370
   15CHTO  H116 6140   6.643   2.391   1.958  0.2778  2.0446  0.2801
   15CHTO   C70 6141   6.478   2.291   1.860  0.6954  0.1838  0.2454
   15CHTO   O46 6142   6.382   2.296   1.968  0.7321  0.5428  0.5639
   15CHTO  H103 6143   6.407   2.231   2.030 -0.2325  0.8276  1.2678
   15CHTO   O39 6144   6.519   2.766   1.815  0.0890  0.0565  0.4284
   15CHTO   C60 6145   6.452   2.775   1.686  0.3802  0.0456  0.8440
   15CHTO  H117 6146   6.519   2.807   1.606  2.1934  0.6680  2.5751
   15CHTO   C62 6147   6.371   2.649   1.630  0.5662 -0.0476 -0.7201
   15CHTO  H119 6148   6.443   2.566   1.613 -3.2989 -3.1075 -3.0769
   15CHTO   O43 6149   6.279   2.586   1.723 -0.3981 -0.0440  0.2478
   15CHTO  H101 6150   6.239   2.510   1.687 -1.1952  1.1338 -1.4447
   15CHTO   C66 6151   6.309   2.697   1.494  0.3558  0.2208  0.8084
   15CHTO  H123 6152   6.385   2.744   1.433 -0.5087 -0.3129 -0.7093
   15CHTO   N12 6153   6.268   2.573   1.422  0.4872 -0.3559  0.4790
   15CHTO  H110 6154   6.346   2.499   1.415 -0.5987 -1.3987 -0.8617
   15CHTO  H111 6155   6.228   2.592   1.323  0.9233 -2.3529 -0.1008
   15CHTO   C69 6156   6.198   2.801   1.509  0.3803 -0.1427 -0.5215
   15CHTO  H126 6157   6.114   2.757   1.565  0.6962 -1.4976 -1.1014
   15CHTO   O41 6158   6.251   2.921   1.593  0.1446  0.5630 -0.0886
   15CHTO   C64 6159   6.365   2.898   1.713 -1.1245 -0.0252  0.2325
   15CHTO  H121 6160   6.318   2.886   1.813  1.1832  2.0575  1.6334
   15CHTO   C71 6161   6.448   3.033   1.719  0.1236 -0.2157 -0.0050
   15CHTO   O47 6162   6.371   3.150   1.743 -0.2331  0.0889  0.5548
   15CHTO  H104 6163   6.419   3.218   1.786 -0.2257  0.8334 -0.6199
   15CHTO   O34 6164   6.144   2.840   1.383  0.7192 -0.7080  0.0956
   15CHTO   C49 6165   6.164   2.898   1.245  0.4487 -0.0822  0.1750
   15CHTO   H91 6166   6.233   2.829   1.197  1.3734  0.8176  0.1921
   15CHTO   C47 6167   6.237   3.038   1.273  0.1945 -0.8894 -0.5698
   15CHTO   H89 6168   6.256   3.095   1.179 -3.2509  2.0765  0.4029
   15CHTO   O33 6169   6.365   3.010   1.340  0.1753 -0.2346  0.4265
   15CHTO   H70 6170   6.395   2.923   1.327 -0.0896 -0.1056 -1.1485
   15CHTO   C45 6171   6.133   3.133   1.363 -0.2135 -0.1490 -0.4603
   15CHTO   H87 6172   6.098   3.077   1.451  0.4681 -0.9488 -0.6941
   15CHTO    N8 6173   6.198   3.260   1.407 -0.0990 -0.7008  0.2113
   15CHTO   H75 6174   6.287   3.282   1.349 -0.4531 -4.1351 -1.7557
   15CHTO   H76 6175   6.212   3.264   1.514 -0.4660  0.3483  0.2254
   15CHTO   C43 6176   6.005   3.152   1.268 -0.1364  0.1425  0.8427
   15CHTO   H85 6177   5.933   3.205   1.329 -2.8033 -0.4963 -1.6283
   15CHTO   O29 6178   5.949   3.026   1.222  0.2926  0.1511  0.1202
   15CHTO   C50 6179   6.030   2.915   1.171 -0.2222  0.6168 -0.6385
   15CHTO   H92 6180   5.973   2.822   1.185 -1.3736  1.5610  1.2578
   15CHTO   C54 6181   6.049   2.920   1.016  0.1978 -0.0644  0.0550
   15CHTO   O36 6182   5.928   2.961   0.954  0.2172 -0.1743  0.0197
   15CHTO   H72 6183   5.903   3.045   0.986  0.3927 -1.2320  3.1202
   15CHTO   O27 6184   6.036   3.236   1.153  0.2161  0.1284 -0.0393
   15CHTO   C37 6185   5.989   3.325   1.045  0.1478 -0.2137  0.0484
   15CHTO   H79 6186   5.916   3.271   0.984  0.6500  0.8760 -1.5358
   15CHTO   C38 6187   5.926   3.457   1.111  0.0206  0.4990 -0.8579
   15CHTO   H80 6188   6.009   3.503   1.166  0.2447 -0.1224 -0.6707
   15CHTO   O31 6189   5.816   3.425   1.193  0.3001  0.2958  0.1678
   15CHTO   H68 6190   5.818   3.491   1.259 -1.1631 -0.3389  0.8498
   15CHTO   C39 6191   5.890   3.561   1.000 -0.1394  0.1352 -0.2092
   15CHTO   H81 6192   5.816   3.517   0.934 -0.4660  1.2749 -0.6237
   15CHTO    N7 6193   5.837   3.685   1.065  0.0201 -0.3457  0.3433
   15CHTO   H73 6194   5.913   3.749   1.107 -0.3720  0.1364  0.3321
   15CHTO   H74 6195   5.756   3.664   1.133 -1.4486 -1.7008 -1.7374
   15CHTO   C40 6196   6.013   3.593   0.918 -0.7094 -0.0192 -0.3524
   15CHTO   H82 6197   6.083   3.661   0.966  0.3455  1.1593 -3.4482
   15CHTO   O26 6198   6.082   3.476   0.871 -0.3691  0.0429 -0.3616
   15CHTO   C41 6199   6.114   3.369   0.963  0.1445  0.8156  0.0087
   15CHTO   H83 6200   6.188   3.402   1.038 -0.7659 -0.9617  1.7374
   15CHTO   C52 6201   6.183   3.250   0.889 -1.0467  0.0974 -0.5445
   15CHTO   O35 6202   6.109   3.199   0.806  0.1126  0.1132 -0.6037
   15CHTO   H71 6203   6.099   3.260   0.735  0.9655 -0.2454 -1.0450
   15CHTO   O28 6204   5.978   3.651   0.788 -0.4563 -0.4244 -0.0853
   15CHTO   C42 6205   6.009   3.785   0.740 -0.8457 -0.4760 -0.0398
   15CHTO   H84 6206   6.028   3.771   0.634  1.1767 -0.9544  0.3582
   15CHTO   C44 6207   6.139   3.842   0.795  0.4053 -0.4406  0.6987
   15CHTO   H86 6208   6.136   3.849   0.903  1.1174 -2.1645  0.8539
   15CHTO   O32 6209   6.238   3.745   0.767 -0.3710  0.1318 -0.2038
   15CHTO   H69 6210   6.316   3.774   0.724 -0.2936 -2.3916 -1.8714
   15CHTO   C48 6211   6.162   3.984   0.737 -0.1848  0.1923 -0.4628
   15CHTO   H90 6212   6.182   3.977   0.630  1.6892  0.3409 -0.1313
   15CHTO    N9 6213   6.290   4.049   0.793  0.1281  0.3062 -0.4369
   15CHTO   H77 6214   6.279   4.150   0.829  1.6133 -0.1478  1.3800
   15CHTO   H78 6215   6.366   4.044   0.717  1.0241  1.1285  0.3999
   15CHTO   C51 6216   6.041   4.070   0.774  0.8257 -0.0447 -0.0409
   15CHTO   H93 6217   6.030   4.063   0.883  0.2650  0.0160 -0.0894
   15CHTO   O30 6218   5.931   4.011   0.702  0.3058  0.1579 -0.9415
   15CHTO   C46 6219   5.887   3.881   0.747 -0.4255 -0.9378 -0.5726
   15CHTO   H88 6220   5.868   3.894   0.853  0.3983 -1.4352 -0.3599
   15CHTO   C53 6221   5.762   3.828   0.675 -0.3083  0.4247  0.1679
   15CHTO   O72 6222   5.788   3.832   0.534 -0.0320 -0.7075  0.1637
   15CHTO  H199 6223   5.705   3.822   0.491  0.3202  0.3336 -0.7757
   15CHTO   O22 6224   6.047   4.203   0.722 -0.0057 -0.4545 -0.0344
   15CHTO   C31 6225   5.952   4.307   0.784 -0.0790  0.0444 -0.2855
   15CHTO   H59 6226   5.983   4.400   0.731 -0.7660  0.1384 -0.5198
   15CHTO   C29 6227   5.808   4.288   0.772  0.1886  0.3781  0.3602
   15CHTO   H57 6228   5.791   4.193   0.825  2.3068  1.0794  2.3815
   15CHTO   O21 6229   5.782   4.264   0.631  0.2778 -0.2506  0.0875
   15CHTO   H37 6230   5.842   4.207   0.588 -0.9386 -0.0447 -1.9615
   15CHTO   C27 6231   5.720   4.409   0.833  0.3484 -0.3295  0.3372
   15CHTO   H55 6232   5.748   4.501   0.780  0.3898 -0.5891 -0.0908
   15CHTO    N5 6233   5.574   4.384   0.832 -0.2707 -0.7693 -0.7875
   15CHTO   H43 6234   5.557   4.308   0.907 -2.3334 -0.0544 -0.4931
   15CHTO   H44 6235   5.521   4.474   0.860 -1.9879 -1.9891  0.0166
   15CHTO   C25 6236   5.773   4.432   0.978 -0.4345  0.2948  0.1694
   15CHTO   H53 6237   5.738   4.360   1.054  0.0323 -0.0964  0.0140
   15CHTO   O17 6238   5.916   4.445   0.977  0.1088 -0.3423 -0.5662
   15CHTO   C32 6239   5.984   4.328   0.927  0.8802  0.2534  0.0919
   15CHTO   H60 6240   5.958   4.236   0.981  0.6542 -1.5713 -3.0019
   15CHTO   C36 6241   6.137   4.343   0.959 -0.3745 -0.0121 -0.0675
   15CHTO   O25 6242   6.180   4.297   1.089 -0.3530  0.4798 -0.2975
   15CHTO   H40 6243   6.172   4.204   1.097 -1.5023  0.5635 -0.3859
   15CHTO   O15 6244   5.724   4.589   1.033  0.0586 -0.2513  0.3040
   15CHTO   C19 6245   5.751   4.688   1.126  0.1907 -0.0460  0.8591
   15CHTO   H47 6246   5.844   4.651   1.173 -0.4659  0.1823  2.3409
   15CHTO   C20 6247   5.785   4.836   1.077 -0.2283  0.6089 -0.1040
   15CHTO   H48 6248   5.698   4.881   1.027  0.2953  0.8736 -0.7748
   15CHTO   O19 6249   5.892   4.818   0.985 -0.6217  0.4641  0.5604
   15CHTO   H35 6250   5.933   4.898   0.959 -0.7029  0.7269  1.2260
   15CHTO   C21 6251   5.825   4.935   1.202 -0.0515 -0.4594  0.9698
   15CHTO   H49 6252   5.926   4.914   1.237 -0.0214 -0.7612  0.7082
   15CHTO    N4 6253   5.819   5.082   1.172 -0.1320 -0.2445  0.1060
   15CHTO   H41 6254   5.807   5.106   1.067 -1.0685 -0.1525  0.2307
   15CHTO   H42 6255   5.904   5.136   1.212 -0.4776 -0.3636  1.0182
   15CHTO   C22 6256   5.745   4.900   1.330  0.2072  0.0509 -0.2678
   15CHTO   H50 6257   5.647   4.946   1.331 -1.2881 -3.0126  1.1720
   15CHTO   O14 6258   5.722   4.760   1.346 -0.4913 -0.3657  0.4620
   15CHTO   C23 6259   5.649   4.695   1.236  0.1641 -0.4182 -0.2336
   15CHTO   H51 6260   5.558   4.746   1.203  0.6087 -0.5044 -1.6231
   15CHTO   C34 6261   5.606   4.557   1.290 -0.2140  0.5659  0.1444
   15CHTO   O23 6262   5.722   4.484   1.325  0.0071 -0.1275 -0.3954
   15CHTO   H38 6263   5.786   4.543   1.361 -0.3992  0.7152 -1.0187
   15CHTO   O16 6264   5.817   4.943   1.447 -0.1647 -0.0198  0.4596
   15CHTO   C24 6265   5.947   4.843   1.508  0.7336  0.1372 -0.6435
   15CHTO   H52 6266   5.971   4.762   1.440  1.5859  0.2443 -0.4707
   15CHTO   C26 6267   5.905   4.775   1.640 -0.1991 -0.4147  0.1121
   15CHTO   H54 6268   5.865   4.852   1.709  1.2439 -1.9213  2.6833
   15CHTO   O20 6269   5.803   4.679   1.613  0.0632  0.0680 -0.4398
   15CHTO   H36 6270   5.754   4.672   1.693  0.9541  0.0490  0.1058
   15CHTO   C30 6271   6.022   4.695   1.712  0.0594 -0.0554 -0.2842
   15CHTO   H58 6272   6.043   4.599   1.663  0.9327 -0.5663  1.0461
   15CHTO    N6 6273   5.982   4.655   1.852 -0.6238 -0.3373  0.0317
   15CHTO   H45 6274   5.914   4.571   1.850 -0.8464 -0.1696  0.4915
   15CHTO   H46 6275   6.074   4.624   1.898  0.2160 -0.6260 -1.7997
   15CHTO   C33 6276   6.147   4.784   1.717  1.0154  0.7713  0.0503
   15CHTO   H61 6277   6.131   4.874   1.777 -0.0162 -0.8436  2.2541
   15CHTO   O18 6278   6.178   4.828   1.582 -1.1045  0.9728  0.1677
   15CHTO   C28 6279   6.083   4.922   1.534  0.3340  0.4122 -0.2674
   15CHTO   H56 6280   6.064   4.993   1.614 -1.4484 -0.6425  0.2756
   15CHTO   C35 6281   6.141   4.983   1.408  0.5772 -0.4016  0.9517
   15CHTO   O24 6282   6.224   5.083   1.460  0.4742 -0.2587  0.5519
   15CHTO   H39 6283   6.313   5.052   1.460  0.2517 -0.9159  2.5166
   15CHTO    O9 6284   6.264   4.722   1.781 -0.4548  0.0113 -0.5625
   15CHTO   C13 6285   6.372   4.833   1.856 -0.2611 -0.1556  0.6448
   15CHTO   H26 6286   6.316   4.897   1.928 -1.9140  0.2689 -0.9927
   15CHTO   C11 6287   6.434   4.920   1.747  0.2806  0.7504  0.1475
   15CHTO   H24 6288   6.352   4.972   1.695 -0.2674 -1.1247 -0.9062
   15CHTO    O8 6289   6.512   4.841   1.659 -0.5349  0.1058  0.6673
   15CHTO    H3 6290   6.540   4.885   1.581  2.4943  2.6775  3.0932
   15CHTO    C9 6291   6.511   5.028   1.828 -0.0273 -0.3774 -0.0821
   15CHTO   H22 6292   6.440   5.079   1.896 -0.0548 -0.3739 -0.1128
   15CHTO    N2 6293   6.559   5.141   1.745  0.5934  0.3307  0.3486
   15CHTO   H10 6294   6.634   5.109   1.674 -0.5401 -1.7187  0.0369
   15CHTO   H11 6295   6.594   5.222   1.808 -0.4095  2.0509 -1.2282
   15CHTO    C7 6296   6.627   4.973   1.930  0.0655 -0.0355 -0.4194
   15CHTO   H20 6297   6.643   5.052   2.007 -0.3122  0.9133 -1.3042
   15CHTO    O4 6298   6.573   4.855   2.001 -0.5897 -0.1656  0.3286
   15CHTO   C14 6299   6.482   4.757   1.946  0.7812 -0.2814  0.1388
   15CHTO   H27 6300   6.426   4.713   2.031 -0.1418 -0.1768 -0.4101
   15CHTO   C18 6301   6.562   4.645   1.872  0.1459 -0.1531 -0.4858
   15CHTO   O13 6302   6.491   4.537   1.815 -0.1950  0.3295 -0.2606
   15CHTO    H7 6303   6.551   4.467   1.793  0.0468  0.9523 -1.6627
   15CHTO    O2 6304   6.775   4.933   1.862 -0.2992  0.2775  0.1733
   15CHTO    C1 6305   6.884   4.919   1.953 -0.1084  0.4709  0.6755
   15CHTO   H14 6306   6.862   4.833   2.019 -0.1505  0.6377  0.8779
   15CHTO    C2 6307   6.935   5.046   2.040 -0.1959 -0.2017 -0.1811
   15CHTO   H15 6308   6.940   5.135   1.975  1.7250 -0.1390  0.0172
   15CHTO    O6 6309   6.825   5.064   2.130 -0.2350  0.1252  0.2561
   15CHTO    H1 6310   6.861   5.112   2.202 -0.0655  0.2169  0.1102
   15CHTO    C3 6311   7.078   5.023   2.109  0.6190  0.4639 -0.0065
   15CHTO   H16 6312   7.061   4.945   2.185 -0.0843 -0.0309 -0.6637
   15CHTO    N1 6313   7.125   5.146   2.180 -0.3410 -0.1825 -0.3426
   15CHTO    H8 6314   7.231   5.149   2.199 -0.5758 -0.2168  1.0392
   15CHTO    H9 6315   7.095   5.236   2.128  2.5080 -0.0100 -1.7962
   15CHTO    C4 6316   7.179   4.971   2.005  0.1708  0.3233  0.4305
   15CHTO   H17 6317   7.195   5.048   1.929 -0.8601  0.1920  0.0670
   15CHTO    O1 6318   7.129   4.857   1.942  0.0407  0.6674 -0.0598
   15CHTO    C5 6319   7.005   4.878   1.868 -0.1217 -0.6544  0.7579
   15CHTO   H18 6320   7.026   4.952   1.790 -0.6407 -0.0609  1.1737
   15CHTO   C16 6321   6.959   4.749   1.796 -0.3667  0.0147  0.0570
   15CHTO   O11 6322   7.062   4.702   1.713  0.1691 -0.2884 -0.1126
   15CHTO    H5 6323   7.067   4.753   1.634  1.7676 -3.5141 -2.2383
   15CHTO    O3 6324   7.292   4.910   2.062 -0.4666  0.5309 -0.0761
   15CHTO    C6 6325   7.420   4.897   1.982  0.0804 -0.4283 -0.3377
   15CHTO   H19 6326   7.408   4.896   1.873  1.6270  0.2032 -0.5306
   15CHTO    C8 6327   7.522   5.019   2.014 -0.1492  0.5913 -0.2428
   15CHTO   H21 6328   7.529   5.035   2.122 -1.8238  1.6922 -0.2873
   15CHTO    O7 6329   7.459   5.130   1.942 -0.7066  0.1787 -0.3723
   15CHTO    H2 6330   7.515   5.200   1.916  1.0842 -1.8453 -2.2203
   15CHTO   C12 6331   7.669   4.988   1.963 -0.7019  1.0390 -1.2334
   15CHTO   H25 6332   7.664   4.999   1.852  1.9689  0.6055 -1.4366
   15CHTO    N3 6333   7.769   5.094   2.002  0.0491  0.0007 -0.5317
   15CHTO   H12 6334   7.837   5.055   2.076 -0.7255  0.7953  0.6182
   15CHTO   H13 6335   7.821   5.118   1.911  0.6929 -0.4817 -0.2912
   15CHTO   C15 6336   7.715   4.842   2.002  0.3423  0.1460  0.1695
   15CHTO   H28 6337   7.729   4.839   2.110 -0.8716  2.3840  0.4345
   15CHTO   O10 6338   7.844   4.811   1.925  0.4917  0.1812 -0.6896
   15CHTO    H4 6339   7.876   4.723   1.926 -2.8278 -1.1211  0.3938
   15CHTO    O5 6340   7.621   4.744   1.968  0.4189  0.4294 -0.8568
   15CHTO   C10 6341   7.484   4.762   2.020 -0.0765  1.1894  0.7802
   15CHTO   H23 6342   7.493   4.752   2.128  2.0705  1.9345  0.6944
   15CHTO   C17 6343   7.411   4.633   1.971  0.5126 -0.0583  0.2980
   15CHTO   O12 6344   7.272   4.639   1.990  0.0479  0.0383 -0.3649
   15CHTO    H6 6345   7.233   4.555   1.972  0.0118  0.3450 -1.7896
   16CHTO  H203 6346   4.267   4.531   0.790 -2.8900  0.1814 -1.0561
   16CHTO   O82 6347   4.266   4.448   0.747 -0.1152 -0.0320 -0.7905
   16CHTO  C123 6348   4.326   4.350   0.834  0.0893  0.2933 -0.2703
   16CHTO  H227 6349   4.271   4.256   0.826  0.9782 -0.4164  1.6329
   16CHTO   O77 6350   4.456   4.337   0.765 -0.5670 -0.4768  0.3669
   16CHTO  C118 6351   4.547   4.243   0.817  0.3093 -0.0462  0.7314
   16CHTO  H222 6352   4.490   4.150   0.807 -0.0978  0.2837 -0.0912
   16CHTO  C125 6353   4.675   4.228   0.725  0.4699 -0.0178  0.1119
   16CHTO   O84 6354   4.760   4.342   0.716  0.3211  0.0107 -0.3444
   16CHTO  H205 6355   4.818   4.349   0.790  1.5583  0.3567 -1.3254
   16CHTO  C114 6356   4.579   4.269   0.967 -0.4272  0.0098 -0.5297
   16CHTO  H218 6357   4.622   4.369   0.974  2.1008 -1.0522 -0.1449
   16CHTO  C116 6358   4.449   4.283   1.046  0.0173  0.3372 -0.9536
   16CHTO  H220 6359   4.391   4.188   1.053  0.2737  0.2983  1.0481
   16CHTO   O79 6360   4.478   4.303   1.187  0.3808  0.3443 -0.0897
   16CHTO  H201 6361   4.557   4.261   1.214  1.0369  1.9958  0.6045
   16CHTO  C120 6362   4.351   4.393   0.986  0.2525  0.2393 -0.6723
   16CHTO  H224 6363   4.404   4.490   0.979 -1.2041  1.0513 -0.7912
   16CHTO   N21 6364   4.220   4.410   1.052 -0.1077 -0.2287 -0.6307
   16CHTO  H211 6365   4.140   4.454   0.995 -0.7126 -2.2642 -1.4137
   16CHTO  H212 6366   4.225   4.466   1.144 -1.4085  1.3963 -1.5220
   16CHTO   O75 6367   4.659   4.163   1.020 -0.5081 -0.0333  0.4234
   16CHTO  C112 6368   4.783   4.186   1.105  0.2865  0.1387  0.1347
   16CHTO  H216 6369   4.772   4.289   1.142  1.8994  0.5461 -0.4355
   16CHTO   O73 6370   4.893   4.176   1.015  0.0623 -0.4833  0.0936
   16CHTO  C113 6371   5.009   4.242   1.067  0.3816  0.5257  0.3374
   16CHTO  H217 6372   4.984   4.346   1.096 -1.9092  1.1393 -3.4662
   16CHTO  C124 6373   5.118   4.252   0.958  0.0286  0.1823 -0.1114
   16CHTO   O83 6374   5.087   4.342   0.857 -0.0840  0.5111  0.5657
   16CHTO  H204 6375   5.138   4.421   0.857  0.1793  0.3477 -0.5377
   16CHTO  C109 6376   5.051   4.154   1.190 -0.5385  0.1801  0.0121
   16CHTO  H213 6377   5.085   4.057   1.152 -1.4204  0.2119 -0.8746
   16CHTO  C110 6378   4.932   4.131   1.298 -0.0607  0.0649  0.4298
   16CHTO  H214 6379   4.905   4.230   1.336 -2.5492  0.4255 -2.1240
   16CHTO   O78 6380   4.987   4.049   1.401 -0.0986  0.4279  0.6707
   16CHTO  H200 6381   4.917   4.046   1.463 -1.6626  0.3837 -1.0554
   16CHTO  C111 6382   4.806   4.083   1.224 -0.5005 -0.4699 -0.4013
   16CHTO  H215 6383   4.834   3.989   1.175  1.6927 -0.0982  0.0731
   16CHTO   N19 6384   4.683   4.050   1.311  0.0915  0.2476 -0.6978
   16CHTO  H207 6385   4.653   4.141   1.362  1.8421 -0.5953  1.9993
   16CHTO  H208 6386   4.591   4.024   1.261  0.1310  1.9330 -1.6694
   16CHTO   O74 6387   5.166   4.216   1.247  0.2736 -0.0068 -0.4547
   16CHTO  C115 6388   5.286   4.122   1.310  0.1330  0.2614  0.6141
   16CHTO  H219 6389   5.258   4.085   1.409 -3.5319  4.2058  1.1900
   16CHTO   O76 6390   5.310   4.002   1.225  0.5447 -0.3251  0.2099
   16CHTO  C122 6391   5.389   4.035   1.109  0.1750 -0.3164  0.3073
   16CHTO  H226 6392   5.334   4.121   1.072  2.5794  1.4719  0.7491
   16CHTO  C126 6393   5.373   3.923   1.006  0.2096 -0.3552 -0.5081
   16CHTO   O85 6394   5.458   3.954   0.891  0.4563  0.0640 -0.8528
   16CHTO  H206 6395   5.547   3.926   0.902 -0.0787 -1.1676  0.6749
   16CHTO  C121 6396   5.537   4.039   1.170 -0.2307  0.2475 -0.1561
   16CHTO  H225 6397   5.582   3.938   1.168  0.9051  0.7337  0.6873
   16CHTO   O81 6398   5.604   4.117   1.082 -0.5528  0.5685  0.2252
   16CHTO  H202 6399   5.677   4.162   1.121 -0.3142  0.9767 -0.6620
   16CHTO  C119 6400   5.541   4.094   1.313  0.1566  0.3227 -0.3551
   16CHTO  H223 6401   5.529   4.014   1.387 -0.1758  0.6018 -0.1108
   16CHTO  C117 6402   5.420   4.196   1.339  0.3663  0.1594 -0.0463
   16CHTO  H221 6403   5.418   4.285   1.276 -1.1654 -0.7393 -1.3038
   16CHTO   N20 6404   5.433   4.247   1.482  0.3395  0.2117 -0.5853
   16CHTO  H209 6405   5.362   4.322   1.514  0.0125  0.9813 -2.9870
   16CHTO  H210 6406   5.423   4.164   1.551 -0.2115  0.0037 -0.9122
   16CHTO   O80 6407   5.687   4.139   1.350 -0.5092  0.6073 -0.4979
   16CHTO  C103 6408   5.799   4.019   1.367  0.0165 -0.3489 -0.0967
   16CHTO  H190 6409   5.746   3.930   1.334 -0.7510 -0.0680  0.3732
   16CHTO  C101 6410   5.927   4.043   1.288  0.5798  0.3641  0.3608
   16CHTO  H188 6411   5.960   4.135   1.336  0.0098  0.2517  0.9762
   16CHTO   O68 6412   5.903   4.065   1.142  0.4774 -0.1782 -0.7222
   16CHTO  H168 6413   5.819   4.102   1.121 -0.7912 -1.6053  1.7251
   16CHTO   C99 6414   6.043   3.933   1.313 -0.0540  0.4654 -0.5181
   16CHTO  H186 6415   6.016   3.843   1.253  2.2164 -1.5657  1.4330
   16CHTO   N17 6416   6.178   3.973   1.258 -0.7133  0.1071  0.0394
   16CHTO  H174 6417   6.236   3.882   1.257  0.7589  1.0224 -1.4358
   16CHTO  H175 6418   6.230   4.048   1.316 -2.2619  0.1805  1.3596
   16CHTO   C97 6419   6.046   3.889   1.460 -0.0646  0.6569  0.6713
   16CHTO  H184 6420   6.122   3.944   1.516 -0.4216 -0.1076  1.9262
   16CHTO   O64 6421   5.915   3.888   1.528 -0.4674  0.5154 -0.1432
   16CHTO  C104 6422   5.843   4.005   1.522 -0.5210  0.4590  0.4499
   16CHTO  H191 6423   5.911   4.085   1.549  0.7618 -0.0660 -1.1707
   16CHTO  C108 6424   5.730   4.005   1.621  0.6629  0.1255  0.3856
   16CHTO   O71 6425   5.619   3.912   1.581  0.0115 -0.1538 -0.7782
   16CHTO  H171 6426   5.549   3.971   1.561 -1.5802 -2.3278 -1.8731
   16CHTO   O62 6427   6.086   3.748   1.468 -0.0948  0.6303  0.4449
   16CHTO   C91 6428   6.114   3.693   1.600  0.0080  0.9724  0.1508
   16CHTO  H178 6429   6.095   3.762   1.682  0.9081  0.6637  0.6331
   16CHTO   C92 6430   6.267   3.641   1.607 -0.8413  0.2869 -0.7979
   16CHTO  H179 6431   6.284   3.568   1.527 -1.1630 -0.4658 -0.1783
   16CHTO   O66 6432   6.346   3.763   1.583  0.5488 -0.4942 -0.1153
   16CHTO  H166 6433   6.369   3.765   1.492 -1.2023 -1.5214 -0.5928
   16CHTO   C93 6434   6.296   3.583   1.753  0.3036  0.2852  0.5985
   16CHTO  H180 6435   6.268   3.658   1.829 -1.2024  0.3475  0.0067
   16CHTO   N16 6436   6.443   3.555   1.780  0.2021 -0.6205 -0.0152
   16CHTO  H172 6437   6.504   3.585   1.697  1.4384 -1.5936  0.5126
   16CHTO  H173 6438   6.473   3.616   1.864  1.9170 -2.2453  0.5970
   16CHTO   C94 6439   6.197   3.451   1.772  0.2881 -0.5384  0.0644
   16CHTO  H181 6440   6.210   3.378   1.693 -3.0131 -1.6491  0.4699
   16CHTO   O61 6441   6.060   3.499   1.757  0.0489 -0.2439 -0.7588
   16CHTO   C95 6442   6.030   3.563   1.631  0.9426  0.3136  0.8336
   16CHTO  H182 6443   6.050   3.494   1.549 -0.6272  1.9765 -0.9687
   16CHTO  C106 6444   5.865   3.579   1.626  0.0789  0.3555 -0.2211
   16CHTO   O69 6445   5.829   3.627   1.494  0.8397 -0.0351 -0.0267
   16CHTO  H169 6446   5.777   3.704   1.507 -0.6343 -0.9151 -0.6204
   16CHTO   O63 6447   6.209   3.382   1.915 -0.4807 -0.2173 -0.1175
   16CHTO   C96 6448   6.088   3.266   1.956 -0.7112  0.2907  0.0227
   16CHTO  H183 6449   6.139   3.199   2.025 -1.2558  0.0273  0.1739
   16CHTO   C98 6450   6.017   3.188   1.838  0.5008 -0.2591  0.4781
   16CHTO  H185 6451   6.004   3.253   1.750  0.1004  0.2960  0.9416
   16CHTO   O67 6452   6.114   3.095   1.804 -0.6086 -0.0915  0.4127
   16CHTO  H167 6453   6.192   3.130   1.765  0.3897 -0.9756  1.5825
   16CHTO  C102 6454   5.876   3.107   1.878  0.4317 -0.6671  0.2310
   16CHTO  H189 6455   5.906   3.021   1.940 -0.3391 -0.4897  0.8654
   16CHTO   N18 6456   5.804   3.059   1.753 -0.7165 -0.2488 -0.6156
   16CHTO  H176 6457   5.876   3.040   1.675  0.9696  1.2570  0.5315
   16CHTO  H177 6458   5.744   3.140   1.714 -3.5428 -1.0699  1.8146
   16CHTO  C105 6459   5.791   3.201   1.967  0.0285  0.1440 -0.3258
   16CHTO  H192 6460   5.759   3.286   1.908 -1.5117 -0.4118 -0.3297
   16CHTO   O65 6461   5.869   3.237   2.081  0.3944  0.6918 -0.2693
   16CHTO  C100 6462   5.970   3.336   2.041 -0.2499 -0.5142 -0.0894
   16CHTO  H187 6463   5.915   3.412   1.984 -0.6161 -0.8811 -0.2305
   16CHTO  C107 6464   6.025   3.419   2.160  0.5958 -0.7172 -0.3500
   16CHTO   O70 6465   5.914   3.464   2.231  0.3168 -0.2417  0.5084
   16CHTO  H170 6466   5.935   3.471   2.322 -0.1284  0.2937  0.5780
   16CHTO   O57 6467   5.649   3.121   2.007 -0.4117 -0.0995  0.2662
   16CHTO   C85 6468   5.528   3.198   2.022 -0.4742 -0.0138  0.0196
   16CHTO  H157 6469   5.568   3.283   1.963 -0.6605  1.2967  1.7479
   16CHTO   C83 6470   5.503   3.248   2.168 -0.5846  0.1619 -0.2029
   16CHTO  H155 6471   5.590   3.303   2.203 -1.2414  2.3042 -1.8779
   16CHTO   O56 6472   5.487   3.126   2.254 -0.2713  0.1614  0.2585
   16CHTO  H135 6473   5.488   3.149   2.345  0.8377  0.2181  0.2490
   16CHTO   C81 6474   5.380   3.338   2.174 -0.9347  0.8224  0.6278
   16CHTO  H153 6475   5.393   3.425   2.109  2.0086  0.6249  0.8940
   16CHTO   N14 6476   5.362   3.399   2.306  0.1831  0.3452  0.5441
   16CHTO  H141 6477   5.260   3.431   2.316 -0.3457 -0.6810 -1.3297
   16CHTO  H142 6478   5.431   3.479   2.326 -0.0095  0.9993 -1.3391
   16CHTO   C79 6479   5.255   3.257   2.133  0.2774 -0.3791  0.0973
   16CHTO  H151 6480   5.171   3.326   2.139  2.3964  2.6534 -3.3725
   16CHTO   O52 6481   5.265   3.212   1.992 -0.0184  0.0498 -0.5191
   16CHTO   C86 6482   5.392   3.137   1.963  1.2462  0.5632 -0.0883
   16CHTO  H158 6483   5.366   3.040   2.010 -2.5994  0.1115 -2.9360
   16CHTO   C90 6484   5.407   3.115   1.807 -0.1941 -0.2941 -0.2541
   16CHTO   O60 6485   5.308   3.024   1.766  0.0461  0.1110 -0.3864
   16CHTO  H138 6486   5.228   3.071   1.781  0.2312 -0.3603  2.3834
   16CHTO   O50 6487   5.221   3.142   2.219  0.7638 -0.2797  0.2194
   16CHTO   C73 6488   5.124   3.044   2.259 -0.6443  0.6347  0.5347
   16CHTO  H145 6489   5.177   2.948   2.264 -2.4236 -0.3879 -0.0672
   16CHTO   C74 6490   5.004   3.027   2.158  0.2056  0.0558 -0.7905
   16CHTO  H146 6491   5.047   3.004   2.059  0.7664 -2.1015 -0.0907
   16CHTO   O54 6492   4.927   2.907   2.186 -0.0202  0.0604  0.0436
   16CHTO  H133 6493   4.935   2.891   2.278  1.8662 -1.6217 -0.3945
   16CHTO   C75 6494   4.917   3.162   2.152  0.1359 -0.4127  0.2689
   16CHTO  H147 6495   4.978   3.244   2.111  2.1063 -2.9081 -1.8927
   16CHTO   N13 6496   4.794   3.146   2.075 -0.2517 -0.4104  0.6178
   16CHTO  H139 6497   4.837   3.106   1.984 -0.7091  0.6187 -0.0561
   16CHTO  H140 6498   4.728   3.071   2.117  0.4462 -0.7224  1.1601
   16CHTO   C76 6499   4.877   3.202   2.303  0.5502  0.3290 -0.2575
   16CHTO  H148 6500   4.800   3.133   2.339  1.1332 -0.7978 -1.1467
   16CHTO   O49 6501   4.996   3.202   2.386 -0.1529 -0.0582 -0.3763
   16CHTO   C77 6502   5.061   3.070   2.394 -0.1555  0.1758 -0.7059
   16CHTO  H149 6503   5.003   2.984   2.427  2.4200 -1.2911  0.1294
   16CHTO   C88 6504   5.163   3.076   2.509  0.3280 -0.5559 -0.3220
   16CHTO   O58 6505   5.098   3.085   2.651  0.1659 -0.1176 -0.6501
   16CHTO  H136 6506   5.041   3.160   2.651  0.1225 -0.1262  0.9027
   16CHTO   O51 6507   4.819   3.364   2.312 -0.7354 -0.1670  0.2724
   16CHTO   C78 6508   4.870   3.452   2.426  0.0625  0.2496 -0.4571
   16CHTO  H150 6509   4.969   3.420   2.465 -1.0011 -2.2249  0.2856
   16CHTO   C80 6510   4.764   3.446   2.538  0.4028 -0.9006 -0.1149
   16CHTO  H152 6511   4.668   3.484   2.495  1.6883  1.8967 -0.6551
   16CHTO   O55 6512   4.765   3.317   2.592 -0.1137  0.0063 -0.1142
   16CHTO  H134 6513   4.710   3.304   2.667 -0.3657  1.1884 -0.0877
   16CHTO   C84 6514   4.804   3.555   2.648 -0.2184 -0.2574  0.1230
   16CHTO  H156 6515   4.894   3.521   2.699  0.3145  0.3549 -0.4099
   16CHTO   N15 6516   4.690   3.558   2.751  0.1411  0.4749 -0.0374
   16CHTO  H143 6517   4.730   3.616   2.832 -0.9394  0.6343  0.3849
   16CHTO  H144 6518   4.609   3.613   2.708 -1.4233 -0.7621  1.2372
   16CHTO   C87 6519   4.829   3.695   2.583 -0.4616  0.3681 -0.4461
   16CHTO  H159 6520   4.733   3.736   2.553 -1.2736 -1.5041 -0.5283
   16CHTO   O53 6521   4.924   3.685   2.466  0.3304  0.6065 -0.5584
   16CHTO   C82 6522   4.878   3.593   2.367 -0.3535 -0.1476  0.5685
   16CHTO  H154 6523   4.779   3.624   2.333  0.8196  1.2602 -1.7079
   16CHTO   C89 6524   4.973   3.606   2.245 -0.6561  0.0310 -0.1434
   16CHTO   O59 6525   5.107   3.580   2.288 -0.2456  0.1284 -0.0634
   16CHTO  H137 6526   5.108   3.495   2.328 -1.6361  0.7807  1.4235
   16CHTO   O45 6527   4.927   3.787   2.687 -0.1075  0.4723 -0.1891
   16CHTO   C67 6528   4.964   3.922   2.657  0.2958 -0.1127  0.7610
   16CHTO  H124 6529   5.046   3.918   2.585 -0.0987  1.9166  0.1512
   16CHTO   C65 6530   4.851   4.006   2.590 -0.0845 -0.4044  0.3061
   16CHTO  H122 6531   4.756   3.968   2.628  0.4103 -0.9830  0.9843
   16CHTO   O44 6532   4.853   3.979   2.448 -0.7907  0.2299  0.2967
   16CHTO  H102 6533   4.914   4.040   2.411 -1.9080  1.5044  0.4861
   16CHTO   C63 6534   4.861   4.157   2.641 -0.0984 -0.1181 -0.2879
   16CHTO  H120 6535   4.817   4.153   2.741 -2.2820 -2.0116 -1.2947
   16CHTO   N11 6536   4.773   4.254   2.570 -0.1680 -0.3275 -0.0746
   16CHTO  H108 6537   4.825   4.299   2.487 -1.0482  1.6155  0.3906
   16CHTO  H109 6538   4.742   4.328   2.641  1.7599  0.8068 -0.3645
   16CHTO   C61 6539   5.012   4.202   2.663 -0.6114 -0.2537 -0.3812
   16CHTO  H118 6540   5.000   4.302   2.706  0.9768 -0.4862  0.6778
   16CHTO   O40 6541   5.076   4.123   2.762  0.4000  0.4469 -0.2972
   16CHTO   C68 6542   5.026   3.989   2.785 -0.3842 -0.4362 -0.2916
   16CHTO  H125 6543   4.947   3.986   2.864  1.2053 -0.8610  1.3166
   16CHTO   C72 6544   5.147   3.904   2.836 -0.1248  0.3477  0.0434
   16CHTO   O48 6545   5.216   3.941   2.956 -0.0990 -0.5479  0.4867
   16CHTO  H105 6546   5.296   3.895   2.968  0.7295  0.8073  0.2436
   16CHTO   O38 6547   5.085   4.205   2.537  0.0401  0.1293  0.4084
   16CHTO   C55 6548   5.229   4.203   2.532  0.2226  0.0856 -0.8671
   16CHTO  H112 6549   5.257   4.121   2.599 -1.1396 -0.0231 -0.4339
   16CHTO   C56 6550   5.303   4.341   2.577  1.0796  0.7002  0.7347
   16CHTO  H113 6551   5.248   4.422   2.527 -1.5564 -0.3787  1.7829
   16CHTO   O42 6552   5.268   4.360   2.716 -1.1870 -0.0274 -0.1857
   16CHTO  H100 6553   5.189   4.407   2.730 -0.4377  0.5205  2.5232
   16CHTO   C57 6554   5.455   4.347   2.563 -0.8658  0.0045 -0.1028
   16CHTO  H114 6555   5.496   4.290   2.646 -4.2358 -1.2074  0.8239
   16CHTO   N10 6556   5.519   4.483   2.566  0.0431  0.1593  0.5726
   16CHTO  H106 6557   5.473   4.536   2.648 -0.5588  0.4014  0.0810
   16CHTO  H107 6558   5.625   4.486   2.584  0.4231 -1.9147 -1.0921
   16CHTO   C58 6559   5.502   4.276   2.432  0.1261  0.3795  0.3858
   16CHTO  H115 6560   5.495   4.344   2.345  0.0158 -0.8941 -0.6150
   16CHTO   O37 6561   5.426   4.152   2.407 -0.5298  0.4144  0.1209
   16CHTO   C59 6562   5.284   4.157   2.392  0.0405  0.1892  0.6281
   16CHTO  H116 6563   5.261   4.227   2.312 -0.3086 -0.1484  0.4316
   16CHTO   C70 6564   5.239   4.019   2.349  0.0935  0.2971  0.1088
   16CHTO   O46 6565   5.145   4.018   2.236 -0.2178 -0.2827  0.3410
   16CHTO  H103 6566   5.072   4.070   2.264  0.3142  0.6070  0.0820
   16CHTO   O39 6567   5.657   4.232   2.461 -0.2892  0.1596  0.3956
   16CHTO   C60 6568   5.739   4.249   2.343 -0.8361 -0.4827 -0.0594
   16CHTO  H117 6569   5.685   4.298   2.262  0.0905  0.6050 -0.0398
   16CHTO   C62 6570   5.857   4.352   2.379  0.1140 -0.3222  0.1811
   16CHTO  H119 6571   5.810   4.449   2.403 -1.5021 -1.3512  1.2803
   16CHTO   O43 6572   5.929   4.305   2.494 -0.3386  0.2650 -0.9099
   16CHTO  H101 6573   5.867   4.304   2.564 -3.1090 -0.2262 -3.2538
   16CHTO   C66 6574   5.938   4.373   2.244  0.1221 -0.0721  0.1431
   16CHTO  H123 6575   5.869   4.406   2.166 -1.2704 -1.9260  0.5469
   16CHTO   N12 6576   6.053   4.469   2.255 -0.1045  0.0932 -0.0706
   16CHTO  H110 6577   6.117   4.465   2.168  1.0595  1.0612  0.7097
   16CHTO  H111 6578   6.109   4.459   2.347 -0.4889 -0.1193  0.1401
   16CHTO   C69 6579   5.997   4.238   2.188 -0.6051  0.2313  0.7292
   16CHTO  H126 6580   6.063   4.188   2.261  0.0762  1.1129  0.7257
   16CHTO   O41 6581   5.878   4.150   2.153 -0.7768  0.3434  0.0115
   16CHTO   C64 6582   5.804   4.116   2.284 -1.1506  0.5406 -0.2119
   16CHTO  H121 6583   5.873   4.070   2.359  0.9213  2.7118 -0.6980
   16CHTO   C71 6584   5.694   4.017   2.247 -0.1107  0.0007  1.4506
   16CHTO   O47 6585   5.765   3.895   2.213 -0.5975 -0.4826 -0.0131
   16CHTO  H104 6586   5.810   3.892   2.130  0.5946 -2.7574  0.6853
   16CHTO   O34 6587   6.087   4.244   2.060  0.2115  0.1633  0.3182
   16CHTO   C49 6588   6.183   4.126   2.043 -0.1008  0.1165 -0.0419
   16CHTO   H91 6589   6.166   4.055   2.124  1.4004  1.7835  1.8085
   16CHTO   C47 6590   6.325   4.187   2.045 -0.7446 -0.5412  0.4504
   16CHTO   H89 6591   6.356   4.187   2.151 -1.8084 -0.0982  0.7743
   16CHTO   O33 6592   6.328   4.322   1.998 -0.2085  0.1598  0.1659
   16CHTO   H70 6593   6.278   4.377   2.056 -0.0593 -0.1663  0.6018
   16CHTO   C45 6594   6.430   4.090   1.952 -0.7099 -0.6078  0.1108
   16CHTO   H87 6595   6.422   4.136   1.852 -0.8340  0.0108  0.4090
   16CHTO    N8 6596   6.568   4.114   2.001  0.2451  0.1839 -0.5297
   16CHTO   H75 6597   6.581   4.221   2.014  1.8530  0.1389 -1.6134
   16CHTO   H76 6598   6.652   4.078   1.944  0.4046  1.6189 -1.2263
   16CHTO   C43 6599   6.376   3.933   1.936 -0.0859 -0.0155 -0.0906
   16CHTO   H85 6600   6.448   3.884   1.871  1.5569  0.6867  1.1748
   16CHTO   O29 6601   6.245   3.935   1.880  0.0306  0.3412  0.7836
   16CHTO   C50 6602   6.159   4.047   1.910  0.4829 -0.4726 -0.2170
   16CHTO   H92 6603   6.176   4.123   1.832 -0.4510 -1.5000 -1.4379
   16CHTO   C54 6604   6.013   4.014   1.877 -0.6359 -0.3556  0.8118
   16CHTO   O36 6605   5.947   3.932   1.973 -0.2625  0.2249  0.3617
   16CHTO   H72 6606   5.878   3.890   1.925 -0.3116  1.7566 -0.9699
   16CHTO   O27 6607   6.369   3.864   2.063 -0.4914  0.1087  0.6028
   16CHTO   C37 6608   6.430   3.813   2.178  0.2934 -0.4159 -0.4811
   16CHTO   H79 6609   6.476   3.891   2.241  0.3319 -0.5951 -0.2852
   16CHTO   C38 6610   6.308   3.758   2.256  0.0776  0.3433 -0.0666
   16CHTO   H80 6611   6.241   3.704   2.188 -0.0922  0.2976  0.1346
   16CHTO   O31 6612   6.239   3.871   2.313 -0.1132  0.0908 -0.2067
   16CHTO   H68 6613   6.218   3.929   2.242 -1.2222 -0.0823 -0.0225
   16CHTO   C39 6614   6.349   3.658   2.377 -0.3657  0.5035 -0.2973
   16CHTO   H81 6615   6.389   3.720   2.457 -3.5974  0.8526  1.1075
   16CHTO    N7 6616   6.233   3.576   2.429 -0.2103 -0.1170  0.8640
   16CHTO   H73 6617   6.190   3.609   2.522  2.9681 -3.1855  3.5484
   16CHTO   H74 6618   6.258   3.471   2.431  0.8839  0.1302  0.8515
   16CHTO   C40 6619   6.464   3.567   2.326 -0.5052 -0.1469 -0.1896
   16CHTO   H82 6620   6.425   3.503   2.247  0.6365  1.3175 -2.0088
   16CHTO   O26 6621   6.564   3.649   2.276 -0.0736  0.0812 -0.1451
   16CHTO   C41 6622   6.540   3.707   2.145  0.0160  0.4086  0.5314
   16CHTO   H83 6623   6.494   3.636   2.076  0.5842  0.2401  0.3217
   16CHTO   C52 6624   6.663   3.773   2.079  0.1717  0.1065  0.1290
   16CHTO   O35 6625   6.778   3.671   2.036  0.1474 -0.4407  0.1101
   16CHTO   H71 6626   6.852   3.727   2.027 -1.2376  1.7644  1.7254
   16CHTO   O28 6627   6.512   3.478   2.429 -0.0595 -0.8361 -0.1350
   16CHTO   C42 6628   6.546   3.335   2.397  0.1942 -0.3936 -0.1224
   16CHTO   H84 6629   6.605   3.299   2.482  1.1270 -0.8382 -0.9607
   16CHTO   C44 6630   6.633   3.312   2.270  0.8788  0.5836 -0.3117
   16CHTO   H86 6631   6.591   3.379   2.194  1.5430  0.4645 -0.7889
   16CHTO   O32 6632   6.767   3.367   2.299  0.1082  0.3937  0.3055
   16CHTO   H69 6633   6.802   3.332   2.379  0.6503  3.9317  1.7031
   16CHTO   C48 6634   6.634   3.165   2.212 -0.1846  1.5549 -0.0488
   16CHTO   H90 6635   6.722   3.124   2.261 -0.6057  0.2384 -0.3851
   16CHTO    N9 6636   6.684   3.159   2.073 -0.0902  0.0356 -0.2719
   16CHTO   H77 6637   6.646   3.234   2.005  1.2490  0.0996 -0.9646
   16CHTO   H78 6638   6.666   3.056   2.044  0.0924 -0.5219  1.5210
   16CHTO   C51 6639   6.489   3.100   2.226 -0.0504  0.0174  0.5362
   16CHTO   H93 6640   6.421   3.160   2.167  2.1360  2.3324  0.2848
   16CHTO   O30 6641   6.455   3.108   2.368  0.6290  0.2283 -0.1724
   16CHTO   C46 6642   6.411   3.245   2.390 -0.3556 -0.2809 -0.1480
   16CHTO   H88 6643   6.339   3.280   2.316 -1.7915 -2.1897  0.3063
   16CHTO   C53 6644   6.337   3.253   2.527  0.6415 -0.2670  0.1344
   16CHTO   O72 6645   6.227   3.165   2.556 -0.4680 -0.4009  0.0769
   16CHTO  H199 6646   6.185   3.123   2.483 -2.4977  0.8460  0.4885
   16CHTO   O22 6647   6.492   2.958   2.194  0.3121 -0.1594 -0.2957
   16CHTO   C31 6648   6.396   2.852   2.211  0.3463 -0.3028 -0.2036
   16CHTO   H59 6649   6.357   2.867   2.314  2.1281  0.2765  0.4143
   16CHTO   C29 6650   6.283   2.859   2.113 -0.5803  0.4217  0.4477
   16CHTO   H57 6651   6.337   2.867   2.018 -0.8839 -1.0808  0.1428
   16CHTO   O21 6652   6.209   2.984   2.131 -0.2754 -0.7874 -0.2046
   16CHTO   H37 6653   6.122   2.987   2.097  0.2240  2.2271 -1.3736
   16CHTO   C27 6654   6.178   2.733   2.108 -0.1387  0.0225  0.0348
   16CHTO   H55 6655   6.107   2.742   2.192 -1.7647  1.5835 -1.4758
   16CHTO    N5 6656   6.096   2.741   1.975  0.1642 -0.6320 -0.0734
   16CHTO   H43 6657   6.074   2.844   1.950 -0.4649 -0.5601  0.7217
   16CHTO   H44 6658   6.138   2.683   1.895 -0.3154  0.5053 -1.1602
   16CHTO   C25 6659   6.249   2.595   2.124 -0.3688  0.1823  0.0111
   16CHTO   H53 6660   6.314   2.579   2.036 -1.7973 -0.0682 -1.0073
   16CHTO   O17 6661   6.356   2.608   2.232  0.2041  0.0473 -0.3849
   16CHTO   C32 6662   6.449   2.704   2.214  0.0984  0.4889  0.5237
   16CHTO   H60 6663   6.496   2.690   2.116 -2.8117  2.1440 -1.1752
   16CHTO   C36 6664   6.559   2.686   2.318  0.2952  0.1500  0.1121
   16CHTO   O25 6665   6.683   2.761   2.288  0.0919 -0.0621 -0.4255
   16CHTO   H40 6666   6.699   2.733   2.199  0.5067 -2.5425  0.3763
   16CHTO   O15 6667   6.151   2.490   2.138  0.0000  0.4108 -0.2624
   16CHTO   C19 6668   6.042   2.430   2.208 -0.1792  0.1784 -0.3865
   16CHTO   H47 6669   6.067   2.323   2.207 -1.0333 -0.0385 -2.3235
   16CHTO   C20 6670   6.043   2.468   2.362  0.1196 -0.8365  0.0526
   16CHTO   H48 6671   6.023   2.575   2.381 -0.2319 -0.7478 -0.8452
   16CHTO   O19 6672   6.179   2.448   2.412  0.0924 -0.8102  0.2076
   16CHTO   H35 6673   6.197   2.357   2.401 -1.5649 -0.9366 -1.9617
   16CHTO   C21 6674   5.933   2.387   2.449 -0.0116 -0.0610  0.3685
   16CHTO   H49 6675   5.966   2.283   2.455  2.6444  0.8947  3.7534
   16CHTO    N4 6676   5.919   2.422   2.586  0.0157 -0.2400 -0.0112
   16CHTO   H41 6677   5.994   2.495   2.614 -2.1160  1.7483  0.7052
   16CHTO   H42 6678   5.922   2.339   2.655  1.5648  0.4694  0.8132
   16CHTO   C22 6679   5.802   2.400   2.367  0.8640  0.1019  0.1573
   16CHTO   H50 6680   5.752   2.496   2.375  1.6006  0.5358 -0.4145
   16CHTO   O14 6681   5.814   2.372   2.226  0.4923  0.1844  0.3707
   16CHTO   C23 6682   5.900   2.444   2.143  0.4297  0.0819 -0.0617
   16CHTO   H51 6683   5.868   2.549   2.136 -1.8884 -0.5342  0.8008
   16CHTO   C34 6684   5.891   2.379   1.999 -0.0899  0.3749  0.3709
   16CHTO   O23 6685   5.774   2.405   1.927  0.2599  0.1608 -0.0729
   16CHTO   H38 6686   5.776   2.377   1.837  0.3831 -0.0388 -0.0077
   16CHTO   O16 6687   5.702   2.295   2.410  0.0717  0.3515  0.3141
   16CHTO   C24 6688   5.595   2.230   2.303 -0.3969 -0.3564  0.1478
   16CHTO   H52 6689   5.623   2.237   2.198 -6.6217  0.0566 -1.7203
   16CHTO   C26 6690   5.460   2.305   2.338 -0.7941 -0.3148  0.1653
   16CHTO   H54 6691   5.441   2.310   2.447 -0.8114  2.1838  0.0715
   16CHTO   O20 6692   5.481   2.437   2.290  0.3883 -0.4752 -0.2554
   16CHTO   H36 6693   5.525   2.491   2.352 -2.3216  0.4641  0.9312
   16CHTO   C30 6694   5.333   2.241   2.273 -0.4736 -0.0791  0.4855
   16CHTO   H58 6695   5.339   2.261   2.165 -0.7794 -0.6486  0.3568
   16CHTO    N6 6696   5.205   2.308   2.321  0.5273  0.3689  0.5071
   16CHTO   H45 6697   5.186   2.290   2.425 -2.2582 -0.2586 -0.0723
   16CHTO   H46 6698   5.126   2.255   2.270  0.4124  1.3457 -0.3634
   16CHTO   C33 6699   5.344   2.087   2.288 -0.0290 -0.1106  0.7472
   16CHTO   H61 6700   5.330   2.060   2.394  0.6715  0.5022  1.0015
   16CHTO   O18 6701   5.475   2.029   2.253 -0.1561  0.4655  0.3849
   16CHTO   C28 6702   5.580   2.082   2.335  0.1856 -0.1009  0.0556
   16CHTO   H56 6703   5.560   2.074   2.442  0.2116 -1.6167 -0.0426
   16CHTO   C35 6704   5.715   2.013   2.310 -0.3273 -0.4449  0.1999
   16CHTO   O24 6705   5.832   2.039   2.394  0.2091  0.2113  0.0854
   16CHTO   H39 6706   5.818   2.108   2.456  2.1467  1.6402 -1.0054
   16CHTO    O9 6707   5.233   2.025   2.212 -0.7339  0.1817 -0.0367
   16CHTO   C13 6708   5.216   1.870   2.248  0.1469  0.3978  0.4124
   16CHTO   H26 6709   5.228   1.855   2.358  1.2273 -0.3088  0.2091
   16CHTO   C11 6710   5.316   1.782   2.169  0.0224 -0.3453 -0.3365
   16CHTO   H24 6711   5.421   1.809   2.184 -0.1217 -0.3580  0.7447
   16CHTO    O8 6712   5.286   1.803   2.020  0.5294  0.2879  0.5234
   16CHTO    H3 6713   5.320   1.740   1.958  0.4700  1.1492 -0.3970
   16CHTO    C9 6714   5.298   1.633   2.222 -0.1044 -0.3894 -0.2766
   16CHTO   H22 6715   5.355   1.627   2.316 -1.5657 -0.1206  0.6427
   16CHTO    N2 6716   5.371   1.532   2.146  0.4261  0.1549  0.4151
   16CHTO   H10 6717   5.452   1.575   2.089 -0.1915  0.3343 -0.3406
   16CHTO   H11 6718   5.401   1.447   2.204  0.2132 -2.3650 -2.9957
   16CHTO    C7 6719   5.146   1.599   2.243  0.7964  0.3070 -0.7937
   16CHTO   H20 6720   5.129   1.609   2.353 -1.8917 -1.6198 -0.9689
   16CHTO    O4 6721   5.062   1.690   2.177  0.3214 -1.3582 -0.2491
   16CHTO   C14 6722   5.065   1.828   2.218  0.4241  0.4642 -0.7139
   16CHTO   H27 6723   5.004   1.840   2.309 -1.7898 -0.2391 -2.0641
   16CHTO   C18 6724   4.991   1.908   2.099 -0.2562 -0.5303 -0.2620
   16CHTO   O13 6725   4.849   1.889   2.091 -0.1540 -0.4159  0.7878
   16CHTO    H7 6726   4.819   1.874   2.003  1.0463  0.3427  0.2361
   16CHTO    O2 6727   5.092   1.448   2.204  0.2846 -0.7034 -0.4710
   16CHTO    C1 6728   4.977   1.402   2.273 -0.4961 -1.1296 -0.2244
   16CHTO   H14 6729   4.944   1.307   2.226 -2.1600 -0.4512 -0.4479
   16CHTO    C2 6730   4.849   1.498   2.275  0.1389  0.7670  0.2941
   16CHTO   H15 6731   4.882   1.592   2.322 -0.4377  0.2918  1.6675
   16CHTO    O6 6732   4.811   1.519   2.140 -1.0445 -0.0189  0.1599
   16CHTO    H1 6733   4.774   1.606   2.137  1.2328  1.0603  1.5346
   16CHTO    C3 6734   4.735   1.421   2.351  0.7311 -0.1016  0.2798
   16CHTO   H16 6735   4.702   1.327   2.304  0.4244  0.1815 -0.0735
   16CHTO    N1 6736   4.614   1.509   2.366  0.4314 -0.5421  0.0583
   16CHTO    H8 6737   4.528   1.444   2.371 -1.1265  1.3151 -1.4623
   16CHTO    H9 6738   4.601   1.575   2.281 -1.4745 -1.5866 -0.4796
   16CHTO    C4 6739   4.788   1.380   2.495  0.4825 -0.0443  0.4663
   16CHTO   H17 6740   4.815   1.469   2.553  1.1051 -0.4737  0.8440
   16CHTO    O1 6741   4.906   1.298   2.483  0.7913  0.3627 -0.2475
   16CHTO    C5 6742   5.014   1.357   2.414  0.0208  0.3325 -0.2219
   16CHTO   H18 6743   5.060   1.439   2.469  1.5861 -0.3140 -0.5455
   16CHTO   C16 6744   5.116   1.241   2.394 -0.3226 -0.0893  0.0916
   16CHTO   O11 6745   5.154   1.182   2.512  0.2813 -0.2634  0.4622
   16CHTO    H5 6746   5.246   1.188   2.529  0.0600  0.9028  1.2677
   16CHTO    O3 6747   4.696   1.289   2.556  0.1908 -0.7273  0.0039
   16CHTO    C6 6748   4.696   1.281   2.703 -0.1369 -0.1241 -0.1928
   16CHTO   H19 6749   4.795   1.302   2.743 -0.2584  1.9088 -0.8850
   16CHTO    C8 6750   4.603   1.391   2.765 -0.0961  0.0737 -0.9064
   16CHTO   H21 6751   4.503   1.376   2.723 -0.3424  2.0795 -1.0898
   16CHTO    O7 6752   4.660   1.521   2.742 -0.0694 -0.5327 -0.6141
   16CHTO    H2 6753   4.741   1.506   2.696  1.0076  1.1761  0.6790
   16CHTO   C12 6754   4.588   1.371   2.919 -0.0669  0.4800 -0.6096
   16CHTO   H25 6755   4.685   1.388   2.971  0.3609 -2.6701 -0.2445
   16CHTO    N3 6756   4.491   1.467   2.989 -0.4749  0.6026  0.4693
   16CHTO   H12 6757   4.425   1.408   3.050 -0.7309  0.6306  0.2248
   16CHTO   H13 6758   4.443   1.537   2.921  0.5782 -0.4081 -1.3587
   16CHTO   C15 6759   4.544   1.224   2.945 -0.0179 -0.0144 -0.0479
   16CHTO   H28 6760   4.452   1.202   2.891  0.8252  0.1365 -1.5781
   16CHTO   O10 6761   4.531   1.180   3.101 -0.3198 -0.4715  0.5005
   16CHTO    H4 6762   4.598   1.224   3.150 -0.3924  0.0023  0.1665
   16CHTO    O5 6763   4.653   1.141   2.900 -0.4606  0.2570 -0.8028
   16CHTO   C10 6764   4.658   1.137   2.756 -0.1120 -0.2216 -0.2120
   16CHTO   H23 6765   4.559   1.116   2.716 -0.1158 -0.7332  0.0594
   16CHTO   C17 6766   4.756   1.034   2.705 -0.8092 -0.0204  0.2059
   16CHTO   O12 6767   4.715   0.904   2.759  0.0008 -0.0438  0.0838
   16CHTO    H6 6768   4.777   0.841   2.725 -1.0266 -0.4984 -0.9827
   17CHTO  H203 6769   3.820   5.551   0.923 -1.3765  0.6792 -1.0273
   17CHTO   O82 6770   3.788   5.543   1.011 -0.0183  0.1294 -0.5699
   17CHTO  C123 6771   3.872   5.609   1.112  0.5531 -0.0395 -0.1274
   17CHTO  H227 6772   3.832   5.583   1.211 -1.1481  1.3208 -0.4332
   17CHTO   O77 6773   4.002   5.537   1.099  0.5521  0.1982  0.2078
   17CHTO  C118 6774   4.094   5.555   1.202 -0.9178  0.8647 -0.6718
   17CHTO  H222 6775   4.060   5.535   1.304  0.6969  2.5548  0.2309
   17CHTO  C125 6776   4.211   5.456   1.174 -0.5976  0.0598 -0.5829
   17CHTO   O84 6777   4.297   5.426   1.274 -0.1872  0.0035 -0.0564
   17CHTO  H205 6778   4.321   5.336   1.263  0.4607  0.2270 -0.4845
   17CHTO  C114 6779   4.138   5.699   1.188  0.4587  0.7473  0.4826
   17CHTO  H218 6780   4.199   5.705   1.097  0.2782 -2.2026  0.1327
   17CHTO  C116 6781   4.020   5.803   1.182 -0.8205  0.2403  0.0364
   17CHTO  H220 6782   3.984   5.817   1.286  0.0928 -0.2373  0.4245
   17CHTO   O79 6783   4.075   5.930   1.149  0.0392 -0.1274 -0.5886
   17CHTO  H201 6784   4.012   5.996   1.128 -0.6130 -1.4039 -2.7269
   17CHTO  C120 6785   3.896   5.759   1.091 -0.3278 -0.5796  0.0965
   17CHTO  H224 6786   3.929   5.766   0.985  0.7504 -1.8851  0.3247
   17CHTO   N21 6787   3.772   5.835   1.130 -0.2273  0.7738 -0.4922
   17CHTO  H211 6788   3.771   5.835   1.238 -1.6241 -1.1288 -0.4778
   17CHTO  H212 6789   3.762   5.932   1.084  0.6275  0.3585 -1.5870
   17CHTO   O75 6790   4.228   5.712   1.299  0.0886  0.1500 -0.6051
   17CHTO  C112 6791   4.321   5.838   1.320 -0.0036 -0.6545 -0.4871
   17CHTO  H216 6792   4.260   5.928   1.334  1.3654  0.3166 -0.7082
   17CHTO   O73 6793   4.406   5.848   1.211  0.2371  0.0926 -0.3489
   17CHTO  C113 6794   4.473   5.971   1.212 -0.0716 -0.2645 -0.4266
   17CHTO  H217 6795   4.395   6.050   1.215 -1.1887 -1.3452 -0.4481
   17CHTO  C124 6796   4.545   5.988   1.084 -0.2923 -0.1124  0.0509
   17CHTO   O83 6797   4.668   5.914   1.069 -0.3327 -0.1740  0.3223
   17CHTO  H204 6798   4.659   5.836   1.018  1.6227  0.5239 -1.1363
   17CHTO  C109 6799   4.563   5.999   1.338 -0.2376  0.0895 -0.8187
   17CHTO  H213 6800   4.657   5.943   1.324  0.5388  0.4883  2.3307
   17CHTO  C110 6801   4.497   5.950   1.464 -0.4537 -0.0988 -0.0413
   17CHTO  H214 6802   4.429   6.031   1.489 -0.3511 -0.2639  0.7851
   17CHTO   O78 6803   4.605   5.939   1.561 -0.0557 -0.5904  0.0006
   17CHTO  H200 6804   4.575   5.935   1.650  1.3928 -0.4592  0.5124
   17CHTO  C111 6805   4.412   5.821   1.444  0.7166 -0.9846 -0.3684
   17CHTO  H215 6806   4.478   5.736   1.423  0.1641 -0.9064 -2.5579
   17CHTO   N19 6807   4.336   5.792   1.570 -0.6767 -0.2925  0.3891
   17CHTO  H207 6808   4.353   5.693   1.609 -0.3659  0.6281  2.6634
   17CHTO  H208 6809   4.352   5.867   1.646  0.0537 -1.0955  1.0360
   17CHTO   O74 6810   4.603   6.132   1.350 -0.4086 -0.4413 -0.1650
   17CHTO  C115 6811   4.752   6.177   1.371  0.5488 -0.0609 -0.3111
   17CHTO  H219 6812   4.758   6.260   1.441 -1.3725  0.3900 -0.6633
   17CHTO   O76 6813   4.846   6.057   1.436 -0.0416  0.7237  0.2978
   17CHTO  C122 6814   4.989   6.085   1.429 -0.4501  0.6055 -0.0341
   17CHTO  H226 6815   5.042   5.999   1.471 -2.0521 -0.7004 -0.6496
   17CHTO  C126 6816   5.023   6.197   1.527 -0.1306  0.0337 -0.2864
   17CHTO   O85 6817   5.158   6.250   1.517 -0.7744  0.0294  0.0977
   17CHTO  H206 6818   5.161   6.330   1.567  0.8338  0.7341 -1.0988
   17CHTO  C121 6819   5.027   6.122   1.276 -0.5537  0.2973 -0.0419
   17CHTO  H225 6820   5.134   6.149   1.287 -0.0664 -1.0353 -1.3734
   17CHTO   O81 6821   5.005   6.003   1.196 -0.7730  0.2681 -0.7925
   17CHTO  H202 6822   4.919   5.994   1.159 -1.0492 -0.1000 -0.0657
   17CHTO  C119 6823   4.954   6.243   1.226  0.2387 -0.3535 -0.1446
   17CHTO  H223 6824   4.986   6.318   1.299  1.5263 -0.5656 -0.4867
   17CHTO  C117 6825   4.793   6.240   1.231  0.7056  0.0246  0.0845
   17CHTO  H221 6826   4.741   6.178   1.158 -0.7976  1.2934  0.0541
   17CHTO   N20 6827   4.730   6.377   1.216 -0.0961 -0.1995 -0.0934
   17CHTO  H209 6828   4.736   6.437   1.306 -1.3441 -0.3370  0.0939
   17CHTO  H210 6829   4.638   6.380   1.160 -0.3785 -0.1881  0.3621
   17CHTO   O80 6830   5.005   6.296   1.102  0.3075  0.0396 -0.1393
   17CHTO  C103 6831   5.151   6.381   1.093  0.2232  0.5455 -0.1784
   17CHTO  H190 6832   5.178   6.415   1.193 -0.1245 -0.8430  0.4095
   17CHTO  C101 6833   5.269   6.308   1.030 -0.3180  0.0209  0.7768
   17CHTO  H188 6834   5.238   6.245   0.946 -0.1106  0.0655  0.6650
   17CHTO   O68 6835   5.332   6.195   1.149  0.4358 -0.0231 -0.1790
   17CHTO  H168 6836   5.402   6.143   1.113  0.1291 -1.9387  1.9101
   17CHTO   C99 6837   5.383   6.409   0.986 -0.4975 -0.2365 -0.3472
   17CHTO  H186 6838   5.428   6.457   1.075 -0.4913  0.8715 -0.9502
   17CHTO   N17 6839   5.496   6.340   0.911 -0.0452  0.2018 -0.2823
   17CHTO  H174 6840   5.570   6.418   0.898 -1.6311  2.4494  3.3530
   17CHTO  H175 6841   5.530   6.250   0.960  0.5102  0.3640 -0.3608
   17CHTO   C97 6842   5.317   6.527   0.904  0.0157 -0.2231  0.2450
   17CHTO  H184 6843   5.283   6.485   0.808  1.9604  1.5875 -1.2709
   17CHTO   O64 6844   5.212   6.587   0.979  0.3536  0.2067  0.1177
   17CHTO  C104 6845   5.104   6.503   1.006  0.7515  0.0807  0.1631
   17CHTO  H191 6846   5.066   6.464   0.912 -0.3229  1.3124  0.0661
   17CHTO  C108 6847   4.986   6.593   1.071  0.1888  0.0499  0.3858
   17CHTO   O71 6848   4.913   6.679   0.988 -0.3549 -0.3583  1.0881
   17CHTO  H171 6849   4.902   6.646   0.900 -0.4536 -0.6559  1.2093
   17CHTO   O62 6850   5.411   6.632   0.880 -0.7249 -0.2219 -0.6250
   17CHTO   C91 6851   5.403   6.733   0.773 -0.4658 -0.2035  0.5016
   17CHTO  H178 6852   5.430   6.697   0.673  0.6238 -0.1296  0.7627
   17CHTO   C92 6853   5.515   6.838   0.810 -0.1722  0.4721  0.1475
   17CHTO  H179 6854   5.599   6.774   0.840 -0.4668 -0.7679 -1.5823
   17CHTO   O66 6855   5.566   6.905   0.698 -0.4492  0.4076  0.5238
   17CHTO  H166 6856   5.493   6.910   0.638  0.7591 -1.3473 -1.1761
   17CHTO   C93 6857   5.478   6.942   0.923 -1.0009 -0.3486 -0.4726
   17CHTO  H180 6858   5.549   7.026   0.916  0.5588 -1.4595  1.4646
   17CHTO   N16 6859   5.503   6.886   1.055  0.2441  0.9983 -0.4675
   17CHTO  H172 6860   5.459   6.925   1.147  1.9148  0.5463  0.5445
   17CHTO  H173 6861   5.609   6.891   1.075  0.4562  3.7963 -1.9836
   17CHTO   C94 6862   5.330   6.994   0.899  0.3119  0.7453  0.6830
   17CHTO  H181 6863   5.259   6.947   0.967 -1.1469  1.8481 -0.0409
   17CHTO   O61 6864   5.283   6.954   0.773  0.2871  0.2184 -0.2605
   17CHTO   C95 6865   5.262   6.815   0.755  0.9425  0.1587 -0.6149
   17CHTO  H182 6866   5.196   6.782   0.836  1.4651 -1.2543 -0.7461
   17CHTO  C106 6867   5.186   6.795   0.616  0.4918  0.0863 -0.9383
   17CHTO   O69 6868   5.045   6.840   0.614 -0.5027  0.7247 -0.3914
   17CHTO  H169 6869   5.002   6.837   0.531  1.4337 -0.3072 -1.3856
   17CHTO   O63 6870   5.328   7.147   0.908  0.0580  0.2636  0.3694
   17CHTO   C96 6871   5.286   7.196   1.039 -0.4235 -0.7029  0.5931
   17CHTO  H183 6872   5.304   7.110   1.104  0.9136  0.6188  2.0150
   17CHTO   C98 6873   5.138   7.244   1.048 -0.3733 -0.2109  0.7079
   17CHTO  H185 6874   5.121   7.310   0.962 -0.2750  0.1597  0.9712
   17CHTO   O67 6875   5.046   7.130   1.034  0.8518 -0.3453  0.0372
   17CHTO  H167 6876   4.982   7.149   1.100  2.3547 -2.7872  2.2862
   17CHTO  C102 6877   5.110   7.324   1.186  0.0090 -0.1145  0.3451
   17CHTO  H189 6878   5.103   7.246   1.264 -3.3666  0.7830  0.9899
   17CHTO   N18 6879   4.984   7.393   1.204  0.6912  0.6139  0.3632
   17CHTO  H176 6880   4.985   7.483   1.145  1.5175  0.0894 -0.4212
   17CHTO  H177 6881   4.954   7.410   1.307  1.2824  0.8173  0.5028
   17CHTO  C105 6882   5.228   7.414   1.220  0.1753  0.1146  0.4153
   17CHTO  H192 6883   5.217   7.508   1.166 -1.2597  1.4081  2.8798
   17CHTO   O65 6884   5.360   7.363   1.199  0.0431  0.0616  0.2154
   17CHTO  C100 6885   5.388   7.310   1.069  0.7889 -0.7408  0.0244
   17CHTO  H187 6886   5.387   7.389   0.993 -0.4504 -0.7398  0.0297
   17CHTO  C107 6887   5.536   7.260   1.070  1.0966 -0.1853  0.5937
   17CHTO   O70 6888   5.597   7.261   0.939  0.1858 -0.9178  0.5153
   17CHTO  H170 6889   5.584   7.178   0.896  2.3310 -1.4091  0.7072
   17CHTO   O57 6890   5.213   7.434   1.397  0.2530  0.0973 -0.7706
   17CHTO   C85 6891   5.197   7.562   1.460 -0.0114 -0.1555 -0.1504
   17CHTO  H157 6892   5.133   7.616   1.388  2.4630  1.9974 -0.8261
   17CHTO   C83 6893   5.330   7.640   1.477  0.3305  0.3081  0.5225
   17CHTO  H155 6894   5.373   7.651   1.378 -0.1506 -0.9439  0.1620
   17CHTO   O56 6895   5.413   7.551   1.559 -0.0992  0.8179 -0.3994
   17CHTO  H135 6896   5.498   7.583   1.582 -0.8051  1.7946  0.9085
   17CHTO   C81 6897   5.301   7.777   1.538 -0.7454 -0.0907 -1.2761
   17CHTO  H153 6898   5.243   7.835   1.467 -0.7038  0.3374 -0.9592
   17CHTO   N14 6899   5.424   7.863   1.549 -0.2097  0.9133 -0.3738
   17CHTO  H141 6900   5.499   7.828   1.616 -1.5369 -1.2230  0.0460
   17CHTO  H142 6901   5.402   7.967   1.566 -0.7740  0.3460  2.6404
   17CHTO   C79 6902   5.225   7.777   1.677 -0.2844 -0.2921  0.3042
   17CHTO  H151 6903   5.188   7.879   1.693  1.1678  0.3553 -0.3409
   17CHTO   O52 6904   5.108   7.690   1.652  0.0824  0.5330  0.4638
   17CHTO   C86 6905   5.133   7.559   1.605  0.1676 -0.1962  0.8781
   17CHTO  H158 6906   5.198   7.510   1.681  0.3251 -1.7679 -0.2330
   17CHTO   C90 6907   4.997   7.485   1.612  0.0615  0.2486 -0.1992
   17CHTO   O60 6908   4.900   7.545   1.520 -0.2827 -0.3922  0.4372
   17CHTO  H138 6909   4.920   7.525   1.431 -2.2393 -1.8561  0.2785
   17CHTO   O50 6910   5.297   7.741   1.799 -0.3652  0.7129 -0.5744
   17CHTO   C73 6911   5.323   7.747   1.943  0.1401  0.1752  0.4321
   17CHTO  H145 6912   5.295   7.842   1.991 -3.3392 -1.4456  1.7655
   17CHTO   C74 6913   5.478   7.726   1.977  1.0256 -0.1588 -0.5240
   17CHTO  H146 6914   5.535   7.808   1.931  0.0001  0.5184 -0.6068
   17CHTO   O54 6915   5.498   7.739   2.115 -0.3246  0.1239 -0.4482
   17CHTO  H133 6916   5.568   7.797   2.137 -0.7006  1.1806 -1.9546
   17CHTO   C75 6917   5.526   7.586   1.927 -0.2018  0.0874  0.4795
   17CHTO  H147 6918   5.520   7.587   1.817 -3.5366  1.0345  0.5925
   17CHTO   N13 6919   5.668   7.553   1.950 -0.2139  0.3012  0.2591
   17CHTO  H139 6920   5.722   7.556   1.856 -0.4674 -0.0279  0.1066
   17CHTO  H140 6921   5.716   7.621   2.019 -0.5415 -0.1991  0.9744
   17CHTO   C76 6922   5.425   7.480   1.993  0.5683  0.7562  0.3979
   17CHTO  H148 6923   5.436   7.479   2.102 -2.0119  1.7250  0.6933
   17CHTO   O49 6924   5.289   7.508   1.948 -0.2665  0.1037  0.0643
   17CHTO   C77 6925   5.244   7.626   2.008 -0.9509 -0.4126 -0.4554
   17CHTO  H149 6926   5.267   7.624   2.115  3.9243  0.2483 -1.3855
   17CHTO   C88 6927   5.088   7.637   1.989 -0.2945 -0.0976  0.0425
   17CHTO   O58 6928   5.009   7.518   2.064  0.6037  0.2439 -0.2655
   17CHTO  H136 6929   4.917   7.537   2.061  0.8144  1.1689 -0.9685
   17CHTO   O51 6930   5.458   7.323   1.921 -0.1024  0.3222  0.1748
   17CHTO   C78 6931   5.333   7.224   1.976  0.5023  0.3492 -0.6393
   17CHTO  H150 6932   5.245   7.282   2.012  0.7487 -0.2809  1.0433
   17CHTO   C80 6933   5.381   7.134   2.086  0.8274  0.0751  0.3524
   17CHTO  H152 6934   5.482   7.099   2.057  0.3891 -0.8007 -0.1500
   17CHTO   O55 6935   5.401   7.226   2.195  0.2236  0.3754 -0.5752
   17CHTO  H134 6936   5.467   7.194   2.253  0.3069  0.2481 -0.7390
   17CHTO   C84 6937   5.274   7.020   2.106  0.2015 -0.5905  0.2126
   17CHTO  H156 6938   5.189   7.068   2.155  0.2531 -1.6859  1.3969
   17CHTO   N15 6939   5.305   6.913   2.209 -0.0234  0.2035 -0.1213
   17CHTO  H143 6940   5.227   6.890   2.279  0.8885  2.2474  1.6259
   17CHTO  H144 6941   5.396   6.920   2.264 -0.1954  3.3448 -0.1589
   17CHTO   C87 6942   5.220   6.959   1.977  0.2585  0.5894 -0.1914
   17CHTO  H159 6943   5.299   6.903   1.927 -0.6634 -0.3925 -0.5645
   17CHTO   O53 6944   5.185   7.058   1.900  0.0897 -0.5830 -0.1470
   17CHTO   C82 6945   5.286   7.145   1.849 -0.1383  0.0822 -0.5917
   17CHTO  H154 6946   5.368   7.094   1.799  0.3413  0.7221 -0.4667
   17CHTO   C89 6947   5.224   7.240   1.747 -0.1153 -0.2260 -0.2930
   17CHTO   O59 6948   5.316   7.303   1.662  0.3848 -0.1351  0.1580
   17CHTO  H137 6949   5.336   7.394   1.676  0.4107 -0.2390  0.8152
   17CHTO   O45 6950   5.075   6.859   2.004 -0.8591 -0.5441  0.1095
   17CHTO   C67 6951   4.963   6.917   2.077 -0.0858  0.5124 -0.2205
   17CHTO  H124 6952   4.999   6.965   2.167 -1.9240  1.3885  0.0571
   17CHTO   C65 6953   4.893   7.026   2.000 -0.3871 -0.2336  0.4080
   17CHTO  H122 6954   4.972   7.090   1.960  0.6943 -1.9949 -0.3525
   17CHTO   O44 6955   4.799   7.101   2.077  0.4080  0.4646 -0.4595
   17CHTO  H102 6956   4.780   7.187   2.044  0.8297  0.8677  0.3420
   17CHTO   C63 6957   4.835   6.959   1.868 -0.4847 -0.5791  0.3481
   17CHTO  H120 6958   4.913   6.902   1.818 -1.4236 -2.0623  0.5498
   17CHTO   N11 6959   4.789   7.050   1.767 -0.1054 -0.0629 -0.2308
   17CHTO  H108 6960   4.728   7.130   1.802 -1.1948 -1.7416  1.8095
   17CHTO  H109 6961   4.864   7.086   1.700 -1.3226  0.7413 -1.1672
   17CHTO   C61 6962   4.717   6.856   1.916 -0.5551  0.3394 -0.0894
   17CHTO  H118 6963   4.688   6.802   1.825  2.1558  0.0547 -0.8303
   17CHTO   O40 6964   4.770   6.758   2.009  0.8274  0.1103 -0.2604
   17CHTO   C68 6965   4.853   6.805   2.123 -0.0926  0.6581 -0.1184
   17CHTO  H125 6966   4.910   6.714   2.152 -1.5149  0.4137  2.0079
   17CHTO   C72 6967   4.783   6.854   2.254  0.2187  0.3639 -0.1388
   17CHTO   O48 6968   4.688   6.757   2.313 -0.2507  0.1481  0.0139
   17CHTO  H105 6969   4.620   6.733   2.253 -1.2891  0.0469  1.2265
   17CHTO   O38 6970   4.597   6.923   1.964  0.0320  0.0285  0.2622
   17CHTO   C55 6971   4.481   6.856   2.018 -0.6584 -0.3621  0.3120
   17CHTO  H112 6972   4.515   6.826   2.119 -0.1669  0.1922  0.3155
   17CHTO   C56 6973   4.425   6.735   1.933  0.1801  0.4477  0.0378
   17CHTO  H113 6974   4.414   6.771   1.830 -3.9739 -1.2061 -0.1775
   17CHTO   O42 6975   4.530   6.635   1.947  0.6280 -0.1660  0.3782
   17CHTO  H100 6976   4.620   6.659   1.937  0.4139  0.9455  1.0817
   17CHTO   C57 6977   4.288   6.686   1.992 -0.2439  0.2851  0.0502
   17CHTO  H114 6978   4.306   6.667   2.098  0.1721 -0.2243 -0.1083
   17CHTO   N10 6979   4.240   6.564   1.931  0.0222 -0.8981 -0.0162
   17CHTO  H106 6980   4.304   6.485   1.897  1.5670  0.3223  0.0289
   17CHTO  H107 6981   4.173   6.525   2.006  1.4516 -1.1901  1.1148
   17CHTO   C58 6982   4.194   6.808   1.984 -0.7100 -0.2607  0.6057
   17CHTO  H115 6983   4.198   6.845   1.879 -0.2387 -0.1369  0.6684
   17CHTO   O37 6984   4.240   6.912   2.070 -0.0548 -0.0058 -0.2784
   17CHTO   C59 6985   4.370   6.971   2.037 -0.2781  0.3164  0.8107
   17CHTO  H116 6986   4.361   7.026   1.944  0.4651  1.0949  1.1874
   17CHTO   C70 6987   4.409   7.067   2.143  0.2134 -0.1050 -0.3595
   17CHTO   O46 6988   4.332   7.190   2.144  0.3811 -0.2367 -0.2275
   17CHTO  H103 6989   4.245   7.178   2.178 -0.2814  1.4478 -1.2494
   17CHTO   O39 6990   4.027   6.761   2.032  0.5896  0.3947 -0.1678
   17CHTO   C60 6991   3.971   6.846   2.130  0.7702 -0.0396 -0.0692
   17CHTO  H117 6992   4.047   6.860   2.207 -0.1163  1.4433  0.5407
   17CHTO   C62 6993   3.930   6.980   2.061 -0.0775 -0.2937 -0.6648
   17CHTO  H119 6994   4.028   7.024   2.033  1.1167 -1.9440  0.8013
   17CHTO   O43 6995   3.859   6.960   1.941 -0.2583 -0.2119 -0.1044
   17CHTO  H101 6996   3.786   6.906   1.962  0.8846 -0.7955  2.6328
   17CHTO   C66 6997   3.847   7.074   2.168 -0.5494 -0.2521  0.3960
   17CHTO  H123 6998   3.914   7.092   2.252 -1.6089 -1.1223  1.4343
   17CHTO   N12 6999   3.830   7.212   2.111 -0.0114 -0.1263 -0.1855
   17CHTO  H110 7000   3.868   7.225   2.011 -0.7590 -2.5895 -0.8174
   17CHTO  H111 7001   3.738   7.265   2.130  0.5144  0.6260  0.3024
   17CHTO   C69 7002   3.718   7.009   2.216 -1.1680 -0.1074 -0.2402
   17CHTO  H126 7003   3.645   6.988   2.135 -3.5313  0.4626  1.6814
   17CHTO   O41 7004   3.776   6.880   2.297  0.8155 -0.5584  0.1449
   17CHTO   C64 7005   3.847   6.780   2.191 -0.4681  0.0241 -0.2585
   17CHTO  H121 7006   3.775   6.751   2.112 -0.4884 -1.2011  0.1863
   17CHTO   C71 7007   3.884   6.649   2.259 -0.2121  0.4325 -0.2604
   17CHTO   O47 7008   3.769   6.575   2.285  0.3142  0.1199 -0.2330
   17CHTO  H104 7009   3.789   6.485   2.299 -1.2958 -0.1906  0.0892
   17CHTO   O34 7010   3.637   7.095   2.307  0.4879  0.0373 -0.2024
   17CHTO   C49 7011   3.542   7.229   2.304  0.1584 -0.5707  0.5500
   17CHTO   H91 7012   3.607   7.312   2.275 -0.7636  0.4645  1.3992
   17CHTO   C47 7013   3.509   7.253   2.449 -0.1989 -0.3639  0.0237
   17CHTO   H89 7014   3.444   7.343   2.443 -1.0454 -1.0043 -0.3589
   17CHTO   O33 7015   3.626   7.278   2.529 -0.3303  0.6509 -0.2701
   17CHTO   H70 7016   3.617   7.248   2.617  0.2020 -2.0274 -1.0791
   17CHTO   C45 7017   3.426   7.122   2.504  0.7513 -0.4045 -0.1098
   17CHTO   H87 7018   3.496   7.048   2.544 -0.8308 -1.3952  0.8995
   17CHTO    N8 7019   3.334   7.167   2.613  0.9556  0.2752 -0.4209
   17CHTO   H75 7020   3.232   7.162   2.578  0.4203 -0.6171  1.1701
   17CHTO   H76 7021   3.345   7.091   2.690 -0.0553  0.6083  0.0670
   17CHTO   C43 7022   3.351   7.041   2.388  0.1254 -0.2319 -0.3242
   17CHTO   H85 7023   3.429   6.975   2.349 -1.2871 -1.9340 -0.3239
   17CHTO   O29 7024   3.299   7.134   2.291  0.1325  0.2280 -0.1044
   17CHTO   C50 7025   3.409   7.204   2.225 -0.4314  0.2651 -0.2692
   17CHTO   H92 7026   3.436   7.138   2.141 -0.0338  0.8919 -0.6332
   17CHTO   C54 7027   3.355   7.329   2.152 -0.7584 -0.5307 -0.0521
   17CHTO   O36 7028   3.295   7.305   2.033 -0.1671 -0.1949  0.6933
   17CHTO   H72 7029   3.358   7.291   1.964 -2.1883  1.9558 -1.6875
   17CHTO   O27 7030   3.254   6.945   2.436 -0.0036  0.5270  0.3280
   17CHTO   C37 7031   3.211   6.816   2.480 -0.0337 -0.4045  0.9329
   17CHTO   H79 7032   3.249   6.793   2.580 -1.2349  2.5215  2.1224
   17CHTO   C38 7033   3.057   6.818   2.485 -0.0310 -0.3758  0.2382
   17CHTO   H80 7034   3.020   6.863   2.391  0.4349 -0.6423 -0.0776
   17CHTO   O31 7035   3.026   6.892   2.600  0.5590 -0.3311  0.2404
   17CHTO   H68 7036   3.015   6.985   2.595  0.5240 -0.3264  0.4142
   17CHTO   C39 7037   2.999   6.677   2.496  0.5139 -0.2239  0.2344
   17CHTO   H81 7038   3.036   6.639   2.591  1.2542 -1.2004 -0.4372
   17CHTO    N7 7039   2.852   6.673   2.507 -0.1737  0.2237  0.6923
   17CHTO   H73 7040   2.830   6.764   2.559 -2.2353  0.6281 -0.8211
   17CHTO   H74 7041   2.817   6.690   2.406  2.0264  1.6871  0.1515
   17CHTO   C40 7042   3.053   6.588   2.379  0.1260  0.1269 -0.4135
   17CHTO   H82 7043   3.025   6.631   2.283  0.8918  0.2403 -0.5836
   17CHTO   O26 7044   3.197   6.580   2.396 -0.4138 -0.1390  0.7742
   17CHTO   C41 7045   3.263   6.710   2.374  0.6255 -0.5083  0.5585
   17CHTO   H83 7046   3.225   6.755   2.281 -0.6900 -0.6507  1.0252
   17CHTO   C52 7047   3.419   6.692   2.373  0.1808  0.2663  0.5412
   17CHTO   O35 7048   3.465   6.623   2.260 -0.2590  0.2470 -0.2246
   17CHTO   H71 7049   3.409   6.643   2.187  1.2897  0.9216 -1.2422
   17CHTO   O28 7050   3.010   6.448   2.392  0.2021  0.3780 -0.1811
   17CHTO   C42 7051   3.068   6.345   2.304  0.0513  0.6540  0.2672
   17CHTO   H84 7052   2.990   6.269   2.305 -1.8012  2.4774 -0.5901
   17CHTO   C44 7053   3.203   6.270   2.352  0.1050 -1.4581 -0.1269
   17CHTO   H86 7054   3.276   6.348   2.373 -0.6284 -0.8751  0.2504
   17CHTO   O32 7055   3.165   6.209   2.475 -0.6372 -0.6258 -0.4676
   17CHTO   H69 7056   3.203   6.125   2.492 -0.1545 -0.2080  0.5710
   17CHTO   C48 7057   3.263   6.171   2.245 -0.0553 -0.0754 -0.1245
   17CHTO   H90 7058   3.194   6.087   2.246 -0.2209  0.0236 -1.9102
   17CHTO    N9 7059   3.396   6.121   2.291 -0.7442  0.8557 -0.6079
   17CHTO   H77 7060   3.389   6.050   2.373 -0.7511  0.5131 -0.9050
   17CHTO   H78 7061   3.462   6.201   2.322  1.9218 -0.6930 -2.0516
   17CHTO   C51 7062   3.266   6.234   2.108 -0.6734 -0.2180 -0.6473
   17CHTO   H93 7063   3.332   6.321   2.112 -2.2656  1.0164 -1.0382
   17CHTO   O30 7064   3.127   6.276   2.079 -0.0747  0.1850 -0.2010
   17CHTO   C46 7065   3.085   6.387   2.157 -0.3299  0.6889  0.1374
   17CHTO   H88 7066   3.159   6.467   2.144 -2.1312  2.0294 -2.4614
   17CHTO   C53 7067   2.953   6.442   2.092 -0.1216  0.1796 -0.4698
   17CHTO   O72 7068   2.969   6.545   1.993 -1.0521 -0.0757 -0.7732
   17CHTO  H199 7069   2.888   6.549   1.945 -2.2082  2.2739  1.2915
   17CHTO   O22 7070   3.310   6.152   1.999 -0.5869  0.2331 -0.4430
   17CHTO   C31 7071   3.369   6.203   1.872  0.5291  0.6146 -0.6765
   17CHTO   H59 7072   3.353   6.120   1.799 -0.2790  0.5613 -0.4440
   17CHTO   C29 7073   3.307   6.334   1.806 -0.2871  0.7364 -0.1999
   17CHTO   H57 7074   3.299   6.405   1.889 -1.5012  0.2214  0.1376
   17CHTO   O21 7075   3.166   6.305   1.776 -0.2091  0.3366  0.1598
   17CHTO   H37 7076   3.161   6.225   1.728  0.5817  0.9216 -0.9245
   17CHTO   C27 7077   3.388   6.401   1.676 -0.4799  0.3888  0.7915
   17CHTO   H55 7078   3.380   6.334   1.589  1.8966 -1.1316  1.6739
   17CHTO    N5 7079   3.332   6.533   1.643 -0.3709 -0.5315  0.1556
   17CHTO   H43 7080   3.403   6.609   1.670  1.0799 -1.4635 -0.9605
   17CHTO   H44 7081   3.295   6.541   1.541  1.8108  0.3821 -0.5895
   17CHTO   C25 7082   3.539   6.402   1.716 -0.2501 -0.0477  0.1648
   17CHTO   H53 7083   3.559   6.468   1.802  3.6171  0.8673 -1.3400
   17CHTO   O17 7084   3.575   6.264   1.751 -0.5500 -0.4739 -0.7871
   17CHTO   C32 7085   3.520   6.229   1.880 -0.7133 -0.4495  0.1041
   17CHTO   H60 7086   3.538   6.309   1.951 -0.0669 -0.4028 -0.1160
   17CHTO   C36 7087   3.585   6.103   1.933  0.4734 -0.0704  0.4214
   17CHTO   O25 7088   3.729   6.133   1.947 -0.0834  0.1609  0.1465
   17CHTO   H40 7089   3.738   6.208   2.004 -0.2713  0.7833 -0.6367
   17CHTO   O15 7090   3.638   6.455   1.610  0.9659 -0.6550 -0.1220
   17CHTO   C19 7091   3.711   6.580   1.579 -0.7343  0.0656 -0.1427
   17CHTO   H47 7092   3.772   6.539   1.498 -2.9071 -0.7966 -1.4003
   17CHTO   C20 7093   3.628   6.695   1.519 -0.2362  0.0276 -0.2851
   17CHTO   H48 7094   3.545   6.730   1.582  0.8557  3.4759 -0.6275
   17CHTO   O19 7095   3.574   6.646   1.401  0.1114 -0.1351 -0.5092
   17CHTO   H35 7096   3.481   6.656   1.394 -0.1554 -0.9008  1.5056
   17CHTO   C21 7097   3.711   6.826   1.481 -0.2970  0.3338 -0.0897
   17CHTO   H49 7098   3.767   6.804   1.390 -1.6018  0.1407 -0.8655
   17CHTO    N4 7099   3.628   6.946   1.430 -0.6585  0.0971 -0.4104
   17CHTO   H41 7100   3.577   6.915   1.340 -0.8707  0.6968 -0.4931
   17CHTO   H42 7101   3.552   6.951   1.506 -1.1486  0.6163 -0.9365
   17CHTO   C22 7102   3.812   6.867   1.590 -0.0933 -0.3893  0.8120
   17CHTO   H50 7103   3.752   6.898   1.676 -1.8382 -1.8936  0.1727
   17CHTO   O14 7104   3.880   6.745   1.628  0.1096  0.2084 -0.2019
   17CHTO   C23 7105   3.805   6.631   1.688  0.2049  0.4731 -0.0519
   17CHTO   H51 7106   3.750   6.670   1.775  0.0649  1.0459 -0.3930
   17CHTO   C34 7107   3.901   6.523   1.739  0.4825  0.4786 -0.4874
   17CHTO   O23 7108   3.859   6.470   1.868 -0.4982  0.4110  0.1324
   17CHTO   H38 7109   3.928   6.408   1.881 -0.5753  0.4782  0.9187
   17CHTO   O16 7110   3.911   6.953   1.545 -0.7186 -0.3951  0.2400
   17CHTO   C24 7111   3.999   7.010   1.649  0.2461 -0.3057  0.2375
   17CHTO   H52 7112   4.000   6.947   1.739  1.3382  0.4721  0.7813
   17CHTO   C26 7113   3.936   7.146   1.670  0.7333  0.7690 -0.4391
   17CHTO   H54 7114   3.929   7.201   1.574  0.1954  0.7428 -0.4168
   17CHTO   O20 7115   3.795   7.139   1.713  0.2560 -0.4623  0.4342
   17CHTO   H36 7116   3.746   7.214   1.684 -0.8603 -1.2393  0.2850
   17CHTO   C30 7117   4.016   7.238   1.764  0.2740  0.2678  0.3068
   17CHTO   H58 7118   4.010   7.204   1.868  1.7320 -1.0856 -0.0392
   17CHTO    N6 7119   3.958   7.377   1.760  0.7798  0.1182  0.0815
   17CHTO   H45 7120   3.881   7.388   1.684  1.7938 -2.5988 -1.3933
   17CHTO   H46 7121   3.918   7.409   1.855  0.0979  0.4432 -0.3071
   17CHTO   C33 7122   4.169   7.232   1.734  0.5409 -0.0669 -0.3022
   17CHTO   H61 7123   4.184   7.285   1.639  2.6723 -0.0061  0.0300
   17CHTO   O18 7124   4.222   7.098   1.713 -0.1064  0.6784 -0.2089
   17CHTO   C28 7125   4.150   7.028   1.610 -0.4716  0.1517  0.3629
   17CHTO   H56 7126   4.158   7.075   1.512  1.8851 -1.8134 -0.4130
   17CHTO   C35 7127   4.209   6.892   1.586 -0.2566  0.8237  0.4224
   17CHTO   O24 7128   4.320   6.895   1.495  0.5160  0.3222  0.3375
   17CHTO   H39 7129   4.316   6.958   1.426  1.9278  1.4949  1.3066
   17CHTO    O9 7130   4.242   7.307   1.836  0.4140  0.1919  0.5892
   17CHTO   C13 7131   4.369   7.383   1.772  0.7634  0.7258  0.6645
   17CHTO   H26 7132   4.378   7.336   1.672  2.1341 -1.2707  1.6901
   17CHTO   C11 7133   4.502   7.353   1.862  0.7056  0.0472  0.2311
   17CHTO   H24 7134   4.512   7.245   1.847  0.4360  0.0521  0.0179
   17CHTO    O8 7135   4.473   7.377   2.000  0.0533 -0.6310 -0.3785
   17CHTO    H3 7136   4.482   7.302   2.056  0.4570 -1.1053 -1.0743
   17CHTO    C9 7137   4.625   7.436   1.812  0.0691  0.3650  0.0011
   17CHTO   H22 7138   4.651   7.394   1.713  1.2734  2.1986 -0.4870
   17CHTO    N2 7139   4.745   7.411   1.891 -0.2063  0.4061 -0.2824
   17CHTO   H10 7140   4.713   7.347   1.972 -0.8358  0.3510 -0.5713
   17CHTO   H11 7141   4.790   7.505   1.919  0.6846  0.5538 -2.1319
   17CHTO    C7 7142   4.585   7.590   1.789 -0.2360 -0.1209  0.0051
   17CHTO   H20 7143   4.661   7.619   1.715 -0.5374 -1.2180 -0.7514
   17CHTO    O4 7144   4.455   7.625   1.736  0.0868 -0.1764  0.2914
   17CHTO   C14 7145   4.343   7.542   1.766  0.5018 -0.3297 -0.3940
   17CHTO   H27 7146   4.270   7.566   1.686  1.3222 -0.1728 -1.0957
   17CHTO   C18 7147   4.285   7.590   1.896 -0.3960 -0.4627 -0.3480
   17CHTO   O13 7148   4.214   7.717   1.872  0.1489 -0.3921  0.4192
   17CHTO    H7 7149   4.124   7.696   1.855 -1.0316  2.8627  2.1524
   17CHTO    O2 7150   4.611   7.671   1.931  0.3152 -0.0780 -0.7204
   17CHTO    C1 7151   4.649   7.809   1.912 -0.1517  0.1198 -0.4938
   17CHTO   H14 7152   4.585   7.857   1.835 -0.0796  3.5446  1.4758
   17CHTO    C2 7153   4.802   7.833   1.880  0.3420 -0.4155 -0.2726
   17CHTO   H15 7154   4.853   7.770   1.954 -1.1872 -0.0768  1.1054
   17CHTO    O6 7155   4.821   7.776   1.751  0.6954  0.0070 -0.4986
   17CHTO    H1 7156   4.861   7.695   1.777  1.8280  0.6027 -0.3603
   17CHTO    C3 7157   4.846   7.992   1.878  0.3895  0.1004 -0.3322
   17CHTO   H16 7158   4.790   8.048   1.802  0.5400  1.9377  0.8919
   17CHTO    N1 7159   4.992   8.022   1.848 -0.1729 -0.3726 -0.7396
   17CHTO    H8 7160   5.007   8.064   1.749  1.0194  1.5458  0.2385
   17CHTO    H9 7161   5.018   8.099   1.919  2.4361 -0.4410 -1.5573
   17CHTO    C4 7162   4.795   8.053   2.016  0.1299 -0.0945 -0.7052
   17CHTO   H17 7163   4.852   8.006   2.096 -1.7745  3.1176  2.7117
   17CHTO    O1 7164   4.657   8.020   2.047 -0.4086 -0.3565  0.8968
   17CHTO    C5 7165   4.613   7.882   2.045 -0.0112 -0.4553 -0.1136
   17CHTO   H18 7166   4.656   7.832   2.131  2.1142  0.1376 -0.8120
   17CHTO   C16 7167   4.463   7.891   2.072 -0.1891 -0.4174  0.2520
   17CHTO   O11 7168   4.381   7.960   1.972  0.6093  0.2633 -0.6839
   17CHTO    H5 7169   4.428   8.012   1.910 -1.5099  0.1217 -2.4879
   17CHTO    O3 7170   4.808   8.195   2.024  0.4788 -0.5578 -0.5946
   17CHTO    C6 7171   4.824   8.277   2.146 -0.4308 -0.2207  0.1174
   17CHTO   H19 7172   4.755   8.362   2.150  0.5111  0.5498  0.2301
   17CHTO    C8 7173   4.797   8.193   2.276  0.0182  0.0108 -0.7281
   17CHTO   H21 7174   4.866   8.109   2.281 -0.9378 -0.7110  1.1483
   17CHTO    O7 7175   4.659   8.144   2.288 -0.4999 -0.3777 -0.3660
   17CHTO    H2 7176   4.648   8.115   2.377 -0.1599  1.3082  0.2390
   17CHTO   C12 7177   4.839   8.275   2.404  0.1217 -0.3446  0.3700
   17CHTO   H25 7178   4.760   8.351   2.419 -2.9690 -3.7498  1.9579
   17CHTO    N3 7179   4.836   8.179   2.518 -0.2382 -0.4467 -0.3073
   17CHTO   H12 7180   4.829   8.080   2.476  1.6119 -0.5877 -0.3264
   17CHTO   H13 7181   4.918   8.183   2.588  2.4892  1.6686 -3.4895
   17CHTO   C15 7182   4.978   8.350   2.387 -0.2838  0.0468 -0.1467
   17CHTO   H28 7183   5.056   8.277   2.369 -0.0528 -0.1563  1.6756
   17CHTO   O10 7184   5.011   8.447   2.483 -0.6260 -0.2546 -0.4704
   17CHTO    H4 7185   4.951   8.519   2.483 -1.6262 -1.0794  0.9363
   17CHTO    O5 7186   4.973   8.427   2.263 -0.0721 -0.5471  0.2407
   17CHTO   C10 7187   4.965   8.338   2.146  0.4389  0.1073 -0.3620
   17CHTO   H23 7188   5.049   8.269   2.152  0.1448 -0.1183  1.3469
   17CHTO   C17 7189   4.997   8.437   2.032 -0.3272 -0.6519  0.1093
   17CHTO   O12 7190   5.011   8.387   1.903 -0.1199  0.2426  0.1829
   17CHTO    H6 7191   5.017   8.463   1.848  0.2806  0.4593  0.5159
   18CHTO  H203 7192   6.397   7.916   2.423  0.5783  0.8721  0.9943
   18CHTO   O82 7193   6.366   7.995   2.385  0.1896  0.0879 -0.3632
   18CHTO  C123 7194   6.303   7.970   2.258 -0.5190 -0.7160 -0.8072
   18CHTO  H227 7195   6.219   8.040   2.248  0.8702  0.9354 -1.2397
   18CHTO   O77 7196   6.401   8.010   2.155 -0.1302 -0.5173  0.4216
   18CHTO  C118 7197   6.354   8.023   2.021 -0.0270  0.0759  0.1505
   18CHTO  H222 7198   6.255   8.071   2.028 -1.0543 -2.1792  1.7000
   18CHTO  C125 7199   6.450   8.116   1.940  0.0158 -0.2924 -0.1707
   18CHTO   O84 7200   6.581   8.065   1.934  0.6848 -0.8221  0.3114
   18CHTO  H205 7201   6.602   8.092   1.846 -0.7265  1.9256  0.7464
   18CHTO  C114 7202   6.329   7.879   1.977  0.4231 -1.2967 -0.0991
   18CHTO  H218 7203   6.425   7.827   1.980  0.2655 -1.6122 -0.4362
   18CHTO  C116 7204   6.229   7.807   2.078  0.3649  0.2298 -0.2770
   18CHTO  H220 7205   6.123   7.839   2.065 -0.3625 -1.2479  1.7355
   18CHTO   O79 7206   6.224   7.668   2.038  0.1723 -0.7034  0.3512
   18CHTO  H201 7207   6.169   7.654   1.963  0.3628  1.7841 -0.2872
   18CHTO  C120 7208   6.273   7.823   2.227  0.6243 -0.6314  0.1176
   18CHTO  H224 7209   6.365   7.762   2.246  2.0029  0.9787 -1.2222
   18CHTO   N21 7210   6.172   7.762   2.317  0.6642 -0.3204 -0.5226
   18CHTO  H211 7211   6.160   7.663   2.276  0.1182  0.4785 -2.3426
   18CHTO  H212 7212   6.217   7.766   2.415 -0.8989 -0.6142  0.2214
   18CHTO   O75 7213   6.273   7.896   1.843  0.0421 -0.5368 -0.2927
   18CHTO  C112 7214   6.393   7.840   1.728  0.5579 -0.4282  0.4668
   18CHTO  H216 7215   6.457   7.757   1.762  2.5708  1.1577  0.6558
   18CHTO   O73 7216   6.471   7.951   1.684  0.0482  0.0939  0.0991
   18CHTO  C113 7217   6.574   7.911   1.592  0.7242  0.2973 -0.1758
   18CHTO  H217 7218   6.643   7.833   1.629  2.0583  0.9214 -1.2918
   18CHTO  C124 7219   6.667   8.033   1.577 -0.1497  0.0038 -0.4377
   18CHTO   O83 7220   6.736   8.091   1.690 -0.2933  0.1781  0.3814
   18CHTO  H204 7221   6.791   8.020   1.720  0.3604  0.3406 -0.4250
   18CHTO  C109 7222   6.519   7.863   1.458  0.3151 -0.2227  0.2623
   18CHTO  H213 7223   6.474   7.950   1.408  0.9792  0.0782  0.1886
   18CHTO  C110 7224   6.412   7.757   1.482 -0.1316  0.3823 -0.3728
   18CHTO  H214 7225   6.457   7.659   1.497  2.4317  1.4840 -0.6787
   18CHTO   O78 7226   6.328   7.747   1.367  0.0861 -0.2662  0.1126
   18CHTO  H200 7227   6.256   7.687   1.376 -1.0017  1.1337  1.0902
   18CHTO  C111 7228   6.315   7.783   1.600  0.3174  0.7008 -0.3648
   18CHTO  H215 7229   6.246   7.862   1.568  0.5660  0.4254 -1.6350
   18CHTO   N19 7230   6.236   7.666   1.648 -0.5017 -0.5528 -0.0271
   18CHTO  H207 7231   6.178   7.623   1.568 -0.7010  1.6877 -1.1374
   18CHTO  H208 7232   6.178   7.693   1.736  0.8528 -1.9632  1.3228
   18CHTO   O74 7233   6.620   7.806   1.372  0.5511 -0.0122  0.2153
   18CHTO  C115 7234   6.635   7.883   1.240 -0.0040 -0.3459  0.5207
   18CHTO  H219 7235   6.540   7.902   1.190  0.0495  1.8329  1.1840
   18CHTO   O76 7236   6.699   8.014   1.259 -0.6847 -0.0292  0.1377
   18CHTO  C122 7237   6.753   8.096   1.155  0.4386 -1.1568 -0.6066
   18CHTO  H226 7238   6.827   8.163   1.199  0.2541 -2.6623  2.1520
   18CHTO  C126 7239   6.637   8.183   1.101 -0.3319  0.6029  0.6681
   18CHTO   O85 7240   6.593   8.280   1.192 -0.7483  0.1691 -0.1575
   18CHTO  H206 7241   6.556   8.245   1.271  3.3223  0.4387  2.0023
   18CHTO  C121 7242   6.830   8.014   1.048  0.5047 -0.5546 -0.4129
   18CHTO  H225 7243   6.844   8.067   0.952  1.0007 -0.4546 -0.2880
   18CHTO   O81 7244   6.965   7.976   1.095 -0.1387  0.5920 -0.2467
   18CHTO  H202 7245   7.010   8.054   1.121  1.1756 -0.6207  1.1508
   18CHTO  C119 7246   6.747   7.882   1.011 -0.5731  0.0757  0.7744
   18CHTO  H223 7247   6.645   7.912   0.986 -0.5858  1.0884  1.9639
   18CHTO  C117 7248   6.715   7.795   1.142 -0.8161 -1.0464  0.4704
   18CHTO  H221 7249   6.804   7.762   1.196  0.2131 -0.1699 -0.6476
   18CHTO   N20 7250   6.637   7.670   1.105  0.6413  0.2634  0.0048
   18CHTO  H209 7251   6.704   7.587   1.091 -0.6179 -1.0563  1.6440
   18CHTO  H210 7252   6.547   7.653   1.162  0.0762 -2.3153 -1.6078
   18CHTO   O80 7253   6.794   7.798   0.867  0.3708 -0.1201  0.1099
   18CHTO  C103 7254   6.685   7.790   0.735  0.0903 -1.0910  0.3518
   18CHTO  H190 7255   6.750   7.777   0.649  1.0638  0.6007  0.8105
   18CHTO  C101 7256   6.565   7.686   0.763  0.8723  0.7893  0.1224
   18CHTO  H188 7257   6.522   7.693   0.862 -0.6481 -2.1869 -0.2845
   18CHTO   O68 7258   6.629   7.542   0.749  0.3886 -0.2011  0.0188
   18CHTO  H168 7259   6.719   7.542   0.721  0.9833  1.1103  1.8348
   18CHTO   C99 7260   6.448   7.696   0.648  0.4966  0.1264 -0.0308
   18CHTO  H186 7261   6.497   7.687   0.548  2.7170  0.0825  1.0303
   18CHTO   N17 7262   6.340   7.593   0.673  0.1592 -0.2826 -0.2625
   18CHTO  H174 7263   6.236   7.615   0.652  0.2656  0.5111  0.0287
   18CHTO  H175 7264   6.376   7.502   0.628 -0.5092 -0.0080 -1.3861
   18CHTO   C97 7265   6.392   7.839   0.650  0.0566  0.0586 -0.4085
   18CHTO  H184 7266   6.355   7.849   0.753 -1.7621 -1.4553 -0.8813
   18CHTO   O64 7267   6.503   7.927   0.623  0.0476  0.0409  0.6797
   18CHTO  C104 7268   6.611   7.937   0.722 -0.3329 -0.1003 -0.7706
   18CHTO  H191 7269   6.570   7.969   0.818 -1.2161  0.4848 -1.3259
   18CHTO  C108 7270   6.707   8.043   0.679 -0.4548 -0.3810  0.4872
   18CHTO   O71 7271   6.649   8.174   0.699 -0.2224 -0.7306 -0.4557
   18CHTO  H171 7272   6.608   8.203   0.619  2.4023 -0.1136 -1.6254
   18CHTO   O62 7273   6.291   7.866   0.549  0.1057 -0.2398 -0.3330
   18CHTO   C91 7274   6.191   7.954   0.589 -0.5242 -0.5906  0.1006
   18CHTO  H178 7275   6.212   7.992   0.689  3.0001 -0.3311 -0.6614
   18CHTO   C92 7276   6.065   7.862   0.581  0.2991 -0.0598 -0.0330
   18CHTO  H179 7277   6.069   7.802   0.488 -1.1067 -0.4270  0.1374
   18CHTO   O66 7278   6.084   7.757   0.677 -0.2317 -0.2337 -0.2597
   18CHTO  H166 7279   6.092   7.792   0.764 -1.1089  0.1701 -0.3422
   18CHTO   C93 7280   5.925   7.933   0.593 -1.1627 -0.9355 -0.7751
   18CHTO  H180 7281   5.897   7.946   0.699  0.8398 -2.2356 -0.0674
   18CHTO   N16 7282   5.813   7.853   0.546 -0.0705 -0.5604  0.1542
   18CHTO  H172 7283   5.803   7.768   0.611  1.1754 -1.4042 -0.7180
   18CHTO  H173 7284   5.814   7.831   0.440 -0.9494  1.1577 -0.2280
   18CHTO   C94 7285   5.916   8.071   0.512  0.1254 -0.1256  0.1127
   18CHTO  H181 7286   5.909   8.057   0.405 -0.6378  1.4614 -0.0592
   18CHTO   O61 7287   6.043   8.143   0.534  0.1533 -0.3103  0.4647
   18CHTO   C95 7288   6.162   8.080   0.499 -0.3709 -0.5855 -0.0352
   18CHTO  H182 7289   6.159   8.040   0.398 -1.1838 -1.1429  0.2009
   18CHTO  C106 7290   6.286   8.174   0.506 -0.2618 -0.5576 -0.2981
   18CHTO   O69 7291   6.264   8.278   0.412  0.5382 -0.1249  0.9388
   18CHTO  H169 7292   6.253   8.238   0.328  4.8014  0.4836 -0.0183
   18CHTO   O63 7293   5.779   8.153   0.578  0.4075 -0.2106  0.6122
   18CHTO   C96 7294   5.720   8.262   0.497  0.0213 -0.1914 -0.3685
   18CHTO  H183 7295   5.741   8.244   0.392  0.2538  1.8071 -0.6782
   18CHTO   C98 7296   5.759   8.410   0.539 -0.2698  0.0670 -0.0194
   18CHTO  H185 7297   5.738   8.429   0.646  0.5422  0.7831  0.0170
   18CHTO   O67 7298   5.900   8.430   0.517 -0.2444  0.3100 -0.4467
   18CHTO  H167 7299   5.948   8.458   0.593 -1.7995  1.9088 -0.0071
   18CHTO  C102 7300   5.671   8.518   0.460 -0.3609 -0.3031  0.4474
   18CHTO  H189 7301   5.696   8.499   0.354 -1.4890 -1.7976  0.4292
   18CHTO   N18 7302   5.696   8.663   0.477 -0.5209  0.0660 -0.2503
   18CHTO  H176 7303   5.621   8.723   0.526  1.1193  1.6516  0.3390
   18CHTO  H177 7304   5.796   8.688   0.507 -0.6805 -2.0026  2.2218
   18CHTO  C105 7305   5.516   8.492   0.475 -0.1507 -0.2951 -0.8000
   18CHTO  H192 7306   5.489   8.505   0.580  1.4856  1.7542 -0.5816
   18CHTO   O65 7307   5.491   8.354   0.438  0.5369  0.1834  0.1125
   18CHTO  C100 7308   5.561   8.252   0.516 -0.2701  0.4864  0.3360
   18CHTO  H187 7309   5.536   8.270   0.621 -0.9802  0.0917  0.2362
   18CHTO  C107 7310   5.490   8.121   0.488 -0.1229 -0.0108 -0.2402
   18CHTO   O70 7311   5.518   8.081   0.352 -0.2317  0.1702 -0.3507
   18CHTO  H170 7312   5.446   8.031   0.319 -0.6267  1.1858 -1.0251
   18CHTO   O57 7313   5.422   8.592   0.379  0.1076  0.4728  0.2667
   18CHTO   C85 7314   5.279   8.609   0.373  0.3340  0.3416 -0.7121
   18CHTO  H157 7315   5.264   8.647   0.270 -2.5877 -2.0928 -1.2517
   18CHTO   C83 7316   5.242   8.718   0.472 -0.2117 -0.5202  0.3485
   18CHTO  H155 7317   5.283   8.812   0.436  0.5760 -0.7712  0.5799
   18CHTO   O56 7318   5.303   8.701   0.597 -0.3829  0.0550  0.3535
   18CHTO  H135 7319   5.293   8.776   0.653  2.7758 -0.0565  1.1641
   18CHTO   C81 7320   5.086   8.730   0.474 -0.1139  0.6816 -0.1048
   18CHTO  H153 7321   5.050   8.748   0.373  1.0693 -1.4441 -0.9493
   18CHTO   N14 7322   5.039   8.851   0.553 -0.4840  0.3448  0.3787
   18CHTO  H141 7323   4.952   8.840   0.614  1.4684 -1.6061  2.9637
   18CHTO  H142 7324   5.022   8.931   0.484 -0.6539  0.6469  0.7625
   18CHTO   C79 7325   5.025   8.597   0.523 -0.2186 -0.1048 -0.5643
   18CHTO  H151 7326   4.918   8.610   0.535 -0.5031 -1.0529 -1.9157
   18CHTO   O52 7327   5.054   8.485   0.429  0.1227 -0.0386 -0.8332
   18CHTO   C86 7328   5.194   8.474   0.402 -0.2705  0.3319  0.2795
   18CHTO  H158 7329   5.236   8.415   0.487  2.4820  0.3691 -0.9872
   18CHTO   C90 7330   5.204   8.388   0.275 -0.0580  0.1526  0.2525
   18CHTO   O60 7331   5.181   8.250   0.291  0.9842  0.5476  0.0299
   18CHTO  H138 7332   5.226   8.209   0.220  0.0990 -0.5849  0.1145
   18CHTO   O50 7333   5.074   8.567   0.659  0.4466 -0.0767  0.7132
   18CHTO   C73 7334   5.067   8.439   0.725  0.7846  0.0932  0.1761
   18CHTO  H145 7335   5.127   8.373   0.660  1.0007  2.5820 -2.2324
   18CHTO   C74 7336   4.921   8.383   0.742 -0.7993  0.2019 -0.9964
   18CHTO  H146 7337   4.877   8.376   0.642 -1.5580 -0.5864 -0.6179
   18CHTO   O54 7338   4.933   8.242   0.793 -0.4143 -0.3775  0.2919
   18CHTO  H133 7339   4.959   8.243   0.883  3.3110 -2.5652 -0.6609
   18CHTO   C75 7340   4.847   8.489   0.832 -0.6541  0.6793  0.2398
   18CHTO  H147 7341   4.855   8.586   0.780  1.6849  0.0364 -0.6961
   18CHTO   N13 7342   4.699   8.467   0.850  0.4370  0.3102 -0.5833
   18CHTO  H139 7343   4.649   8.384   0.801 -0.2284  0.4495 -0.1416
   18CHTO  H140 7344   4.636   8.550   0.823 -1.7313 -0.4419  1.9206
   18CHTO   C76 7345   4.919   8.494   0.973 -0.5121 -0.1512  0.1443
   18CHTO  H148 7346   4.920   8.390   1.007  0.5095 -0.5433 -1.0355
   18CHTO   O49 7347   5.061   8.532   0.953 -0.3075 -0.3854 -0.1445
   18CHTO   C77 7348   5.135   8.453   0.861 -0.2958 -0.3590 -0.3931
   18CHTO  H149 7349   5.146   8.352   0.902 -0.8660 -0.4214 -0.3954
   18CHTO   C88 7350   5.288   8.494   0.849 -0.1828  0.2182 -0.2762
   18CHTO   O58 7351   5.365   8.371   0.790  0.4770  0.3677 -0.5679
   18CHTO  H136 7352   5.449   8.382   0.831  0.4734 -0.6075 -0.3067
   18CHTO   O51 7353   4.855   8.605   1.089 -0.4650 -0.3080 -0.2636
   18CHTO   C78 7354   4.948   8.592   1.212 -0.3064  0.3939 -0.0675
   18CHTO  H150 7355   5.047   8.546   1.192 -0.9928 -0.7125 -0.8835
   18CHTO   C80 7356   4.883   8.520   1.329  0.2623 -0.0347 -0.2294
   18CHTO  H152 7357   4.794   8.579   1.359 -1.6254 -1.4920 -2.7423
   18CHTO   O55 7358   4.835   8.385   1.291  0.8341  0.4035  0.0137
   18CHTO  H134 7359   4.765   8.358   1.348  0.6785  1.7287  0.4535
   18CHTO   C84 7360   4.980   8.505   1.454 -0.8108  0.3450  0.5313
   18CHTO  H156 7361   5.057   8.436   1.421 -0.0489  1.7141 -0.6324
   18CHTO   N15 7362   4.905   8.450   1.568  0.3170  0.1743 -0.1834
   18CHTO  H143 7363   4.815   8.499   1.599  0.4793 -1.0886  2.4000
   18CHTO  H144 7364   4.976   8.451   1.648 -0.2179  0.5897  0.2860
   18CHTO   C87 7365   5.039   8.644   1.486 -0.4520 -0.2672 -0.1845
   18CHTO  H159 7366   4.949   8.701   1.511 -2.4838 -2.8647 -1.3889
   18CHTO   O53 7367   5.089   8.718   1.357 -0.1454  0.7626 -0.3455
   18CHTO   C82 7368   4.986   8.730   1.261 -0.3270  0.3291 -0.0650
   18CHTO  H154 7369   4.899   8.782   1.301 -0.9442  0.3898 -1.4687
   18CHTO   C89 7370   5.029   8.815   1.134 -0.4340 -0.7535  0.0432
   18CHTO   O59 7371   4.939   8.851   1.027 -0.0786  0.3124  0.1471
   18CHTO  H137 7372   4.991   8.890   0.959  2.0868  0.6596  1.9110
   18CHTO   O45 7373   5.157   8.646   1.612 -0.5170  0.1865 -0.8259
   18CHTO   C67 7374   5.277   8.600   1.562  0.3536  0.6467  0.2419
   18CHTO  H124 7375   5.251   8.517   1.496 -1.9381  2.7581 -1.5843
   18CHTO   C65 7376   5.355   8.702   1.471  0.2722 -0.0935 -0.0962
   18CHTO  H122 7377   5.299   8.796   1.470 -1.6237 -1.1854 -0.3694
   18CHTO   O44 7378   5.364   8.658   1.333  0.1334  0.2899 -0.6740
   18CHTO  H102 7379   5.275   8.658   1.303 -0.1087 -0.4775  0.0372
   18CHTO   C63 7380   5.496   8.744   1.534  0.5830  0.6690 -0.1969
   18CHTO  H120 7381   5.479   8.786   1.633 -0.1952 -0.2337  0.0536
   18CHTO   N11 7382   5.568   8.856   1.469 -0.6252  0.1506  0.1116
   18CHTO  H108 7383   5.548   8.955   1.504  1.4553  0.0121  1.7963
   18CHTO  H109 7384   5.591   8.844   1.366 -1.5267 -0.2454 -0.0557
   18CHTO   C61 7385   5.583   8.610   1.557  0.1928  1.1501  0.9685
   18CHTO  H118 7386   5.673   8.632   1.616 -0.6781  2.1462  1.9309
   18CHTO   O40 7387   5.497   8.508   1.636  0.5445  0.3777 -0.3673
   18CHTO   C68 7388   5.366   8.544   1.685 -0.0272  0.2299  0.2705
   18CHTO  H125 7389   5.367   8.620   1.766 -1.5526 -0.1526  0.6521
   18CHTO   C72 7390   5.310   8.412   1.748  0.5158 -0.2311  0.3486
   18CHTO   O48 7391   5.267   8.312   1.656 -0.5540  0.2340 -0.4422
   18CHTO  H105 7392   5.220   8.361   1.592  0.3041  1.1782 -0.3608
   18CHTO   O38 7393   5.621   8.566   1.424  0.2085  0.4167 -1.5469
   18CHTO   C55 7394   5.741   8.488   1.415 -0.1430  0.3113 -0.7629
   18CHTO  H112 7395   5.779   8.455   1.512  0.7904  0.3890 -1.0939
   18CHTO   C56 7396   5.862   8.568   1.328 -0.0568  0.0277 -0.3796
   18CHTO  H113 7397   5.843   8.571   1.220  1.3714  2.3431 -0.6066
   18CHTO   O42 7398   5.881   8.697   1.382 -0.5017 -0.0392  0.1399
   18CHTO  H100 7399   5.797   8.739   1.378  0.2481  1.5350  0.3616
   18CHTO   C57 7400   5.989   8.483   1.348  0.0775 -0.3872 -0.1517
   18CHTO  H114 7401   6.001   8.478   1.457 -0.2128 -3.1803 -0.2238
   18CHTO   N10 7402   6.113   8.535   1.285  0.3446  0.0969 -0.0775
   18CHTO  H106 7403   6.167   8.569   1.372 -2.0521  3.5009  0.1508
   18CHTO  H107 7404   6.093   8.622   1.225  3.1081  0.1992 -0.9237
   18CHTO   C58 7405   5.961   8.339   1.297 -0.1188 -0.2152 -0.3315
   18CHTO  H115 7406   5.973   8.331   1.187 -2.1209  0.4650 -0.6028
   18CHTO   O37 7407   5.836   8.282   1.340 -0.3989  0.0059  0.3861
   18CHTO   C59 7408   5.717   8.353   1.337  0.0456 -0.5620  1.0644
   18CHTO  H116 7409   5.691   8.374   1.233  1.5488 -0.9145  0.6064
   18CHTO   C70 7410   5.600   8.277   1.399  0.0479 -0.5777  0.9459
   18CHTO   O46 7411   5.625   8.256   1.533  0.0786 -0.3627  0.0352
   18CHTO  H103 7412   5.593   8.324   1.589  1.7573  0.1763  0.3742
   18CHTO   O39 7413   6.077   8.237   1.372  0.3898  0.2616 -0.1731
   18CHTO   C60 7414   6.030   8.182   1.500  0.1556 -0.2038  0.3480
   18CHTO  H117 7415   5.967   8.252   1.554  0.7282  0.1179  0.6025
   18CHTO   C62 7416   5.955   8.046   1.485 -0.4541  0.1099 -0.2366
   18CHTO  H119 7417   5.870   8.064   1.417  1.5610 -0.7460 -3.0873
   18CHTO   O43 7418   6.036   7.947   1.421  0.0903 -0.0522 -0.1912
   18CHTO  H101 7419   6.071   7.960   1.335  1.4961  0.3814  0.4434
   18CHTO   C66 7420   5.904   8.009   1.630 -0.1148  0.2130  0.9847
   18CHTO  H123 7421   5.839   8.088   1.669  0.7941  1.3004  0.3083
   18CHTO   N12 7422   5.827   7.881   1.629  0.4185  0.3458 -0.0104
   18CHTO  H110 7423   5.722   7.896   1.653  0.4902 -1.8544  1.9110
   18CHTO  H111 7424   5.834   7.834   1.532 -0.1553  0.0075  0.1043
   18CHTO   C69 7425   6.016   7.993   1.730  0.1222 -0.3804 -0.3000
   18CHTO  H126 7426   6.077   7.901   1.717  2.2382  0.9949 -0.5162
   18CHTO   O41 7427   6.125   8.116   1.725  0.0235  0.5683  0.0415
   18CHTO   C64 7428   6.150   8.155   1.591 -0.5553 -0.6147  0.1847
   18CHTO  H121 7429   6.210   8.080   1.535  0.0199  0.2578 -0.3864
   18CHTO   C71 7430   6.242   8.280   1.601  0.4919  0.4613  0.7834
   18CHTO   O47 7431   6.377   8.242   1.629  0.4539  0.8859 -0.2698
   18CHTO  H104 7432   6.429   8.287   1.564 -1.6690  0.8574 -2.0334
   18CHTO   O34 7433   5.966   8.002   1.876 -0.4917 -0.3271 -0.6835
   18CHTO   C49 7434   5.912   8.085   2.011  0.3349  0.4127  0.2395
   18CHTO   H91 7435   5.979   8.050   2.089  1.6878 -0.2250 -1.1873
   18CHTO   C47 7436   5.767   8.053   2.044  1.3631  0.0519  0.2244
   18CHTO   H89 7437   5.748   8.089   2.147 -0.2736 -1.6860  0.5553
   18CHTO   O33 7438   5.756   7.908   2.038  0.2887 -0.1693 -0.3728
   18CHTO   H70 7439   5.786   7.880   1.954 -0.5923 -0.3960 -0.6220
   18CHTO   C45 7440   5.672   8.119   1.928  0.6760 -0.3528  0.1722
   18CHTO   H87 7441   5.712   8.084   1.832 -3.1080 -0.7520 -1.3396
   18CHTO    N8 7442   5.528   8.070   1.938  0.1124 -0.0668 -0.7990
   18CHTO   H75 7443   5.520   7.973   1.891 -0.7660  0.0081 -0.8079
   18CHTO   H76 7444   5.502   8.067   2.043  2.5149  1.6614 -0.1219
   18CHTO   C43 7445   5.690   8.274   1.922 -0.0219  0.1092 -0.6788
   18CHTO   H85 7446   5.625   8.310   1.843  0.1425  0.2543 -0.7486
   18CHTO   O29 7447   5.832   8.304   1.904  0.4280 -0.4413 -0.2585
   18CHTO   C50 7448   5.919   8.242   2.001 -0.2203  0.3841  0.0266
   18CHTO   H92 7449   6.017   8.253   1.952  0.1777  1.4175  1.0474
   18CHTO   C54 7450   5.926   8.303   2.139 -0.2006 -0.0412 -0.3087
   18CHTO   O36 7451   6.007   8.420   2.137  0.2931 -0.4089 -0.0629
   18CHTO   H72 7452   6.005   8.462   2.221 -0.2977  0.8464 -0.6943
   18CHTO   O27 7453   5.645   8.331   2.046  0.1197 -0.3440 -0.2894
   18CHTO   C37 7454   5.608   8.466   2.091  0.0853  0.9866 -0.4854
   18CHTO   H79 7455   5.667   8.491   2.181 -1.1876  0.2724  0.5749
   18CHTO   C38 7456   5.629   8.571   1.990 -0.3110 -0.5203 -0.7492
   18CHTO   H80 7457   5.590   8.535   1.893  0.8501 -1.6177 -0.8262
   18CHTO   O31 7458   5.774   8.595   1.980 -0.5512  0.5180 -0.2242
   18CHTO   H68 7459   5.806   8.639   2.057 -1.7129  3.2320 -1.2095
   18CHTO   C39 7460   5.569   8.707   2.039 -0.1401 -0.3596  0.6706
   18CHTO   H81 7461   5.620   8.739   2.130 -0.9140  0.2152  0.9147
   18CHTO    N7 7462   5.587   8.806   1.932  0.0830 -0.7335 -0.0976
   18CHTO   H73 7463   5.690   8.837   1.920 -0.4304  0.5450 -1.5429
   18CHTO   H74 7464   5.528   8.896   1.945  1.6564  0.3076  0.0354
   18CHTO   C40 7465   5.420   8.693   2.083 -0.0311 -0.3896 -0.2508
   18CHTO   H82 7466   5.355   8.677   1.996  0.7402  2.3491 -1.4086
   18CHTO   O26 7467   5.409   8.593   2.182 -0.3356 -0.6244 -0.2303
   18CHTO   C41 7468   5.459   8.466   2.130  0.2367 -0.3060 -0.1641
   18CHTO   H83 7469   5.387   8.452   2.048 -0.8607  0.2149  0.7099
   18CHTO   C52 7470   5.444   8.361   2.249  0.5207  0.3744  0.1033
   18CHTO   O35 7471   5.314   8.307   2.268 -0.4490 -0.3494 -0.1010
   18CHTO   H71 7472   5.276   8.291   2.184 -0.7625  0.4055 -0.1072
   18CHTO   O28 7473   5.380   8.816   2.157  0.6729 -0.1758  0.0858
   18CHTO   C42 7474   5.247   8.859   2.180 -0.5410 -0.3789 -0.7586
   18CHTO   H84 7475   5.246   8.967   2.195 -0.0319 -0.9591  4.3276
   18CHTO   C44 7476   5.174   8.801   2.306  0.1680  0.1231  0.4891
   18CHTO   H86 7477   5.177   8.692   2.295 -0.4204 -0.0561  1.9613
   18CHTO   O32 7478   5.250   8.835   2.420 -0.8593 -0.3073  0.3551
   18CHTO   H69 7479   5.257   8.926   2.438  0.4154 -0.6300  1.5772
   18CHTO   C48 7480   5.017   8.853   2.328 -0.0549  0.1590 -0.7280
   18CHTO   H90 7481   5.018   8.961   2.339  1.8194  0.2426 -1.6177
   18CHTO    N9 7482   4.952   8.798   2.451 -0.1601 -0.3645 -0.1437
   18CHTO   H77 7483   4.920   8.887   2.504  0.5454 -0.4027  0.3602
   18CHTO   H78 7484   4.862   8.743   2.430  0.4811 -1.2362 -0.6385
   18CHTO   C51 7485   4.944   8.810   2.194 -0.7827  0.3393  0.0415
   18CHTO   H93 7486   4.959   8.702   2.185 -0.0204  0.3302  1.2869
   18CHTO   O30 7487   5.005   8.877   2.084  0.6381 -0.2370 -0.1785
   18CHTO   C46 7488   5.155   8.832   2.058  0.8380 -0.4182  0.0269
   18CHTO   H88 7489   5.141   8.727   2.034  1.5454 -0.4084 -0.4853
   18CHTO   C53 7490   5.197   8.911   1.938  0.4921 -0.2979  0.0417
   18CHTO   O72 7491   5.123   8.903   1.815  0.3736 -0.3352 -0.1925
   18CHTO  H199 7492   5.190   8.924   1.753 -1.6956  0.8066 -2.1251
   18CHTO   O22 7493   4.804   8.845   2.206 -0.0193  0.2667 -0.6004
   18CHTO   C31 7494   4.689   8.799   2.113 -0.3423  0.7636  0.3338
   18CHTO   H59 7495   4.605   8.865   2.143 -0.1938  0.9065  0.4397
   18CHTO   C29 7496   4.716   8.826   1.966 -0.2900  0.3709  0.5957
   18CHTO   H57 7497   4.802   8.764   1.936 -0.6075 -0.5635  1.6092
   18CHTO   O21 7498   4.756   8.971   1.951  0.2616 -0.3663 -0.0223
   18CHTO   H37 7499   4.765   8.997   1.861  0.1476  1.2098  0.3991
   18CHTO   C27 7500   4.587   8.788   1.873 -0.6450 -0.9566  0.0864
   18CHTO   H55 7501   4.505   8.860   1.888 -1.6267 -1.5911 -2.0213
   18CHTO    N5 7502   4.623   8.785   1.727 -0.5970 -0.3805  0.3040
   18CHTO   H43 7503   4.523   8.770   1.688 -0.3792 -0.4880 -0.2141
   18CHTO   H44 7504   4.660   8.879   1.689 -0.4614 -0.5869 -0.0788
   18CHTO   C25 7505   4.542   8.644   1.918 -0.3929  0.0783  0.6426
   18CHTO   H53 7506   4.621   8.574   1.886  0.0740  1.7572 -1.9664
   18CHTO   O17 7507   4.525   8.623   2.064  0.1098  0.1746  0.2475
   18CHTO   C32 7508   4.643   8.652   2.136  0.4867 -0.1609  0.4886
   18CHTO   H60 7509   4.723   8.587   2.100  0.6109 -0.4007  1.1952
   18CHTO   C36 7510   4.620   8.636   2.284 -0.7518  0.1545  0.2048
   18CHTO   O25 7511   4.516   8.726   2.329 -0.0394  0.0342  0.5452
   18CHTO   H40 7512   4.449   8.674   2.370  0.3324 -0.8635  0.0034
   18CHTO   O15 7513   4.432   8.582   1.854 -0.2400 -0.7252  0.5921
   18CHTO   C19 7514   4.407   8.489   1.743 -0.2034  0.0662 -0.3279
   18CHTO   H47 7515   4.318   8.433   1.774  0.1292 -0.4436 -0.2839
   18CHTO   C20 7516   4.375   8.560   1.600  1.0714 -0.0387 -0.5792
   18CHTO   H48 7517   4.457   8.624   1.564  1.6738 -0.7631 -0.4992
   18CHTO   O19 7518   4.258   8.640   1.622  0.1162  0.2527  0.3152
   18CHTO   H35 7519   4.283   8.731   1.620  1.5376 -0.1398 -3.2167
   18CHTO   C21 7520   4.349   8.455   1.486 -0.1418 -0.2677  0.7708
   18CHTO   H49 7521   4.252   8.409   1.505 -0.7543  1.2065  1.2573
   18CHTO    N4 7522   4.339   8.518   1.352  0.1522  0.7919  0.1188
   18CHTO   H41 7523   4.380   8.618   1.353 -0.2152  0.9512 -0.8525
   18CHTO   H42 7524   4.239   8.528   1.313 -0.1087  2.1133  1.0876
   18CHTO   C22 7525   4.462   8.346   1.488  0.3522  0.0409 -0.3819
   18CHTO   H50 7526   4.555   8.395   1.457 -0.7243  1.3884 -1.5520
   18CHTO   O14 7527   4.481   8.293   1.618  0.4829 -0.5593  0.3390
   18CHTO   C23 7528   4.518   8.381   1.727  0.7142 -1.0367  0.2403
   18CHTO   H51 7529   4.616   8.427   1.706 -0.4615  1.2607 -0.3871
   18CHTO   C34 7530   4.548   8.303   1.856 -0.2138  0.3147 -0.3866
   18CHTO   O23 7531   4.441   8.241   1.928 -0.4198  0.0242  0.3106
   18CHTO   H38 7532   4.468   8.177   1.992 -0.3223  0.9917  1.2606
   18CHTO   O16 7533   4.431   8.235   1.405  0.2684 -0.0028 -0.1524
   18CHTO   C24 7534   4.561   8.164   1.344 -0.0594  0.3117 -0.1733
   18CHTO   H52 7535   4.654   8.197   1.391  1.4432 -2.3660 -1.1191
   18CHTO   C26 7536   4.578   8.190   1.190 -0.1837 -0.3621  0.6537
   18CHTO   H54 7537   4.481   8.178   1.138 -0.3557 -1.0466  1.1284
   18CHTO   O20 7538   4.609   8.328   1.170 -0.0979  0.0173 -0.2750
   18CHTO   H36 7539   4.531   8.381   1.175  0.5490  0.8959  0.5689
   18CHTO   C30 7540   4.689   8.114   1.126 -0.2860  0.2455  0.2714
   18CHTO   H58 7541   4.782   8.170   1.142  1.3323 -2.1142 -0.5364
   18CHTO    N6 7542   4.683   8.119   0.977 -0.2456  0.1136  0.0563
   18CHTO   H45 7543   4.782   8.145   0.944 -0.1888  0.4673  0.5167
   18CHTO   H46 7544   4.649   8.025   0.935 -1.9264  1.1855 -1.0881
   18CHTO   C33 7545   4.684   7.961   1.173 -0.4625  0.4095  0.7536
   18CHTO   H61 7546   4.594   7.919   1.126  0.6162  0.6254 -1.5551
   18CHTO   O18 7547   4.670   7.950   1.318  0.2457 -0.2786 -0.0643
   18CHTO   C28 7548   4.549   8.001   1.370  0.0153 -0.3744  0.1743
   18CHTO   H56 7549   4.465   7.967   1.310 -1.0209  1.6349  0.4429
   18CHTO   C35 7550   4.538   7.964   1.529 -0.2043 -0.0821  1.0571
   18CHTO   O24 7551   4.569   7.831   1.573  0.2614 -0.2302 -0.4874
   18CHTO   H39 7552   4.519   7.800   1.646 -1.2043  3.4063  0.1892
   18CHTO    O9 7553   4.797   7.882   1.123  0.8398  0.0909 -0.0084
   18CHTO   C13 7554   4.948   7.905   1.218 -0.1535  0.0955  0.4594
   18CHTO   H26 7555   4.924   7.885   1.324 -0.0502  0.1378  0.4905
   18CHTO   C11 7556   5.010   8.049   1.201 -0.4401 -0.0141 -0.3177
   18CHTO   H24 7557   4.951   8.117   1.263  0.9401  1.3493 -0.4752
   18CHTO    O8 7558   5.007   8.098   1.067 -0.6403  0.2305  0.6816
   18CHTO    H3 7559   4.955   8.037   1.018  0.2090  1.5903 -1.9899
   18CHTO    C9 7560   5.149   8.048   1.267  0.0017  0.7731 -0.0364
   18CHTO   H22 7561   5.137   8.032   1.375  0.1808  1.8686  0.1508
   18CHTO    N2 7562   5.219   8.174   1.272 -0.0357  0.0983  0.4019
   18CHTO   H10 7563   5.236   8.212   1.372  2.9490  0.9274 -0.3724
   18CHTO   H11 7564   5.161   8.244   1.215 -0.3240 -0.0272  0.5405
   18CHTO    C7 7565   5.239   7.925   1.211 -0.0904 -0.5637  0.1807
   18CHTO   H20 7566   5.330   7.927   1.274 -0.4837 -0.1114  0.7457
   18CHTO    O4 7567   5.178   7.795   1.214 -0.1636  0.0068  0.4146
   18CHTO   C14 7568   5.037   7.786   1.175 -1.1113  0.0337  0.6057
   18CHTO   H27 7569   4.994   7.701   1.232 -0.5528 -1.6800 -1.4530
   18CHTO   C18 7570   5.026   7.745   1.027 -0.1766 -0.0263  0.1020
   18CHTO   O13 7571   5.100   7.627   0.987  0.0435  0.3568  0.1710
   18CHTO    H7 7572   5.095   7.558   1.051 -1.5618 -0.3166 -0.6297
   18CHTO    O2 7573   5.277   7.958   1.059 -0.1651 -0.5903  0.2847
   18CHTO    C1 7574   5.408   7.930   1.011  0.6183  0.1356  0.2396
   18CHTO   H14 7575   5.398   7.926   0.901  1.2130  1.3979  0.1330
   18CHTO    C2 7576   5.459   7.788   1.056 -0.0308  0.6317  0.1256
   18CHTO   H15 7577   5.450   7.771   1.164  0.7105 -0.9675 -0.0471
   18CHTO    O6 7578   5.367   7.697   0.997 -0.0838 -0.3351  0.7472
   18CHTO    H1 7579   5.415   7.618   0.977 -1.0815 -0.3679 -1.7662
   18CHTO    C3 7580   5.610   7.786   1.000  0.1042 -0.0358 -0.6740
   18CHTO   H16 7581   5.618   7.780   0.891 -1.4557 -0.9597 -0.7527
   18CHTO    N1 7582   5.680   7.660   1.046 -0.1625 -0.5857 -0.2813
   18CHTO    H8 7583   5.626   7.597   1.116  0.3532  1.7639  2.3258
   18CHTO    H9 7584   5.744   7.607   0.977 -0.3724 -1.4905  0.1956
   18CHTO    C4 7585   5.699   7.914   1.048 -0.2904  0.2366  0.0588
   18CHTO   H17 7586   5.720   7.906   1.154 -0.9693 -2.1518  0.0341
   18CHTO    O1 7587   5.633   8.044   1.018 -0.0080  0.0559  0.2176
   18CHTO    C5 7588   5.499   8.052   1.068 -0.1176 -0.0174  0.1443
   18CHTO   H18 7589   5.482   8.052   1.175 -1.3720  3.2143 -0.0151
   18CHTO   C16 7590   5.467   8.189   1.006  0.3066 -0.1852  0.7356
   18CHTO   O11 7591   5.527   8.300   1.071  0.2836  0.1445  0.4527
   18CHTO    H5 7592   5.494   8.382   1.041 -0.2775 -0.6405 -1.1728
   18CHTO    O3 7593   5.822   7.916   0.965  1.5347 -0.5243  0.5619
   18CHTO    C6 7594   5.939   7.994   1.020 -0.0876  0.3930 -0.3026
   18CHTO   H19 7595   5.905   8.035   1.115 -1.6939 -3.8786  1.0963
   18CHTO    C8 7596   6.059   7.893   1.033  0.4734 -0.7489 -0.2332
   18CHTO   H21 7597   6.082   7.848   0.937  0.1211  1.2206 -1.2743
   18CHTO    O7 7598   6.023   7.789   1.126 -0.8480  0.5643  0.0928
   18CHTO    H2 7599   6.103   7.742   1.142  0.2891  2.0867 -1.0485
   18CHTO   C12 7600   6.187   7.972   1.082 -0.4554  0.0287 -0.0664
   18CHTO   H25 7601   6.172   7.987   1.191  0.2158  0.0578  0.0234
   18CHTO    N3 7602   6.302   7.884   1.084  0.4234  0.1443 -0.1942
   18CHTO   H12 7603   6.319   7.840   0.987  0.1717 -0.3249 -0.0278
   18CHTO   H13 7604   6.391   7.941   1.108  2.3580 -2.3880 -1.0427
   18CHTO   C15 7605   6.216   8.108   1.016  0.2135  0.3253  0.1352
   18CHTO   H28 7606   6.275   8.085   0.927  0.4161 -1.8391  0.7951
   18CHTO   O10 7607   6.302   8.196   1.112  0.2286 -0.6113 -0.5290
   18CHTO    H4 7608   6.382   8.229   1.077  0.7608 -1.0862  0.2358
   18CHTO    O5 7609   6.099   8.183   0.994  0.2736 -0.3149 -0.2626
   18CHTO   C10 7610   5.993   8.112   0.927  0.3663  0.2095 -0.9319
   18CHTO   H23 7611   6.030   8.078   0.831 -1.5775 -2.0167 -0.9471
   18CHTO   C17 7612   5.872   8.213   0.900  0.5156 -0.1313  0.1334
   18CHTO   O12 7613   5.901   8.326   0.818 -0.3669  0.6734 -0.5971
   18CHTO    H6 7614   5.851   8.403   0.840 -1.5611  0.2311 -1.7086
   19CHTO  H203 7615   5.297   9.786   0.271  0.0846  0.2846  0.0871
   19CHTO   O82 7616   5.260   9.705   0.300  0.7271 -0.1550 -0.2991
   19CHTO  C123 7617   5.268   9.591   0.217 -0.2515  1.0002 -0.4165
   19CHTO  H227 7618   5.256   9.622   0.112 -0.0105 -1.3627 -1.1792
   19CHTO   O77 7619   5.411   9.559   0.234 -0.2892 -0.0278  0.1068
   19CHTO  C118 7620   5.457   9.443   0.161  0.4345 -0.1690  0.2403
   19CHTO  H222 7621   5.441   9.469   0.055  0.2439  0.2177  0.3623
   19CHTO  C125 7622   5.606   9.422   0.186  0.1618 -0.1161 -0.1217
   19CHTO   O84 7623   5.681   9.508   0.096  0.0261 -0.7394  0.6778
   19CHTO  H205 7624   5.758   9.462   0.069  2.6809  1.8497  3.4161
   19CHTO  C114 7625   5.379   9.317   0.198  0.0961 -0.4513  0.0580
   19CHTO  H218 7626   5.396   9.292   0.302  1.1880 -0.3325 -0.0894
   19CHTO  C116 7627   5.218   9.347   0.175  0.1447  0.9964 -0.1487
   19CHTO  H220 7628   5.204   9.361   0.066 -1.0290 -2.3465 -0.4794
   19CHTO   O79 7629   5.145   9.230   0.212  0.3114  0.1846  0.0316
   19CHTO  H201 7630   5.054   9.243   0.189 -0.3939 -0.6072  2.3186
   19CHTO  C120 7631   5.169   9.471   0.259 -0.1114 -0.0984  0.1003
   19CHTO  H224 7632   5.180   9.439   0.365 -0.0545 -3.8844 -0.9506
   19CHTO   N21 7633   5.024   9.503   0.252  0.4665 -0.0930  0.2344
   19CHTO  H211 7634   5.001   9.537   0.351 -1.8833 -2.4989  0.5663
   19CHTO  H212 7635   5.007   9.586   0.185 -1.3741 -1.9556 -1.6580
   19CHTO   O75 7636   5.427   9.214   0.107  0.6752  0.1467  0.1923
   19CHTO  C112 7637   5.470   9.069   0.168  0.1650  0.5281 -0.0263
   19CHTO  H216 7638   5.440   9.052   0.272  0.3663  2.4784  0.3813
   19CHTO   O73 7639   5.613   9.074   0.156  0.3508  0.3022  0.2274
   19CHTO  C113 7640   5.693   8.951   0.194  0.0111  0.4177  0.1478
   19CHTO  H217 7641   5.665   8.925   0.299 -0.7412  0.5377 -0.0177
   19CHTO  C124 7642   5.845   8.959   0.199 -0.1768 -0.2590 -0.4396
   19CHTO   O83 7643   5.897   9.073   0.268 -0.0949  0.2959  0.2118
   19CHTO  H204 7644   5.907   9.144   0.207 -0.9401  1.5752  1.5447
   19CHTO  C109 7645   5.644   8.830   0.109  0.7039 -0.2357  0.1128
   19CHTO  H213 7646   5.671   8.848   0.004 -0.9031 -1.8942 -0.6133
   19CHTO  C110 7647   5.487   8.813   0.118  0.6615 -0.0284 -0.1471
   19CHTO  H214 7648   5.461   8.795   0.222 -0.0186 -3.3035 -0.8364
   19CHTO   O78 7649   5.440   8.699   0.039 -0.1162  0.0760 -0.0420
   19CHTO  H200 7650   5.382   8.732  -0.027 -0.1605  0.9254  0.4133
   19CHTO  C111 7651   5.412   8.949   0.082 -0.0317  0.7415  0.3652
   19CHTO  H215 7652   5.438   8.974  -0.022  0.7914  3.1743  1.1262
   19CHTO   N19 7653   5.264   8.943   0.091  0.3459 -0.0878  0.3996
   19CHTO  H207 7654   5.235   8.884   0.177  1.7970 -2.0749 -0.4423
   19CHTO  H208 7655   5.213   8.906   0.004  0.0063  0.3674  0.4042
   19CHTO   O74 7656   5.704   8.699   0.149 -0.0476 -0.2070  0.0751
   19CHTO  C115 7657   5.741   8.607   0.014 -0.0961 -0.1080  1.0129
   19CHTO  H219 7658   5.676   8.634  -0.069  1.8162  2.9823  0.4313
   19CHTO   O76 7659   5.876   8.627  -0.034  0.4828 -0.0273  0.5895
   19CHTO  C122 7660   5.901   8.571  -0.167  0.6014  0.0648 -0.2874
   19CHTO  H226 7661   6.007   8.562  -0.189  0.2590 -0.7571 -1.6524
   19CHTO  C126 7662   5.836   8.648  -0.285 -0.1450  0.2213 -0.5270
   19CHTO   O85 7663   5.874   8.784  -0.306 -0.4153  0.2341  0.1800
   19CHTO  H206 7664   5.879   8.802  -0.398 -1.0875 -1.7006 -0.2529
   19CHTO  C121 7665   5.858   8.415  -0.180 -0.0155  0.1067  0.7538
   19CHTO  H225 7666   5.850   8.384  -0.286  0.8422  0.2023  0.6507
   19CHTO   O81 7667   5.963   8.334  -0.129 -0.5068 -0.5241 -0.4453
   19CHTO  H202 7668   5.970   8.243  -0.148  0.6702 -0.4077 -0.5779
   19CHTO  C119 7669   5.722   8.379  -0.104 -0.8525 -0.1735 -0.2073
   19CHTO  H223 7670   5.639   8.416  -0.164  0.0349  0.9014 -0.7886
   19CHTO  C117 7671   5.712   8.450   0.032  0.0808  0.0658 -0.0977
   19CHTO  H221 7672   5.788   8.432   0.109  0.2561  1.9181  0.1833
   19CHTO   N20 7673   5.583   8.430   0.097  0.4967 -0.0391  0.1446
   19CHTO  H209 7674   5.504   8.497   0.065  0.2289 -1.2127 -1.7576
   19CHTO  H210 7675   5.554   8.326   0.106 -1.3890  0.6243  2.5327
   19CHTO   O80 7676   5.693   8.223  -0.096  0.2302  0.6158 -0.0597
   19CHTO  C103 7677   5.639   8.152  -0.212 -0.0743 -0.2482  0.0917
   19CHTO  H190 7678   5.618   8.219  -0.295  0.2898  0.4588  0.5559
   19CHTO  C101 7679   5.733   8.030  -0.252 -0.6560  0.5354 -0.1633
   19CHTO  H188 7680   5.766   7.982  -0.161 -0.7360 -1.7647 -1.3113
   19CHTO   O68 7681   5.861   8.090  -0.332  0.5053 -0.2337 -0.2350
   19CHTO  H168 7682   5.894   8.026  -0.392 -0.7666 -0.0092 -1.1796
   19CHTO   C99 7683   5.649   7.913  -0.328 -0.2957  0.2210 -0.4832
   19CHTO  H186 7684   5.631   7.945  -0.433 -3.0219  2.4088  0.5844
   19CHTO   N17 7685   5.727   7.787  -0.352 -0.4712  0.2343 -0.0505
   19CHTO  H174 7686   5.807   7.796  -0.423  0.1381 -5.2616 -0.2928
   19CHTO  H175 7687   5.656   7.717  -0.394 -1.7145  1.2470  0.3233
   19CHTO   C97 7688   5.506   7.886  -0.268  0.4481  0.5373 -0.0934
   19CHTO  H184 7689   5.519   7.834  -0.173 -2.0249 -3.3355 -1.7688
   19CHTO   O64 7690   5.443   8.010  -0.249 -0.5999  0.3234  0.1472
   19CHTO  C104 7691   5.494   8.104  -0.158  0.3272 -0.1666  0.1123
   19CHTO  H191 7692   5.503   8.072  -0.054  1.4109  5.2361  1.8029
   19CHTO  C108 7693   5.395   8.224  -0.148  0.1421  0.5519  0.4945
   19CHTO   O71 7694   5.283   8.192  -0.061 -0.3701 -0.3914 -0.6307
   19CHTO  H171 7695   5.252   8.107  -0.086 -1.4183 -0.9381  2.4095
   19CHTO   O62 7696   5.427   7.811  -0.359 -0.2909  0.1291  0.4772
   19CHTO   C91 7697   5.306   7.734  -0.319 -0.2719  0.5202 -0.3245
   19CHTO  H178 7698   5.294   7.747  -0.211  0.0952  1.1960 -0.3607
   19CHTO   C92 7699   5.320   7.588  -0.348 -0.0024 -0.2114  0.1593
   19CHTO  H179 7700   5.326   7.575  -0.457  1.3893  1.5213  0.0059
   19CHTO   O66 7701   5.439   7.546  -0.290  0.1217  1.1854 -0.4061
   19CHTO  H166 7702   5.455   7.453  -0.283 -1.4832  1.0634  2.0105
   19CHTO   C93 7703   5.201   7.509  -0.299 -0.2407  0.3754 -0.4293
   19CHTO  H180 7704   5.199   7.513  -0.189  1.0999  1.0476 -0.4182
   19CHTO   N16 7705   5.208   7.360  -0.330  0.3098 -0.1860  0.1255
   19CHTO  H172 7706   5.298   7.321  -0.284 -0.3483  1.1464  2.6870
   19CHTO  H173 7707   5.124   7.314  -0.279  1.6611 -1.5433  1.1390
   19CHTO   C94 7708   5.064   7.565  -0.355 -0.1864 -0.6012 -0.1536
   19CHTO  H181 7709   5.059   7.545  -0.462 -0.8020 -3.0072  0.2949
   19CHTO   O61 7710   5.063   7.707  -0.330  0.4476  0.1607  0.2176
   19CHTO   C95 7711   5.171   7.777  -0.387  0.0362 -0.4193  1.1518
   19CHTO  H182 7712   5.164   7.766  -0.496 -3.3331 -1.3784  1.4141
   19CHTO  C106 7713   5.148   7.925  -0.355  0.0985  0.0252 -0.2391
   19CHTO   O69 7714   5.215   8.013  -0.443  0.0814  0.2444 -0.3078
   19CHTO  H169 7715   5.166   8.091  -0.460 -1.5950 -0.4114  1.3689
   19CHTO   O63 7716   4.946   7.500  -0.277 -0.1460  0.1079 -0.1262
   19CHTO   C96 7717   4.813   7.466  -0.378  0.0615 -0.1288  0.1323
   19CHTO  H183 7718   4.842   7.408  -0.466 -2.5043  1.7508 -2.0653
   19CHTO   C98 7719   4.735   7.601  -0.427 -0.7045 -0.3631  0.3060
   19CHTO  H185 7720   4.804   7.673  -0.473 -0.2117  0.8025  2.8103
   19CHTO   O67 7721   4.645   7.563  -0.532 -0.0333 -0.4841 -0.2045
   19CHTO  H167 7722   4.639   7.623  -0.604  0.0006 -1.1641 -0.7809
   19CHTO  C102 7723   4.642   7.679  -0.321  0.5529 -0.2359  0.0969
   19CHTO  H189 7724   4.566   7.729  -0.382 -0.3911 -1.7086  0.0421
   19CHTO   N18 7725   4.703   7.786  -0.241  0.1394 -0.0795 -0.4665
   19CHTO  H176 7726   4.792   7.749  -0.193  0.7505 -0.4420 -1.8640
   19CHTO  H177 7727   4.630   7.818  -0.167  0.0947 -0.1648 -0.4723
   19CHTO  C105 7728   4.576   7.565  -0.237 -0.5456 -0.6434  0.1628
   19CHTO  H192 7729   4.616   7.569  -0.136 -0.6965 -1.2604  0.2458
   19CHTO   O65 7730   4.581   7.428  -0.280 -0.0231 -0.1936 -0.2062
   19CHTO  C100 7731   4.718   7.375  -0.281  0.3803  0.6041  0.0609
   19CHTO  H187 7732   4.760   7.369  -0.179 -0.4727  0.9406  0.4453
   19CHTO  C107 7733   4.707   7.227  -0.337  0.2328  0.2994  0.4883
   19CHTO   O70 7734   4.817   7.145  -0.287 -0.3243  0.0047 -0.2091
   19CHTO  H170 7735   4.861   7.108  -0.362 -1.2035  0.5761 -1.0105
   19CHTO   O57 7736   4.436   7.606  -0.229  0.2286  0.0867  0.3185
   19CHTO   C85 7737   4.329   7.524  -0.174  0.6006  0.1369  0.0007
   19CHTO  H157 7738   4.387   7.453  -0.111  1.3631  0.9678  0.2396
   19CHTO   C83 7739   4.263   7.445  -0.295 -0.5516  0.3734 -0.8605
   19CHTO  H155 7740   4.342   7.381  -0.334  0.4896  0.5082  0.9502
   19CHTO   O56 7741   4.239   7.545  -0.399  0.4965 -0.3425 -1.0596
   19CHTO  H135 7742   4.322   7.566  -0.438  1.8330 -0.6944  1.5002
   19CHTO   C81 7743   4.138   7.357  -0.251  0.5536 -0.1623  1.0239
   19CHTO  H153 7744   4.174   7.279  -0.184 -0.3818 -0.3483  1.3188
   19CHTO   N14 7745   4.085   7.274  -0.363 -0.1301 -0.4440  0.1399
   19CHTO  H141 7746   4.041   7.184  -0.327 -0.3058 -0.9394 -1.2698
   19CHTO  H142 7747   4.007   7.331  -0.409 -1.1256  0.2237  2.5829
   19CHTO   C79 7748   4.030   7.436  -0.167 -0.0649  0.4741 -0.1767
   19CHTO  H151 7749   3.968   7.365  -0.111  0.6827  0.8410  1.1451
   19CHTO   O52 7750   4.094   7.509  -0.061  0.3077 -0.1345 -0.3120
   19CHTO   C86 7751   4.206   7.595  -0.090 -0.2811 -0.3683  0.1819
   19CHTO  H158 7752   4.169   7.687  -0.141  2.3085  1.0142  0.6916
   19CHTO   C90 7753   4.260   7.653   0.044 -0.1457  0.5024 -0.0435
   19CHTO   O60 7754   4.149   7.710   0.114 -0.9783  0.1300 -0.1201
   19CHTO  H138 7755   4.179   7.754   0.191  2.1118 -0.2968 -1.0159
   19CHTO   O50 7756   3.951   7.530  -0.247  0.2373  0.4763 -0.5477
   19CHTO   C73 7757   3.824   7.581  -0.289  0.4246 -0.0083 -0.0031
   19CHTO  H145 7758   3.743   7.539  -0.227  1.4586 -1.8788  0.1205
   19CHTO   C74 7759   3.801   7.555  -0.446 -0.2214  0.1236  0.2522
   19CHTO  H146 7760   3.823   7.448  -0.459 -2.9733 -0.6168  1.3699
   19CHTO   O54 7761   3.663   7.578  -0.481 -0.2823 -0.1030  0.0609
   19CHTO  H133 7762   3.607   7.538  -0.417 -1.0018 -1.0017 -1.1152
   19CHTO   C75 7763   3.896   7.645  -0.537  0.0315  0.1461  0.8822
   19CHTO  H147 7764   4.000   7.617  -0.511  1.0673  1.3762 -1.7330
   19CHTO   N13 7765   3.875   7.619  -0.680 -0.2566  0.0203  0.0031
   19CHTO  H139 7766   3.778   7.659  -0.707 -0.2103 -2.0078 -3.4511
   19CHTO  H140 7767   3.947   7.667  -0.745 -0.0717 -1.1314 -0.6430
   19CHTO   C76 7768   3.887   7.801  -0.494  0.3469 -0.3649 -0.7444
   19CHTO  H148 7769   3.785   7.825  -0.525  0.3754 -1.5713 -1.8513
   19CHTO   O49 7770   3.919   7.817  -0.352  0.2365  0.0477  0.6922
   19CHTO   C77 7771   3.823   7.738  -0.275 -1.2472  0.1337  0.8933
   19CHTO  H149 7772   3.719   7.766  -0.294 -0.6657  0.7137 -1.5987
   19CHTO   C88 7773   3.837   7.783  -0.125  0.3385  0.1355  0.1382
   19CHTO   O58 7774   3.721   7.698  -0.033 -0.8011 -0.6557  0.0889
   19CHTO  H136 7775   3.741   7.719   0.056  0.8889  1.5940 -0.7644
   19CHTO   O51 7776   3.996   7.883  -0.571 -0.4133  0.1338 -0.0594
   19CHTO   C78 7777   4.038   8.030  -0.506 -0.4122 -0.0405  0.4851
   19CHTO  H150 7778   3.975   8.056  -0.419 -2.0374  1.3242 -1.0583
   19CHTO   C80 7779   4.018   8.142  -0.613  0.5245 -0.3337 -0.3552
   19CHTO  H152 7780   4.054   8.101  -0.710  1.8934  0.5796 -0.2358
   19CHTO   O55 7781   3.876   8.167  -0.627 -0.1729  0.1413 -0.1090
   19CHTO  H134 7782   3.851   8.238  -0.570  1.5625  1.5754 -1.0656
   19CHTO   C84 7783   4.103   8.266  -0.571 -0.5229  0.3626  0.1093
   19CHTO  H156 7784   4.050   8.319  -0.492 -0.2282 -1.0578  1.2782
   19CHTO   N15 7785   4.120   8.375  -0.682 -0.2312  0.0124 -0.0710
   19CHTO  H143 7786   4.192   8.336  -0.751 -0.9414  0.8441 -1.3016
   19CHTO  H144 7787   4.035   8.411  -0.736  0.6415  1.4850 -0.4889
   19CHTO   C87 7788   4.245   8.244  -0.516 -0.3996  0.1525  0.3715
   19CHTO  H159 7789   4.311   8.222  -0.600  0.9010 -0.1100  1.4447
   19CHTO   O53 7790   4.246   8.133  -0.425 -0.0767 -0.2577  0.1150
   19CHTO   C82 7791   4.183   8.010  -0.470 -0.0999 -0.2494  0.3445
   19CHTO  H154 7792   4.236   7.975  -0.558 -0.7121 -0.5183  0.0860
   19CHTO   C89 7793   4.202   7.902  -0.365  0.5285  0.0232  0.3128
   19CHTO   O59 7794   4.335   7.872  -0.342 -0.2183  0.0459 -0.0671
   19CHTO  H137 7795   4.348   7.824  -0.263 -0.3341 -1.0981 -0.7358
   19CHTO   O45 7796   4.311   8.398  -0.418 -0.4133 -0.2410  0.8518
   19CHTO   C67 7797   4.261   8.398  -0.283  0.5643 -0.2213  0.0385
   19CHTO  H124 7798   4.171   8.336  -0.276 -0.1709  0.8419  0.1678
   19CHTO   C65 7799   4.374   8.342  -0.188  0.2938 -0.0262 -0.1444
   19CHTO  H122 7800   4.460   8.364  -0.251  0.0919 -0.1750 -0.4724
   19CHTO   O44 7801   4.357   8.198  -0.169  0.2277  0.3642  0.4339
   19CHTO  H102 7802   4.289   8.182  -0.106 -1.7971 -1.2255 -2.0400
   19CHTO   C63 7803   4.396   8.423  -0.057 -0.8417 -0.6611 -0.3410
   19CHTO  H120 7804   4.441   8.518  -0.087  0.3457 -1.0688  0.1116
   19CHTO   N11 7805   4.494   8.379   0.048  0.3284 -0.3693  0.0427
   19CHTO  H108 7806   4.589   8.383   0.000  1.0776 -0.4781  1.5058
   19CHTO  H109 7807   4.496   8.447   0.130 -0.9889 -1.4776  1.0130
   19CHTO   C61 7808   4.251   8.473  -0.002  0.0013  0.3001 -0.1210
   19CHTO  H118 7809   4.264   8.546   0.080  1.2595 -0.3010  0.2139
   19CHTO   O40 7810   4.173   8.540  -0.104 -0.5833 -0.1151 -0.5793
   19CHTO   C68 7811   4.220   8.543  -0.243 -0.0278  0.3491 -0.2452
   19CHTO  H125 7812   4.302   8.616  -0.258  1.2352 -1.2766 -1.2742
   19CHTO   C72 7813   4.098   8.589  -0.325 -0.9912  0.4086 -0.3268
   19CHTO   O48 7814   4.066   8.717  -0.282  0.1832 -0.1761 -0.2844
   19CHTO  H105 7815   3.974   8.733  -0.288 -0.0693 -1.3500  0.3610
   19CHTO   O38 7816   4.173   8.367   0.051  0.6007 -0.3964 -0.6990
   19CHTO   C55 7817   4.055   8.396   0.135 -0.2970 -0.4956 -0.3598
   19CHTO  H112 7818   3.997   8.484   0.103 -1.2233 -0.8074  0.4383
   19CHTO   C56 7819   4.094   8.408   0.289  0.1619  0.0634  1.3515
   19CHTO  H113 7820   4.131   8.310   0.324  0.9483 -0.0422  0.2446
   19CHTO   O42 7821   4.203   8.506   0.315  0.0608 -0.2883  0.1215
   19CHTO  H100 7822   4.249   8.525   0.235 -1.6745  0.7014 -0.6704
   19CHTO   C57 7823   3.969   8.452   0.369 -0.6316 -0.1456 -0.1077
   19CHTO  H114 7824   3.948   8.550   0.328  1.5134  0.2315 -0.3876
   19CHTO   N10 7825   3.995   8.476   0.514  0.4409 -0.3002 -0.0610
   19CHTO  H106 7826   3.905   8.460   0.571  1.2973 -1.3086  1.0540
   19CHTO  H107 7827   4.034   8.575   0.528  1.7145 -0.8260  0.2562
   19CHTO   C58 7828   3.851   8.357   0.334  0.0633  0.3757  0.0844
   19CHTO  H115 7829   3.869   8.260   0.384  0.0204  0.5920  0.5236
   19CHTO   O37 7830   3.832   8.326   0.191  0.0121 -0.1225 -0.0921
   19CHTO   C59 7831   3.950   8.283   0.125 -1.0818 -0.7127 -0.2891
   19CHTO  H116 7832   3.985   8.192   0.174 -1.6249 -0.9618 -0.3720
   19CHTO   C70 7833   3.924   8.254  -0.019 -0.9739 -0.0912 -0.0869
   19CHTO   O46 7834   3.822   8.151  -0.049  0.4191 -0.2185 -0.4015
   19CHTO  H103 7835   3.829   8.103  -0.129  2.6895 -0.8895  0.1891
   19CHTO   O39 7836   3.686   8.426   0.401 -0.1633 -0.1322  0.4235
   19CHTO   C60 7837   3.590   8.458   0.299  0.1113  0.0509  0.0920
   19CHTO  H117 7838   3.620   8.398   0.213  0.4078 -1.2637  1.0821
   19CHTO   C62 7839   3.454   8.401   0.341  0.1235 -0.2623 -0.2011
   19CHTO  H119 7840   3.480   8.297   0.368  1.0891 -0.8522 -3.2425
   19CHTO   O43 7841   3.396   8.466   0.458  0.2565 -0.0717 -0.8604
   19CHTO  H101 7842   3.421   8.556   0.444 -0.1224 -0.0431 -1.3421
   19CHTO   C66 7843   3.364   8.419   0.212  0.4216 -0.2902 -0.2078
   19CHTO  H123 7844   3.405   8.366   0.126  2.3086 -1.0180  1.1142
   19CHTO   N12 7845   3.235   8.353   0.224 -0.3076 -0.2096 -0.0620
   19CHTO  H110 7846   3.163   8.403   0.287 -1.7210 -1.5518 -0.5835
   19CHTO  H111 7847   3.249   8.253   0.260 -2.8641 -1.6406 -2.7917
   19CHTO   C69 7848   3.345   8.568   0.163  0.0192 -0.6028 -0.0580
   19CHTO  H126 7849   3.295   8.639   0.232  1.1553 -0.9185  1.0944
   19CHTO   O41 7850   3.494   8.629   0.144 -0.1474  0.1914  0.1633
   19CHTO   C64 7851   3.576   8.610   0.262  0.1854  0.0426 -0.0079
   19CHTO  H121 7852   3.520   8.659   0.344 -0.0613 -1.5307  0.7860
   19CHTO   C71 7853   3.718   8.669   0.241  0.0762  0.1554 -0.6494
   19CHTO   O47 7854   3.704   8.809   0.255  0.0275 -0.0916  0.3048
   19CHTO  H104 7855   3.791   8.842   0.266  0.1539  0.0093 -0.9144
   19CHTO   O34 7856   3.284   8.578   0.022  0.2044 -0.1500  0.0674
   19CHTO   C49 7857   3.352   8.571  -0.116  0.1009 -0.3389  0.2822
   19CHTO   H91 7858   3.409   8.663  -0.129 -2.0297  1.0264  0.3743
   19CHTO   C47 7859   3.263   8.562  -0.241  0.2318  0.8733 -0.9001
   19CHTO   H89 7860   3.333   8.569  -0.327  0.0402 -0.9199 -1.2206
   19CHTO   O33 7861   3.178   8.674  -0.249  0.1419 -0.1479  0.5993
   19CHTO   H70 7862   3.121   8.664  -0.323 -1.2439 -0.8200  1.7440
   19CHTO   C45 7863   3.182   8.423  -0.230  0.1979 -0.1100  0.7589
   19CHTO   H87 7864   3.143   8.404  -0.129 -2.0935 -2.4452 -0.4903
   19CHTO    N8 7865   3.068   8.413  -0.330  0.0243  1.1188  0.3127
   19CHTO   H75 7866   2.987   8.485  -0.334 -0.2831  0.6744 -2.1703
   19CHTO   H76 7867   3.052   8.315  -0.372 -1.7089  1.9636 -1.0440
   19CHTO   C43 7868   3.291   8.302  -0.256  1.0611 -0.6261 -0.2676
   19CHTO   H85 7869   3.249   8.202  -0.254 -2.7941  0.8830 -1.6279
   19CHTO   O29 7870   3.396   8.314  -0.154 -0.0679  0.4952 -0.2925
   19CHTO   C50 7871   3.448   8.447  -0.126  0.2815 -0.2212 -0.6751
   19CHTO   H92 7872   3.508   8.445  -0.033 -0.6558 -1.1008 -0.0800
   19CHTO   C54 7873   3.572   8.481  -0.216  0.4676 -0.1550 -0.2585
   19CHTO   O36 7874   3.686   8.396  -0.207  0.7499  0.0367  0.1274
   19CHTO   H72 7875   3.768   8.441  -0.208  0.8432 -0.1421 -0.2792
   19CHTO   O27 7876   3.344   8.309  -0.384  0.2237  0.1361 -0.0284
   19CHTO   C37 7877   3.374   8.313  -0.524  0.3834  0.9173  0.9082
   19CHTO   H79 7878   3.291   8.267  -0.579  0.3352  1.8186  0.2139
   19CHTO   C38 7879   3.379   8.449  -0.588 -0.0673  1.6763  0.2597
   19CHTO   H80 7880   3.452   8.511  -0.532  1.5387  0.2980 -0.2731
   19CHTO   O31 7881   3.250   8.511  -0.580 -0.5170 -1.1334 -0.0925
   19CHTO   H68 7882   3.268   8.600  -0.555  1.5839 -1.3125 -0.8800
   19CHTO   C39 7883   3.422   8.436  -0.740 -0.2522 -0.0435  0.6196
   19CHTO   H81 7884   3.338   8.384  -0.787  0.1465  1.3451 -1.6779
   19CHTO    N7 7885   3.435   8.570  -0.815 -0.1748  0.4075  0.3554
   19CHTO   H73 7886   3.477   8.563  -0.915  1.5365 -1.2912  1.1615
   19CHTO   H74 7887   3.336   8.612  -0.823  0.0855  0.6661 -2.0531
   19CHTO   C40 7888   3.549   8.349  -0.746  0.0960  0.2861  0.4513
   19CHTO   H82 7889   3.643   8.397  -0.718 -0.5980  2.7490 -1.2326
   19CHTO   O26 7890   3.529   8.224  -0.684 -0.1170 -0.0798 -0.4575
   19CHTO   C41 7891   3.505   8.236  -0.543  0.4477  0.6974 -0.3750
   19CHTO   H83 7892   3.583   8.295  -0.493 -0.8148  0.6546  1.7385
   19CHTO   C52 7893   3.509   8.103  -0.467 -0.0864  0.1090 -0.1814
   19CHTO   O35 7894   3.387   7.992  -0.496  0.2523 -0.2526 -0.2653
   19CHTO   H71 7895   3.308   8.041  -0.483 -0.1035 -0.6643 -0.8423
   19CHTO   O28 7896   3.572   8.302  -0.881  0.3302 -0.5928  0.3799
   19CHTO   C42 7897   3.703   8.257  -0.927 -0.1227 -0.3220 -0.2193
   19CHTO   H84 7898   3.773   8.252  -0.843  2.3108  0.6770 -2.1459
   19CHTO   C44 7899   3.774   8.356  -1.025  0.6258  0.3534 -0.1479
   19CHTO   H86 7900   3.708   8.376  -1.109  0.9234 -0.5832 -0.6068
   19CHTO   O32 7901   3.788   8.488  -0.963  0.1117 -0.0584  0.1708
   19CHTO   H69 7902   3.790   8.555  -1.028  0.7068 -0.8880 -0.6689
   19CHTO   C48 7903   3.910   8.287  -1.076  0.7238  0.0224 -0.1520
   19CHTO   H90 7904   3.997   8.270  -1.012  2.0394  1.6301 -1.4420
   19CHTO    N9 7905   3.967   8.380  -1.182 -0.0398 -0.3751  0.2852
   19CHTO   H77 7906   4.016   8.332  -1.266  0.1331 -2.1375  1.3668
   19CHTO   H78 7907   4.029   8.458  -1.140  0.8265 -1.3233  0.8053
   19CHTO   C51 7908   3.890   8.139  -1.129  0.2336 -0.9150 -0.6907
   19CHTO   H93 7909   3.821   8.144  -1.214  1.5697  1.8922 -1.6479
   19CHTO   O30 7910   3.829   8.069  -1.026 -0.2974  0.0289 -0.4594
   19CHTO   C46 7911   3.690   8.112  -0.988 -1.0103 -0.1274 -0.1496
   19CHTO   H88 7912   3.622   8.110  -1.073 -0.0104 -0.9047 -0.9516
   19CHTO   C53 7913   3.626   8.009  -0.883  0.2968 -0.2320 -0.2839
   19CHTO   O72 7914   3.702   7.989  -0.764  0.5981 -0.2339 -0.4475
   19CHTO  H199 7915   3.791   7.962  -0.774  0.5356 -0.8975  0.6759
   19CHTO   O22 7916   4.015   8.072  -1.153  0.5849  0.7263  0.3651
   19CHTO   C31 7917   4.025   7.974  -1.267  0.1895 -0.0008 -0.5667
   19CHTO   H59 7918   3.922   7.950  -1.300  0.3147 -1.3101 -0.0442
   19CHTO   C29 7919   4.107   8.021  -1.386  0.3670  0.2316  0.3892
   19CHTO   H57 7920   4.201   8.043  -1.334 -0.3573  0.7063  1.5031
   19CHTO   O21 7921   4.048   8.143  -1.427  0.6852 -0.0650  0.5060
   19CHTO   H37 7922   4.067   8.177  -1.513 -1.1349  1.8919  0.8150
   19CHTO   C27 7923   4.133   7.915  -1.498  0.0841  0.1208  0.6553
   19CHTO   H55 7924   4.040   7.902  -1.555  0.2626  0.2207  0.3382
   19CHTO    N5 7925   4.234   7.975  -1.592  0.8442 -0.3500 -0.0374
   19CHTO   H43 7926   4.195   8.058  -1.649  2.0143 -1.3251 -2.3310
   19CHTO   H44 7927   4.331   7.987  -1.546  0.8978  1.7832 -0.6691
   19CHTO   C25 7928   4.182   7.778  -1.438  0.5064  0.0613 -0.4859
   19CHTO   H53 7929   4.282   7.782  -1.392  0.7200  2.9603 -1.1279
   19CHTO   O17 7930   4.103   7.744  -1.324 -0.6873 -0.3948 -0.2949
   19CHTO   C32 7931   4.085   7.839  -1.215  0.1138  0.7031  0.5325
   19CHTO   H60 7932   4.178   7.855  -1.161  1.1267 -2.2172 -0.2426
   19CHTO   C36 7933   3.981   7.778  -1.110  0.5136  0.3176  0.6968
   19CHTO   O25 7934   3.853   7.733  -1.175  0.3835 -0.6174 -0.6199
   19CHTO   H40 7935   3.810   7.797  -1.230 -2.3167 -2.0754 -0.2934
   19CHTO   O15 7936   4.175   7.689  -1.515  0.1650  0.3508 -0.1302
   19CHTO   C19 7937   4.222   7.559  -1.563  0.7783 -0.0881  0.1132
   19CHTO   H47 7938   4.185   7.556  -1.667  1.2044  0.6246 -0.0605
   19CHTO   C20 7939   4.368   7.542  -1.566  0.0804 -0.0873 -0.1491
   19CHTO   H48 7940   4.416   7.559  -1.468  1.8161 -3.1615 -0.4152
   19CHTO   O19 7941   4.425   7.650  -1.650 -0.4553  0.1528  0.3354
   19CHTO   H35 7942   4.377   7.654  -1.730  0.8863  0.6532 -0.4677
   19CHTO   C21 7943   4.419   7.394  -1.614  0.2554 -0.1645  0.4167
   19CHTO   H49 7944   4.403   7.382  -1.722 -1.9344 -1.9288  0.8888
   19CHTO    N4 7945   4.566   7.375  -1.612 -0.9026 -0.0182  0.2108
   19CHTO   H41 7946   4.586   7.272  -1.637 -2.2791 -0.0514 -0.8479
   19CHTO   H42 7947   4.597   7.392  -1.511 -0.9898 -0.5178  0.3221
   19CHTO   C22 7948   4.328   7.281  -1.555  0.1808 -0.5339 -0.4725
   19CHTO   H50 7949   4.351   7.262  -1.450  0.0305  2.1976  0.0926
   19CHTO   O14 7950   4.195   7.323  -1.568  0.0508 -0.3759 -0.0783
   19CHTO   C23 7951   4.167   7.435  -1.493 -1.3598 -0.1233  0.1719
   19CHTO   H51 7952   4.209   7.425  -1.392 -0.9730 -0.4642 -0.0214
   19CHTO   C34 7953   4.016   7.435  -1.484  0.3184  0.8307 -0.9540
   19CHTO   O23 7954   3.982   7.340  -1.377 -0.1006 -0.6524  0.5040
   19CHTO   H38 7955   3.906   7.374  -1.332 -0.4191 -0.6718 -0.0216
   19CHTO   O16 7956   4.332   7.165  -1.629 -0.0156 -0.3015  0.2359
   19CHTO   C24 7957   4.330   7.027  -1.552 -0.1587 -0.5002  0.2952
   19CHTO   H52 7958   4.316   7.045  -1.446  1.6823 -0.5038  0.5428
   19CHTO   C26 7959   4.451   6.935  -1.578 -0.2015 -0.0600  0.3963
   19CHTO   H54 7960   4.465   6.933  -1.688 -1.1793  0.4261  0.2559
   19CHTO   O20 7961   4.571   6.993  -1.537  0.3218 -0.1852 -0.4958
   19CHTO   H36 7962   4.591   7.063  -1.596  2.2446  1.0144  1.5084
   19CHTO   C30 7963   4.436   6.786  -1.532 -0.4312 -0.0670  0.3719
   19CHTO   H58 7964   4.449   6.780  -1.423 -1.1475 -2.5970  0.3487
   19CHTO    N6 7965   4.547   6.699  -1.591  0.1957 -0.1093 -0.2027
   19CHTO   H45 7966   4.515   6.650  -1.682  1.0843 -0.5003 -0.2997
   19CHTO   H46 7967   4.587   6.627  -1.522  0.1655  0.3324  0.2822
   19CHTO   C33 7968   4.289   6.735  -1.553  0.0996  0.6629 -0.2348
   19CHTO   H61 7969   4.270   6.703  -1.656  1.3272  1.9120 -0.8562
   19CHTO   O18 7970   4.195   6.833  -1.521 -0.0945  0.0666  0.1028
   19CHTO   C28 7971   4.205   6.949  -1.600  0.0225 -0.4500  0.1931
   19CHTO   H56 7972   4.219   6.925  -1.705  1.4325 -2.3051  0.7771
   19CHTO   C35 7973   4.072   7.020  -1.581 -0.4033 -0.1279  0.5827
   19CHTO   O24 7974   4.045   7.064  -1.446 -0.0856 -0.2697  0.4902
   19CHTO   H39 7975   3.959   7.045  -1.415 -1.4718  3.5377 -0.6761
   19CHTO    O9 7976   4.270   6.614  -1.470  0.1775 -0.3265  0.2201
   19CHTO   C13 7977   4.160   6.514  -1.544  0.5383  0.2468  0.1326
   19CHTO   H26 7978   4.191   6.515  -1.651  0.9785  3.3755  0.2265
   19CHTO   C11 7979   4.014   6.563  -1.521 -0.3384 -0.3625  0.0014
   19CHTO   H24 7980   4.000   6.665  -1.559  1.7335 -0.2433 -0.5129
   19CHTO    O8 7981   3.985   6.583  -1.384  0.3204 -0.8138  0.4879
   19CHTO    H3 7982   3.893   6.578  -1.366  0.5741 -2.7883  1.4006
   19CHTO    C9 7983   3.916   6.471  -1.590  0.6886  0.7346 -0.4709
   19CHTO   H22 7984   3.953   6.470  -1.694  0.5832  0.0873 -0.5079
   19CHTO    N2 7985   3.773   6.518  -1.597  0.0518  0.5055  0.0645
   19CHTO   H10 7986   3.766   6.605  -1.661 -0.6149 -0.6598 -1.4688
   19CHTO   H11 7987   3.708   6.436  -1.622  2.2635 -1.1518 -0.4071
   19CHTO    C7 7988   3.927   6.328  -1.523  0.2327 -0.4422  0.9635
   19CHTO   H20 7989   3.874   6.265  -1.598 -0.1827  1.1175 -0.0796
   19CHTO    O4 7990   4.058   6.280  -1.506  0.5650 -0.5049  0.2185
   19CHTO   C14 7991   4.178   6.365  -1.494 -0.2250 -0.4987  0.0038
   19CHTO   H27 7992   4.242   6.306  -1.564 -0.3339  0.1337 -0.6326
   19CHTO   C18 7993   4.237   6.351  -1.357  0.0018 -0.2276  0.3631
   19CHTO   O13 7994   4.379   6.370  -1.356 -0.2641  0.0220  0.0085
   19CHTO    H7 7995   4.402   6.389  -1.267  0.3093 -1.8937  0.2851
   19CHTO    O2 7996   3.855   6.327  -1.370  0.0359  0.4061  0.5668
   19CHTO    C1 7997   3.808   6.193  -1.347  0.6488 -0.6057  0.1352
   19CHTO   H14 7998   3.856   6.122  -1.418  2.9331 -1.0469  2.0739
   19CHTO    C2 7999   3.649   6.181  -1.370 -0.0469 -0.3074  0.1263
   19CHTO   H15 8000   3.602   6.257  -1.307  2.6158  0.2542  1.5007
   19CHTO    O6 8001   3.619   6.210  -1.508 -0.0679 -0.9379  0.2580
   19CHTO    H1 8002   3.532   6.242  -1.520 -0.3017 -1.0556  1.6214
   19CHTO    C3 8003   3.602   6.027  -1.335 -0.1520  0.1322 -0.0633
   19CHTO   H16 8004   3.648   5.962  -1.411 -2.0566 -2.7327  1.1488
   19CHTO    N1 8005   3.451   6.010  -1.346  0.0636 -0.2882 -0.1121
   19CHTO    H8 8006   3.417   6.031  -1.446  0.8114  0.6679 -0.1769
   19CHTO    H9 8007   3.432   5.910  -1.309 -0.7455  0.5265  1.7620
   19CHTO    C4 8008   3.661   5.973  -1.199 -0.5519 -1.0072 -0.1508
   19CHTO   H17 8009   3.593   5.998  -1.117 -1.3986  0.7419 -1.3702
   19CHTO    O1 8010   3.797   6.018  -1.171 -0.2002 -0.4282  0.6831
   19CHTO    C5 8011   3.840   6.155  -1.201 -0.2408 -0.0212  0.2433
   19CHTO   H18 8012   3.782   6.227  -1.143 -0.1734  0.9656 -0.9031
   19CHTO   C16 8013   3.988   6.164  -1.165  0.4382 -0.1274 -0.2354
   19CHTO   O11 8014   4.073   6.080  -1.241  0.5657  0.9608  0.7041
   19CHTO    H5 8015   4.048   5.992  -1.222  0.8197  0.4782 -1.1324
   19CHTO    O3 8016   3.667   5.835  -1.209  0.2454  0.0034 -0.5474
   19CHTO    C6 8017   3.695   5.768  -1.084  0.1517 -0.1057 -0.2226
   19CHTO   H19 8018   3.718   5.835  -1.001  0.9057 -2.1105  1.2367
   19CHTO    C8 8019   3.575   5.691  -1.030  0.9914  0.3164 -0.2786
   19CHTO   H21 8020   3.528   5.636  -1.112  1.3685 -0.1160 -0.2104
   19CHTO    O7 8021   3.478   5.796  -1.000 -0.2353  0.0038 -0.0108
   19CHTO    H2 8022   3.416   5.752  -0.946 -1.2230 -0.1111 -1.2033
   19CHTO   C12 8023   3.613   5.598  -0.911 -0.0734 -0.2368 -0.1032
   19CHTO   H25 8024   3.628   5.664  -0.824  2.8491 -0.6224 -0.2881
   19CHTO    N3 8025   3.496   5.517  -0.872  0.1057 -0.5605 -0.1949
   19CHTO   H12 8026   3.451   5.551  -0.779  3.0981  1.6478  0.5180
   19CHTO   H13 8027   3.430   5.494  -0.954 -0.0144 -1.3535  0.1160
   19CHTO   C15 8028   3.738   5.512  -0.938 -0.5797  0.1184  0.0663
   19CHTO   H28 8029   3.721   5.443  -1.021 -0.5797  0.4450 -0.2062
   19CHTO   O10 8030   3.793   5.450  -0.821  0.4374 -0.1181  0.2948
   19CHTO    H4 8031   3.779   5.357  -0.827 -0.5224 -0.0225  0.9626
   19CHTO    O5 8032   3.844   5.599  -0.982  0.0656  1.0445  0.2712
   19CHTO   C10 8033   3.818   5.672  -1.100  0.1266  0.1493 -0.2707
   19CHTO   H23 8034   3.801   5.599  -1.179 -1.5380 -0.2964  0.4831
   19CHTO   C17 8035   3.949   5.736  -1.148 -0.4486 -0.0692 -0.2845
   19CHTO   O12 8036   4.043   5.640  -1.200 -0.0332 -0.7098 -0.7041
   19CHTO    H6 8037   4.019   5.589  -1.275  1.0188 -2.2673 -0.0040
   20CHTO  H203 8038   4.689   0.424   2.436 -0.0039  0.8429  2.6824
   20CHTO   O82 8039   4.759   0.487   2.436  0.6980  0.1156  0.2473
   20CHTO  C123 8040   4.712   0.618   2.382 -0.2132  0.1096  0.3101
   20CHTO  H227 8041   4.642   0.664   2.452  1.4346  1.7218  0.9446
   20CHTO   O77 8042   4.840   0.694   2.378 -0.9060  0.2566  0.8545
   20CHTO  C118 8043   4.836   0.829   2.346  0.3282 -1.1876  0.1607
   20CHTO  H222 8044   4.773   0.887   2.415 -0.5940  0.3129 -1.8925
   20CHTO  C125 8045   4.992   0.877   2.364  0.5021 -0.8001 -0.5353
   20CHTO   O84 8046   5.084   0.811   2.284  0.4175 -0.0414 -0.5007
   20CHTO  H205 8047   5.172   0.837   2.305  0.4485 -1.5327  1.3476
   20CHTO  C114 8048   4.776   0.851   2.207  0.0615  0.8820 -0.2255
   20CHTO  H218 8049   4.849   0.816   2.134  1.2760 -1.8000  2.1568
   20CHTO  C116 8050   4.648   0.761   2.192 -0.6076 -0.1433  0.5826
   20CHTO  H220 8051   4.564   0.807   2.249 -1.6670  0.0068 -1.0711
   20CHTO   O79 8052   4.611   0.770   2.056  0.0407 -0.0527  0.1666
   20CHTO  H201 8053   4.600   0.857   2.021  1.1293  0.5446  1.2766
   20CHTO  C120 8054   4.662   0.615   2.236 -0.5319 -0.3550  0.2300
   20CHTO  H224 8055   4.741   0.579   2.166  0.7140  0.7406  1.0416
   20CHTO   N21 8056   4.536   0.534   2.234 -0.6491 -0.1692  0.5088
   20CHTO  H211 8057   4.470   0.578   2.161  0.9482 -1.8100 -2.0035
   20CHTO  H212 8058   4.566   0.437   2.195 -2.1330 -0.7646  0.8277
   20CHTO   O75 8059   4.735   0.991   2.182 -0.4822  0.1926  0.0038
   20CHTO  C112 8060   4.802   1.057   2.046  0.6919  0.5410 -0.1812
   20CHTO  H216 8061   4.780   0.987   1.964 -0.5369  1.7161 -0.8912
   20CHTO   O73 8062   4.947   1.069   2.070  0.1900  0.5967  0.3395
   20CHTO  C113 8063   5.016   1.112   1.947 -0.1923 -0.3226 -0.5344
   20CHTO  H217 8064   4.991   1.052   1.858  1.0831 -1.7237  0.0302
   20CHTO  C124 8065   5.169   1.111   1.974 -0.4515 -1.1086  0.2536
   20CHTO   O83 8066   5.220   0.983   2.017 -0.1151  0.1802 -0.3833
   20CHTO  H204 8067   5.179   0.944   2.092  1.7316  0.6664  0.9323
   20CHTO  C109 8068   4.966   1.248   1.906  0.1120  0.3222 -0.0760
   20CHTO  H213 8069   4.996   1.311   1.992  2.5368 -1.1597  0.2090
   20CHTO  C110 8070   4.813   1.247   1.891 -0.1759  0.0229 -0.3378
   20CHTO  H214 8071   4.799   1.177   1.809 -1.5665  1.6418 -1.5166
   20CHTO   O78 8072   4.771   1.382   1.861 -0.5390  0.7281  0.5287
   20CHTO  H200 8073   4.836   1.429   1.812 -1.4980 -0.6127 -2.1355
   20CHTO  C111 8074   4.735   1.197   2.016  0.0974  0.8731  0.4477
   20CHTO  H215 8075   4.753   1.268   2.098  3.2600  0.3654  0.2489
   20CHTO   N19 8076   4.589   1.185   1.995  0.5948 -0.0897 -0.2846
   20CHTO  H207 8077   4.530   1.169   2.084 -2.1048 -0.3874 -2.0579
   20CHTO  H208 8078   4.566   1.109   1.922  0.1565  0.3838 -0.6411
   20CHTO   O74 8079   5.025   1.295   1.787  0.2683 -0.1838  0.5788
   20CHTO  C115 8080   5.114   1.434   1.792 -0.2861 -0.5707 -0.3210
   20CHTO  H219 8081   5.148   1.455   1.893  1.0013  1.2310 -1.0982
   20CHTO   O76 8082   5.247   1.418   1.718  0.1345  0.7489  0.5893
   20CHTO  C122 8083   5.239   1.420   1.575 -0.6478  0.2509 -0.4573
   20CHTO  H226 8084   5.188   1.330   1.541  0.6955 -0.2712 -1.1176
   20CHTO  C126 8085   5.387   1.414   1.535  0.6152 -0.4579  0.7259
   20CHTO   O85 8086   5.410   1.422   1.397 -0.8036  0.2290 -0.0520
   20CHTO  H206 8087   5.483   1.479   1.385  0.3505 -1.0766  0.5396
   20CHTO  C121 8088   5.152   1.551   1.524 -0.1518 -0.1109 -0.2110
   20CHTO  H225 8089   5.209   1.617   1.456 -0.2514  1.1071  0.8802
   20CHTO   O81 8090   5.053   1.499   1.440  0.4197 -0.3669 -0.2577
   20CHTO  H202 8091   5.008   1.573   1.402  0.4933 -0.5614 -0.7279
   20CHTO  C119 8092   5.098   1.645   1.634 -0.0577  0.8145  0.3925
   20CHTO  H223 8093   5.189   1.671   1.687 -0.7526  2.0656  1.0137
   20CHTO  C117 8094   5.017   1.550   1.736  0.0384  0.1346 -0.3044
   20CHTO  H221 8095   4.929   1.499   1.695  0.4231 -2.4714  2.0083
   20CHTO   N20 8096   4.965   1.634   1.852  0.4914  0.4089  0.1374
   20CHTO  H209 8097   5.038   1.697   1.900  1.1021  0.2817 -0.6285
   20CHTO  H210 8098   4.885   1.702   1.826  0.1032  0.1360  0.5988
   20CHTO   O80 8099   5.048   1.793   1.572  0.2200 -0.0588 -0.2097
   20CHTO  C103 8100   4.952   1.801   1.463 -0.2348 -0.4772 -0.0606
   20CHTO  H190 8101   4.946   1.710   1.404  2.3472 -0.1595 -0.8732
   20CHTO  C101 8102   4.801   1.834   1.496  0.5675 -0.0130 -0.1184
   20CHTO  H188 8103   4.794   1.929   1.549  1.8771 -0.0473  0.1247
   20CHTO   O68 8104   4.746   1.716   1.585  0.7864  0.2251  0.2363
   20CHTO  H168 8105   4.692   1.755   1.651  0.5300  1.4591 -0.6893
   20CHTO   C99 8106   4.712   1.856   1.375 -0.2708 -0.3573 -0.6046
   20CHTO  H186 8107   4.706   1.768   1.306 -0.3600 -0.8118 -0.0218
   20CHTO   N17 8108   4.567   1.888   1.405 -0.0870 -0.2710  0.7997
   20CHTO  H174 8109   4.520   1.900   1.308  2.3603  1.0188 -0.2715
   20CHTO  H175 8110   4.560   1.981   1.461  0.3671  0.0919  0.2593
   20CHTO   C97 8111   4.775   1.969   1.290 -0.2219 -0.1843 -0.1716
   20CHTO  H184 8112   4.767   2.058   1.355 -0.6749  1.2114 -2.0806
   20CHTO   O64 8113   4.916   1.934   1.257  0.2888  0.1394 -0.1902
   20CHTO  C104 8114   5.004   1.916   1.369 -0.3441  0.1642  0.2574
   20CHTO  H191 8115   5.011   2.008   1.427 -0.2888  0.1696  0.2418
   20CHTO  C108 8116   5.138   1.884   1.313 -0.0980  0.4639  0.4706
   20CHTO   O71 8117   5.193   1.988   1.224  0.1134 -0.4995 -0.3300
   20CHTO  H171 8118   5.225   2.057   1.279 -2.2680  1.3666 -1.1926
   20CHTO   O62 8119   4.725   1.986   1.161  0.1934 -0.2934 -0.1645
   20CHTO   C91 8120   4.727   2.113   1.097 -0.3586 -0.3486 -0.2079
   20CHTO  H178 8121   4.807   2.174   1.138 -1.1260 -0.3690  1.3138
   20CHTO   C92 8122   4.597   2.192   1.121  0.8093  0.2203 -0.0981
   20CHTO  H179 8123   4.513   2.123   1.113 -0.1979  1.4313 -0.1826
   20CHTO   O66 8124   4.609   2.225   1.261  0.1447 -0.4019  0.0169
   20CHTO  H166 8125   4.660   2.303   1.269 -0.1068 -0.2165 -0.1537
   20CHTO   C93 8126   4.582   2.329   1.039 -0.1456  0.0524  0.5633
   20CHTO  H180 8127   4.654   2.401   1.081 -0.3994  0.6458 -0.0058
   20CHTO   N16 8128   4.447   2.389   1.029  0.4835  0.0267  0.4076
   20CHTO  H172 8129   4.455   2.471   0.958 -3.0209 -0.5577 -0.7476
   20CHTO  H173 8130   4.401   2.402   1.125 -1.2193 -1.1924 -0.2174
   20CHTO   C94 8131   4.628   2.295   0.895 -0.1596 -0.9778  0.1501
   20CHTO  H181 8132   4.562   2.227   0.841 -0.1422  0.1605 -1.3307
   20CHTO   O61 8133   4.758   2.231   0.887  0.0594 -0.3279 -0.1643
   20CHTO   C95 8134   4.747   2.101   0.942  0.2581  0.7374 -0.6227
   20CHTO  H182 8135   4.660   2.052   0.898  1.2473 -0.1179 -1.6617
   20CHTO  C106 8136   4.885   2.025   0.905  0.1819 -0.1158  0.4750
   20CHTO   O69 8137   5.005   2.083   0.962 -0.4442  0.4077 -0.0456
   20CHTO  H169 8138   5.073   2.096   0.899  0.7662 -0.3793  1.0751
   20CHTO   O63 8139   4.620   2.437   0.813 -0.4198 -0.2342  0.0872
   20CHTO   C96 8140   4.652   2.404   0.663  0.1552 -0.7067  0.1269
   20CHTO  H183 8141   4.646   2.299   0.635  1.0865 -0.0714 -2.5368
   20CHTO   C98 8142   4.800   2.459   0.625  0.1948  0.0865 -0.4780
   20CHTO  H185 8143   4.816   2.554   0.678 -4.3967 -0.4067  2.0854
   20CHTO   O67 8144   4.889   2.371   0.682 -0.3205 -0.2685 -0.2965
   20CHTO  H167 8145   4.892   2.290   0.635 -0.2740 -1.2554  1.3599
   20CHTO  C102 8146   4.824   2.468   0.463  0.3754 -0.1247  0.5243
   20CHTO  H189 8147   4.820   2.363   0.428 -1.6701 -0.0446  0.4380
   20CHTO   N18 8148   4.946   2.533   0.414 -0.2824 -0.0504 -0.1813
   20CHTO  H176 8149   4.941   2.641   0.427  0.6948  0.0897 -0.9189
   20CHTO  H177 8150   5.037   2.496   0.458 -0.6199 -0.0101  0.5609
   20CHTO  C105 8151   4.694   2.533   0.402  0.0754  0.3953  0.3852
   20CHTO  H192 8152   4.689   2.638   0.430 -1.6355  0.5403 -0.4556
   20CHTO   O65 8153   4.565   2.480   0.448 -0.0973  0.6614 -0.3586
   20CHTO  C100 8154   4.540   2.485   0.585 -0.0210 -0.1310  0.9122
   20CHTO  H187 8155   4.545   2.588   0.624  0.9258 -0.0382  0.5506
   20CHTO  C107 8156   4.403   2.418   0.612 -0.3066  0.1552  0.1321
   20CHTO   O70 8157   4.311   2.506   0.550  0.5768 -0.2751 -0.2100
   20CHTO  H170 8158   4.230   2.459   0.556 -1.5237  3.2452  0.3664
   20CHTO   O57 8159   4.706   2.518   0.234 -0.2809  1.0462  0.1001
   20CHTO   C85 8160   4.645   2.401   0.172  0.7836 -0.2231 -0.1638
   20CHTO  H157 8161   4.566   2.372   0.244 -0.1481 -0.9241 -1.4466
   20CHTO   C83 8162   4.743   2.280   0.166 -0.0988  0.6055 -0.2883
   20CHTO  H155 8163   4.772   2.262   0.270 -1.3889  4.5464  0.8643
   20CHTO   O56 8164   4.869   2.310   0.093  0.4146 -0.2853  0.5637
   20CHTO  H135 8165   4.935   2.263   0.139  1.7206  2.7592  1.9093
   20CHTO   C81 8166   4.654   2.164   0.119  0.1654  0.8944  0.0612
   20CHTO  H153 8167   4.562   2.159   0.177  0.3196 -0.2087  0.2262
   20CHTO   N14 8168   4.709   2.028   0.133 -0.5475 -0.3579 -0.2746
   20CHTO  H141 8169   4.813   2.031   0.109 -0.7047 -0.0514 -0.9401
   20CHTO  H142 8170   4.696   1.991   0.233  0.9447  1.3250  0.5853
   20CHTO   C79 8171   4.610   2.191  -0.030 -0.5588 -0.4405 -0.5892
   20CHTO  H151 8172   4.531   2.119  -0.052 -1.6715  0.0781  1.4825
   20CHTO   O52 8173   4.543   2.314  -0.050  1.1100 -0.1356 -0.1690
   20CHTO   C86 8174   4.588   2.428   0.028 -0.3304 -0.5116  0.4744
   20CHTO  H158 8175   4.671   2.460  -0.039  0.2506 -3.4450 -0.2977
   20CHTO   C90 8176   4.483   2.538   0.019  0.2164 -0.7379  0.4989
   20CHTO   O60 8177   4.526   2.655   0.088  0.3035 -0.9584  0.5291
   20CHTO  H138 8178   4.471   2.671   0.162 -1.6955 -0.7128 -0.9607
   20CHTO   O50 8179   4.721   2.179  -0.119  0.0160 -0.1135  0.0876
   20CHTO   C73 8180   4.778   2.139  -0.247 -0.1628 -0.9237 -0.3716
   20CHTO  H145 8181   4.887   2.150  -0.245  0.0492 -3.0539  0.5846
   20CHTO   C74 8182   4.708   2.223  -0.368  0.0076  0.5314 -0.4990
   20CHTO  H146 8183   4.729   2.326  -0.337  0.9471  0.3096 -0.3906
   20CHTO   O54 8184   4.775   2.224  -0.496 -0.1965 -0.2026  0.3897
   20CHTO  H133 8185   4.866   2.231  -0.474 -0.2950  0.0482  0.7364
   20CHTO   C75 8186   4.553   2.193  -0.377  0.2559  0.2040  0.3309
   20CHTO  H147 8187   4.511   2.204  -0.276 -0.8469 -1.3796  0.0548
   20CHTO   N13 8188   4.470   2.282  -0.463  0.8087  0.0288 -0.3629
   20CHTO  H139 8189   4.504   2.278  -0.566 -0.1181  0.9513 -0.7127
   20CHTO  H140 8190   4.367   2.250  -0.469  0.5115  0.3917  2.2052
   20CHTO   C76 8191   4.533   2.040  -0.403 -0.1013 -0.3983  0.0608
   20CHTO  H148 8192   4.570   2.018  -0.503  0.8511 -0.7762  0.4891
   20CHTO   O49 8193   4.603   1.968  -0.296  0.6137  0.4159 -0.1924
   20CHTO   C77 8194   4.745   1.989  -0.289 -0.5628 -0.1751 -0.1389
   20CHTO  H149 8195   4.793   1.979  -0.386  0.0853  2.0562 -0.0672
   20CHTO   C88 8196   4.806   1.892  -0.184 -0.2942  0.4984  1.0296
   20CHTO   O58 8197   4.948   1.898  -0.158  0.5039  0.0206 -0.2441
   20CHTO  H136 8198   4.981   1.986  -0.162 -1.4839  0.8356  0.4958
   20CHTO   O51 8199   4.372   1.995  -0.384 -0.0198 -0.1251  0.1090
   20CHTO   C78 8200   4.307   2.019  -0.228 -1.0236 -0.0725  0.3136
   20CHTO  H150 8201   4.365   2.090  -0.166  1.8295 -2.1890  0.1774
   20CHTO   C80 8202   4.305   1.886  -0.150 -0.1070 -0.2560 -0.3562
   20CHTO  H152 8203   4.238   1.818  -0.207  0.3758  0.0447 -1.2923
   20CHTO   O55 8204   4.440   1.839  -0.136  0.3272  0.1302 -0.1997
   20CHTO  H134 8205   4.497   1.904  -0.100 -0.8065  0.4904  0.9645
   20CHTO   C84 8206   4.247   1.896  -0.006 -0.2580  0.0913 -0.1506
   20CHTO  H156 8207   4.306   1.965   0.053  0.0639  1.1925 -1.7131
   20CHTO   N15 8208   4.240   1.760   0.069 -0.0817  0.4506 -0.8325
   20CHTO  H143 8209   4.150   1.716   0.106  0.1423  1.6496  1.2188
   20CHTO  H144 8210   4.299   1.683   0.025 -0.5605 -0.3487 -0.0828
   20CHTO   C87 8211   4.108   1.967  -0.009  0.1785 -0.1015  0.0233
   20CHTO  H159 8212   4.036   1.895  -0.050 -1.2306  0.4153  1.5454
   20CHTO   O53 8213   4.111   2.078  -0.100 -0.1710  0.1515 -0.1412
   20CHTO   C82 8214   4.161   2.058  -0.234  0.3869  0.2424 -0.4515
   20CHTO  H154 8215   4.111   1.972  -0.278  0.2997 -0.5954  1.2500
   20CHTO   C89 8216   4.144   2.176  -0.330  0.6619 -0.9547  0.5178
   20CHTO   O59 8217   4.001   2.204  -0.352  0.5087 -0.2964  0.4720
   20CHTO  H137 8218   3.956   2.122  -0.363  1.2807 -0.5334 -1.1749
   20CHTO   O45 8219   4.055   2.033   0.141 -0.4154 -0.6636 -0.2841
   20CHTO   C67 8220   4.143   2.082   0.242  0.7197  0.2086  0.1856
   20CHTO  H124 8221   4.246   2.083   0.206  0.6615  3.4781 -0.0998
   20CHTO   C65 8222   4.104   2.230   0.288 -0.7058  0.8792  0.1506
   20CHTO  H122 8223   4.066   2.282   0.201  0.9876  0.3748 -0.9130
   20CHTO   O44 8224   4.217   2.298   0.342 -0.9626  0.0532 -0.3986
   20CHTO  H102 8225   4.222   2.276   0.433  0.5119 -0.9374 -0.7077
   20CHTO   C63 8226   3.969   2.225   0.377 -0.3441  0.2477  0.8102
   20CHTO  H120 8227   3.890   2.183   0.316  0.8331 -0.2676 -0.3887
   20CHTO   N11 8228   3.907   2.359   0.402 -0.1101 -0.0655 -0.1934
   20CHTO  H108 8229   3.817   2.352   0.460 -0.0838 -0.3012 -0.1803
   20CHTO  H109 8230   3.896   2.433   0.325  0.2425  1.3760  1.1079
   20CHTO   C61 8231   3.988   2.134   0.499  0.0235  0.5257  0.2571
   20CHTO  H118 8232   3.884   2.115   0.529  0.6098  0.9554  2.6803
   20CHTO   O40 8233   4.039   2.005   0.463 -0.2909  0.3709 -0.3575
   20CHTO   C68 8234   4.137   1.981   0.358 -0.6286  0.0537  0.6396
   20CHTO  H125 8235   4.087   1.889   0.321 -3.2818  1.2210  1.2067
   20CHTO   C72 8236   4.277   1.944   0.420  0.8179  0.6254  0.2448
   20CHTO   O48 8237   4.343   2.055   0.478 -0.0846 -0.2357 -0.0020
   20CHTO  H105 8238   4.350   2.050   0.571  0.4944  1.2498  0.0462
   20CHTO   O38 8239   4.070   2.197   0.604  0.1712 -0.3663 -0.1773
   20CHTO   C55 8240   4.028   2.176   0.741  0.5337  0.2052 -0.9969
   20CHTO  H112 8241   3.976   2.079   0.747  2.3111 -0.7024  0.7182
   20CHTO   C56 8242   3.945   2.289   0.802  0.0367  0.1664 -0.5200
   20CHTO  H113 8243   4.006   2.380   0.798  0.8311 -0.3763 -0.9838
   20CHTO   O42 8244   3.827   2.303   0.710  0.3878  0.8860 -0.5905
   20CHTO  H100 8245   3.852   2.302   0.620  0.6006  2.8039 -0.5847
   20CHTO   C57 8246   3.910   2.244   0.953  0.5662  0.1269 -0.3563
   20CHTO  H114 8247   3.871   2.145   0.930 -0.5867  0.1715  1.2987
   20CHTO   N10 8248   3.825   2.342   1.020  0.3259  0.3955  0.3232
   20CHTO  H106 8249   3.778   2.284   1.098 -0.5137 -2.2850 -2.0922
   20CHTO  H107 8250   3.747   2.394   0.965  0.8031  1.3676  0.5691
   20CHTO   C58 8251   4.034   2.226   1.041  0.0937 -0.2308  0.3937
   20CHTO  H115 8252   4.088   2.322   1.044 -0.0212 -0.2200  3.1798
   20CHTO   O37 8253   4.113   2.132   0.964 -0.2101  0.3331  0.5462
   20CHTO   C59 8254   4.152   2.154   0.826  0.3862  0.1980 -1.0177
   20CHTO  H116 8255   4.223   2.235   0.809 -0.0483  0.9197  0.4834
   20CHTO   C70 8256   4.233   2.028   0.778 -0.9023 -0.1097  0.4027
   20CHTO   O46 8257   4.351   2.019   0.858 -0.1997 -0.3316 -0.6403
   20CHTO  H103 8258   4.348   1.936   0.902 -1.7496 -1.2472 -2.3872
   20CHTO   O39 8259   4.009   2.161   1.193  0.1137 -0.1380 -0.1662
   20CHTO   C60 8260   4.114   2.174   1.292  0.4739  0.8645  0.7374
   20CHTO  H117 8261   4.205   2.132   1.250 -0.7986 -0.1773 -1.0891
   20CHTO   C62 8262   4.168   2.319   1.330 -0.9201  0.7137 -0.3027
   20CHTO  H119 8263   4.208   2.362   1.235  1.6742 -0.0554  0.3878
   20CHTO   O43 8264   4.054   2.388   1.374 -0.1698  0.5145  0.1120
   20CHTO  H101 8265   3.996   2.397   1.301  0.6909  1.0037 -0.5230
   20CHTO   C66 8266   4.284   2.312   1.443  0.2089  0.1985  0.1353
   20CHTO  H123 8267   4.369   2.256   1.405 -0.4246 -0.5264 -0.2238
   20CHTO   N12 8268   4.331   2.450   1.476  0.4940 -1.4130 -0.7239
   20CHTO  H110 8269   4.438   2.454   1.490  0.4865 -0.2698 -0.9773
   20CHTO  H111 8270   4.285   2.461   1.573 -1.0306  0.7434 -1.6509
   20CHTO   C69 8271   4.223   2.231   1.565 -0.4925  0.5309 -0.3882
   20CHTO  H126 8272   4.138   2.288   1.607  1.1892  0.9432  2.6500
   20CHTO   O41 8273   4.180   2.095   1.525  0.1211 -0.2730 -0.3473
   20CHTO   C64 8274   4.075   2.089   1.416  0.2046  0.0528  0.1138
   20CHTO  H121 8275   3.981   2.130   1.459  0.4601  1.8804 -1.0028
   20CHTO   C71 8276   4.043   1.947   1.371 -0.3648 -0.1986  0.4703
   20CHTO   O47 8277   4.167   1.882   1.345 -0.9879 -0.7881  0.0460
   20CHTO  H104 8278   4.166   1.853   1.255 -0.7501 -2.5284  0.5797
   20CHTO   O34 8279   4.342   2.221   1.677  0.0928  0.0182 -0.3092
   20CHTO   C49 8280   4.346   2.112   1.790  0.3851  0.7800 -0.3986
   20CHTO   H91 8281   4.344   2.017   1.737  0.5650  0.4211  0.2286
   20CHTO   C47 8282   4.218   2.115   1.876  0.6883  0.3058 -0.5445
   20CHTO   H89 8283   4.138   2.060   1.822  3.1054 -2.4432 -1.4641
   20CHTO   O33 8284   4.180   2.254   1.899 -0.4789  0.4620  0.1144
   20CHTO   H70 8285   4.103   2.255   1.953  0.8109 -2.0496  2.1012
   20CHTO   C45 8286   4.232   2.037   2.016  0.3393 -0.0932 -0.4127
   20CHTO   H87 8287   4.267   2.110   2.091 -1.2351 -0.2004  0.4562
   20CHTO    N8 8288   4.101   1.976   2.065 -0.5880 -0.3366  0.7283
   20CHTO   H75 8289   4.081   1.885   2.010  1.0215  2.2015 -4.3866
   20CHTO   H76 8290   4.016   2.039   2.042  0.1897  0.9317  1.3009
   20CHTO   C43 8291   4.351   1.933   2.017  0.4800 -0.1837  0.2347
   20CHTO   H85 8292   4.362   1.882   2.113  1.6360 -1.1653 -0.4129
   20CHTO   O29 8293   4.466   2.014   1.989  0.6327 -0.2782 -0.1161
   20CHTO   C50 8294   4.469   2.111   1.885  0.5840 -0.1447 -0.2594
   20CHTO   H92 8295   4.491   2.209   1.930  0.0639 -0.6268  1.0500
   20CHTO   C54 8296   4.597   2.086   1.807 -0.3409 -0.5335  0.5291
   20CHTO   O36 8297   4.717   2.088   1.881 -0.4314 -0.5493 -0.3458
   20CHTO   H72 8298   4.700   2.063   1.969 -0.2363  0.5232  0.0069
   20CHTO   O27 8299   4.334   1.833   1.921 -0.2436 -0.5077 -0.0732
   20CHTO   C37 8300   4.337   1.713   1.845  0.3298  0.2012  0.5485
   20CHTO   H79 8301   4.301   1.635   1.914 -1.2563 -0.0129 -0.4756
   20CHTO   C38 8302   4.236   1.723   1.726 -0.2305 -0.4492  1.0251
   20CHTO   H80 8303   4.266   1.807   1.661 -4.4808 -0.5913 -1.3705
   20CHTO   O31 8304   4.099   1.748   1.768 -0.1747 -0.0378 -0.3049
   20CHTO   H68 8305   4.041   1.706   1.707  1.9397 -1.3774 -1.4381
   20CHTO   C39 8306   4.256   1.597   1.637 -0.3935 -0.1275  0.0859
   20CHTO   H81 8307   4.221   1.512   1.696  0.3106  1.6528  3.1605
   20CHTO    N7 8308   4.174   1.608   1.510  0.2333 -0.2481 -0.6066
   20CHTO   H73 8309   4.181   1.510   1.464 -1.0942 -1.6437  2.0218
   20CHTO   H74 8310   4.068   1.619   1.531  0.3445 -0.0636 -0.1311
   20CHTO   C40 8311   4.407   1.567   1.600 -0.4107 -0.0648  0.1229
   20CHTO   H82 8312   4.449   1.645   1.536 -0.9173 -0.8309 -1.1621
   20CHTO   O26 8313   4.478   1.548   1.721  0.5556  0.1553  0.4718
   20CHTO   C41 8314   4.476   1.676   1.791 -0.1261 -0.7616  0.5139
   20CHTO   H83 8315   4.511   1.752   1.719 -0.6980  0.0667  1.1029
   20CHTO   C52 8316   4.579   1.657   1.906 -0.3421  0.5601 -0.2743
   20CHTO   O35 8317   4.533   1.575   1.994  0.3147 -0.4691  0.6635
   20CHTO   H71 8318   4.592   1.507   2.022 -2.4000 -2.9450  0.6382
   20CHTO   O28 8319   4.425   1.441   1.528  0.4703  0.1035 -0.0155
   20CHTO   C42 8320   4.525   1.396   1.440  1.0247 -0.0597  0.3776
   20CHTO   H84 8321   4.472   1.312   1.393 -0.6701  1.2003 -0.0179
   20CHTO   C44 8322   4.653   1.348   1.516  0.0826  0.9852 -0.2041
   20CHTO   H86 8323   4.702   1.438   1.555 -0.3136  0.5507  1.3018
   20CHTO   O32 8324   4.609   1.282   1.634 -0.8612  0.1809 -0.4599
   20CHTO   H69 8325   4.578   1.198   1.607 -1.4953  1.0300 -2.4679
   20CHTO   C48 8326   4.753   1.279   1.418  0.6978 -0.3684  0.0429
   20CHTO   H90 8327   4.710   1.186   1.381  1.9455 -0.9897  0.0907
   20CHTO    N9 8328   4.874   1.234   1.497 -0.1702 -1.0630  0.1123
   20CHTO   H77 8329   4.960   1.225   1.432  0.0212  1.3569 -0.0272
   20CHTO   H78 8330   4.844   1.144   1.549  0.8306  0.0745  2.7404
   20CHTO   C51 8331   4.789   1.384   1.310 -0.1578  0.0438  0.6041
   20CHTO   H93 8332   4.830   1.471   1.361  0.4554 -0.3364  0.7559
   20CHTO   O30 8333   4.680   1.415   1.235  0.2290 -0.1516  0.1175
   20CHTO   C46 8334   4.574   1.490   1.323  0.4384 -0.1908 -0.6632
   20CHTO   H88 8335   4.614   1.579   1.372  2.3895 -1.0035 -0.7416
   20CHTO   C53 8336   4.460   1.524   1.227  0.0032 -0.1153  0.8911
   20CHTO   O72 8337   4.520   1.614   1.137 -0.4797  0.0286 -0.2677
   20CHTO  H199 8338   4.515   1.575   1.052 -2.6013 -1.8469  0.6616
   20CHTO   O22 8339   4.880   1.326   1.215  0.1705  0.2870  0.3660
   20CHTO   C31 8340   4.945   1.389   1.105 -0.2175  0.2486 -0.5621
   20CHTO   H59 8341   4.881   1.367   1.017 -2.8996  0.4223  1.2466
   20CHTO   C29 8342   4.980   1.542   1.102 -0.9327  0.1354  0.2971
   20CHTO   H57 8343   5.023   1.577   1.197 -0.4115  0.7460 -0.1587
   20CHTO   O21 8344   4.850   1.608   1.101  0.2271 -0.1845 -0.7377
   20CHTO   H37 8345   4.860   1.695   1.068  1.3027  0.4919  1.2669
   20CHTO   C27 8346   5.077   1.582   0.986 -0.4300  0.0262 -0.3271
   20CHTO   H55 8347   5.027   1.551   0.893 -1.4041  1.1076 -0.1787
   20CHTO    N5 8348   5.111   1.730   0.978  0.0030 -0.0397  0.3243
   20CHTO   H43 8349   5.158   1.742   0.882 -1.0686  0.7434 -0.1206
   20CHTO   H44 8350   5.017   1.782   0.967  0.9933  1.2266 -2.7712
   20CHTO   C25 8351   5.202   1.486   1.000  0.3852 -0.0915 -0.2465
   20CHTO   H53 8352   5.243   1.496   1.102  1.5507 -2.7219 -0.4168
   20CHTO   O17 8353   5.166   1.348   0.979  0.4607 -0.0844 -0.1330
   20CHTO   C32 8354   5.079   1.300   1.083 -0.3732 -0.0040 -0.5977
   20CHTO   H60 8355   5.141   1.298   1.173  0.5405 -2.4099 -1.2732
   20CHTO   C36 8356   5.043   1.150   1.065  0.0754  0.3283  0.4242
   20CHTO   O25 8357   5.151   1.078   1.003 -0.4370 -0.2162  0.1874
   20CHTO   H40 8358   5.144   0.985   1.014 -0.2750 -0.6248 -2.9417
   20CHTO   O15 8359   5.309   1.534   0.878  0.1132 -0.1608 -0.5272
   20CHTO   C19 8360   5.405   1.635   0.824  0.1277 -0.1420  0.5563
   20CHTO   H47 8361   5.341   1.724   0.823  1.4114  0.7970 -1.6364
   20CHTO   C20 8362   5.532   1.632   0.909  0.5314  0.0658 -0.2987
   20CHTO   H48 8363   5.571   1.529   0.918 -3.1707 -1.3614  0.7135
   20CHTO   O19 8364   5.488   1.661   1.048 -0.6859  0.5731 -0.1124
   20CHTO   H35 8365   5.429   1.598   1.084 -3.7883  1.4061 -3.4906
   20CHTO   C21 8366   5.644   1.720   0.849 -0.0665 -0.2662  0.9617
   20CHTO   H49 8367   5.609   1.823   0.840 -0.7560 -0.5330  0.6047
   20CHTO    N4 8368   5.769   1.721   0.932  0.4881  0.0751  0.8476
   20CHTO   H41 8369   5.828   1.643   0.886 -1.1263  0.6901 -2.4434
   20CHTO   H42 8370   5.816   1.818   0.925  1.8480 -0.6644 -0.5989
   20CHTO   C22 8371   5.673   1.679   0.703  0.4900  0.8949  0.3153
   20CHTO   H50 8372   5.728   1.586   0.692  0.2142  0.5303  1.8815
   20CHTO   O14 8373   5.556   1.670   0.626  0.1435  0.3414 -0.3040
   20CHTO   C23 8374   5.440   1.606   0.680  0.1206  0.8216 -0.6276
   20CHTO   H51 8375   5.451   1.498   0.660 -0.5335  0.5994  0.2138
   20CHTO   C34 8376   5.311   1.641   0.597  0.1845  0.2875  0.2317
   20CHTO   O23 8377   5.308   1.584   0.469  0.3569  0.4177  0.3420
   20CHTO   H38 8378   5.357   1.633   0.406 -0.9798 -0.9122 -1.8199
   20CHTO   O16 8379   5.738   1.787   0.643  0.2364 -0.6639  0.0147
   20CHTO   C24 8380   5.888   1.768   0.622  0.0857 -0.2507  0.5844
   20CHTO   H52 8381   5.929   1.698   0.694 -0.1000 -1.7443 -0.7194
   20CHTO   C26 8382   5.958   1.904   0.649  0.1437  0.3240  0.0408
   20CHTO   H54 8383   5.910   1.978   0.581  0.6459  0.9443  0.3518
   20CHTO   O20 8384   5.936   1.963   0.779  0.5673 -0.2798  0.3327
   20CHTO   H36 8385   5.967   1.908   0.848  1.6736 -0.8754 -0.6349
   20CHTO   C30 8386   6.116   1.889   0.629 -0.4694 -0.1619  1.0554
   20CHTO   H58 8387   6.159   1.873   0.729  0.4342  0.7727  0.8291
   20CHTO    N6 8388   6.187   2.011   0.570  0.7257  0.0366  0.3538
   20CHTO   H45 8389   6.295   2.008   0.575  0.7202  0.7919  0.9407
   20CHTO   H46 8390   6.148   2.015   0.469 -0.6643 -0.6115  0.8541
   20CHTO   C33 8391   6.158   1.770   0.534 -0.0287  0.5963  0.1866
   20CHTO   H61 8392   6.255   1.792   0.488  0.1357 -0.4728  0.0067
   20CHTO   O18 8393   6.059   1.753   0.432 -0.3483 -0.2081  0.1048
   20CHTO   C28 8394   5.925   1.722   0.477 -0.3067 -0.1755 -0.0982
   20CHTO   H56 8395   5.862   1.771   0.403  0.0290 -1.3455 -1.1782
   20CHTO   C35 8396   5.896   1.565   0.462  0.3114 -0.9021  0.0685
   20CHTO   O24 8397   5.998   1.476   0.510 -0.4091  0.1424  0.1597
   20CHTO   H39 8398   5.974   1.451   0.597  0.8857 -0.4059  0.3736
   20CHTO    O9 8399   6.180   1.651   0.610 -0.1420 -0.8275  0.0211
   20CHTO   C13 8400   6.344   1.615   0.659  0.0449 -0.0675  0.8010
   20CHTO   H26 8401   6.386   1.704   0.710  0.3322 -0.0854  0.5987
   20CHTO   C11 8402   6.429   1.572   0.539 -0.1367 -0.2232 -0.4786
   20CHTO   H24 8403   6.458   1.668   0.493  0.7582  0.0510  0.6438
   20CHTO    O8 8404   6.349   1.489   0.457 -0.0912  0.5278 -0.4287
   20CHTO    H3 8405   6.273   1.531   0.422 -2.0347 -1.0409  1.7651
   20CHTO    C9 8406   6.552   1.487   0.586 -0.4073 -0.0003  0.1918
   20CHTO   H22 8407   6.608   1.553   0.654  2.4618 -0.6829 -1.4272
   20CHTO    N2 8408   6.653   1.461   0.482  0.6556 -0.4434 -0.0193
   20CHTO   H10 8409   6.616   1.393   0.406  0.0455  0.9996 -1.0602
   20CHTO   H11 8410   6.731   1.405   0.531 -1.1947 -2.3659  0.8052
   20CHTO    C7 8411   6.506   1.354   0.661 -0.0830 -0.1687  0.3912
   20CHTO   H20 8412   6.582   1.359   0.742  0.3779 -0.8595  0.0080
   20CHTO    O4 8413   6.372   1.366   0.714  0.4178  0.3457 -0.1900
   20CHTO   C14 8414   6.341   1.499   0.773 -0.0143  0.8747  0.0459
   20CHTO   H27 8415   6.425   1.514   0.844  2.8882  0.4306 -3.1378
   20CHTO   C18 8416   6.210   1.500   0.851 -0.1514 -0.4420 -0.4444
   20CHTO   O13 8417   6.100   1.445   0.770 -0.0474  0.2766  0.5289
   20CHTO    H7 8418   6.088   1.486   0.687  2.4097  2.6201  1.2631
   20CHTO    O2 8419   6.519   1.209   0.579 -0.2818 -0.2368 -0.1238
   20CHTO    C1 8420   6.466   1.101   0.662 -0.0586 -0.2013 -0.5344
   20CHTO   H14 8421   6.403   1.142   0.743  1.6273  2.3462 -0.4715
   20CHTO    C2 8422   6.582   1.023   0.732 -0.1854 -0.0868  0.1683
   20CHTO   H15 8423   6.661   1.005   0.658  0.4621  0.5853  0.6922
   20CHTO    O6 8424   6.620   1.110   0.843  0.2095  0.1272 -0.3029
   20CHTO    H1 8425   6.710   1.134   0.833 -0.0397  1.3677  0.3187
   20CHTO    C3 8426   6.529   0.892   0.791  0.0576 -0.0991 -0.3103
   20CHTO   H16 8427   6.455   0.915   0.870 -0.5976  0.2303 -1.0088
   20CHTO    N1 8428   6.637   0.806   0.854 -0.0637 -0.2614 -0.1499
   20CHTO    H8 8429   6.718   0.846   0.913 -1.9997 -0.3328  2.7092
   20CHTO    H9 8430   6.589   0.736   0.921 -2.3183  0.2430 -1.1751
   20CHTO    C4 8431   6.448   0.810   0.684  0.6617  0.3683  0.2348
   20CHTO   H17 8432   6.517   0.777   0.606 -0.7253 -4.4335  0.8387
   20CHTO    O1 8433   6.341   0.884   0.617 -0.3245 -0.3097 -0.4235
   20CHTO    C5 8434   6.378   1.017   0.568  0.3025 -0.4420  0.6790
   20CHTO   H18 8435   6.431   1.001   0.474 -2.1214 -1.8251 -0.4926
   20CHTO   C16 8436   6.238   1.079   0.535 -0.1097 -0.1367  0.0125
   20CHTO   O11 8437   6.165   1.149   0.634  0.0546  0.0235  0.0288
   20CHTO    H5 8438   6.075   1.164   0.616 -0.2492  0.4765  1.7799
   20CHTO    O3 8439   6.390   0.686   0.743 -0.9767  0.0342  0.1158
   20CHTO    C6 8440   6.362   0.585   0.644  0.1606  0.9946 -0.4629
   20CHTO   H19 8441   6.350   0.633   0.546 -2.6025 -0.4762 -0.8695
   20CHTO    C8 8442   6.471   0.469   0.635 -0.5109  0.4139 -0.1271
   20CHTO   H21 8443   6.476   0.423   0.733 -1.4748  0.0357 -0.2502
   20CHTO    O7 8444   6.606   0.533   0.602  0.2096  0.0668  0.9820
   20CHTO    H2 8445   6.679   0.475   0.612 -1.5098 -2.8834 -2.6014
   20CHTO   C12 8446   6.426   0.367   0.526  0.0003 -0.3315  0.1944
   20CHTO   H25 8447   6.428   0.413   0.425 -1.7872 -0.3923  0.1250
   20CHTO    N3 8448   6.530   0.256   0.519 -0.0913 -0.1521  0.1067
   20CHTO   H12 8449   6.518   0.192   0.605  1.2896 -0.9196 -0.2524
   20CHTO   H13 8450   6.499   0.197   0.434  0.4532 -0.8785  0.4005
   20CHTO   C15 8451   6.281   0.314   0.543  0.1022  0.3240  0.8710
   20CHTO   H28 8452   6.274   0.244   0.626  0.8811  0.2219  0.8531
   20CHTO   O10 8453   6.229   0.252   0.410  0.1092 -0.3195  0.1179
   20CHTO    H4 8454   6.142   0.219   0.423  0.1604  0.0639  1.5769
   20CHTO    O5 8455   6.196   0.432   0.554 -0.5030  0.1043  0.5269
   20CHTO   C10 8456   6.231   0.506   0.669  0.0733 -0.2667 -0.5491
   20CHTO   H23 8457   6.248   0.438   0.752  0.3204 -0.2555 -0.5891
   20CHTO   C17 8458   6.112   0.591   0.714 -0.1184  0.1130 -0.3393
   20CHTO   O12 8459   6.090   0.695   0.625  0.2146  0.4099  0.3373
   20CHTO    H6 8460   6.047   0.661   0.549  2.4405  0.8917 -1.1623
   21GLOH   H03 8461   3.312   9.607   1.873  0.5429 -0.9901 -0.4620
   21GLOH    O1 8462   3.391   9.663   1.862 -0.3682  0.4377  0.0727
   21GLOH    C1 8463   3.388   9.719   1.728  0.3021  0.4926  0.5010
   21GLOH   H02 8464   3.357   9.643   1.656  2.3793 -0.4157  0.5247
   21GLOH   H08 8465   3.488   9.750   1.699  0.7774 -0.9007  0.6320
   21GLOH    C2 8466   3.282   9.828   1.699 -0.2314  0.5910  0.1771
   21GLOH   H04 8467   3.320   9.920   1.746  0.2687 -0.8740  2.7501
   21GLOH    O2 8468   3.262   9.855   1.555 -0.1131 -0.0948 -0.2605
   21GLOH   H05 8469   3.274   9.780   1.495 -0.2006 -0.1700 -0.1846
   21GLOH    C3 8470   3.148   9.792   1.768 -0.2976  0.3055 -0.3951
   21GLOH   H06 8471   3.073   9.863   1.734 -0.4207  0.3486 -0.0407
   21GLOH   H07 8472   3.146   9.818   1.874 -2.5056 -1.6682  0.0854
   21GLOH    O3 8473   3.107   9.660   1.740  0.0355  0.1848 -0.3903
   21GLOH   H01 8474   3.040   9.672   1.669  0.2373  2.5485 -0.2137
   22GLOH   H03 8475   4.287   9.377   2.729  1.4540  0.3637 -0.0268
   22GLOH    O1 8476   4.305   9.394   2.824  0.1633  0.1606  0.2695
   22GLOH    C1 8477   4.254   9.282   2.888 -0.4432 -0.4848  0.5078
   22GLOH   H02 8478   4.304   9.273   2.985 -1.3142 -1.8479  0.8442
   22GLOH   H08 8479   4.279   9.191   2.833 -2.2007  1.2560 -3.3448
   22GLOH    C2 8480   4.100   9.276   2.904  0.3654 -0.6136 -0.1280
   22GLOH   H04 8481   4.064   9.370   2.948  2.0435  0.4931 -1.0777
   22GLOH    O2 8482   4.031   9.271   2.774  0.1136  0.5537 -0.0613
   22GLOH   H05 8483   3.988   9.356   2.758 -0.4465  0.0674 -1.2611
   22GLOH    C3 8484   4.071   9.160   3.005 -0.6133 -0.6792 -0.6084
   22GLOH   H06 8485   4.126   9.176   3.098 -1.8483  1.7842 -0.2542
   22GLOH   H07 8486   4.107   9.065   2.965 -0.5598 -0.5141 -0.9589
   22GLOH    O3 8487   3.931   9.152   3.039 -0.1719  0.2150 -0.9277
   22GLOH   H01 8488   3.882   9.114   2.964  2.1567 -0.4525 -2.1610
   23GLOH   H03 8489   2.915   9.318   2.116  0.4559 -0.9320 -0.2109
   23GLOH    O1 8490   2.971   9.310   2.037  0.6339 -0.7343 -0.1070
   23GLOH    C1 8491   2.994   9.436   1.976  0.1863  0.2360  0.2352
   23GLOH   H02 8492   2.899   9.474   1.941 -0.8606 -0.5603  2.1156
   23GLOH   H08 8493   3.060   9.430   1.890 -0.5379 -1.2310 -0.2332
   23GLOH    C2 8494   3.050   9.535   2.081  0.1676  0.4509  0.1401
   23GLOH   H04 8495   3.080   9.630   2.034 -1.6621  0.6248 -0.7129
   23GLOH    O2 8496   2.954   9.558   2.190  0.1414 -0.3748 -0.5546
   23GLOH   H05 8497   2.971   9.504   2.269 -5.3752 -0.2394  0.9688
   23GLOH    C3 8498   3.183   9.495   2.149 -0.2748  0.3412  0.0690
   23GLOH   H06 8499   3.165   9.403   2.205  2.1174 -0.1287  0.0818
   23GLOH   H07 8500   3.217   9.570   2.220 -2.4158  0.4555  1.0101
   23GLOH    O3 8501   3.282   9.477   2.048 -0.0533  0.2082 -0.0936
   23GLOH   H01 8502   3.365   9.435   2.076  0.0133  0.9263  0.8319
   24GLOH   H03 8503   3.581   9.818   2.222 -0.9735 -1.2257  0.5500
   24GLOH    O1 8504   3.554   9.865   2.304 -0.1452 -0.0367  0.1512
   24GLOH    C1 8505   3.425   9.814   2.352  0.5253 -0.1417 -0.3478
   24GLOH   H02 8506   3.446   9.709   2.375 -1.9284 -1.0781 -2.1566
   24GLOH   H08 8507   3.350   9.812   2.273  2.1831 -1.1836 -1.9431
   24GLOH    C2 8508   3.364   9.890   2.472 -0.0313  0.1867  0.5086
   24GLOH   H04 8509   3.321   9.978   2.423 -1.0756 -0.6910 -0.1683
   24GLOH    O2 8510   3.249   9.826   2.529 -0.4173 -0.3177  0.5562
   24GLOH   H05 8511   3.181   9.808   2.463 -0.4622  1.4825  0.0783
   24GLOH    C3 8512   3.467   9.925   2.578 -0.1487 -1.2793  1.2117
   24GLOH   H06 8513   3.502   9.827   2.611 -0.5527 -2.2447 -1.0936
   24GLOH   H07 8514   3.431   9.976   2.667 -1.4034  0.9521 -0.4977
   24GLOH    O3 8515   3.577   9.995   2.517  0.2378 -0.3844  0.2477
   24GLOH   H01 8516   3.580   9.958   2.427  3.3148  0.0412  0.1260
   25GLOH   H03 8517   3.262  10.129   1.796  1.5546 -2.5557 -0.0338
   25GLOH    O1 8518   3.228  10.097   1.882 -0.0907 -0.9114 -0.0215
   25GLOH    C1 8519   3.333  10.066   1.976 -0.0797 -0.4652  0.6796
   25GLOH   H02 8520   3.403   9.991   1.938  0.4850  0.8187 -0.8541
   25GLOH   H08 8521   3.285  10.020   2.062  1.4473  1.8911  2.8283
   25GLOH    C2 8522   3.412  10.186   2.037 -0.6617 -0.1943  0.3385
   25GLOH   H04 8523   3.446  10.250   1.954  0.0650  0.3902  1.0846
   25GLOH    O2 8524   3.319  10.266   2.114  0.0571  0.1592 -0.0641
   25GLOH   H05 8525   3.367  10.344   2.146 -0.7374  0.3293  0.7467
   25GLOH    C3 8526   3.524  10.137   2.130  0.2607 -0.5330  0.0061
   25GLOH   H06 8527   3.485  10.083   2.217 -0.2956  1.1627  0.8522
   25GLOH   H07 8528   3.569  10.224   2.177 -2.5100  0.8533  0.2243
   25GLOH    O3 8529   3.625  10.059   2.072 -0.5294 -0.0886 -0.4776
   25GLOH   H01 8530   3.691  10.122   2.038 -1.5766  1.5597  0.4489
   26GLOH   H03 8531   4.148   1.330   1.217 -0.9492  4.2517 -0.9715
   26GLOH    O1 8532   4.105   1.338   1.304 -0.0744 -0.1312 -0.0396
   26GLOH    C1 8533   4.186   1.258   1.390 -0.2704 -0.6547 -0.0101
   26GLOH   H02 8534   4.189   1.321   1.478  0.5866  0.2038 -0.6436
   26GLOH   H08 8535   4.286   1.247   1.347 -0.4719  0.8803 -0.8966
   26GLOH    C2 8536   4.124   1.119   1.426 -0.1471 -0.4022  0.2031
   26GLOH   H04 8537   4.028   1.129   1.477 -0.5268 -0.3725 -0.5033
   26GLOH    O2 8538   4.090   1.036   1.313 -0.0779  0.2544 -0.5947
   26GLOH   H05 8539   4.026   1.074   1.250 -1.4569  0.2674  0.8067
   26GLOH    C3 8540   4.221   1.043   1.521  0.1014 -0.3470 -0.2792
   26GLOH   H06 8541   4.297   0.993   1.460  0.4300  2.5069 -2.3001
   26GLOH   H07 8542   4.159   0.963   1.562  0.0678 -1.0438 -1.6629
   26GLOH    O3 8543   4.266   1.122   1.632 -0.0780  0.4349 -0.1518
   26GLOH   H01 8544   4.186   1.144   1.683  0.3262  1.0496  0.2226
   27GLOH   H03 8545   3.332   0.176   1.293  0.3067 -0.5380  0.2165
   27GLOH    O1 8546   3.281   0.172   1.210  0.3798  0.3743  0.1274
   27GLOH    C1 8547   3.216   0.047   1.173 -0.1432 -0.5894 -0.9605
   27GLOH   H02 8548   3.186  -0.002   1.266  1.3837 -1.4886 -0.9379
   27GLOH   H08 8549   3.297  -0.019   1.142 -1.8849 -1.5940 -3.5626
   27GLOH    C2 8550   3.109   0.049   1.064 -0.1762 -0.9591 -0.7104
   27GLOH   H04 8551   3.033   0.121   1.098 -0.8858 -0.3718 -3.4375
   27GLOH    O2 8552   3.162   0.100   0.940  0.2271 -0.0108 -0.1079
   27GLOH   H05 8553   3.250   0.139   0.955  0.2153 -0.0106 -0.0408
   27GLOH    C3 8554   3.052  -0.088   1.043  0.5076 -0.1369 -0.0680
   27GLOH   H06 8555   3.126  -0.165   1.020  1.6178 -0.2338  3.4890
   27GLOH   H07 8556   2.975  -0.078   0.967  0.7837  0.5165 -0.2621
   27GLOH    O3 8557   2.988  -0.129   1.166 -0.0965  0.0562  1.1892
   27GLOH   H01 8558   3.009  -0.219   1.199  1.1673  0.4768  1.5463
   28GLOH   H03 8559   4.672   0.963   1.535  0.6124  1.2543 -1.9572
   28GLOH    O1 8560   4.727   0.883   1.544 -0.9103  0.3454 -0.2989
   28GLOH    C1 8561   4.677   0.779   1.631 -0.2131 -0.0434  0.3589
   28GLOH   H02 8562   4.719   0.779   1.732  0.1081 -1.1184  0.2309
   28GLOH   H08 8563   4.699   0.679   1.594  1.8729 -0.1610  1.7996
   28GLOH    C2 8564   4.527   0.801   1.640  0.1705 -0.3688 -0.4623
   28GLOH   H04 8565   4.487   0.786   1.538 -0.9188  0.1237 -0.1234
   28GLOH    O2 8566   4.480   0.698   1.731 -0.1327  0.1587  0.8361
   28GLOH   H05 8567   4.507   0.614   1.692 -0.5186  0.6676 -0.5591
   28GLOH    C3 8568   4.484   0.934   1.695 -0.0309 -0.7844 -0.1687
   28GLOH   H06 8569   4.541   0.952   1.786 -1.0893 -2.5915  0.8708
   28GLOH   H07 8570   4.378   0.930   1.717  0.0920  2.6283  1.2833
   28GLOH    O3 8571   4.525   1.038   1.600 -0.4152 -0.0250 -0.1076
   28GLOH   H01 8572   4.470   1.118   1.599  0.0890  0.3195  0.0200
   29GLOH   H03 8573   3.640   1.667   1.664  0.7976 -0.7167 -1.0410
   29GLOH    O1 8574   3.665   1.637   1.754 -0.5563  0.5627 -0.2010
   29GLOH    C1 8575   3.776   1.546   1.730  0.3625 -0.4672  0.2216
   29GLOH   H02 8576   3.831   1.546   1.825 -0.1383 -3.0981  0.5503
   29GLOH   H08 8577   3.839   1.577   1.646  0.0763  0.9312  0.5052
   29GLOH    C2 8578   3.734   1.402   1.709  0.9301 -0.3157 -0.0750
   29GLOH   H04 8579   3.643   1.392   1.647 -0.0641  0.0716  1.3087
   29GLOH    O2 8580   3.846   1.346   1.636  0.2869  0.1048 -0.0818
   29GLOH   H05 8581   3.859   1.361   1.541  1.1141 -0.8959 -0.1346
   29GLOH    C3 8582   3.726   1.331   1.848 -0.3711 -0.6130 -0.8112
   29GLOH   H06 8583   3.809   1.375   1.904 -0.6804 -0.0408 -0.8048
   29GLOH   H07 8584   3.754   1.226   1.836 -1.4964 -0.6208 -3.7967
   29GLOH    O3 8585   3.605   1.360   1.917  0.5325 -0.0138 -0.1273
   29GLOH   H01 8586   3.530   1.374   1.856 -0.4561 -2.3937  0.4777
   30GLOH   H03 8587   3.088   9.256   0.810 -0.3417  0.1898 -0.3158
   30GLOH    O1 8588   3.088   9.349   0.783  0.0030  0.1929 -0.3059
   30GLOH    C1 8589   2.954   9.401   0.785 -0.3748 -0.4698 -0.6734
   30GLOH   H02 8590   2.934   9.431   0.887  0.0035 -0.5509 -0.5734
   30GLOH   H08 8591   2.887   9.320   0.759 -1.6092  0.4884 -0.5351
   30GLOH    C2 8592   2.916   9.519   0.688 -0.2195 -0.2371 -0.2734
   30GLOH   H04 8593   2.938   9.489   0.585  0.7309  0.9935 -0.4402
   30GLOH    O2 8594   2.775   9.559   0.699  0.4786 -0.4985  0.1543
   30GLOH   H05 8595   2.721   9.498   0.645 -0.7603  0.4958  0.2336
   30GLOH    C3 8596   3.003   9.639   0.724  0.1029  0.2930  0.0427
   30GLOH   H06 8597   3.099   9.606   0.764  0.9370  1.5158 -0.9393
   30GLOH   H07 8598   2.958   9.701   0.801 -1.4785 -0.5049 -0.2308
   30GLOH    O3 8599   3.020   9.720   0.612 -0.5150  0.2981 -0.2087
   30GLOH   H01 8600   3.115   9.723   0.593 -0.4693  0.1238 -0.0040
   31GLOH   H03 8601   3.282   1.357   1.043 -0.5607 -0.0504  0.4783
   31GLOH    O1 8602   3.369   1.316   1.060 -0.4367  0.0624  0.1252
   31GLOH    C1 8603   3.413   1.299   1.196 -0.0326 -0.0368 -0.6004
   31GLOH   H02 8604   3.426   1.401   1.230 -0.8460 -0.5070  1.1374
   31GLOH   H08 8605   3.510   1.249   1.204 -0.6885 -1.8235 -3.0923
   31GLOH    C2 8606   3.318   1.228   1.295 -0.4741 -0.2495  0.4284
   31GLOH   H04 8607   3.219   1.270   1.276 -1.8610 -3.1583  0.8585
   31GLOH    O2 8608   3.313   1.086   1.263 -0.2305  0.1995  0.0164
   31GLOH   H05 8609   3.270   1.082   1.176 -1.3451 -0.3079  0.5746
   31GLOH    C3 8610   3.360   1.251   1.446 -0.9424 -0.6240  0.5996
   31GLOH   H06 8611   3.451   1.192   1.461 -0.7284 -1.1019 -2.2945
   31GLOH   H07 8612   3.289   1.195   1.508  0.7172 -2.2459  1.0928
   31GLOH    O3 8613   3.383   1.385   1.498  0.0252 -0.4302  0.1751
   31GLOH   H01 8614   3.462   1.420   1.452 -1.6953  1.3317 -1.5154
   32GLOH   H03 8615   3.341   1.294   0.505  2.7403  0.1396 -2.7719
   32GLOH    O1 8616   3.352   1.391   0.502  0.8502  0.4820 -0.1804
   32GLOH    C1 8617   3.419   1.431   0.385  0.3182  0.3959  0.4224
   32GLOH   H02 8618   3.344   1.458   0.311 -0.1944  0.4310  0.9590
   32GLOH   H08 8619   3.480   1.348   0.349  1.4348  0.6627  1.6877
   32GLOH    C2 8620   3.506   1.561   0.394  0.1386  0.0739  0.5033
   32GLOH   H04 8621   3.595   1.540   0.456  0.1116  0.4111  0.6573
   32GLOH    O2 8622   3.542   1.605   0.257 -0.1119 -0.7199 -0.1176
   32GLOH   H05 8623   3.548   1.524   0.203 -0.1114 -0.0011 -1.1943
   32GLOH    C3 8624   3.426   1.669   0.460  0.3310 -0.7253  0.0465
   32GLOH   H06 8625   3.339   1.676   0.395  0.7115 -0.9907 -0.4975
   32GLOH   H07 8626   3.488   1.759   0.464 -0.5611  0.0630 -2.6957
   32GLOH    O3 8627   3.387   1.643   0.592  0.7408  0.0448  0.0105
   32GLOH   H01 8628   3.370   1.548   0.610 -0.6300  0.5926  1.8149
   33GLOH   H03 8629   3.675  10.016   1.813  2.8257  0.5078  0.4601
   33GLOH    O1 8630   3.680   9.925   1.847 -0.0715  0.0043 -0.2584
   33GLOH    C1 8631   3.822   9.885   1.857 -0.2178  0.0019 -0.5906
   33GLOH   H02 8632   3.852   9.863   1.959  3.6309 -0.4936 -1.7589
   33GLOH   H08 8633   3.887   9.963   1.816 -1.2082  0.4794 -1.2971
   33GLOH    C2 8634   3.844   9.758   1.778 -0.5148 -0.3424  0.3939
   33GLOH   H04 8635   3.853   9.782   1.671  2.0152  0.5461  0.7662
   33GLOH    O2 8636   3.976   9.694   1.804  0.4693  0.5032 -0.0260
   33GLOH   H05 8637   4.019   9.729   1.883 -0.4508  1.0130  0.2571
   33GLOH    C3 8638   3.735   9.659   1.803  0.3767 -1.0678 -0.1847
   33GLOH   H06 8639   3.640   9.711   1.792  0.4143 -0.7402  1.0015
   33GLOH   H07 8640   3.730   9.634   1.908 -1.0793  0.5531  0.1490
   33GLOH    O3 8641   3.722   9.553   1.710  0.0254  0.0784  0.2543
   33GLOH   H01 8642   3.812   9.515   1.702 -0.3927 -0.9560  0.3301
   34GLOH   H03 8643   2.975   0.451   1.783  0.6792 -0.6921  1.7227
   34GLOH    O1 8644   3.043   0.414   1.723 -0.1090  0.4459  0.0814
   34GLOH    C1 8645   3.152   0.493   1.687  0.1328 -0.5829  0.2701
   34GLOH   H02 8646   3.133   0.600   1.695 -0.0991 -0.7224  1.6496
   34GLOH   H08 8647   3.174   0.476   1.582  0.9511  3.5849 -0.3333
   34GLOH    C2 8648   3.269   0.446   1.771  0.7877  0.1029 -0.4783
   34GLOH   H04 8649   3.266   0.337   1.757 -0.3305 -0.0126  0.6074
   34GLOH    O2 8650   3.395   0.500   1.732  0.0033 -0.1539 -0.1443
   34GLOH   H05 8651   3.413   0.589   1.765 -1.4247 -0.1432  0.6462
   34GLOH    C3 8652   3.241   0.471   1.917  0.1719 -0.2482  0.1098
   34GLOH   H06 8653   3.334   0.450   1.970  0.0428 -0.3666  0.2876
   34GLOH   H07 8654   3.166   0.404   1.958  1.6310 -0.6953  2.0791
   34GLOH    O3 8655   3.199   0.603   1.941  0.3835 -0.0189  0.0350
   34GLOH   H01 8656   3.279   0.656   1.921 -0.0390  1.0083  0.9953
   35GLOH   H03 8657   3.960   1.372   1.374 -0.9165 -1.3686 -1.3031
   35GLOH    O1 8658   3.881   1.424   1.400 -0.1039 -0.6420 -0.2450
   35GLOH    C1 8659   3.876   1.516   1.283  0.2786  0.6303 -0.5841
   35GLOH   H02 8660   3.841   1.460   1.197  1.5508  1.2098 -1.4969
   35GLOH   H08 8661   3.978   1.553   1.269 -0.2520  1.3255 -2.7399
   35GLOH    C2 8662   3.769   1.629   1.313 -0.5461 -0.2351 -0.4765
   35GLOH   H04 8663   3.797   1.679   1.406  0.7682  1.1408 -1.5899
   35GLOH    O2 8664   3.763   1.731   1.210  0.7436 -0.1070 -0.3341
   35GLOH   H05 8665   3.841   1.763   1.162  0.5047 -0.5224 -0.9993
   35GLOH    C3 8666   3.626   1.571   1.331 -0.3281 -0.5072  0.1840
   35GLOH   H06 8667   3.583   1.541   1.236  0.2516 -2.3465  0.4769
   35GLOH   H07 8668   3.561   1.644   1.378  1.4398  0.2520  1.4851
   35GLOH    O3 8669   3.620   1.456   1.412 -0.1494 -0.2868 -0.1127
   35GLOH   H01 8670   3.707   1.411   1.413  0.4305  0.6786 -2.8551
   36GLOH   H03 8671   3.863   0.891   2.786 -1.7271 -1.8111 -1.2731
   36GLOH    O1 8672   3.798   0.962   2.799  0.4381 -0.0426  0.1896
   36GLOH    C1 8673   3.805   1.014   2.939 -0.2017  0.3981 -0.0965
   36GLOH   H02 8674   3.901   1.063   2.955  1.1114 -2.4908  1.2865
   36GLOH   H08 8675   3.785   0.935   3.011  2.2701 -0.6840 -0.5229
   36GLOH    C2 8676   3.696   1.121   2.954  0.2449  0.2832 -0.3315
   36GLOH   H04 8677   3.624   1.102   2.873 -0.2053  1.2883 -0.1720
   36GLOH    O2 8678   3.638   1.102   3.087 -0.8336 -0.3134  0.2612
   36GLOH   H05 8679   3.544   1.080   3.072 -0.0034 -2.3052 -2.3727
   36GLOH    C3 8680   3.750   1.256   2.930 -0.1174  0.5423  0.3015
   36GLOH   H06 8681   3.833   1.275   2.998  1.2115  0.7625 -1.3148
   36GLOH   H07 8682   3.678   1.331   2.963  1.0477  1.4992  0.7503
   36GLOH    O3 8683   3.794   1.277   2.795 -0.5966  0.1480  0.3220
   36GLOH   H01 8684   3.729   1.257   2.725  1.4300  0.6533 -1.7729
   37GLOH   H03 8685   3.864   0.685   1.475 -0.5585  1.6432 -0.5794
   37GLOH    O1 8686   3.775   0.664   1.442 -0.3939  0.2641 -0.1746
   37GLOH    C1 8687   3.675   0.681   1.532  0.8022  0.0765 -0.3356
   37GLOH   H02 8688   3.708   0.636   1.625 -1.5159 -0.8698  0.0418
   37GLOH   H08 8689   3.600   0.618   1.485  1.1782 -0.1409 -0.6494
   37GLOH    C2 8690   3.609   0.817   1.549 -0.7156  0.1099  0.1939
   37GLOH   H04 8691   3.598   0.855   1.447 -1.7083 -0.3714  0.1128
   37GLOH    O2 8692   3.481   0.805   1.611  0.0237 -0.2455  0.0684
   37GLOH   H05 8693   3.415   0.858   1.563  0.0413  1.1289  1.5381
   37GLOH    C3 8694   3.700   0.914   1.625  0.4085  0.2633  0.2391
   37GLOH   H06 8695   3.796   0.927   1.576 -0.1807  0.2069 -0.9501
   37GLOH   H07 8696   3.719   0.883   1.728  0.4933 -0.4901 -0.0021
   37GLOH    O3 8697   3.646   1.051   1.613  0.8144  0.0233 -0.3494
   37GLOH   H01 8698   3.593   1.069   1.693  0.1796 -0.9296 -0.5491
   38GLOH   H03 8699   3.157   9.776   2.672  2.4570  0.1424  0.2090
   38GLOH    O1 8700   3.150   9.727   2.757  0.2783 -0.1551 -0.0978
   38GLOH    C1 8701   3.202   9.814   2.864 -0.2905  1.2994  0.6312
   38GLOH   H02 8702   3.309   9.832   2.850 -0.2586  0.9354  0.3945
   38GLOH   H08 8703   3.197   9.754   2.954 -2.5942  2.1782  1.1295
   38GLOH    C2 8704   3.112   9.938   2.879 -0.2345  0.3313 -0.2037
   38GLOH   H04 8705   3.111   9.982   2.778  0.5573 -1.3597 -0.9799
   38GLOH    O2 8706   2.973   9.917   2.916 -0.1767 -0.0593 -0.0363
   38GLOH   H05 8707   2.971   9.841   2.977  1.6329 -2.0305 -2.3446
   38GLOH    C3 8708   3.178  10.034   2.980  0.4838  0.8695  0.1443
   38GLOH   H06 8709   3.205   9.973   3.066  0.7324  0.4474 -0.2278
   38GLOH   H07 8710   3.109  10.114   3.007 -0.2872 -0.0905  1.0672
   38GLOH    O3 8711   3.302  10.093   2.929 -0.1397 -0.0870 -0.6820
   38GLOH   H01 8712   3.319  10.182   2.966  1.1559  0.2042 -1.9039
   39GLOH   H03 8713   4.140   9.008   2.576 -0.9277  1.0482  0.3181
   39GLOH    O1 8714   4.188   9.049   2.501 -0.5962 -0.6724 -0.4283
   39GLOH    C1 8715   4.122   9.011   2.375 -0.0030  0.5589 -0.3800
   39GLOH   H02 8716   4.014   9.011   2.390 -0.2319 -0.5991 -1.9740
   39GLOH   H08 8717   4.145   8.906   2.353 -3.1133 -0.2658 -0.0386
   39GLOH    C2 8718   4.168   9.088   2.250  0.5850 -0.0314 -0.5135
   39GLOH   H04 8719   4.265   9.043   2.224  1.2795  1.3968 -0.4657
   39GLOH    O2 8720   4.090   9.054   2.134  0.4246 -0.0988  0.5218
   39GLOH   H05 8721   3.998   9.065   2.161  0.7233  1.6722  0.8437
   39GLOH    C3 8722   4.196   9.234   2.273  0.3044 -0.0223 -0.7298
   39GLOH   H06 8723   4.238   9.278   2.183 -3.6795  0.8422 -2.2673
   39GLOH   H07 8724   4.268   9.237   2.355 -0.6673 -0.1904  0.1395
   39GLOH    O3 8725   4.072   9.299   2.312  0.0139  0.3609  0.3318
   39GLOH   H01 8726   4.051   9.362   2.241 -3.5712  1.1276  1.9915
   40GLOH   H03 8727   3.195   9.095   0.766  1.4590  1.3468  1.7045
   40GLOH    O1 8728   3.116   9.102   0.823 -0.2074 -0.7611 -0.2767
   40GLOH    C1 8729   3.002   9.028   0.781 -0.2086 -0.8435 -0.9588
   40GLOH   H02 8730   2.925   9.047   0.856  1.1633  0.8872  0.0555
   40GLOH   H08 8731   3.015   8.920   0.783  1.7336 -0.6389 -1.6602
   40GLOH    C2 8732   2.930   9.062   0.650 -1.0616  0.2303  0.2488
   40GLOH   H04 8733   2.913   9.170   0.641  1.2888  0.4451 -2.0993
   40GLOH    O2 8734   3.007   9.023   0.532 -0.0655 -0.3496 -0.4239
   40GLOH   H05 8735   2.952   9.004   0.453 -0.5412  0.4949 -0.2981
   40GLOH    C3 8736   2.798   8.986   0.641  0.2873 -0.0173 -0.6530
   40GLOH   H06 8737   2.821   8.879   0.644  0.3423  0.0421  1.4586
   40GLOH   H07 8738   2.754   8.991   0.541 -0.4096 -1.9535 -0.4770
   40GLOH    O3 8739   2.714   9.020   0.750  0.0920 -0.0716 -0.2331
   40GLOH   H01 8740   2.622   9.039   0.724  0.1624  2.9468  1.4623
   41GLOH   H03 8741   2.768   1.066   2.611 -0.2332  1.3695  2.5445
   41GLOH    O1 8742   2.737   0.982   2.649  0.1686 -0.3568 -0.7699
   41GLOH    C1 8743   2.641   1.020   2.753 -0.3534  0.3915  0.3524
   41GLOH   H02 8744   2.555   1.073   2.712 -1.0807  0.4866  1.9811
   41GLOH   H08 8745   2.690   1.094   2.817  2.2477  0.8906 -2.1076
   41GLOH    C2 8746   2.596   0.896   2.835 -0.7110  0.4257  0.6772
   41GLOH   H04 8747   2.690   0.843   2.860 -0.0094  1.0912 -0.4754
   41GLOH    O2 8748   2.531   0.951   2.953  0.0913  0.5820 -0.0805
   41GLOH   H05 8749   2.554   0.887   3.022 -1.3129  0.8827  0.6865
   41GLOH    C3 8750   2.502   0.812   2.740  0.4078 -0.4251 -0.6403
   41GLOH   H06 8751   2.509   0.842   2.636  0.6960 -1.3610 -0.9010
   41GLOH   H07 8752   2.399   0.835   2.767  1.1505  1.0658  1.0238
   41GLOH    O3 8753   2.520   0.669   2.752  0.1472  0.5538 -0.8883
   41GLOH   H01 8754   2.567   0.630   2.676 -0.0068  0.5194 -0.9654
   42GLOH   H03 8755   2.632   0.563   2.453  1.5555 -0.8428 -0.6522
   42GLOH    O1 8756   2.649   0.578   2.547  0.1446  0.2956 -0.5755
   42GLOH    C1 8757   2.761   0.672   2.556 -0.3558 -0.2840  0.3949
   42GLOH   H02 8758   2.724   0.774   2.568  1.4722  0.4596 -0.0568
   42GLOH   H08 8759   2.817   0.681   2.463 -0.0782  1.9421  0.7507
   42GLOH    C2 8760   2.867   0.640   2.664  0.6381 -0.0979 -0.4348
   42GLOH   H04 8761   2.810   0.645   2.758  1.2709 -3.3346  0.1687
   42GLOH    O2 8762   2.910   0.503   2.652 -0.1616  0.1204  0.2226
   42GLOH   H05 8763   2.968   0.499   2.574 -0.3125 -0.2567  0.1288
   42GLOH    C3 8764   2.972   0.751   2.666 -0.0771 -0.2963  0.1660
   42GLOH   H06 8765   2.928   0.849   2.645 -0.4359 -0.6032 -0.5541
   42GLOH   H07 8766   3.036   0.732   2.579  0.7599 -2.4547  1.2257
   42GLOH    O3 8767   3.050   0.750   2.784 -0.0298  0.6767  0.5883
   42GLOH   H01 8768   3.120   0.816   2.770  1.0499 -0.8004 -1.1568
   43GLOH   H03 8769   2.632   0.282   2.400 -1.0303 -0.4525  0.5126
   43GLOH    O1 8770   2.595   0.276   2.310  0.0801  0.5235 -0.0271
   43GLOH    C1 8771   2.698   0.256   2.210  0.1133 -0.5635 -0.4026
   43GLOH   H02 8772   2.657   0.208   2.121  0.2919  1.1904 -1.4398
   43GLOH   H08 8773   2.764   0.180   2.253 -0.9916 -2.3088 -1.7291
   43GLOH    C2 8774   2.778   0.386   2.184 -0.3923  0.2834 -0.4370
   43GLOH   H04 8775   2.850   0.407   2.265 -1.4152 -2.1422  1.1389
   43GLOH    O2 8776   2.849   0.365   2.055 -0.1654 -0.4075 -0.2921
   43GLOH   H05 8777   2.924   0.309   2.080 -0.5304 -1.5595 -1.7263
   43GLOH    C3 8778   2.695   0.514   2.167  0.0474 -0.1814 -0.3397
   43GLOH   H06 8779   2.621   0.502   2.088  0.3829  0.4965 -0.7649
   43GLOH   H07 8780   2.765   0.592   2.138 -0.6683  0.5156 -0.2263
   43GLOH    O3 8781   2.647   0.571   2.290 -0.3124  0.4910 -0.5376
   43GLOH   H01 8782   2.616   0.660   2.268 -2.6905 -0.4156 -1.0088
   44GLOH   H03 8783   3.421   1.050   1.839 -0.5250 -2.7243  0.7448
   44GLOH    O1 8784   3.518   1.043   1.832 -0.2540  0.2833  0.6456
   44GLOH    C1 8785   3.563   1.004   1.956  0.8631 -0.4987  0.2239
   44GLOH   H02 8786   3.496   1.046   2.031  0.3898 -1.6135  0.4334
   44GLOH   H08 8787   3.662   1.048   1.969  0.9655 -0.8546  0.6429
   44GLOH    C2 8788   3.571   0.856   1.989  0.1404 -0.2958 -0.7073
   44GLOH   H04 8789   3.626   0.803   1.910 -1.3983  0.4148 -2.2786
   44GLOH    O2 8790   3.630   0.830   2.117 -0.3573 -0.2465 -0.6086
   44GLOH   H05 8791   3.630   0.737   2.143  0.4132  0.4749  2.1754
   44GLOH    C3 8792   3.428   0.793   1.987 -0.0917 -0.4026 -0.7411
   44GLOH   H06 8793   3.358   0.870   2.020 -0.9185 -2.0834  1.6660
   44GLOH   H07 8794   3.436   0.718   2.066  1.0196 -0.6057 -1.0428
   44GLOH    O3 8795   3.396   0.732   1.860 -0.5925 -0.2408  0.2852
   44GLOH   H01 8796   3.425   0.787   1.785 -1.6834  0.8782  0.6663
   45GLOH   H03 8797   3.683   0.549   2.693  1.1264  0.4068 -1.9521
   45GLOH    O1 8798   3.769   0.575   2.731  0.5962 -0.2748 -0.2258
   45GLOH    C1 8799   3.849   0.452   2.717  0.1085  0.1489 -0.6510
   45GLOH   H02 8800   3.794   0.389   2.647  0.4915  2.7157 -3.3961
   45GLOH   H08 8801   3.844   0.395   2.809 -0.4444  2.6710  0.9374
   45GLOH    C2 8802   3.993   0.466   2.661 -0.2335 -0.0797 -0.1544
   45GLOH   H04 8803   3.986   0.544   2.584  0.7090  1.0940  0.9244
   45GLOH    O2 8804   4.088   0.514   2.756  0.1701  0.7951  0.4552
   45GLOH   H05 8805   4.112   0.445   2.821  0.6294  0.5124 -0.0098
   45GLOH    C3 8806   4.053   0.348   2.586  0.6724  0.0812  0.1973
   45GLOH   H06 8807   4.043   0.260   2.650 -5.8713  0.6136  0.1719
   45GLOH   H07 8808   4.155   0.368   2.552  0.5889 -0.7184 -0.5397
   45GLOH    O3 8809   3.976   0.317   2.467 -0.7089 -0.2895  0.3115
   45GLOH   H01 8810   3.933   0.230   2.475 -1.0448 -0.2452 -1.0122
   46GLOH   H03 8811   3.871   9.192   2.058  0.6048  0.2798 -0.3101
   46GLOH    O1 8812   3.857   9.264   1.993  0.3854  0.0183 -0.5549
   46GLOH    C1 8813   3.728   9.247   1.926 -0.3198 -0.0991 -0.9989
   46GLOH   H02 8814   3.692   9.144   1.932 -0.5867 -0.0387 -1.5405
   46GLOH   H08 8815   3.750   9.268   1.821  1.2002  2.0960 -0.2779
   46GLOH    C2 8816   3.616   9.338   1.983 -0.9486 -0.6124  0.2659
   46GLOH   H04 8817   3.645   9.444   1.980 -0.4169 -0.7285  1.1000
   46GLOH    O2 8818   3.493   9.316   1.906  0.2630  0.0681  0.6483
   46GLOH   H05 8819   3.481   9.384   1.838  2.6444  0.7451  0.8519
   46GLOH    C3 8820   3.597   9.306   2.135 -0.0027 -0.9787  0.0869
   46GLOH   H06 8821   3.692   9.313   2.187  0.4289 -0.8732 -0.6979
   46GLOH   H07 8822   3.577   9.202   2.159 -0.9212 -1.0090 -0.7626
   46GLOH    O3 8823   3.497   9.391   2.194  0.4378  0.3670 -0.7838
   46GLOH   H01 8824   3.522   9.408   2.286 -2.2165 -2.6042  0.5598
   47GLOH   H03 8825   2.471   9.931   1.095  0.1481  0.9234  0.9794
   47GLOH    O1 8826   2.497   9.867   1.165  0.0271  0.1568  0.3385
   47GLOH    C1 8827   2.643   9.867   1.180  0.4523 -0.2489  0.0061
   47GLOH   H02 8828   2.698   9.866   1.086  1.5997 -0.9194  0.6720
   47GLOH   H08 8829   2.662   9.776   1.238 -1.9680  0.2220  1.6242
   47GLOH    C2 8830   2.678   9.994   1.264  0.1639 -0.2922 -0.1564
   47GLOH   H04 8831   2.599  10.001   1.340  0.2844 -0.4966 -0.0120
   47GLOH    O2 8832   2.807   9.980   1.334  0.2976  0.5780 -0.1435
   47GLOH   H05 8833   2.873   9.947   1.271 -0.3006  1.3302 -1.1742
   47GLOH    C3 8834   2.663  10.128   1.183  0.8362  0.2492  0.3179
   47GLOH   H06 8835   2.715  10.204   1.241  1.4975  0.7275 -0.8804
   47GLOH   H07 8836   2.561  10.167   1.180  0.6258  0.0997  3.4790
   47GLOH    O3 8837   2.726  10.117   1.056  0.0187 -0.2885  0.3099
   47GLOH   H01 8838   2.787  10.192   1.046 -1.8350  1.0600 -1.2074
   48GLOH   H03 8839   3.202   9.245   0.519 -2.2670 -2.1042 -0.1018
   48GLOH    O1 8840   3.164   9.291   0.442 -0.4113  0.2648  0.3340
   48GLOH    C1 8841   3.222   9.422   0.445  0.3829 -0.0071  0.6243
   48GLOH   H02 8842   3.299   9.427   0.521  1.0338 -0.3208 -0.0048
   48GLOH   H08 8843   3.147   9.494   0.478 -1.5944 -0.2888 -2.9728
   48GLOH    C2 8844   3.275   9.469   0.310 -0.3521 -0.1815 -0.6259
   48GLOH   H04 8845   3.186   9.504   0.256 -0.5123 -1.0387 -0.9287
   48GLOH    O2 8846   3.363   9.585   0.319 -0.4344  0.8070 -0.4489
   48GLOH   H05 8847   3.335   9.640   0.394  2.4985  2.2239 -0.3651
   48GLOH    C3 8848   3.341   9.352   0.231  0.3857 -0.1787 -1.0487
   48GLOH   H06 8849   3.428   9.317   0.285 -1.0818  0.7955  2.0755
   48GLOH   H07 8850   3.360   9.386   0.130 -3.3011 -2.1102 -2.4951
   48GLOH    O3 8851   3.244   9.252   0.211  0.2885 -0.1144  0.4925
   48GLOH   H01 8852   3.202   9.248   0.299  0.8777 -0.7209  0.7568
   49GLOH   H03 8853   3.634   1.075   1.460  0.8977  1.4373  0.3658
   49GLOH    O1 8854   3.638   1.102   1.367 -0.0703  0.2128 -0.0380
   49GLOH    C1 8855   3.776   1.096   1.328  0.5022 -0.1629  0.2120
   49GLOH   H02 8856   3.833   1.015   1.373  0.4528  0.1245  0.8012
   49GLOH   H08 8857   3.828   1.189   1.352 -0.5940  0.4306  0.3096
   49GLOH    C2 8858   3.796   1.084   1.173  0.8079 -0.4189  0.3283
   49GLOH   H04 8859   3.741   1.168   1.129 -0.7732 -0.2864  2.4980
   49GLOH    O2 8860   3.929   1.080   1.123  0.2048 -0.0633 -0.0981
   49GLOH   H05 8861   3.931   1.072   1.027 -1.3418 -0.6133 -0.1000
   49GLOH    C3 8862   3.731   0.959   1.126 -0.8015 -0.0932  0.1402
   49GLOH   H06 8863   3.776   0.885   1.193 -1.3427 -1.4585 -0.9662
   49GLOH   H07 8864   3.761   0.929   1.025  0.0248 -1.4197  0.7575
   49GLOH    O3 8865   3.590   0.963   1.150 -0.3908  0.5338 -0.4532
   49GLOH   H01 8866   3.574   1.007   1.235 -0.5761  1.0721 -0.7595
   50GLOH   H03 8867   4.612   0.363   1.231  1.8727  2.6148 -1.0004
   50GLOH    O1 8868   4.681   0.303   1.197  0.5883  0.6339 -0.2595
   50GLOH    C1 8869   4.643   0.170   1.255 -0.0612 -0.5574 -0.4103
   50GLOH   H02 8870   4.692   0.143   1.349  1.5638  0.6461 -0.8821
   50GLOH   H08 8871   4.676   0.099   1.179  0.2046 -2.2067  1.2231
   50GLOH    C2 8872   4.487   0.154   1.261  0.2590 -0.6386 -0.0886
   50GLOH   H04 8873   4.442   0.164   1.161  1.2361 -1.5438 -0.6247
   50GLOH    O2 8874   4.436   0.032   1.313 -0.2914 -1.2985  0.8209
   50GLOH   H05 8875   4.418  -0.021   1.234 -3.8062 -0.2052  0.7801
   50GLOH    C3 8876   4.444   0.259   1.366  0.1701 -0.7948 -0.7016
   50GLOH   H06 8877   4.490   0.246   1.464 -3.7791 -1.0079  1.2140
   50GLOH   H07 8878   4.337   0.247   1.386 -0.2866  2.0072 -1.2090
   50GLOH    O3 8879   4.475   0.391   1.321  0.6962  0.0427 -0.2363
   50GLOH   H01 8880   4.405   0.421   1.260 -0.8854  0.2038  1.6238
   51GLOH   H03 8881   2.841   9.681   2.179 -0.1431  1.0846  2.3434
   51GLOH    O1 8882   2.792   9.756   2.139 -0.1251 -0.0861  0.0598
   51GLOH    C1 8883   2.888   9.838   2.077 -0.2601 -0.9407 -0.0766
   51GLOH   H02 8884   2.954   9.785   2.008 -0.0826 -0.9838  0.1253
   51GLOH   H08 8885   2.944   9.891   2.154 -1.8133 -0.5590  0.8119
   51GLOH    C2 8886   2.821   9.953   1.995  0.8158  0.0150 -1.0688
   51GLOH   H04 8887   2.764  10.019   2.063  0.7780  0.4945 -1.5688
   51GLOH    O2 8888   2.933  10.025   1.944  0.0262  0.3580 -0.6512
   51GLOH   H05 8889   2.893  10.070   1.867  0.1892  1.1050 -0.2895
   51GLOH    C3 8890   2.738   9.890   1.890  0.3491  0.3682 -0.5038
   51GLOH   H06 8891   2.799   9.821   1.832 -1.3836 -1.3109 -0.3886
   51GLOH   H07 8892   2.706   9.974   1.828  2.0118  1.9874  0.7709
   51GLOH    O3 8893   2.623   9.821   1.950  0.0342  0.0911  0.4355
   51GLOH   H01 8894   2.665   9.780   2.028  2.7728  1.6072 -0.1580
   52GLOH   H03 8895   2.375   0.543   0.302 -0.3920 -0.6892 -0.3712
   52GLOH    O1 8896   2.445   0.532   0.369  0.0061 -0.4491 -0.7529
   52GLOH    C1 8897   2.402   0.518   0.506  0.2371  0.7852  0.2965
   52GLOH   H02 8898   2.365   0.416   0.516 -0.2392  0.7696 -1.3726
   52GLOH   H08 8899   2.326   0.595   0.523  1.5646  1.7272  2.0954
   52GLOH    C2 8900   2.507   0.536   0.614  0.1664 -0.3308 -1.0223
   52GLOH   H04 8901   2.534   0.642   0.615  0.0526 -0.3114  0.1265
   52GLOH    O2 8902   2.455   0.501   0.741  0.9007  0.1213 -0.6433
   52GLOH   H05 8903   2.507   0.533   0.816 -0.9941 -1.2429  1.2997
   52GLOH    C3 8904   2.635   0.462   0.587 -0.3254  0.6592  0.2196
   52GLOH   H06 8905   2.710   0.489   0.662  0.5751 -1.4983  0.1249
   52GLOH   H07 8906   2.681   0.511   0.501  2.5240 -2.3956 -0.0880
   52GLOH    O3 8907   2.619   0.321   0.570  0.1986 -0.0337  0.6709
   52GLOH   H01 8908   2.628   0.277   0.657 -0.1589  1.5811  1.5463
   53GLOH   H03 8909   3.306   9.203   1.350  0.1169  0.2348 -1.9966
   53GLOH    O1 8910   3.387   9.254   1.370  0.1454 -0.4414 -0.3102
   53GLOH    C1 8911   3.391   9.298   1.504 -0.2477 -0.2933 -0.5286
   53GLOH   H02 8912   3.412   9.210   1.565  1.9206 -0.0581 -0.8801
   53GLOH   H08 8913   3.298   9.340   1.541  0.7126  0.1878  1.3828
   53GLOH    C2 8914   3.500   9.404   1.522 -0.6819 -0.0334 -0.1861
   53GLOH   H04 8915   3.465   9.486   1.457  0.7040 -0.7839 -1.9321
   53GLOH    O2 8916   3.505   9.435   1.665 -0.5890 -0.0227  0.0786
   53GLOH   H05 8917   3.592   9.472   1.686 -1.5003  1.3681  1.4916
   53GLOH    C3 8918   3.638   9.361   1.467 -0.6335 -0.5917  0.1226
   53GLOH   H06 8919   3.662   9.263   1.509  2.6855  0.4178  0.7393
   53GLOH   H07 8920   3.721   9.423   1.500 -1.5209 -1.4045  4.1118
   53GLOH    O3 8921   3.614   9.351   1.325  0.4667 -0.3009  0.6747
   53GLOH   H01 8922   3.528   9.305   1.319  0.3596  0.0947 -0.9163
   54GLOH   H03 8923   4.208   9.098   1.814  2.2156  1.0354  1.0527
   54GLOH    O1 8924   4.206   9.162   1.741 -0.7862 -0.0245  0.1455
   54GLOH    C1 8925   4.138   9.279   1.775  0.1137 -0.2543 -0.4553
   54GLOH   H02 8926   4.208   9.362   1.765  1.2423 -0.8687  2.0439
   54GLOH   H08 8927   4.093   9.273   1.874 -1.9956  0.1527 -1.3623
   54GLOH    C2 8928   4.022   9.310   1.680 -0.3420  0.3839  0.1945
   54GLOH   H04 8929   3.957   9.222   1.694 -1.2536  1.3536  2.1638
   54GLOH    O2 8930   3.946   9.430   1.704 -0.1882  0.3286 -0.2269
   54GLOH   H05 8931   3.997   9.509   1.679 -2.9733  3.4316  3.3339
   54GLOH    C3 8932   4.073   9.306   1.532  0.2290  0.7985  0.0308
   54GLOH   H06 8933   4.150   9.382   1.531  0.9337  0.0881 -0.6299
   54GLOH   H07 8934   3.992   9.335   1.465  0.4223  0.7357 -0.2330
   54GLOH    O3 8935   4.120   9.178   1.493 -0.5957 -0.6778 -0.6052
   54GLOH   H01 8936   4.158   9.138   1.574 -0.4685  1.9024  0.6378
   55GLOH   H03 8937   3.975   1.263   1.717  1.3722  1.8099  2.1901
   55GLOH    O1 8938   4.050   1.202   1.728  0.3057 -0.0506 -0.3532
   55GLOH    C1 8939   3.992   1.076   1.770  0.6759 -0.4988 -0.1096
   55GLOH   H02 8940   4.057   0.992   1.747  1.6402  0.2114  0.0048
   55GLOH   H08 8941   3.893   1.060   1.728  1.4269  1.6362 -2.8605
   55GLOH    C2 8942   3.976   1.073   1.928 -0.8437  0.0445 -0.8761
   55GLOH   H04 8943   3.927   1.164   1.967  1.7192  0.4342  1.6002
   55GLOH    O2 8944   3.905   0.961   1.977  0.5917 -0.3186  0.2467
   55GLOH   H05 8945   3.921   0.939   2.070  4.3471 -0.4710 -0.3647
   55GLOH    C3 8946   4.112   1.068   2.000 -0.2249  0.5472  0.6128
   55GLOH   H06 8947   4.184   1.138   1.958  0.0853 -0.6066 -0.7912
   55GLOH   H07 8948   4.147   0.965   1.990 -0.7507  0.1775  2.3434
   55GLOH    O3 8949   4.102   1.089   2.137 -0.4023 -0.6835  0.1012
   55GLOH   H01 8950   4.062   1.007   2.171  0.2292 -1.7239 -1.6173
   56GLOH   H03 8951   2.934   0.717   0.477 -0.5334  2.3103  0.2684
   56GLOH    O1 8952   2.951   0.677   0.564 -0.1767  0.2158 -0.7108
   56GLOH    C1 8953   3.018   0.551   0.545  0.5489 -0.6004 -0.0714
   56GLOH   H02 8954   2.964   0.486   0.476  1.3621 -0.3026 -1.0071
   56GLOH   H08 8955   3.004   0.501   0.641 -0.4468  1.8119  1.0728
   56GLOH    C2 8956   3.165   0.580   0.500  0.6022 -0.3973  0.3357
   56GLOH   H04 8957   3.209   0.486   0.461  1.3075  0.2647 -0.4900
   56GLOH    O2 8958   3.180   0.671   0.387 -0.0072  0.2562  0.1165
   56GLOH   H05 8959   3.168   0.621   0.304  1.1590 -0.1299  0.1743
   56GLOH    C3 8960   3.242   0.623   0.626  0.3423  0.1398  0.7856
   56GLOH   H06 8961   3.182   0.699   0.675 -2.1723 -1.0260 -0.4014
   56GLOH   H07 8962   3.331   0.676   0.592 -0.8607  1.0809 -0.9871
   56GLOH    O3 8963   3.275   0.516   0.714 -0.4948 -0.2367  0.1256
   56GLOH   H01 8964   3.338   0.539   0.785  0.1605 -0.7707 -0.2665
   57GLOH   H03 8965   2.454   9.906   0.421 -0.0926  0.0452  0.0057
   57GLOH    O1 8966   2.358   9.908   0.439 -0.2719 -0.2119 -0.9143
   57GLOH    C1 8967   2.331   9.997   0.543  0.8724  0.3394 -0.6202
   57GLOH   H02 8968   2.250   9.961   0.607  2.2619 -0.6986  0.5744
   57GLOH   H08 8969   2.296  10.093   0.505 -2.9659 -0.5120  0.5664
   57GLOH    C2 8970   2.444  10.027   0.639  0.2086 -0.1566 -0.2375
   57GLOH   H04 8971   2.516  10.094   0.590  0.0284  0.3589  0.2045
   57GLOH    O2 8972   2.383  10.104   0.745  0.4253 -0.1260  0.0518
   57GLOH   H05 8973   2.446  10.173   0.773 -1.0809  2.4176 -2.5287
   57GLOH    C3 8974   2.509   9.894   0.688  0.7094  0.2353 -0.2155
   57GLOH   H06 8975   2.539   9.840   0.598 -0.3073  0.3537 -0.6335
   57GLOH   H07 8976   2.437   9.831   0.741  1.7935 -1.6308 -0.8851
   57GLOH    O3 8977   2.613   9.919   0.772  0.6379  0.0757  0.4426
   57GLOH   H01 8978   2.694   9.912   0.719 -0.1656 -1.0380 -0.6753
   58GLOH   H03 8979   3.854   9.753   1.239  1.3495  0.0479  0.6072
   58GLOH    O1 8980   3.824   9.758   1.331  0.3814  0.1230  0.2905
   58GLOH    C1 8981   3.679   9.750   1.328 -0.4495  0.1533  0.1838
   58GLOH   H02 8982   3.638   9.708   1.419 -1.2101  0.8291  0.1560
   58GLOH   H08 8983   3.654   9.675   1.253  0.1046 -0.1721  0.3222
   58GLOH    C2 8984   3.606   9.881   1.312 -0.0456 -0.1740  0.6784
   58GLOH   H04 8985   3.647   9.928   1.221 -0.9777 -3.2127 -1.3856
   58GLOH    O2 8986   3.464   9.865   1.298  0.1644 -0.2260  0.6195
   58GLOH   H05 8987   3.436   9.809   1.224 -2.0121  3.0508 -1.1017
   58GLOH    C3 8988   3.645   9.971   1.436 -0.5732  0.1619  0.1589
   58GLOH   H06 8989   3.584   9.936   1.519  0.0701 -0.2685  0.4519
   58GLOH   H07 8990   3.625  10.073   1.405  2.8292  0.5247 -1.0877
   58GLOH    O3 8991   3.785   9.959   1.465  0.1560 -0.4660 -0.0247
   58GLOH   H01 8992   3.826   9.886   1.415  0.1372 -1.0102  0.7430
   59GLOH   H03 8993   4.188   0.422   1.147  0.0756 -0.8807  1.0540
   59GLOH    O1 8994   4.285   0.416   1.139  0.0644  0.1651  0.1019
   59GLOH    C1 8995   4.316   0.371   1.006  0.5007  0.2892  0.8902
   59GLOH   H02 8996   4.306   0.263   0.995  1.8633  0.1515  0.9718
   59GLOH   H08 8997   4.421   0.388   0.986  0.4776 -0.1507  0.3946
   59GLOH    C2 8998   4.242   0.448   0.900  0.3538 -0.4605  0.5662
   59GLOH   H04 8999   4.252   0.556   0.920  1.4163 -0.0029 -2.2584
   59GLOH    O2 9000   4.312   0.420   0.771  0.7789 -0.6999 -0.5280
   59GLOH   H05 9001   4.313   0.323   0.765 -0.4249 -0.8489  1.3914
   59GLOH    C3 9002   4.096   0.400   0.897 -0.2490 -0.3911 -0.8448
   59GLOH   H06 9003   4.086   0.304   0.847 -0.9577 -0.4035 -0.6785
   59GLOH   H07 9004   4.038   0.468   0.835 -0.6013  0.1676  0.0956
   59GLOH    O3 9005   4.043   0.397   1.030 -0.3035  0.1131  0.0876
   59GLOH   H01 9006   3.949   0.372   1.024 -0.6253  1.7657 -1.9945
   60GLOH   H03 9007   2.443   0.759   2.154  0.8310 -2.1642 -0.3083
   60GLOH    O1 9008   2.519   0.791   2.206 -0.4216 -0.1787  0.3485
   60GLOH    C1 9009   2.497   0.917   2.270 -0.0501  0.2795  0.4029
   60GLOH   H02 9010   2.551   0.916   2.365 -2.8002 -0.0085  2.0232
   60GLOH   H08 9011   2.390   0.925   2.287 -0.0800 -0.1127  0.4098
   60GLOH    C2 9012   2.543   1.023   2.169  0.1208 -0.3478  0.2052
   60GLOH   H04 9013   2.497   1.008   2.070  1.0222  5.2414 -1.2186
   60GLOH    O2 9014   2.506   1.151   2.215  0.1601  0.2280  0.0947
   60GLOH   H05 9015   2.501   1.210   2.138  1.6576 -0.9819 -0.9500
   60GLOH    C3 9016   2.696   1.026   2.141  0.1161  0.1992 -0.0819
   60GLOH   H06 9017   2.738   1.068   2.233  0.8882  1.2868 -0.9269
   60GLOH   H07 9018   2.716   1.096   2.061 -2.3667  0.6174 -0.3753
   60GLOH    O3 9019   2.752   0.900   2.109  0.0219  0.5452  0.1749
   60GLOH   H01 9020   2.689   0.836   2.072  2.1548 -1.1618 -0.5699
   61GLOH   H03 9021   3.070  10.121   2.318 -0.0337  1.9470 -0.8745
   61GLOH    O1 9022   3.088  10.129   2.413  0.1127  0.5586 -0.7760
   61GLOH    C1 9023   3.025  10.256   2.443  0.1154 -0.5413  0.0173
   61GLOH   H02 9024   2.980  10.244   2.541 -1.0662  2.0086 -0.1746
   61GLOH   H08 9025   2.939  10.281   2.381  0.8931  1.3406 -0.3297
   61GLOH    C2 9026   3.127  10.370   2.448  0.5315  0.2359 -0.4256
   61GLOH   H04 9027   3.188  10.348   2.358 -0.1042 -2.1526 -0.3062
   61GLOH    O2 9028   3.058  10.497   2.446  0.2099  0.3857 -0.0581
   61GLOH   H05 9029   3.078  10.538   2.360 -0.4389 -0.7898 -0.7960
   61GLOH    C3 9030   3.207  10.338   2.573  0.4247 -0.4815 -0.9584
   61GLOH   H06 9031   3.142  10.346   2.660  0.2498 -2.2520 -0.9110
   61GLOH   H07 9032   3.281  10.419   2.577 -0.3232  0.2583 -1.9800
   61GLOH    O3 9033   3.286  10.220   2.553  0.4666  0.8066  0.4853
   61GLOH   H01 9034   3.220  10.165   2.505  1.1470  1.3367 -1.0649
   62GLOH   H03 9035   4.351   9.977   1.447 -2.3890  0.9835 -0.8124
   62GLOH    O1 9036   4.310   9.921   1.515  0.0450  0.0949 -0.0360
   62GLOH    C1 9037   4.353   9.783   1.508 -0.0975 -0.3802 -0.5377
   62GLOH   H02 9038   4.433   9.769   1.581  0.1301 -0.6973 -0.8414
   62GLOH   H08 9039   4.396   9.761   1.410 -1.3444 -0.7236 -1.0123
   62GLOH    C2 9040   4.235   9.687   1.542  0.4811  0.5022 -0.1032
   62GLOH   H04 9041   4.265   9.586   1.511  0.9034  0.0898  1.6453
   62GLOH    O2 9042   4.205   9.683   1.681  0.6799 -0.0443  0.2303
   62GLOH   H05 9043   4.109   9.687   1.695  0.4417  3.3485 -1.9059
   62GLOH    C3 9044   4.105   9.733   1.469 -0.1878 -0.4694 -0.1707
   62GLOH   H06 9045   4.131   9.736   1.363 -0.1279 -2.1633 -0.2246
   62GLOH   H07 9046   4.070   9.832   1.498  1.0565  0.5361 -2.0128
   62GLOH    O3 9047   3.991   9.647   1.486 -0.2968  0.2488 -0.3790
   62GLOH   H01 9048   3.924   9.690   1.430 -0.5020 -1.1745 -1.2660
   63GLOH   H03 9049   4.146   1.367   0.968  1.1327  1.3615  0.0669
   63GLOH    O1 9050   4.168   1.321   1.051 -0.4420  0.2433 -0.1211
   63GLOH    C1 9051   4.215   1.189   1.021  0.4894 -0.6502 -0.0627
   63GLOH   H02 9052   4.189   1.164   0.918  1.7382  2.9081 -1.3144
   63GLOH   H08 9053   4.177   1.104   1.077  0.7556 -0.0133  1.0984
   63GLOH    C2 9054   4.369   1.191   1.033 -0.0813  0.4466  0.2104
   63GLOH   H04 9055   4.390   1.250   1.124 -0.9865  1.8045 -0.4272
   63GLOH    O2 9056   4.442   1.066   1.050  0.0126 -0.2646 -0.2008
   63GLOH   H05 9057   4.375   0.996   1.060 -2.0054  1.7486  0.8622
   63GLOH    C3 9058   4.432   1.276   0.920  0.2169 -0.3044 -0.4492
   63GLOH   H06 9059   4.537   1.291   0.947 -0.0501  1.5975 -0.3979
   63GLOH   H07 9060   4.383   1.373   0.917  1.2016  0.1519 -2.5333
   63GLOH    O3 9061   4.419   1.220   0.788  0.4618 -0.5986 -0.4890
   63GLOH   H01 9062   4.484   1.149   0.774 -0.5740 -1.5341 -0.5771
   64GLOH   H03 9063   3.821   0.601   0.121 -1.0995 -0.7052  0.2562
   64GLOH    O1 9064   3.843   0.616   0.215 -0.1547 -0.2225 -0.0392
   64GLOH    C1 9065   3.727   0.660   0.283  0.2612 -0.5650 -0.0423
   64GLOH   H02 9066   3.687   0.755   0.247 -0.6742 -0.8347  0.2649
   64GLOH   H08 9067   3.748   0.682   0.388 -0.3152  0.0675 -0.0601
   64GLOH    C2 9068   3.621   0.546   0.299  0.0348 -0.0693  0.0438
   64GLOH   H04 9069   3.537   0.564   0.368 -1.0732 -1.5960 -0.8754
   64GLOH    O2 9070   3.549   0.526   0.172  0.2717 -0.2202  0.2099
   64GLOH   H05 9071   3.505   0.610   0.149 -0.8918 -0.5954  1.0493
   64GLOH    C3 9072   3.682   0.414   0.360  0.1707 -0.0590 -0.7162
   64GLOH   H06 9073   3.758   0.366   0.298  0.1203 -0.0259 -0.8027
   64GLOH   H07 9074   3.610   0.333   0.370 -0.5888  0.5560 -1.1875
   64GLOH    O3 9075   3.731   0.435   0.496  0.9750 -0.1468  0.3198
   64GLOH   H01 9076   3.803   0.371   0.510  0.6620 -0.9796 -1.7236
   65GLOH   H03 9077   3.857   8.927   1.132  0.0894  1.7819  2.2189
   65GLOH    O1 9078   3.787   8.984   1.093 -0.1933  0.2834  0.4662
   65GLOH    C1 9079   3.747   9.090   1.181  0.1369 -0.0842 -0.5909
   65GLOH   H02 9080   3.673   9.062   1.256  1.4527 -0.0900  0.7296
   65GLOH   H08 9081   3.693   9.161   1.119 -0.8293 -0.0369  0.2903
   65GLOH    C2 9082   3.872   9.159   1.245  0.1385  0.0112  0.5800
   65GLOH   H04 9083   3.844   9.259   1.281 -0.5335 -0.0847  0.3384
   65GLOH    O2 9084   3.921   9.078   1.354  0.4099  0.4947 -0.0113
   65GLOH   H05 9085   3.996   9.125   1.393  0.0738  1.8523 -0.9695
   65GLOH    C3 9086   3.982   9.186   1.137  0.1494  0.3841  0.0915
   65GLOH   H06 9087   3.998   9.095   1.079  0.6124  0.0192  0.7860
   65GLOH   H07 9088   4.070   9.218   1.193 -0.2292  2.7328 -0.6221
   65GLOH    O3 9089   3.945   9.287   1.039  0.3757  0.2134 -0.2850
   65GLOH   H01 9090   3.873   9.343   1.074  0.1981 -0.3177  0.1975
   66GLOH   H03 9091   3.925   9.072   0.422 -1.7639  0.2391 -0.3870
   66GLOH    O1 9092   3.925   9.047   0.516 -0.3066  0.4966 -0.3004
   66GLOH    C1 9093   4.006   9.147   0.588  0.1632  0.1726 -0.3397
   66GLOH   H02 9094   3.976   9.244   0.548  1.7953  0.0734 -1.8556
   66GLOH   H08 9095   4.112   9.129   0.570 -0.6982 -4.0566 -1.6753
   66GLOH    C2 9096   3.979   9.148   0.734 -0.0426 -0.0145 -0.4098
   66GLOH   H04 9097   4.028   9.057   0.772  0.0233 -0.1593 -0.8350
   66GLOH    O2 9098   4.027   9.272   0.794 -0.0045 -0.0276  0.2948
   66GLOH   H05 9099   4.012   9.272   0.890 -2.3583  0.2776 -0.0500
   66GLOH    C3 9100   3.829   9.138   0.766  0.6636  0.3596 -0.2213
   66GLOH   H06 9101   3.789   9.231   0.728 -1.6446 -0.0962  0.9884
   66GLOH   H07 9102   3.813   9.127   0.874 -3.7624 -1.7184 -0.9659
   66GLOH    O3 9103   3.774   9.021   0.703 -0.7692  0.2695  0.1719
   66GLOH   H01 9104   3.820   9.013   0.617  0.4616  1.9194  0.6475
   67GLOH   H03 9105   3.608   1.348   2.069  0.2460  0.8376 -0.3978
   67GLOH    O1 9106   3.608   1.339   2.166  0.0796 -0.0331 -0.4766
   67GLOH    C1 9107   3.733   1.303   2.223  0.5082 -0.7151 -0.3618
   67GLOH   H02 9108   3.796   1.390   2.212  2.9695 -2.3016  0.8825
   67GLOH   H08 9109   3.779   1.226   2.161  0.8691 -1.1083  0.3906
   67GLOH    C2 9110   3.711   1.257   2.371 -0.1771  0.0632 -0.2901
   67GLOH   H04 9111   3.612   1.210   2.376 -0.0731 -0.0956  0.4163
   67GLOH    O2 9112   3.814   1.163   2.421 -0.1412 -0.8049 -0.5048
   67GLOH   H05 9113   3.884   1.219   2.458 -2.2625  1.0340  0.8626
   67GLOH    C3 9114   3.700   1.376   2.462  1.1525 -0.7379  0.1908
   67GLOH   H06 9115   3.644   1.444   2.399  1.7943 -0.1239  0.2792
   67GLOH   H07 9116   3.802   1.412   2.475  1.0466 -1.1969  2.5956
   67GLOH    O3 9117   3.631   1.349   2.585 -0.2088  0.3823  0.5559
   67GLOH   H01 9118   3.538   1.334   2.561  0.7269 -1.2106 -2.2301
   68GLOH   H03 9119   2.295  10.016   1.523  0.0893  0.7376  1.0954
   68GLOH    O1 9120   2.262  10.098   1.483 -0.0846  0.2330  0.1971
   68GLOH    C1 9121   2.272  10.094   1.342 -0.0473 -0.1171 -0.1277
   68GLOH   H02 9122   2.193  10.028   1.306  1.5865 -1.4701 -1.2950
   68GLOH   H08 9123   2.364  10.044   1.312  1.6818  2.3542  0.8967
   68GLOH    C2 9124   2.256  10.230   1.271  0.1991  0.6259 -0.0241
   68GLOH   H04 9125   2.344  10.291   1.297  0.3156  1.2652 -1.8508
   68GLOH    O2 9126   2.252  10.213   1.127  0.0911 -0.0970  0.0124
   68GLOH   H05 9127   2.243  10.294   1.075 -0.3717 -1.8841 -2.8217
   68GLOH    C3 9128   2.127  10.307   1.327 -0.0933 -0.4450  0.1582
   68GLOH   H06 9129   2.043  10.238   1.327 -0.2888 -0.2033  0.0518
   68GLOH   H07 9130   2.115  10.400   1.272  0.3451 -0.1173  0.6103
   68GLOH    O3 9131   2.159  10.326   1.465  0.1590 -0.1474  0.4029
   68GLOH   H01 9132   2.208  10.250   1.502  0.6362  0.1638  0.4275
   69GLOH   H03 9133   4.046   1.596   2.062  2.0300 -0.6507 -1.8529
   69GLOH    O1 9134   4.008   1.516   2.020 -0.6006 -0.4951  0.0676
   69GLOH    C1 9135   4.090   1.409   2.063  0.0788  0.4175  0.3633
   69GLOH   H02 9136   4.184   1.407   2.008  0.4698 -1.5308  1.0379
   69GLOH   H08 9137   4.039   1.313   2.050  1.7378 -0.2751 -1.3456
   69GLOH    C2 9138   4.127   1.423   2.214  1.1076 -0.0916 -0.1583
   69GLOH   H04 9139   4.034   1.458   2.260  1.1722  3.8989 -2.8847
   69GLOH    O2 9140   4.175   1.300   2.270 -0.3063  0.3892  0.3380
   69GLOH   H05 9141   4.162   1.227   2.207  0.1974  0.6420 -0.0615
   69GLOH    C3 9142   4.211   1.547   2.232  1.0960  0.2278  0.5265
   69GLOH   H06 9143   4.291   1.545   2.159 -0.8931  0.4869 -1.7211
   69GLOH   H07 9144   4.248   1.548   2.334 -0.8081 -4.0403  1.3799
   69GLOH    O3 9145   4.132   1.665   2.197  0.5306 -0.3019  0.3164
   69GLOH   H01 9146   4.075   1.693   2.271 -0.1434  0.5052 -0.4927
   70GLOH   H03 9147   3.580   9.334   0.582 -0.6050  1.3962 -0.1838
   70GLOH    O1 9148   3.499   9.285   0.557  0.4184 -0.2888 -0.1980
   70GLOH    C1 9149   3.530   9.168   0.486 -0.3188 -0.3853  0.2227
   70GLOH   H02 9150   3.600   9.109   0.546 -0.0528  0.8229  1.1251
   70GLOH   H08 9151   3.589   9.191   0.397 -0.9953  1.5691  0.2465
   70GLOH    C2 9152   3.421   9.072   0.449  0.7023  0.1470 -0.0004
   70GLOH   H04 9153   3.353   9.109   0.370  0.9810  0.9381  0.1315
   70GLOH    O2 9154   3.481   8.942   0.409  0.1681 -0.0173 -0.3003
   70GLOH   H05 9155   3.481   8.875   0.480 -3.4945 -0.8143 -0.9366
   70GLOH    C3 9156   3.327   9.050   0.569 -0.5705 -0.0700 -0.1102
   70GLOH   H06 9157   3.386   8.996   0.642  0.1276 -1.1526 -1.4546
   70GLOH   H07 9158   3.244   8.981   0.549  1.9471 -2.4686 -2.7885
   70GLOH    O3 9159   3.285   9.170   0.637  0.5331  0.0114 -0.0613
   70GLOH   H01 9160   3.362   9.230   0.646 -1.5547  2.5176  1.9685
   71GLOH   H03 9161   3.931   0.387   2.341  4.1690  0.3967 -1.6019
   71GLOH    O1 9162   3.883   0.436   2.272  0.4792 -0.1025  0.4380
   71GLOH    C1 9163   3.816   0.350   2.180  0.1951 -0.0659  0.6297
   71GLOH   H02 9164   3.720   0.384   2.141  0.6256 -0.4905 -0.8500
   71GLOH   H08 9165   3.799   0.257   2.235 -1.9280 -1.4262 -2.1674
   71GLOH    C2 9166   3.903   0.301   2.061 -0.1874 -0.3397 -0.5239
   71GLOH   H04 9167   3.994   0.262   2.108 -0.4964  0.0254  0.3888
   71GLOH    O2 9168   3.840   0.189   1.992 -0.1897  0.3656  0.1288
   71GLOH   H05 9169   3.897   0.154   1.922  2.0744  4.0658 -0.0140
   71GLOH    C3 9170   3.933   0.426   1.972  0.4974 -0.6631 -0.6430
   71GLOH   H06 9171   3.992   0.391   1.887 -0.4857 -1.8719 -0.8410
   71GLOH   H07 9172   3.994   0.501   2.022 -0.4201  1.0582 -2.0480
   71GLOH    O3 9173   3.808   0.498   1.937 -0.0191  0.7912  0.0206
   71GLOH   H01 9174   3.752   0.447   1.875 -3.2663  1.0110  2.6001
   72GLOH   H03 9175   3.519   8.992   0.261 -1.6028  1.9653  1.0210
   72GLOH    O1 9176   3.518   9.019   0.168  0.4024 -0.0609  0.3714
   72GLOH    C1 9177   3.398   8.964   0.113 -0.2458 -0.0460 -0.3048
   72GLOH   H02 9178   3.307   9.014   0.148  2.3956  3.1624  2.2878
   72GLOH   H08 9179   3.391   8.860   0.144 -0.0362  0.3190  1.0178
   72GLOH    C2 9180   3.401   8.981  -0.041  0.2643  0.0776  0.3086
   72GLOH   H04 9181   3.502   8.955  -0.078 -0.5136 -0.1633 -1.7294
   72GLOH    O2 9182   3.296   8.912  -0.110  0.0879  0.0719  0.0101
   72GLOH   H05 9183   3.218   8.918  -0.053 -0.5053  1.7927 -0.9587
   72GLOH    C3 9184   3.385   9.130  -0.070 -0.9127  0.2510  0.4163
   72GLOH   H06 9185   3.401   9.145  -0.177  0.0681  0.5702  0.6051
   72GLOH   H07 9186   3.457   9.200  -0.029 -0.3769 -0.7922  1.2901
   72GLOH    O3 9187   3.256   9.185  -0.042  0.8226 -0.5951 -0.3450
   72GLOH   H01 9188   3.247   9.194   0.055 -0.0410  1.4008 -0.5882
   73GLOH   H03 9189   3.582   1.711   0.144 -1.3648  0.2012  0.7240
   73GLOH    O1 9190   3.570   1.770   0.068  0.5526 -0.2184  0.0638
   73GLOH    C1 9191   3.683   1.789  -0.015  0.0027 -0.1164  0.1325
   73GLOH   H02 9192   3.771   1.805   0.049  0.4503 -0.8545 -0.2923
   73GLOH   H08 9193   3.675   1.880  -0.074 -1.9644  0.4948  1.2919
   73GLOH    C2 9194   3.714   1.665  -0.102 -0.5721  0.8736 -0.0298
   73GLOH   H04 9195   3.626   1.599  -0.093 -1.0952  1.4878 -0.6306
   73GLOH    O2 9196   3.737   1.690  -0.244  0.0793  0.1735 -0.1583
   73GLOH   H05 9197   3.662   1.737  -0.285 -1.1437 -1.9836 -0.4517
   73GLOH    C3 9198   3.836   1.594  -0.040 -0.3549 -0.7103 -0.3959
   73GLOH   H06 9199   3.920   1.663  -0.046 -2.0506  1.3085 -1.9866
   73GLOH   H07 9200   3.862   1.511  -0.105 -1.5418 -1.4163  0.0120
   73GLOH    O3 9201   3.822   1.548   0.092  0.6337  0.1722 -0.1335
   73GLOH   H01 9202   3.800   1.454   0.098  1.1397 -0.0929 -1.9942
   74GLOH   H03 9203   3.670   8.693   1.348  0.6373 -1.0116  0.8376
   74GLOH    O1 9204   3.731   8.767   1.366 -0.4477  0.1091 -0.0031
   74GLOH    C1 9205   3.699   8.838   1.489 -0.1135  0.2774  0.1454
   74GLOH   H02 9206   3.626   8.914   1.461  0.3473  0.7686  0.2683
   74GLOH   H08 9207   3.789   8.888   1.526  0.7611 -0.9664 -0.2518
   74GLOH    C2 9208   3.633   8.754   1.596 -0.7737  0.0367 -0.4383
   74GLOH   H04 9209   3.697   8.668   1.621 -0.2906  0.3656 -0.5275
   74GLOH    O2 9210   3.612   8.830   1.718 -0.5563 -0.1873  0.4200
   74GLOH   H05 9211   3.703   8.836   1.752 -0.1077  0.0461 -0.8138
   74GLOH    C3 9212   3.501   8.704   1.535 -0.4207 -0.1935 -0.8231
   74GLOH   H06 9213   3.447   8.796   1.511  1.2502  1.6182  1.9683
   74GLOH   H07 9214   3.450   8.652   1.616  0.5237 -0.8185 -0.6320
   74GLOH    O3 9215   3.524   8.629   1.416 -0.3378  0.4645  0.4420
   74GLOH   H01 9216   3.451   8.637   1.352  0.3851 -1.8967 -0.7179
   75GLOH   H03 9217   3.766   0.556   2.240  0.8719 -0.1467  1.0434
   75GLOH    O1 9218   3.682   0.605   2.253  0.2619 -0.7883 -0.3725
   75GLOH    C1 9219   3.653   0.584   2.392 -0.0385 -0.0011  0.2870
   75GLOH   H02 9220   3.580   0.660   2.420 -1.6252 -1.5397  0.3679
   75GLOH   H08 9221   3.740   0.600   2.455  0.2489 -0.7215  0.0803
   75GLOH    C2 9222   3.588   0.453   2.437 -0.0368 -0.4572  0.0950
   75GLOH   H04 9223   3.662   0.374   2.417 -0.5292 -0.2938 -2.5284
   75GLOH    O2 9224   3.574   0.461   2.580 -0.3921 -0.0736 -0.2000
   75GLOH   H05 9225   3.549   0.375   2.617 -0.6022 -0.3359 -0.9466
   75GLOH    C3 9226   3.457   0.426   2.364  0.2743  0.0356 -0.3511
   75GLOH   H06 9227   3.375   0.475   2.417  1.1684 -0.6335  1.6748
   75GLOH   H07 9228   3.431   0.320   2.361  0.6931 -0.0232 -2.9997
   75GLOH    O3 9229   3.456   0.481   2.233 -0.4271 -0.3551 -0.1716
   75GLOH   H01 9230   3.535   0.538   2.227 -0.3297 -0.3778  0.7448
   76GLOH   H03 9231   4.192   1.652   0.588 -0.8587 -3.1640 -1.1429
   76GLOH    O1 9232   4.111   1.685   0.543  0.2106  0.1723 -0.7809
   76GLOH    C1 9233   4.121   1.625   0.416 -0.0073  0.0242 -0.5713
   76GLOH   H02 9234   4.215   1.571   0.404  0.2118  0.6831 -1.8725
   76GLOH   H08 9235   4.122   1.701   0.338 -2.2495  0.4183 -0.2460
   76GLOH    C2 9236   4.010   1.523   0.385  0.2688 -0.0803 -0.4643
   76GLOH   H04 9237   4.013   1.483   0.283  1.5824 -1.7173  0.1896
   76GLOH    O2 9238   4.009   1.423   0.482  0.2947 -0.1374 -0.0695
   76GLOH   H05 9239   3.958   1.449   0.560 -1.1232 -0.2239 -0.9383
   76GLOH    C3 9240   3.881   1.607   0.388 -0.0049  0.2263  0.0485
   76GLOH   H06 9241   3.886   1.653   0.486  3.1903  1.9360 -0.8472
   76GLOH   H07 9242   3.790   1.547   0.389 -0.0569  0.3204  1.0109
   76GLOH    O3 9243   3.869   1.705   0.283 -0.1529  0.2614 -0.6023
   76GLOH   H01 9244   3.856   1.662   0.196  1.4217 -0.4563 -0.5081
   77GLOH   H03 9245   4.259   0.562   2.679 -0.4475  1.6358 -0.1199
   77GLOH    O1 9246   4.336   0.587   2.624 -0.0810  0.8233  0.0223
   77GLOH    C1 9247   4.356   0.729   2.638  0.6919 -0.1300  1.0143
   77GLOH   H02 9248   4.265   0.775   2.600  0.3021 -1.4224  0.3519
   77GLOH   H08 9249   4.437   0.765   2.575 -0.3539  0.1776 -0.1693
   77GLOH    C2 9250   4.375   0.781   2.782  0.5159 -0.3814 -0.1604
   77GLOH   H04 9251   4.304   0.724   2.843  1.8458 -0.2787  1.5053
   77GLOH    O2 9252   4.504   0.748   2.837 -0.5223  0.1059 -0.5107
   77GLOH   H05 9253   4.513   0.800   2.919  1.2851  3.7118 -2.8703
   77GLOH    C3 9254   4.348   0.931   2.806 -0.2793  0.2667 -0.6355
   77GLOH   H06 9255   4.402   0.984   2.727 -1.5803  1.9560 -0.4072
   77GLOH   H07 9256   4.387   0.958   2.904 -1.4114 -1.1642  0.2243
   77GLOH    O3 9257   4.211   0.960   2.786 -0.9783  0.2896 -0.0094
   77GLOH   H01 9258   4.201   1.054   2.812  0.3411  0.4978 -0.2265
   78GLOH   H03 9259   2.935   0.679   1.770  0.4067  0.5138  0.2656
   78GLOH    O1 9260   2.958   0.764   1.728  0.3254  0.5629  0.3187
   78GLOH    C1 9261   2.914   0.877   1.804 -0.0369  0.0280 -0.4721
   78GLOH   H02 9262   2.910   0.859   1.912  0.9011  1.0056 -0.2643
   78GLOH   H08 9263   2.816   0.910   1.770 -0.1050 -0.3662 -0.6527
   78GLOH    C2 9264   3.014   0.990   1.782 -0.6602  0.0466  0.0185
   78GLOH   H04 9265   3.021   1.016   1.676 -0.6743 -1.0995 -0.2683
   78GLOH    O2 9266   2.969   1.112   1.848 -0.1120  0.2037 -0.0692
   78GLOH   H05 9267   2.872   1.110   1.857 -0.1640 -0.4400 -0.7121
   78GLOH    C3 9268   3.152   0.960   1.842 -0.2222 -0.9350 -0.1329
   78GLOH   H06 9269   3.191   0.867   1.801  1.9781  0.4942 -1.3977
   78GLOH   H07 9270   3.135   0.937   1.947  0.2262  1.5261  0.4989
   78GLOH    O3 9271   3.257   1.059   1.826 -0.5565  0.7913 -0.3798
   78GLOH   H01 9272   3.217   1.144   1.854 -0.4445  1.6005 -2.5486
   79GLOH   H03 9273   4.144   9.770   0.170 -0.1653  0.6089  0.3964
   79GLOH    O1 9274   4.170   9.863   0.181 -0.3750  0.8400 -0.9850
   79GLOH    C1 9275   4.260   9.893   0.074  0.0375  0.6915 -0.1216
   79GLOH   H02 9276   4.320   9.807   0.043 -2.3650  0.2212 -3.7685
   79GLOH   H08 9277   4.324   9.974   0.109 -0.5769  1.3371 -0.4772
   79GLOH    C2 9278   4.192   9.941  -0.054 -0.0722  0.1985 -0.9530
   79GLOH   H04 9279   4.124  10.022  -0.024  2.0859  1.6274  0.2593
   79GLOH    O2 9280   4.277   9.994  -0.152  0.1581  0.4102  0.0827
   79GLOH   H05 9281   4.325  10.074  -0.126  0.0661  1.0365 -1.5777
   79GLOH    C3 9282   4.109   9.828  -0.114 -0.2376  0.8121  0.0268
   79GLOH   H06 9283   4.046   9.783  -0.036 -0.4918 -0.3232 -0.8306
   79GLOH   H07 9284   4.183   9.753  -0.142 -2.0045 -0.2797 -1.8567
   79GLOH    O3 9285   4.023   9.855  -0.232  0.3141 -0.6802  0.1940
   79GLOH   H01 9286   4.060   9.866  -0.322  1.4316  0.6745  0.8007
   80GLOH   H03 9287   3.669   9.056   0.135 -0.4944  0.5530 -1.9726
   80GLOH    O1 9288   3.759   9.086   0.115  0.0637  0.0026 -0.3445
   80GLOH    C1 9289   3.769   9.097  -0.030 -0.1331  0.7306 -0.0687
   80GLOH   H02 9290   3.839   9.172  -0.066  0.7583  0.0177  0.1264
   80GLOH   H08 9291   3.676   9.132  -0.073  0.3747 -1.5808 -3.2542
   80GLOH    C2 9292   3.811   8.961  -0.100 -0.2249  0.4017  0.4363
   80GLOH   H04 9293   3.742   8.882  -0.065  0.3459  0.3536  1.4802
   80GLOH    O2 9294   3.820   8.969  -0.246  0.4443 -0.2048  0.5502
   80GLOH   H05 9295   3.777   9.051  -0.274 -2.5170 -2.5380 -2.1816
   80GLOH    C3 9296   3.947   8.913  -0.045  0.2264 -0.1008  0.0093
   80GLOH   H06 9297   3.985   8.834  -0.110  0.0942  0.0727 -0.2797
   80GLOH   H07 9298   3.932   8.871   0.054 -0.2500 -0.4840 -0.2236
   80GLOH    O3 9299   4.047   9.016  -0.038  0.2258 -0.6187 -0.0766
   80GLOH   H01 9300   4.011   9.107  -0.046  0.0587 -0.7167 -0.4338
   81GLOH   H03 9301   2.869   0.697   0.913  0.3279  1.3103  0.1570
   81GLOH    O1 9302   2.905   0.691   1.003 -0.0505 -0.8440  0.1819
   81GLOH    C1 9303   2.945   0.559   1.027 -0.4734  0.0433  0.1142
   81GLOH   H02 9304   2.990   0.552   1.126  1.9519 -0.8118 -1.0119
   81GLOH   H08 9305   3.028   0.538   0.959 -1.1988  1.6513 -1.2809
   81GLOH    C2 9306   2.832   0.453   1.015 -0.0698  0.0989 -0.2624
   81GLOH   H04 9307   2.805   0.442   0.909 -0.0553  3.5844 -0.7133
   81GLOH    O2 9308   2.868   0.323   1.073 -1.0002 -0.1415 -0.3613
   81GLOH   H05 9309   2.894   0.351   1.163  1.4887 -2.7027 -0.2118
   81GLOH    C3 9310   2.705   0.509   1.078  0.0993 -0.6007 -0.4830
   81GLOH   H06 9311   2.679   0.599   1.022 -0.4076  0.3627  1.2772
   81GLOH   H07 9312   2.727   0.524   1.184 -0.2970 -1.2984 -0.3032
   81GLOH    O3 9313   2.590   0.419   1.067  0.0686  0.1812 -0.2549
   81GLOH   H01 9314   2.507   0.469   1.057 -0.4210 -0.8791 -1.5338
   82GLOH   H03 9315   3.040   9.192   1.954 -2.8788 -2.4952  1.2225
   82GLOH    O1 9316   3.092   9.124   1.906 -0.0929  0.1829  0.2772
   82GLOH    C1 9317   3.235   9.145   1.919  0.0960  0.2971  0.7742
   82GLOH   H02 9318   3.272   9.136   2.021  0.0796 -0.0271  0.7531
   82GLOH   H08 9319   3.255   9.248   1.890  0.6839  0.6497  2.4173
   82GLOH    C2 9320   3.322   9.056   1.833  0.6331 -1.2304  0.1604
   82GLOH   H04 9321   3.321   9.092   1.729  1.8167 -0.9513  0.2378
   82GLOH    O2 9322   3.461   9.056   1.868  0.0022 -0.1320  0.1243
   82GLOH   H05 9323   3.481   9.151   1.874 -0.1331 -0.2041  1.9551
   82GLOH    C3 9324   3.266   8.916   1.842  0.3645  0.3696 -0.1977
   82GLOH   H06 9325   3.158   8.906   1.843  0.2278  0.4299 -4.6356
   82GLOH   H07 9326   3.304   8.869   1.933  0.4855  1.2440  0.2109
   82GLOH    O3 9327   3.319   8.835   1.737 -0.2097 -0.3474 -0.2550
   82GLOH   H01 9328   3.417   8.837   1.738 -0.2270  0.4412  1.9711
   83GLOH   H03 9329   3.936   0.840   2.288 -2.5412 -0.9130 -1.2236
   83GLOH    O1 9330   3.978   0.872   2.206 -0.5148  0.2147  0.2147
   83GLOH    C1 9331   4.047   0.766   2.133  0.3663  0.7193 -0.3419
   83GLOH   H02 9332   4.055   0.777   2.025 -0.1255  0.5508 -0.3941
   83GLOH   H08 9333   3.994   0.671   2.144 -0.6387  1.4639  1.3327
   83GLOH    C2 9334   4.190   0.723   2.185 -0.5803 -0.3348  0.2538
   83GLOH   H04 9335   4.221   0.629   2.137  1.4943  0.6035 -0.2836
   83GLOH    O2 9336   4.303   0.810   2.146 -0.3237  1.0006 -0.1133
   83GLOH   H05 9337   4.332   0.773   2.061 -1.1659 -2.3010  0.9749
   83GLOH    C3 9338   4.203   0.696   2.335  1.1510  0.4306 -0.1833
   83GLOH   H06 9339   4.177   0.792   2.381 -2.1097 -0.4141 -0.1197
   83GLOH   H07 9340   4.308   0.681   2.359  1.0577 -3.4767 -1.8206
   83GLOH    O3 9341   4.114   0.587   2.372 -0.5843 -0.5575 -0.1428
   83GLOH   H01 9342   4.031   0.620   2.412  0.4057 -0.3786  1.8437
   84GLOH   H03 9343   3.294   0.959   1.338 -0.8648 -1.1609 -0.0712
   84GLOH    O1 9344   3.314   0.888   1.402 -0.0512 -0.6894  0.2169
   84GLOH    C1 9345   3.195   0.808   1.443  0.0131 -0.3351 -0.1178
   84GLOH   H02 9346   3.126   0.873   1.498  1.4383  1.8058 -0.8295
   84GLOH   H08 9347   3.228   0.728   1.509 -2.0843 -1.2431 -0.1064
   84GLOH    C2 9348   3.105   0.758   1.332 -0.7240  0.2745  0.1242
   84GLOH   H04 9349   3.064   0.842   1.275 -1.0039 -0.6340 -1.0487
   84GLOH    O2 9350   3.174   0.675   1.235 -0.0458 -0.0115  0.3045
   84GLOH   H05 9351   3.232   0.721   1.172  2.1477 -0.4293  1.9497
   84GLOH    C3 9352   2.980   0.695   1.398 -0.1005 -0.0466  0.3788
   84GLOH   H06 9353   3.012   0.621   1.472  2.0073  0.0943 -0.3587
   84GLOH   H07 9354   2.922   0.638   1.326  3.0592  0.4327 -2.6530
   84GLOH    O3 9355   2.903   0.790   1.474 -0.0641 -0.4222 -0.6651
   84GLOH   H01 9356   2.934   0.779   1.566 -0.7141  2.7229 -0.0086
   85GLOH   H03 9357   4.711   0.187   0.908  0.2103 -1.3879  0.3807
   85GLOH    O1 9358   4.653   0.116   0.877 -0.6490 -0.2898 -0.5607
   85GLOH    C1 9359   4.568   0.167   0.773  0.1095 -1.0494  0.3756
   85GLOH   H02 9360   4.601   0.139   0.673  0.1786  0.3272  0.0042
   85GLOH   H08 9361   4.555   0.275   0.779 -1.2657 -1.1842  0.0451
   85GLOH    C2 9362   4.425   0.109   0.791  0.4985  0.5721  0.5202
   85GLOH   H04 9363   4.392   0.128   0.894  0.8828 -1.0233  0.9500
   85GLOH    O2 9364   4.337   0.161   0.693 -0.2810 -0.1603  0.2141
   85GLOH   H05 9365   4.390   0.211   0.628 -0.0219  0.3025  0.7743
   85GLOH    C3 9366   4.433  -0.039   0.767  0.1121 -0.0864 -1.0327
   85GLOH   H06 9367   4.468  -0.074   0.670  0.6982  1.6775 -1.4621
   85GLOH   H07 9368   4.331  -0.076   0.753 -0.0532  0.6141 -1.7013
   85GLOH    O3 9369   4.513  -0.096   0.874  0.1127  0.1531  0.5857
   85GLOH   H01 9370   4.590  -0.038   0.889 -2.4515  3.5234  1.4484
   86GLOH   H03 9371   4.227   0.280   0.188  1.3888  3.4213  1.9541
   86GLOH    O1 9372   4.143   0.318   0.157  0.0763 -0.0535  0.9742
   86GLOH    C1 9373   4.070   0.363   0.272 -0.3542  0.3330 -0.6199
   86GLOH   H02 9374   3.967   0.397   0.256 -0.2624  1.1509  0.4891
   86GLOH   H08 9375   4.123   0.446   0.318  2.3345 -1.7714  0.1526
   86GLOH    C2 9376   4.050   0.248   0.375 -0.2767 -0.1934  0.5934
   86GLOH   H04 9377   4.151   0.210   0.396 -0.2206 -0.1632  0.3725
   86GLOH    O2 9378   3.995   0.300   0.496  0.5219  0.3551 -0.1473
   86GLOH   H05 9379   3.998   0.234   0.567 -3.2884 -3.6936 -3.4740
   86GLOH    C3 9380   3.970   0.130   0.312 -0.6780 -0.4518  0.4026
   86GLOH   H06 9381   3.982   0.037   0.367  1.9361 -1.6348 -2.0074
   86GLOH   H07 9382   4.021   0.115   0.216  1.2409  1.4367  1.0656
   86GLOH    O3 9383   3.829   0.156   0.296  0.6347  0.2298  0.2154
   86GLOH   H01 9384   3.811   0.163   0.201  3.1299  1.0514 -0.2462
   87GLOH   H03 9385   2.533   9.773   2.634  0.0093 -1.1161 -0.2810
   87GLOH    O1 9386   2.617   9.743   2.595  0.3716  0.0077 -0.3611
   87GLOH    C1 9387   2.718   9.829   2.645  0.2553 -0.3928 -0.4768
   87GLOH   H02 9388   2.815   9.786   2.620  0.6971 -0.9972  2.1290
   87GLOH   H08 9389   2.728   9.836   2.753  0.9733 -1.9204 -0.4259
   87GLOH    C2 9390   2.721   9.974   2.602  0.0195 -0.1861  0.1473
   87GLOH   H04 9391   2.615  10.006   2.603  0.0176 -0.2319  1.2100
   87GLOH    O2 9392   2.802  10.055   2.689 -0.1255 -0.0514  0.3349
   87GLOH   H05 9393   2.780  10.047   2.783  0.6241  2.1601  0.7119
   87GLOH    C3 9394   2.761   9.976   2.457  0.5832 -0.2333 -0.5069
   87GLOH   H06 9395   2.759  10.082   2.433 -0.2977  0.1615  1.2551
   87GLOH   H07 9396   2.692   9.931   2.386  1.5569 -0.0790 -1.5787
   87GLOH    O3 9397   2.894   9.921   2.434 -0.5843 -0.1466 -0.0144
   87GLOH   H01 9398   2.955   9.976   2.487  0.8323 -1.5993 -0.0938
   88GLOH   H03 9399   3.091   0.985   0.663  2.6074  0.6437  0.0958
   88GLOH    O1 9400   3.100   1.041   0.742  0.7956  0.4120  0.4889
   88GLOH    C1 9401   3.062   0.952   0.849  0.1513  0.0845  0.1106
   88GLOH   H02 9402   3.123   0.861   0.842 -0.5252 -0.3902  0.2852
   88GLOH   H08 9403   2.959   0.917   0.837 -0.4774  2.2874 -1.0724
   88GLOH    C2 9404   3.081   0.994   0.994  0.2823 -0.1909  0.3610
   88GLOH   H04 9405   3.050   0.914   1.064 -2.8128  1.2278  0.6944
   88GLOH    O2 9406   3.221   1.017   1.023 -0.7370  0.1468  0.3433
   88GLOH   H05 9407   3.269   1.064   0.953  1.0556 -0.8725  0.8613
   88GLOH    C3 9408   2.999   1.119   1.050 -0.2584  0.4891  0.0797
   88GLOH   H06 9409   3.024   1.205   0.989  1.9361 -0.7294 -0.7980
   88GLOH   H07 9410   3.040   1.135   1.149  0.8849 -0.1523 -0.2840
   88GLOH    O3 9411   2.858   1.097   1.049  0.7618 -0.0261  0.0153
   88GLOH   H01 9412   2.843   1.014   1.098  3.3786  0.1607  1.2296
   89GLOH   H03 9413   3.926   8.790   1.664  1.5286  1.1843  0.0848
   89GLOH    O1 9414   3.881   8.827   1.742 -0.3696 -0.5879 -0.1047
   89GLOH    C1 9415   3.977   8.928   1.784  0.0110 -1.2405  0.2969
   89GLOH   H02 9416   3.942   9.008   1.850 -0.5960 -0.6183 -0.7561
   89GLOH   H08 9417   4.011   8.986   1.698 -2.6342 -1.3054 -0.8330
   89GLOH    C2 9418   4.094   8.865   1.866  0.0620  0.6848 -0.1884
   89GLOH   H04 9419   4.144   8.796   1.796 -2.4321  0.1482 -1.5134
   89GLOH    O2 9420   4.177   8.968   1.913  0.5927 -0.1876  0.2463
   89GLOH   H05 9421   4.161   8.997   2.005  1.7561 -2.8960  1.3580
   89GLOH    C3 9422   4.036   8.778   1.984 -0.3927  0.2310 -1.0607
   89GLOH   H06 9423   3.994   8.817   2.076  0.0797  1.2324 -1.2661
   89GLOH   H07 9424   4.124   8.729   2.027 -1.0750  1.4535  1.7728
   89GLOH    O3 9425   3.944   8.684   1.932 -0.7104 -0.5096 -0.3723
   89GLOH   H01 9426   3.915   8.717   1.845  0.9136 -1.7962 -1.4223
   90GLOH   H03 9427   3.104   1.540   2.192 -0.2216  1.2084 -0.7060
   90GLOH    O1 9428   3.078   1.634   2.193 -0.1154  1.2376  0.1319
   90GLOH    C1 9429   3.188   1.724   2.221  1.0082 -0.4828  0.5380
   90GLOH   H02 9430   3.140   1.821   2.212 -0.0231 -0.8464  1.8966
   90GLOH   H08 9431   3.260   1.732   2.140 -1.1641 -0.0515 -1.3955
   90GLOH    C2 9432   3.242   1.716   2.361 -0.1224  0.4374  0.6024
   90GLOH   H04 9433   3.294   1.620   2.364  0.5390  0.7713 -0.1973
   90GLOH    O2 9434   3.337   1.822   2.390  0.3288  0.0778 -0.1293
   90GLOH   H05 9435   3.345   1.815   2.486 -0.1969 -0.5998 -0.1267
   90GLOH    C3 9436   3.134   1.724   2.469  0.3236  0.6897 -0.1077
   90GLOH   H06 9437   3.086   1.821   2.485 -2.6756 -0.3475 -2.3267
   90GLOH   H07 9438   3.180   1.705   2.566  2.6424 -1.6423 -1.6113
   90GLOH    O3 9439   3.029   1.629   2.455 -0.3159  0.2623  0.3869
   90GLOH   H01 9440   3.023   1.620   2.359 -1.3650 -0.6312  0.5234
   91GLOH   H03 9441   4.310   0.853   0.767 -1.3461 -0.8111 -1.2976
   91GLOH    O1 9442   4.233   0.913   0.778 -0.1563  0.4993  0.1201
   91GLOH    C1 9443   4.156   0.845   0.883 -0.1211 -0.1231  0.6145
   91GLOH   H02 9444   4.197   0.860   0.983  2.4333  2.1208 -0.7034
   91GLOH   H08 9445   4.154   0.737   0.866  2.2702 -0.2707  1.1046
   91GLOH    C2 9446   4.013   0.892   0.871  0.5351  1.1139 -0.4330
   91GLOH   H04 9447   3.954   0.858   0.957 -0.1405  1.7086 -0.6559
   91GLOH    O2 9448   3.993   1.034   0.885 -0.9686 -0.0520  0.5043
   91GLOH   H05 9449   4.032   1.086   0.813 -1.3026 -0.1132  0.2783
   91GLOH    C3 9450   3.938   0.830   0.754 -0.2508 -0.2197 -0.5300
   91GLOH   H06 9451   3.996   0.864   0.668  1.6959  0.7050  1.1036
   91GLOH   H07 9452   3.838   0.874   0.751  0.3405  1.1225 -1.5787
   91GLOH    O3 9453   3.935   0.683   0.753 -0.3797 -0.0060 -0.1021
   91GLOH   H01 9454   4.000   0.654   0.688  0.1528 -2.3605  1.3972
   92GLOH   H03 9455   3.984   9.316   2.435 -0.4880  1.1448 -0.1957
   92GLOH    O1 9456   3.935   9.339   2.516 -0.3618 -0.5980  0.3940
   92GLOH    C1 9457   3.909   9.478   2.517  0.0466  0.1488  0.2021
   92GLOH   H02 9458   3.866   9.511   2.422  1.7053  0.1976 -0.5649
   92GLOH   H08 9459   4.008   9.525   2.518 -0.4573  1.2351 -0.1276
   92GLOH    C2 9460   3.825   9.511   2.635  0.5882  0.4178 -0.4637
   92GLOH   H04 9461   3.743   9.438   2.643  0.2780  0.9223  1.3613
   92GLOH    O2 9462   3.895   9.507   2.761 -0.2178  0.3013 -0.3799
   92GLOH   H05 9463   3.831   9.536   2.828 -1.0397  2.6666 -2.1020
   92GLOH    C3 9464   3.751   9.643   2.613 -0.7260  0.0667  0.4339
   92GLOH   H06 9465   3.815   9.725   2.580 -1.0754  0.8087  1.5782
   92GLOH   H07 9466   3.709   9.678   2.707 -0.2889  0.4905  0.4723
   92GLOH    O3 9467   3.647   9.620   2.515  0.1945  0.3939 -0.0848
   92GLOH   H01 9468   3.670   9.643   2.424 -0.7184 -0.7771 -0.6300
   93GLOH   H03 9469   3.063   9.377   2.418 -0.4934  1.3397  0.5352
   93GLOH    O1 9470   2.979   9.415   2.387 -0.5272  0.7408 -0.1315
   93GLOH    C1 9471   2.890   9.300   2.384  0.0584 -0.3191 -0.3453
   93GLOH   H02 9472   2.880   9.260   2.485  1.3403 -0.1842 -0.1581
   93GLOH   H08 9473   2.935   9.221   2.324  1.2605  0.7885 -0.9256
   93GLOH    C2 9474   2.747   9.324   2.325  0.4290 -0.7092 -1.4725
   93GLOH   H04 9475   2.703   9.412   2.374 -1.4700 -1.9890 -0.8547
   93GLOH    O2 9476   2.755   9.347   2.191  0.3401  0.3652  0.4382
   93GLOH   H05 9477   2.693   9.418   2.167  1.2408  0.3282 -2.1228
   93GLOH    C3 9478   2.663   9.196   2.347  0.4062  0.1507 -0.0155
   93GLOH   H06 9479   2.563   9.214   2.306 -0.2261 -0.0226  1.4402
   93GLOH   H07 9480   2.656   9.185   2.455 -0.4508 -1.5941 -0.2262
   93GLOH    O3 9481   2.730   9.080   2.310 -0.0651 -0.3773 -0.0072
   93GLOH   H01 9482   2.705   9.075   2.216 -0.9089 -0.6343  0.2332
   94GLOH   H03 9483   3.376   1.046   2.349 -2.0300 -1.6567 -2.2269
   94GLOH    O1 9484   3.304   1.105   2.378  0.4376  0.2401  0.3513
   94GLOH    C1 9485   3.298   1.217   2.289  0.5070  0.1612  0.6972
   94GLOH   H02 9486   3.317   1.176   2.189 -3.1809  0.8289 -0.3536
   94GLOH   H08 9487   3.378   1.286   2.312 -0.9276  1.6134  1.3951
   94GLOH    C2 9488   3.159   1.274   2.287  0.0885 -0.0465 -0.6777
   94GLOH   H04 9489   3.128   1.321   2.382 -0.2958 -1.9635  0.1627
   94GLOH    O2 9490   3.152   1.387   2.198  0.5470  0.2618  0.3483
   94GLOH   H05 9491   3.240   1.406   2.161 -0.2201  3.6367  0.1716
   94GLOH    C3 9492   3.052   1.165   2.260 -0.4006  0.0705  0.2097
   94GLOH   H06 9493   3.092   1.119   2.170 -1.7413  0.0835 -0.3880
   94GLOH   H07 9494   2.957   1.214   2.242 -0.2945 -0.1424 -0.9501
   94GLOH    O3 9495   3.041   1.080   2.382  0.0037  0.7765  0.2653
   94GLOH   H01 9496   3.125   1.080   2.432  0.8417 -0.3254 -1.1144
   95GLOH   H03 9497   3.339   1.118   0.299  1.0294  1.9195 -1.4839
   95GLOH    O1 9498   3.415   1.059   0.283  0.3523  0.5504  0.2043
   95GLOH    C1 9499   3.376   0.923   0.249  0.1201 -0.4282  0.2325
   95GLOH   H02 9500   3.268   0.917   0.235  0.1131 -1.5698  0.7088
   95GLOH   H08 9501   3.398   0.849   0.326  0.4913 -1.6419 -1.0259
   95GLOH    C2 9502   3.431   0.886   0.109 -0.1421  0.1364  0.1446
   95GLOH   H04 9503   3.534   0.924   0.107  0.2571 -0.8458  1.4657
   95GLOH    O2 9504   3.428   0.738   0.098  0.1747 -0.0982 -1.2055
   95GLOH   H05 9505   3.403   0.705   0.010  0.0670 -1.2107 -0.7679
   95GLOH    C3 9506   3.362   0.946  -0.015  0.5175 -0.0043 -0.0300
   95GLOH   H06 9507   3.391   0.898  -0.108  1.6667 -1.0968  0.8794
   95GLOH   H07 9508   3.400   1.048  -0.017  1.8682 -0.5178 -2.4643
   95GLOH    O3 9509   3.222   0.950   0.000  0.0009  0.2213 -0.5266
   95GLOH   H01 9510   3.193   1.040  -0.024  0.6202  0.5788  0.0451
   96GLOH   H03 9511   2.547   9.407   1.290  0.6552 -0.5622  1.1026
   96GLOH    O1 9512   2.467   9.411   1.345  0.1416 -0.2736  0.3402
   96GLOH    C1 9513   2.508   9.410   1.482  0.2086 -0.0120  0.1844
   96GLOH   H02 9514   2.458   9.333   1.541  1.5458  1.6206  3.5605
   96GLOH   H08 9515   2.469   9.498   1.532 -0.1300  0.4157 -0.8150
   96GLOH    C2 9516   2.661   9.383   1.504 -0.1252 -0.0433  0.0639
   96GLOH   H04 9517   2.705   9.482   1.482 -1.4011  0.9605  1.9520
   96GLOH    O2 9518   2.688   9.338   1.640 -0.9612  0.6417  0.1472
   96GLOH   H05 9519   2.662   9.419   1.688 -1.5306 -0.3173  1.4713
   96GLOH    C3 9520   2.717   9.280   1.400 -0.9072  0.0796  0.0474
   96GLOH   H06 9521   2.650   9.194   1.400 -2.3452  1.1474  3.5323
   96GLOH   H07 9522   2.815   9.244   1.432  0.4793  2.4755 -1.3360
   96GLOH    O3 9523   2.713   9.337   1.264  0.5257 -0.4380  0.1004
   96GLOH   H01 9524   2.761   9.279   1.203 -1.5904 -1.9934 -0.1502
   97GLOH   H03 9525   3.143  10.063   0.614  0.0818  0.9601  0.1548
   97GLOH    O1 9526   3.103   9.997   0.554 -0.0390  0.7977  0.4150
   97GLOH    C1 9527   2.975  10.036   0.513  0.2130 -0.2033  1.2296
   97GLOH   H02 9528   2.946   9.991   0.418  0.3261  1.8844  0.1737
   97GLOH   H08 9529   2.969  10.144   0.497  2.9360 -0.3126 -0.9151
   97GLOH    C2 9530   2.854  10.012   0.604  0.4344  0.2870 -0.1750
   97GLOH   H04 9531   2.766  10.061   0.560  0.1113  0.5635  0.7750
   97GLOH    O2 9532   2.815   9.874   0.626 -0.3534 -0.0385  0.0087
   97GLOH   H05 9533   2.894   9.819   0.638 -0.7771 -0.7216 -0.2839
   97GLOH    C3 9534   2.881  10.084   0.738 -0.0985 -0.1641 -0.1886
   97GLOH   H06 9535   2.976  10.048   0.777  0.0164 -0.7563 -0.9992
   97GLOH   H07 9536   2.806  10.054   0.811 -1.9505 -2.0028 -2.7501
   97GLOH    O3 9537   2.898  10.229   0.735  0.4705  0.4470  0.0243
   97GLOH   H01 9538   2.833  10.266   0.798  0.6209  1.1126 -0.2083
   98GLOH   H03 9539   4.209   1.221   0.221 -0.0899  1.5778 -0.1130
   98GLOH    O1 9540   4.186   1.205   0.127  0.6039  0.3396 -0.0808
   98GLOH    C1 9541   4.201   1.335   0.062 -0.2435 -0.1945 -0.7212
   98GLOH   H02 9542   4.301   1.341   0.018 -0.1448 -0.1418 -0.4971
   98GLOH   H08 9543   4.188   1.416   0.134 -0.7842 -0.9823  0.0828
   98GLOH    C2 9544   4.102   1.364  -0.048 -0.0016  0.4631 -0.0262
   98GLOH   H04 9545   4.005   1.350   0.001  0.4626 -2.1209  0.2262
   98GLOH    O2 9546   4.127   1.497  -0.094 -0.3329  0.4822  0.3944
   98GLOH   H05 9547   4.068   1.515  -0.169  1.9126  1.4168 -1.2032
   98GLOH    C3 9548   4.106   1.259  -0.154 -0.6226  0.0836 -0.3677
   98GLOH   H06 9549   4.073   1.165  -0.110  0.8407 -0.2520  0.0389
   98GLOH   H07 9550   4.204   1.247  -0.199  0.1574  0.3401  1.2347
   98GLOH    O3 9551   4.019   1.297  -0.263  0.2841 -0.2729  0.0652
   98GLOH   H01 9552   4.077   1.303  -0.341  0.3555 -0.6523  0.0918
   99GLOH   H03 9553   4.001   0.639   0.244  1.8195 -1.3987  0.7978
   99GLOH    O1 9554   4.082   0.694   0.248  0.4518  0.7499 -0.0301
   99GLOH    C1 9555   4.054   0.830   0.285 -0.6672 -0.4804 -0.2263
   99GLOH   H02 9556   3.964   0.828   0.347 -0.4208 -0.3292  0.1286
   99GLOH   H08 9557   4.014   0.884   0.199 -0.0664 -2.0821 -1.5468
   99GLOH    C2 9558   4.163   0.908   0.361 -0.2677  1.1469 -0.0191
   99GLOH   H04 9559   4.251   0.926   0.296  1.8194 -1.3948  1.9645
   99GLOH    O2 9560   4.108   1.024   0.424  0.2822  0.1198 -0.1352
   99GLOH   H05 9561   4.020   1.005   0.460  0.1628 -1.8352 -1.4107
   99GLOH    C3 9562   4.216   0.818   0.468  0.7500  0.1920 -0.2817
   99GLOH   H06 9563   4.130   0.794   0.531  0.0300  0.7771 -1.0311
   99GLOH   H07 9564   4.287   0.871   0.532 -0.1508  0.1973  0.7333
   99GLOH    O3 9565   4.276   0.700   0.419  0.9092  0.2157  0.1808
   99GLOH   H01 9566   4.214   0.671   0.349  1.2052 -1.0096  0.4168
  100GLOH   H03 9567   2.804   9.112   0.260  1.0563 -0.1516  0.5287
  100GLOH    O1 9568   2.812   9.015   0.270  0.6757 -0.2470 -0.1410
  100GLOH    C1 9569   2.865   8.957   0.150 -0.1144 -0.5525  0.1083
  100GLOH   H02 9570   2.783   8.945   0.079 -2.5111  0.9353  2.4688
  100GLOH   H08 9571   2.901   8.858   0.175  0.8211 -0.7478 -1.9142
  100GLOH    C2 9572   2.977   9.044   0.090 -0.5626  0.1972  0.4452
  100GLOH   H04 9573   3.039   9.076   0.175 -0.0090 -2.6307  1.1864
  100GLOH    O2 9574   3.059   8.973  -0.007 -0.1099  0.4766  0.1846
  100GLOH   H05 9575   3.009   8.975  -0.090  1.3744  0.0105 -0.7304
  100GLOH    C3 9576   2.923   9.163   0.022 -0.3979 -0.5604  0.2533
  100GLOH   H06 9577   2.823   9.141  -0.017  0.0477 -0.0309 -1.2361
  100GLOH   H07 9578   2.989   9.198  -0.057 -0.5161 -3.0718 -1.0103
  100GLOH    O3 9579   2.902   9.276   0.110 -0.0750 -0.0453  0.0170
  100GLOH   H01 9580   2.928   9.355   0.059  0.7927  0.7959  1.7442
  101GLOH   H03 9581   3.854   0.623   0.881 -0.2910  0.9587  0.3446
  101GLOH    O1 9582   3.802   0.571   0.945 -0.0895  0.0482 -0.2172
  101GLOH    C1 9583   3.669   0.630   0.956 -0.3035 -0.4689 -0.5528
  101GLOH   H02 9584   3.674   0.717   0.891 -0.8136  0.1712  0.2535
  101GLOH   H08 9585   3.661   0.682   1.051 -1.0303 -0.5675 -0.5604
  101GLOH    C2 9586   3.556   0.541   0.915  1.0730 -0.2145 -0.0198
  101GLOH   H04 9587   3.551   0.457   0.987  1.0969  0.6960  1.0563
  101GLOH    O2 9588   3.427   0.600   0.912 -0.0375  0.8455 -0.3065
  101GLOH   H05 9589   3.418   0.670   0.978 -1.4702 -0.1588  0.5988
  101GLOH    C3 9590   3.579   0.477   0.776 -0.2246  1.0111 -0.4562
  101GLOH   H06 9591   3.494   0.413   0.759  1.0834 -0.4712 -1.5527
  101GLOH   H07 9592   3.668   0.415   0.784  0.2371  1.8318  1.0496
  101GLOH    O3 9593   3.593   0.567   0.666  0.1448 -0.4237 -0.2866
  101GLOH   H01 9594   3.651   0.520   0.604 -0.0326  0.1089 -0.8595
  102GLOH   H03 9595   2.701   9.177   1.676  0.0520  0.1076  0.5667
  102GLOH    O1 9596   2.694   9.080   1.688 -0.3690  0.1146  0.3665
  102GLOH    C1 9597   2.736   9.064   1.823 -0.5663  0.6282 -0.1913
  102GLOH   H02 9598   2.825   9.125   1.838 -1.3512  1.5218  0.8861
  102GLOH   H08 9599   2.764   8.960   1.840 -3.7297 -0.1322  0.7355
  102GLOH    C2 9600   2.630   9.094   1.927  0.9101  0.2498  0.0368
  102GLOH   H04 9601   2.544   9.031   1.899 -1.4427  2.4740  1.9716
  102GLOH    O2 9602   2.668   9.074   2.061 -0.0198  0.0601 -0.3878
  102GLOH   H05 9603   2.726   8.996   2.072  0.0179  0.4175  2.3703
  102GLOH    C3 9604   2.577   9.235   1.909  0.9596  0.0258  0.3907
  102GLOH   H06 9605   2.499   9.240   1.984 -0.4191 -1.7371 -0.8789
  102GLOH   H07 9606   2.529   9.242   1.811  0.7733 -2.5570  0.2559
  102GLOH    O3 9607   2.689   9.330   1.927 -0.4512 -0.0646  0.2867
  102GLOH   H01 9608   2.745   9.299   2.000 -0.5177  0.8515  0.7382
  103GLOH   H03 9609   3.952   9.417   0.777  0.2627  0.3372 -0.4553
  103GLOH    O1 9610   3.890   9.490   0.759 -0.1918  0.1467  0.3307
  103GLOH    C1 9611   3.867   9.576   0.878 -0.1384  0.3325 -0.3046
  103GLOH   H02 9612   3.884   9.682   0.858 -3.0825  1.1717  1.3471
  103GLOH   H08 9613   3.932   9.551   0.962  0.6093 -0.7061 -1.1641
  103GLOH    C2 9614   3.720   9.565   0.929  0.7860  0.4977 -0.1476
  103GLOH   H04 9615   3.703   9.655   0.990 -0.2554  1.4786 -1.8255
  103GLOH    O2 9616   3.633   9.577   0.817  0.1313 -0.5841  0.1166
  103GLOH   H05 9617   3.682   9.566   0.734 -4.7608 -0.8677 -2.8710
  103GLOH    C3 9618   3.693   9.432   0.996  0.5838  0.3787  0.0832
  103GLOH   H06 9619   3.700   9.348   0.926 -3.1219  0.4943 -0.5140
  103GLOH   H07 9620   3.587   9.421   1.018  0.1965  2.0159 -0.8870
  103GLOH    O3 9621   3.755   9.410   1.124  0.0070 -0.2961 -0.5639
  103GLOH   H01 9622   3.686   9.400   1.192 -3.3260  2.3303 -3.3504
  104GLOH   H03 9623   3.580   1.400   2.741  0.8353 -1.9411  1.9511
  104GLOH    O1 9624   3.509   1.435   2.798 -0.1173 -0.1966 -0.2528
  104GLOH    C1 9625   3.398   1.493   2.725  0.4663  1.0003 -0.0442
  104GLOH   H02 9626   3.425   1.568   2.651  0.7003  1.7610  0.8039
  104GLOH   H08 9627   3.330   1.548   2.790 -1.5046  0.0026 -1.2119
  104GLOH    C2 9628   3.302   1.389   2.657 -0.1390 -0.2041 -0.4123
  104GLOH   H04 9629   3.222   1.454   2.618  0.8909  0.1300 -2.0467
  104GLOH    O2 9630   3.371   1.315   2.556  0.1480  0.2168 -0.1839
  104GLOH   H05 9631   3.326   1.230   2.541  2.5278 -1.0266 -0.5082
  104GLOH    C3 9632   3.230   1.288   2.757 -0.1938  0.1397  0.4292
  104GLOH   H06 9633   3.156   1.342   2.817 -1.2893  1.0796 -1.7157
  104GLOH   H07 9634   3.301   1.246   2.828  1.2991 -0.6948 -1.5417
  104GLOH    O3 9635   3.151   1.183   2.692  0.3754 -0.5941 -0.0970
  104GLOH   H01 9636   3.063   1.226   2.688  1.2355  1.2133  0.1979
  105GLOH   H03 9637   3.435   8.976   1.003 -1.8882  1.8685 -2.0921
  105GLOH    O1 9638   3.382   9.015   1.075  0.1207  0.1073  0.4355
  105GLOH    C1 9639   3.383   8.919   1.186 -1.0148 -0.3244  0.4103
  105GLOH   H02 9640   3.308   8.932   1.264  0.1393  0.3410  1.4200
  105GLOH   H08 9641   3.483   8.921   1.229 -1.2686 -0.0684  0.9854
  105GLOH    C2 9642   3.352   8.774   1.142 -0.2433 -0.2484  0.3418
  105GLOH   H04 9643   3.434   8.725   1.089  0.8279 -0.4178  2.1068
  105GLOH    O2 9644   3.322   8.693   1.259 -0.8022  1.1049  0.1890
  105GLOH   H05 9645   3.252   8.734   1.313  0.5206  1.7885  1.4382
  105GLOH    C3 9646   3.218   8.776   1.058  0.3287  0.4350 -0.0512
  105GLOH   H06 9647   3.145   8.833   1.116 -1.7115 -0.5140 -1.6109
  105GLOH   H07 9648   3.173   8.677   1.062  2.1896 -0.3915  1.9485
  105GLOH    O3 9649   3.232   8.832   0.929  0.1288  0.0459 -0.2000
  105GLOH   H01 9650   3.183   8.915   0.943 -0.2099  0.0234 -1.2019
  106GLOH   H03 9651   4.127   0.164   1.255 -1.6177  0.9502 -1.3424
  106GLOH    O1 9652   4.133   0.085   1.198 -0.0204 -0.2009  0.3817
  106GLOH    C1 9653   4.008   0.013   1.205  0.3283 -0.5295 -0.4216
  106GLOH   H02 9654   3.920   0.078   1.213 -0.6481 -1.6836 -1.6319
  106GLOH   H08 9655   4.005  -0.042   1.299 -0.4776 -1.8952 -1.2357
  106GLOH    C2 9656   3.985  -0.078   1.083 -1.1443  0.0750  0.4693
  106GLOH   H04 9657   4.075  -0.142   1.086 -0.9277  0.1409 -2.8043
  106GLOH    O2 9658   3.870  -0.154   1.098 -0.3199  0.6383 -0.1233
  106GLOH   H05 9659   3.803  -0.142   1.029 -2.3069  1.7311  1.9035
  106GLOH    C3 9660   3.975   0.002   0.950 -0.7429  0.3051 -0.3759
  106GLOH   H06 9661   3.889   0.069   0.954 -1.6702 -0.8499 -0.9834
  106GLOH   H07 9662   3.959  -0.071   0.871  3.4686  0.6710 -1.6830
  106GLOH    O3 9663   4.099   0.071   0.938  0.0241 -0.9009  0.2928
  106GLOH   H01 9664   4.135   0.091   1.027  2.3919 -1.1075 -0.5687
  107GLOH   H03 9665   3.694   9.726   0.475  1.1945 -2.0974 -1.5889
  107GLOH    O1 9666   3.754   9.685   0.540  0.2612 -0.6311  0.2597
  107GLOH    C1 9667   3.856   9.608   0.477 -0.1138  0.7332  0.2545
  107GLOH   H02 9668   3.936   9.590   0.548 -0.6023  0.1408  0.6576
  107GLOH   H08 9669   3.911   9.662   0.400  1.9494 -0.6962  0.6944
  107GLOH    C2 9670   3.798   9.470   0.433  0.1451  0.3185 -0.0826
  107GLOH   H04 9671   3.882   9.413   0.389  1.8008  2.0920  0.7249
  107GLOH    O2 9672   3.753   9.400   0.549  0.2314  0.3588  0.0871
  107GLOH   H05 9673   3.805   9.443   0.619  0.8232 -1.9702  1.1415
  107GLOH    C3 9674   3.678   9.490   0.337 -0.1574 -0.4486 -0.0507
  107GLOH   H06 9675   3.593   9.534   0.389 -0.0219 -1.0932  0.7264
  107GLOH   H07 9676   3.643   9.392   0.303 -1.8872 -0.0600  0.5308
  107GLOH    O3 9677   3.714   9.564   0.222 -0.4239  0.0344  0.3405
  107GLOH   H01 9678   3.643   9.620   0.186 -0.8642 -0.0425  1.0819
  108GLOH   H03 9679   2.852   9.719   1.566 -0.4202  0.5490 -2.1405
  108GLOH    O1 9680   2.919   9.652   1.544  0.4289  0.8515 -0.6006
  108GLOH    C1 9681   2.946   9.668   1.399  0.4628  0.0818 -0.5471
  108GLOH   H02 9682   2.997   9.763   1.379  0.6676 -0.2360 -1.5734
  108GLOH   H08 9683   2.851   9.672   1.346  1.0763  2.0565 -1.5762
  108GLOH    C2 9684   3.028   9.566   1.325  0.4157 -0.2414 -0.2952
  108GLOH   H04 9685   2.973   9.471   1.329  0.3182 -0.1981 -0.6231
  108GLOH    O2 9686   3.032   9.608   1.186  0.2565  0.3134  0.1557
  108GLOH   H05 9687   2.945   9.596   1.145 -0.1343  0.6379  0.8719
  108GLOH    C3 9688   3.167   9.559   1.374 -0.0124 -0.3700  0.0714
  108GLOH   H06 9689   3.206   9.470   1.324 -2.2385 -0.3742 -1.8037
  108GLOH   H07 9690   3.164   9.524   1.477 -0.5833 -0.3765  0.0573
  108GLOH    O3 9691   3.244   9.683   1.370  0.1495  0.1605 -0.2251
  108GLOH   H01 9692   3.274   9.692   1.278  2.3216  0.6488  0.5037
  109GLOH   H03 9693   4.720   0.731   1.375  1.6401 -2.0087 -0.4927
  109GLOH    O1 9694   4.667   0.694   1.303  0.2496  0.1333 -0.6006
  109GLOH    C1 9695   4.579   0.790   1.252  0.3414 -0.1495  0.0842
  109GLOH   H02 9696   4.639   0.861   1.195 -2.4319  1.6043 -0.7514
  109GLOH   H08 9697   4.524   0.840   1.332 -1.0825 -1.7457  0.1333
  109GLOH    C2 9698   4.485   0.726   1.153 -0.2125 -0.3656  0.0560
  109GLOH   H04 9699   4.441   0.632   1.189 -4.2717  1.7891  1.0945
  109GLOH    O2 9700   4.372   0.815   1.138  0.4492  0.0923 -0.0794
  109GLOH   H05 9701   4.304   0.798   1.206  0.1185  0.5140 -0.3089
  109GLOH    C3 9702   4.549   0.702   1.018  0.3308 -0.0524 -0.2637
  109GLOH   H06 9703   4.572   0.802   0.981 -1.0757  0.5652  0.5388
  109GLOH   H07 9704   4.472   0.650   0.961  0.8660  0.8520 -1.8610
  109GLOH    O3 9705   4.669   0.615   1.028  0.3434  0.0499 -0.3982
  109GLOH   H01 9706   4.696   0.630   1.121 -0.8254  1.4319 -0.2465
  110GLOH   H03 9707   3.839   1.553   2.055  0.0006 -1.2025  1.2828
  110GLOH    O1 9708   3.748   1.588   2.066  0.1314 -0.3830 -0.1424
  110GLOH    C1 9709   3.737   1.664   2.185  0.3317  0.0626 -0.1726
  110GLOH   H02 9710   3.806   1.747   2.196 -0.4830  0.4670  2.3170
  110GLOH   H08 9711   3.755   1.598   2.270  0.7058 -0.2561 -0.4963
  110GLOH    C2 9712   3.589   1.708   2.209  0.1643 -0.1795 -0.2836
  110GLOH   H04 9713   3.519   1.624   2.211  0.9942 -0.8716  0.0660
  110GLOH    O2 9714   3.595   1.794   2.327  0.1953  0.5042 -0.1706
  110GLOH   H05 9715   3.501   1.816   2.340 -0.2565 -0.5431 -1.5703
  110GLOH    C3 9716   3.547   1.784   2.086  0.1546  0.0098 -0.1667
  110GLOH   H06 9717   3.630   1.843   2.048 -1.0292  2.6401  1.2087
  110GLOH   H07 9718   3.467   1.851   2.117 -0.0381  0.0395 -0.7186
  110GLOH    O3 9719   3.511   1.692   1.978 -0.6368 -0.6702  0.4082
  110GLOH   H01 9720   3.594   1.644   1.965  0.2153  1.1409 -1.1230
  111GLOH   H03 9721   3.295   1.780   0.615 -0.5096  0.0041  1.9073
  111GLOH    O1 9722   3.244   1.863   0.611  0.3607  0.4912  0.2955
  111GLOH    C1 9723   3.163   1.889   0.733 -0.0905 -0.2567  0.3883
  111GLOH   H02 9724   3.087   1.966   0.716  0.8709  1.2721  2.6204
  111GLOH   H08 9725   3.232   1.929   0.807 -0.7224 -0.0478  0.8748
  111GLOH    C2 9726   3.110   1.758   0.794  0.0696  0.0446  0.2993
  111GLOH   H04 9727   3.187   1.680   0.787  0.4807  0.1058  3.6162
  111GLOH    O2 9728   3.059   1.770   0.928  0.0087 -0.3074 -0.3317
  111GLOH   H05 9729   3.140   1.793   0.977 -1.0711  0.3136  1.2195
  111GLOH    C3 9730   2.997   1.708   0.706 -0.2809 -0.0918 -0.6255
  111GLOH   H06 9731   2.921   1.784   0.685 -0.4263 -0.1632 -0.3591
  111GLOH   H07 9732   2.946   1.623   0.751  0.4450  0.5254  1.3816
  111GLOH    O3 9733   3.051   1.669   0.578  0.0987 -0.8932  0.2751
  111GLOH   H01 9734   3.084   1.753   0.541 -0.6644  0.0097  1.5762
  112GLOH   H03 9735   2.811   9.142   1.058 -2.4125  0.7642  1.3886
  112GLOH    O1 9736   2.859   9.186   1.131  0.0244  0.7799 -0.1535
  112GLOH    C1 9737   2.983   9.233   1.104 -0.4879 -0.2556  0.3491
  112GLOH   H02 9738   2.971   9.330   1.151 -1.7190  0.0480 -0.5800
  112GLOH   H08 9739   2.993   9.241   0.996  0.0171 -1.4258  0.3031
  112GLOH    C2 9740   3.095   9.149   1.170 -0.1949 -0.6053 -0.4802
  112GLOH   H04 9741   3.094   9.056   1.111 -0.2132 -1.0612  0.2393
  112GLOH    O2 9742   3.219   9.214   1.145  0.5389 -0.2447  0.2477
  112GLOH   H05 9743   3.287   9.151   1.116  0.5340 -0.3135  0.3850
  112GLOH    C3 9744   3.063   9.132   1.321  0.0130  0.0823 -0.1975
  112GLOH   H06 9745   2.976   9.066   1.321 -1.3138  1.7668  2.6110
  112GLOH   H07 9746   3.020   9.226   1.358  0.6366 -0.0110  0.7719
  112GLOH    O3 9747   3.172   9.085   1.403  0.5648  0.1422  0.0904
  112GLOH   H01 9748   3.141   9.113   1.491 -3.2581  1.9426 -1.6920
  113GLOH   H03 9749   2.387   0.264   0.239  0.2967 -0.2210  0.5522
  113GLOH    O1 9750   2.313   0.293   0.183 -0.0011 -0.5385  0.7788
  113GLOH    C1 9751   2.269   0.193   0.095 -0.2337 -0.3607 -0.1069
  113GLOH   H02 9752   2.169   0.222   0.065 -0.7926 -1.4709  0.6397
  113GLOH   H08 9753   2.268   0.097   0.147 -0.5843 -1.5333 -2.2382
  113GLOH    C2 9754   2.363   0.199  -0.030 -0.3626  0.6291  0.4461
  113GLOH   H04 9755   2.469   0.195   0.000 -0.5573  0.7151  1.1608
  113GLOH    O2 9756   2.326   0.091  -0.125 -0.9772  0.2259  0.6676
  113GLOH   H05 9757   2.361   0.097  -0.215 -0.3412  0.9053  0.9548
  113GLOH    C3 9758   2.338   0.338  -0.099 -0.0343  0.5846 -0.2037
  113GLOH   H06 9759   2.371   0.412  -0.026  0.7419  1.3535 -1.3308
  113GLOH   H07 9760   2.232   0.338  -0.123 -0.0958 -0.3720  0.0458
  113GLOH    O3 9761   2.419   0.366  -0.217 -0.1576 -0.2951  0.3016
  113GLOH   H01 9762   2.516   0.360  -0.205 -0.1382 -0.0156  0.2931
  114GLOH   H03 9763   2.584   9.996   0.308  2.2795 -0.4624 -1.0094
  114GLOH    O1 9764   2.596   9.919   0.366  0.0587 -0.3957 -0.4368
  114GLOH    C1 9765   2.697   9.842   0.301 -0.1467 -0.5589  0.4470
  114GLOH   H02 9766   2.794   9.887   0.315 -0.3221 -1.0955  3.7931
  114GLOH   H08 9767   2.667   9.835   0.196 -2.5513 -1.7940  1.1690
  114GLOH    C2 9768   2.727   9.699   0.355 -0.4006  0.2573  0.2833
  114GLOH   H04 9769   2.731   9.714   0.464 -0.5151  1.6541  0.0979
  114GLOH    O2 9770   2.633   9.595   0.317 -0.2623 -0.6395  0.2259
  114GLOH   H05 9771   2.657   9.515   0.367  1.4064  0.8520  1.9115
  114GLOH    C3 9772   2.862   9.643   0.306 -0.1017  0.1277  0.2747
  114GLOH   H06 9773   2.854   9.653   0.198 -2.5112 -1.7108  0.2347
  114GLOH   H07 9774   2.864   9.537   0.332  0.9452 -0.7251 -3.0251
  114GLOH    O3 9775   2.976   9.713   0.360  0.1180  0.3145 -0.2366
  114GLOH   H01 9776   2.970   9.725   0.457 -1.3964 -1.1134 -0.1260
  115GLOH   H03 9777   4.092   0.520   1.488  0.8836  0.7678 -2.3650
  115GLOH    O1 9778   4.007   0.481   1.459  0.1016  0.2605  0.4951
  115GLOH    C1 9779   3.967   0.398   1.569  0.0433 -0.7240  0.3651
  115GLOH   H02 9780   3.865   0.361   1.558  0.7209 -1.9326 -2.2711
  115GLOH   H08 9781   3.974   0.450   1.664  1.5028  3.0698 -1.7382
  115GLOH    C2 9782   4.059   0.279   1.595  0.0213  0.2291  0.2566
  115GLOH   H04 9783   4.162   0.311   1.615  0.8179 -1.3019 -1.2930
  115GLOH    O2 9784   4.008   0.205   1.708 -0.6966 -0.2137 -0.1880
  115GLOH   H05 9785   4.070   0.178   1.778  0.8655  0.8258 -1.1195
  115GLOH    C3 9786   4.066   0.202   1.465  0.8678 -0.0417  0.6872
  115GLOH   H06 9787   3.963   0.167   1.461  0.6456  0.7411 -0.7974
  115GLOH   H07 9788   4.133   0.118   1.485  0.0568 -0.0345  3.6575
  115GLOH    O3 9789   4.097   0.274   1.348 -0.3553  0.0448  0.3190
  115GLOH   H01 9790   4.043   0.355   1.346  1.4006  1.3849  3.9049
  116GLOH   H03 9791   2.925   0.386   1.364 -0.0880  0.8549  0.3933
  116GLOH    O1 9792   2.828   0.395   1.372 -0.2493 -0.2705 -0.0764
  116GLOH    C1 9793   2.799   0.336   1.497 -0.0214  0.3186 -0.2898
  116GLOH   H02 9794   2.829   0.395   1.584  1.2160  0.5890 -0.8870
  116GLOH   H08 9795   2.860   0.246   1.496 -0.3834  0.0221  2.1015
  116GLOH    C2 9796   2.657   0.284   1.518  0.2386  0.0527  0.4310
  116GLOH   H04 9797   2.640   0.212   1.436 -0.4087 -0.5535  1.0910
  116GLOH    O2 9798   2.642   0.215   1.644  0.1739 -1.3626 -0.1482
  116GLOH   H05 9799   2.723   0.183   1.688  0.4321 -1.1643 -0.4774
  116GLOH    C3 9800   2.543   0.394   1.504  0.4568  0.1712  0.3284
  116GLOH   H06 9801   2.531   0.448   1.598 -0.8831  1.4916 -0.5749
  116GLOH   H07 9802   2.453   0.337   1.484  1.4076 -0.3181 -2.8157
  116GLOH    O3 9803   2.572   0.479   1.392  0.2435  0.2507  0.2223
  116GLOH   H01 9804   2.658   0.444   1.362 -0.8490 -0.7305 -1.8024
  117GLOH   H03 9805   3.674   1.105   0.762 -2.0673 -0.0102 -0.1475
  117GLOH    O1 9806   3.683   1.017   0.721 -0.2639  0.1100 -0.0760
  117GLOH    C1 9807   3.566   0.939   0.759 -0.1700  0.2548 -0.5982
  117GLOH   H02 9808   3.572   0.913   0.865 -0.9822 -1.1376 -0.8815
  117GLOH   H08 9809   3.559   0.841   0.711 -0.1725 -1.9063  3.5119
  117GLOH    C2 9810   3.429   1.007   0.738 -0.3855 -0.3222  0.6842
  117GLOH   H04 9811   3.356   0.926   0.742 -2.2304  1.3145  1.1624
  117GLOH    O2 9812   3.401   1.089   0.853  0.2265 -0.1401 -0.3158
  117GLOH   H05 9813   3.484   1.136   0.873 -0.0477 -0.6378  2.2810
  117GLOH    C3 9814   3.405   1.077   0.606 -0.6706 -0.0854 -0.0956
  117GLOH   H06 9815   3.389   1.001   0.530  2.2466  0.8446 -1.6903
  117GLOH   H07 9816   3.489   1.140   0.579 -1.8508  1.2305 -0.7709
  117GLOH    O3 9817   3.281   1.150   0.603  0.1258  0.2479  0.1699
  117GLOH   H01 9818   3.227   1.113   0.675 -0.0699  0.1749 -0.0130
  118GLOH   H03 9819   4.407   0.424   0.516 -2.2780 -0.3361  0.1458
  118GLOH    O1 9820   4.416   0.327   0.524 -0.6218 -0.1725  0.3452
  118GLOH    C1 9821   4.506   0.287   0.421  0.0099  0.7204  0.0507
  118GLOH   H02 9822   4.523   0.183   0.449 -2.5080  0.6108  1.2483
  118GLOH   H08 9823   4.602   0.337   0.434 -0.6039  1.8702  0.1693
  118GLOH    C2 9824   4.465   0.300   0.277  0.7819 -0.8679 -1.0025
  118GLOH   H04 9825   4.555   0.272   0.218  1.8016  0.2246  0.0059
  118GLOH    O2 9826   4.366   0.213   0.236  0.0320 -0.1584  0.0027
  118GLOH   H05 9827   4.346   0.143   0.300 -0.0549  0.5147  0.7275
  118GLOH    C3 9828   4.420   0.445   0.236  0.1138 -0.8246 -0.7724
  118GLOH   H06 9829   4.335   0.482   0.292  1.3006  0.4428  0.2229
  118GLOH   H07 9830   4.388   0.443   0.131  2.4676 -0.3186 -1.5263
  118GLOH    O3 9831   4.526   0.541   0.243 -0.3411  0.4260  0.2124
  118GLOH   H01 9832   4.506   0.609   0.177 -1.1756 -0.9285 -0.9544
  119GLOH   H03 9833   2.794   0.845   0.417 -1.7373  0.6644  1.0266
  119GLOH    O1 9834   2.839   0.913   0.470  0.4932 -0.1990  0.2668
  119GLOH    C1 9835   2.848   1.028   0.390 -0.2664  0.1330 -0.1692
  119GLOH   H02 9836   2.748   1.048   0.352 -0.4821  0.3128  0.4849
  119GLOH   H08 9837   2.924   1.009   0.315  0.8553  0.2882  0.9200
  119GLOH    C2 9838   2.882   1.150   0.469 -0.8883 -0.0712 -0.5736
  119GLOH   H04 9839   2.971   1.133   0.533 -2.4657  0.6294  1.9038
  119GLOH    O2 9840   2.916   1.256   0.379  0.1851 -0.3694  0.0346
  119GLOH   H05 9841   2.949   1.328   0.435 -0.8923 -0.7689  1.2205
  119GLOH    C3 9842   2.757   1.196   0.553 -1.3904  0.0072 -0.4414
  119GLOH   H06 9843   2.677   1.223   0.484 -0.1507  0.5764 -1.6873
  119GLOH   H07 9844   2.781   1.285   0.612 -0.8952 -1.5935  1.8313
  119GLOH    O3 9845   2.707   1.100   0.652 -0.6800  0.1986  0.1782
  119GLOH   H01 9846   2.736   1.131   0.740 -1.1191  2.0775 -0.3138
  120GLOH   H03 9847   3.612   1.474   0.980  0.5056  0.2626  0.3297
  120GLOH    O1 9848   3.695   1.423   0.989  0.9247  0.7943 -0.4527
  120GLOH    C1 9849   3.802   1.483   0.913  0.0267 -0.5489  0.0461
  120GLOH   H02 9850   3.899   1.446   0.945  0.2081 -0.6938 -0.6630
  120GLOH   H08 9851   3.798   1.589   0.940 -3.5781 -0.4851 -0.4718
  120GLOH    C2 9852   3.775   1.458   0.765 -0.0950  0.0919  0.2215
  120GLOH   H04 9853   3.680   1.496   0.723 -0.5865  0.6125  1.7910
  120GLOH    O2 9854   3.879   1.524   0.687 -0.0475  0.8965  0.9505
  120GLOH   H05 9855   3.894   1.617   0.714 -1.6834  1.0793  1.2757
  120GLOH    C3 9856   3.789   1.303   0.753 -0.6064  0.1691  0.0041
  120GLOH   H06 9857   3.882   1.267   0.797  0.0348  0.5609 -1.0015
  120GLOH   H07 9858   3.803   1.274   0.649 -0.5866 -0.0440  0.0674
  120GLOH    O3 9859   3.681   1.241   0.816  0.2093 -0.4477  0.0382
  120GLOH   H01 9860   3.668   1.297   0.895  0.4072 -1.0963  0.5345
  121ACOH    H4 9861   3.432   1.752   1.867 -0.0482  0.5107  0.1079
  121ACOH    O2 9862   3.391   1.771   1.780 -0.5084 -0.0658  0.1986
  121ACOH    C2 9863   3.433   1.897   1.756 -0.7798  0.9329  0.3236
  121ACOH    O1 9864   3.468   1.979   1.838 -0.0897 -0.7694  0.3876
  121ACOH    C1 9865   3.389   1.964   1.630 -0.1863  0.4917 -0.4704
  121ACOH    H1 9866   3.280   1.969   1.627 -0.1524  0.9700 -0.9253
  121ACOH    H2 9867   3.424   1.906   1.545 -0.8704 -1.0219  0.2556
  121ACOH    H3 9868   3.425   2.065   1.615  1.3999  0.2358  1.4431
  122ACOH    H4 9869   3.765   1.836   0.290 -0.4996 -0.7254 -0.0157
  122ACOH    O2 9870   3.714   1.916   0.312  0.1636 -0.1670 -0.5091
  122ACOH    C2 9871   3.704   1.932   0.443  0.6690 -0.2424 -0.0923
  122ACOH    O1 9872   3.739   1.850   0.527  0.3874 -0.5554  0.5805
  122ACOH    C1 9873   3.622   2.047   0.474  0.2788  0.1122 -0.7657
  122ACOH    H1 9874   3.543   2.019   0.542 -0.4039 -0.8178 -1.9271
  122ACOH    H2 9875   3.570   2.071   0.381  0.0630 -1.4270 -1.0469
  122ACOH    H3 9876   3.672   2.132   0.521 -0.4804  0.2548 -0.2124
  123ACOH    H4 9877   2.907   1.902   1.400  2.1280 -2.9272 -0.7216
  123ACOH    O2 9878   2.986   1.958   1.393 -0.0809  0.3939  0.2325
  123ACOH    C2 9879   2.937   2.078   1.348 -0.7689  0.1588  0.2482
  123ACOH    O1 9880   2.822   2.106   1.312  0.2948  0.1735 -0.0204
  123ACOH    C1 9881   3.045   2.182   1.341  0.2413  0.2756  0.3485
  123ACOH    H1 9882   3.122   2.169   1.265 -2.1790 -1.7727 -1.8304
  123ACOH    H2 9883   3.097   2.184   1.437 -0.7885  1.2990  0.9049
  123ACOH    H3 9884   3.008   2.283   1.321  1.7416  0.9346  0.8083
  124ACOH    H4 9885   2.765   1.501   2.220  2.0975  1.9752  0.4515
  124ACOH    O2 9886   2.721   1.569   2.168 -0.0952 -0.0765 -0.4550
  124ACOH    C2 9887   2.640   1.511   2.081 -0.8750  0.6767 -0.6817
  124ACOH    O1 9888   2.604   1.397   2.077  1.1598 -0.3708 -0.2603
  124ACOH    C1 9889   2.582   1.617   1.994 -0.4537  0.3397  1.1308
  124ACOH    H1 9890   2.589   1.713   2.045  1.3954  1.6651 -1.5075
  124ACOH    H2 9891   2.480   1.592   1.964 -0.1193  0.6832 -0.3373
  124ACOH    H3 9892   2.636   1.622   1.900 -1.1906  2.0550  0.7694
  125ACOH    H4 9893   3.858   8.815   1.304  0.9920  0.5918  2.3179
  125ACOH    O2 9894   3.936   8.825   1.247 -0.2462  0.0244  0.4736
  125ACOH    C2 9895   4.030   8.833   1.344 -0.4881  0.6241 -0.5897
  125ACOH    O1 9896   4.017   8.788   1.455 -0.0023 -0.1876  0.1181
  125ACOH    C1 9897   4.162   8.874   1.295  0.4672 -0.1141  0.5570
  125ACOH    H1 9898   4.231   8.789   1.300 -0.3700 -0.8715 -0.3101
  125ACOH    H2 9899   4.213   8.953   1.350  2.6373 -1.5988  0.7341
  125ACOH    H3 9900   4.155   8.907   1.191  0.6909  0.4812  0.7335
  126ACOH    H4 9901   4.794   0.968   1.057  1.9933  0.5921 -3.0274
  126ACOH    O2 9902   4.848   0.888   1.071  0.2029 -0.2108 -0.2635
  126ACOH    C2 9903   4.891   0.831   0.960 -0.0257  0.4096 -0.0445
  126ACOH    O1 9904   4.831   0.840   0.854  0.3198 -0.0456  0.1112
  126ACOH    C1 9905   5.018   0.760   0.984  0.9517 -0.2179 -0.3566
  126ACOH    H1 9906   5.105   0.826   0.983  0.5484  0.2956 -1.7376
  126ACOH    H2 9907   5.035   0.691   0.902  0.0116  0.1475 -0.8558
  126ACOH    H3 9908   5.025   0.708   1.080  0.9704 -1.2965 -0.9334
  127ACOH    H4 9909   3.103   8.972   2.022  0.8162 -0.9004 -0.3251
  127ACOH    O2 9910   3.116   8.916   2.101  0.0802 -0.0736  0.3892
  127ACOH    C2 9911   2.995   8.884   2.140  0.3997 -0.3288 -0.3856
  127ACOH    O1 9912   2.892   8.914   2.082 -0.0062 -0.2159 -0.0958
  127ACOH    C1 9913   2.992   8.787   2.256  0.1186 -0.9814 -0.2285
  127ACOH    H1 9914   3.072   8.803   2.329  1.4351 -3.8628 -0.9498
  127ACOH    H2 9915   3.012   8.689   2.213  2.2020 -1.0151  0.7330
  127ACOH    H3 9916   2.898   8.790   2.311 -0.1825 -1.5974 -0.7000
  128ACOH    H4 9917   3.819   8.841   2.382  1.6984 -1.3237  2.4520
  128ACOH    O2 9918   3.829   8.765   2.322 -0.2597  0.0849  0.2534
  128ACOH    C2 9919   3.712   8.717   2.287  1.2026  0.3341  0.7386
  128ACOH    O1 9920   3.598   8.760   2.291  0.9830 -0.4578  0.3509
  128ACOH    C1 9921   3.730   8.595   2.203 -0.2838 -0.2136  0.1673
  128ACOH    H1 9922   3.678   8.615   2.109 -0.1770  1.7541  0.4894
  128ACOH    H2 9923   3.682   8.513   2.256 -2.2034 -0.5498 -1.9896
  128ACOH    H3 9924   3.829   8.563   2.172  0.1185 -0.7405  1.9586
  129ACOH    H4 9925   3.758   1.777   1.817 -1.0269  0.6597 -0.4629
  129ACOH    O2 9926   3.793   1.867   1.820 -0.4384  0.4053  0.2044
  129ACOH    C2 9927   3.768   1.922   1.704  0.1165 -0.2153  0.1092
  129ACOH    O1 9928   3.706   1.867   1.609  0.3326 -0.0115 -0.4031
  129ACOH    C1 9929   3.826   2.055   1.697  0.0831 -0.0182 -0.6450
  129ACOH    H1 9930   3.929   2.054   1.731 -0.3946  0.4634  0.8513
  129ACOH    H2 9931   3.761   2.125   1.749 -0.9732 -1.9910  0.7420
  129ACOH    H3 9932   3.829   2.082   1.591 -0.5797 -1.2139 -0.9700
  130ACOH    H4 9933   2.746   1.229   1.078  0.3257  1.8985 -2.6966
  130ACOH    O2 9934   2.690   1.302   1.111 -0.6406 -0.0212  0.0668
  130ACOH    C2 9935   2.577   1.279   1.041  0.7794  0.4687 -0.1126
  130ACOH    O1 9936   2.563   1.243   0.923  0.4490  0.5082 -0.1354
  130ACOH    C1 9937   2.473   1.348   1.122  0.3439  0.0354 -0.4355
  130ACOH    H1 9938   2.504   1.345   1.227  1.0057  1.2068 -0.5866
  130ACOH    H2 9939   2.377   1.299   1.110  1.3967 -3.0647  2.7957
  130ACOH    H3 9940   2.488   1.453   1.097  0.5105 -0.3110 -1.8308
  131ACOH    H4 9941   4.374   0.940   2.232 -0.7598  0.9760 -3.8327
  131ACOH    O2 9942   4.422   1.020   2.256 -0.4901 -0.1781 -0.2156
  131ACOH    C2 9943   4.379   1.057   2.376 -0.0027 -0.8257  0.2872
  131ACOH    O1 9944   4.334   0.978   2.455 -0.2106 -0.0660 -0.0112
  131ACOH    C1 9945   4.439   1.184   2.422 -0.1570 -0.7991 -0.2519
  131ACOH    H1 9946   4.545   1.183   2.394 -0.5857 -1.5875 -1.9677
  131ACOH    H2 9947   4.443   1.206   2.528 -2.8880 -1.7749  0.0956
  131ACOH    H3 9948   4.401   1.278   2.382 -0.4301 -0.3230  1.1269
  132ACOH    H4 9949   2.500   0.166   2.317  0.1225  0.8635  0.6522
  132ACOH    O2 9950   2.442   0.100   2.359  0.4596  0.1657  0.0464
  132ACOH    C2 9951   2.373   0.044   2.260  0.6948 -0.0451  0.4700
  132ACOH    O1 9952   2.361   0.084   2.144 -0.6469  0.4830  0.0648
  132ACOH    C1 9953   2.305  -0.083   2.309 -0.2811  0.1168  0.1751
  132ACOH    H1 9954   2.334  -0.105   2.412 -1.1929 -0.0105  0.4130
  132ACOH    H2 9955   2.329  -0.160   2.236 -0.9217  1.6178 -1.6681
  132ACOH    H3 9956   2.197  -0.069   2.299 -0.1914  0.7950  0.1660
  133ACOH    H4 9957   4.617   0.613   0.352 -0.1814  1.1445 -1.0810
  133ACOH    O2 9958   4.675   0.674   0.402  0.1812  0.1165 -0.2161
  133ACOH    C2 9959   4.626   0.799   0.396 -0.4289  0.0264  0.3847
  133ACOH    O1 9960   4.529   0.831   0.330 -0.0748  0.1283  0.1198
  133ACOH    C1 9961   4.721   0.894   0.455 -0.6099  0.2802  0.1599
  133ACOH    H1 9962   4.778   0.943   0.376  1.6671 -2.5900 -0.0514
  133ACOH    H2 9963   4.786   0.844   0.527 -0.9381 -2.2386 -1.2360
  133ACOH    H3 9964   4.664   0.970   0.509  0.3156  2.9033 -2.4124
  134ACOH    H4 9965   2.923   1.172   2.448  0.4762  0.4676 -0.7209
  134ACOH    O2 9966   2.840   1.188   2.496  0.5259  0.1378 -0.5170
  134ACOH    C2 9967   2.761   1.288   2.448 -0.0709 -0.4264 -0.3952
  134ACOH    O1 9968   2.779   1.358   2.345  0.0602 -0.2729 -0.0591
  134ACOH    C1 9969   2.639   1.301   2.534  0.0814 -0.6969  0.1383
  134ACOH    H1 9970   2.668   1.293   2.639  0.5400 -1.9666 -0.0790
  134ACOH    H2 9971   2.565   1.226   2.509 -2.1569  1.1103  1.1063
  134ACOH    H3 9972   2.610   1.406   2.538  2.8098  0.0713  0.5371
  135ACOH    H4 9973   4.401   0.644   0.496  1.5896  0.7328 -1.7140
  135ACOH    O2 9974   4.463   0.579   0.533 -0.1822 -0.3736 -0.5663
  135ACOH    C2 9975   4.529   0.644   0.638 -0.3088 -0.2687 -0.3081
  135ACOH    O1 9976   4.497   0.750   0.690  0.6869 -0.5991  0.0378
  135ACOH    C1 9977   4.608   0.548   0.720 -0.1878 -0.1079  0.0792
  135ACOH    H1 9978   4.704   0.591   0.750 -0.4656  0.5375  0.0548
  135ACOH    H2 9979   4.620   0.453   0.669 -1.4761  0.0726 -0.5908
  135ACOH    H3 9980   4.549   0.525   0.808 -0.1580  0.3667  0.2296
  136SOL     OW 9981   3.841  10.103   2.514 -0.6593 -0.3331 -0.0633
  136SOL    HW1 9982   3.897  10.021   2.523 -1.2088 -0.6080  0.9474
  136SOL    HW2 9983   3.750  10.078   2.480 -0.5550 -0.0312 -0.5734
  137SOL     OW 9984   2.701   9.215   0.905  0.6442  0.3531 -0.3210
  137SOL    HW1 9985   2.724   9.143   0.839  0.0261  0.2265 -0.4052
  137SOL    HW2 9986   2.608   9.200   0.939  1.8709 -1.1254  2.5964
  138SOL     OW 9987   3.389   1.436   1.770  0.3084 -0.2685  0.5147
  138SOL    HW1 9988   3.362   1.509   1.708  0.7978  1.2425  2.0384
  138SOL    HW2 9989   3.311   1.376   1.787  0.0659 -0.4739 -1.2228
  139SOL     OW 9990   2.360   9.615   1.744  0.4828 -0.1043 -0.0716
  139SOL    HW1 9991   2.332   9.644   1.836  0.8661  0.0497 -0.0032
  139SOL    HW2 9992   2.279   9.595   1.690  0.1702  2.1701 -0.4807
  140SOL     OW 9993   3.146   1.296   1.907 -0.0773 -0.4017  0.1426
  140SOL    HW1 9994   3.066   1.254   1.865  0.7673 -0.6841 -1.2293
  140SOL    HW2 9995   3.129   1.394   1.920 -0.6080 -0.4412 -0.2450
  141SOL     OW 9996   2.951   9.407   1.636  0.0739  0.0498 -0.0442
  141SOL    HW1 9997   2.946   9.499   1.598 -1.4038  0.4477  1.0691
  141SOL    HW2 9998   2.860   9.377   1.664  0.4058 -2.1082 -1.1866
  142SOL     OW 9999   3.587   0.186   0.973  0.3366  0.5933  0.2624
  142SOL    HW110000   3.603   0.087   0.972  1.8116  0.8244 -0.2385
  142SOL    HW210001   3.489   0.203   0.982  0.2047 -0.8899  2.0473
  143SOL     OW10002   2.427   0.214   1.787  1.0413  0.4940 -0.3066
  143SOL    HW110003   2.416   0.130   1.840 -1.2539  1.0731  0.2234
  143SOL    HW210004   2.494   0.200   1.715  1.6716 -1.3764  0.6087
  144SOL     OW10005   3.602   8.937   0.917  0.6184 -0.4972  0.3698
  144SOL    HW110006   3.625   8.961   0.823  1.6789 -1.9350  0.2483
  144SOL    HW210007   3.683   8.945   0.975  0.1377 -0.2957  1.0200
  145SOL     OW10008   3.176   9.141   2.351  0.1490 -0.4517  0.7550
  145SOL    HW110009   3.251   9.087   2.311 -0.7298 -0.7658 -0.5085
  145SOL    HW210010   3.214   9.206   2.417  1.5996 -0.2824 -0.1968
  146SOL     OW10011   4.351   0.679   1.945 -0.1985 -0.1930 -0.0025
  146SOL    HW110012   4.322   0.587   1.972 -0.2854 -0.1488  0.0560
  146SOL    HW210013   4.418   0.672   1.871 -1.4508 -0.2656 -1.1583
  147SOL     OW10014   4.115   1.147   0.691  0.2519  0.1981  0.0087
  147SOL    HW110015   4.106   1.078   0.619 -0.7265 -0.6656  0.9352
  147SOL    HW210016   4.202   1.194   0.682 -0.5470  1.2471 -2.7392
  148SOL     OW10017   4.409   0.168   2.717  0.1092  0.2697 -0.3842
  148SOL    HW110018   4.459   0.254   2.711 -2.2755  1.6508 -1.0431
  148SOL    HW210019   4.368   0.160   2.807  1.0464 -0.6166 -0.0238
  149SOL     OW10020   2.915   1.395   1.454  0.7486 -0.0871 -0.6775
  149SOL    HW110021   2.835   1.438   1.412 -0.2000  0.0802  1.2258
  149SOL    HW210022   2.902   1.296   1.458 -0.5471  0.1404  1.9198
  150SOL     OW10023   2.886   0.168   1.729 -0.1032  0.5568 -0.3049
  150SOL    HW110024   2.911   0.096   1.663  0.9713  2.2093 -1.7407
  150SOL    HW210025   2.960   0.234   1.735  0.2213 -0.0306  3.3050
  151SOL     OW10026   3.022   0.855   2.159  0.1475 -0.0174 -0.0211
  151SOL    HW110027   3.006   0.884   2.254  0.0390  2.2060 -0.6995
  151SOL    HW210028   2.936   0.857   2.109  0.3032 -0.6745 -0.3173
  152SOL     OW10029   3.411   0.220   0.551  0.7122  0.6047  0.5933
  152SOL    HW110030   3.312   0.224   0.566  0.6242  1.5446 -0.1282
  152SOL    HW210031   3.439   0.300   0.497  1.4908 -0.9408 -1.3338
  153SOL     OW10032   4.210   1.269   0.399 -0.2513  0.1043  0.3087
  153SOL    HW110033   4.123   1.316   0.410 -1.2162 -1.2166 -1.2481
  153SOL    HW210034   4.200   1.174   0.428  0.9177  0.1619  0.9205
  154SOL     OW10035   3.093   9.181   1.626 -0.3950  0.0724 -0.7194
  154SOL    HW110036   3.043   9.266   1.608  1.5446  1.2255 -0.9201
  154SOL    HW210037   3.094   9.163   1.725  0.6005  1.2145 -0.5068
  155SOL     OW10038   2.464   9.181   1.054  0.3904 -0.1715  0.3167
  155SOL    HW110039   2.459   9.129   1.139  3.0833 -0.5057  0.3263
  155SOL    HW210040   2.389   9.247   1.050 -1.8160 -2.5622  1.2966
  156SOL     OW10041   3.478   0.259   2.727 -0.2314 -0.2314 -0.0625
  156SOL    HW110042   3.431   0.268   2.815 -0.9850  3.2391 -0.7330
  156SOL    HW210043   3.419   0.209   2.663 -0.6880 -0.6931  0.7130
  157SOL     OW10044   2.297   9.702   2.016  0.6864  0.0286 -0.1409
  157SOL    HW110045   2.359   9.779   2.019 -0.0640  0.5931  1.2765
  157SOL    HW210046   2.202   9.735   2.020  0.3733 -0.9837  1.2400
  158SOL     OW10047   3.571   1.786   1.061  0.3569  0.3650  0.1200
  158SOL    HW110048   3.656   1.767   1.111  1.5505 -1.5060 -2.4167
  158SOL    HW210049   3.594   1.813   0.967 -1.8237 -2.9463 -1.4850
  159SOL     OW10050   2.374   0.637   1.332  0.3353  0.0095 -0.4267
  159SOL    HW110051   2.288   0.620   1.380 -2.3899 -0.0296 -4.9619
  159SOL    HW210052   2.447   0.580   1.371 -1.5874  0.1858  3.6480
  160SOL     OW10053   4.211   0.342   2.262 -0.5170  0.0707  0.0160
  160SOL    HW110054   4.132   0.398   2.288 -1.3902 -0.7561 -0.8107
  160SOL    HW210055   4.293   0.378   2.306 -1.3925  0.8043  1.0824
  161SOL     OW10056   3.290   9.718   0.574 -0.3230 -0.1284  0.2878
  161SOL    HW110057   3.350   9.794   0.602  0.4939 -0.7613  0.2871
  161SOL    HW210058   3.314   9.637   0.627 -1.0124 -0.4589  0.0936
  162SOL     OW10059   2.591   0.767   0.397 -0.0730  0.2570  0.1653
  162SOL    HW110060   2.557   0.673   0.393 -2.2023  1.0382 -0.6832
  162SOL    HW210061   2.562   0.809   0.483  0.5713  0.2642  0.3833
  163SOL     OW10062   4.455   0.482   1.592 -0.2094 -0.5906  0.3921
  163SOL    HW110063   4.453   0.410   1.662  0.4189  0.2890  1.3231
  163SOL    HW210064   4.489   0.443   1.507 -2.1833 -1.9811  0.1985
  164SOL     OW10065   3.133   1.676   1.716 -0.2956  0.6117 -0.1309
  164SOL    HW110066   3.146   1.626   1.630  0.2399 -1.4850  1.1323
  164SOL    HW210067   3.207   1.742   1.728 -0.6769  1.3325 -1.5215
  165SOL     OW10068   4.370   9.738   1.900 -0.8602 -0.0816  0.1718
  165SOL    HW110069   4.415   9.659   1.942 -0.3554 -0.1572 -0.4977
  165SOL    HW210070   4.342   9.713   1.807  0.4508  0.9272 -0.5119
  166SOL     OW10071   2.525   9.510   2.151  0.4383  0.1084 -0.1235
  166SOL    HW110072   2.492   9.558   2.070 -1.6029 -1.0596 -0.0002
  166SOL    HW210073   2.540   9.576   2.224 -3.8146  0.4859  0.5302
  167SOL     OW10074   3.385   0.793   1.089 -0.1874  0.0095  0.2854
  167SOL    HW110075   3.333   0.859   1.034 -0.5105 -1.1193 -0.8012
  167SOL    HW210076   3.463   0.839   1.131 -0.0001  0.9484 -1.0364
  168SOL     OW10077   3.667   0.439   1.346 -0.0983  0.5461  0.3568
  168SOL    HW110078   3.735   0.388   1.295  1.7274  1.1589  2.0900
  168SOL    HW210079   3.710   0.519   1.388 -2.1058  1.4956  0.6836
  169SOL     OW10080   2.825  10.138   0.218 -0.3248 -0.0973 -0.1045
  169SOL    HW110081   2.890  10.063   0.215  0.9013  0.9459 -0.0433
  169SOL    HW210082   2.873  10.224   0.201 -1.2694  0.9464  2.2158
  170SOL     OW10083   3.961   1.773   0.739  0.0919  0.6701  0.4998
  170SOL    HW110084   3.887   1.832   0.706 -0.9257 -0.9506 -0.1235
  170SOL    HW210085   4.025   1.754   0.665 -1.0724 -1.2548 -0.0439
  171SOL     OW10086   3.037   1.351   0.793  0.8674 -0.3690 -0.4239
  171SOL    HW110087   3.068   1.256   0.791  1.0504 -0.3150 -0.1853
  171SOL    HW210088   3.013   1.381   0.701  1.6350 -0.3718 -0.6215
  172SOL     OW10089   3.065   1.670   1.243  0.5455  0.1401  0.1146
  172SOL    HW110090   3.090   1.615   1.322 -0.4322 -0.6759 -0.1389
  172SOL    HW210091   2.977   1.714   1.260  0.8122  0.7824 -0.1209
  173SOL     OW10092   2.445   1.202   0.162 -0.1891 -0.1666  0.2916
  173SOL    HW110093   2.365   1.210   0.103 -0.6386 -0.9936  0.7851
  173SOL    HW210094   2.472   1.106   0.168  0.8633  0.1052  0.1012
  174SOL     OW10095   3.949   9.463   2.132  0.5424  0.4888 -0.2169
  174SOL    HW110096   3.998   9.540   2.092  1.0959  1.1171  1.6270
  174SOL    HW210097   3.927   9.397   2.060  2.5185  1.0406 -1.3764
  175SOL     OW10098   2.133   0.599   1.500 -0.2230  0.3502  0.5577
  175SOL    HW110099   2.111   0.502   1.506  0.5628  0.0633 -0.9470
  175SOL    HW210100   2.067   0.652   1.553 -2.5729 -0.7494 -1.1764
  176SOL     OW10101   2.284   0.550   0.179  0.9087 -0.3131  0.2519
  176SOL    HW110102   2.271   0.454   0.156 -1.9576  0.0506  0.1938
  176SOL    HW210103   2.292   0.604   0.094  1.4490 -0.3574  0.2725
  177SOL     OW10104   3.338   0.297   0.989 -0.0283 -0.2562 -0.5477
  177SOL    HW110105   3.299   0.257   1.071  0.0183  0.9371  0.0731
  177SOL    HW210106   3.331   0.397   0.994  0.4288 -0.1485 -1.7622
  178SOL     OW10107   4.593   1.027   0.772  0.3722  0.1749 -0.1490
  178SOL    HW110108   4.570   0.935   0.740  0.8168  0.4893 -1.3943
  178SOL    HW210109   4.669   1.022   0.837  1.8370 -0.1554 -1.8467
  179SOL     OW10110   4.759   0.341   0.958 -0.1715 -0.2351 -0.4616
  179SOL    HW110111   4.765   0.439   0.941 -0.5785 -0.0087  0.6534
  179SOL    HW210112   4.738   0.325   1.055  0.7263 -1.4357 -0.4505
  180SOL     OW10113   3.058   0.188   2.134  0.1522 -0.2347 -0.5210
  180SOL    HW110114   3.151   0.223   2.125  0.6702 -1.6029 -0.4681
  180SOL    HW210115   3.046   0.109   2.075 -1.9118  1.7590 -2.9018
  181SOL     OW10116   3.475   1.556   0.937  0.5470 -0.5780  0.0913
  181SOL    HW110117   3.407   1.503   0.988  1.6265 -1.2062  0.8793
  181SOL    HW210118   3.481   1.648   0.975 -0.8641 -0.0582 -0.8740
  182SOL     OW10119   3.738   0.181   2.789  0.0672 -0.2208 -0.5984
  182SOL    HW110120   3.647   0.222   2.789 -0.9115 -2.3002 -1.9607
  182SOL    HW210121   3.764   0.157   2.695  1.9806  0.2658 -0.2104
  183SOL     OW10122   2.720   1.208   1.837 -0.1064 -0.6672  0.3362
  183SOL    HW110123   2.754   1.290   1.791 -0.9236 -0.8874 -0.6835
  183SOL    HW210124   2.656   1.234   1.909 -0.4718 -0.4108 -0.0781
  184SOL     OW10125   3.652   0.372   1.773  0.4997 -0.0436  0.0168
  184SOL    HW110126   3.666   0.276   1.749 -0.2160 -0.2231  0.2999
  184SOL    HW210127   3.572   0.407   1.725 -0.8350 -0.3563  1.9586
  185SOL     OW10128   2.204   9.362   1.377 -0.2700 -1.0082  0.0290
  185SOL    HW110129   2.198   9.271   1.418  1.7049 -1.8244 -1.3982
  185SOL    HW210130   2.299   9.393   1.376 -0.7972  0.6808 -0.3339
  186SOL     OW10131   3.372   0.634   2.619  1.0200  0.4195 -0.0733
  186SOL    HW110132   3.355   0.671   2.527 -1.3306  0.3796  0.3375
  186SOL    HW210133   3.446   0.566   2.614 -0.8158 -1.4764 -2.3836
  187SOL     OW10134   4.007   0.798   2.723 -0.0760  0.3886 -0.1511
  187SOL    HW110135   4.036   0.715   2.770  0.4013  0.0620 -1.0052
  187SOL    HW210136   4.084   0.863   2.720 -0.7006  1.2318  1.2907
  188SOL     OW10137   3.264   1.823   1.101  0.1296  0.2121  0.1681
  188SOL    HW110138   3.355   1.819   1.142 -0.2581  0.9852  1.1163
  188SOL    HW210139   3.196   1.790   1.167 -0.2685 -0.4775 -0.5780
  189SOL     OW10140   3.048   1.425   0.515 -0.2297  0.1401 -0.5412
  189SOL    HW110141   3.041   1.524   0.518 -0.9560  0.0978 -0.7464
  189SOL    HW210142   3.144   1.398   0.516 -0.0369  0.8319 -0.1397
  190SOL     OW10143   2.399   9.945   1.880 -0.0468 -0.0335  0.4118
  190SOL    HW110144   2.484   9.896   1.901  0.1141  0.1474  0.1783
  190SOL    HW210145   2.379  10.009   1.954 -0.1775 -0.3458  0.6461
  191SOL     OW10146   4.375   9.908   1.095  0.1239 -0.0198 -0.6694
  191SOL    HW110147   4.420   9.883   1.009  0.1779  0.8295 -0.8910
  191SOL    HW210148   4.287   9.951   1.074 -0.4768 -1.0201 -0.2601
  192SOL     OW10149   3.122   0.925   0.495  0.3375  0.5591 -0.1420
  192SOL    HW110150   3.030   0.888   0.509  0.5917 -1.0004 -2.3610
  192SOL    HW210151   3.174   0.863   0.437  2.7321  1.5544  0.8858
  193SOL     OW10152   3.139   0.495   0.169 -0.3960  0.4658  1.0015
  193SOL    HW110153   3.124   0.573   0.109  1.2535  0.0471  0.0171
  193SOL    HW210154   3.059   0.435   0.168 -1.0240  1.3180  0.5230
  194SOL     OW10155   3.339   9.879   0.886 -0.5380 -0.3375 -0.4554
  194SOL    HW110156   3.387   9.912   0.805  0.8735  0.1020  0.5329
  194SOL    HW210157   3.243   9.907   0.883 -0.3260  0.2660 -1.6338
  195SOL     OW10158   3.185   1.183   0.344  0.1015 -1.0742  0.4638
  195SOL    HW110159   3.191   1.107   0.409 -0.2015 -0.4370  1.2561
  195SOL    HW210160   3.089   1.208   0.331 -0.1495 -3.4894 -2.9731
  196SOL     OW10161   2.930   1.539   2.684  0.3698  0.2662 -0.2384
  196SOL    HW110162   2.985   1.569   2.606  0.8763  1.1229  0.4421
  196SOL    HW210163   2.839   1.579   2.679  0.7571  1.2087  0.1931
  197SOL     OW10164   2.560   0.187   0.308 -0.1199 -0.4792 -0.2490
  197SOL    HW110165   2.556   0.233   0.396  1.8122  0.7455 -0.7676
  197SOL    HW210166   2.653   0.191   0.272 -0.7823 -1.3260 -2.1564
  198SOL     OW10167   3.013   1.547   1.931 -0.5639 -0.5477 -0.6636
  198SOL    HW110168   3.019   1.593   2.019 -1.4024 -0.7861 -0.4864
  198SOL    HW210169   3.047   1.609   1.859  0.1231 -0.3581 -0.1874
  199SOL     OW10170   4.230   9.334   2.570  0.1266  0.9384  0.1754
  199SOL    HW110171   4.132   9.321   2.587 -0.6938  0.8108 -4.0422
  199SOL    HW210172   4.266   9.254   2.522  1.7726  1.9168 -0.2479
  200SOL     OW10173   3.189   8.818   1.452  0.0237 -0.0963 -0.5866
  200SOL    HW110174   3.170   8.820   1.550 -0.9328 -0.9785 -0.7405
  200SOL    HW210175   3.199   8.911   1.418 -0.3554  0.2404  0.2237
  201SOL     OW10176   2.696   0.297   2.569  0.1474 -0.1724  0.1681
  201SOL    HW110177   2.703   0.379   2.625 -1.7443 -0.4997  0.9158
  201SOL    HW210178   2.758   0.227   2.606 -0.2505 -0.0044  1.1836
  202SOL     OW10179   3.415   8.967   2.406  0.2256 -0.5118  0.1171
  202SOL    HW110180   3.372   8.963   2.497 -0.1955 -0.1021 -0.0591
  202SOL    HW210181   3.443   8.875   2.378  0.6108 -0.5985  0.7807
  203SOL     OW10182   2.256   0.393   0.944 -0.4664  0.0233  0.3144
  203SOL    HW110183   2.291   0.362   0.856  0.7014 -2.9591  1.7453
  203SOL    HW210184   2.282   0.488   0.959  2.2391 -0.4337 -1.1259
  204SOL     OW10185   2.453   9.615   1.067 -0.2871  0.2531 -0.1111
  204SOL    HW110186   2.505   9.620   0.982  0.0725 -0.9615  0.0249
  204SOL    HW210187   2.454   9.704   1.113  2.4750  0.0038  0.3672
  205SOL     OW10188   2.485   9.700   1.376  0.5208  0.3435  0.5717
  205SOL    HW110189   2.480   9.780   1.317 -1.7650  0.1645  0.4749
  205SOL    HW210190   2.472   9.617   1.322 -0.8915  0.1372  1.2008
  206SOL     OW10191   3.342   0.353   0.246 -0.3709  0.2521  0.0267
  206SOL    HW110192   3.256   0.404   0.245 -0.3066  0.4047  1.1365
  206SOL    HW210193   3.417   0.413   0.217 -0.5105  0.3821 -0.0624
  207SOL     OW10194   4.277   0.415   1.985 -0.1781  0.3797 -0.0778
  207SOL    HW110195   4.234   0.366   1.909 -1.5367 -0.4588  1.1903
  207SOL    HW210196   4.269   0.359   2.068  0.4569  1.6891  0.8695
  208SOL     OW10197   3.954   1.803   1.047 -0.2564 -0.4531 -0.3873
  208SOL    HW110198   4.050   1.776   1.056 -0.0942 -0.0855 -1.0079
  208SOL    HW210199   3.930   1.813   0.951 -0.4695  1.0309 -0.2004
  209SOL     OW10200   4.327   9.973   1.778 -0.0304 -0.0668  0.0166
  209SOL    HW110201   4.305   9.935   1.687 -0.4903  1.9191 -0.7127
  209SOL    HW210202   4.350   9.898   1.840  1.2799 -1.3991 -2.0134
  210SOL     OW10203   3.993   0.740   1.571 -0.2271  0.0849  0.2827
  210SOL    HW110204   4.091   0.723   1.562  0.3905  2.7642  1.3849
  210SOL    HW210205   3.968   0.741   1.668 -0.8180  1.8944  0.1424
  211SOL     OW10206   2.882   0.391   0.141  0.3404  0.4863 -0.0280
  211SOL    HW110207   2.875   0.414   0.044  0.2667 -2.6255 -0.8379
  211SOL    HW210208   2.805   0.431   0.190  0.9202  2.9324 -1.0383
  212SOL     OW10209   2.408   9.731   0.233 -0.2341  0.3267 -0.1023
  212SOL    HW110210   2.362   9.773   0.312  0.3399  0.6398  0.0667
  212SOL    HW210211   2.492   9.687   0.264  0.5323  1.3449 -0.6988
  213SOL     OW10212   3.375   8.616   0.806 -0.2940 -0.1631 -0.0081
  213SOL    HW110213   3.321   8.679   0.863  0.1415 -0.9344  1.2894
  213SOL    HW210214   3.372   8.524   0.846  0.0477 -0.7109 -1.2326
  214SOL     OW10215   2.694   9.390   0.478 -0.0474 -0.3424 -0.4626
  214SOL    HW110216   2.772   9.341   0.438  0.4979 -0.0408  0.2312
  214SOL    HW210217   2.623   9.325   0.504 -0.5542 -0.5335 -2.2076
  215SOL     OW10218   2.578   9.704   2.325 -0.3903  0.5416 -0.1296
  215SOL    HW110219   2.653   9.739   2.269 -0.5412 -0.6105 -1.0517
  215SOL    HW210220   2.603   9.712   2.422  1.5785 -1.2795 -0.4521
  216SOL     OW10221   4.400   1.357   0.557 -0.4902 -0.3600  0.4229
  216SOL    HW110222   4.422   1.298   0.635  1.8420 -0.8765 -0.5776
  216SOL    HW210223   4.328   1.313   0.502  0.1555 -1.5722  0.5144
  217SOL     OW10224   4.712   1.119   1.050 -0.1040  0.7525 -0.2999
  217SOL    HW110225   4.695   1.198   0.991 -0.7782  1.4227  0.7735
  217SOL    HW210226   4.627   1.091   1.094  0.3798  0.2560  0.3347
  218SOL     OW10227   3.995   0.642   1.161  0.0089  0.0662 -0.3778
  218SOL    HW110228   3.906   0.672   1.127  0.5925  1.5334 -0.6378
  218SOL    HW210229   4.020   0.556   1.116 -0.8702  0.1000 -0.9574
  219SOL     OW10230   2.153   9.552   1.578  0.1515 -0.2829  0.0699
  219SOL    HW110231   2.187   9.499   1.500  0.1841 -0.2736  0.0782
  219SOL    HW210232   2.066   9.595   1.553 -0.2833 -0.9945  0.3289
  220SOL     OW10233   3.114   0.415   1.285 -0.0163 -0.2729  0.1794
  220SOL    HW110234   3.167   0.331   1.289  0.7266  0.1437 -0.8279
  220SOL    HW210235   3.176   0.494   1.287 -0.7523  0.2846  2.2561
  221SOL     OW10236   3.142   0.256   0.657 -0.0828  0.3299 -0.3357
  221SOL    HW110237   3.182   0.335   0.703  1.9751 -0.5924 -0.4479
  221SOL    HW210238   3.048   0.244   0.686 -0.2761  2.5131  0.0610
  222SOL     OW10239   2.637   0.723   1.909 -0.0688 -0.4152  0.0945
  222SOL    HW110240   2.621   0.782   1.830  1.3858 -0.4315 -0.2222
  222SOL    HW210241   2.550   0.699   1.951 -0.8554 -0.5444 -1.5968
  223SOL     OW10242   4.527   0.405   2.616 -0.3186 -0.1295  0.1311
  223SOL    HW110243   4.619   0.445   2.616  1.1145 -3.0712 -4.2077
  223SOL    HW210244   4.460   0.477   2.597  1.4051  1.5029  0.0955
  224SOL     OW10245   3.688   0.982   2.556  0.2434  0.5612  0.2081
  224SOL    HW110246   3.716   0.969   2.651 -0.1453 -0.6168  0.1719
  224SOL    HW210247   3.736   1.060   2.517  2.5855 -0.6794  0.5081
  225SOL     OW10248   2.902   0.714   0.280  0.2504  0.1652 -0.3334
  225SOL    HW110249   2.811   0.689   0.245 -0.1904 -1.1438  1.6482
  225SOL    HW210250   2.964   0.728   0.203 -0.8247 -2.0001 -1.6723
  226SOL     OW10251   4.315   9.999   0.366 -0.1884 -0.2885  0.5197
  226SOL    HW110252   4.379   9.927   0.390 -0.3511  0.1983  2.4707
  226SOL    HW210253   4.248   9.963   0.301  1.1258 -1.2185 -0.3517
  227SOL     OW10254   3.756  10.127   1.688 -0.0037 -0.4858  0.3602
  227SOL    HW110255   3.853  10.148   1.695 -0.1473 -0.3046  2.1295
  227SOL    HW210256   3.739  10.072   1.607  1.7348 -1.4191  0.6065
  228SOL     OW10257   2.671   1.061   1.589 -0.8120 -0.4243 -0.1184
  228SOL    HW110258   2.742   1.092   1.525 -0.0253 -0.3285  0.7864
  228SOL    HW210259   2.670   1.122   1.669 -1.0832 -1.1535  0.4368
  229SOL     OW10260   3.536   9.967   0.168  0.5467  0.2272  0.1437
  229SOL    HW110261   3.607  10.022   0.124  0.1613  0.7914  0.2193
  229SOL    HW210262   3.449  10.016   0.164  0.2321 -0.3116  0.3495
  230SOL     OW10263   3.463   9.948   0.620 -0.3962  0.0105 -0.2245
  230SOL    HW110264   3.463  10.046   0.597 -0.3649  0.4299  1.4938
  230SOL    HW210265   3.556   9.918   0.639 -0.5831  0.0082  0.7108
  231SOL     OW10266   3.811   9.976   2.234  0.1485  0.1855 -0.3810
  231SOL    HW110267   3.743   9.996   2.163 -0.5752  0.7236  0.4551
  231SOL    HW210268   3.768   9.927   2.309  1.2574 -1.7697 -0.9948
  232SOL     OW10269   3.896   0.815   2.431 -0.8251  0.4337  0.3460
  232SOL    HW110270   3.806   0.857   2.433 -0.9647  0.1851 -0.5374
  232SOL    HW210271   3.935   0.816   2.523 -2.7274 -1.5808  1.2250
  233SOL     OW10272   3.066   9.743   2.367 -0.5994 -0.4017 -0.0697
  233SOL    HW110273   3.039   9.661   2.316  1.3320 -1.3400  0.3880
  233SOL    HW210274   2.990   9.809   2.365 -1.7007 -1.6549 -1.5270
  234SOL     OW10275   2.642   0.250   0.824 -0.3085 -0.1914 -0.6225
  234SOL    HW110276   2.641   0.172   0.885  2.7779 -0.0457 -0.2968
  234SOL    HW210277   2.640   0.335   0.877 -2.5960 -0.0349 -0.9334
  235SOL     OW10278   3.122   0.603   2.213  0.0616  0.3190 -0.5533
  235SOL    HW110279   3.101   0.688   2.165  0.9883  0.8131 -0.1085
  235SOL    HW210280   3.162   0.537   2.148 -3.5186 -0.9378 -1.5861
  236SOL     OW10281   3.972   1.748   2.410 -0.2821  0.5259 -0.3014
  236SOL    HW110282   3.878   1.760   2.443 -0.4968  2.3491 -1.4928
  236SOL    HW210283   4.030   1.818   2.451  0.6271 -0.7584  0.6294
  237SOL     OW10284   2.816   0.874   1.171 -0.1196 -0.0444  0.6618
  237SOL    HW110285   2.852   0.815   1.099 -0.2270 -0.2916  0.8099
  237SOL    HW210286   2.771   0.818   1.241 -1.3804  0.3051  0.1522
  238SOL     OW10287   2.664   9.686   0.901 -0.2022 -0.2015  0.2166
  238SOL    HW110288   2.635   9.767   0.851 -2.6368 -1.6546 -0.8193
  238SOL    HW210289   2.705   9.621   0.837  0.4875 -0.3691  0.8214
  239SOL     OW10290   3.356   9.692   1.110  0.4026  0.3244  0.1096
  239SOL    HW110291   3.330   9.601   1.077  1.1006 -0.2555  1.1310
  239SOL    HW210292   3.382   9.749   1.032  1.9942 -1.0212 -0.3988
  240SOL     OW10293   3.325   0.728   2.387  0.4010 -0.2926  0.3712
  240SOL    HW110294   3.358   0.822   2.379 -1.1951  0.3595  1.2234
  240SOL    HW210295   3.258   0.710   2.316 -0.1800 -0.3962  0.9375
  241SOL     OW10296   2.691   1.322   0.182  0.0859 -0.1424  0.2410
  241SOL    HW110297   2.599   1.300   0.149  0.8236 -1.5206 -0.9501
  241SOL    HW210298   2.694   1.314   0.282 -1.2230  0.4851  0.3406
  242SOL     OW10299   2.779   1.808   1.377 -0.9888  0.3051  0.4740
  242SOL    HW110300   2.721   1.872   1.327 -2.0130  0.2255  1.5417
  242SOL    HW210301   2.746   1.715   1.363 -0.1540  0.1012 -0.1946
  243SOL     OW10302   3.645   9.120   2.385  0.2332 -0.1566 -0.3225
  243SOL    HW110303   3.608   9.213   2.384  1.1179  0.1976 -1.6681
  243SOL    HW210304   3.575   9.057   2.353 -1.0530 -0.2565  2.5044
  244SOL     OW10305   2.371   1.087   0.748 -0.2205  0.5259  0.0636
  244SOL    HW110306   2.298   1.154   0.730 -0.8878  0.0072  0.8199
  244SOL    HW210307   2.459   1.135   0.754 -0.2835  0.9848 -2.2875
  245SOL     OW10308   3.844   1.015   0.503 -0.9810 -0.7628 -0.3324
  245SOL    HW110309   3.779   1.058   0.439 -1.5100  0.1491  0.7857
  245SOL    HW210310   3.793   0.968   0.574 -0.4444  0.6440  1.0176
  246SOL     OW10311   3.872   0.729   1.805  0.6774 -0.4110  0.4699
  246SOL    HW110312   3.818   0.652   1.839 -0.0506 -0.6281 -1.1354
  246SOL    HW210313   3.870   0.804   1.872 -0.7537 -0.8086  0.8881
  247SOL     OW10314   2.906   9.254   0.363 -0.0429  0.1406 -0.4749
  247SOL    HW110315   2.993   9.252   0.412  0.2697 -2.5532 -1.0964
  247SOL    HW210316   2.923   9.272   0.266 -0.1351 -1.0110 -0.7032
  248SOL     OW10317   4.445   9.213   1.934  0.3870 -0.0215 -0.0875
  248SOL    HW110318   4.411   9.142   1.873  0.4599 -0.0037 -0.1492
  248SOL    HW210319   4.543   9.202   1.947  0.1303 -0.9143  1.2014
  249SOL     OW10320   3.520   9.686   0.138 -0.1606  0.4426 -0.0856
  249SOL    HW110321   3.452   9.639   0.195 -0.8524  0.5701 -0.7907
  249SOL    HW210322   3.519   9.784   0.158 -0.2004  0.4463 -0.1102
  250SOL     OW10323   3.387   1.466   2.090 -0.1406 -0.7315  0.1507
  250SOL    HW110324   3.402   1.526   2.012  0.5879 -0.6285  0.3683
  250SOL    HW210325   3.468   1.410   2.105 -0.4169 -1.0116  0.6105
  251SOL     OW10326   2.332   0.704   2.074 -0.3524 -0.5551 -0.1115
  251SOL    HW110327   2.330   0.629   2.141  1.8733  0.2485  0.9279
  251SOL    HW210328   2.309   0.668   1.984 -0.2699 -2.3117  0.5358
  252SOL     OW10329   3.450   0.263   1.465  0.4280  0.2568  0.5702
  252SOL    HW110330   3.419   0.355   1.443  0.5457  0.0743 -0.3864
  252SOL    HW210331   3.546   0.253   1.438  0.6952  0.1643  1.5674
  253SOL     OW10332   2.954   9.008   2.500 -0.3054 -0.3386  0.3469
  253SOL    HW110333   3.035   9.038   2.450 -1.4069 -2.0583 -2.5474
  253SOL    HW210334   2.874   9.014   2.441 -1.4209 -3.8742  1.3599
  254SOL     OW10335   2.247   9.228   0.800  0.2796  1.0373  0.0203
  254SOL    HW110336   2.215   9.283   0.723 -3.8360  0.0942  0.9524
  254SOL    HW210337   2.227   9.275   0.885  2.6775  1.0042  0.6343
  255SOL     OW10338   2.370   9.879   1.604 -0.0834  0.0863 -0.1635
  255SOL    HW110339   2.373   9.899   1.702 -2.2635 -0.1587 -0.0155
  255SOL    HW210340   2.364   9.780   1.591 -2.1450  0.2147 -0.4236
  256SOL     OW10341   4.448   9.491   2.009 -0.3497  0.4206  0.5893
  256SOL    HW110342   4.487   9.503   2.101 -2.1806 -1.6311  1.6691
  256SOL    HW210343   4.429   9.395   1.993  1.2402  0.5429 -2.5440
  257SOL     OW10344   3.130   1.445   1.035  0.2016 -0.2076  0.0625
  257SOL    HW110345   3.101   1.532   1.073 -0.6221 -0.8563  0.9602
  257SOL    HW210346   3.081   1.427   0.950 -0.0850 -0.0746  0.1994
  258SOL     OW10347   4.174  10.048   2.353 -0.5063 -0.1515 -0.3388
  258SOL    HW110348   4.209  10.008   2.438  1.8353 -0.6062 -1.4682
  258SOL    HW210349   4.182  10.147   2.356  0.8204 -0.2363 -0.5066
  259SOL     OW10350   4.153   9.606   0.108 -0.6028  0.6512 -0.2841
  259SOL    HW110351   4.230   9.542   0.117  0.5306  2.0146 -0.1383
  259SOL    HW210352   4.081   9.563   0.054  0.6772 -0.2976 -1.2865
  260SOL     OW10353   2.364   0.883   0.960  0.0858  0.4111  0.6576
  260SOL    HW110354   2.327   0.954   0.901  0.0672 -0.5318 -0.4900
  260SOL    HW210355   2.440   0.920   1.014 -0.6798  1.5905  0.9290
  261SOL     OW10356   3.574   8.977   2.081  0.8392 -0.4034  0.4938
  261SOL    HW110357   3.526   8.907   2.135 -1.2489  1.1922  0.7929
  261SOL    HW210358   3.527   8.987   1.993 -0.9822  2.9303  1.7609
  262SOL     OW10359   3.362   1.836   2.678 -0.2326  0.0791  0.3322
  262SOL    HW110360   3.331   1.925   2.711 -2.3506 -0.9986  1.3562
  262SOL    HW210361   3.438   1.803   2.734  0.3746  1.1045  0.1190
  263SOL     OW10362   2.694   1.954   1.123  0.4422  0.1305 -0.5782
  263SOL    HW110363   2.743   2.033   1.159  0.1289  0.7024 -1.3978
  263SOL    HW210364   2.597   1.975   1.116 -0.1751 -1.4984  2.4226
  264SOL     OW10365   2.928   1.282   2.768  0.0968  0.6586  0.3065
  264SOL    HW110366   2.917   1.372   2.727  0.2782  0.0136 -1.1977
  264SOL    HW210367   2.868   1.274   2.848  0.8356  2.4465  1.0542
  265SOL     OW10368   3.521   9.375   2.495 -0.0976  0.4564  0.0588
  265SOL    HW110369   3.422   9.377   2.497 -0.1959  0.8347 -2.6883
  265SOL    HW210370   3.558   9.462   2.527 -0.6187  0.2214  1.3286
  266SOL     OW10371   3.343   9.556   2.666  0.0710 -0.2090 -0.1481
  266SOL    HW110372   3.434   9.586   2.696 -0.6861  0.3831  1.6477
  266SOL    HW210373   3.274   9.620   2.699 -0.8881  0.1209 -2.7253
  267SOL     OW10374   3.215   9.357   2.525  0.0557 -0.2595 -0.3953
  267SOL    HW110375   3.256   9.442   2.560  2.4248 -1.5094 -0.0138
  267SOL    HW210376   3.200   9.294   2.600 -0.7242 -0.5694 -0.8114
  268SOL     OW10377   4.058   9.988   2.121 -0.4031  0.3208 -0.4355
  268SOL    HW110378   4.121  10.013   2.195  0.0882 -0.9746 -0.4044
  268SOL    HW210379   3.964  10.006   2.151 -0.0722  2.2111 -0.4612
  269SOL     OW10380   2.381   0.610   1.050 -0.5139 -0.3137 -0.2326
  269SOL    HW110381   2.373   0.618   1.149  0.7199 -0.3075 -0.1236
  269SOL    HW210382   2.378   0.701   1.009  1.4769 -0.1091  0.0184
  270SOL     OW10383   2.680   9.753   1.594 -0.3778  0.9105  0.0330
  270SOL    HW110384   2.635   9.728   1.680  0.6750  0.0234  0.3311
  270SOL    HW210385   2.611   9.788   1.530 -1.0354  2.5010  1.5683
  271SOL     OW10386   2.843   1.107   1.366 -0.3482 -0.0868 -0.4630
  271SOL    HW110387   2.821   1.099   1.269 -4.8249  0.1779  0.4328
  271SOL    HW210388   2.856   1.016   1.405  2.1449 -0.1675 -1.3791
  272SOL     OW10389   2.557   0.828   1.660 -0.0497  0.0208  0.1808
  272SOL    HW110390   2.475   0.807   1.605 -0.7955  0.1723  1.2210
  272SOL    HW210391   2.593   0.917   1.634 -0.6626  0.2892  0.2599
  273SOL     OW10392   3.417   0.501   1.250 -0.8537 -0.0471  0.6518
  273SOL    HW110393   3.397   0.590   1.209 -0.5832  1.4775  3.6158
  273SOL    HW210394   3.512   0.500   1.281 -0.1782 -2.2545 -1.3883
  274SOL     OW10395   2.680   0.727   1.357  0.1583 -0.1184 -0.1854
  274SOL    HW110396   2.756   0.730   1.421  0.1482 -0.1329 -0.1730
  274SOL    HW210397   2.626   0.644   1.372 -0.1771  0.1617  0.1690
  275SOL     OW10398   4.091   9.741   2.028 -0.2936 -0.1394  0.4867
  275SOL    HW110399   4.185   9.738   1.994 -0.9935 -1.0186 -1.4817
  275SOL    HW210400   4.076   9.827   2.077  1.4963  0.0482  0.7326
  276SOL     OW10401   3.510   8.793   0.636  0.4002 -0.2868  0.8271
  276SOL    HW110402   3.442   8.736   0.681 -0.8507  1.0960  0.7431
  276SOL    HW210403   3.598   8.785   0.683 -0.0542 -1.4049  1.4827
  277SOL     OW10404   2.610   9.558   1.815 -0.3298 -0.8176  0.0107
  277SOL    HW110405   2.510   9.556   1.812 -0.4096 -2.0311  2.4921
  277SOL    HW210406   2.644   9.478   1.863  1.7113  1.1156  1.9012
  278SOL     OW10407   4.306   1.592   0.670  0.0732 -0.6168 -0.9324
  278SOL    HW110408   4.386   1.646   0.695 -0.9447  0.5541 -0.1465
  278SOL    HW210409   4.335   1.504   0.632  1.7325  0.7968 -2.9671
  279SOL     OW10410   3.685  10.129   0.536  0.0400 -0.3881  0.1370
  279SOL    HW110411   3.591  10.159   0.516 -0.2409 -2.3556 -1.7186
  279SOL    HW210412   3.740  10.136   0.453  0.8904 -1.5158  0.5990
  280SOL     OW10413   3.603   9.821   0.396 -0.3392  0.2545 -0.2349
  280SOL    HW110414   3.602   9.869   0.308 -1.2682 -0.3410 -0.5556
  280SOL    HW210415   3.539   9.864   0.459 -0.3064  0.1522 -0.1296
  281SOL     OW10416   3.161   1.520   1.485 -0.2586 -1.0951 -0.0298
  281SOL    HW110417   3.237   1.456   1.476  0.3449 -0.1972 -1.7585
  281SOL    HW210418   3.075   1.470   1.484  0.2038 -1.8931 -1.4486
  282SOL     OW10419   3.835   9.064   2.186 -0.3016 -0.0295 -0.3047
  282SOL    HW110420   3.808   9.085   2.280  0.2178 -1.0130  0.0724
  282SOL    HW210421   3.757   9.024   2.137 -0.1701 -0.8325  0.1330
  283SOL     OW10422   3.261   9.440   0.993  0.0823  0.1241 -0.0472
  283SOL    HW110423   3.265   9.355   1.045  0.0875  0.8907  1.2383
  283SOL    HW210424   3.172   9.447   0.948  1.0168 -1.7390 -2.2469
  284SOL     OW10425   4.229   0.598   1.520  0.5018  0.0036 -0.0189
  284SOL    HW110426   4.316   0.570   1.561 -1.1274 -2.2241  2.0314
  284SOL    HW210427   4.245   0.676   1.459  3.7453  0.3555  1.1687
  285SOL     OW10428   2.796   9.525   1.072 -0.3342  0.3327 -0.5425
  285SOL    HW110429   2.747   9.464   1.134 -0.3574  0.8695 -0.0252
  285SOL    HW210430   2.730   9.585   1.026 -0.3001  0.0532 -0.9558
  286SOL     OW10431   2.355   0.481   2.279  0.0027  0.4839 -0.1795
  286SOL    HW110432   2.447   0.440   2.280 -0.5563 -0.7924 -0.4845
  286SOL    HW210433   2.305   0.451   2.360 -0.0879  1.3277  0.0801
  287SOL     OW10434   2.817   1.722   1.070  0.2604  0.5218  0.1719
  287SOL    HW110435   2.912   1.729   1.039 -0.0590  0.9583 -0.7219
  287SOL    HW210436   2.770   1.808   1.052 -0.4609  0.1108  0.0754
  288SOL     OW10437   2.717   1.543   1.263 -0.6819  0.2183 -0.2367
  288SOL    HW110438   2.756   1.608   1.198 -0.7717 -0.6068 -1.1171
  288SOL    HW210439   2.673   1.468   1.214 -1.8897  0.2595  0.7626
  289SOL     OW10440   3.647   9.917   0.948 -0.1090  0.3217 -0.3389
  289SOL    HW110441   3.694   9.917   0.860 -1.5418  0.1622 -1.1100
  289SOL    HW210442   3.566   9.858   0.943 -0.0480  0.0996  1.1609
  290SOL     OW10443   2.566   0.874   0.647  0.4884  0.3096 -0.0412
  290SOL    HW110444   2.625   0.953   0.636  0.1489  0.4852 -0.6229
  290SOL    HW210445   2.495   0.894   0.715  0.0011  0.7457 -0.6709
  291SOL     OW10446   2.288   9.407   1.001 -0.5584 -0.4319 -0.4325
  291SOL    HW110447   2.211   9.444   1.054  0.9065 -1.5840  2.6113
  291SOL    HW210448   2.366   9.469   1.008  0.5959 -2.0609  1.2664
  292SOL     OW10449   2.420   9.848   2.722 -0.0482 -0.5080  0.3272
  292SOL    HW110450   2.412   9.811   2.814  1.2485 -1.0916  0.2101
  292SOL    HW210451   2.370   9.935   2.716 -1.0726 -1.0290  1.2593
  293SOL     OW10452   4.093   0.528   0.596  0.6107  0.5889 -0.2355
  293SOL    HW110453   4.060   0.443   0.555  0.8444  0.2785  0.2263
  293SOL    HW210454   4.166   0.508   0.661 -0.7521  0.9590  1.4256
  294SOL     OW10455   3.000   9.466   2.708  0.6478  0.0349 -0.4386
  294SOL    HW110456   3.024   9.563   2.716  0.8879 -0.0801  0.2586
  294SOL    HW210457   3.002   9.440   2.612  2.8786  0.1688 -0.4603
  295SOL     OW10458   2.439   9.073   0.694  0.1425  0.4739 -0.4452
  295SOL    HW110459   2.417   9.164   0.729 -0.7836 -0.0148  0.2743
  295SOL    HW210460   2.363   9.011   0.713  0.6378 -0.3791 -1.2013
  296SOL     OW10461   3.386   9.527   0.762  0.5704 -0.0811  0.2466
  296SOL    HW110462   3.476   9.559   0.792  0.2215  1.0735  0.0590
  296SOL    HW210463   3.338   9.486   0.840  0.4968  1.0397  0.7939
  297SOL     OW10464   2.775   0.718   0.767 -0.1662 -0.1206 -0.4518
  297SOL    HW110465   2.828   0.695   0.686 -0.9787  0.8924 -1.2819
  297SOL    HW210466   2.690   0.762   0.740  0.2078  1.5453  0.9941
  298SOL     OW10467   3.491   0.937   2.310 -0.7498  0.1774  0.0744
  298SOL    HW110468   3.542   0.944   2.396 -0.4753  1.9899 -0.2164
  298SOL    HW210469   3.554   0.915   2.236 -0.6946  0.5658  0.0100
  299SOL     OW10470   3.792   0.340   1.042  0.1345 -0.1906  0.9590
  299SOL    HW110471   3.719   0.273   1.047  0.3205 -0.5661 -0.9928
  299SOL    HW210472   3.762   0.420   0.990  1.9767 -1.5889 -2.4176
  300SOL     OW10473   2.349  10.008   1.001  0.2936  0.3868 -0.1212
  300SOL    HW110474   2.295  10.084   1.036 -1.6473 -0.2838 -1.5301
  300SOL    HW210475   2.345  10.008   0.901 -0.3474 -1.9655 -0.1254
  301SOL     OW10476   2.806   1.464   1.756 -0.0568 -0.3185  0.1044
  301SOL    HW110477   2.866   1.486   1.833  0.0216 -0.0612 -0.0328
  301SOL    HW210478   2.834   1.515   1.675  0.7187 -1.6259 -0.4661
  302SOL     OW10479   3.725   9.644   2.253 -0.1987  0.7244  0.6503
  302SOL    HW110480   3.658   9.665   2.182 -0.3648  0.5228  0.7478
  302SOL    HW210481   3.803   9.596   2.212 -1.2085 -1.1859  0.9368
  303SOL     OW10482   4.125   1.441   0.830  0.6545 -0.1198 -0.0043
  303SOL    HW110483   4.052   1.409   0.769 -0.1593  1.0708  0.3311
  303SOL    HW210484   4.190   1.495   0.778 -0.4464  1.5344  0.3085
  304SOL     OW10485   4.196   0.794   1.322 -0.1556 -0.0451  0.4151
  304SOL    HW110486   4.154   0.885   1.326  0.4704  0.2030  1.5504
  304SOL    HW210487   4.146   0.737   1.257 -2.2074  0.2665  1.6793
  305SOL     OW10488   4.081  10.151   0.677  0.1849 -0.6454  0.0957
  305SOL    HW110489   4.180  10.163   0.665  0.2815  0.4874  1.7747
  305SOL    HW210490   4.063  10.117   0.769 -1.0520  0.0634  0.1241
  306SOL     OW10491   2.952   9.953   1.571 -0.1345  0.0790  0.8242
  306SOL    HW110492   2.878   9.927   1.509  0.0004 -2.1406  1.5475
  306SOL    HW210493   3.039   9.950   1.521 -0.1070 -0.9938  0.9367
  307SOL     OW10494   2.405   0.468   1.925 -0.1995  0.8020  0.0413
  307SOL    HW110495   2.370   0.431   2.011  2.2807  0.5268  0.9712
  307SOL    HW210496   2.439   0.394   1.868  2.2109  1.3442  0.7199
  308SOL     OW10497   4.427   0.229   1.735 -0.0355 -0.1356  0.2286
  308SOL    HW110498   4.393   0.135   1.727  0.5740 -0.4997  1.5877
  308SOL    HW210499   4.428   0.255   1.832  0.8502  0.8814 -0.0488
  309SOL     OW10500   3.243  10.115   1.588 -0.2677  0.1742  0.1754
  309SOL    HW110501   3.246  10.016   1.569 -1.1566  0.5681 -2.1576
  309SOL    HW210502   3.309  10.162   1.530  0.2489  0.9422  1.3808
  310SOL     OW10503   4.150  10.133   1.905  0.4602  0.1323 -0.1295
  310SOL    HW110504   4.228  10.083   1.866 -0.3963 -0.1105 -1.5813
  310SOL    HW210505   4.114  10.082   1.983  0.0251 -1.2075 -1.1682
  311SOL     OW10506   2.523   0.960   1.182  0.0676  0.1734 -0.1750
  311SOL    HW110507   2.594   0.919   1.239 -1.2110 -1.5051  0.2481
  311SOL    HW210508   2.435   0.957   1.229 -0.6944  0.2804 -1.5420
  312SOL     OW10509   2.848   0.544   1.835 -0.1299 -0.1353  0.6174
  312SOL    HW110510   2.776   0.610   1.858 -2.2875 -2.2707  0.2647
  312SOL    HW210511   2.858   0.479   1.910  0.7763 -0.4283  0.2502
  313SOL     OW10512   3.615   1.769   0.792 -0.7403  0.0110  0.5880
  313SOL    HW110513   3.553   1.691   0.788 -0.7639 -0.0264  1.6482
  313SOL    HW210514   3.661   1.780   0.704 -2.5611  0.2923 -0.3533
  314SOL     OW10515   3.737   9.907   0.683 -0.1597  0.0484 -0.1241
  314SOL    HW110516   3.737   9.990   0.626 -1.1585 -0.6988 -1.2388
  314SOL    HW210517   3.759   9.828   0.627 -0.5953 -0.6263  0.6448
  315SOL     OW10518   3.548   9.747   2.065 -0.3806 -0.3362  0.9346
  315SOL    HW110519   3.588   9.812   2.000  1.8039 -2.7979 -0.2685
  315SOL    HW210520   3.478   9.693   2.019 -1.3349  0.2860  1.6171
  316SOL     OW10521   2.646   0.509   0.199 -0.4912 -0.3904 -0.6860
  316SOL    HW110522   2.590   0.496   0.280 -1.1627 -0.3969 -1.1518
  316SOL    HW210523   2.599   0.570   0.135 -0.4334 -1.2249 -1.5244
  10.00000  10.00000   2.88200
