chitosan Film  in water:acetic acid 2%
12803
    1CHTO  H203    1   5.107   6.644   2.257  0.8720  1.8106 -0.7241
    1CHTO   O82    2   5.164   6.594   2.201  0.0674  0.0765 -0.0275
    1CHTO  C123    3   5.291   6.577   2.264  0.8506  0.4680 -0.5541
    1CHTO  H227    4   5.307   6.658   2.337 -0.5232  1.0334 -0.8712
    1CHTO   O77    5   5.272   6.448   2.331 -0.1329  0.4138  0.0575
    1CHTO  C118    6   5.384   6.397   2.404 -0.5938 -0.9873  1.1274
    1CHTO  H222    7   5.414   6.470   2.480  1.3062 -2.4104  1.7683
    1CHTO  C125    8   5.338   6.267   2.485 -0.1188 -0.2190  0.3203
    1CHTO   O84    9   5.304   6.159   2.402  0.1614  0.0404 -0.3611
    1CHTO  H205   10   5.213   6.169   2.378  0.2248  0.2793 -0.5122
    1CHTO  C114   11   5.500   6.378   2.302 -0.5934 -0.0871 -0.6249
    1CHTO  H218   12   5.472   6.306   2.226 -0.9877 -1.2806  0.6296
    1CHTO  C116   13   5.536   6.509   2.231  0.0263  0.0709 -0.0161
    1CHTO  H220   14   5.570   6.576   2.313 -1.2627 -0.5302  1.0423
    1CHTO   O79   15   5.645   6.480   2.138  0.4017 -0.0131  0.4894
    1CHTO  H201   16   5.718   6.538   2.146 -0.2974  0.6054  2.7305
    1CHTO  C120   17   5.412   6.576   2.162 -0.1295 -0.1269  0.1197
    1CHTO  H224   18   5.391   6.525   2.066  1.1326  0.6277 -0.5663
    1CHTO   N21   19   5.443   6.716   2.119 -0.1916 -0.5083 -0.6046
    1CHTO  H211   20   5.486   6.732   2.022 -1.7132  1.7808 -0.9404
    1CHTO  H212   21   5.511   6.754   2.193 -0.7593 -0.3726 -0.1478
    1CHTO   O75   22   5.606   6.320   2.381 -0.0323  0.1827 -0.3421
    1CHTO  C112   23   5.677   6.181   2.321  0.1025  0.2482 -0.1261
    1CHTO  H216   24   5.671   6.184   2.211  0.5480  1.6241 -0.1192
    1CHTO   O73   25   5.599   6.069   2.371 -0.1036  0.0067 -0.3218
    1CHTO  C113   26   5.647   5.947   2.315 -0.2021  0.6619  0.4025
    1CHTO  H217   27   5.641   5.943   2.204 -0.9254  0.2980  0.4513
    1CHTO  C124   28   5.564   5.833   2.367 -1.1303 -0.1444 -0.4952
    1CHTO   O83   29   5.425   5.855   2.345  0.0149  0.1757  0.2364
    1CHTO  H204   30   5.397   5.817   2.264 -1.6319  0.1468  0.7988
    1CHTO  C109   31   5.787   5.924   2.366 -0.2675 -0.7564  0.8534
    1CHTO  H213   32   5.777   5.914   2.475  0.8412 -0.4090  0.9978
    1CHTO  C110   33   5.886   6.040   2.330  0.0506  0.7687 -0.1560
    1CHTO  H214   34   5.898   6.040   2.221  1.6131  0.6758  0.0038
    1CHTO   O78   35   6.017   6.023   2.393  0.2478  0.3975 -0.5008
    1CHTO  H200   36   5.998   5.985   2.477  0.7721  1.4178  0.0843
    1CHTO  C111   37   5.827   6.181   2.366 -0.4882 -0.2017  0.1327
    1CHTO  H215   38   5.820   6.188   2.475  0.3448  2.4816  0.0311
    1CHTO   N19   39   5.915   6.294   2.314  0.3626 -0.3910  0.6807
    1CHTO  H207   40   5.985   6.253   2.243 -0.8811 -2.1372  0.4342
    1CHTO  H208   41   5.982   6.332   2.390  2.0704 -2.2124  0.1218
    1CHTO   O74   42   5.836   5.790   2.318  0.2720 -0.8029  0.4964
    1CHTO  C115   43   5.922   5.701   2.421 -0.2278  0.2171  0.5191
    1CHTO  H219   44   5.911   5.742   2.521 -1.4710  1.2269 -0.0130
    1CHTO   O76   45   5.866   5.557   2.437 -0.1863 -0.4779 -0.0581
    1CHTO  C122   46   5.860   5.487   2.309 -0.2087 -0.3667 -0.2399
    1CHTO  H226   47   5.764   5.517   2.266  0.0120  1.0804  0.2400
    1CHTO  C126   48   5.851   5.328   2.324 -0.1046  0.0071  0.3345
    1CHTO   O85   49   5.941   5.280   2.423  0.2793 -0.2472 -0.4639
    1CHTO  H206   50   5.910   5.198   2.456  0.7004 -0.4123 -0.4703
    1CHTO  C121   51   5.977   5.517   2.208 -0.2656  0.0431  0.3163
    1CHTO  H225   52   6.008   5.421   2.162 -0.4246  0.1553 -0.0283
    1CHTO   O81   53   5.940   5.596   2.100  0.2600 -0.3084 -0.3151
    1CHTO  H202   54   5.847   5.614   2.102  0.5292  1.1041  1.0474
    1CHTO  C119   55   6.105   5.570   2.295  0.8195  0.0089 -0.6025
    1CHTO  H223   56   6.130   5.488   2.363 -0.6281 -0.8509 -1.0830
    1CHTO  C117   57   6.066   5.698   2.382  0.2455 -0.5698  0.5744
    1CHTO  H221   58   6.069   5.784   2.315 -1.4121 -1.5533 -0.8128
    1CHTO   N20   59   6.160   5.731   2.491  0.7787  0.0534 -0.3662
    1CHTO  H209   60   6.152   5.654   2.567 -0.5649  1.0208  0.4815
    1CHTO  H210   61   6.146   5.827   2.537  2.0872  0.5020 -0.8880
    1CHTO   O80   62   6.232   5.592   2.219 -0.4723  0.1760  0.0720
    1CHTO  C103   63   6.333   5.496   2.238  0.1588  0.0891  0.1471
    1CHTO  H190   64   6.353   5.479   2.344 -1.2670 -1.4291  0.1954
    1CHTO  C101   65   6.324   5.355   2.167 -0.0289  0.1405 -0.5830
    1CHTO  H188   66   6.304   5.368   2.060  1.1356  0.8857 -0.7138
    1CHTO   O68   67   6.207   5.263   2.238 -0.7394  0.4753 -0.4751
    1CHTO  H168   68   6.173   5.201   2.176 -0.7753  1.6207 -1.6131
    1CHTO   C99   69   6.465   5.277   2.170  0.1102 -0.4467 -0.6023
    1CHTO  H186   70   6.488   5.257   2.277  2.8846  1.2507 -0.8330
    1CHTO   N17   71   6.465   5.152   2.085 -0.3385  0.5885 -0.1991
    1CHTO  H174   72   6.483   5.171   1.981 -1.8511 -1.3273 -0.8339
    1CHTO  H175   73   6.532   5.081   2.130 -0.3799  1.1676  0.8164
    1CHTO   C97   74   6.574   5.369   2.126  0.0493  0.5137 -0.2021
    1CHTO  H184   75   6.555   5.396   2.021 -1.4377  0.3068 -0.0034
    1CHTO   O64   76   6.571   5.484   2.208  0.3806  0.2851 -0.1448
    1CHTO  C104   77   6.456   5.568   2.178  0.1446  0.1007  0.3453
    1CHTO  H191   78   6.448   5.564   2.069  1.7431 -2.2146  0.2877
    1CHTO  C108   79   6.492   5.714   2.209 -0.1538  0.6026 -0.1221
    1CHTO   O71   80   6.602   5.751   2.127 -0.9107 -0.2067 -0.3092
    1CHTO  H171   81   6.573   5.827   2.081  0.2672  0.1975 -0.4000
    1CHTO   O62   82   6.709   5.313   2.159 -0.5205  0.1554 -0.0082
    1CHTO   C91   83   6.802   5.303   2.047  0.2500 -0.1299  0.0905
    1CHTO  H178   84   6.745   5.304   1.955 -1.1464  1.7482  0.9531
    1CHTO   C92   85   6.878   5.156   2.053  0.3187 -0.3729 -0.2098
    1CHTO  H179   86   6.906   5.138   2.158 -0.3400 -0.7771 -0.1000
    1CHTO   O66   87   6.781   5.057   2.012  0.2483 -0.0873 -0.1703
    1CHTO  H166   88   6.811   4.974   2.043  0.9558 -0.2333 -1.2073
    1CHTO   C93   89   7.002   5.150   1.961 -0.3250  0.4763  0.3010
    1CHTO  H180   90   6.966   5.154   1.857  0.6642  0.9223 -0.0283
    1CHTO   N16   91   7.066   5.018   1.967  0.4870 -0.4167 -0.8317
    1CHTO  H172   92   7.064   4.964   2.061  0.4158 -1.8668 -1.6543
    1CHTO  H173   93   7.018   4.959   1.891 -0.5725 -1.0932  0.3494
    1CHTO   C94   94   7.090   5.274   1.993  0.1918 -0.3540  0.7474
    1CHTO  H181   95   7.110   5.284   2.100  0.0374 -0.8719  0.8253
    1CHTO   O61   96   7.018   5.388   1.948  0.6701 -0.4299  0.0155
    1CHTO   C95   97   6.908   5.422   2.033 -0.0131  0.2406 -0.3125
    1CHTO  H182   98   6.946   5.441   2.133  1.0430  0.9732 -0.8449
    1CHTO  C106   99   6.842   5.557   1.987 -0.5671  0.1747 -0.2311
    1CHTO   O69  100   6.755   5.528   1.868 -0.0801  0.6100  0.0175
    1CHTO  H169  101   6.691   5.462   1.883  1.7910 -1.3088 -0.2397
    1CHTO   O63  102   7.236   5.269   1.913 -0.4652  0.3711 -0.0986
    1CHTO   C96  103   7.346   5.352   1.984  0.1565 -0.0268  0.0654
    1CHTO  H183  104   7.305   5.421   2.057  0.7992 -0.1674  0.5665
    1CHTO   C98  105   7.438   5.433   1.889 -0.5197 -0.1261 -0.1897
    1CHTO  H185  106   7.374   5.503   1.833 -0.3306  1.7690  1.8677
    1CHTO   O67  107   7.527   5.511   1.978 -0.1673 -0.0533  0.0090
    1CHTO  H167  108   7.571   5.578   1.929 -0.2422  0.3810  0.5343
    1CHTO  C102  109   7.529   5.335   1.799  0.7408  0.1736  0.3303
    1CHTO  H189  110   7.618   5.397   1.780  0.3087  0.6382 -0.2216
    1CHTO   N18  111   7.470   5.310   1.664 -0.0468  0.5331 -0.1045
    1CHTO  H176  112   7.389   5.239   1.666  1.6703 -1.4674  0.7292
    1CHTO  H177  113   7.430   5.401   1.620 -0.7019  0.1058 -0.3930
    1CHTO  C105  114   7.565   5.207   1.877 -0.6542  0.5830  0.3312
    1CHTO  H192  115   7.499   5.125   1.849  0.6263 -0.0690 -0.8537
    1CHTO   O65  116   7.553   5.210   2.020  0.1938 -0.6568  0.4243
    1CHTO  C100  117   7.427   5.246   2.071 -0.0773 -0.2671  0.4913
    1CHTO  H187  118   7.366   5.154   2.071  1.3703 -1.2724 -2.0538
    1CHTO  C107  119   7.444   5.291   2.216 -0.5520  0.7611 -0.3174
    1CHTO   O70  120   7.317   5.305   2.278 -0.5319 -0.5116  0.2668
    1CHTO  H170  121   7.259   5.231   2.270 -1.4758  0.2726 -0.2087
    1CHTO   O57  122   7.724   5.183   1.840  0.2377  0.9009 -0.3228
    1CHTO   C85  123   7.749   5.049   1.791 -0.2169 -0.1828  0.0850
    1CHTO  H157  124   7.677   5.024   1.710  0.5161  1.6010 -1.1683
    1CHTO   C83  125   7.720   4.945   1.904  0.1918  0.1350 -0.6242
    1CHTO  H155  126   7.613   4.945   1.925  0.4359  1.1169  0.6469
    1CHTO   O56  127   7.789   4.972   2.024 -0.3368 -0.5482 -0.2872
    1CHTO  H135  128   7.878   4.947   2.009 -0.2635 -0.3854 -0.1278
    1CHTO   C81  129   7.755   4.803   1.849 -0.2345 -0.0664 -0.1240
    1CHTO  H153  130   7.700   4.798   1.755  0.3008  1.4963 -0.5350
    1CHTO   N14  131   7.702   4.694   1.932 -0.5251 -0.4324 -0.1826
    1CHTO  H141  132   7.597   4.708   1.951 -0.6858 -2.3694  0.4437
    1CHTO  H142  133   7.716   4.599   1.886  1.5484 -1.8542  3.1865
    1CHTO   C79  134   7.905   4.805   1.818  0.2416  0.2421  0.3623
    1CHTO  H151  135   7.930   4.712   1.767  2.8626  0.4674  1.1638
    1CHTO   O52  136   7.944   4.907   1.720  0.2301  0.6109 -0.2763
    1CHTO   C86  137   7.892   5.038   1.740  0.5347  0.1787 -0.3824
    1CHTO  H158  138   7.968   5.082   1.809 -1.0967  1.0162  0.9057
    1CHTO   C90  139   7.911   5.107   1.600  0.1553 -0.4130 -0.0608
    1CHTO   O60  140   7.865   5.240   1.586  0.1561  0.0732 -0.4822
    1CHTO  H138  141   7.861   5.265   1.496 -0.0021 -1.2895 -0.8616
    1CHTO   O50  142   7.986   4.811   1.939 -0.1535  0.8919  0.0630
    1CHTO   C73  143   8.121   4.760   1.925 -0.2540  0.1698  0.2459
    1CHTO  H145  144   8.157   4.771   1.822 -1.0352  1.3044  0.0850
    1CHTO   C74  145   8.123   4.609   1.952  0.1921 -0.0640  0.1464
    1CHTO  H146  146   8.058   4.553   1.882 -1.5046 -1.1630  2.5439
    1CHTO   O54  147   8.251   4.548   1.926  0.2514 -0.1620  0.5058
    1CHTO  H133  148   8.265   4.499   1.848  0.8984  2.1511 -0.8707
    1CHTO   C75  149   8.078   4.582   2.097  0.1267  0.5230  0.1878
    1CHTO  H147  150   7.983   4.633   2.114  0.9618  1.4156  2.3040
    1CHTO   N13  151   8.044   4.438   2.133 -0.9700 -0.2511 -0.9390
    1CHTO  H139  152   7.993   4.388   2.051 -3.0399  3.2583 -1.8638
    1CHTO  H140  153   7.975   4.431   2.215 -0.9888  2.3642 -0.7158
    1CHTO   C76  154   8.182   4.645   2.201 -0.1582  0.0919 -0.1448
    1CHTO  H148  155   8.279   4.601   2.182  0.5365  0.8578  1.5725
    1CHTO   O49  156   8.194   4.790   2.171  0.3431  0.0060  0.2893
    1CHTO   C77  157   8.218   4.819   2.031 -0.5898 -0.1878  0.3326
    1CHTO  H149  158   8.318   4.779   2.013 -0.3821  0.3146  0.3543
    1CHTO   C88  159   8.232   4.974   2.018  0.6369 -0.0071 -0.1615
    1CHTO   O58  160   8.092   5.053   2.049 -0.3170  0.0930  0.2314
    1CHTO  H136  161   8.068   5.028   2.137 -0.5457 -1.6309 -0.3058
    1CHTO   O51  162   8.114   4.621   2.354 -0.1443 -0.0543  0.3002
    1CHTO   C78  163   8.066   4.764   2.436 -0.6842 -0.1014 -0.2312
    1CHTO  H150  164   8.043   4.848   2.368 -1.9213 -2.4957 -2.8399
    1CHTO   C80  165   8.182   4.811   2.528 -0.2541  0.2460 -0.1847
    1CHTO  H152  166   8.188   4.741   2.614 -0.7563 -1.3437 -1.4214
    1CHTO   O55  167   8.297   4.824   2.440  0.0130 -0.0985 -0.2008
    1CHTO  H134  168   8.368   4.830   2.502  0.3928  0.4014 -0.6851
    1CHTO   C84  169   8.138   4.947   2.593  0.2859 -0.1675  0.2769
    1CHTO  H156  170   8.114   5.013   2.510 -0.9029  1.6486  2.0096
    1CHTO   N15  171   8.243   5.018   2.670  0.1515 -0.3110  0.0650
    1CHTO  H143  172   8.338   4.971   2.680  0.7127  1.3026  2.8902
    1CHTO  H144  173   8.249   5.116   2.627  0.8611 -0.5576 -0.3997
    1CHTO   C87  174   8.009   4.934   2.677 -0.4156 -0.3738  0.2751
    1CHTO  H159  175   8.028   4.881   2.771  0.3217  1.6098  1.2673
    1CHTO   O53  176   7.911   4.864   2.596 -0.1083 -0.6159 -0.3167
    1CHTO   C82  177   7.942   4.743   2.526  0.3126  0.0140  0.5326
    1CHTO  H154  178   7.962   4.663   2.596 -1.0319 -1.5433 -0.8007
    1CHTO   C89  179   7.822   4.694   2.444 -0.2300 -0.3071 -0.1932
    1CHTO   O59  180   7.774   4.798   2.355  0.4571  0.0513  0.0771
    1CHTO  H137  181   7.742   4.878   2.393  1.3891  0.3627  0.2210
    1CHTO   O45  182   7.934   5.086   2.723 -0.2344 -0.2561  0.1158
    1CHTO   C67  183   7.945   5.197   2.640 -0.5282 -0.0854  0.1408
    1CHTO  H124  184   8.049   5.224   2.620 -0.2465 -0.7389  0.7098
    1CHTO   C65  185   7.874   5.184   2.501 -0.3652  0.6251 -0.7109
    1CHTO  H122  186   7.919   5.094   2.459 -0.1514 -0.3722  1.6390
    1CHTO   O44  187   7.909   5.291   2.406  0.4106 -0.2569  0.2741
    1CHTO  H102  188   7.897   5.255   2.321  1.1184 -0.2103  0.1548
    1CHTO   C63  189   7.721   5.158   2.514  0.0813  0.0990 -0.6292
    1CHTO  H120  190   7.705   5.075   2.583 -0.2160  0.9720  0.3768
    1CHTO   N11  191   7.645   5.096   2.405 -0.5351  0.1274  0.0988
    1CHTO  H108  192   7.576   5.028   2.451 -1.6060  1.2096  0.1489
    1CHTO  H109  193   7.588   5.172   2.355 -0.7293  0.7912  1.2915
    1CHTO   C61  194   7.667   5.285   2.582  0.5454  0.1098  0.1467
    1CHTO  H118  195   7.563   5.259   2.607  0.6199 -0.2564  0.0817
    1CHTO   O40  196   7.737   5.322   2.707 -0.6594 -0.2116  0.1882
    1CHTO   C68  197   7.883   5.314   2.717 -0.1447  0.3351  0.2333
    1CHTO  H125  198   7.895   5.300   2.827 -1.2193  0.5405  0.3892
    1CHTO   C72  199   7.944   5.451   2.678  0.2304 -0.7017  0.6323
    1CHTO   O48  200   7.914   5.567   2.759 -0.5189 -0.4524  0.3643
    1CHTO  H105  201   7.937   5.565   2.850  0.3780  0.3747  0.1666
    1CHTO   O38  202   7.652   5.392   2.484 -0.0587  0.4765  0.1403
    1CHTO   C55  203   7.589   5.514   2.527 -0.2829 -0.2366  0.3038
    1CHTO  H112  204   7.643   5.543   2.618  2.6970  1.3686 -1.8942
    1CHTO   C56  205   7.433   5.506   2.551 -0.0059 -0.2425  0.0761
    1CHTO  H113  206   7.397   5.451   2.463 -0.4968 -0.6033  0.5007
    1CHTO   O42  207   7.402   5.414   2.662 -0.1048 -0.4312 -0.4375
    1CHTO  H100  208   7.448   5.333   2.655 -1.4073 -1.1100 -1.4836
    1CHTO   C57  209   7.367   5.649   2.572  0.1446 -0.1215  0.0071
    1CHTO  H114  210   7.380   5.688   2.673  2.0756 -0.4617 -0.0725
    1CHTO   N10  211   7.218   5.643   2.568  0.0742  0.1344  0.7318
    1CHTO  H106  212   7.188   5.557   2.625 -2.4634  0.7481  0.3713
    1CHTO  H107  213   7.195   5.624   2.465  0.4509 -1.3699  0.9189
    1CHTO   C58  214   7.421   5.751   2.470 -0.3701  0.3755  0.5572
    1CHTO  H115  215   7.371   5.737   2.372 -2.2023 -1.7565  1.7559
    1CHTO   O37  216   7.560   5.742   2.468  0.0721 -0.2681  0.0956
    1CHTO   C59  217   7.620   5.622   2.423 -0.2567 -0.1816 -0.3111
    1CHTO  H116  218   7.589   5.599   2.321 -1.9621 -0.3015  0.2269
    1CHTO   C70  219   7.770   5.655   2.413 -0.0879 -0.3151  0.0448
    1CHTO   O46  220   7.799   5.752   2.317 -0.1834 -0.6107  0.1377
    1CHTO  H103  221   7.791   5.837   2.356 -3.0783 -0.4544 -0.6545
    1CHTO   O39  222   7.391   5.903   2.532 -0.3360  0.1497 -0.0120
    1CHTO   C60  223   7.323   5.998   2.448 -0.1012  0.3637 -0.7160
    1CHTO  H117  224   7.354   5.978   2.345 -0.2691 -1.8491 -0.3644
    1CHTO   C62  225   7.167   5.990   2.452 -0.0035  0.9201  0.3809
    1CHTO  H119  226   7.134   5.887   2.425  0.2028  0.7894  0.6249
    1CHTO   O43  227   7.126   5.997   2.592 -0.3345  0.2533  0.3674
    1CHTO  H101  228   7.103   6.087   2.607 -0.6234  0.2889 -0.2439
    1CHTO   C66  229   7.114   6.105   2.352  0.0547 -0.4413 -0.0782
    1CHTO  H123  230   7.150   6.089   2.251 -0.5494  3.6498 -1.0168
    1CHTO   N12  231   6.961   6.101   2.356  0.0537 -0.4044  0.0814
    1CHTO  H110  232   6.922   6.002   2.335  1.0454 -0.8280  0.2370
    1CHTO  H111  233   6.919   6.179   2.294 -1.8108  0.0126  1.8174
    1CHTO   C69  234   7.168   6.247   2.396 -0.1870  0.1584 -0.3088
    1CHTO  H126  235   7.137   6.269   2.500  0.1227 -3.1140  0.5212
    1CHTO   O41  236   7.322   6.240   2.394  0.1178 -0.5282  0.1741
    1CHTO   C64  237   7.382   6.134   2.481  0.2078 -0.2778 -0.4494
    1CHTO  H121  238   7.363   6.158   2.587  0.2188  2.1422 -0.9576
    1CHTO   C71  239   7.538   6.137   2.463  0.0070 -0.2045  0.6329
    1CHTO   O47  240   7.584   6.133   2.330  0.2067 -0.0682 -0.2334
    1CHTO  H104  241   7.572   6.218   2.292  1.7435  1.2530  2.0626
    1CHTO   O34  242   7.108   6.351   2.297 -0.0175  0.0382  0.0878
    1CHTO   C49  243   7.024   6.482   2.316  0.2281 -0.4997  0.7196
    1CHTO   H91  244   6.947   6.481   2.238  0.4748  0.2354  0.4709
    1CHTO   C47  245   7.118   6.603   2.295  0.1280  0.2959 -0.4243
    1CHTO   H89  246   7.055   6.694   2.299 -1.0333 -0.5749  1.7731
    1CHTO   O33  247   7.163   6.590   2.163  0.0076  0.9226 -0.3058
    1CHTO   H70  248   7.222   6.660   2.144  0.5800  1.0383  1.7967
    1CHTO   C45  249   7.226   6.606   2.409  0.0299 -0.1682 -0.1705
    1CHTO   H87  250   7.258   6.502   2.424  0.2978  0.0797  1.0010
    1CHTO    N8  251   7.343   6.686   2.380  0.3259 -0.3033  0.2017
    1CHTO   H75  252   7.376   6.757   2.454 -0.1725  0.6648 -0.4886
    1CHTO   H76  253   7.429   6.625   2.356 -1.1692 -2.4690  0.2464
    1CHTO   C43  254   7.150   6.637   2.545  0.4821  0.2564  0.0014
    1CHTO   H85  255   7.229   6.647   2.619  2.2339  2.0741 -2.0419
    1CHTO   O29  256   7.057   6.525   2.563  0.5830  0.4021 -0.3055
    1CHTO   C50  257   6.963   6.494   2.457  0.7436 -0.3821 -0.3070
    1CHTO   H92  258   6.919   6.393   2.471  1.3822 -0.3894  1.8936
    1CHTO   C54  259   6.831   6.580   2.444 -0.0617 -0.2657  0.2363
    1CHTO   O36  260   6.768   6.588   2.573  0.1835  0.4435  0.5813
    1CHTO   H72  261   6.757   6.508   2.620 -2.6310  0.1438 -0.4690
    1CHTO   O27  262   7.082   6.764   2.555  0.0504  0.0256 -0.8014
    1CHTO   C37  263   7.083   6.886   2.635 -0.1982  0.3048 -0.5955
    1CHTO   H79  264   7.061   6.857   2.739 -2.7272 -0.9733 -1.4450
    1CHTO   C38  265   7.226   6.955   2.627  0.1278  0.5775 -0.0023
    1CHTO   H80  266   7.265   6.953   2.524 -1.8107  0.0943 -0.7548
    1CHTO   O31  267   7.313   6.876   2.700  0.4610 -0.0498  0.5687
    1CHTO   H68  268   7.337   6.801   2.649  0.1158  0.7841 -0.8554
    1CHTO   C39  269   7.214   7.100   2.692 -0.4054  0.0637 -0.2817
    1CHTO   H81  270   7.202   7.102   2.800  2.2934  1.3351  0.0356
    1CHTO    N7  271   7.333   7.182   2.660  0.0289  0.2613  0.1059
    1CHTO   H73  272   7.384   7.212   2.750  2.4385  0.6044 -1.3255
    1CHTO   H74  273   7.305   7.265   2.596  1.1445  0.1484 -0.5539
    1CHTO   C40  274   7.085   7.176   2.634 -0.3171  0.0681  0.3889
    1CHTO   H82  275   7.103   7.204   2.530 -1.4085 -2.7660 -0.6292
    1CHTO   O26  276   6.961   7.101   2.654  0.0022 -0.3421 -0.1856
    1CHTO   C41  277   6.966   6.975   2.584  0.8233 -0.3265 -0.2984
    1CHTO   H83  278   6.981   6.999   2.477 -0.0806  0.8307 -0.1798
    1CHTO   C52  279   6.828   6.910   2.599  0.2377  0.0714 -0.1006
    1CHTO   O35  280   6.717   6.960   2.506  0.1664  0.0690  0.1893
    1CHTO   H71  281   6.754   7.012   2.436  2.3053 -2.9180 -0.9953
    1CHTO   O28  282   7.054   7.303   2.700  0.2201  0.4274 -0.1018
    1CHTO   C42  283   7.028   7.427   2.628 -0.3417 -0.3062  0.4483
    1CHTO   H84  284   7.095   7.417   2.543 -0.3636 -1.1065  0.5238
    1CHTO   C44  285   7.078   7.552   2.705  0.0536 -0.0430  0.0045
    1CHTO   H86  286   7.019   7.557   2.796 -1.2440  0.0652 -0.8254
    1CHTO   O32  287   7.222   7.548   2.732  0.2214 -0.2068 -0.9405
    1CHTO   H69  288   7.256   7.461   2.724  0.6854 -0.2814  1.3690
    1CHTO   C48  289   7.045   7.685   2.633 -0.2365 -0.1841  0.3953
    1CHTO   H90  290   7.103   7.692   2.540  1.7191 -1.6465  1.4528
    1CHTO    N9  291   7.077   7.810   2.716 -0.3362  0.6058 -0.0778
    1CHTO   H77  292   7.037   7.794   2.815 -1.9373 -0.5335 -0.8840
    1CHTO   H78  293   7.183   7.826   2.728 -0.6526  1.6488  1.4154
    1CHTO   C51  294   6.892   7.686   2.592  0.6274 -0.3632  0.1874
    1CHTO   H93  295   6.831   7.680   2.683  0.9483 -1.4564  0.3419
    1CHTO   O30  296   6.872   7.571   2.512  0.0407  0.4536 -0.0524
    1CHTO   C46  297   6.880   7.446   2.577  0.0890 -0.8056 -0.0146
    1CHTO   H88  298   6.813   7.444   2.663  0.5999 -1.4454  0.3758
    1CHTO   C53  299   6.839   7.337   2.483 -0.0481 -0.2147  0.0259
    1CHTO   O72  300   6.692   7.325   2.464  0.5681  0.1788 -0.0026
    1CHTO  H199  301   6.658   7.292   2.545  0.7650 -0.7337 -0.2873
    1CHTO   O22  302   6.849   7.791   2.508 -0.7654 -0.1489  0.1909
    1CHTO   C31  303   6.820   7.816   2.365  0.5159 -0.1848  0.3296
    1CHTO   H59  304   6.796   7.923   2.348  0.2989 -0.7222 -2.8914
    1CHTO   C29  305   6.938   7.785   2.274  0.0459 -0.3261 -0.2657
    1CHTO   H57  306   6.958   7.677   2.279 -1.0566 -0.6732 -2.7450
    1CHTO   O21  307   7.053   7.859   2.333  0.5496  0.2282 -0.2387
    1CHTO   H37  308   7.123   7.799   2.350 -0.5043 -0.7429  0.7236
    1CHTO   C27  309   6.903   7.820   2.127 -0.2781 -0.4317 -0.1334
    1CHTO   H55  310   6.881   7.927   2.115 -0.4802 -0.2915  1.3969
    1CHTO    N5  311   7.024   7.787   2.041  0.4536 -0.2842 -0.1883
    1CHTO   H43  312   7.084   7.875   2.026  2.8108 -1.7197  0.6397
    1CHTO   H44  313   6.998   7.740   1.948  0.2621 -0.4028 -0.0756
    1CHTO   C25  314   6.769   7.744   2.089  0.7515  0.5631  0.3465
    1CHTO   H53  315   6.799   7.639   2.083  1.4628  0.8640 -1.6763
    1CHTO   O17  316   6.662   7.775   2.179 -0.2000 -0.3034  0.4791
    1CHTO   C32  317   6.700   7.737   2.314  0.4588 -0.3946 -0.9082
    1CHTO   H60  318   6.723   7.631   2.314 -0.0706 -0.5199 -2.7242
    1CHTO   C36  319   6.581   7.736   2.415  0.3421 -0.0216 -0.0427
    1CHTO   O25  320   6.482   7.637   2.375  0.1543 -0.0419 -0.4853
    1CHTO   H40  321   6.403   7.644   2.426 -0.1172  0.4313 -0.9712
    1CHTO   O15  322   6.735   7.778   1.942 -0.7578 -0.3017 -0.2564
    1CHTO   C19  323   6.653   7.743   1.828  0.2940  0.0157 -0.0500
    1CHTO   H47  324   6.559   7.800   1.837 -0.9166 -1.8032 -0.8285
    1CHTO   C20  325   6.711   7.793   1.697 -0.0437 -0.1824  0.6011
    1CHTO   H48  326   6.817   7.764   1.687 -0.2138 -0.2654 -0.9553
    1CHTO   O19  327   6.716   7.933   1.710  0.6759 -0.2864 -0.0938
    1CHTO   H35  328   6.749   7.967   1.629 -0.3595  0.5167 -0.2003
    1CHTO   C21  329   6.636   7.745   1.566 -0.4788  0.3777 -0.2291
    1CHTO   H49  330   6.535   7.788   1.565 -1.2125 -1.2207  1.8283
    1CHTO    N4  331   6.707   7.797   1.447  0.2875  0.1519  0.0577
    1CHTO   H41  332   6.701   7.905   1.449 -0.3109  0.1140  0.3614
    1CHTO   H42  333   6.809   7.764   1.456  0.5632  0.9442 -0.0746
    1CHTO   C22  334   6.631   7.589   1.571 -0.4778 -0.1521  0.3185
    1CHTO   H50  335   6.730   7.544   1.578 -0.7309 -0.8103 -0.2093
    1CHTO   O14  336   6.557   7.555   1.692  0.1291 -0.5084 -0.4798
    1CHTO   C23  337   6.615   7.591   1.825 -1.5103  0.7530 -0.0231
    1CHTO   H51  338   6.704   7.529   1.846 -2.2098  0.2918  1.6146
    1CHTO   C34  339   6.516   7.555   1.939 -0.5799 -0.0726 -0.0035
    1CHTO   O23  340   6.383   7.606   1.915 -0.1877 -0.2538  0.1996
    1CHTO   H38  341   6.395   7.697   1.897  0.3113 -0.5916 -1.2294
    1CHTO   O16  342   6.545   7.532   1.464  0.2271 -0.4572 -0.1749
    1CHTO   C24  343   6.612   7.398   1.394  0.0753 -0.4850  0.1613
    1CHTO   H52  344   6.718   7.390   1.417 -0.1376 -0.2576  1.2810
    1CHTO   C26  345   6.581   7.406   1.244  0.0306 -0.0565 -0.1362
    1CHTO   H54  346   6.471   7.418   1.236  0.0094  0.7689  1.3295
    1CHTO   O20  347   6.631   7.534   1.204  0.3884  0.0801  0.0805
    1CHTO   H36  348   6.722   7.525   1.184 -0.0420 -0.9930 -1.5612
    1CHTO   C30  349   6.633   7.280   1.167 -0.1234  0.6348  0.1125
    1CHTO   H58  350   6.743   7.279   1.164 -0.1278 -2.5978 -0.7037
    1CHTO    N6  351   6.579   7.293   1.026 -0.4776 -0.0869 -0.6554
    1CHTO   H45  352   6.658   7.282   0.953  0.0774 -2.8823  0.2747
    1CHTO   H46  353   6.513   7.210   1.008  0.4819 -0.9867 -0.1099
    1CHTO   C33  354   6.586   7.148   1.235 -0.0167  0.6441 -0.5552
    1CHTO   H61  355   6.478   7.136   1.216 -0.2613 -0.1889  1.2949
    1CHTO   O18  356   6.602   7.155   1.376 -0.2207 -0.9660 -0.2064
    1CHTO   C28  357   6.541   7.270   1.445  0.1542 -0.1565  0.2927
    1CHTO   H56  358   6.435   7.277   1.420  0.2292  0.8744  0.2652
    1CHTO   C35  359   6.553   7.261   1.601 -0.5166  0.5124  0.4451
    1CHTO   O24  360   6.491   7.149   1.667  0.1690  0.2556  0.3048
    1CHTO   H39  361   6.506   7.077   1.609  0.0270  0.3296  0.1763
    1CHTO    O9  362   6.651   7.033   1.180 -0.2934  0.1220 -0.0769
    1CHTO   C13  363   6.579   6.905   1.242  0.0353  0.3573 -0.3619
    1CHTO   H26  364   6.476   6.936   1.270 -0.3450 -0.0865 -1.2552
    1CHTO   C11  365   6.665   6.858   1.370  0.1723  0.3680 -0.2426
    1CHTO   H24  366   6.647   6.931   1.450  2.4917 -0.0299  0.6714
    1CHTO    O8  367   6.804   6.870   1.330  0.3571 -0.2061 -0.4821
    1CHTO    H3  368   6.832   6.798   1.277  0.7449  1.1405 -2.1529
    1CHTO    C9  369   6.616   6.723   1.416 -0.4007  0.2125 -0.0980
    1CHTO   H22  370   6.507   6.734   1.423 -0.3802  1.1531 -1.1238
    1CHTO    N2  371   6.659   6.680   1.552 -0.1656  0.1723 -0.0060
    1CHTO   H10  372   6.614   6.583   1.570 -0.9068  0.4647 -0.2656
    1CHTO   H11  373   6.766   6.669   1.559 -0.1764 -0.5028 -0.7848
    1CHTO    C7  374   6.641   6.621   1.306  0.2595  0.2859  0.0043
    1CHTO   H20  375   6.599   6.524   1.340  1.0905 -0.6274 -1.5284
    1CHTO    O4  376   6.563   6.659   1.190  0.6024 -0.3029  0.5217
    1CHTO   C14  377   6.562   6.795   1.130  0.2247  0.4242  0.1164
    1CHTO   H27  378   6.465   6.816   1.079 -0.7118  2.1832  2.5051
    1CHTO   C18  379   6.668   6.813   1.021  0.4463  0.6606 -0.1104
    1CHTO   O13  380   6.625   6.915   0.933  0.4481  0.0794 -0.0431
    1CHTO    H7  381   6.540   6.892   0.899  1.3214 -0.6139 -1.7945
    1CHTO    O2  382   6.810   6.622   1.267 -0.4316 -0.5729 -0.0080
    1CHTO    C1  383   6.863   6.494   1.248 -0.2153  0.6550 -0.0579
    1CHTO   H14  384   6.785   6.430   1.202  1.0198 -0.3617 -0.7881
    1CHTO    C2  385   6.927   6.419   1.377  0.5565 -0.0748 -0.2562
    1CHTO   H15  386   6.980   6.488   1.444  1.4625  0.3538 -1.3913
    1CHTO    O6  387   6.808   6.384   1.446  0.4461  0.4719 -0.2300
    1CHTO    H1  388   6.812   6.306   1.498 -1.5774  0.1099 -0.5568
    1CHTO    C3  389   7.007   6.287   1.330 -0.2924 -0.5986  0.5136
    1CHTO   H16  390   6.921   6.230   1.292  0.3234 -0.7126 -0.7493
    1CHTO    N1  391   7.063   6.213   1.446  0.2938  0.0685 -0.7814
    1CHTO    H8  392   7.113   6.120   1.427  0.8929  0.0500  0.8384
    1CHTO    H9  393   7.007   6.205   1.537  1.1386  1.8102 -0.0838
    1CHTO    C4  394   7.107   6.315   1.208  0.4478  1.2657  0.2548
    1CHTO   H17  395   7.189   6.376   1.245  0.7238  2.0603 -1.6417
    1CHTO    O1  396   7.027   6.379   1.108  0.1554 -0.0265  0.4430
    1CHTO    C5  397   6.973   6.508   1.140  0.4556 -0.0605 -0.7287
    1CHTO   H18  398   7.049   6.570   1.188  0.6632 -0.4488 -0.5612
    1CHTO   C16  399   6.928   6.576   1.013  0.1495 -0.3301 -0.5109
    1CHTO   O11  400   7.044   6.600   0.933 -0.2250  0.0391  0.2061
    1CHTO    H5  401   7.089   6.679   0.957 -1.1943  0.3227  1.1237
    1CHTO    O3  402   7.164   6.192   1.151  0.3635  0.4491  0.3837
    1CHTO    C6  403   7.235   6.205   1.025 -0.1705 -0.1789  0.3286
    1CHTO   H19  404   7.193   6.291   0.972 -0.7396  0.5795  1.9809
    1CHTO    C8  405   7.386   6.221   1.051 -0.1561  0.7054 -0.0748
    1CHTO   H21  406   7.425   6.140   1.113  2.4977  1.9618 -0.0151
    1CHTO    O7  407   7.406   6.343   1.116  0.0824 -0.5543 -0.1123
    1CHTO    H2  408   7.487   6.388   1.100  0.4287 -1.6958 -1.6729
    1CHTO   C12  409   7.467   6.224   0.916 -0.1206 -0.4556  0.6316
    1CHTO   H25  410   7.432   6.315   0.863 -0.3539 -0.4905  0.7252
    1CHTO    N3  411   7.616   6.242   0.934  0.1514  0.5710  0.2855
    1CHTO   H12  412   7.667   6.148   0.917 -1.2518  0.1118 -1.5599
    1CHTO   H13  413   7.640   6.280   1.032  0.8997 -0.5583  0.5434
    1CHTO   C15  414   7.430   6.097   0.830 -0.3230 -0.4152  1.0876
    1CHTO   H28  415   7.488   6.010   0.863 -0.3660 -1.2155 -0.8548
    1CHTO   O10  416   7.464   6.105   0.693 -0.0859  0.2121 -0.3047
    1CHTO    H4  417   7.522   6.176   0.675 -1.4549  1.7120  0.9605
    1CHTO    O5  418   7.293   6.070   0.811 -0.3788 -0.5719 -0.1810
    1CHTO   C10  419   7.208   6.083   0.933 -0.0269 -0.1925  0.1129
    1CHTO   H23  420   7.227   5.995   0.995 -1.5695 -1.8181 -1.6154
    1CHTO   C17  421   7.060   6.081   0.892  0.1232 -0.2328 -0.8289
    1CHTO   O12  422   7.029   6.184   0.795  1.1931 -0.0132 -0.3070
    1CHTO    H6  423   6.946   6.217   0.821  1.3964  0.3286 -0.0836
    2CHTO  H203  424   6.404   4.345   2.701  1.7687  0.0801 -1.6087
    2CHTO   O82  425   6.352   4.322   2.626 -0.3581 -0.2532 -0.0747
    2CHTO  C123  426   6.246   4.413   2.620 -0.5791  0.8112  0.1609
    2CHTO  H227  427   6.294   4.511   2.633 -0.0435  0.6941 -0.8858
    2CHTO   O77  428   6.198   4.401   2.490  0.8979  0.1458 -0.0397
    2CHTO  C118  429   6.088   4.474   2.445 -0.5284 -0.0505 -0.3152
    2CHTO  H222  430   6.106   4.583   2.449  1.4548 -0.4155  1.1091
    2CHTO  C125  431   6.049   4.434   2.289  0.4580 -0.1166  0.6677
    2CHTO   O84  432   5.989   4.308   2.285 -0.0213  0.1238  0.0595
    2CHTO  H205  433   6.057   4.244   2.294 -1.7989 -2.1130 -1.7242
    2CHTO  C114  434   5.970   4.439   2.532  0.3192 -0.6608  0.6041
    2CHTO  H218  435   5.956   4.331   2.526 -0.7609 -0.5257  0.7517
    2CHTO  C116  436   6.004   4.477   2.682 -0.4888  0.5914 -0.3196
    2CHTO  H220  437   6.030   4.584   2.677  0.6262  0.2555 -2.0754
    2CHTO   O79  438   5.894   4.446   2.762  0.2248  0.5698  0.2477
    2CHTO  H201  439   5.909   4.467   2.852 -1.3739  0.3539  0.5632
    2CHTO  C120  440   6.136   4.393   2.725  0.3275  0.2706 -0.3077
    2CHTO  H224  441   6.116   4.284   2.733  1.8280 -0.0801 -1.1594
    2CHTO   N21  442   6.184   4.433   2.855 -0.2606 -0.0888  0.2039
    2CHTO  H211  443   6.119   4.497   2.913 -0.9248 -0.2826 -0.3197
    2CHTO  H212  444   6.210   4.344   2.911  1.3750  0.4531  0.3548
    2CHTO   O75  445   5.861   4.516   2.481 -0.3241  0.5644  0.1433
    2CHTO  C112  446   5.723   4.451   2.486 -0.0512 -0.0597  0.4572
    2CHTO  H216  447   5.718   4.388   2.577  0.9391  1.2014  1.4018
    2CHTO   O73  448   5.702   4.374   2.366 -0.0863 -0.1207 -0.1178
    2CHTO  C113  449   5.584   4.301   2.356  0.8049  0.2149  0.4343
    2CHTO  H217  450   5.591   4.215   2.426  1.0801 -1.8961 -2.1305
    2CHTO  C124  451   5.587   4.230   2.218  0.9172 -0.8098 -0.2948
    2CHTO   O83  452   5.466   4.154   2.174 -0.6363  0.0747 -0.1126
    2CHTO  H204  453   5.418   4.134   2.253  0.0287 -0.1225  0.2444
    2CHTO  C109  454   5.464   4.391   2.381  0.2056 -0.9871  0.1413
    2CHTO  H213  455   5.446   4.446   2.287 -0.2264 -0.3303  0.6048
    2CHTO  C110  456   5.477   4.490   2.502 -0.0204  0.2207  0.2635
    2CHTO  H214  457   5.454   4.443   2.597  1.3637  0.2614  0.6326
    2CHTO   O78  458   5.368   4.583   2.498 -0.0765 -0.1886 -0.0966
    2CHTO  H200  459   5.375   4.641   2.425 -0.8230 -0.1594 -0.1475
    2CHTO  C111  460   5.611   4.562   2.506 -0.1804  0.2298  0.2581
    2CHTO  H215  461   5.618   4.632   2.421  0.6939 -0.8300 -0.5528
    2CHTO   N19  462   5.635   4.640   2.631 -0.2866 -0.3498  0.1571
    2CHTO  H207  463   5.676   4.736   2.604 -3.2215  0.9463  0.0751
    2CHTO  H208  464   5.555   4.646   2.703 -0.2601  4.0265 -0.0525
    2CHTO   O74  465   5.356   4.298   2.397 -0.7320 -0.1599 -0.4857
    2CHTO  C115  466   5.205   4.317   2.307 -0.2918 -0.8086 -0.3232
    2CHTO  H219  467   5.205   4.407   2.246  1.6992 -0.6095 -0.0677
    2CHTO   O76  468   5.181   4.185   2.199  0.0182 -0.0422 -1.1266
    2CHTO  C122  469   5.051   4.182   2.135  0.1613 -0.1193 -0.1731
    2CHTO  H226  470   5.049   4.088   2.080 -1.2394  0.4431 -1.1206
    2CHTO  C126  471   5.042   4.286   2.017 -0.4525 -0.6412  0.1931
    2CHTO   O85  472   5.157   4.294   1.934  0.2717 -0.4578 -0.2766
    2CHTO  H206  473   5.147   4.232   1.864  1.7395  0.0916 -0.9919
    2CHTO  C121  474   4.938   4.191   2.242  0.4010 -0.4901  0.2049
    2CHTO  H225  475   4.843   4.202   2.185  0.5800 -2.5529 -0.5122
    2CHTO   O81  476   4.936   4.074   2.330  0.6237 -0.2939  0.2903
    2CHTO  H202  477   5.020   4.070   2.373  0.1688  3.5939  1.8170
    2CHTO  C119  478   4.958   4.325   2.326  0.6802 -0.0133  0.6161
    2CHTO  H223  479   4.952   4.401   2.248 -2.3909 -2.9802 -2.2301
    2CHTO  C117  480   5.092   4.320   2.412  0.5004  1.1325  0.1695
    2CHTO  H221  481   5.119   4.237   2.478 -2.1507 -0.5440 -0.7819
    2CHTO   N20  482   5.103   4.438   2.496  0.1471 -0.0957 -0.1007
    2CHTO  H209  483   5.026   4.431   2.572  0.2826 -0.3905  0.0095
    2CHTO  H210  484   5.077   4.519   2.430 -0.1073  0.2475  0.4142
    2CHTO   O80  485   4.832   4.363   2.409  0.1649  0.4377 -0.1082
    2CHTO  C103  486   4.719   4.474   2.341  0.0469 -0.0112  0.1303
    2CHTO  H190  487   4.767   4.571   2.337  0.7481 -0.4160 -1.6194
    2CHTO  C101  488   4.644   4.438   2.203  0.1208  0.9932 -0.1807
    2CHTO  H188  489   4.590   4.344   2.214  1.5648  0.1225 -0.4433
    2CHTO   O68  490   4.743   4.418   2.096 -0.2882 -0.3462  0.0110
    2CHTO  H168  491   4.786   4.335   2.106 -0.6132 -0.3355  1.5838
    2CHTO   C99  492   4.537   4.547   2.147  0.6992  1.1208  0.0848
    2CHTO  H186  493   4.596   4.639   2.129  1.7038  0.3209 -0.7742
    2CHTO   N17  494   4.457   4.505   2.026 -0.4709  0.1011  0.3472
    2CHTO  H174  495   4.523   4.501   1.940  0.1354 -1.3129  0.8555
    2CHTO  H175  496   4.424   4.404   2.044  0.5275 -0.1236  0.9884
    2CHTO   C97  497   4.445   4.567   2.273  0.1081 -0.6724 -0.4429
    2CHTO  H184  498   4.384   4.477   2.289 -1.4123  0.6449  1.3649
    2CHTO   O64  499   4.525   4.600   2.389 -0.9222 -0.7316  0.0622
    2CHTO  C104  500   4.600   4.494   2.441 -0.9143 -0.3579 -0.1300
    2CHTO  H191  501   4.545   4.401   2.456 -2.0661  0.4372  0.6103
    2CHTO  C108  502   4.649   4.541   2.574  0.0904 -0.0440 -0.3183
    2CHTO   O71  503   4.683   4.674   2.568  0.5583 -0.2532 -0.0016
    2CHTO  H171  504   4.740   4.695   2.639 -0.6766  1.2442  0.5714
    2CHTO   O62  505   4.359   4.683   2.254 -0.4760  0.6037  0.1965
    2CHTO   C91  506   4.227   4.683   2.314  0.3953  1.1043  0.6359
    2CHTO  H178  507   4.223   4.590   2.371 -2.8358  1.7091  1.4972
    2CHTO   C92  508   4.115   4.668   2.202 -0.2882 -0.2642  0.0011
    2CHTO  H179  509   4.132   4.580   2.137  0.6362 -0.4429  0.4622
    2CHTO   O66  510   3.989   4.631   2.261 -0.1351  0.2612 -0.2019
    2CHTO  H166  511   3.994   4.547   2.302 -0.1489  0.4856  0.2612
    2CHTO   C93  512   4.096   4.797   2.122  0.3430 -0.4890 -0.2609
    2CHTO  H180  513   4.004   4.786   2.063  0.8720 -0.9987 -1.0092
    2CHTO   N16  514   4.204   4.813   2.018 -0.7441 -0.3411  0.5832
    2CHTO  H172  515   4.306   4.823   2.051 -0.7829  0.6718  0.3999
    2CHTO  H173  516   4.170   4.868   1.931 -2.1406 -2.8296 -0.5174
    2CHTO   C94  517   4.076   4.917   2.221 -0.0399 -0.5938  0.4775
    2CHTO  H181  518   4.156   4.990   2.214 -1.3191  0.8374  0.5950
    2CHTO   O61  519   4.080   4.877   2.363 -0.3938 -0.4605  0.4355
    2CHTO   C95  520   4.202   4.809   2.398  0.0368 -0.7288 -0.1266
    2CHTO  H182  521   4.285   4.879   2.390 -0.3564  0.1432  2.7716
    2CHTO  C106  522   4.185   4.763   2.550  0.5827 -0.4513 -0.5059
    2CHTO   O69  523   4.311   4.725   2.614 -0.7748 -0.1185  0.1009
    2CHTO  H169  524   4.385   4.739   2.558 -1.0409  0.3997 -0.1251
    2CHTO   O63  525   3.947   4.967   2.190  0.0146  0.3345  0.3394
    2CHTO   C96  526   3.954   5.129   2.174  0.5238  0.0144  0.0413
    2CHTO  H183  527   4.056   5.155   2.145  0.5401  0.4622  0.4816
    2CHTO   C98  528   3.926   5.202   2.303  0.1254  1.1069  0.3309
    2CHTO  H185  529   3.825   5.180   2.339 -0.1550  0.5738 -0.7540
    2CHTO   O67  530   4.018   5.166   2.407  0.1840  0.3962 -0.2403
    2CHTO  H167  531   4.029   5.073   2.398  3.3359  0.6943  0.1531
    2CHTO  C102  532   3.935   5.370   2.287  0.3711 -0.2212  0.8405
    2CHTO  H189  533   4.043   5.388   2.285  0.6297 -1.7185  0.2839
    2CHTO   N18  534   3.878   5.449   2.401  0.3205 -0.2049  0.4714
    2CHTO  H176  535   3.776   5.430   2.428  0.7306 -0.0857  2.1467
    2CHTO  H177  536   3.936   5.428   2.489  1.1827 -1.0485 -0.2823
    2CHTO  C105  537   3.866   5.416   2.155 -0.0742  0.6772  1.0882
    2CHTO  H192  538   3.762   5.438   2.178 -0.1455 -0.7731  2.2241
    2CHTO   O65  539   3.879   5.324   2.044  0.1185  0.7520 -0.3992
    2CHTO  C100  540   3.852   5.187   2.064 -0.2547 -0.4281 -0.5963
    2CHTO  H187  541   3.750   5.195   2.104  1.1403 -0.4314  3.1689
    2CHTO  C107  542   3.851   5.110   1.929  0.1883 -0.6702 -0.8283
    2CHTO   O70  543   3.961   5.158   1.846  0.1441  0.2619 -0.2109
    2CHTO  H170  544   3.983   5.098   1.777  1.6812  0.3071  0.2325
    2CHTO   O57  545   3.927   5.542   2.116 -0.0283 -0.7646  0.2854
    2CHTO   C85  546   3.854   5.646   2.050  0.6845  0.1701  0.4179
    2CHTO  H157  547   3.745   5.647   2.068  0.6047 -0.6344 -0.0196
    2CHTO   C83  548   3.872   5.615   1.894  0.1794 -0.5632  0.4715
    2CHTO  H155  549   3.817   5.524   1.870 -3.7828  1.4564  1.5021
    2CHTO   O56  550   4.012   5.597   1.865  0.2433 -0.7347  0.4584
    2CHTO  H135  551   4.049   5.627   1.785 -0.7466 -3.4420 -1.1082
    2CHTO   C81  552   3.799   5.736   1.820 -0.3060  0.2014 -0.2442
    2CHTO  H153  553   3.694   5.737   1.850 -0.0766 -0.8842  0.6390
    2CHTO   N14  554   3.791   5.710   1.671  0.5751  0.3921 -0.7891
    2CHTO  H141  555   3.833   5.796   1.623  0.8868 -0.0080 -1.2374
    2CHTO  H142  556   3.858   5.630   1.649  1.8344  1.1923  0.0794
    2CHTO   C79  557   3.867   5.872   1.864 -0.3992  0.2443  0.5233
    2CHTO  H151  558   3.817   5.955   1.813  0.3835  1.8684  2.3400
    2CHTO   O52  559   3.859   5.898   2.008 -0.4379 -0.2343  0.6197
    2CHTO   C86  560   3.915   5.784   2.090 -0.1916 -0.3062  0.8721
    2CHTO  H158  561   4.021   5.781   2.058 -0.7527 -2.0918 -0.8985
    2CHTO   C90  562   3.908   5.810   2.246  0.0049  0.1561 -0.0994
    2CHTO   O60  563   3.774   5.800   2.289 -0.1267  0.2364 -0.0169
    2CHTO  H138  564   3.745   5.711   2.297 -1.0601  0.3935 -1.2939
    2CHTO   O50  565   4.004   5.893   1.830 -0.2671  0.1503 -0.0308
    2CHTO   C73  566   4.110   5.980   1.786 -0.2170  0.4360  0.7893
    2CHTO  H145  567   4.065   6.079   1.769  1.3613  0.7402 -1.8780
    2CHTO   C74  568   4.158   5.938   1.647  0.1266  0.0360  0.9563
    2CHTO  H146  569   4.062   5.947   1.594  1.1460 -1.7367 -1.2561
    2CHTO   O54  570   4.256   6.035   1.597 -0.8254 -0.0181 -0.0716
    2CHTO  H133  571   4.294   6.011   1.515 -1.1950 -1.7530  0.2387
    2CHTO   C75  572   4.210   5.781   1.660  0.7138 -0.5210 -0.4023
    2CHTO  H147  573   4.124   5.714   1.673  0.4411 -0.1127 -0.0980
    2CHTO   N13  574   4.274   5.736   1.537 -0.1836 -0.3814  0.0358
    2CHTO  H139  575   4.210   5.713   1.453 -2.2037  0.3627  1.3309
    2CHTO  H140  576   4.327   5.645   1.562  0.0125 -0.4717 -0.7098
    2CHTO   C76  577   4.307   5.778   1.785 -0.0304 -0.2984 -0.4249
    2CHTO  H148  578   4.404   5.819   1.757  0.8567 -2.8054 -1.2157
    2CHTO   O49  579   4.259   5.848   1.902  0.3265 -0.3146 -0.3666
    2CHTO   C77  580   4.228   5.986   1.885 -0.3864  0.6068 -0.5827
    2CHTO  H149  581   4.314   6.039   1.843  0.6808 -0.1892  0.5876
    2CHTO   C88  582   4.186   6.057   2.012 -0.7723  0.9333  0.5819
    2CHTO   O58  583   4.291   6.091   2.080  0.2094 -0.7146 -0.5519
    2CHTO  H136  584   4.257   6.131   2.157  1.8760 -0.6106  0.1506
    2CHTO   O51  585   4.321   5.627   1.828  0.0072 -0.0014 -0.0662
    2CHTO   C78  586   4.421   5.592   1.945  0.6849  0.9660  0.2669
    2CHTO  H150  587   4.398   5.649   2.037 -1.7522 -1.0916  0.9829
    2CHTO   C80  588   4.571   5.613   1.907  0.3864 -0.1291 -0.1934
    2CHTO  H152  589   4.591   5.550   1.818 -0.0524  2.9102 -2.4859
    2CHTO   O55  590   4.595   5.752   1.879  0.1017  0.6131  0.8009
    2CHTO  H134  591   4.606   5.758   1.786  1.2137 -0.0876  0.8889
    2CHTO   C84  592   4.661   5.556   2.024 -0.1666 -0.3202  0.7281
    2CHTO  H156  593   4.639   5.606   2.119 -1.3400 -1.0778  0.8666
    2CHTO   N15  594   4.809   5.573   1.990  0.2559 -0.1204 -0.2644
    2CHTO  H143  595   4.831   5.678   1.986  1.2568 -0.1744  2.8725
    2CHTO  H144  596   4.873   5.522   2.060  0.4748  0.6985  0.1359
    2CHTO   C87  597   4.625   5.411   2.054  0.0633 -0.6947  0.0918
    2CHTO  H159  598   4.645   5.351   1.965  1.9329 -0.1316  0.1233
    2CHTO   O53  599   4.476   5.409   2.089 -0.2444  0.0180 -0.1580
    2CHTO   C82  600   4.391   5.443   1.978  0.6951 -0.2827  0.0249
    2CHTO  H154  601   4.407   5.378   1.892 -0.6801 -0.5189 -0.0556
    2CHTO   C89  602   4.250   5.434   2.023  0.1760  0.1561  0.1621
    2CHTO   O59  603   4.220   5.300   2.060  0.5018 -0.4328  0.1959
    2CHTO  H137  604   4.153   5.302   2.126  0.5909 -0.8535  0.2967
    2CHTO   O45  605   4.727   5.368   2.184 -0.4079 -0.4227  0.5642
    2CHTO   C67  606   4.656   5.310   2.295 -0.7075 -1.1638  0.3748
    2CHTO  H124  607   4.567   5.370   2.310 -0.8476 -0.7652 -1.9037
    2CHTO   C65  608   4.618   5.161   2.288  0.3294  0.5148  0.1309
    2CHTO  H122  609   4.694   5.108   2.231  0.1226 -2.1664  2.2289
    2CHTO   O44  610   4.493   5.158   2.214  0.3496 -0.2440 -0.0227
    2CHTO  H102  611   4.503   5.186   2.125  1.4593 -0.3286  0.0642
    2CHTO   C63  612   4.624   5.090   2.424 -0.3486  1.4206  0.0295
    2CHTO  H120  613   4.730   5.071   2.441 -1.3801 -4.3640  1.2067
    2CHTO   N11  614   4.589   4.942   2.417  0.1165 -0.1138 -1.0545
    2CHTO  H108  615   4.517   4.934   2.338  1.8652 -0.6133 -2.6315
    2CHTO  H109  616   4.555   4.902   2.510 -2.9921  2.4083 -1.0114
    2CHTO   C61  617   4.564   5.178   2.538 -0.4404  0.3848 -0.2186
    2CHTO  H118  618   4.572   5.123   2.633  0.9105 -0.1119 -0.6142
    2CHTO   O40  619   4.651   5.300   2.549 -0.3565  0.4977 -0.0936
    2CHTO   C68  620   4.733   5.335   2.427 -0.1153 -0.0707 -0.8361
    2CHTO  H125  621   4.821   5.269   2.443 -1.1094 -1.4508 -0.9515
    2CHTO   C72  622   4.779   5.486   2.435  0.8356  0.3829 -0.7630
    2CHTO   O48  623   4.684   5.593   2.433  0.7136  0.4844 -0.3979
    2CHTO  H105  624   4.633   5.571   2.358 -0.2129  1.0965  0.0535
    2CHTO   O38  625   4.426   5.220   2.521 -0.2436  0.7561 -0.4268
    2CHTO   C55  626   4.359   5.270   2.639 -0.1941 -0.2862  0.2550
    2CHTO  H112  627   4.432   5.319   2.706 -2.8004  0.0378  2.9696
    2CHTO   C56  628   4.292   5.147   2.714  0.4019 -0.2754 -0.4225
    2CHTO  H113  629   4.254   5.080   2.636  0.2556  0.9345 -1.3909
    2CHTO   O42  630   4.390   5.073   2.787 -0.3297  0.2251  0.6868
    2CHTO  H100  631   4.448   5.132   2.832  0.2335 -0.1966  0.5193
    2CHTO   C57  632   4.173   5.177   2.811  1.0251 -0.5864 -0.1890
    2CHTO  H114  633   4.208   5.200   2.912  0.1187  1.0631 -0.2305
    2CHTO   N10  634   4.083   5.059   2.836  0.5511  0.1217  0.2341
    2CHTO  H106  635   4.038   5.067   2.934 -0.7359 -1.2296 -0.2352
    2CHTO  H107  636   4.003   5.056   2.765  1.4338  0.2010 -0.7770
    2CHTO   C58  637   4.091   5.304   2.766  0.0509  0.0153  0.4853
    2CHTO  H115  638   4.010   5.271   2.698  1.5526 -0.0192 -1.3044
    2CHTO   O37  639   4.173   5.408   2.707 -0.6440  0.2062  0.4676
    2CHTO   C59  640   4.253   5.367   2.593  0.7936 -0.1909  0.2463
    2CHTO  H116  641   4.188   5.331   2.513 -1.2611  2.1806  0.7802
    2CHTO   C70  642   4.317   5.491   2.534  0.6090  0.2224 -0.3329
    2CHTO   O46  643   4.421   5.555   2.609 -0.5627  0.1533  0.3000
    2CHTO  H103  644   4.404   5.560   2.701 -2.2479  1.8072 -0.0647
    2CHTO   O39  645   4.025   5.366   2.896 -0.2881 -0.1875 -0.6644
    2CHTO   C60  646   3.960   5.497   2.890  0.4003  0.1877  0.4746
    2CHTO  H117  647   4.031   5.573   2.859 -1.4538  1.5554 -0.5526
    2CHTO   C62  648   3.839   5.510   2.793 -0.1080 -0.1522 -0.0461
    2CHTO  H119  649   3.880   5.486   2.692 -3.2104  0.7809 -1.6113
    2CHTO   O43  650   3.746   5.412   2.826  0.0187  0.1845  0.0377
    2CHTO  H101  651   3.741   5.394   2.918  3.3365  0.3601  0.3258
    2CHTO   C66  652   3.771   5.657   2.798 -0.1344  0.0058 -0.2269
    2CHTO  H123  653   3.851   5.729   2.785 -1.6507  1.5351 -1.2610
    2CHTO   N12  654   3.678   5.674   2.685 -0.0938 -0.2729  1.1110
    2CHTO  H110  655   3.619   5.760   2.714  0.4951 -0.2526  2.2723
    2CHTO  H111  656   3.628   5.586   2.647  0.9317  0.4282 -2.0528
    2CHTO   C69  657   3.713   5.665   2.938  0.8244  0.5638 -0.8631
    2CHTO  H126  658   3.640   5.588   2.971  0.0936  1.6679  0.1608
    2CHTO   O41  659   3.841   5.653   3.043 -0.9154 -0.8244  0.1473
    2CHTO   C64  660   3.932   5.529   3.041  0.2552  0.1720 -0.4134
    2CHTO  H121  661   3.885   5.442   3.092 -3.1301  0.6572 -2.5118
    2CHTO   C71  662   4.068   5.557   3.108  0.2205 -0.1703 -0.1941
    2CHTO   O47  663   4.070   5.594   3.247  0.1434 -0.6152  0.7505
    2CHTO  H104  664   4.043   5.531   3.312 -2.1447 -0.4479 -0.0220
    2CHTO   O34  665   3.653   5.811   2.955 -0.6393  0.5033  0.5626
    2CHTO   C49  666   3.553   5.907   2.995  0.1018 -0.0507  0.5662
    2CHTO   H91  667   3.492   5.870   3.077  2.0968  0.2088  2.2039
    2CHTO   C47  668   3.458   5.935   2.875  0.0537  0.1691  0.8067
    2CHTO   H89  669   3.373   5.993   2.916  0.4273  0.6714  0.8803
    2CHTO   O33  670   3.405   5.815   2.817 -0.6427  0.2239  0.4441
    2CHTO   H70  671   3.471   5.767   2.771  2.6299  1.1289  3.9404
    2CHTO   C45  672   3.541   6.012   2.767  0.1362  1.0578 -0.8347
    2CHTO   H87  673   3.614   5.935   2.738 -0.3912  1.6558 -3.9271
    2CHTO    N8  674   3.461   6.053   2.644 -0.3186  0.0886  1.0970
    2CHTO   H75  675   3.535   6.085   2.573  1.1289  0.5235  2.7748
    2CHTO   H76  676   3.409   5.965   2.609  1.1083 -0.0606 -0.6997
    2CHTO   C43  677   3.612   6.140   2.831  0.6331  0.4697 -0.0308
    2CHTO   H85  678   3.664   6.190   2.750 -3.6739  1.2447 -2.5005
    2CHTO   O29  679   3.690   6.116   2.948 -0.5072  0.1687 -0.0195
    2CHTO   C50  680   3.626   6.027   3.049 -0.0557  0.2970 -0.6149
    2CHTO   H92  681   3.699   5.992   3.124 -0.2417  0.1093 -0.5224
    2CHTO   C54  682   3.533   6.102   3.152  0.3352 -0.7577 -0.8839
    2CHTO   O36  683   3.524   6.037   3.279  0.1143 -0.7689 -0.0076
    2CHTO   H72  684   3.578   6.077   3.345 -0.3419  0.1872 -0.1948
    2CHTO   O27  685   3.513   6.235   2.875 -0.1933  0.2076  0.4250
    2CHTO   C37  686   3.432   6.358   2.876 -0.7162 -0.3699 -0.2139
    2CHTO   H79  687   3.413   6.381   2.770 -0.4261 -3.7884 -1.0660
    2CHTO   C38  688   3.290   6.324   2.946  0.3761 -0.4352  0.3233
    2CHTO   H80  689   3.315   6.274   3.041  1.0326 -2.1361 -0.7307
    2CHTO   O31  690   3.225   6.227   2.859  0.0628  0.2347  0.3820
    2CHTO   H68  691   3.246   6.147   2.903  2.4795  0.9132  0.5443
    2CHTO   C39  692   3.207   6.457   2.963  0.0699 -0.2264  0.6253
    2CHTO   H81  693   3.189   6.498   2.864  1.2134  2.1484  1.3355
    2CHTO    N7  694   3.075   6.445   3.021 -0.1761 -0.4932 -0.6879
    2CHTO   H73  695   3.043   6.343   3.035 -1.4633 -0.3403 -2.2621
    2CHTO   H74  696   3.012   6.524   2.981  0.2561  1.0334  1.5586
    2CHTO   C40  697   3.293   6.563   3.034  0.6352 -0.0442  0.0364
    2CHTO   H82  698   3.313   6.517   3.131 -0.9982 -1.6679 -0.3688
    2CHTO   O26  699   3.416   6.591   2.955  0.4149 -0.0033  0.4368
    2CHTO   C41  700   3.506   6.477   2.950  0.5589 -0.2790  0.2878
    2CHTO   H83  701   3.533   6.444   3.051  0.4697 -0.2842  0.3096
    2CHTO   C52  702   3.628   6.532   2.860 -0.5490  1.0346  0.4448
    2CHTO   O35  703   3.697   6.647   2.925 -0.6871 -0.0116  0.6468
    2CHTO   H71  704   3.739   6.706   2.866  0.4126 -0.7724  0.6675
    2CHTO   O28  705   3.230   6.695   3.059  0.4223 -0.2463 -0.1530
    2CHTO   C42  706   3.287   6.776   3.174 -0.5864  0.5023  0.4235
    2CHTO   H84  707   3.268   6.877   3.139  0.6762  0.0671 -1.6101
    2CHTO   C44  708   3.446   6.772   3.211 -0.2678 -0.0471  0.4899
    2CHTO   H86  709   3.475   6.668   3.225  1.6899  0.2923 -0.7839
    2CHTO   O32  710   3.517   6.809   3.089 -0.2506  0.0819 -0.1387
    2CHTO   H69  711   3.481   6.889   3.056 -0.3303 -0.9852 -2.7534
    2CHTO   C48  712   3.480   6.864   3.341  0.7462  0.2915  0.7216
    2CHTO   H90  713   3.461   6.968   3.315  1.2781  1.1524  3.5315
    2CHTO    N9  714   3.631   6.853   3.381  0.6135  0.3185 -0.0331
    2CHTO   H77  715   3.654   6.821   3.482  0.8410  0.2596 -0.1041
    2CHTO   H78  716   3.678   6.794   3.304 -0.4569  0.3055 -0.6813
    2CHTO   C51  717   3.388   6.822   3.463  0.2304 -0.3150 -0.6026
    2CHTO   H93  718   3.403   6.715   3.480 -1.0485 -1.1284 -4.0660
    2CHTO   O30  719   3.259   6.855   3.406  0.5422 -0.0764 -0.0224
    2CHTO   C46  720   3.208   6.753   3.302  0.2411 -0.7767 -0.4432
    2CHTO   H88  721   3.220   6.647   3.328 -0.6472 -0.5893  0.8372
    2CHTO   C53  722   3.057   6.788   3.297  0.1073  0.3676  0.3805
    2CHTO   O72  723   2.984   6.774   3.421  0.1109 -0.0140  0.2331
    2CHTO  H199  724   3.017   6.699   3.468  0.5698  0.8832  1.3538
    2CHTO   O22  725   3.394   6.898   3.584  0.0078  0.1970 -0.0084
    2CHTO   C31  726   3.325   6.856   3.712 -0.1295  0.7762 -0.0057
    2CHTO   H59  727   3.295   6.949   3.764  0.4877  0.5750  0.7174
    2CHTO   C29  728   3.199   6.771   3.698  0.0962  0.1666  0.4757
    2CHTO   H57  729   3.221   6.690   3.627  1.0945  2.5213 -1.9921
    2CHTO   O21  730   3.102   6.854   3.641 -0.0674  0.1353 -0.0942
    2CHTO   H37  731   3.124   6.887   3.556  2.5866 -0.9934  0.1039
    2CHTO   C27  732   3.150   6.712   3.835 -0.0686  0.1387  0.3627
    2CHTO   H55  733   3.101   6.791   3.893 -1.0876  0.3453 -0.7467
    2CHTO    N5  734   3.043   6.609   3.817  0.3013 -0.0607  0.9212
    2CHTO   H43  735   2.971   6.653   3.750  0.3663 -1.0297  0.2047
    2CHTO   H44  736   3.095   6.521   3.783  1.2707  0.7169  0.3612
    2CHTO   C25  737   3.267   6.662   3.924  0.0809 -0.1037 -0.0006
    2CHTO   H53  738   3.297   6.562   3.889 -0.8277  0.4300 -2.3976
    2CHTO   O17  739   3.393   6.747   3.922 -0.0480  0.0171  0.6654
    2CHTO   C32  740   3.437   6.790   3.798 -0.6653 -0.5697  0.2852
    2CHTO   H60  741   3.470   6.700   3.745  0.8691  0.1759 -0.0239
    2CHTO   C36  742   3.561   6.882   3.828  0.4286  0.2829 -0.1508
    2CHTO   O25  743   3.646   6.822   3.934 -1.1779 -0.2431 -0.4330
    2CHTO   H40  744   3.660   6.734   3.905  1.6465  0.0975 -0.2725
    2CHTO   O15  745   3.207   6.658   4.081  0.3521  0.0705 -0.4052
    2CHTO   C19  746   3.242   6.607   4.212 -0.2358 -0.2219  0.0567
    2CHTO   H47  747   3.147   6.563   4.245 -2.2830  1.3410 -3.4097
    2CHTO   C20  748   3.356   6.498   4.215 -0.6528  0.3424  0.0795
    2CHTO   H48  749   3.450   6.541   4.178  1.0544  0.2086  4.0691
    2CHTO   O19  750   3.315   6.392   4.132  0.1579 -0.1744  0.0324
    2CHTO   H35  751   3.347   6.310   4.164  2.0509  1.7767  3.4882
    2CHTO   C21  752   3.370   6.453   4.361  0.2409  0.6882  0.6652
    2CHTO   H49  753   3.276   6.416   4.401  0.9307 -0.8275  0.9228
    2CHTO    N4  754   3.465   6.341   4.396 -0.0817  0.8357 -0.1199
    2CHTO   H41  755   3.464   6.323   4.503  0.8658 -1.5172 -0.4512
    2CHTO   H42  756   3.566   6.368   4.366  0.9673 -2.3235  0.3170
    2CHTO   C22  757   3.394   6.575   4.457 -0.5071  0.1477 -0.6246
    2CHTO   H50  758   3.489   6.618   4.424 -0.4051  2.6925  2.6897
    2CHTO   O14  759   3.283   6.664   4.445 -0.0300  0.2105  0.2702
    2CHTO   C23  760   3.282   6.719   4.316  0.0256  0.4534  0.2160
    2CHTO   H51  761   3.383   6.756   4.296  0.5307 -0.7638  0.4733
    2CHTO   C34  762   3.184   6.837   4.331 -0.0959  0.4884  0.1377
    2CHTO   O23  763   3.249   6.945   4.395  0.0496  0.6414 -0.0794
    2CHTO   H38  764   3.267   6.929   4.486  0.8500  0.2306 -0.3012
    2CHTO   O16  765   3.389   6.539   4.600 -0.2025  0.4805 -0.1913
    2CHTO   C24  766   3.446   6.659   4.690 -0.8503  0.1862  0.4535
    2CHTO   H52  767   3.431   6.754   4.640 -0.1329 -0.0934 -0.2881
    2CHTO   C26  768   3.600   6.642   4.719 -0.0152 -0.3038  0.3334
    2CHTO   H54  769   3.615   6.541   4.763  0.3505  0.0928  1.1221
    2CHTO   O20  770   3.671   6.632   4.589 -0.6699  0.3105 -0.2115
    2CHTO   H36  771   3.755   6.590   4.592 -0.8826 -0.0024  1.7946
    2CHTO   C30  772   3.645   6.759   4.814  0.1571  0.4989  0.4581
    2CHTO   H58  773   3.639   6.855   4.762  0.6786 -0.5848 -1.6456
    2CHTO    N6  774   3.788   6.726   4.853 -0.1070 -0.1932 -0.0093
    2CHTO   H45  775   3.846   6.708   4.763  2.4119 -0.0303  1.5531
    2CHTO   H46  776   3.835   6.804   4.911 -3.4231  0.1756  2.3709
    2CHTO   C33  777   3.550   6.770   4.944 -0.0005 -0.9621  0.1656
    2CHTO   H61  778   3.556   6.673   4.995 -0.8142 -1.1784 -0.1343
    2CHTO   O18  779   3.421   6.790   4.894 -0.2062  0.2032 -0.0593
    2CHTO   C28  780   3.368   6.673   4.827 -0.1430 -0.5952  0.7811
    2CHTO   H56  781   3.393   6.588   4.891 -0.1246 -0.6115  0.7528
    2CHTO   C35  782   3.212   6.692   4.816 -0.7578  0.1478 -0.3702
    2CHTO   O24  783   3.145   6.587   4.751 -0.0358  0.2232 -0.8105
    2CHTO   H39  784   3.127   6.618   4.664 -0.4802  1.3903 -0.3241
    2CHTO    O9  785   3.579   6.869   5.045  0.3962 -0.1731 -0.0369
    2CHTO   C13  786   3.569   6.813   5.215  0.0070 -0.3184  0.3107
    2CHTO   H26  787   3.663   6.757   5.233 -1.7391 -3.1183  0.9731
    2CHTO   C11  788   3.440   6.724   5.242  0.1778 -0.0601  0.6929
    2CHTO   H24  789   3.455   6.629   5.189  1.7856  0.9513 -0.7256
    2CHTO    O8  790   3.313   6.780   5.202 -0.1016  0.2121  1.0674
    2CHTO    H3  791   3.319   6.871   5.226  2.7150 -0.0239  1.4458
    2CHTO    C9  792   3.450   6.686   5.392  0.0976  0.0839 -0.1072
    2CHTO   H22  793   3.544   6.630   5.405  1.0671  1.9610  1.2292
    2CHTO    N2  794   3.344   6.596   5.448  0.2293  0.2090 -0.0182
    2CHTO   H10  795   3.355   6.489   5.434 -0.4875 -0.0581  1.3315
    2CHTO   H11  796   3.304   6.625   5.545  0.8779  0.0190  0.3122
    2CHTO    C7  797   3.465   6.815   5.483 -0.0834 -0.5129 -0.3609
    2CHTO   H20  798   3.495   6.775   5.582  2.5400  0.3967 -0.7418
    2CHTO    O4  799   3.573   6.907   5.442  0.2708  0.5332 -0.0301
    2CHTO   C14  800   3.575   6.946   5.305  0.2018 -0.6045  0.0611
    2CHTO   H27  801   3.672   6.994   5.280  1.2587 -2.7765 -0.0841
    2CHTO   C18  802   3.463   7.053   5.276  0.4816  0.0230  0.0578
    2CHTO   O13  803   3.477   7.163   5.359 -0.7401 -0.3354 -0.3177
    2CHTO    H7  804   3.401   7.211   5.385 -1.0449 -1.4836  0.9321
    2CHTO    O2  805   3.317   6.899   5.493 -0.1084 -0.1956  0.3847
    2CHTO    C1  806   3.259   6.903   5.622  0.2707  0.5315  0.4609
    2CHTO   H14  807   3.314   6.838   5.693 -2.2179 -0.8303  1.2398
    2CHTO    C2  808   3.109   6.850   5.616 -0.0630 -0.1966  0.1339
    2CHTO   H15  809   3.073   6.915   5.535  0.3615 -0.3179 -0.1519
    2CHTO    O6  810   3.092   6.715   5.578  0.7277 -0.2956  0.1933
    2CHTO    H1  811   3.140   6.652   5.630  0.1029 -0.0456  1.0791
    2CHTO    C3  812   3.035   6.877   5.756  0.2093  0.6669 -0.3407
    2CHTO   H16  813   3.075   6.807   5.831 -1.0154  0.5560  0.2340
    2CHTO    N1  814   2.887   6.854   5.761  0.9882  0.6962  0.3809
    2CHTO    H8  815   2.854   6.821   5.663  2.5123 -0.7681  0.3365
    2CHTO    H9  816   2.864   6.778   5.834  0.6106 -0.6851 -1.1128
    2CHTO    C4  817   3.074   7.026   5.808 -0.3213 -0.4621  0.3936
    2CHTO   H17  818   3.014   7.098   5.753  2.3248  0.6759 -1.0865
    2CHTO    O1  819   3.218   7.054   5.802 -0.4212  0.2795  0.3784
    2CHTO    C5  820   3.272   7.046   5.670  0.2457 -0.3132 -0.1728
    2CHTO   H18  821   3.233   7.106   5.588  0.4794 -0.5365 -0.4492
    2CHTO   C16  822   3.423   7.084   5.695 -0.3031  0.2589 -0.4759
    2CHTO   O11  823   3.437   7.227   5.691  0.1781 -0.0369 -0.0798
    2CHTO    H5  824   3.387   7.263   5.762 -2.0521 -3.2133  0.0843
    2CHTO    O3  825   3.049   7.026   5.951  0.3386  1.0746 -0.1222
    2CHTO    C6  826   3.000   7.150   6.008  0.6571 -0.0908  0.9976
    2CHTO   H19  827   3.019   7.231   5.937 -1.3230  0.2489  0.8196
    2CHTO    C8  828   2.840   7.150   6.025  0.5969  0.0409 -0.3412
    2CHTO   H21  829   2.814   7.062   6.083  1.4019 -0.0497 -0.1207
    2CHTO    O7  830   2.787   7.141   5.892  0.8480  0.1886 -0.0286
    2CHTO    H2  831   2.697   7.167   5.902  0.0175 -2.0236 -1.2365
    2CHTO   C12  832   2.798   7.275   6.100  0.7477 -0.0067 -0.4119
    2CHTO   H25  833   2.810   7.356   6.025 -1.6436 -0.3965 -1.2570
    2CHTO    N3  834   2.655   7.251   6.133 -0.1823  0.5925 -0.1894
    2CHTO   H12  835   2.635   7.234   6.238  2.5340 -2.1074 -0.0410
    2CHTO   H13  836   2.601   7.333   6.089 -0.1376  0.5977 -0.2334
    2CHTO   C15  837   2.888   7.300   6.222 -1.1580 -0.0026  0.0734
    2CHTO   H28  838   2.872   7.217   6.291  3.2747 -0.6499  0.5173
    2CHTO   O10  839   2.869   7.433   6.304 -0.2021  0.4234 -0.3126
    2CHTO    H4  840   2.795   7.414   6.359  0.2503 -0.3466  0.0461
    2CHTO    O5  841   3.025   7.312   6.174  0.3114  0.5594 -0.4372
    2CHTO   C10  842   3.078   7.187   6.140 -0.7103 -0.5989  0.1355
    2CHTO   H23  843   3.053   7.103   6.206 -2.2617 -0.2896 -0.0409
    2CHTO   C17  844   3.227   7.193   6.133 -0.5185  0.3018  0.9159
    2CHTO   O12  845   3.283   7.240   6.250 -0.1562  0.4933  0.1631
    2CHTO    H6  846   3.376   7.245   6.245  0.0538  1.1458  3.6223
    3CHTO  H203  847   7.698   1.366   1.557 -0.8359 -0.3298  1.2077
    3CHTO   O82  848   7.657   1.305   1.498 -0.0879  0.1758  0.1500
    3CHTO  C123  849   7.539   1.226   1.533 -0.2928 -0.6692 -0.9305
    3CHTO  H227  850   7.561   1.170   1.625  0.8868 -2.0849 -2.0541
    3CHTO   O77  851   7.430   1.319   1.549  0.1553 -0.4775 -0.2619
    3CHTO  C118  852   7.311   1.273   1.614  1.3019  0.7314 -0.7291
    3CHTO  H222  853   7.329   1.239   1.717 -0.5114  1.3297 -0.1846
    3CHTO  C125  854   7.206   1.389   1.616 -0.0508  0.7638  0.3646
    3CHTO   O84  855   7.158   1.447   1.491 -0.2488  0.2639  0.1508
    3CHTO  H205  856   7.198   1.399   1.421 -1.9911  0.9530 -1.3483
    3CHTO  C114  857   7.259   1.158   1.525  0.1310 -0.4411  0.0143
    3CHTO  H218  858   7.217   1.197   1.432  2.7284  1.7237 -0.2806
    3CHTO  C116  859   7.364   1.056   1.470 -0.2034  0.2460 -0.6271
    3CHTO  H220  860   7.387   0.990   1.556  0.4271  1.0370 -0.1790
    3CHTO   O79  861   7.306   0.979   1.366  0.0204  0.3983  0.4731
    3CHTO  H201  862   7.279   1.028   1.291  0.5449 -0.0932 -0.0460
    3CHTO  C120  863   7.496   1.133   1.422  0.1901  0.4376 -0.4211
    3CHTO  H224  864   7.473   1.188   1.328  0.8929 -0.4211 -1.1002
    3CHTO   N21  865   7.599   1.035   1.382 -0.2293 -0.0108 -0.1579
    3CHTO  H211  866   7.649   0.994   1.468 -0.8070  1.2105  0.7695
    3CHTO  H212  867   7.567   0.959   1.312 -1.0540 -1.7873  2.0798
    3CHTO   O75  868   7.151   1.102   1.600 -0.2285 -0.2784  0.1693
    3CHTO  C112  869   7.021   1.060   1.518  0.2173  0.1263 -0.1688
    3CHTO  H216  870   7.048   1.011   1.423 -1.0906 -2.5478  0.7896
    3CHTO   O73  871   6.941   1.177   1.495 -0.2004 -0.4503  0.4172
    3CHTO  C113  872   6.825   1.145   1.428  0.2838 -0.9092  1.2681
    3CHTO  H217  873   6.864   1.099   1.334  1.6840 -0.4254  1.6002
    3CHTO  C124  874   6.749   1.281   1.393  0.0475  0.1317  0.1556
    3CHTO   O83  875   6.693   1.347   1.507  0.4751  0.6863  0.0086
    3CHTO  H204  876   6.756   1.353   1.576  2.4587 -0.6152 -1.6301
    3CHTO  C109  877   6.734   1.047   1.497  0.4333 -0.3346 -0.3941
    3CHTO  H213  878   6.692   1.097   1.586 -1.4202  1.7448 -2.3663
    3CHTO  C110  879   6.808   0.926   1.540  0.1279  0.9980 -0.1838
    3CHTO  H214  880   6.827   0.860   1.456  3.2789 -0.7311  1.8087
    3CHTO   O78  881   6.724   0.856   1.631 -0.0497  0.2386 -0.3497
    3CHTO  H200  882   6.641   0.834   1.593  0.2008 -1.2169 -0.1072
    3CHTO  C111  883   6.947   0.950   1.600  0.1438 -0.1324 -0.4293
    3CHTO  H215  884   6.939   0.987   1.703 -0.3031 -2.6171  0.4632
    3CHTO   N19  885   7.026   0.825   1.613 -0.1945 -0.0043 -1.0667
    3CHTO  H207  886   7.044   0.808   1.718 -2.5817  0.5134 -0.5444
    3CHTO  H208  887   6.992   0.742   1.553 -0.0626 -0.1592 -0.9292
    3CHTO   O74  888   6.626   1.012   1.406  0.2647 -0.2008  0.1807
    3CHTO  C115  889   6.472   1.039   1.491 -0.6789  0.6835  0.6441
    3CHTO  H219  890   6.484   1.036   1.599 -0.2311  1.3469  0.6167
    3CHTO   O76  891   6.430   1.171   1.466  0.5582 -0.6071  0.3106
    3CHTO  C122  892   6.304   1.213   1.510 -0.2506  0.2387 -0.0677
    3CHTO  H226  893   6.286   1.302   1.450  1.8908  0.7247 -0.0262
    3CHTO  C126  894   6.299   1.260   1.654  0.4220 -0.1902  0.3962
    3CHTO   O85  895   6.329   1.401   1.664  0.1882 -0.5028  0.0076
    3CHTO  H206  896   6.402   1.415   1.607  0.8177  0.9324  1.1288
    3CHTO  C121  897   6.187   1.113   1.478  0.8903  0.5088  0.0843
    3CHTO  H225  898   6.110   1.141   1.552  0.1346 -0.8892 -0.1522
    3CHTO   O81  899   6.146   1.137   1.343  0.3675 -0.4446  0.4164
    3CHTO  H202  900   6.103   1.219   1.328  1.3487  0.1355  0.6817
    3CHTO  C119  901   6.220   0.963   1.500 -0.7704 -0.9269 -0.0443
    3CHTO  H223  902   6.234   0.960   1.608  2.7869  1.4298 -0.3478
    3CHTO  C117  903   6.361   0.932   1.445 -0.1316 -0.3844  0.3389
    3CHTO  H221  904   6.373   0.935   1.336 -0.0132  1.2716  0.3729
    3CHTO   N20  905   6.417   0.798   1.479 -0.1977  0.0159 -0.6127
    3CHTO  H209  906   6.498   0.770   1.413 -0.6225 -0.5442 -0.9064
    3CHTO  H210  907   6.342   0.720   1.486 -0.1881  0.0282 -0.3718
    3CHTO   O80  908   6.098   0.872   1.470 -0.1750  0.1389 -0.3158
    3CHTO  C103  909   5.953   0.910   1.538 -0.1820  0.7631  0.2980
    3CHTO  H190  910   5.978   0.970   1.626  1.8471 -1.2649  1.1545
    3CHTO  C101  911   5.852   0.993   1.442 -0.9317 -0.4173 -0.2599
    3CHTO  H188  912   5.870   0.965   1.338 -0.1234  0.0505 -0.2535
    3CHTO   O68  913   5.891   1.153   1.443  0.3295  0.4618  0.3893
    3CHTO  H168  914   5.814   1.197   1.415  0.6465  1.6012  1.2586
    3CHTO   C99  915   5.698   0.967   1.472 -0.3348 -0.0104 -0.0074
    3CHTO  H186  916   5.670   1.024   1.563 -0.6027 -1.6386  0.9417
    3CHTO   N17  917   5.604   1.012   1.371  0.7971  0.7056 -0.4755
    3CHTO  H174  918   5.632   0.966   1.277 -0.2123 -0.8743 -0.0343
    3CHTO  H175  919   5.591   1.119   1.367  0.5598  0.7773  1.5068
    3CHTO   C97  920   5.673   0.816   1.503  0.3991 -0.6479  0.4034
    3CHTO  H184  921   5.687   0.751   1.415 -0.7261  0.9779 -1.0103
    3CHTO   O64  922   5.754   0.781   1.615  0.2036  0.1284  0.0569
    3CHTO  C104  923   5.898   0.772   1.578 -0.3244  0.2751  0.8396
    3CHTO  H191  924   5.912   0.695   1.502  1.6271  0.1466  1.3103
    3CHTO  C108  925   5.972   0.714   1.698 -0.0262  0.0134 -0.0022
    3CHTO   O71  926   5.936   0.579   1.739  0.3677  0.6180  0.1849
    3CHTO  H171  927   5.936   0.578   1.833 -0.1668 -0.1704  0.1873
    3CHTO   O62  928   5.541   0.783   1.546 -0.2983  0.5198  0.1039
    3CHTO   C91  929   5.510   0.639   1.530 -0.6075 -0.6370  0.2429
    3CHTO  H178  930   5.520   0.612   1.425  1.4374 -0.9221  0.4953
    3CHTO   C92  931   5.352   0.646   1.553  0.0785  0.2905 -0.2282
    3CHTO  H179  932   5.329   0.676   1.656 -1.0478  0.3128 -0.4735
    3CHTO   O66  933   5.292   0.752   1.469 -0.2312 -0.5023  0.4942
    3CHTO  H166  934   5.279   0.719   1.382 -1.5084  0.5523  0.2777
    3CHTO   C93  935   5.297   0.501   1.518 -0.1588  0.3851  0.1122
    3CHTO  H180  936   5.321   0.490   1.411 -0.3437  1.7096 -0.0746
    3CHTO   N16  937   5.146   0.499   1.526 -0.3235 -0.0107  0.9789
    3CHTO  H172  938   5.109   0.584   1.471  0.7053  0.7418  1.4456
    3CHTO  H173  939   5.111   0.406   1.483 -0.7365  1.2213 -1.4558
    3CHTO   C94  940   5.368   0.388   1.599 -0.2696 -0.6222 -0.0795
    3CHTO  H181  941   5.304   0.342   1.673  1.3223  1.2006  2.5115
    3CHTO   O61  942   5.474   0.437   1.686  0.6871 -0.0815 -0.0220
    3CHTO   C95  943   5.577   0.527   1.628 -0.2322 -0.1216 -0.2496
    3CHTO  H182  944   5.628   0.572   1.713 -0.8144 -2.0998  1.2122
    3CHTO  C106  945   5.688   0.442   1.547  0.2196  0.0801 -0.0237
    3CHTO   O69  946   5.639   0.430   1.414  0.0820 -0.2060 -0.5558
    3CHTO  H169  947   5.667   0.493   1.350 -0.2246  1.4567  0.9214
    3CHTO   O63  948   5.421   0.283   1.498 -0.0695  0.2793 -0.2054
    3CHTO   C96  949   5.352   0.131   1.491 -0.4434  0.7372  0.3109
    3CHTO  H183  950   5.390   0.067   1.411  3.0095 -0.8874  3.0799
    3CHTO   C98  951   5.199   0.150   1.462  0.3438 -0.6585  0.6647
    3CHTO  H185  952   5.161   0.216   1.541 -1.5895  3.1034 -3.1874
    3CHTO   O67  953   5.192   0.233   1.346  0.0589 -0.3750  0.2021
    3CHTO  H167  954   5.246   0.309   1.358  0.4523 -0.5379 -0.5256
    3CHTO  C102  955   5.120   0.015   1.456  0.8368  0.9289  0.4072
    3CHTO  H189  956   5.157  -0.048   1.373 -1.7549 -2.1763  1.4874
    3CHTO   N18  957   4.977   0.029   1.435  0.5787  0.0296  0.4477
    3CHTO  H176  958   4.929  -0.068   1.427 -0.9851  0.9567 -2.0101
    3CHTO  H177  959   4.921   0.094   1.501 -0.1760  0.1440 -0.3056
    3CHTO  C105  960   5.158  -0.059   1.589  0.5256  0.2559 -0.1059
    3CHTO  H192  961   5.114  -0.003   1.671  2.0506 -0.1119  0.9769
    3CHTO   O65  962   5.298  -0.076   1.604  0.1095  0.3074  0.0064
    3CHTO  C100  963   5.364   0.053   1.621  0.0238 -0.2458  0.3208
    3CHTO  H187  964   5.314   0.101   1.707  1.3090  1.1241  0.3185
    3CHTO  C107  965   5.508   0.033   1.657  0.6709 -0.2954  0.4578
    3CHTO   O70  966   5.583  -0.043   1.563 -0.2453 -0.8431 -0.9258
    3CHTO  H170  967   5.550  -0.131   1.553 -0.5165 -0.9741  0.9541
    3CHTO   O57  968   5.086  -0.223   1.582 -0.5252  0.4974 -0.3468
    3CHTO   C85  969   5.060  -0.290   1.703 -0.5474  0.9295 -0.5383
    3CHTO  H157  970   5.030  -0.392   1.670 -1.3361  0.7903  0.5654
    3CHTO   C83  971   4.933  -0.240   1.772 -0.2266  0.5151 -0.2455
    3CHTO  H155  972   4.843  -0.251   1.711 -0.2781  0.6552 -0.1956
    3CHTO   O56  973   4.942  -0.097   1.803  0.1595  0.5462 -0.4250
    3CHTO  H135  974   4.866  -0.072   1.852  0.8264 -1.3183  1.6983
    3CHTO   C81  975   4.915  -0.314   1.907  0.0222 -0.1298  0.2720
    3CHTO  H153  976   4.909  -0.421   1.885 -0.0598  0.2503 -1.6222
    3CHTO   N14  977   4.780  -0.283   1.970 -0.3192  0.5252  0.1328
    3CHTO  H141  978   4.711  -0.308   1.891 -2.8823  1.7692  1.9167
    3CHTO  H142  979   4.780  -0.179   1.993 -1.3821  0.3267  1.0454
    3CHTO   C79  980   5.044  -0.287   1.999 -0.1189 -1.0507  0.1374
    3CHTO  H151  981   5.031  -0.347   2.089 -1.5352 -0.3038  0.4496
    3CHTO   O52  982   5.160  -0.337   1.935 -0.3675  0.1585 -0.5476
    3CHTO   C86  983   5.187  -0.299   1.804 -0.0304  0.0214 -0.4022
    3CHTO  H158  984   5.245  -0.205   1.819 -0.0946 -0.2685  1.9142
    3CHTO   C90  985   5.284  -0.400   1.746 -0.4508 -0.2376 -0.3778
    3CHTO   O60  986   5.242  -0.535   1.734  0.5033 -0.4674 -0.2653
    3CHTO  H138  987   5.312  -0.592   1.710 -0.0204 -2.1045  1.8839
    3CHTO   O50  988   5.054  -0.149   2.045  0.1893  0.2137 -0.0523
    3CHTO   C73  989   5.073  -0.050   2.150  0.2989 -0.3407  0.6163
    3CHTO  H145  990   5.152  -0.078   2.222  1.3367 -4.8039 -2.0438
    3CHTO   C74  991   4.951  -0.028   2.239  0.2903 -0.0163 -0.2060
    3CHTO  H146  992   4.934  -0.132   2.271  1.2394  0.2583  1.2367
    3CHTO   O54  993   4.996   0.047   2.362  0.4059  0.7290  0.1868
    3CHTO  H133  994   4.961   0.016   2.444  0.4751  2.2886  0.8249
    3CHTO   C75  995   4.831   0.034   2.164 -0.0906  0.2457 -0.3415
    3CHTO  H147  996   4.801  -0.037   2.087 -0.4999  1.2714 -1.1390
    3CHTO   N13  997   4.713   0.042   2.257 -0.4334  0.6595 -0.8166
    3CHTO  H139  998   4.626   0.009   2.201 -1.7800 -0.3758  1.8217
    3CHTO  H140  999   4.717  -0.030   2.337  0.5644  0.8662 -0.6798
    3CHTO   C76 1000   4.883   0.166   2.082  0.3480  0.3394 -0.4882
    3CHTO  H148 1001   4.906   0.238   2.160 -2.1198  0.5108  0.1160
    3CHTO   O49 1002   5.001   0.127   1.997  0.4047 -0.3114  0.3609
    3CHTO   C77 1003   5.109   0.084   2.083  0.7310 -0.1895  0.1785
    3CHTO  H149 1004   5.123   0.169   2.149 -1.4585 -0.7640  1.4035
    3CHTO   C88 1005   5.231   0.069   1.989 -0.6077 -0.1977 -0.0427
    3CHTO   O58 1006   5.372  -0.007   2.080  0.0696 -0.1926 -0.1260
    3CHTO  H136 1007   5.345  -0.089   2.116 -0.8103  1.3088  2.7456
    3CHTO   O51 1008   4.779   0.217   1.989  0.1634  0.0378 -0.6362
    3CHTO   C78 1009   4.773   0.374   1.962  0.5628  0.2040  0.3460
    3CHTO  H150 1010   4.863   0.424   2.002  0.3833 -0.0566  1.0912
    3CHTO   C80 1011   4.651   0.424   2.035  0.7434 -0.7041 -0.4170
    3CHTO  H152 1012   4.564   0.377   1.986 -0.2795  0.1162  0.5860
    3CHTO   O55 1013   4.657   0.382   2.169  0.9231 -0.2845 -0.0336
    3CHTO  H134 1014   4.640   0.291   2.180  0.7972 -0.2897 -0.2579
    3CHTO   C84 1015   4.643   0.587   2.033  0.1352  0.4380 -0.3411
    3CHTO  H156 1016   4.724   0.623   2.097  0.0886 -2.6953  1.5550
    3CHTO   N15 1017   4.519   0.644   2.097  0.1876  0.5436  0.0810
    3CHTO  H143 1018   4.545   0.687   2.191  1.1266  0.6264 -0.2101
    3CHTO  H144 1019   4.454   0.561   2.116  1.5436 -0.0422  2.2301
    3CHTO   C87 1020   4.663   0.639   1.890 -0.6322 -0.3074  0.7415
    3CHTO  H159 1021   4.567   0.626   1.840 -0.3904 -0.1636  0.2360
    3CHTO   O53 1022   4.772   0.554   1.802 -0.5243 -0.1769 -0.0536
    3CHTO   C82 1023   4.762   0.414   1.812  0.5488 -0.1334 -0.4713
    3CHTO  H154 1024   4.669   0.375   1.770 -0.2728  3.9975 -2.6851
    3CHTO   C89 1025   4.874   0.355   1.729  0.2530  0.5519 -0.1399
    3CHTO   O59 1026   4.842   0.235   1.653 -0.3796  0.2270 -0.3325
    3CHTO  H137 1027   4.919   0.180   1.653 -1.5649 -1.4591 -2.0867
    3CHTO   O45 1028   4.705   0.791   1.899 -0.2035 -0.3283 -0.4606
    3CHTO   C67 1029   4.846   0.813   1.895  0.2323 -0.0674  0.2527
    3CHTO  H124 1030   4.904   0.722   1.911  0.4085  0.3213  1.9226
    3CHTO   C65 1031   4.891   0.869   1.749 -0.5911  0.3597 -0.1555
    3CHTO  H122 1032   4.801   0.922   1.718  0.2153  2.7130  1.3737
    3CHTO   O44 1033   4.925   0.753   1.668  0.6940 -0.3331 -0.1167
    3CHTO  H102 1034   4.889   0.762   1.582  0.3961  2.5269  0.2348
    3CHTO   C63 1035   5.008   0.980   1.757 -0.4023  0.3675  0.1122
    3CHTO  H120 1036   4.967   1.077   1.789  1.2995  1.0388  0.3158
    3CHTO   N11 1037   5.072   1.025   1.634 -0.1088 -0.0769 -0.7783
    3CHTO  H108 1038   5.137   1.106   1.657 -0.7110  0.3154 -0.4509
    3CHTO  H109 1039   5.109   0.936   1.586 -0.0830 -1.8142  2.3753
    3CHTO   C61 1040   5.104   0.940   1.870  0.1933  0.1953 -0.1940
    3CHTO  H118 1041   5.173   1.025   1.878 -0.5471  0.8099 -0.1800
    3CHTO   O40 1042   5.036   0.939   1.993  0.4482 -0.0283  0.4690
    3CHTO   C68 1043   4.893   0.913   2.005  0.4466  0.8991  0.1772
    3CHTO  H125 1044   4.843   1.012   1.998 -1.1841  0.0241 -0.9331
    3CHTO   C72 1045   4.855   0.860   2.136  0.2208  0.3902 -0.0674
    3CHTO   O48 1046   4.839   0.965   2.242  0.3553 -0.0560  0.9636
    3CHTO  H105 1047   4.879   0.944   2.325  0.2182 -1.2253  0.7495
    3CHTO   O38 1048   5.171   0.812   1.847  0.1616  0.5139  0.3816
    3CHTO   C55 1049   5.264   0.764   1.945  0.2441  0.1323 -0.1265
    3CHTO  H112 1050   5.225   0.785   2.046 -1.5615  1.3707 -1.0546
    3CHTO   C56 1051   5.406   0.830   1.924 -0.1233 -0.3745  1.1498
    3CHTO  H113 1052   5.430   0.810   1.818  0.0083  1.1040  0.9019
    3CHTO   O42 1053   5.405   0.969   1.930 -0.7118  0.1692 -0.0442
    3CHTO  H100 1054   5.327   0.999   1.887 -0.0855  0.8778 -0.6898
    3CHTO   C57 1055   5.509   0.767   2.022 -0.3772 -0.0764 -0.4562
    3CHTO  H114 1056   5.480   0.796   2.123 -0.2778  2.6737 -1.1617
    3CHTO   N10 1057   5.651   0.801   2.001 -0.5487 -0.2150 -0.1130
    3CHTO  H106 1058   5.668   0.901   1.965  0.4791  0.1019  1.2347
    3CHTO  H107 1059   5.706   0.729   1.942 -0.1453  0.3091 -0.3809
    3CHTO   C58 1060   5.495   0.613   2.015 -0.0295 -0.4057  0.4013
    3CHTO  H115 1061   5.529   0.577   1.916  0.9604  1.3939  0.0761
    3CHTO   O37 1062   5.360   0.562   2.035 -0.1562 -0.3828 -0.0497
    3CHTO   C59 1063   5.266   0.607   1.936  0.0033 -0.1331 -0.1743
    3CHTO  H116 1064   5.308   0.571   1.842  0.7484  0.5071 -0.0955
    3CHTO   C70 1065   5.131   0.539   1.970 -0.3132  0.6137 -0.0854
    3CHTO   O46 1066   5.143   0.396   1.956  0.6075  0.3267 -0.3318
    3CHTO  H103 1067   5.137   0.358   2.042  1.4736  1.1453  0.1028
    3CHTO   O39 1068   5.578   0.553   2.138  0.6756 -0.2804  0.0432
    3CHTO   C60 1069   5.599   0.411   2.119 -0.2077 -0.4739 -0.2419
    3CHTO  H117 1070   5.515   0.371   2.064 -1.2920 -0.2082  1.2071
    3CHTO   C62 1071   5.725   0.382   2.045 -0.4871  0.0967 -0.2138
    3CHTO  H119 1072   5.721   0.445   1.954 -1.9110  1.8795  1.0553
    3CHTO   O43 1073   5.845   0.420   2.117  0.1879  0.1468  0.0987
    3CHTO  H101 1074   5.859   0.512   2.119 -0.3466  0.2082  2.9396
    3CHTO   C66 1075   5.720   0.235   1.994  0.4106 -0.2920  0.8544
    3CHTO  H123 1076   5.620   0.218   1.953 -0.2806 -1.3650  2.9278
    3CHTO   N12 1077   5.824   0.204   1.892  0.1128  0.0076  0.7586
    3CHTO  H110 1078   5.777   0.224   1.796  0.1721 -1.2756  0.4517
    3CHTO  H111 1079   5.912   0.265   1.900 -1.1427  2.0560 -0.6981
    3CHTO   C69 1080   5.726   0.149   2.126 -0.9940 -0.2426  0.3066
    3CHTO  H126 1081   5.827   0.158   2.171 -0.5379  0.7664 -0.8673
    3CHTO   O41 1082   5.614   0.183   2.234  0.8362  0.1603 -0.2377
    3CHTO   C64 1083   5.597   0.338   2.254 -0.3503  0.7689  0.0232
    3CHTO  H121 1084   5.671   0.381   2.325 -1.3025  1.6677  0.4832
    3CHTO   C71 1085   5.458   0.360   2.318  0.1830 -0.0010  0.5512
    3CHTO   O47 1086   5.454   0.490   2.378  0.7046  0.1733  0.2049
    3CHTO  H104 1087   5.380   0.537   2.345  0.0921 -1.3153 -0.6084
    3CHTO   O34 1088   5.711  -0.020   2.084 -0.1374  0.7677 -0.0072
    3CHTO   C49 1089   5.810  -0.122   2.016  0.0505 -0.4828 -0.1407
    3CHTO   H91 1090   5.882  -0.075   1.950  0.6575  1.0175  1.5462
    3CHTO   C47 1091   5.736  -0.230   1.931  0.0134 -0.8201  0.2123
    3CHTO   H89 1092   5.707  -0.175   1.839  1.6614  4.1655  2.5015
    3CHTO   O33 1093   5.616  -0.270   2.002  0.7402  0.4605 -0.0668
    3CHTO   H70 1094   5.571  -0.188   2.009 -2.3747 -1.3024  1.4137
    3CHTO   C45 1095   5.830  -0.368   1.897  0.7468  0.5259  0.3719
    3CHTO   H87 1096   5.816  -0.448   1.972  1.3034  0.3679  0.3120
    3CHTO    N8 1097   5.808  -0.434   1.763 -0.4443 -0.4999 -0.2048
    3CHTO   H75 1098   5.852  -0.532   1.764  1.0048  0.1410  1.1087
    3CHTO   H76 1099   5.702  -0.448   1.746 -0.3602 -1.2152 -0.1594
    3CHTO   C43 1100   5.985  -0.337   1.926 -0.2547 -0.1768  0.2120
    3CHTO   H85 1101   6.040  -0.431   1.922  2.5161  1.3993  0.2912
    3CHTO   O29 1102   5.991  -0.278   2.060  0.2300 -0.3503  0.3733
    3CHTO   C50 1103   5.887  -0.210   2.120 -0.2701  0.3984 -0.1128
    3CHTO   H92 1104   5.813  -0.272   2.173 -0.6009  1.1395  0.3014
    3CHTO   C54 1105   5.950  -0.124   2.228 -0.3287  0.1971  0.0939
    3CHTO   O36 1106   6.047  -0.185   2.312  0.0447  0.0278  0.5520
    3CHTO   H72 1107   6.130  -0.196   2.270  0.0723 -2.1064  1.1449
    3CHTO   O27 1108   6.038  -0.247   1.828  0.1943 -0.2368  0.2848
    3CHTO   C37 1109   6.147  -0.156   1.793 -0.3689 -0.5805  0.3343
    3CHTO   H79 1110   6.156  -0.064   1.853  3.4900 -0.4751 -0.2488
    3CHTO   C38 1111   6.289  -0.230   1.815 -0.0059 -0.4893  0.0800
    3CHTO   H80 1112   6.289  -0.329   1.768  0.5508 -0.4150 -0.0750
    3CHTO   O31 1113   6.294  -0.251   1.953 -0.1740  0.3237 -0.7547
    3CHTO   H68 1114   6.349  -0.324   1.974 -1.3617 -0.3606  0.0080
    3CHTO   C39 1115   6.407  -0.147   1.757 -0.3116 -0.2436 -0.5593
    3CHTO   H81 1116   6.431  -0.072   1.831 -1.6778 -0.0004 -0.3519
    3CHTO    N7 1117   6.534  -0.229   1.762  0.9452  0.3054 -0.9036
    3CHTO   H73 1118   6.613  -0.183   1.819  1.9375 -1.0881 -1.1301
    3CHTO   H74 1119   6.568  -0.251   1.662  1.3670  1.9545 -1.1442
    3CHTO   C40 1120   6.379  -0.075   1.619  0.1179  0.2300 -0.2524
    3CHTO   H82 1121   6.389  -0.146   1.537 -1.9905 -0.3100 -0.0585
    3CHTO   O26 1122   6.250  -0.017   1.623 -0.0286  0.3567 -0.6599
    3CHTO   C41 1123   6.142  -0.113   1.640 -0.3001  0.3134 -0.3449
    3CHTO   H83 1124   6.166  -0.200   1.578 -1.2542  0.8482 -1.4666
    3CHTO   C52 1125   6.011  -0.037   1.601 -0.5159 -0.3647  0.0431
    3CHTO   O35 1126   5.876  -0.141   1.608  0.3130  0.5461 -0.6396
    3CHTO   H71 1127   5.875  -0.187   1.689 -1.4917  2.3436  0.4181
    3CHTO   O28 1128   6.484   0.020   1.581  0.0584 -0.1246 -0.7633
    3CHTO   C42 1129   6.471   0.152   1.517  0.3569  0.0688 -0.0689
    3CHTO   H84 1130   6.575   0.183   1.507  0.7016 -0.8271  0.6061
    3CHTO   C44 1131   6.400   0.260   1.612  0.4347  0.4790  0.3830
    3CHTO   H86 1132   6.301   0.218   1.628  0.6146  0.2873  0.9875
    3CHTO   O32 1133   6.485   0.263   1.731 -0.4435 -0.4435 -0.3667
    3CHTO   H69 1134   6.479   0.181   1.777  0.6911 -0.1103  0.4025
    3CHTO   C48 1135   6.365   0.399   1.542 -0.1217 -0.2446 -0.2873
    3CHTO   H90 1136   6.448   0.464   1.513  0.4898 -0.2272  1.4791
    3CHTO    N9 1137   6.285   0.479   1.643 -0.1131  0.3811 -0.3136
    3CHTO   H77 1138   6.334   0.466   1.738 -0.2571 -0.4161 -0.3478
    3CHTO   H78 1139   6.298   0.582   1.614  0.5897  0.4664  0.2870
    3CHTO   C51 1140   6.282   0.365   1.413  0.2314  0.3926  0.0602
    3CHTO   H93 1141   6.198   0.301   1.438  0.3170 -0.0815 -0.8538
    3CHTO   O30 1142   6.365   0.298   1.318  0.1091 -0.7951 -0.6788
    3CHTO   C46 1143   6.405   0.149   1.377 -0.8478 -0.3556 -0.0114
    3CHTO   H88 1144   6.315   0.088   1.372 -1.3712  0.5777 -3.2165
    3CHTO   C53 1145   6.504   0.091   1.270  0.5080  0.4487 -0.4773
    3CHTO   O72 1146   6.458   0.107   1.139 -0.3022 -0.5796 -0.7655
    3CHTO  H199 1147   6.523   0.139   1.080 -0.2221  2.0837  0.6999
    3CHTO   O22 1148   6.253   0.481   1.336  0.1582  0.6191 -0.0783
    3CHTO   C31 1149   6.157   0.478   1.226  0.1293 -0.3812  0.2618
    3CHTO   H59 1150   6.154   0.373   1.192  2.2121 -0.2717 -0.3088
    3CHTO   C29 1151   6.013   0.516   1.270 -0.3426  0.1170 -0.2566
    3CHTO   H57 1152   6.029   0.613   1.320 -0.9822  0.4198 -0.6253
    3CHTO   O21 1153   5.960   0.421   1.367 -0.1878 -0.5099  0.1004
    3CHTO   H37 1154   5.932   0.338   1.334  0.3516 -0.3294 -0.8119
    3CHTO   C27 1155   5.915   0.536   1.142  0.7241 -0.7657  0.0935
    3CHTO   H55 1156   5.902   0.437   1.096 -1.3825 -0.9903  1.1218
    3CHTO    N5 1157   5.778   0.595   1.164 -0.4338 -0.5005 -0.0890
    3CHTO   H43 1158   5.701   0.520   1.175  1.2174 -2.2147 -0.0822
    3CHTO   H44 1159   5.744   0.662   1.086  1.4209  1.0062  0.3365
    3CHTO   C25 1160   5.992   0.623   1.042 -0.0919 -0.6145 -0.4312
    3CHTO   H53 1161   6.010   0.724   1.080 -0.0849 -0.9377  0.4240
    3CHTO   O17 1162   6.117   0.563   1.005  0.6863  0.5732  0.3991
    3CHTO   C32 1163   6.209   0.572   1.107 -0.5616 -0.3355  0.2486
    3CHTO   H60 1164   6.241   0.667   1.148  1.4685 -1.0869  0.4741
    3CHTO   C36 1165   6.336   0.516   1.045  0.0724  0.8126  0.1098
    3CHTO   O25 1166   6.384   0.592   0.937  0.0997 -0.9142  0.6149
    3CHTO   H40 1167   6.469   0.563   0.910 -0.4322 -1.1380 -0.8898
    3CHTO   O15 1168   5.916   0.629   0.915  0.1223  0.3529 -0.6478
    3CHTO   C19 1169   5.895   0.726   0.807 -0.3099 -0.4706  0.6509
    3CHTO   H47 1170   5.821   0.680   0.741  0.0417  0.6724 -0.5648
    3CHTO   C20 1171   5.845   0.870   0.847  0.3683  0.1718 -0.3903
    3CHTO   H48 1172   5.910   0.916   0.923  1.3679  0.5743 -1.4753
    3CHTO   O19 1173   5.714   0.852   0.912  0.0507  0.5518  0.7734
    3CHTO   H35 1174   5.668   0.932   0.926 -2.6854 -1.1016  1.6657
    3CHTO   C21 1175   5.829   0.969   0.722  0.1936  0.0770  1.1486
    3CHTO   H49 1176   5.738   0.943   0.669  1.7834  0.7366 -2.0995
    3CHTO    N4 1177   5.801   1.106   0.767  0.4843  0.3644  0.2699
    3CHTO   H41 1178   5.774   1.172   0.685  1.5322  1.3542  0.7077
    3CHTO   H42 1179   5.870   1.159   0.831 -0.8123  0.5920  1.5032
    3CHTO   C22 1180   5.959   0.959   0.631  0.3960 -0.0550 -1.4351
    3CHTO   H50 1181   6.045   1.003   0.683 -0.9400 -0.0501  0.8695
    3CHTO   O14 1182   5.991   0.829   0.598  0.3012 -0.9740 -0.2353
    3CHTO   C23 1183   6.020   0.750   0.713 -0.0894 -0.0870  0.1503
    3CHTO   H51 1184   6.104   0.800   0.763 -0.2161 -0.2534  0.5324
    3CHTO   C34 1185   6.061   0.618   0.651 -0.5606  1.2141 -0.5473
    3CHTO   O23 1186   6.189   0.634   0.592  0.3016  0.3192 -0.7471
    3CHTO   H38 1187   6.245   0.703   0.624  1.4610 -0.3061 -1.4099
    3CHTO   O16 1188   5.940   1.018   0.503  0.1387  0.4962  0.0164
    3CHTO   C24 1189   6.014   1.163   0.476  0.4366 -0.2032  0.5474
    3CHTO   H52 1190   6.050   1.209   0.568 -3.9772  1.1640  1.7084
    3CHTO   C26 1191   5.901   1.244   0.402  0.1404 -0.1156 -0.1260
    3CHTO   H54 1192   5.870   1.186   0.312 -1.8024  1.6827 -0.6509
    3CHTO   O20 1193   5.784   1.256   0.488  0.9247 -0.3471 -0.5408
    3CHTO   H36 1194   5.702   1.242   0.446 -0.5352  0.9706  1.7166
    3CHTO   C30 1195   5.958   1.386   0.364  0.3589 -0.3277  0.1187
    3CHTO   H58 1196   5.970   1.448   0.454  2.0172 -0.0529 -0.2772
    3CHTO    N6 1197   5.865   1.467   0.282 -0.1317 -0.3980  0.2047
    3CHTO   H45 1198   5.770   1.466   0.333 -0.5973  1.0520 -0.6294
    3CHTO   H46 1199   5.855   1.408   0.192  0.5421 -0.5400  0.2163
    3CHTO   C33 1200   6.099   1.372   0.295 -0.0821 -0.4144 -0.1710
    3CHTO   H61 1201   6.087   1.336   0.192  2.8515  0.1526 -0.7656
    3CHTO   O18 1202   6.182   1.279   0.366  0.0426  0.0545  0.6569
    3CHTO   C28 1203   6.132   1.148   0.377  0.3953  0.7315  0.1328
    3CHTO   H56 1204   6.089   1.111   0.283  0.9486 -0.8945  0.5015
    3CHTO   C35 1205   6.238   1.052   0.430  0.0894 -0.0830 -0.2808
    3CHTO   O24 1206   6.273   1.063   0.567 -0.5820 -0.7383  0.6247
    3CHTO   H39 1207   6.360   1.032   0.582 -1.1512 -3.4254 -1.2377
    3CHTO    O9 1208   6.165   1.500   0.283 -0.9471 -0.1498 -0.3215
    3CHTO   C13 1209   6.281   1.562   0.413  0.2562  0.0374 -0.3499
    3CHTO   H26 1210   6.233   1.558   0.512 -2.4206  0.2917 -1.6013
    3CHTO   C11 1211   6.327   1.705   0.380  0.1782 -1.0026 -0.5482
    3CHTO   H24 1212   6.239   1.768   0.400  0.0799 -1.1446 -0.5319
    3CHTO    O8 1213   6.371   1.727   0.241 -0.4414  0.0649 -0.2966
    3CHTO    H3 1214   6.410   1.811   0.228  0.5305 -0.2285  0.6945
    3CHTO    C9 1215   6.426   1.749   0.488 -0.2512  0.3990 -0.6182
    3CHTO   H22 1216   6.388   1.723   0.588  2.5072  2.8492  1.1276
    3CHTO    N2 1217   6.448   1.895   0.498  0.1273 -0.3809 -0.7762
    3CHTO   H10 1218   6.527   1.908   0.570  0.9336 -1.0984 -1.5255
    3CHTO   H11 1219   6.358   1.940   0.540  0.8859  0.4627 -0.0340
    3CHTO    C7 1220   6.554   1.672   0.466 -0.2115 -0.4163  0.0713
    3CHTO   H20 1221   6.610   1.701   0.557 -1.4838 -3.3574  1.8740
    3CHTO    O4 1222   6.525   1.532   0.482 -0.6004  0.7843 -0.0008
    3CHTO   C14 1223   6.412   1.467   0.424 -0.2544  0.1017  0.3847
    3CHTO   H27 1224   6.387   1.378   0.485  0.5171 -0.8141 -0.6085
    3CHTO   C18 1225   6.463   1.408   0.286 -0.0771 -0.3691  0.5810
    3CHTO   O13 1226   6.559   1.300   0.303  0.3813  0.0809  0.2524
    3CHTO    H7 1227   6.595   1.268   0.222  2.5203 -0.2138  1.2695
    3CHTO    O2 1228   6.634   1.702   0.324  0.3390  0.0156 -0.2555
    3CHTO    C1 1229   6.753   1.628   0.304 -0.1216  0.0052 -0.6199
    3CHTO   H14 1230   6.719   1.522   0.302  2.1608 -0.7560 -0.3082
    3CHTO    C2 1231   6.880   1.651   0.408 -0.2656 -0.3779 -0.7425
    3CHTO   H15 1232   6.891   1.760   0.417  2.1209 -0.7955  2.0734
    3CHTO    O6 1233   6.839   1.607   0.536 -0.4874  0.5970 -0.2522
    3CHTO    H1 1234   6.796   1.523   0.535  0.9164 -0.1683  1.1170
    3CHTO    C3 1235   7.016   1.583   0.364  0.2251  0.3262 -0.1667
    3CHTO   H16 1236   7.008   1.473   0.372  1.5140  0.0996 -1.6956
    3CHTO    N1 1237   7.124   1.628   0.453 -0.0996 -0.1919 -0.0731
    3CHTO    H8 1238   7.217   1.601   0.405  0.6071  3.5454 -0.9558
    3CHTO    H9 1239   7.117   1.568   0.542 -1.6847  0.8585  0.5238
    3CHTO    C4 1240   7.037   1.614   0.205  0.4576  0.1307 -0.7575
    3CHTO   H17 1241   7.060   1.720   0.191 -0.6528  0.2560 -1.7528
    3CHTO    O1 1242   6.921   1.577   0.128 -0.0155  0.2827  0.1004
    3CHTO    C5 1243   6.812   1.663   0.160  0.6202 -0.8162  0.1371
    3CHTO   H18 1244   6.853   1.764   0.163  0.5578 -0.7753 -0.4546
    3CHTO   C16 1245   6.703   1.652   0.043  0.2320  0.2457 -0.1055
    3CHTO   O11 1246   6.636   1.521   0.034 -0.7431 -0.1399 -0.0462
    3CHTO    H5 1247   6.611   1.491   0.120  0.7184  0.8169  0.7434
    3CHTO    O3 1248   7.150   1.537   0.158 -0.2708  0.1735 -0.1324
    3CHTO    C6 1249   7.216   1.582   0.034 -0.4239  0.1453 -0.4620
    3CHTO   H19 1250   7.151   1.651  -0.019 -1.0394  0.9545  1.2960
    3CHTO    C8 1251   7.350   1.657   0.058 -0.0021 -0.1194 -0.0526
    3CHTO   H21 1252   7.411   1.600   0.128 -0.5001 -1.5818 -0.7801
    3CHTO    O7 1253   7.310   1.782   0.118  0.6501  0.2185  0.0027
    3CHTO    H2 1254   7.365   1.809   0.190 -0.2792  2.8572 -0.2386
    3CHTO   C12 1255   7.438   1.679  -0.074 -0.0738 -0.4289 -0.3183
    3CHTO   H25 1256   7.388   1.749  -0.144  0.4619 -0.4836 -0.7572
    3CHTO    N3 1257   7.577   1.735  -0.048  0.2971  0.7181 -0.6199
    3CHTO   H12 1258   7.566   1.834  -0.006 -1.5591  0.2290  0.1478
    3CHTO   H13 1259   7.623   1.665   0.021  0.2971 -0.0767 -1.4209
    3CHTO   C15 1260   7.452   1.544  -0.145  0.9924 -0.1289 -0.3660
    3CHTO   H28 1261   7.493   1.464  -0.084  0.0323 -0.5331 -0.2359
    3CHTO   O10 1262   7.494   1.543  -0.274  0.3189  0.9230 -0.0100
    3CHTO    H4 1263   7.580   1.580  -0.286  1.7292 -2.6187 -1.3792
    3CHTO    O5 1264   7.321   1.494  -0.174  0.7368 -0.3246 -0.3611
    3CHTO   C10 1265   7.239   1.462  -0.057 -0.1953 -0.3694  0.2843
    3CHTO   H23 1266   7.299   1.388  -0.004  1.2235  0.1488 -0.5759
    3CHTO   C17 1267   7.112   1.385  -0.101 -0.6199  0.1209  0.1869
    3CHTO   O12 1268   7.038   1.313  -0.003 -0.4131 -0.5028 -0.3011
    3CHTO    H6 1269   6.950   1.289  -0.024 -0.9080  0.6909  0.3796
    4CHTO  H203 1270   5.833   6.875   2.084  1.7460 -0.9444  1.2092
    4CHTO   O82 1271   5.883   6.929   2.026 -0.1276 -0.3086  0.1302
    4CHTO  C123 1272   5.843   7.066   2.039 -1.1435  0.0141  0.5713
    4CHTO  H227 1273   5.733   7.073   2.040 -1.1882 -0.6338  0.3922
    4CHTO   O77 1274   5.905   7.102   2.170  0.3922  0.0800  1.0322
    4CHTO  C118 1275   5.877   7.245   2.196  0.1443  0.2040  0.1332
    4CHTO  H222 1276   5.770   7.248   2.217  0.1064 -2.7866  0.6460
    4CHTO  C125 1277   5.946   7.295   2.327  0.1280 -0.4481  0.6944
    4CHTO   O84 1278   6.076   7.244   2.351  0.1945 -0.0232 -0.0736
    4CHTO  H205 1279   6.143   7.304   2.323 -0.0346 -0.3927 -1.4876
    4CHTO  C114 1280   5.921   7.342   2.086  0.0500 -0.2558  0.2107
    4CHTO  H218 1281   6.030   7.348   2.079  0.2068 -1.8639  1.0239
    4CHTO  C116 1282   5.866   7.298   1.944 -0.4880  0.6477  0.1584
    4CHTO  H220 1283   5.755   7.312   1.945 -0.7015 -0.8889 -0.2358
    4CHTO   O79 1284   5.911   7.396   1.846  0.2933 -0.1882 -0.0682
    4CHTO  H201 1285   5.925   7.350   1.766 -1.0184  1.6078 -1.3993
    4CHTO  C120 1286   5.903   7.144   1.916  0.4841 -0.2234 -0.0481
    4CHTO  H224 1287   6.014   7.139   1.915  0.4730 -0.5301  0.3699
    4CHTO   N21 1288   5.840   7.103   1.785 -0.6339 -0.5407 -0.3749
    4CHTO  H211 1289   5.863   7.181   1.714  0.6703 -1.8142 -1.3856
    4CHTO  H212 1290   5.733   7.099   1.799 -0.9732  2.7289 -1.4420
    4CHTO   O75 1291   5.852   7.466   2.127  0.5040  0.0196 -0.2447
    4CHTO  C112 1292   5.915   7.603   2.069 -0.4448  0.8856 -0.7777
    4CHTO  H216 1293   5.947   7.571   1.969 -1.7978 -1.4937 -0.4968
    4CHTO   O73 1294   6.024   7.631   2.151  0.0128 -0.0634 -0.2216
    4CHTO  C113 1295   6.105   7.734   2.101 -0.2254 -0.5099  0.3516
    4CHTO  H217 1296   6.160   7.714   2.006  0.6495  0.1167  0.7122
    4CHTO  C124 1297   6.218   7.748   2.201  0.0910 -1.2668 -0.5141
    4CHTO   O83 1298   6.326   7.832   2.169 -0.1770  0.0447 -0.2105
    4CHTO  H204 1299   6.382   7.829   2.243  0.9886  0.4416 -1.0636
    4CHTO  C109 1300   6.019   7.865   2.096 -0.0660  0.0724  0.0671
    4CHTO  H213 1301   5.997   7.890   2.201  0.9020  3.3214 -0.4344
    4CHTO  C110 1302   5.887   7.846   2.022 -0.3421  0.7835 -0.3093
    4CHTO  H214 1303   5.909   7.840   1.915 -0.5562 -0.8278 -0.2772
    4CHTO   O78 1304   5.815   7.970   2.051  0.1584 -0.4671  0.3282
    4CHTO  H200 1305   5.832   8.038   1.988  0.9135 -1.9954 -1.1404
    4CHTO  C111 1306   5.812   7.720   2.068  0.4218  0.2651  0.2966
    4CHTO  H215 1307   5.776   7.735   2.171  0.0415  2.2364 -0.1000
    4CHTO   N19 1308   5.695   7.685   1.991  0.3305  0.0037 -0.8181
    4CHTO  H207 1309   5.641   7.611   2.049  1.9953 -1.1346 -0.6882
    4CHTO  H208 1310   5.625   7.767   1.997  1.2536  0.5840  3.0242
    4CHTO   O74 1311   6.089   7.976   2.034  0.0320 -0.1813  0.0456
    4CHTO  C115 1312   6.110   8.106   2.111  0.2848 -0.2464  0.0502
    4CHTO  H219 1313   6.054   8.111   2.205  2.3975 -2.0159  1.4734
    4CHTO   O76 1314   6.273   8.128   2.159  0.5255 -0.4355 -0.2206
    4CHTO  C122 1315   6.357   8.149   2.049 -0.1023 -0.4261  0.0661
    4CHTO  H226 1316   6.351   8.059   1.988  1.6412 -0.7087  0.2832
    4CHTO  C126 1317   6.503   8.160   2.099  0.6233 -0.1693  0.2214
    4CHTO   O85 1318   6.561   8.029   2.120  0.2559  0.5469  0.3880
    4CHTO  H206 1319   6.581   8.004   2.208 -2.5594 -1.3597  0.5163
    4CHTO  C121 1320   6.311   8.273   1.962 -1.2695  0.4749 -0.0194
    4CHTO  H225 1321   6.391   8.350   1.953 -0.6459  0.1217  2.0710
    4CHTO   O81 1322   6.291   8.228   1.827 -0.2013  0.1410 -0.2061
    4CHTO  H202 1323   6.283   8.301   1.769 -2.6439  0.5753  0.6017
    4CHTO  C119 1324   6.181   8.345   2.013 -0.0365 -0.0403  0.4598
    4CHTO  H223 1325   6.198   8.375   2.116 -1.4662 -0.7528  0.9064
    4CHTO  C117 1326   6.068   8.229   2.022 -0.2432 -0.1851 -0.0921
    4CHTO  H221 1327   6.043   8.183   1.926 -0.9772  0.8044 -0.3811
    4CHTO   N20 1328   5.935   8.288   2.075 -0.1708 -0.0696 -0.2083
    4CHTO  H209 1329   5.890   8.336   1.989  2.9797 -0.3726 -2.1215
    4CHTO  H210 1330   5.876   8.205   2.111 -1.2490  0.0905 -1.5587
    4CHTO   O80 1331   6.154   8.490   1.938  0.0695 -0.1642 -0.3112
    4CHTO  C103 1332   6.147   8.625   2.015  0.3860  0.4133  0.1221
    4CHTO  H190 1333   6.053   8.630   2.070  0.7600  3.0505  0.5839
    4CHTO  C101 1334   6.266   8.664   2.110 -0.0470  0.6266  0.0656
    4CHTO  H188 1335   6.355   8.643   2.051 -1.2402 -1.6142 -0.9958
    4CHTO   O68 1336   6.270   8.577   2.242  0.8252 -0.3575 -0.5871
    4CHTO  H168 1337   6.349   8.530   2.259 -0.0434 -1.2059  1.1979
    4CHTO   C99 1338   6.271   8.822   2.148  0.4832  0.7788  0.6238
    4CHTO  H186 1339   6.182   8.854   2.205 -0.7704 -0.2329 -0.7141
    4CHTO   N17 1340   6.387   8.869   2.230 -0.0856 -0.2246 -0.3269
    4CHTO  H174 1341   6.370   8.970   2.263  0.1874 -1.0495  2.5312
    4CHTO  H175 1342   6.480   8.871   2.174  0.3123  2.4298  0.3595
    4CHTO   C97 1343   6.266   8.905   2.018 -0.6788 -0.0769 -0.7378
    4CHTO  H184 1344   6.354   8.876   1.958  0.0951  1.3407 -0.3186
    4CHTO   O64 1345   6.140   8.868   1.958 -0.4328 -0.1923  0.2012
    4CHTO  C104 1346   6.134   8.735   1.903 -0.1120  0.2154 -0.4936
    4CHTO  H191 1347   6.221   8.730   1.838  0.4294  1.4235  0.1249
    4CHTO  C108 1348   6.014   8.722   1.816  0.2040 -0.0726  0.2686
    4CHTO   O71 1349   5.896   8.768   1.880 -0.8777  0.3389  0.0796
    4CHTO  H171 1350   5.837   8.781   1.808  0.0619 -0.1234 -0.7909
    4CHTO   O62 1351   6.263   9.049   2.036  0.1168 -0.1237 -0.0763
    4CHTO   C91 1352   6.292   9.134   1.927  0.8618  0.5618 -0.5946
    4CHTO  H178 1353   6.256   9.080   1.839 -0.0157  1.6838 -0.9297
    4CHTO   C92 1354   6.435   9.170   1.897 -0.5751 -0.4196  0.1573
    4CHTO  H179 1355   6.471   9.243   1.971 -0.6077  0.3748 -0.6075
    4CHTO   O66 1356   6.514   9.047   1.923  0.4932  0.3430 -0.1001
    4CHTO  H166 1357   6.605   9.070   1.925  0.9455 -1.2154 -1.4513
    4CHTO   C93 1358   6.453   9.215   1.751  0.1696 -0.4656 -0.3486
    4CHTO  H180 1359   6.451   9.126   1.686  1.7704 -0.6932 -0.1182
    4CHTO   N16 1360   6.587   9.267   1.710 -0.2837  0.0043 -0.2083
    4CHTO  H172 1361   6.630   9.300   1.803  0.3980 -1.0707 -0.1345
    4CHTO  H173 1362   6.643   9.188   1.662 -0.5424  1.4247 -2.9126
    4CHTO   C94 1363   6.334   9.319   1.700 -0.1842 -0.0391 -0.1700
    4CHTO  H181 1364   6.371   9.407   1.649 -0.4658  0.4818  0.5255
    4CHTO   O61 1365   6.254   9.360   1.810  0.3041  0.1356 -0.4038
    4CHTO   C95 1366   6.213   9.271   1.921  0.3037  0.0780  0.4849
    4CHTO  H182 1367   6.230   9.323   2.015  0.5620 -0.6903  0.8681
    4CHTO  C106 1368   6.055   9.250   1.914 -1.0673 -0.4417 -0.2297
    4CHTO   O69 1369   6.004   9.176   1.804 -0.2888 -0.0354 -0.3558
    4CHTO  H169 1370   5.914   9.153   1.815 -1.3176  1.6634 -4.1839
    4CHTO   O63 1371   6.239   9.241   1.593 -0.0158 -0.2131 -0.5303
    4CHTO   C96 1372   6.291   9.240   1.448  0.2770  0.5701 -0.1101
    4CHTO  H183 1373   6.396   9.214   1.437 -0.4131 -2.0519 -0.7250
    4CHTO   C98 1374   6.263   9.371   1.372  0.6324  0.1201  0.4029
    4CHTO  H185 1375   6.161   9.410   1.391  0.5014  0.0444 -0.1321
    4CHTO   O67 1376   6.353   9.470   1.426  0.2218 -0.3377 -1.1342
    4CHTO  H167 1377   6.314   9.556   1.433 -0.6943 -0.8803  0.8580
    4CHTO  C102 1378   6.297   9.363   1.221 -0.3830 -0.6379 -0.0127
    4CHTO  H189 1379   6.405   9.347   1.216 -0.0935  0.9385  0.9478
    4CHTO   N18 1380   6.271   9.481   1.137  0.3463 -0.1728 -1.0364
    4CHTO  H176 1381   6.178   9.530   1.164  0.8748 -0.2053  0.9328
    4CHTO  H177 1382   6.274   9.464   1.031  0.6571  0.6574 -1.1679
    4CHTO  C105 1383   6.246   9.236   1.152 -0.2506 -0.6497 -0.3171
    4CHTO  H192 1384   6.141   9.252   1.125 -0.0239 -0.6791 -1.2403
    4CHTO   O65 1385   6.252   9.114   1.231  0.2885  0.0074  0.2745
    4CHTO  C100 1386   6.218   9.121   1.372  0.4443  0.7998  0.2181
    4CHTO  H187 1387   6.111   9.142   1.381  0.2598  0.1923 -0.5518
    4CHTO  C107 1388   6.245   8.982   1.443  0.7014 -0.0564  0.3440
    4CHTO   O70 1389   6.385   8.948   1.430 -0.2049 -0.1941  0.1568
    4CHTO  H170 1390   6.395   8.875   1.372 -0.2850  2.1029 -2.8983
    4CHTO   O57 1391   6.336   9.200   1.019  0.2177 -0.3662  0.1717
    4CHTO   C85 1392   6.273   9.128   0.918  0.2805 -0.6787 -0.6348
    4CHTO  H157 1393   6.164   9.113   0.934  0.7513 -2.2028  1.4047
    4CHTO   C83 1394   6.331   8.983   0.939  0.0571 -0.0835 -0.3865
    4CHTO  H155 1395   6.295   8.957   1.039  1.0826  3.0673  0.8417
    4CHTO   O56 1396   6.474   8.982   0.942 -0.1270 -0.0740  0.1172
    4CHTO  H135 1397   6.512   8.904   0.906  1.2689  0.4248  0.4947
    4CHTO   C81 1398   6.267   8.902   0.826  0.2087  0.2417  0.6540
    4CHTO  H153 1399   6.159   8.912   0.831 -0.1764 -2.1046 -2.2569
    4CHTO   N14 1400   6.297   8.758   0.833 -0.3502  0.5265 -0.8716
    4CHTO  H141 1401   6.401   8.732   0.843 -1.2430 -2.2880  1.9588
    4CHTO  H142 1402   6.245   8.714   0.915  0.6946 -0.7034 -0.8480
    4CHTO   C79 1403   6.316   8.950   0.683 -0.2950 -0.4130  0.4868
    4CHTO  H151 1404   6.256   8.898   0.609  1.8060  1.0960 -2.4358
    4CHTO   O52 1405   6.274   9.090   0.662 -0.2872 -0.0939  0.3636
    4CHTO   C86 1406   6.309   9.178   0.773 -0.2854  0.1560  0.0899
    4CHTO  H158 1407   6.417   9.203   0.767 -0.6277  2.1281  1.4905
    4CHTO   C90 1408   6.243   9.309   0.728 -0.4808  0.2833  0.2015
    4CHTO   O60 1409   6.108   9.307   0.690 -0.1993  0.3192  0.0860
    4CHTO  H138 1410   6.067   9.274   0.768  2.2516 -1.8111  0.5545
    4CHTO   O50 1411   6.461   8.948   0.652  0.2317  0.2180 -0.2146
    4CHTO   C73 1412   6.583   8.945   0.571 -0.2206 -0.3222 -0.3998
    4CHTO  H145 1413   6.582   9.033   0.505 -0.9338 -0.3500 -0.4271
    4CHTO   C74 1414   6.589   8.817   0.479 -0.1902 -0.2500  0.4718
    4CHTO  H146 1415   6.499   8.816   0.416 -1.0676 -3.6395  1.6995
    4CHTO   O54 1416   6.698   8.822   0.386  0.1019 -0.4579 -0.0625
    4CHTO  H133 1417   6.778   8.784   0.415 -0.0931 -0.6885  0.1652
    4CHTO   C75 1418   6.595   8.686   0.571  0.1759  0.2540  0.1324
    4CHTO  H147 1419   6.502   8.677   0.629 -0.8530 -0.3770 -1.5688
    4CHTO   N13 1420   6.618   8.558   0.505 -0.0146 -0.0159 -0.2456
    4CHTO  H139 1421   6.705   8.501   0.531 -1.1887 -2.0954 -0.7024
    4CHTO  H140 1422   6.630   8.577   0.399 -1.8718 -0.0898 -0.4964
    4CHTO   C76 1423   6.713   8.702   0.681 -0.2801 -0.3752 -0.2943
    4CHTO  H148 1424   6.807   8.691   0.628  0.3527 -2.5442  1.2186
    4CHTO   O49 1425   6.715   8.837   0.753 -0.7708 -0.1087 -0.5599
    4CHTO   C77 1426   6.712   8.948   0.658 -0.1531 -0.4305 -0.5170
    4CHTO  H149 1427   6.795   8.938   0.588  0.4878  1.3946 -0.0659
    4CHTO   C88 1428   6.721   9.082   0.729  1.0845  0.2293  0.2839
    4CHTO   O58 1429   6.858   9.091   0.796  0.2684  0.5151 -0.5963
    4CHTO  H136 1430   6.921   9.105   0.727  0.1398  0.1314 -0.7906
    4CHTO   O51 1431   6.689   8.598   0.803 -0.3270 -0.7075 -0.4661
    4CHTO   C78 1432   6.824   8.505   0.857  0.1765  0.0355  0.3236
    4CHTO  H150 1433   6.823   8.502   0.968  1.0979  0.9709  0.3719
    4CHTO   C80 1434   6.964   8.560   0.809  0.0591  0.6847 -0.1884
    4CHTO  H152 1435   6.969   8.565   0.698  1.5995  1.0620 -0.1083
    4CHTO   O55 1436   6.986   8.689   0.862 -0.1848 -0.1817 -0.4441
    4CHTO  H134 1437   6.993   8.686   0.956  0.4038  1.6907 -0.4065
    4CHTO   C84 1438   7.070   8.454   0.858 -0.3847  0.3723  0.7898
    4CHTO  H156 1439   7.073   8.448   0.967  1.7606 -0.7341  0.7057
    4CHTO   N15 1440   7.208   8.501   0.816  0.0366 -0.1773 -0.0034
    4CHTO  H143 1441   7.229   8.506   0.712 -1.4634  2.4682 -0.2340
    4CHTO  H144 1442   7.209   8.601   0.854 -0.2780 -0.2286  0.1486
    4CHTO   C87 1443   7.038   8.320   0.794 -0.0037 -0.0869  0.4071
    4CHTO  H159 1444   7.027   8.328   0.686  1.8733 -1.3200  0.1025
    4CHTO   O53 1445   6.902   8.277   0.862 -0.1503 -0.2557  0.0511
    4CHTO   C82 1446   6.795   8.358   0.814 -0.0925 -0.1237 -0.1395
    4CHTO  H154 1447   6.781   8.347   0.706 -0.2201 -0.6289 -0.0766
    4CHTO   C89 1448   6.664   8.306   0.880  0.5686  0.2124 -0.3388
    4CHTO   O59 1449   6.540   8.354   0.833  0.2992 -0.4644 -0.0942
    4CHTO  H137 1450   6.542   8.447   0.847 -0.7142 -0.3920 -0.4332
    4CHTO   O45 1451   7.146   8.195   0.816 -0.6145 -0.3172  0.0834
    4CHTO   C67 1452   7.209   8.158   0.689 -0.1467 -0.2612  0.0099
    4CHTO  H124 1453   7.224   8.247   0.628 -1.0964 -0.2676 -0.2500
    4CHTO   C65 1454   7.344   8.086   0.693 -0.6164  0.1100 -0.4427
    4CHTO  H122 1455   7.421   8.146   0.741 -2.7934  1.6189  1.2768
    4CHTO   O44 1456   7.407   8.069   0.562 -0.3457 -0.4801  0.7332
    4CHTO  H102 1457   7.349   8.032   0.498  1.3487  0.3387 -1.3297
    4CHTO   C63 1458   7.333   7.960   0.780 -0.5663  0.0704 -0.3985
    4CHTO  H120 1459   7.276   7.983   0.870  0.4116 -1.0770  0.5286
    4CHTO   N11 1460   7.463   7.903   0.834  0.5409  0.4845  0.0644
    4CHTO  H108 1461   7.503   7.863   0.743 -0.5784  0.4961 -0.4338
    4CHTO  H109 1462   7.523   7.982   0.874  0.9758 -0.0254  0.4322
    4CHTO   C61 1463   7.232   7.865   0.703  0.5320 -0.0348  0.3846
    4CHTO  H118 1464   7.199   7.785   0.772 -0.1787 -0.1692 -0.1062
    4CHTO   O40 1465   7.109   7.927   0.651 -0.1093  0.1819  0.1070
    4CHTO   C68 1466   7.108   8.068   0.607  0.9843  0.3256 -0.2657
    4CHTO  H125 1467   7.004   8.106   0.622  0.8486  0.4433 -1.4465
    4CHTO   C72 1468   7.129   8.067   0.453 -0.1555  0.1075  0.3869
    4CHTO   O48 1469   7.122   8.194   0.393 -0.7405 -0.4900  0.1079
    4CHTO  H105 1470   7.085   8.193   0.307 -1.1091 -3.0410  0.2674
    4CHTO   O38 1471   7.295   7.795   0.596  1.0355  0.4128 -0.2145
    4CHTO   C55 1472   7.246   7.662   0.555 -0.1159  0.1800  0.2563
    4CHTO  H112 1473   7.138   7.664   0.573 -0.2102  2.1285 -0.4531
    4CHTO   C56 1474   7.319   7.540   0.628  0.2724 -0.0540  0.1365
    4CHTO  H113 1475   7.420   7.522   0.588  0.8112  2.2355  0.4117
    4CHTO   O42 1476   7.332   7.566   0.771  0.4917  0.4379 -0.6240
    4CHTO  H100 1477   7.416   7.590   0.807  1.3520 -1.8181 -1.0378
    4CHTO   C57 1478   7.236   7.411   0.603 -0.2741 -0.1337  0.1678
    4CHTO  H114 1479   7.135   7.428   0.640 -0.0979 -0.4048  0.7845
    4CHTO   N10 1480   7.283   7.289   0.684 -0.6772  0.2587 -0.3098
    4CHTO  H106 1481   7.231   7.306   0.777  0.9181  1.0308  0.4550
    4CHTO  H107 1482   7.235   7.202   0.640 -1.1399  0.7796 -0.8346
    4CHTO   C58 1483   7.235   7.382   0.448 -0.2170  0.5554  0.3165
    4CHTO  H115 1484   7.330   7.334   0.419 -1.2416 -0.8805 -0.7641
    4CHTO   O37 1485   7.203   7.505   0.371  0.4558  0.2874 -0.4623
    4CHTO   C59 1486   7.259   7.637   0.393 -0.2083 -0.4526  0.4261
    4CHTO  H116 1487   7.363   7.647   0.362 -1.0459  0.1945 -2.3000
    4CHTO   C70 1488   7.188   7.745   0.314 -0.3707  0.2726  0.2706
    4CHTO   O46 1489   7.178   7.723   0.171  0.8985  0.3351 -0.3480
    4CHTO  H103 1490   7.173   7.804   0.126 -1.4243  0.0829 -0.5668
    4CHTO   O39 1491   7.106   7.288   0.399  0.2061 -0.2177  0.0554
    4CHTO   C60 1492   7.131   7.180   0.306 -0.6104 -0.0413  0.9263
    4CHTO  H117 1493   7.197   7.211   0.224 -0.0535 -0.3636  1.2448
    4CHTO   C62 1494   7.208   7.064   0.369 -0.3920  0.7387 -0.0486
    4CHTO  H119 1495   7.308   7.102   0.398 -0.9031  1.3782  0.8799
    4CHTO   O43 1496   7.146   7.030   0.498  0.0396  0.3104  0.1729
    4CHTO  H101 1497   7.168   7.089   0.568  0.8112  1.2495 -0.8454
    4CHTO   C66 1498   7.229   6.935   0.272 -0.0834 -0.4017  0.0684
    4CHTO  H123 1499   7.278   6.966   0.180  1.0800 -0.9492  0.4853
    4CHTO   N12 1500   7.319   6.837   0.343 -0.0690 -0.0615  0.2195
    4CHTO  H110 1501   7.329   6.742   0.291 -0.7923  0.1630 -0.3398
    4CHTO  H111 1502   7.410   6.892   0.358  1.3267 -2.2179 -0.1605
    4CHTO   C69 1503   7.093   6.880   0.234 -0.8120 -0.3101 -0.3933
    4CHTO  H126 1504   7.035   6.843   0.322 -0.7105  3.3038  1.2701
    4CHTO   O41 1505   7.007   7.004   0.167  0.6343 -0.2082 -0.5632
    4CHTO   C64 1506   6.997   7.138   0.248 -0.2932 -0.0518  0.3555
    4CHTO  H121 1507   6.927   7.114   0.331 -0.1086 -3.4109 -0.3771
    4CHTO   C71 1508   6.935   7.246   0.156  0.1781 -0.6514 -0.1511
    4CHTO   O47 1509   6.795   7.210   0.142  0.5523  0.0137 -0.3134
    4CHTO  H104 1510   6.757   7.175   0.220  1.1170 -0.7790 -0.3822
    4CHTO   O34 1511   7.097   6.771   0.127 -0.6191 -0.4362  0.1550
    4CHTO   C49 1512   7.093   6.636   0.075 -0.1108 -0.8703 -0.1843
    4CHTO   H91 1513   7.079   6.654  -0.032  0.5650  1.1131  0.0511
    4CHTO   C47 1514   6.968   6.561   0.136  1.3738 -0.5951  0.2769
    4CHTO   H89 1515   6.949   6.481   0.062  0.5526 -1.7462  1.7017
    4CHTO   O33 1516   6.855   6.655   0.128 -0.2150  0.1297  0.0482
    4CHTO   H70 1517   6.869   6.719   0.196 -1.1119  1.4199 -0.9483
    4CHTO   C45 1518   6.998   6.505   0.282 -0.5465 -0.2823  0.8254
    4CHTO   H87 1519   7.019   6.595   0.342  0.1867  0.1786 -0.1011
    4CHTO    N8 1520   6.877   6.435   0.336  0.1786 -0.0831 -0.3045
    4CHTO   H75 1521   6.858   6.338   0.293 -3.5299 -0.4628  1.9772
    4CHTO   H76 1522   6.888   6.422   0.443  0.0488 -1.0441 -0.4004
    4CHTO   C43 1523   7.139   6.424   0.295 -0.3900  0.1679 -0.0796
    4CHTO   H85 1524   7.167   6.410   0.399  0.8640 -2.4422 -0.7240
    4CHTO   O29 1525   7.243   6.493   0.223  0.1852 -0.6470  0.0114
    4CHTO   C50 1526   7.224   6.560   0.100 -0.1563  0.6523 -0.3110
    4CHTO   H92 1527   7.299   6.640   0.091  0.1902  0.3811  0.1417
    4CHTO   C54 1528   7.266   6.475  -0.024 -0.1755  0.4742  0.2736
    4CHTO   O36 1529   7.407   6.470  -0.034 -0.5667 -0.1692  0.0318
    4CHTO   H72 1530   7.439   6.558  -0.027  0.5021 -0.5719  0.2767
    4CHTO   O27 1531   7.137   6.297   0.248 -0.1288 -0.0138  0.1099
    4CHTO   C37 1532   7.112   6.157   0.222 -0.1953  0.1372  0.4165
    4CHTO   H79 1533   7.010   6.133   0.189 -0.1073 -0.5280  0.6269
    4CHTO   C38 1534   7.192   6.110   0.093  0.0504 -0.6439 -0.0596
    4CHTO   H80 1535   7.283   6.171   0.088 -1.2127  1.3455  0.6055
    4CHTO   O31 1536   7.122   6.157  -0.025  0.1045 -0.3230  0.3434
    4CHTO   H68 1537   7.044   6.106  -0.027 -0.8343  1.0985  0.1300
    4CHTO   C39 1538   7.215   5.956   0.081 -0.1693 -0.9133  0.0284
    4CHTO   H81 1539   7.120   5.919   0.041 -0.6507 -1.1378  1.3432
    4CHTO    N7 1540   7.325   5.926  -0.017 -0.2591  0.3361  0.0567
    4CHTO   H73 1541   7.303   5.977  -0.110 -0.6303  0.9097  0.4533
    4CHTO   H74 1542   7.357   5.823  -0.016 -1.6581 -0.1144 -0.4666
    4CHTO   C40 1543   7.237   5.886   0.222  0.5480 -0.3269  0.3303
    4CHTO   H82 1544   7.331   5.927   0.259  0.2479 -1.2513  2.1458
    4CHTO   O26 1545   7.125   5.934   0.303  0.4083  0.5595  0.0708
    4CHTO   C41 1546   7.138   6.067   0.349 -0.0128  0.2438  0.0103
    4CHTO   H83 1547   7.236   6.084   0.396 -0.0176  2.4423 -0.6931
    4CHTO   C52 1548   7.020   6.078   0.453 -0.1705 -0.0019  0.2314
    4CHTO   O35 1549   7.033   5.968   0.555  0.1796  0.3173  0.6532
    4CHTO   H71 1550   6.969   5.976   0.623 -0.1668  0.8214  0.2627
    4CHTO   O28 1551   7.236   5.740   0.218 -0.4803 -0.1201  0.3476
    4CHTO   C42 1552   7.348   5.666   0.277  0.2412  1.1022 -0.1429
    4CHTO   H84 1553   7.434   5.713   0.230  0.5509 -0.9998 -1.7240
    4CHTO   C44 1554   7.351   5.513   0.228 -0.6456 -0.1432  0.0528
    4CHTO   H86 1555   7.263   5.458   0.263 -1.7094  0.6711 -1.2993
    4CHTO   O32 1556   7.352   5.520   0.082  0.3951  0.5508 -0.1109
    4CHTO   H69 1557   7.269   5.510   0.039 -0.3244 -1.2005  1.5907
    4CHTO   C48 1558   7.488   5.440   0.284  0.8394 -0.4082  0.5434
    4CHTO   H90 1559   7.569   5.497   0.240 -1.0635  2.1014  0.2067
    4CHTO    N9 1560   7.497   5.296   0.241  0.4576 -0.8049  0.2819
    4CHTO   H77 1561   7.399   5.265   0.207  0.1282  0.0576  0.4184
    4CHTO   H78 1562   7.576   5.281   0.169  0.4702 -0.3877  0.2045
    4CHTO   C51 1563   7.487   5.454   0.439  0.3627 -1.4195  0.0322
    4CHTO   H93 1564   7.398   5.406   0.481 -2.8166  4.9587  1.2767
    4CHTO   O30 1565   7.486   5.596   0.466  0.0265  0.0530  0.1224
    4CHTO   C46 1566   7.366   5.669   0.431 -0.6854  0.0345 -0.2217
    4CHTO   H88 1567   7.282   5.612   0.473 -1.6411  1.7757  0.2744
    4CHTO   C53 1568   7.373   5.811   0.503  0.2754 -0.8786  0.1060
    4CHTO   O72 1569   7.480   5.901   0.460 -0.2985 -0.0661  0.0830
    4CHTO  H199 1570   7.504   5.961   0.528  0.3910  0.3041 -0.4812
    4CHTO   O22 1571   7.612   5.407   0.490 -0.1109  0.1158 -0.2011
    4CHTO   C31 1572   7.644   5.416   0.639 -0.1203 -0.1918  0.1490
    4CHTO   H59 1573   7.605   5.514   0.671  0.4251 -0.2383  0.9792
    4CHTO   C29 1574   7.582   5.306   0.730  0.0057 -0.2950 -0.2179
    4CHTO   H57 1575   7.630   5.209   0.710  3.9411  1.4396  0.2798
    4CHTO   O21 1576   7.440   5.300   0.702  0.8343 -0.3377  0.1556
    4CHTO   H37 1577   7.387   5.246   0.758  2.8682 -2.4761  0.0783
    4CHTO   C27 1578   7.606   5.338   0.885  0.4660  0.6086  0.1186
    4CHTO   H55 1579   7.549   5.428   0.914 -0.3268  0.4392 -0.8657
    4CHTO    N5 1580   7.559   5.227   0.974  0.0434 -0.1958  0.4280
    4CHTO   H43 1581   7.621   5.141   0.953  0.6117  0.2328  0.3574
    4CHTO   H44 1582   7.571   5.251   1.078 -0.4242 -0.8101  0.6287
    4CHTO   C25 1583   7.756   5.369   0.902 -0.3926  0.0239 -0.5714
    4CHTO   H53 1584   7.801   5.269   0.910  1.8415  1.1236  1.4575
    4CHTO   O17 1585   7.810   5.462   0.799 -0.3347  0.0721 -0.8232
    4CHTO   C32 1586   7.797   5.421   0.664  0.3430 -0.1139  0.2962
    4CHTO   H60 1587   7.841   5.324   0.642  2.4871  0.9675 -0.3632
    4CHTO   C36 1588   7.871   5.526   0.568 -0.2892 -0.3085 -0.0225
    4CHTO   O25 1589   7.790   5.647   0.551 -0.2204  0.0102 -0.1611
    4CHTO   H40 1590   7.837   5.714   0.505  0.1390 -0.5222 -0.5828
    4CHTO   O15 1591   7.782   5.431   1.027  0.3271 -0.2992 -0.4873
    4CHTO   C19 1592   7.732   5.520   1.120  0.0084 -0.5813  0.1600
    4CHTO   H47 1593   7.625   5.495   1.117  0.0769 -0.7064 -1.7335
    4CHTO   C20 1594   7.800   5.504   1.257  0.4627  0.1622  0.0936
    4CHTO   H48 1595   7.904   5.539   1.257  0.5697 -0.1475  0.4160
    4CHTO   O19 1596   7.793   5.360   1.286 -0.2095 -0.0280  0.0423
    4CHTO   H35 1597   7.706   5.324   1.291  0.0339 -0.8305 -1.4243
    4CHTO   C21 1598   7.724   5.592   1.360  0.7884  0.0502 -0.4179
    4CHTO   H49 1599   7.620   5.562   1.369  0.6051  0.4910 -1.0229
    4CHTO    N4 1600   7.781   5.574   1.501  0.0578 -0.3544 -0.7875
    4CHTO   H41 1601   7.700   5.575   1.573 -0.2609 -2.7980 -1.0522
    4CHTO   H42 1602   7.850   5.653   1.525 -0.7692  0.2646 -0.4261
    4CHTO   C22 1603   7.725   5.745   1.312  0.1352  0.1714  0.5042
    4CHTO   H50 1604   7.829   5.777   1.306  0.4736 -0.9939 -0.0211
    4CHTO   O14 1605   7.671   5.763   1.178  0.0240  0.1859  0.6684
    4CHTO   C23 1606   7.739   5.680   1.080  0.0087  0.8410 -0.6188
    4CHTO   H51 1607   7.841   5.720   1.084 -0.0561  0.9457  0.0905
    4CHTO   C34 1608   7.683   5.709   0.942  0.5290 -0.1746  0.1269
    4CHTO   O23 1609   7.651   5.847   0.930  0.2472  0.1911  0.0150
    4CHTO   H38 1610   7.558   5.855   0.945  0.4124 -2.4863  2.9121
    4CHTO   O16 1611   7.646   5.832   1.398 -0.2086  0.3303  0.6113
    4CHTO   C24 1612   7.613   5.992   1.334 -0.5680 -0.6833  0.3896
    4CHTO   H52 1613   7.563   5.985   1.237 -0.2148 -1.5195  0.2625
    4CHTO   C26 1614   7.743   6.069   1.320 -0.9251  0.3048 -0.0746
    4CHTO   H54 1615   7.801   6.066   1.414  1.5233 -0.2229 -1.5558
    4CHTO   O20 1616   7.822   6.009   1.212  0.4099  0.3361 -0.4389
    4CHTO   H36 1617   7.915   6.016   1.224  0.2664  0.0196  0.8844
    4CHTO   C30 1618   7.712   6.221   1.293 -0.4170 -0.4086 -0.2628
    4CHTO   H58 1619   7.673   6.228   1.191  0.8831  0.0052 -0.7304
    4CHTO    N6 1620   7.834   6.302   1.298 -0.5859 -0.1027  0.2692
    4CHTO   H45 1621   7.903   6.278   1.218 -0.1228 -0.9755  0.9210
    4CHTO   H46 1622   7.801   6.404   1.288  0.3615  0.2071  0.2280
    4CHTO   C33 1623   7.601   6.279   1.392 -0.5206 -0.3559  0.1115
    4CHTO   H61 1624   7.640   6.283   1.495 -1.7079  2.2412  0.5170
    4CHTO   O18 1625   7.488   6.193   1.395  0.1696  0.2197  0.1394
    4CHTO   C28 1626   7.513   6.054   1.435 -0.7331  0.6761  0.0962
    4CHTO   H56 1627   7.558   6.057   1.534 -0.8242  0.7377  0.1364
    4CHTO   C35 1628   7.376   5.976   1.436  0.0130 -0.4500  0.0117
    4CHTO   O24 1629   7.305   5.979   1.313  0.0419  0.2552  0.0823
    4CHTO   H39 1630   7.213   5.978   1.331 -0.1379  1.6179 -0.7012
    4CHTO    O9 1631   7.563   6.414   1.361  0.1026 -0.1016 -0.0437
    4CHTO   C13 1632   7.420   6.468   1.430 -0.4723  0.2585 -0.3672
    4CHTO   H26 1633   7.337   6.394   1.429  0.2980 -0.6146 -0.6451
    4CHTO   C11 1634   7.383   6.604   1.350  0.6495  0.5616 -0.0302
    4CHTO   H24 1635   7.353   6.580   1.246 -0.2790  1.4020  0.0343
    4CHTO    O8 1636   7.499   6.688   1.343 -0.1617 -0.5550 -0.3082
    4CHTO    H3 1637   7.480   6.779   1.329 -0.3878 -0.4141  0.8276
    4CHTO    C9 1638   7.254   6.658   1.421  0.0133  0.1230 -0.1827
    4CHTO   H22 1639   7.179   6.577   1.419  0.2206 -0.0373 -1.5100
    4CHTO    N2 1640   7.193   6.771   1.347 -0.7322  0.4134  0.0997
    4CHTO   H10 1641   7.099   6.799   1.391 -0.9400  0.8171 -0.5993
    4CHTO   H11 1642   7.259   6.856   1.339 -0.0173  0.1679  2.7822
    4CHTO    C7 1643   7.275   6.690   1.576 -0.2186 -0.5765  0.2746
    4CHTO   H20 1644   7.172   6.713   1.609 -0.4002 -1.7295  0.5266
    4CHTO    O4 1645   7.321   6.570   1.644 -0.4196 -0.3051 -0.5487
    4CHTO   C14 1646   7.438   6.499   1.587  0.0633 -0.2855 -0.2383
    4CHTO   H27 1647   7.445   6.400   1.636  1.2496  0.4087  1.0362
    4CHTO   C18 1648   7.569   6.571   1.600  0.7119  0.2844  0.0941
    4CHTO   O13 1649   7.632   6.548   1.727 -0.1248 -0.5760  0.2412
    4CHTO    H7 1650   7.643   6.455   1.731 -2.8553 -1.2130 -3.4834
    4CHTO    O2 1651   7.386   6.816   1.599  0.4605  0.2336 -0.1512
    4CHTO    C1 1652   7.333   6.927   1.671  0.1495 -0.1177 -0.1627
    4CHTO   H14 1653   7.222   6.927   1.673  0.1576  0.2864  0.7995
    4CHTO    C2 1654   7.379   7.064   1.605 -0.8237  0.4495 -0.5296
    4CHTO   H15 1655   7.488   7.060   1.591 -0.8870  0.8932 -1.1384
    4CHTO    O6 1656   7.315   7.067   1.475  0.0888  0.6060  0.8771
    4CHTO    H1 1657   7.226   7.092   1.494 -0.7132 -0.2755 -1.6066
    4CHTO    C3 1658   7.338   7.188   1.700 -0.6497  0.1086 -0.0863
    4CHTO   H16 1659   7.229   7.203   1.688 -0.7858  0.0374  1.0239
    4CHTO    N1 1660   7.410   7.307   1.648 -0.1268 -0.0940  0.5309
    4CHTO    H8 1661   7.498   7.331   1.705 -0.0383 -0.7497  0.6726
    4CHTO    H9 1662   7.345   7.391   1.625  2.0230  0.6110 -3.3407
    4CHTO    C4 1663   7.364   7.165   1.851  0.0787 -0.2120  0.2261
    4CHTO   H17 1664   7.469   7.178   1.875  0.5561 -0.9754 -1.4039
    4CHTO    O1 1665   7.318   7.035   1.880 -0.0397  0.5387 -0.3410
    4CHTO    C5 1666   7.370   6.921   1.820 -0.7065  0.0120  0.1033
    4CHTO   H18 1667   7.477   6.927   1.836 -0.3618  0.9977 -2.4389
    4CHTO   C16 1668   7.317   6.803   1.902 -0.6749  0.4092 -0.2012
    4CHTO   O11 1669   7.169   6.806   1.912 -0.4777 -0.5397  0.1072
    4CHTO    H5 1670   7.140   6.808   2.001 -0.4368 -0.9544  0.1350
    4CHTO    O3 1671   7.285   7.250   1.934  0.0076  0.2569 -0.3790
    4CHTO    C6 1672   7.321   7.304   2.061  0.6014 -0.0975  0.8589
    4CHTO   H19 1673   7.412   7.271   2.112  1.1784  0.4355  0.1902
    4CHTO    C8 1674   7.345   7.459   2.038  0.4762 -0.3789  1.0806
    4CHTO   H21 1675   7.260   7.500   1.984 -0.7081 -1.1631  2.3271
    4CHTO    O7 1676   7.461   7.458   1.952  0.1228 -0.0971  0.4164
    4CHTO    H2 1677   7.468   7.550   1.935  1.7578 -0.6133 -1.9533
    4CHTO   C12 1678   7.354   7.541   2.171 -0.2394 -0.1486  0.2440
    4CHTO   H25 1679   7.449   7.521   2.224 -0.4068 -0.0303  0.5855
    4CHTO    N3 1680   7.369   7.687   2.142 -0.1327  0.5829 -0.4590
    4CHTO   H12 1681   7.463   7.696   2.090  0.6795  0.6523  0.9969
    4CHTO   H13 1682   7.284   7.727   2.088 -0.4480 -0.2481 -0.5885
    4CHTO   C15 1683   7.232   7.500   2.259 -0.5109  0.8218 -0.5004
    4CHTO   H28 1684   7.140   7.546   2.221 -1.2378  0.8486  1.2557
    4CHTO   O10 1685   7.259   7.540   2.405 -0.2020  0.1434 -0.1397
    4CHTO    H4 1686   7.325   7.476   2.427 -0.0809 -0.4497 -2.1269
    4CHTO    O5 1687   7.220   7.356   2.268  0.2314  0.0480 -0.3451
    4CHTO   C10 1688   7.211   7.272   2.150 -0.3152  0.5484 -0.1035
    4CHTO   H23 1689   7.116   7.285   2.097  0.7277  0.8044 -1.9488
    4CHTO   C17 1690   7.216   7.128   2.211 -0.3438 -0.2760  0.3162
    4CHTO   O12 1691   7.157   7.041   2.112  0.1041 -0.1242 -0.0148
    4CHTO    H6 1692   7.204   6.960   2.107  0.2880 -0.1692  1.8486
    5CHTO  H203 1693   7.932   3.808   1.068  1.5445 -1.0759  0.1659
    5CHTO   O82 1694   7.901   3.766   0.990 -0.1032 -0.1893  0.3276
    5CHTO  C123 1695   7.836   3.641   1.017 -0.5273 -0.7636 -0.2720
    5CHTO  H227 1696   7.846   3.578   0.928 -1.0802 -0.7928 -0.3167
    5CHTO   O77 1697   7.906   3.581   1.134  0.0264  0.3148 -0.0964
    5CHTO  C118 1698   7.852   3.453   1.170  0.5918  0.0498  0.5887
    5CHTO  H222 1699   7.848   3.378   1.090 -0.3400  0.9156 -0.1841
    5CHTO  C125 1700   7.932   3.402   1.296 -0.0778 -0.0156 -0.4680
    5CHTO   O84 1701   7.913   3.488   1.412 -0.1771 -0.0046 -0.0750
    5CHTO  H205 1702   7.908   3.432   1.487 -2.7670  1.8387  1.1864
    5CHTO  C114 1703   7.705   3.475   1.208 -0.1367  0.0363  0.2450
    5CHTO  H218 1704   7.709   3.553   1.284  1.9477  0.5631 -0.3750
    5CHTO  C116 1705   7.620   3.524   1.092  0.1413  0.4857 -0.1841
    5CHTO  H220 1706   7.624   3.437   1.023  1.3067 -0.7410  1.4255
    5CHTO   O79 1707   7.484   3.539   1.145 -0.5358 -0.1870  0.5606
    5CHTO  H201 1708   7.423   3.520   1.077  0.3103 -2.8839  0.4826
    5CHTO  C120 1709   7.678   3.652   1.033 -0.4409  0.2806 -0.0093
    5CHTO  H224 1710   7.654   3.733   1.106  1.6235  0.4096  0.5567
    5CHTO   N21 1711   7.611   3.679   0.902 -0.4016  0.2311  0.5126
    5CHTO  H211 1712   7.510   3.709   0.926 -0.1552  0.2642  1.5200
    5CHTO  H212 1713   7.618   3.603   0.825 -0.3646  0.0908  0.6562
    5CHTO   O75 1714   7.664   3.354   1.270  0.2578  0.1512  0.6196
    5CHTO  C112 1715   7.543   3.352   1.365  0.4889  0.1388 -0.1278
    5CHTO  H216 1716   7.451   3.353   1.304  0.2350  0.8860  0.2515
    5CHTO   O73 1717   7.544   3.463   1.457 -0.8355  0.1265 -0.4353
    5CHTO  C113 1718   7.438   3.457   1.550 -0.5791 -0.6534  0.7117
    5CHTO  H217 1719   7.342   3.470   1.496 -0.3411  2.8149  1.0182
    5CHTO  C124 1720   7.451   3.590   1.632 -0.7664 -0.4817  0.0069
    5CHTO   O83 1721   7.570   3.591   1.710  0.5202 -0.1034 -0.7146
    5CHTO  H204 1722   7.605   3.678   1.716  1.7173 -0.5081 -1.6952
    5CHTO  C109 1723   7.439   3.325   1.631  0.2938  0.1092  0.0801
    5CHTO  H213 1724   7.532   3.325   1.689  0.8456  0.3185 -0.7987
    5CHTO  C110 1725   7.425   3.202   1.537  0.1531  0.6394 -0.7903
    5CHTO  H214 1726   7.331   3.214   1.483  0.3003  1.7634 -0.8091
    5CHTO   O78 1727   7.424   3.086   1.626 -0.1346 -0.1020 -0.4000
    5CHTO  H200 1728   7.503   3.035   1.615  0.4976  0.8059 -0.1324
    5CHTO  C111 1729   7.545   3.207   1.438 -0.2377  0.0771 -0.0224
    5CHTO  H215 1730   7.641   3.207   1.491  0.1581 -0.4551 -0.7320
    5CHTO   N19 1731   7.551   3.091   1.347  0.1788 -0.1495  0.0218
    5CHTO  H207 1732   7.457   3.037   1.342  0.3635 -0.2727 -3.1655
    5CHTO  H208 1733   7.627   3.019   1.372 -0.1460 -1.0803 -1.5782
    5CHTO   O74 1734   7.331   3.339   1.724 -0.5447  0.2286  0.0007
    5CHTO  C115 1735   7.369   3.299   1.870 -0.0764  0.0666  0.4857
    5CHTO  H219 1736   7.461   3.241   1.870  0.6028  1.0989 -1.5326
    5CHTO   O76 1737   7.400   3.429   1.958  0.0227 -0.8731  0.2255
    5CHTO  C122 1738   7.294   3.525   1.970 -0.0410 -0.1181 -0.3214
    5CHTO  H226 1739   7.293   3.589   1.882 -1.6862  2.5231  1.5486
    5CHTO  C126 1740   7.322   3.612   2.100  0.1938 -0.2832  0.2411
    5CHTO   O85 1741   7.345   3.533   2.219  0.0623 -0.2647 -0.1161
    5CHTO  H206 1742   7.271   3.538   2.277 -0.3042  1.8384 -0.7255
    5CHTO  C121 1743   7.154   3.447   1.983  0.2110 -0.3755  0.1961
    5CHTO  H225 1744   7.094   3.505   2.057  2.7494  2.2219  0.3229
    5CHTO   O81 1745   7.099   3.458   1.851 -0.0404 -0.5834  0.3754
    5CHTO  H202 1746   7.009   3.431   1.852  0.1030 -1.3639 -2.5261
    5CHTO  C119 1747   7.167   3.296   2.027  0.0174  0.4055 -0.0540
    5CHTO  H223 1748   7.226   3.302   2.119  1.6413  1.2621 -1.1373
    5CHTO  C117 1749   7.252   3.219   1.922 -0.1918  0.2261  0.0189
    5CHTO  H221 1750   7.190   3.194   1.835 -2.3331  1.5522  1.1126
    5CHTO   N20 1751   7.296   3.085   1.979 -0.1799 -0.0025 -0.5283
    5CHTO  H209 1752   7.338   3.029   1.897  1.2320  0.3174 -0.0430
    5CHTO  H210 1753   7.208   3.030   2.010 -0.9910  1.7241  0.3231
    5CHTO   O80 1754   7.036   3.228   2.080 -0.3217  0.3130 -0.0360
    5CHTO  C103 1755   6.894   3.209   1.984 -0.6317  0.5485 -0.1325
    5CHTO  H190 1756   6.892   3.298   1.920 -0.8373  1.2619  0.8488
    5CHTO  C101 1757   6.869   3.074   1.908 -0.1335  0.1003  0.8939
    5CHTO  H188 1758   6.864   2.990   1.976 -0.5716 -1.6919 -1.2807
    5CHTO   O68 1759   6.986   3.062   1.809  0.1147  0.0296 -0.0050
    5CHTO  H168 1760   7.054   3.007   1.843  0.6543  0.1105 -0.9434
    5CHTO   C99 1761   6.733   3.081   1.840  0.0642 -0.6774  0.1693
    5CHTO  H186 1762   6.740   3.166   1.769 -1.0126  0.7622  1.7740
    5CHTO   N17 1763   6.715   2.950   1.763  0.0417 -0.1113 -0.0353
    5CHTO  H174 1764   6.623   2.960   1.706 -0.8238  1.1332  1.5414
    5CHTO  H175 1765   6.711   2.861   1.824  1.3745 -1.2321 -1.5524
    5CHTO   C97 1766   6.620   3.110   1.939  0.2882  0.0427  0.0093
    5CHTO  H184 1767   6.623   3.019   2.000  3.2465  0.0614 -0.0516
    5CHTO   O64 1768   6.647   3.229   2.016 -0.1269  0.5859 -0.1062
    5CHTO  C104 1769   6.772   3.232   2.088  0.0528  0.0794 -0.0153
    5CHTO  H191 1770   6.771   3.155   2.165 -0.8039  0.2331  0.1403
    5CHTO  C108 1771   6.790   3.368   2.164  0.2496  0.1072 -0.4778
    5CHTO   O71 1772   6.832   3.476   2.083  0.0929 -0.6192 -0.5634
    5CHTO  H171 1773   6.779   3.549   2.108  1.4840  0.5090 -0.8209
    5CHTO   O62 1774   6.492   3.130   1.873 -1.2493  0.0065 -0.1943
    5CHTO   C91 1775   6.374   3.085   1.938 -0.2887  0.7804 -0.7990
    5CHTO  H178 1776   6.398   3.075   2.044 -0.2169  1.2069 -0.7747
    5CHTO   C92 1777   6.347   2.938   1.882 -0.5826 -0.1805  0.0718
    5CHTO  H179 1778   6.363   2.944   1.773 -3.0614  1.6259 -0.2342
    5CHTO   O66 1779   6.438   2.840   1.931 -0.1107 -0.2440  0.5062
    5CHTO  H166 1780   6.410   2.824   2.019 -1.4878  0.4582  0.2180
    5CHTO   C93 1781   6.195   2.875   1.891  0.5126  0.7533 -0.5591
    5CHTO  H180 1782   6.181   2.843   1.996 -0.5331  0.4557 -0.7861
    5CHTO   N16 1783   6.176   2.747   1.826  0.2228  0.4432  0.5051
    5CHTO  H172 1784   6.259   2.721   1.761 -1.8303 -1.0104 -1.6134
    5CHTO  H173 1785   6.077   2.733   1.786  0.4706 -0.9791  0.3556
    5CHTO   C94 1786   6.094   2.989   1.860  0.1605  0.0717 -0.7881
    5CHTO  H181 1787   6.094   3.014   1.754 -0.0104 -0.6503 -0.9626
    5CHTO   O61 1788   6.124   3.103   1.943  0.2922 -0.3995 -0.3469
    5CHTO   C95 1789   6.242   3.170   1.906 -0.4118 -0.2460 -0.4247
    5CHTO  H182 1790   6.242   3.186   1.798  1.1267 -1.0904 -0.5580
    5CHTO  C106 1791   6.242   3.316   1.974 -0.8481 -0.6189  0.7548
    5CHTO   O69 1792   6.353   3.400   1.940  0.4021 -0.0753  0.7261
    5CHTO  H169 1793   6.336   3.490   1.959  0.7078  0.2488 -0.4659
    5CHTO   O63 1794   5.943   2.939   1.896 -0.2442  0.1155  0.3816
    5CHTO   C96 1795   5.846   2.913   1.749 -0.1651  0.0362  0.3587
    5CHTO  H183 1796   5.912   2.890   1.665 -1.7114 -1.6647 -0.4182
    5CHTO   C98 1797   5.764   3.038   1.717  0.5421 -0.2808 -0.1853
    5CHTO  H185 1798   5.710   3.066   1.809 -2.1351 -1.4876 -1.3270
    5CHTO   O67 1799   5.858   3.142   1.693 -0.1213  0.3823 -0.2491
    5CHTO  H167 1800   5.818   3.226   1.678 -2.3145 -0.7170 -0.6994
    5CHTO  C102 1801   5.662   3.024   1.594 -0.1698 -0.0662  0.0546
    5CHTO  H189 1802   5.730   3.002   1.510  0.2782 -0.4775  0.5242
    5CHTO   N18 1803   5.584   3.146   1.557  0.1632 -0.3174 -0.6076
    5CHTO  H176 1804   5.521   3.135   1.470 -0.6628 -2.5049  0.2220
    5CHTO  H177 1805   5.520   3.159   1.643  0.4049 -0.5386 -0.3943
    5CHTO  C105 1806   5.572   2.900   1.618  0.0565  0.5475 -0.0291
    5CHTO  H192 1807   5.498   2.929   1.692 -0.6143  2.2584 -1.3304
    5CHTO   O65 1808   5.653   2.791   1.666 -0.1961  0.1675  0.2542
    5CHTO  C100 1809   5.744   2.805   1.773  0.3722  0.4101  0.1497
    5CHTO  H187 1810   5.690   2.837   1.863 -0.0619 -0.1699  0.0977
    5CHTO  C107 1811   5.816   2.671   1.797  0.6439  0.5110 -0.2126
    5CHTO   O70 1812   5.736   2.568   1.838 -0.1867  0.4206  0.2924
    5CHTO  H170 1813   5.688   2.604   1.910  0.0865 -0.9632  1.1841
    5CHTO   O57 1814   5.508   2.864   1.482 -0.4051  0.3666  0.0823
    5CHTO   C85 1815   5.396   2.772   1.474  0.5650  0.3649 -0.6971
    5CHTO  H157 1816   5.308   2.822   1.520  0.7437  0.3363 -0.3252
    5CHTO   C83 1817   5.421   2.644   1.559  0.1692 -0.4807  0.5912
    5CHTO  H155 1818   5.433   2.668   1.664  1.2043 -0.3420  0.4538
    5CHTO   O56 1819   5.540   2.580   1.509  0.5018  0.3003 -0.4746
    5CHTO  H135 1820   5.549   2.487   1.511  2.4558  0.4534 -0.1894
    5CHTO   C81 1821   5.293   2.550   1.540 -0.0249  0.2262 -0.1295
    5CHTO  H153 1822   5.208   2.613   1.566  1.2084  1.6572  0.5303
    5CHTO   N14 1823   5.286   2.437   1.629  0.1775 -0.1408 -0.5867
    5CHTO  H141 1824   5.358   2.360   1.615 -0.5495 -0.8209 -0.6082
    5CHTO  H142 1825   5.189   2.397   1.650  0.1236 -0.3156 -1.1448
    5CHTO   C79 1826   5.281   2.512   1.392 -0.4401  0.0875 -0.6965
    5CHTO  H151 1827   5.194   2.446   1.382 -1.0857  0.0223  4.2320
    5CHTO   O52 1828   5.267   2.634   1.301 -0.6209 -0.8530  0.1745
    5CHTO   C86 1829   5.369   2.735   1.322  0.4036 -0.2773 -0.8085
    5CHTO  H158 1830   5.457   2.692   1.272  1.4242 -0.3329  1.0077
    5CHTO   C90 1831   5.332   2.856   1.235 -0.7542  0.3055  0.1012
    5CHTO   O60 1832   5.420   2.967   1.253  0.9622 -0.1891 -0.4921
    5CHTO  H138 1833   5.487   2.948   1.316  1.3612 -1.2183 -1.2113
    5CHTO   O50 1834   5.393   2.442   1.335  0.1412 -0.7062 -0.1364
    5CHTO   C73 1835   5.380   2.354   1.226 -0.2468 -0.1638 -0.1448
    5CHTO  H145 1836   5.304   2.401   1.161  0.0756  2.1596  1.1039
    5CHTO   C74 1837   5.331   2.225   1.279  0.0082 -0.6811  0.3018
    5CHTO  H146 1838   5.235   2.246   1.330  0.0416  1.6579 -0.5073
    5CHTO   O54 1839   5.290   2.154   1.161  0.2063 -0.0942  0.2603
    5CHTO  H133 1840   5.224   2.093   1.187  0.2628 -0.8458 -1.3066
    5CHTO   C75 1841   5.436   2.166   1.369  0.1004 -0.1978 -0.1823
    5CHTO  H147 1842   5.450   2.239   1.450 -0.3067  0.7356 -0.9478
    5CHTO   N13 1843   5.400   2.047   1.450  0.1024  0.3572  0.2974
    5CHTO  H139 1844   5.417   1.962   1.387 -1.4255  1.5090 -1.7142
    5CHTO  H140 1845   5.298   2.044   1.485  0.0298 -1.0038 -0.0244
    5CHTO   C76 1846   5.578   2.142   1.291 -0.1678  0.3458  0.6556
    5CHTO  H148 1847   5.564   2.056   1.225  2.3257  0.6979 -0.3589
    5CHTO   O49 1848   5.621   2.263   1.221  0.3215  0.6582 -0.1766
    5CHTO   C77 1849   5.518   2.335   1.147  0.4069 -0.3859 -0.9411
    5CHTO  H149 1850   5.499   2.286   1.052 -2.1267 -3.1119  0.8696
    5CHTO   C88 1851   5.576   2.464   1.106  0.5014  0.6204  0.0716
    5CHTO   O58 1852   5.478   2.562   1.036 -0.1020  0.3978 -0.3096
    5CHTO  H136 1853   5.527   2.619   0.980 -0.5265 -0.5745 -1.6918
    5CHTO   O51 1854   5.693   2.110   1.409  0.1061  0.2400 -0.2329
    5CHTO   C78 1855   5.829   2.146   1.371 -0.0380  0.0264 -0.0169
    5CHTO  H150 1856   5.828   2.199   1.273 -0.2868 -1.2453 -0.7147
    5CHTO   C80 1857   5.911   2.018   1.351 -0.1741  0.3289 -0.2722
    5CHTO  H152 1858   5.908   1.958   1.444  0.8944 -0.0132 -0.4470
    5CHTO   O55 1859   5.847   1.939   1.247  0.3118 -0.1429 -0.5425
    5CHTO  H134 1860   5.871   1.850   1.264 -0.7850 -0.3041  0.2202
    5CHTO   C84 1861   6.061   2.051   1.318  0.2138  0.6524  0.2591
    5CHTO  H156 1862   6.068   2.083   1.214  1.6991  1.1016  0.4878
    5CHTO   N15 1863   6.146   1.932   1.313 -0.1667  0.0759 -0.0122
    5CHTO  H143 1864   6.238   1.964   1.268 -1.4767  2.2355 -1.2619
    5CHTO  H144 1865   6.166   1.886   1.407  0.4715  1.8129  0.7180
    5CHTO   C87 1866   6.119   2.157   1.418 -0.5740  0.3948  0.4314
    5CHTO  H159 1867   6.153   2.104   1.507 -3.6126 -2.5733 -0.0638
    5CHTO   O53 1868   6.022   2.281   1.440  0.3977 -0.3592 -0.5379
    5CHTO   C82 1869   5.895   2.235   1.482  0.1694  0.4262 -0.1342
    5CHTO  H154 1870   5.912   2.178   1.573  0.6079  1.5038  0.4627
    5CHTO   C89 1871   5.806   2.353   1.523  0.4097 -0.6981  0.3190
    5CHTO   O59 1872   5.801   2.439   1.402  0.2111 -0.3457  0.9840
    5CHTO  H137 1873   5.870   2.503   1.413  0.2283  0.0339 -1.1964
    5CHTO   O45 1874   6.264   2.226   1.365 -0.4112 -0.2339 -0.1183
    5CHTO   C67 1875   6.348   2.264   1.481 -0.6120  0.2019  0.5099
    5CHTO  H124 1876   6.277   2.274   1.563 -1.2640  0.1605 -0.0452
    5CHTO   C65 1877   6.461   2.163   1.521  0.7953 -0.7448 -0.2617
    5CHTO  H122 1878   6.464   2.086   1.445  0.2064 -0.4587 -0.5756
    5CHTO   O44 1879   6.411   2.099   1.638 -0.2775  0.0942 -0.1037
    5CHTO  H102 1880   6.425   2.161   1.708  0.9922 -0.0943 -0.1794
    5CHTO   C63 1881   6.610   2.229   1.523 -0.6577 -0.8369  0.7281
    5CHTO  H120 1882   6.632   2.265   1.422 -0.4988  0.1559  1.1061
    5CHTO   N11 1883   6.725   2.139   1.558  0.1096 -0.1626  0.1068
    5CHTO  H108 1884   6.814   2.198   1.549 -0.8062  0.8986 -2.5337
    5CHTO  H109 1885   6.708   2.109   1.659  0.2343  1.1409  0.5316
    5CHTO   C61 1886   6.597   2.355   1.612  0.4399 -0.2018 -0.0673
    5CHTO  H118 1887   6.690   2.409   1.590 -0.0742  0.4745 -0.6131
    5CHTO   O40 1888   6.486   2.447   1.577  1.3212  0.6450 -0.4303
    5CHTO   C68 1889   6.404   2.410   1.462  0.2202  0.1746 -0.3009
    5CHTO  H125 1890   6.464   2.416   1.369 -0.7023  0.8420 -0.8510
    5CHTO   C72 1891   6.286   2.508   1.449 -0.4197  0.3277 -0.3894
    5CHTO   O48 1892   6.207   2.508   1.568  0.1915  0.3418  0.2591
    5CHTO  H105 1893   6.245   2.564   1.632  2.8388 -1.6047  0.4669
    5CHTO   O38 1894   6.587   2.316   1.750  0.3681 -0.0727 -0.2585
    5CHTO   C55 1895   6.571   2.418   1.861  0.2237 -0.2956  0.1085
    5CHTO  H112 1896   6.500   2.493   1.823  2.4275  1.4171 -0.6642
    5CHTO   C56 1897   6.707   2.488   1.920 -0.0908 -0.7662 -0.0705
    5CHTO  H113 1898   6.780   2.409   1.945  2.5920  0.3655 -3.8235
    5CHTO   O42 1899   6.782   2.550   1.817  0.0386 -0.1067  0.2122
    5CHTO  H100 1900   6.742   2.554   1.732 -0.2800 -1.4450  0.2796
    5CHTO   C57 1901   6.683   2.582   2.046  0.1129 -0.1867  0.7501
    5CHTO  H114 1902   6.625   2.661   1.999  0.9123 -1.2234 -2.0684
    5CHTO   N10 1903   6.816   2.630   2.102 -0.0174 -0.4827 -0.4234
    5CHTO  H106 1904   6.858   2.554   2.167 -1.5082  0.4824  1.7534
    5CHTO  H107 1905   6.793   2.715   2.165  0.4166 -0.2263 -0.6148
    5CHTO   C58 1906   6.602   2.511   2.152 -0.3230  0.3409  0.3697
    5CHTO  H115 1907   6.664   2.428   2.192  0.6643  1.3140  0.8820
    5CHTO   O37 1908   6.487   2.453   2.093  0.2721 -0.0477  0.1710
    5CHTO   C59 1909   6.510   2.350   2.000  0.1662 -0.3803 -0.3566
    5CHTO  H116 1910   6.585   2.280   2.035  1.1900  0.1322 -1.4954
    5CHTO   C70 1911   6.377   2.277   1.974  0.0081 -0.3417 -0.1608
    5CHTO   O46 1912   6.280   2.378   1.937  0.4892 -0.1320 -0.2618
    5CHTO  H103 1913   6.192   2.344   1.939  1.0794 -1.6316  1.5681
    5CHTO   O39 1914   6.545   2.597   2.272  0.3684  0.5460  0.1107
    5CHTO   C60 1915   6.437   2.693   2.254  0.3834  0.1899 -0.8154
    5CHTO  H117 1916   6.432   2.720   2.149  1.3123  1.1659 -0.6205
    5CHTO   C62 1917   6.302   2.629   2.309  0.1778 -0.3641  0.6597
    5CHTO  H119 1918   6.274   2.546   2.241 -1.1984 -0.1492  0.9340
    5CHTO   O43 1919   6.326   2.576   2.434 -0.2752  0.0696 -0.1713
    5CHTO  H101 1920   6.338   2.483   2.431  0.1096  0.0280  1.8950
    5CHTO   C66 1921   6.187   2.738   2.303  0.5897  0.0055  0.0243
    5CHTO  H123 1922   6.178   2.776   2.202 -1.7920 -1.4075 -0.3515
    5CHTO   N12 1923   6.054   2.679   2.334 -0.7016  0.2158  0.1110
    5CHTO  H110 1924   6.044   2.627   2.428 -0.0424 -2.3936 -1.2226
    5CHTO  H111 1925   5.974   2.745   2.304 -0.7245  0.1833  0.1027
    5CHTO   C69 1926   6.223   2.867   2.386  0.9171  0.2831 -0.6364
    5CHTO  H126 1927   6.223   2.843   2.494  0.1934 -2.8830 -1.3011
    5CHTO   O41 1928   6.362   2.924   2.345  0.0207  0.3668 -0.1536
    5CHTO   C64 1929   6.473   2.824   2.332 -0.2122  0.0589  1.0713
    5CHTO  H121 1930   6.502   2.789   2.433 -1.4725 -3.2086  0.3631
    5CHTO   C71 1931   6.598   2.884   2.275  0.6317  0.5553  0.3030
    5CHTO   O47 1932   6.677   2.930   2.383 -0.0497 -0.2579  0.4793
    5CHTO  H104 1933   6.634   2.980   2.449 -1.2652 -0.2859 -0.2853
    5CHTO   O34 1934   6.102   2.974   2.367  0.5644 -0.4042  0.3343
    5CHTO   C49 1935   6.113   3.124   2.339  0.9309  0.5358 -0.4431
    5CHTO   H91 1936   6.181   3.120   2.254  0.9761 -1.4170 -0.3365
    5CHTO   C47 1937   6.167   3.210   2.456 -0.4641  0.3042  0.6234
    5CHTO   H89 1938   6.166   3.316   2.425 -3.9305  0.5005  1.1428
    5CHTO   O33 1939   6.302   3.169   2.492 -0.0588  0.2203 -0.1053
    5CHTO   H70 1940   6.342   3.247   2.527  0.5700 -0.9155  1.7858
    5CHTO   C45 1941   6.069   3.203   2.580  0.9743  0.0255 -0.3103
    5CHTO   H87 1942   6.048   3.098   2.604  0.4959  0.6457  2.1974
    5CHTO    N8 1943   6.117   3.270   2.701  0.4076  0.0238  0.5924
    5CHTO   H75 1944   6.207   3.329   2.685  0.8217 -0.5449  0.8018
    5CHTO   H76 1945   6.140   3.195   2.776  2.1901  1.1965  1.2621
    5CHTO   C43 1946   5.923   3.248   2.534 -0.3839  0.1307  0.3068
    5CHTO   H85 1947   5.858   3.220   2.617  0.9197  2.8431  2.3426
    5CHTO   O29 1948   5.886   3.181   2.417  0.5977 -0.0900  0.1009
    5CHTO   C50 1949   5.977   3.185   2.304 -0.8102 -0.2065 -0.4261
    5CHTO   H92 1950   5.933   3.108   2.238 -1.2142  0.1795 -0.6112
    5CHTO   C54 1951   5.979   3.320   2.229 -0.0797 -0.0912  0.1960
    5CHTO   O36 1952   5.859   3.395   2.251 -0.0099  0.3195  0.4700
    5CHTO   H72 1953   5.783   3.342   2.267  0.2139 -0.4219 -0.8787
    5CHTO   O27 1954   5.895   3.391   2.524 -0.3458 -0.0172 -0.7652
    5CHTO   C37 1955   5.772   3.466   2.553 -0.1400 -0.1929 -0.2498
    5CHTO   H79 1956   5.759   3.550   2.484  0.0953  0.1814  0.1625
    5CHTO   C38 1957   5.634   3.388   2.546 -0.0407 -0.0664  0.2834
    5CHTO   H80 1958   5.641   3.288   2.591  0.2657 -1.6257 -3.0920
    5CHTO   O31 1959   5.620   3.366   2.409  0.2813 -0.2079  0.0101
    5CHTO   H68 1960   5.555   3.299   2.394 -1.1278  1.0936  0.0923
    5CHTO   C39 1961   5.510   3.463   2.612  0.5540  0.3855  0.2900
    5CHTO   H81 1962   5.493   3.552   2.552 -0.0136  1.7766  2.4566
    5CHTO    N7 1963   5.379   3.384   2.610  0.0728 -0.3948 -0.0303
    5CHTO   H73 1964   5.294   3.450   2.599  0.1826 -0.2238  0.1284
    5CHTO   H74 1965   5.373   3.311   2.689 -0.3469  0.0804  0.3839
    5CHTO   C40 1966   5.544   3.521   2.748 -0.7087  0.4307  0.3514
    5CHTO   H82 1967   5.547   3.438   2.818  2.5921  0.4106  0.2318
    5CHTO   O26 1968   5.672   3.590   2.745  0.3057 -0.0857 -0.0399
    5CHTO   C41 1969   5.791   3.524   2.697 -0.6783  0.4548 -0.0667
    5CHTO   H83 1970   5.808   3.440   2.766 -0.6343  0.8661  0.4250
    5CHTO   C52 1971   5.919   3.617   2.696  0.4184  0.2539 -0.4529
    5CHTO   O35 1972   5.937   3.677   2.825  0.0994 -0.0006 -0.2065
    5CHTO   H71 1973   5.899   3.762   2.836  1.4578  0.6051 -0.1705
    5CHTO   O28 1974   5.446   3.617   2.785 -0.6636  0.0480 -0.0734
    5CHTO   C42 1975   5.409   3.664   2.916  0.0946  0.1761  0.2769
    5CHTO   H84 1976   5.340   3.742   2.886 -0.8372  0.2944  2.6012
    5CHTO   C44 1977   5.524   3.739   2.995 -0.0715  0.0246  0.2422
    5CHTO   H86 1978   5.612   3.731   2.932 -0.0546 -1.7091  0.4694
    5CHTO   O32 1979   5.479   3.878   3.006 -0.1360  0.4839 -0.3292
    5CHTO   H69 1980   5.539   3.932   3.054 -0.1678 -0.4034  0.7300
    5CHTO   C48 1981   5.550   3.672   3.131 -0.4110 -0.0883  0.4117
    5CHTO   H90 1982   5.477   3.701   3.207  0.2584  1.4738  0.4704
    5CHTO    N9 1983   5.681   3.724   3.186  0.0458  0.0725 -0.0363
    5CHTO   H77 1984   5.677   3.788   3.272  0.1183 -2.0950  1.6352
    5CHTO   H78 1985   5.737   3.779   3.112  3.7460  0.1659  2.6971
    5CHTO   C51 1986   5.548   3.510   3.118 -0.2283  0.2429  0.2523
    5CHTO   H93 1987   5.611   3.490   3.032 -0.3355  1.4702 -0.1305
    5CHTO   O30 1988   5.412   3.471   3.090 -0.0862 -0.6858  0.3287
    5CHTO   C46 1989   5.323   3.563   2.999 -0.5006  0.3807  0.0862
    5CHTO   H88 1990   5.265   3.507   2.925 -2.2271 -0.5032  2.0175
    5CHTO   C53 1991   5.218   3.632   3.092 -0.1297  0.6578  1.0484
    5CHTO   O72 1992   5.122   3.710   3.021 -0.5847  0.4158 -0.1831
    5CHTO  H199 1993   5.155   3.798   3.023 -0.7263  0.5098 -1.4520
    5CHTO   O22 1994   5.579   3.423   3.229 -0.0488 -0.1541 -0.3668
    5CHTO   C31 1995   5.635   3.283   3.205 -0.5358  0.1099 -0.1042
    5CHTO   H59 1996   5.673   3.246   3.303  0.0871  0.6627 -0.1307
    5CHTO   C29 1997   5.528   3.181   3.163 -0.2136 -0.0930 -0.1902
    5CHTO   H57 1998   5.479   3.219   3.072 -1.0793 -1.0968 -0.1609
    5CHTO   O21 1999   5.433   3.165   3.266  0.0198  0.2002 -0.0223
    5CHTO   H37 2000   5.356   3.118   3.243  0.4968 -0.8766  0.5745
    5CHTO   C27 2001   5.590   3.039   3.125  0.6313 -0.1589 -0.3557
    5CHTO   H55 2002   5.617   2.986   3.217 -1.2753 -1.2449 -0.4007
    5CHTO    N5 2003   5.497   2.957   3.051 -0.4308 -0.5599  0.6521
    5CHTO   H43 2004   5.537   2.860   3.026  1.6032  0.3142  0.4393
    5CHTO   H44 2005   5.394   2.950   3.084 -1.0562 -0.4505 -1.1785
    5CHTO   C25 2006   5.721   3.055   3.044 -0.2523 -0.3005  0.0736
    5CHTO   H53 2007   5.700   3.097   2.944  2.6128 -1.8653 -1.2533
    5CHTO   O17 2008   5.812   3.142   3.106  0.2188  0.2713 -0.1545
    5CHTO   C32 2009   5.756   3.274   3.108  0.1343  0.3451 -0.3077
    5CHTO   H60 2010   5.727   3.298   3.005  0.2404  0.7540 -0.2455
    5CHTO   C36 2011   5.863   3.388   3.141  0.1413  0.0327 -0.6287
    5CHTO   O25 2012   5.955   3.416   3.032  0.1546 -0.6298 -0.4210
    5CHTO   H40 2013   6.040   3.446   3.056  1.1098  0.7280 -4.8950
    5CHTO   O15 2014   5.785   2.930   3.006 -0.1499  0.4167 -0.3223
    5CHTO   C19 2015   5.880   2.831   3.054  0.7523  0.3842 -0.1172
    5CHTO   H47 2016   5.915   2.879   3.147  1.9709 -0.6393 -0.0371
    5CHTO   C20 2017   5.815   2.693   3.099  0.2739 -0.0930  0.5693
    5CHTO   H48 2018   5.759   2.649   3.015  1.6342  0.3760 -0.6187
    5CHTO   O19 2019   5.729   2.719   3.216 -0.2498  0.3294  0.3769
    5CHTO   H35 2020   5.663   2.653   3.226 -0.3745 -0.0261 -2.4004
    5CHTO   C21 2021   5.921   2.579   3.132  0.1435 -0.5955 -0.7375
    5CHTO   H49 2022   5.962   2.594   3.232 -0.0484 -1.7508 -0.4753
    5CHTO    N4 2023   5.859   2.443   3.140 -0.4089 -0.7136 -0.4063
    5CHTO   H41 2024   5.772   2.445   3.205 -0.7504  0.3554 -0.9024
    5CHTO   H42 2025   5.821   2.412   3.044  1.5947 -1.3212 -1.0246
    5CHTO   C22 2026   6.047   2.587   3.047 -0.6642  0.1044  0.1164
    5CHTO   H50 2027   6.011   2.554   2.950  2.0344  0.4916 -1.0503
    5CHTO   O14 2028   6.096   2.713   3.027  0.3107 -0.2488  0.7527
    5CHTO   C23 2029   6.003   2.806   2.965  0.3236 -0.0221  0.2713
    5CHTO   H51 2030   5.974   2.760   2.870 -0.8062  0.4897  0.3609
    5CHTO   C34 2031   6.076   2.942   2.927  0.1941 -0.3482 -0.4554
    5CHTO   O23 2032   6.114   2.938   2.790 -0.5011  0.3243 -0.1462
    5CHTO   H38 2033   6.129   3.025   2.757 -1.5403  0.5169 -0.1257
    5CHTO   O16 2034   6.156   2.508   3.092 -0.3034 -0.1297  0.1196
    5CHTO   C24 2035   6.210   2.407   2.980 -0.3030  0.2014  0.3012
    5CHTO   H52 2036   6.132   2.369   2.914  0.1049 -1.2076  0.6049
    5CHTO   C26 2037   6.254   2.271   3.053  0.3101  0.0487  0.8341
    5CHTO   H54 2038   6.317   2.292   3.142  1.4052  2.5632 -0.4860
    5CHTO   O20 2039   6.133   2.213   3.104 -0.3712 -0.5764 -0.3268
    5CHTO   H36 2040   6.149   2.133   3.151 -0.6636 -0.2611  0.3229
    5CHTO   C30 2041   6.334   2.183   2.955 -0.4865 -0.1061  0.1156
    5CHTO   H58 2042   6.269   2.158   2.870  1.1905 -1.9675 -0.6357
    5CHTO    N6 2043   6.390   2.059   3.026 -0.3235 -0.4609  0.0800
    5CHTO   H45 2044   6.323   2.007   3.092 -1.5304  0.5238 -0.3550
    5CHTO   H46 2045   6.423   1.993   2.947  2.4483  0.3245  0.5220
    5CHTO   C33 2046   6.445   2.261   2.881 -0.4307 -0.7142  0.4755
    5CHTO   H61 2047   6.520   2.303   2.950  0.0961 -0.3148 -0.3365
    5CHTO   O18 2048   6.384   2.374   2.816  0.7307  0.0522  0.2322
    5CHTO   C28 2049   6.322   2.475   2.893 -0.5299  0.2287  0.2932
    5CHTO   H56 2050   6.401   2.514   2.957  0.1200 -1.5150  0.5899
    5CHTO   C35 2051   6.289   2.592   2.795  0.4467  0.2140  0.3324
    5CHTO   O24 2052   6.175   2.556   2.716  0.8146  0.4306  0.2734
    5CHTO   H39 2053   6.103   2.586   2.768 -0.7117 -0.7107 -1.1123
    5CHTO    O9 2054   6.527   2.183   2.791  0.0007  0.0275  0.9990
    5CHTO   C13 2055   6.492   2.184   2.634  0.4271 -0.0688 -0.6119
    5CHTO   H26 2056   6.383   2.202   2.623  0.4778 -0.7977 -2.5022
    5CHTO   C11 2057   6.527   2.040   2.577 -0.4124  0.4393 -0.2716
    5CHTO   H24 2058   6.453   1.972   2.620  0.4246  0.0252  0.5376
    5CHTO    O8 2059   6.661   1.999   2.623  0.2505  0.2685  0.0077
    5CHTO    H3 2060   6.719   2.013   2.551 -0.9013  0.7707 -0.8333
    5CHTO    C9 2061   6.509   2.037   2.428 -0.2479  0.3246  0.2462
    5CHTO   H22 2062   6.405   2.068   2.407 -0.6238 -1.2510 -0.3162
    5CHTO    N2 2063   6.521   1.903   2.371 -0.1156  0.0241  0.3541
    5CHTO   H10 2064   6.605   1.848   2.411  1.3853  2.2984  0.4538
    5CHTO   H11 2065   6.508   1.907   2.264  3.8203 -0.2545 -0.2085
    5CHTO    C7 2066   6.605   2.142   2.357  0.3728 -0.4172  0.3540
    5CHTO   H20 2067   6.580   2.156   2.250  1.5594 -1.2298 -0.0510
    5CHTO    O4 2068   6.590   2.270   2.419  0.1887 -0.4220  0.1440
    5CHTO   C14 2069   6.570   2.302   2.557 -0.0080 -0.6587  0.0577
    5CHTO   H27 2070   6.504   2.391   2.567  0.8266 -0.0947  0.5091
    5CHTO   C18 2071   6.703   2.336   2.630 -0.2898 -0.3277 -0.0536
    5CHTO   O13 2072   6.758   2.456   2.572  0.0602  0.0977 -0.0569
    5CHTO    H7 2073   6.748   2.529   2.630 -0.5277  0.6066 -0.8023
    5CHTO    O2 2074   6.764   2.109   2.360 -0.4623  0.0843  0.2839
    5CHTO    C1 2075   6.833   2.143   2.236  1.2708  0.4711 -0.0864
    5CHTO   H14 2076   6.786   2.235   2.195 -0.1164 -0.1868 -0.0225
    5CHTO    C2 2077   6.832   2.036   2.127 -0.1800 -0.5319 -0.0638
    5CHTO   H15 2078   6.874   1.941   2.164  0.0485 -0.1735  0.5876
    5CHTO    O6 2079   6.691   2.019   2.098  0.2294  0.0727 -0.2844
    5CHTO    H1 2080   6.683   1.948   2.037 -1.6016  0.6646 -0.7623
    5CHTO    C3 2081   6.925   2.088   2.014 -0.0873 -0.3855 -0.1948
    5CHTO   H16 2082   6.892   2.183   1.971  0.6025  0.4586  1.1203
    5CHTO    N1 2083   6.923   1.987   1.901 -0.1226  0.3427 -0.0456
    5CHTO    H8 2084   6.991   2.024   1.826  1.0312 -0.7986  0.4018
    5CHTO    H9 2085   6.826   1.975   1.856 -0.5524 -1.3959  1.2736
    5CHTO    C4 2086   7.069   2.115   2.062  0.1870 -0.1167  0.3853
    5CHTO   H17 2087   7.119   2.023   2.094  1.1695  0.4715  0.5609
    5CHTO    O1 2088   7.070   2.215   2.168 -0.1528  0.0535  0.2578
    5CHTO    C5 2089   6.982   2.172   2.279 -0.7016 -0.7367 -0.6513
    5CHTO   H18 2090   7.021   2.086   2.332  2.1179  0.5628 -0.5503
    5CHTO   C16 2091   6.974   2.292   2.371  0.2539  0.1562 -0.1259
    5CHTO   O11 2092   7.083   2.312   2.461 -0.1817 -0.2322 -0.3672
    5CHTO    H5 2093   7.078   2.249   2.531  1.2904  2.3906  2.2239
    5CHTO    O3 2094   7.148   2.173   1.958 -0.1562 -0.1596 -0.1202
    5CHTO    C6 2095   7.289   2.155   1.960 -0.1357  0.6067  0.0494
    5CHTO   H19 2096   7.314   2.101   2.052  1.6549 -1.2044 -1.4669
    5CHTO    C8 2097   7.342   2.067   1.843  0.1185  0.2443  0.1088
    5CHTO   H21 2098   7.297   2.104   1.751  0.6068 -0.7201 -0.5205
    5CHTO    O7 2099   7.293   1.937   1.861  0.8921  0.2030 -0.2329
    5CHTO    H2 2100   7.355   1.890   1.913  1.6710  1.3957 -0.0781
    5CHTO   C12 2101   7.498   2.070   1.832 -0.6934  0.0622 -0.2066
    5CHTO   H25 2102   7.542   2.020   1.921 -1.5495  3.0081  1.9590
    5CHTO    N3 2103   7.550   1.995   1.716 -0.2110 -0.3971 -0.3148
    5CHTO   H12 2104   7.633   1.938   1.757 -0.9519 -0.0654  1.7345
    5CHTO   H13 2105   7.577   2.057   1.632 -0.3447 -0.6856 -0.5698
    5CHTO   C15 2106   7.552   2.219   1.833 -0.2192 -0.2594 -0.3091
    5CHTO   H28 2107   7.514   2.288   1.758 -0.4683  2.3329  2.1098
    5CHTO   O10 2108   7.708   2.230   1.832 -0.0554  0.2239  0.2809
    5CHTO    H4 2109   7.737   2.162   1.775  1.4432 -0.8632  2.2774
    5CHTO    O5 2110   7.510   2.278   1.956  0.1119  0.5816 -0.5868
    5CHTO   C10 2111   7.371   2.291   1.962  0.6089  0.0922  0.3624
    5CHTO   H23 2112   7.342   2.358   1.880 -0.9014  0.4531  1.1732
    5CHTO   C17 2113   7.328   2.385   2.082  0.2431  0.0770 -0.4193
    5CHTO   O12 2114   7.371   2.339   2.214 -0.3687 -0.3470 -0.3278
    5CHTO    H6 2115   7.335   2.395   2.280  1.6849 -0.7368  1.1586
    6CHTO  H203 2116   6.848   4.451   0.262  0.4025 -1.0727 -0.8307
    6CHTO   O82 2117   6.784   4.458   0.194 -0.5810  0.0396  0.1725
    6CHTO  C123 2118   6.748   4.595   0.189  0.3641 -0.2575 -0.5312
    6CHTO  H227 2119   6.831   4.645   0.137 -1.1177  1.2350 -1.5328
    6CHTO   O77 2120   6.624   4.591   0.107  0.5967 -0.4144  0.1374
    6CHTO  C118 2121   6.576   4.728   0.079  1.5706 -0.1338  0.2420
    6CHTO  H222 2122   6.637   4.810   0.040  2.0929  0.3573  2.0331
    6CHTO  C125 2123   6.455   4.704  -0.010  0.1280  0.9575  0.2924
    6CHTO   O84 2124   6.493   4.678  -0.145  0.3362  0.0558  0.3156
    6CHTO  H205 2125   6.435   4.721  -0.205  0.8584 -0.6688 -0.7255
    6CHTO  C114 2126   6.518   4.768   0.217 -0.6613  0.0623  0.4376
    6CHTO  H218 2127   6.445   4.693   0.245 -0.7139 -1.0701 -2.5281
    6CHTO  C116 2128   6.634   4.778   0.324  0.4633 -0.7719  0.9169
    6CHTO  H220 2129   6.696   4.867   0.300 -0.4796 -0.7209 -1.5040
    6CHTO   O79 2130   6.573   4.807   0.452 -0.5381  0.3988 -0.2985
    6CHTO  H201 2131   6.540   4.895   0.450  1.3141  1.1082 -0.7344
    6CHTO  C120 2132   6.723   4.649   0.330  0.1559 -0.2151  0.3966
    6CHTO  H224 2133   6.660   4.578   0.388  0.6048  1.0772  2.4907
    6CHTO   N21 2134   6.840   4.673   0.407 -0.0513  0.2957  0.3620
    6CHTO  H211 2135   6.854   4.582   0.464 -0.6998  0.2301  0.4230
    6CHTO  H212 2136   6.926   4.683   0.341 -0.6137 -1.5597 -0.6984
    6CHTO   O75 2137   6.462   4.899   0.192  0.1634 -0.2416  0.1290
    6CHTO  C112 2138   6.326   4.913   0.273 -0.2930  0.0926 -0.3467
    6CHTO  H216 2139   6.347   4.868   0.371 -1.0156 -2.6226 -1.3930
    6CHTO   O73 2140   6.211   4.852   0.204 -0.1525 -0.1307 -0.0653
    6CHTO  C113 2141   6.090   4.847   0.280 -0.7406  0.2422  0.0170
    6CHTO  H217 2142   6.104   4.803   0.381 -0.2841  1.3202  0.4228
    6CHTO  C124 2143   5.991   4.762   0.201  0.1200 -0.2256 -0.5013
    6CHTO   O83 2144   5.864   4.743   0.272 -0.1784  0.2135 -0.3441
    6CHTO  H204 2145   5.879   4.706   0.357  3.5001  1.5018 -0.3321
    6CHTO  C109 2146   6.043   4.990   0.295  0.3442 -0.2338 -0.2775
    6CHTO  H213 2147   6.023   5.026   0.193  2.2196 -1.4316 -1.0798
    6CHTO  C110 2148   6.163   5.079   0.354 -0.1760 -0.3568 -0.4550
    6CHTO  H214 2149   6.181   5.057   0.459  1.8736 -0.8597 -0.8863
    6CHTO   O78 2150   6.111   5.213   0.346  0.4686  0.1859 -0.0151
    6CHTO  H200 2151   6.150   5.261   0.417  1.3645 -1.3354  0.5355
    6CHTO  C111 2152   6.301   5.069   0.292  0.2992  0.6419  0.3782
    6CHTO  H215 2153   6.293   5.109   0.189 -2.5094 -2.7940 -0.8184
    6CHTO   N19 2154   6.414   5.138   0.355 -0.0905  0.2332 -0.0193
    6CHTO  H207 2155   6.448   5.222   0.296 -1.2193  2.0540  1.8451
    6CHTO  H208 2156   6.494   5.087   0.406  0.7225  0.3370 -1.1795
    6CHTO   O74 2157   5.922   5.003   0.374 -0.0143  0.8505 -0.1604
    6CHTO  C115 2158   5.916   4.995   0.522 -0.1968 -0.2537  0.4729
    6CHTO  H219 2159   6.014   4.974   0.565  0.5380  1.1815 -0.4653
    6CHTO   O76 2160   5.871   5.143   0.583  0.0869  0.3332 -0.4946
    6CHTO  C122 2161   5.738   5.178   0.540 -0.3618 -0.0958 -0.3010
    6CHTO  H226 2162   5.745   5.197   0.433 -0.1760 -0.3928 -0.3437
    6CHTO  C126 2163   5.697   5.318   0.603 -0.1735  0.0912  0.0680
    6CHTO   O85 2164   5.791   5.409   0.543 -0.0406  0.0003 -0.3477
    6CHTO  H206 2165   5.794   5.476   0.609 -1.0581 -0.6950  0.4173
    6CHTO  C121 2166   5.625   5.076   0.567 -0.0554  0.4906  0.6699
    6CHTO  H225 2167   5.542   5.118   0.628 -1.5448  0.0810 -1.0306
    6CHTO   O81 2168   5.566   5.021   0.445  0.1340  0.4252  0.0876
    6CHTO  H202 2169   5.556   5.086   0.378 -0.2621  0.4402  0.1586
    6CHTO  C119 2170   5.688   4.956   0.644  0.2169 -0.3139  0.4223
    6CHTO  H223 2171   5.733   5.000   0.733  0.9191  0.4643 -0.3138
    6CHTO  C117 2172   5.810   4.883   0.572 -0.4776  0.4761 -0.0226
    6CHTO  H221 2173   5.792   4.827   0.480 -0.3278  0.5168 -0.0757
    6CHTO   N20 2174   5.880   4.785   0.657  0.2417  0.4836  0.1877
    6CHTO  H209 2175   5.808   4.706   0.677  1.1888  0.0308  1.8719
    6CHTO  H210 2176   5.968   4.746   0.608 -0.8458 -1.0319 -0.6327
    6CHTO   O80 2177   5.575   4.853   0.695  0.0064 -0.6753  0.3219
    6CHTO  C103 2178   5.536   4.841   0.840 -0.4064  0.7582 -0.0422
    6CHTO  H190 2179   5.625   4.802   0.890  1.5771  0.3459 -3.7075
    6CHTO  C101 2180   5.498   4.970   0.916  0.2378  0.3166  0.5813
    6CHTO  H188 2181   5.451   5.049   0.858 -2.4403 -1.8126 -0.2866
    6CHTO   O68 2182   5.636   5.052   0.959 -0.0006  0.5405  0.0176
    6CHTO  H168 2183   5.655   5.024   1.046  0.7300  0.8503 -0.0439
    6CHTO   C99 2184   5.410   4.944   1.046 -0.5247 -0.1296 -0.3691
    6CHTO  H186 2185   5.480   4.909   1.124 -0.3572  0.5163 -0.2246
    6CHTO   N17 2186   5.357   5.070   1.108  0.3654 -0.1172  0.1113
    6CHTO  H174 2187   5.416   5.092   1.195  0.6094  1.2267 -0.3740
    6CHTO  H175 2188   5.264   5.040   1.153  0.7250 -2.4965 -0.7001
    6CHTO   C97 2189   5.302   4.835   1.026 -0.5963  0.7329  0.6367
    6CHTO  H184 2190   5.232   4.875   0.952  0.3476  1.1798 -0.0381
    6CHTO   O64 2191   5.375   4.720   0.975 -0.5672  0.2561 -0.0062
    6CHTO  C104 2192   5.428   4.735   0.844 -0.5366  0.2314 -0.2946
    6CHTO  H191 2193   5.350   4.762   0.772 -0.7048 -0.8966 -0.5448
    6CHTO  C108 2194   5.488   4.601   0.802  0.2344 -0.0928 -1.0123
    6CHTO   O71 2195   5.393   4.492   0.824  0.5490  0.3628 -0.1353
    6CHTO  H171 2196   5.308   4.510   0.787  0.2217  0.4475  0.6579
    6CHTO   O62 2197   5.235   4.795   1.153  0.0417 -0.1028  0.0445
    6CHTO   C91 2198   5.234   4.659   1.202 -0.2612 -0.0020 -0.4646
    6CHTO  H178 2199   5.169   4.660   1.289  0.5370 -1.2030  0.1624
    6CHTO   C92 2200   5.377   4.620   1.258 -0.4855  0.3594 -0.2100
    6CHTO  H179 2201   5.450   4.637   1.176 -0.8288  1.2585 -0.3422
    6CHTO   O66 2202   5.401   4.722   1.354 -0.0572 -0.4736  0.0281
    6CHTO  H166 2203   5.397   4.809   1.319  2.0513 -1.1338 -1.9289
    6CHTO   C93 2204   5.376   4.481   1.323  0.6432  0.7238  0.8767
    6CHTO  H180 2205   5.306   4.473   1.407 -0.2851  1.6858  0.2056
    6CHTO   N16 2206   5.510   4.450   1.379  0.0643 -0.4347  0.4785
    6CHTO  H172 2207   5.498   4.421   1.482 -1.0667  0.1512  0.5112
    6CHTO  H173 2208   5.575   4.382   1.326 -0.8025 -0.7220 -0.2173
    6CHTO   C94 2209   5.335   4.383   1.208  0.4199  0.7367 -0.0323
    6CHTO  H181 2210   5.397   4.391   1.119 -2.0489 -1.6761 -2.0554
    6CHTO   O61 2211   5.197   4.411   1.181  0.2553  0.1290 -0.0791
    6CHTO   C95 2212   5.183   4.538   1.110  0.2164  0.4832 -0.3240
    6CHTO  H182 2213   5.231   4.526   1.013 -0.0895 -3.6649 -0.0467
    6CHTO  C106 2214   5.031   4.561   1.076 -0.3506  0.1093  0.5131
    6CHTO   O69 2215   4.997   4.459   0.983 -0.0168  0.5767 -0.5341
    6CHTO  H169 2216   5.052   4.457   0.907 -0.1511  1.5296 -0.6717
    6CHTO   O63 2217   5.342   4.227   1.251 -0.1794 -0.1817  0.2804
    6CHTO   C96 2218   5.315   4.119   1.164  0.9042 -0.4275 -0.3538
    6CHTO  H183 2219   5.227   4.148   1.107  1.4742 -1.6812 -1.9279
    6CHTO   C98 2220   5.282   3.994   1.240  0.8259  0.3403  0.3576
    6CHTO  H185 2221   5.357   3.983   1.320  0.6965  0.7060  0.5314
    6CHTO   O67 2222   5.160   4.024   1.309  0.1382 -0.4898 -0.3546
    6CHTO  H167 2223   5.178   4.073   1.388  0.4913 -1.4922  0.1989
    6CHTO  C102 2224   5.272   3.855   1.158 -0.3953  0.1788 -1.2577
    6CHTO  H189 2225   5.190   3.870   1.086  0.9757  1.9615 -2.4971
    6CHTO   N18 2226   5.236   3.727   1.230  0.3795 -0.3796 -0.1421
    6CHTO  H176 2227   5.153   3.722   1.299  0.1188  0.7455 -0.3544
    6CHTO  H177 2228   5.215   3.649   1.159  1.9879 -1.8543  0.9668
    6CHTO  C105 2229   5.399   3.845   1.076 -0.1560  0.0306 -0.0265
    6CHTO  H192 2230   5.481   3.826   1.146  0.6559  3.2818 -0.0385
    6CHTO   O65 2231   5.427   3.964   1.002  0.3963 -0.4978 -0.4989
    6CHTO  C100 2232   5.438   4.099   1.060 -0.3700  0.1265 -0.0214
    6CHTO  H187 2233   5.528   4.107   1.122 -1.0120  2.2940  0.7187
    6CHTO  C107 2234   5.444   4.196   0.941 -0.0119  0.0988  0.2154
    6CHTO   O70 2235   5.327   4.210   0.860 -0.0786  0.4594  0.5245
    6CHTO  H170 2236   5.342   4.264   0.784 -0.5168 -1.4353 -0.9371
    6CHTO   O57 2237   5.369   3.717   0.960  0.1982 -0.2179 -0.7862
    6CHTO   C85 2238   5.464   3.684   0.860  0.3177 -0.3210  0.3710
    6CHTO  H157 2239   5.408   3.605   0.806  1.7202 -0.5881 -0.7159
    6CHTO   C83 2240   5.595   3.605   0.906  0.3441 -0.2053 -0.4583
    6CHTO  H155 2241   5.547   3.516   0.947 -2.0023  0.3738 -1.8565
    6CHTO   O56 2242   5.661   3.683   1.007  0.9289 -0.4450 -0.1341
    6CHTO  H135 2243   5.747   3.650   1.026 -0.2180 -2.5390  1.5357
    6CHTO   C81 2244   5.677   3.565   0.777  0.9602  0.1418  0.4232
    6CHTO  H153 2245   5.610   3.504   0.716 -0.5547  0.6427  1.5310
    6CHTO   N14 2246   5.789   3.478   0.822  0.1863  0.4736 -0.1955
    6CHTO  H141 2247   5.884   3.524   0.807  0.7677 -0.3626  0.8036
    6CHTO  H142 2248   5.796   3.381   0.777 -3.8844 -0.4633  0.9641
    6CHTO   C79 2249   5.710   3.699   0.703 -0.3303 -0.3429  0.4017
    6CHTO  H151 2250   5.778   3.669   0.623  0.4794 -0.8290  1.2535
    6CHTO   O52 2251   5.597   3.768   0.651 -0.6188 -0.1565  0.0249
    6CHTO   C86 2252   5.500   3.802   0.757 -0.5968 -0.7732 -0.8195
    6CHTO  H158 2253   5.552   3.886   0.809 -1.0954 -0.5778 -0.6350
    6CHTO   C90 2254   5.378   3.868   0.701 -0.3875  0.3293  0.3118
    6CHTO   O60 2255   5.281   3.772   0.658 -0.6865  0.2957  0.2777
    6CHTO  H138 2256   5.198   3.813   0.647 -0.8067 -0.2404 -0.8965
    6CHTO   O50 2257   5.788   3.798   0.776 -0.3088  0.0895 -0.1435
    6CHTO   C73 2258   5.911   3.874   0.764  0.6267 -0.2851  0.5075
    6CHTO  H145 2259   5.945   3.868   0.660 -0.9443 -1.8916  0.0655
    6CHTO   C74 2260   6.010   3.814   0.868  0.0899  0.2914 -0.6470
    6CHTO  H146 2261   6.000   3.706   0.850 -1.8852  0.3794 -0.1837
    6CHTO   O54 2262   6.143   3.858   0.835  0.2130 -0.9678  0.6076
    6CHTO  H133 2263   6.206   3.803   0.878  1.0704 -1.4421 -1.2147
    6CHTO   C75 2264   5.970   3.856   1.015 -0.2361 -0.8410  0.4320
    6CHTO  H147 2265   5.867   3.825   1.039 -0.5859  1.7144  2.4460
    6CHTO   N13 2266   6.061   3.814   1.125  0.8041  0.5184  0.5666
    6CHTO  H139 2267   6.006   3.764   1.203  0.2312 -0.2455 -0.3136
    6CHTO  H140 2268   6.132   3.745   1.083 -1.3889 -1.1374 -0.5198
    6CHTO   C76 2269   5.958   4.013   1.022  0.8348 -0.1911  0.0455
    6CHTO  H148 2270   6.051   4.052   0.981  0.3237  0.0875 -0.8551
    6CHTO   O49 2271   5.850   4.048   0.931 -0.2320  0.5148 -0.3056
    6CHTO   C77 2272   5.874   4.023   0.793 -0.6267  0.2935  0.0200
    6CHTO  H149 2273   5.960   4.082   0.765 -0.7968  0.1751 -0.7604
    6CHTO   C88 2274   5.750   4.065   0.709 -0.3102 -0.3786 -0.4177
    6CHTO   O58 2275   5.737   4.219   0.713  0.0816  0.0061 -0.2437
    6CHTO  H136 2276   5.729   4.259   0.797  0.8416 -0.8838  0.2571
    6CHTO   O51 2277   5.919   4.073   1.165  0.7399  0.5508  0.0084
    6CHTO   C78 2278   5.969   4.238   1.176  0.6933  0.9310  0.6034
    6CHTO  H150 2279   5.933   4.277   1.274  1.2981 -0.6565  1.4673
    6CHTO   C80 2280   5.905   4.322   1.064 -0.0894 -0.2835 -0.1698
    6CHTO  H152 2281   5.945   4.289   0.966 -1.5865 -0.2438 -0.8025
    6CHTO   O55 2282   5.762   4.314   1.075  0.6391 -0.1375  0.6895
    6CHTO  H134 2283   5.719   4.392   1.048 -0.1604 -1.1392 -1.0058
    6CHTO   C84 2284   5.967   4.476   1.059 -0.2097 -0.8282 -0.2137
    6CHTO  H156 2285   5.937   4.522   1.154  1.2187  0.5605 -0.4180
    6CHTO   N15 2286   5.909   4.562   0.955 -0.0596  0.2618 -0.1478
    6CHTO  H143 2287   5.803   4.564   0.968 -0.2161 -3.7775 -0.0137
    6CHTO  H144 2288   5.950   4.660   0.947 -1.3444  0.7403 -1.0027
    6CHTO   C87 2289   6.122   4.478   1.062  0.2910 -0.2336 -0.1153
    6CHTO  H159 2290   6.164   4.448   0.966 -1.6935  1.2910 -1.5067
    6CHTO   O53 2291   6.164   4.387   1.188 -0.5184 -0.0109 -0.0776
    6CHTO   C82 2292   6.122   4.250   1.175 -0.0851  0.1899 -0.4801
    6CHTO  H154 2293   6.164   4.208   1.084  0.9400  0.7867 -0.2895
    6CHTO   C89 2294   6.196   4.181   1.300 -0.5463  0.3734 -0.2125
    6CHTO   O59 2295   6.138   4.222   1.422 -0.3013  0.0666 -0.5011
    6CHTO  H137 2296   6.148   4.152   1.483 -0.7843  0.5068  0.0840
    6CHTO   O45 2297   6.170   4.627   1.100 -0.1284  0.0048  0.2899
    6CHTO   C67 2298   6.298   4.657   1.044  0.4258  0.2143 -0.0581
    6CHTO  H124 2299   6.364   4.571   1.057  1.3361  0.7504 -1.0695
    6CHTO   C65 2300   6.291   4.683   0.887  0.1367 -0.2422 -0.7536
    6CHTO  H122 2301   6.189   4.670   0.853 -0.0265 -4.2622  0.9977
    6CHTO   O44 2302   6.372   4.581   0.823 -0.4835 -0.3568  0.0018
    6CHTO  H102 2303   6.455   4.614   0.797  0.2008 -1.0552  1.2419
    6CHTO   C63 2304   6.332   4.829   0.845  0.4287 -0.0588  0.1692
    6CHTO  H120 2305   6.253   4.896   0.879 -0.2182 -1.7181  2.0333
    6CHTO   N11 2306   6.328   4.857   0.697  0.2652  0.3892  0.0891
    6CHTO  H108 2307   6.234   4.826   0.655  0.3434 -0.3273  0.4349
    6CHTO  H109 2308   6.370   4.952   0.672 -0.1960  0.2037 -1.4674
    6CHTO   C61 2309   6.472   4.866   0.909  0.1740 -0.2895 -0.5189
    6CHTO  H118 2310   6.480   4.975   0.907 -1.7823 -0.1387 -1.0086
    6CHTO   O40 2311   6.476   4.820   1.040 -0.2082  0.1700 -0.2961
    6CHTO   C68 2312   6.366   4.778   1.117 -0.5486 -0.1482  0.4814
    6CHTO  H125 2313   6.302   4.869   1.114  0.4367  0.5546  0.4632
    6CHTO   C72 2314   6.403   4.742   1.265 -0.2669 -0.2871  0.2889
    6CHTO   O48 2315   6.445   4.848   1.347 -0.5423  0.0355 -0.1047
    6CHTO  H105 2316   6.370   4.895   1.377 -0.2328  0.7987 -0.5146
    6CHTO   O38 2317   6.586   4.815   0.835  0.5788 -0.4686  0.1814
    6CHTO   C55 2318   6.721   4.855   0.869 -0.6310 -0.0972  0.4970
    6CHTO  H112 2319   6.729   4.917   0.960  0.9958 -0.6971  0.7727
    6CHTO   C56 2320   6.776   4.931   0.742  0.6937  0.2819  0.2341
    6CHTO  H113 2321   6.778   4.852   0.665 -0.5012 -0.6816  1.1761
    6CHTO   O42 2322   6.691   5.035   0.697  0.0816 -0.1043 -0.6918
    6CHTO  H100 2323   6.691   5.037   0.603  0.3016 -1.7146 -0.7382
    6CHTO   C57 2324   6.919   4.996   0.762 -0.0975  0.3100 -0.3556
    6CHTO  H114 2325   6.892   5.067   0.840  0.3126 -0.5823  0.6008
    6CHTO   N10 2326   6.979   5.060   0.639  0.0156  0.1259  0.0362
    6CHTO  H106 2327   6.904   5.084   0.564 -0.4979  1.4305  0.9433
    6CHTO  H107 2328   7.019   5.153   0.675 -0.8975  0.8882 -0.8777
    6CHTO   C58 2329   7.004   4.881   0.820 -0.5033 -0.6884  0.2495
    6CHTO  H115 2330   7.045   4.819   0.738 -0.8423  0.7291 -1.0041
    6CHTO   O37 2331   6.948   4.795   0.920 -0.2997  0.0841  0.0376
    6CHTO   C59 2332   6.819   4.736   0.900 -0.1478  0.1075 -0.1043
    6CHTO  H116 2333   6.829   4.668   0.816  1.3391 -1.4061  1.2783
    6CHTO   C70 2334   6.775   4.659   1.026 -0.1037  0.2719 -0.0428
    6CHTO   O46 2335   6.655   4.581   0.994 -0.2346 -0.4718  0.3256
    6CHTO  H103 2336   6.580   4.631   1.019 -1.4654 -1.2169 -1.7203
    6CHTO   O39 2337   7.129   4.944   0.899 -0.3706 -0.2025  0.0107
    6CHTO   C60 2338   7.244   4.871   0.868  0.3016 -0.4449 -0.4418
    6CHTO  H117 2339   7.221   4.764   0.874 -1.4077 -0.0010  1.6160
    6CHTO   C62 2340   7.304   4.903   0.724  0.0375 -0.0027  0.4995
    6CHTO  H119 2341   7.227   4.872   0.650  0.9764  1.3294 -1.0556
    6CHTO   O43 2342   7.320   5.048   0.711 -0.0760  0.1487  0.6386
    6CHTO  H101 2343   7.252   5.086   0.658 -0.3005 -0.0277  0.7968
    6CHTO   C66 2344   7.438   4.821   0.700 -0.1763 -0.1548 -0.0305
    6CHTO  H123 2345   7.414   4.716   0.718 -1.3334  0.3272  1.3612
    6CHTO   N12 2346   7.489   4.833   0.563  0.1935  0.1153 -0.8026
    6CHTO  H110 2347   7.511   4.936   0.539 -1.2160  1.1191  2.0598
    6CHTO  H111 2348   7.567   4.762   0.541  0.2471  0.3347 -1.3240
    6CHTO   C69 2349   7.544   4.854   0.813  0.1483 -0.0206  0.4426
    6CHTO  H126 2350   7.568   4.962   0.807  0.7209 -0.2017 -0.8534
    6CHTO   O41 2351   7.490   4.825   0.938  0.1637  0.2119 -0.2922
    6CHTO   C64 2352   7.344   4.897   0.982  0.6351  0.3946 -0.1255
    6CHTO  H121 2353   7.360   5.005   1.003 -1.2303  0.4900  0.9653
    6CHTO   C71 2354   7.298   4.825   1.121 -0.5996 -0.7784 -0.1098
    6CHTO   O47 2355   7.310   4.686   1.109 -0.3182  0.7363 -0.1495
    6CHTO  H104 2356   7.225   4.647   1.102  0.1818  0.1806 -4.1234
    6CHTO   O34 2357   7.686   4.764   0.800 -0.4746  0.0717 -0.2293
    6CHTO   C49 2358   7.812   4.813   0.701  0.3675 -0.3079  0.3480
    6CHTO   H91 2359   7.791   4.796   0.595  0.4848  0.2458  0.2326
    6CHTO   C47 2360   7.935   4.728   0.746  0.0706 -0.7679 -0.7331
    6CHTO   H89 2361   8.017   4.747   0.674 -1.0336 -0.0744 -1.8369
    6CHTO   O33 2362   7.893   4.590   0.739  0.0898 -0.0763 -0.4146
    6CHTO   H70 2363   7.906   4.557   0.652  2.9461 -3.5220  1.1697
    6CHTO   C45 2364   7.984   4.756   0.897 -0.5850 -0.6514  0.1229
    6CHTO   H87 2365   7.932   4.693   0.970 -0.1893  0.3286  1.2580
    6CHTO    N8 2366   8.124   4.704   0.905 -0.4929  0.7232  0.0504
    6CHTO   H75 2367   8.202   4.767   0.864  0.6689 -1.0452 -0.4787
    6CHTO   H76 2368   8.154   4.688   1.008 -2.3607 -4.7333 -0.1050
    6CHTO   C43 2369   7.949   4.911   0.937 -0.3059  0.3508 -0.5213
    6CHTO   H85 2370   7.850   4.898   0.980 -0.1766  4.0961  1.1194
    6CHTO   O29 2371   7.946   4.999   0.818 -0.3162 -0.1604 -0.6403
    6CHTO   C50 2372   7.840   4.968   0.721 -0.2719  0.0586 -0.5671
    6CHTO   H92 2373   7.743   5.014   0.745 -2.3321 -3.3522 -2.0559
    6CHTO   C54 2374   7.896   5.045   0.592 -0.4135  0.0741  0.3148
    6CHTO   O36 2375   7.803   5.039   0.480  0.5450  0.4353 -0.0619
    6CHTO   H72 2376   7.812   4.953   0.443 -0.8900  0.3578 -0.2456
    6CHTO   O27 2377   8.029   4.958   1.043 -0.0684 -0.2879  0.3591
    6CHTO   C37 2378   8.126   5.059   1.076  0.0221  0.7390 -0.0037
    6CHTO   H79 2379   8.223   5.027   1.034  0.0147 -0.8289  1.1024
    6CHTO   C38 2380   8.093   5.198   1.023 -0.6468 -0.0797  0.3505
    6CHTO   H80 2381   7.989   5.210   1.057  0.3610 -0.8573  3.9556
    6CHTO   O31 2382   8.112   5.196   0.879 -0.0998 -0.1540 -0.0296
    6CHTO   H68 2383   8.032   5.212   0.833 -0.6137  1.4189  1.3661
    6CHTO   C39 2384   8.180   5.312   1.087  0.0835 -0.3232  0.1045
    6CHTO   H81 2385   8.284   5.295   1.060  1.0111  1.2759  2.4902
    6CHTO    N7 2386   8.136   5.448   1.042  0.0564  0.3862  0.8377
    6CHTO   H73 2387   8.139   5.443   0.934 -1.5712  3.6555  0.5628
    6CHTO   H74 2388   8.042   5.487   1.077 -0.2194  1.3532 -0.8881
    6CHTO   C40 2389   8.183   5.303   1.246  0.1428 -0.3133  0.3552
    6CHTO   H82 2390   8.093   5.331   1.300  1.0312  2.9051  0.2297
    6CHTO   O26 2391   8.230   5.171   1.280 -0.1721  0.4944  0.2766
    6CHTO   C41 2392   8.140   5.063   1.232  0.1335 -0.7317  0.8480
    6CHTO   H83 2393   8.041   5.090   1.271  0.3156  1.6805 -0.2284
    6CHTO   C52 2394   8.191   4.935   1.300  0.3154 -0.2210 -0.2959
    6CHTO   O35 2395   8.152   4.927   1.455 -0.1659  0.4816 -0.7474
    6CHTO   H71 2396   8.227   4.957   1.502 -0.9766 -0.7398  1.4029
    6CHTO   O28 2397   8.276   5.392   1.304  0.0607 -0.2693 -0.1232
    6CHTO   C42 2398   8.260   5.442   1.441  0.1259  0.0171  0.5230
    6CHTO   H84 2399   8.354   5.493   1.462  0.1953  0.5601 -1.0472
    6CHTO   C44 2400   8.249   5.336   1.557  0.3947  1.0115  0.9396
    6CHTO   H86 2401   8.169   5.267   1.532  2.3642 -0.3446 -1.9280
    6CHTO   O32 2402   8.369   5.251   1.552  0.2678  0.1134 -0.2724
    6CHTO   H69 2403   8.414   5.271   1.472 -0.6018 -0.4191 -0.9143
    6CHTO   C48 2404   8.226   5.394   1.706 -0.7363 -0.3243 -0.0748
    6CHTO   H90 2405   8.316   5.452   1.727 -1.1508 -0.2573  1.5610
    6CHTO    N9 2406   8.217   5.284   1.808  0.9157  0.4917 -0.0649
    6CHTO   H77 2407   8.284   5.204   1.779 -1.1001 -2.0714  2.0305
    6CHTO   H78 2408   8.230   5.314   1.910 -2.0204  0.1718  0.4545
    6CHTO   C51 2409   8.108   5.488   1.705  0.0037 -1.3513  0.6527
    6CHTO   H93 2410   8.015   5.435   1.684 -0.3903  0.2529 -1.8295
    6CHTO   O30 2411   8.134   5.597   1.612 -0.6166  0.2687 -0.4856
    6CHTO   C46 2412   8.148   5.547   1.455 -0.1895  0.9578 -0.2918
    6CHTO   H88 2413   8.051   5.499   1.449  0.5972 -0.5572 -1.0542
    6CHTO   C53 2414   8.158   5.666   1.356  0.0782 -0.0588  0.2332
    6CHTO   O72 2415   8.277   5.744   1.388 -0.3734 -0.0682 -0.1825
    6CHTO  H199 2416   8.315   5.790   1.316  1.3269 -0.6270  0.3304
    6CHTO   O22 2417   8.093   5.551   1.832 -0.0003  0.6049  0.1199
    6CHTO   C31 2418   7.983   5.639   1.879  0.0454 -0.3088 -0.7297
    6CHTO   H59 2419   8.023   5.682   1.973 -1.8894 -0.9940  0.4522
    6CHTO   C29 2420   7.939   5.756   1.789  0.0904  0.2075  0.0172
    6CHTO   H57 2421   7.912   5.708   1.694  1.4588 -2.0142  0.7349
    6CHTO   O21 2422   8.051   5.839   1.768 -0.1765  0.0371 -0.0997
    6CHTO   H37 2423   8.073   5.882   1.849  1.2088 -1.3618  0.2890
    6CHTO   C27 2424   7.817   5.840   1.843  0.4341 -0.3737 -0.3994
    6CHTO   H55 2425   7.856   5.908   1.920 -0.3612 -0.9975  0.5684
    6CHTO    N5 2426   7.760   5.922   1.734  0.1807  0.3139  0.0194
    6CHTO   H43 2427   7.752   6.027   1.759  0.1799  0.0185  1.2978
    6CHTO   H44 2428   7.668   5.879   1.698  0.8808 -1.5247  0.3892
    6CHTO   C25 2429   7.710   5.737   1.900  0.0845  0.4335  0.0554
    6CHTO   H53 2430   7.662   5.682   1.818 -0.1932 -0.1041  0.5819
    6CHTO   O17 2431   7.776   5.633   1.986  0.4360 -0.4690  0.1339
    6CHTO   C32 2432   7.863   5.547   1.933  0.0954  0.1424 -0.0240
    6CHTO   H60 2433   7.833   5.478   1.854  2.6706 -1.1199  0.0530
    6CHTO   C36 2434   7.916   5.455   2.044 -0.1629  0.0589 -0.3039
    6CHTO   O25 2435   7.808   5.393   2.108  0.1731 -0.0634  0.4775
    6CHTO   H40 2436   7.742   5.366   2.048  0.0556 -2.3370  1.5827
    6CHTO   O15 2437   7.609   5.803   1.989 -0.3904  0.5340 -0.6157
    6CHTO   C19 2438   7.506   5.895   2.042 -0.1646  0.5234 -0.4246
    6CHTO   H47 2439   7.525   5.880   2.150 -1.5502  0.8514 -0.1176
    6CHTO   C20 2440   7.545   6.038   2.008 -0.3686 -0.3412 -0.5373
    6CHTO   H48 2441   7.558   6.051   1.899 -0.2467  2.0182 -0.2681
    6CHTO   O19 2442   7.673   6.070   2.059 -0.5291  0.4766 -0.3249
    6CHTO   H35 2443   7.689   6.019   2.136 -1.0881  1.2558  0.3201
    6CHTO   C21 2444   7.434   6.143   2.048 -0.2346  0.0771  0.0800
    6CHTO   H49 2445   7.418   6.140   2.156  0.8927 -2.9978  0.2237
    6CHTO    N4 2446   7.461   6.283   2.002  0.4746  0.0581  0.1657
    6CHTO   H41 2447   7.501   6.341   2.084 -0.8210  0.9430  0.1895
    6CHTO   H42 2448   7.378   6.337   1.958  1.3879  0.3096 -1.2995
    6CHTO   C22 2449   7.301   6.087   1.996 -0.8907 -0.2787 -0.2047
    6CHTO   H50 2450   7.309   6.076   1.888  2.2563  1.2758 -0.1894
    6CHTO   O14 2451   7.273   5.955   2.043  0.0701  0.0403 -0.3507
    6CHTO   C23 2452   7.363   5.849   2.005 -0.7705  0.3349 -0.0080
    6CHTO   H51 2453   7.351   5.836   1.896  1.3694 -4.5196  0.2128
    6CHTO   C34 2454   7.324   5.729   2.088  0.4247 -0.3172  0.4427
    6CHTO   O23 2455   7.198   5.671   2.051  0.0470 -1.1080 -0.2310
    6CHTO   H38 2456   7.111   5.691   2.080 -0.0070 -0.3273 -0.9245
    6CHTO   O16 2457   7.190   6.164   2.042  0.6973 -0.4015  0.2366
    6CHTO   C24 2458   7.075   6.214   1.919  0.0701  0.3404  0.2746
    6CHTO   H52 2459   7.098   6.169   1.822  2.0276 -0.1576  0.9449
    6CHTO   C26 2460   7.070   6.365   1.896  0.1642  0.5772 -0.6039
    6CHTO   H54 2461   7.065   6.410   1.997  1.3645  1.3701 -0.8900
    6CHTO   O20 2462   7.191   6.406   1.825  0.2304  0.3299 -0.0463
    6CHTO   H36 2463   7.270   6.379   1.867  0.7248 -0.6272 -1.5610
    6CHTO   C30 2464   6.946   6.415   1.813 -0.0528  0.8854 -0.1932
    6CHTO   H58 2465   6.966   6.393   1.707 -0.0451  1.7214 -0.3686
    6CHTO    N6 2466   6.940   6.562   1.814 -0.6565  0.0570 -0.1925
    6CHTO   H45 2467   6.841   6.596   1.841 -0.8511  0.4690 -1.3743
    6CHTO   H46 2468   7.011   6.596   1.888  0.7428 -3.7315  0.2866
    6CHTO   C33 2469   6.814   6.345   1.865  0.1381 -0.0531  0.2110
    6CHTO   H61 2470   6.787   6.371   1.969  2.0353  1.6751  0.3248
    6CHTO   O18 2471   6.839   6.198   1.864 -0.6670 -0.2215  0.2828
    6CHTO   C28 2472   6.936   6.155   1.959 -0.5766  0.7846  0.4220
    6CHTO   H56 2473   6.910   6.198   2.056  1.4088 -1.0284  1.8228
    6CHTO   C35 2474   6.934   6.006   1.957  0.1017 -0.3685  0.0028
    6CHTO   O24 2475   6.796   5.962   1.964  0.1228 -0.2015 -0.2114
    6CHTO   H39 2476   6.756   5.986   1.882  1.9518 -0.7076 -1.2934
    6CHTO    O9 2477   6.699   6.381   1.782  0.5150 -0.0084  0.1448
    6CHTO   C13 2478   6.548   6.400   1.845 -0.9722  0.2987 -0.1865
    6CHTO   H26 2479   6.548   6.491   1.909 -0.6126 -0.2910  0.6484
    6CHTO   C11 2480   6.512   6.270   1.926  0.1208  0.6689  0.2619
    6CHTO   H24 2481   6.588   6.256   2.004 -1.3260  1.5036  1.8510
    6CHTO    O8 2482   6.535   6.154   1.844  0.1963 -0.4534  0.2109
    6CHTO    H3 2483   6.460   6.136   1.791  2.0603 -0.6957 -2.4284
    6CHTO    C9 2484   6.375   6.287   1.993 -0.1988 -0.3373  0.6479
    6CHTO   H22 2485   6.383   6.381   2.050  2.2743 -1.7327  2.7355
    6CHTO    N2 2486   6.353   6.190   2.101  0.2581  0.1457 -0.2762
    6CHTO   H10 2487   6.442   6.131   2.114  0.1624  0.1381  0.3865
    6CHTO   H11 2488   6.266   6.128   2.081 -1.1444  2.1322 -0.5545
    6CHTO    C7 2489   6.261   6.292   1.881 -0.5854 -0.2187 -0.3638
    6CHTO   H20 2490   6.176   6.321   1.945 -0.1148  0.2154  0.0714
    6CHTO    O4 2491   6.294   6.391   1.772 -0.5721  0.5481 -0.4750
    6CHTO   C14 2492   6.432   6.422   1.731  0.5323 -0.4804 -0.0819
    6CHTO   H27 2493   6.421   6.532   1.717  1.4595 -0.1874  1.3503
    6CHTO   C18 2494   6.464   6.350   1.599 -0.1467 -0.6521  0.3071
    6CHTO   O13 2495   6.379   6.395   1.489  0.1402  0.1380 -0.1114
    6CHTO    H7 2496   6.308   6.333   1.487  0.8906 -0.8145  1.5016
    6CHTO    O2 2497   6.237   6.154   1.799 -0.4171 -0.3910  0.2048
    6CHTO    C1 2498   6.100   6.109   1.776 -0.1353 -0.4110 -0.4784
    6CHTO   H14 2499   6.099   6.021   1.708  0.3442 -0.8235  0.0422
    6CHTO    C2 2500   6.009   6.231   1.715 -0.6142 -0.3941 -0.1135
    6CHTO   H15 2501   6.008   6.323   1.775 -1.7061  0.6883 -1.7276
    6CHTO    O6 2502   6.066   6.261   1.582 -0.3378 -0.4684 -0.1571
    6CHTO    H1 2503   6.083   6.179   1.538  1.3073 -0.6967  0.8904
    6CHTO    C3 2504   5.854   6.197   1.698 -0.1124 -0.5573 -0.2616
    6CHTO   H16 2505   5.846   6.123   1.617  1.6216  0.0611 -1.0257
    6CHTO    N1 2506   5.765   6.304   1.661 -0.2340 -0.1316 -0.5686
    6CHTO    H8 2507   5.762   6.390   1.726  2.0654 -1.0424  0.7897
    6CHTO    H9 2508   5.670   6.255   1.643 -0.2824 -0.2884  0.0991
    6CHTO    C4 2509   5.815   6.125   1.833  0.2117  0.0895  0.3987
    6CHTO   H17 2510   5.787   6.201   1.906 -0.1031  0.0567  0.3129
    6CHTO    O1 2511   5.904   6.031   1.897 -0.1503  0.3526  0.3421
    6CHTO    C5 2512   6.037   6.066   1.912 -0.9085 -0.3027 -0.1805
    6CHTO   H18 2513   6.048   6.148   1.983 -1.8553  0.1369 -0.5208
    6CHTO   C16 2514   6.122   5.935   1.959  0.3708  0.4606  0.7099
    6CHTO   O11 2515   6.137   5.909   2.099 -0.1550 -0.3783 -0.0441
    6CHTO    H5 2516   6.198   5.967   2.140  0.0200  1.0225 -2.2319
    6CHTO    O3 2517   5.702   6.040   1.800 -0.3958 -0.5191 -1.1766
    6CHTO    C6 2518   5.600   6.033   1.907  0.3884  0.0363  0.5566
    6CHTO   H19 2519   5.651   6.042   2.003 -1.1824  1.2896  1.2965
    6CHTO    C8 2520   5.488   6.144   1.885  0.1731 -0.0279  0.5221
    6CHTO   H21 2521   5.464   6.150   1.779  1.1725  1.3591  0.3559
    6CHTO    O7 2522   5.555   6.267   1.917 -0.5421  0.5304 -0.0837
    6CHTO    H2 2523   5.627   6.276   1.858 -0.0986  0.1012  0.3812
    6CHTO   C12 2524   5.368   6.120   1.989 -0.5734  1.1234  0.5098
    6CHTO   H25 2525   5.413   6.133   2.089  0.5919 -0.8610  0.2763
    6CHTO    N3 2526   5.255   6.222   1.973 -0.0331  0.3992  0.0957
    6CHTO   H12 2527   5.163   6.177   1.938  0.4249 -1.1875  0.8990
    6CHTO   H13 2528   5.241   6.274   2.066  0.7169 -1.1620  1.1033
    6CHTO   C15 2529   5.318   5.967   1.972  0.0051  0.3079 -0.0173
    6CHTO   H28 2530   5.246   5.954   1.891 -2.3483 -1.9901  2.3560
    6CHTO   O10 2531   5.231   5.930   2.101 -0.0336  0.2639  0.1100
    6CHTO    H4 2532   5.267   5.974   2.176  1.7270  0.7660 -0.9871
    6CHTO    O5 2533   5.426   5.873   1.987  0.6463 -0.1009  0.1754
    6CHTO   C10 2534   5.543   5.887   1.902  0.3820  0.0425 -0.0760
    6CHTO   H23 2535   5.510   5.853   1.804 -0.1526 -1.5335  0.6423
    6CHTO   C17 2536   5.639   5.780   1.958  0.5814  0.1444 -0.2366
    6CHTO   O12 2537   5.767   5.793   1.907  0.3905  0.5504  0.6712
    6CHTO    H6 2538   5.835   5.751   1.957  2.0546  0.8147 -1.2610
    7CHTO  H203 2539   4.797   2.600   2.216 -1.6611  0.3420 -0.2884
    7CHTO   O82 2540   4.837   2.682   2.238  0.6323 -0.6508 -0.5106
    7CHTO  C123 2541   4.980   2.670   2.258 -0.2764  0.0819  0.6425
    7CHTO  H227 2542   5.023   2.762   2.301 -1.6174  0.8749  0.3182
    7CHTO   O77 2543   4.998   2.571   2.358  0.2527  0.0346  0.0631
    7CHTO  C118 2544   5.126   2.556   2.416 -0.1926 -0.1123 -0.0226
    7CHTO  H222 2545   5.176   2.640   2.466 -0.5015 -1.4875  2.6975
    7CHTO  C125 2546   5.107   2.441   2.520  0.0405 -0.3145  0.4025
    7CHTO   O84 2547   5.220   2.415   2.610 -0.0214  0.4533  0.1213
    7CHTO  H205 2548   5.198   2.417   2.701  0.9621 -0.7297  0.4019
    7CHTO  C114 2549   5.211   2.499   2.298  0.3751 -0.1008  0.6502
    7CHTO  H218 2550   5.163   2.408   2.261  0.7472 -0.4628  1.0532
    7CHTO  C116 2551   5.209   2.598   2.180  0.6601 -0.0870  0.4142
    7CHTO  H220 2552   5.260   2.692   2.211  0.5675  0.7066 -1.7162
    7CHTO   O79 2553   5.283   2.530   2.075 -0.2097  0.0796 -0.1728
    7CHTO  H201 2554   5.285   2.582   1.997  3.6921  1.5306  0.7719
    7CHTO  C120 2555   5.059   2.622   2.129  0.2286 -0.0526  0.1911
    7CHTO  H224 2556   5.012   2.530   2.089 -2.5575  1.2187  0.4233
    7CHTO   N21 2557   5.069   2.725   2.025  0.0286 -0.8364 -0.5702
    7CHTO  H211 2558   5.078   2.668   1.933  0.1243 -1.4336 -0.1951
    7CHTO  H212 2559   4.985   2.793   2.025  1.0457  0.4579 -2.7859
    7CHTO   O75 2560   5.345   2.484   2.346  0.8983  0.2922  0.4962
    7CHTO  C112 2561   5.414   2.372   2.304  0.9592  0.4754 -0.4829
    7CHTO  H216 2562   5.386   2.343   2.202 -1.2362 -0.3034  0.3131
    7CHTO   O73 2563   5.396   2.264   2.398  0.0774 -0.6776 -0.1936
    7CHTO  C113 2564   5.483   2.144   2.395 -0.1255  0.1285 -0.2356
    7CHTO  H217 2565   5.478   2.071   2.311 -1.2001  1.1534 -1.0776
    7CHTO  C124 2566   5.453   2.054   2.514  0.1877 -0.5256  0.2250
    7CHTO   O83 2567   5.319   2.019   2.531  0.2839 -0.0143 -0.4031
    7CHTO  H204 2568   5.291   1.950   2.474 -1.0715  0.1819  0.0257
    7CHTO  C109 2569   5.634   2.191   2.388 -0.7175 -0.7133 -0.5893
    7CHTO  H213 2570   5.651   2.246   2.482  1.1628 -0.4952 -1.0232
    7CHTO  C110 2571   5.645   2.286   2.266  0.7082  0.3275  0.0771
    7CHTO  H214 2572   5.602   2.234   2.181  0.4715  2.3207 -1.0419
    7CHTO   O78 2573   5.786   2.303   2.224  0.6013  0.2327 -0.3773
    7CHTO  H200 2574   5.796   2.343   2.140 -1.7991  1.5399 -0.0831
    7CHTO  C111 2575   5.572   2.418   2.290  0.2189  0.2469 -0.1069
    7CHTO  H215 2576   5.611   2.463   2.383  1.6328 -1.8230  0.3329
    7CHTO   N19 2577   5.589   2.520   2.183 -0.1938 -0.2284 -0.1335
    7CHTO  H207 2578   5.584   2.488   2.080 -2.0235 -1.0949  0.2129
    7CHTO  H208 2579   5.675   2.584   2.191 -2.0686  2.1901  1.4258
    7CHTO   O74 2580   5.725   2.076   2.384 -0.1365  0.3274  0.3851
    7CHTO  C115 2581   5.872   2.099   2.480 -0.4417  0.1914 -0.3365
    7CHTO  H219 2582   5.881   2.202   2.515 -1.7629  1.2675 -2.9802
    7CHTO   O76 2583   5.871   1.998   2.614 -0.6088  0.6253 -0.9214
    7CHTO  C122 2584   5.991   1.984   2.684 -0.3367  0.3300  1.3365
    7CHTO  H226 2585   5.980   1.887   2.733 -1.2238 -0.0050  0.4791
    7CHTO  C126 2586   5.984   2.092   2.787 -0.0166 -0.7278  0.4153
    7CHTO   O85 2587   5.981   2.234   2.750 -0.2696  0.4197  0.0612
    7CHTO  H206 2588   5.913   2.250   2.689 -0.9494 -1.4961  0.2811
    7CHTO  C121 2589   6.121   1.986   2.600  0.0457 -0.2495  0.3673
    7CHTO  H225 2590   6.171   2.085   2.608  2.1884 -1.3043  0.2271
    7CHTO   O81 2591   6.215   1.892   2.662  0.7477 -0.3502  0.0908
    7CHTO  H202 2592   6.211   1.811   2.614 -2.0277  0.6170 -1.4191
    7CHTO  C119 2593   6.080   1.956   2.448  0.1737 -0.0075  0.5679
    7CHTO  H223 2594   6.173   1.947   2.392  0.4567  1.5588  0.7437
    7CHTO  C117 2595   5.994   2.069   2.386  0.2984  0.4863 -0.5258
    7CHTO  H221 2596   5.947   2.048   2.290 -1.0093  1.7153 -0.1685
    7CHTO   N20 2597   6.072   2.187   2.368  0.4712  0.1178  0.1468
    7CHTO  H209 2598   6.154   2.186   2.297 -0.3411  0.3359 -0.7999
    7CHTO  H210 2599   6.014   2.274   2.342  1.3842  0.2193 -1.6418
    7CHTO   O80 2600   6.005   1.812   2.434 -0.3216 -0.4983  0.5950
    7CHTO  C103 2601   5.969   1.762   2.289 -0.2635 -0.1316 -0.2643
    7CHTO  H190 2602   5.924   1.840   2.228  2.4888  0.3756 -1.6976
    7CHTO  C101 2603   6.089   1.699   2.205 -0.3881 -0.0754 -0.5779
    7CHTO  H188 2604   6.131   1.633   2.281 -2.4115  1.3758  1.8734
    7CHTO   O68 2605   6.188   1.800   2.172 -0.5113  0.2378  0.0515
    7CHTO  H168 2606   6.272   1.761   2.153  1.4117  3.5597  1.2734
    7CHTO   C99 2607   6.037   1.628   2.075  0.0258  0.0412  0.0396
    7CHTO  H186 2608   5.991   1.692   1.997 -0.7533 -2.0821 -1.2886
    7CHTO   N17 2609   6.151   1.552   2.006 -0.3600 -0.6350 -0.5841
    7CHTO  H174 2610   6.192   1.482   2.077  0.8107  0.5066 -0.1135
    7CHTO  H175 2611   6.224   1.617   1.961  0.6576 -2.2829 -1.3771
    7CHTO   C97 2612   5.926   1.531   2.119 -0.4027 -0.2527 -0.1198
    7CHTO  H184 2613   5.973   1.458   2.186 -1.4819  0.9490  2.0432
    7CHTO   O64 2614   5.815   1.606   2.185 -0.1520 -0.5414 -0.1492
    7CHTO  C104 2615   5.856   1.657   2.313 -0.3264  0.4246 -0.7443
    7CHTO  H191 2616   5.900   1.588   2.385 -1.2906  1.6441  1.0138
    7CHTO  C108 2617   5.737   1.725   2.381 -0.2457 -0.2151 -0.4285
    7CHTO   O71 2618   5.630   1.637   2.409  0.3437  0.6549 -0.2692
    7CHTO  H171 2619   5.606   1.650   2.499  1.7327 -0.3462  0.2721
    7CHTO   O62 2620   5.863   1.449   2.014 -0.0597 -0.9286 -0.3759
    7CHTO   C91 2621   5.870   1.305   2.015  0.0963  0.0658  0.0701
    7CHTO  H178 2622   5.977   1.286   2.003  0.2377  0.4112  0.7692
    7CHTO   C92 2623   5.798   1.250   1.888 -0.5050 -0.1854 -0.0639
    7CHTO  H179 2624   5.835   1.308   1.803  2.5906 -2.0921 -0.0890
    7CHTO   O66 2625   5.853   1.120   1.847  0.4247  0.2026 -0.1356
    7CHTO  H166 2626   5.928   1.139   1.794 -0.5151  0.2202 -1.5071
    7CHTO   C93 2627   5.643   1.254   1.904 -0.3371 -0.7614 -0.2454
    7CHTO  H180 2628   5.595   1.164   1.862 -1.0333 -0.6621  0.3215
    7CHTO   N16 2629   5.589   1.367   1.825  0.1846 -0.5753  0.3847
    7CHTO  H172 2630   5.481   1.363   1.829 -0.0108  1.8804 -1.0177
    7CHTO  H173 2631   5.621   1.371   1.722  0.5296 -2.3010  0.4195
    7CHTO   C94 2632   5.597   1.263   2.053 -0.5931  0.2945 -0.0363
    7CHTO  H181 2633   5.609   1.363   2.094 -0.2903 -0.9966  3.1753
    7CHTO   O61 2634   5.684   1.180   2.126 -0.0219 -0.2731 -0.2676
    7CHTO   C95 2635   5.817   1.225   2.149  0.0119 -0.1076  0.6511
    7CHTO  H182 2636   5.824   1.289   2.237 -1.6626  0.0453  0.6780
    7CHTO  C106 2637   5.903   1.104   2.179 -0.0909 -0.0661 -0.3270
    7CHTO   O69 2638   5.840   1.016   2.268 -0.2279 -0.1984 -0.3055
    7CHTO  H169 2639   5.905   0.955   2.295 -0.3533 -1.0512 -1.8720
    7CHTO   O63 2640   5.462   1.200   2.077 -0.2375  0.2103  0.1910
    7CHTO   C96 2641   5.379   1.268   2.192 -0.3437  1.0603 -0.0014
    7CHTO  H183 2642   5.368   1.375   2.177 -0.4448  1.0941  0.2979
    7CHTO   C98 2643   5.445   1.254   2.337  0.3892  0.7411  0.2272
    7CHTO  H185 2644   5.550   1.283   2.329  0.6925 -0.8317 -1.7311
    7CHTO   O67 2645   5.381   1.349   2.419 -0.0538 -0.1354  0.1315
    7CHTO  H167 2646   5.427   1.399   2.483 -2.2530  1.2038  0.7424
    7CHTO  C102 2647   5.414   1.102   2.400 -0.2075 -0.2582  0.4874
    7CHTO  H189 2648   5.405   1.118   2.509 -1.1484 -4.5111  1.1036
    7CHTO   N18 2649   5.528   1.014   2.375 -0.7404  0.1586  0.6707
    7CHTO  H176 2650   5.624   1.063   2.388 -0.9862  0.5848  0.8776
    7CHTO  H177 2651   5.525   0.984   2.272  1.4635 -0.6761  0.8185
    7CHTO  C105 2652   5.288   1.037   2.353  0.5696 -0.2086 -0.2459
    7CHTO  H192 2653   5.303   0.974   2.265 -0.2649  0.5056 -0.9111
    7CHTO   O65 2654   5.197   1.134   2.308  0.0838 -0.0311 -0.4343
    7CHTO  C100 2655   5.241   1.190   2.185 -0.4590 -0.0539 -0.0748
    7CHTO  H187 2656   5.249   1.111   2.110  2.0400 -0.4594  0.5762
    7CHTO  C107 2657   5.129   1.285   2.139  0.2037 -0.0404  0.1939
    7CHTO   O70 2658   5.141   1.326   1.999 -0.0585 -0.3767 -0.0114
    7CHTO  H170 2659   5.086   1.399   1.976  2.7485  1.0585 -2.4750
    7CHTO   O57 2660   5.227   0.950   2.483 -0.2172  0.4551  0.8641
    7CHTO   C85 2661   5.223   0.805   2.464 -0.4428 -0.1804 -0.0329
    7CHTO  H157 2662   5.276   0.785   2.369 -1.9202 -0.3442 -0.8513
    7CHTO   C83 2663   5.082   0.761   2.436  0.7079  1.2990  0.4131
    7CHTO  H155 2664   5.060   0.821   2.348  1.9228  1.0796 -0.0485
    7CHTO   O56 2665   5.000   0.802   2.552 -0.0835  0.2985 -0.0877
    7CHTO  H135 2666   4.910   0.801   2.526 -0.2314 -0.6128  0.4513
    7CHTO   C81 2667   5.072   0.606   2.395 -0.1984 -0.1685 -0.2513
    7CHTO  H153 2668   5.140   0.593   2.311  1.1119  1.6054  0.5082
    7CHTO   N14 2669   4.933   0.573   2.351 -0.4594  0.1398 -0.0920
    7CHTO  H141 2670   4.935   0.579   2.244  2.9288 -0.8856 -0.1231
    7CHTO  H142 2671   4.894   0.479   2.382 -2.2602 -0.0860 -2.9316
    7CHTO   C79 2672   5.127   0.520   2.514 -0.0703 -0.1102  0.5130
    7CHTO  H151 2673   5.129   0.421   2.469  2.1591  0.6398 -1.0809
    7CHTO   O52 2674   5.260   0.569   2.554  0.4095 -0.0870 -0.8312
    7CHTO   C86 2675   5.273   0.710   2.584  0.2631 -0.1751 -0.3211
    7CHTO  H158 2676   5.208   0.720   2.674  0.0478  0.1859 -0.5131
    7CHTO   C90 2677   5.414   0.746   2.636 -0.0272 -0.5761  0.1673
    7CHTO   O60 2678   5.510   0.674   2.560  0.0779  0.2727 -0.2224
    7CHTO  H138 2679   5.587   0.728   2.562 -1.1264  2.0267  0.8635
    7CHTO   O50 2680   5.044   0.516   2.628 -0.2732  0.0187  0.2078
    7CHTO   C73 2681   5.061   0.394   2.708  0.8405  0.1695 -0.3166
    7CHTO  H145 2682   5.158   0.344   2.696  0.6347  0.1593 -2.1348
    7CHTO   C74 2683   4.950   0.287   2.672 -0.6419  0.8486 -0.2990
    7CHTO  H146 2684   4.959   0.255   2.567 -0.5616  0.8268 -0.2855
    7CHTO   O54 2685   4.970   0.165   2.748  0.0228 -0.2591 -0.0248
    7CHTO  H133 2686   5.020   0.108   2.693 -0.2017  1.3838 -2.0189
    7CHTO   C75 2687   4.806   0.341   2.706 -0.2188  0.7036 -0.3506
    7CHTO  H147 2688   4.788   0.435   2.651  0.6080  1.3733  0.4941
    7CHTO   N13 2689   4.696   0.252   2.671 -0.7078  0.5976 -0.3624
    7CHTO  H139 2690   4.617   0.305   2.619 -2.2439 -1.8524 -0.6153
    7CHTO  H140 2691   4.658   0.195   2.754 -0.8829 -0.4782 -1.1686
    7CHTO   C76 2692   4.795   0.390   2.855  0.0639 -0.2469 -0.3840
    7CHTO  H148 2693   4.800   0.300   2.917  1.2686 -0.5947 -0.9788
    7CHTO   O49 2694   4.906   0.481   2.881  0.4504 -0.1394 -0.0725
    7CHTO   C77 2695   5.040   0.432   2.855 -0.3552 -0.4865 -0.2323
    7CHTO  H149 2696   5.067   0.347   2.917 -1.5405  0.1767  1.2238
    7CHTO   C88 2697   5.129   0.548   2.893 -0.1777 -0.4646 -0.4656
    7CHTO   O58 2698   5.114   0.599   3.040  0.1409 -0.7992 -0.2502
    7CHTO  H136 2699   5.028   0.629   3.061 -1.1828 -4.5312  0.0562
    7CHTO   O51 2700   4.662   0.484   2.876 -0.6552  0.5296  0.1929
    7CHTO   C78 2701   4.630   0.487   3.042 -0.2434  0.4731 -0.5148
    7CHTO  H150 2702   4.713   0.439   3.098 -2.8823 -0.2295  2.9552
    7CHTO   C80 2703   4.496   0.410   3.059 -0.3309  0.0062  0.5589
    7CHTO  H152 2704   4.425   0.451   2.984  2.6659  1.4297 -1.6177
    7CHTO   O55 2705   4.538   0.274   3.026  0.2481  0.3230  0.1545
    7CHTO  H134 2706   4.549   0.273   2.933 -0.4307 -2.2951  0.0557
    7CHTO   C84 2707   4.441   0.419   3.210  0.4070 -0.4654  0.0384
    7CHTO  H156 2708   4.501   0.351   3.272 -0.0134 -0.4541  0.4552
    7CHTO   N15 2709   4.295   0.381   3.216 -0.0069  1.3871  0.2083
    7CHTO  H143 2710   4.244   0.419   3.130 -0.9615 -0.9064 -0.2921
    7CHTO  H144 2711   4.287   0.274   3.220  0.0815  1.4154  1.1727
    7CHTO   C87 2712   4.464   0.554   3.281 -0.8853 -0.3317 -0.4879
    7CHTO  H159 2713   4.392   0.632   3.254  0.9366  1.2523 -0.8529
    7CHTO   O53 2714   4.609   0.607   3.246 -0.0826 -0.2863  0.5848
    7CHTO   C82 2715   4.620   0.622   3.104 -0.2836  1.1594 -0.0699
    7CHTO  H154 2716   4.531   0.670   3.063 -1.7126 -1.7474 -0.5392
    7CHTO   C89 2717   4.745   0.705   3.063  0.3089  0.0925 -0.4443
    7CHTO   O59 2718   4.742   0.845   3.091 -1.0116  0.1705 -0.7709
    7CHTO  H137 2719   4.822   0.889   3.067  0.2440 -1.4717  0.2923
    7CHTO   O45 2720   4.455   0.529   3.444  0.3830 -0.1145  0.0006
    7CHTO   C67 2721   4.518   0.628   3.534  0.1115  0.5292  0.0358
    7CHTO  H124 2722   4.595   0.685   3.483 -0.9081  0.1088 -2.0640
    7CHTO   C65 2723   4.404   0.730   3.576  0.1050  0.2107 -0.5339
    7CHTO  H122 2724   4.313   0.670   3.582  0.8707 -0.7141  2.5079
    7CHTO   O44 2725   4.397   0.813   3.463  0.5601 -0.4959 -0.1724
    7CHTO  H102 2726   4.316   0.857   3.448  0.6084 -1.2717 -3.0291
    7CHTO   C63 2727   4.418   0.790   3.726 -0.5112  1.0157 -0.1498
    7CHTO  H120 2728   4.375   0.718   3.796  1.9966 -0.6148 -0.2046
    7CHTO   N11 2729   4.343   0.915   3.757  0.1371  0.1801  0.3344
    7CHTO  H108 2730   4.323   0.927   3.861 -2.3081  0.5216 -0.1339
    7CHTO  H109 2731   4.376   1.010   3.722 -1.0690  0.5781  0.2408
    7CHTO   C61 2732   4.574   0.805   3.752 -0.7801  0.2131  0.3888
    7CHTO  H118 2733   4.589   0.842   3.854 -0.5834  2.1443 -0.3248
    7CHTO   O40 2734   4.652   0.679   3.741 -0.1207 -0.0432  0.0652
    7CHTO   C68 2735   4.587   0.566   3.662  0.1766 -0.6314 -0.4508
    7CHTO  H125 2736   4.514   0.514   3.727  0.2481  2.8424  2.5657
    7CHTO   C72 2737   4.699   0.468   3.638  0.5555 -0.2769 -0.0156
    7CHTO   O48 2738   4.768   0.507   3.518  0.6598 -0.1255 -0.2178
    7CHTO  H105 2739   4.837   0.446   3.502 -0.2216 -0.8616 -1.2993
    7CHTO   O38 2740   4.630   0.897   3.650  0.6339 -0.3822 -0.3588
    7CHTO   C55 2741   4.765   0.939   3.675 -0.4965 -0.2296 -0.2957
    7CHTO  H112 2742   4.829   0.859   3.715  1.3269  1.9246  1.2405
    7CHTO   C56 2743   4.765   1.071   3.768 -0.3515  0.6941  0.2282
    7CHTO  H113 2744   4.694   1.140   3.720  1.0432  0.6189 -2.0074
    7CHTO   O42 2745   4.714   1.040   3.894 -0.3203 -0.2325  0.3384
    7CHTO  H100 2746   4.704   1.118   3.944  1.3737  1.3022 -1.5975
    7CHTO   C57 2747   4.917   1.123   3.780  0.1366 -0.2852 -0.3350
    7CHTO  H114 2748   4.964   1.041   3.835  0.8183 -1.5383 -2.7351
    7CHTO   N10 2749   4.943   1.246   3.854 -0.1339  0.7033 -0.7477
    7CHTO  H106 2750   4.968   1.209   3.952  0.3685  0.7565 -0.8563
    7CHTO  H107 2751   4.859   1.314   3.862 -0.6387 -0.1222  1.3185
    7CHTO   C58 2752   4.983   1.139   3.644 -0.4547 -0.2254 -0.1597
    7CHTO  H115 2753   4.930   1.223   3.594 -0.2703  0.5799  0.9902
    7CHTO   O37 2754   4.962   1.014   3.570  0.6978  0.2873  0.4720
    7CHTO   C59 2755   4.826   0.977   3.542 -0.1501  0.4941  0.2779
    7CHTO  H116 2756   4.772   1.061   3.498 -0.0660  0.8172  0.7845
    7CHTO   C70 2757   4.828   0.870   3.436  0.1706  0.1342  0.2382
    7CHTO   O46 2758   4.911   0.760   3.474  0.2274  0.5031 -0.1872
    7CHTO  H103 2759   4.996   0.794   3.494  0.0558  1.1071 -0.4678
    7CHTO   O39 2760   5.150   1.160   3.646 -0.1941  0.3945  0.0309
    7CHTO   C60 2761   5.222   1.108   3.533  0.5027 -0.3550 -0.2108
    7CHTO  H117 2762   5.208   1.001   3.514  0.6380  0.1988 -3.7747
    7CHTO   C62 2763   5.179   1.192   3.406  0.5112  0.1725 -0.2888
    7CHTO  H119 2764   5.068   1.194   3.400  0.5112 -1.0023 -0.7812
    7CHTO   O43 2765   5.218   1.333   3.421 -0.2263  0.0709  0.3635
    7CHTO  H101 2766   5.152   1.381   3.376 -0.1626  1.0529  1.3089
    7CHTO   C66 2767   5.242   1.117   3.278  0.4014 -0.2797 -0.7853
    7CHTO  H123 2768   5.228   1.010   3.289  1.4203 -0.3176  0.3083
    7CHTO   N12 2769   5.167   1.156   3.156  0.1903 -0.5136  0.3344
    7CHTO  H110 2770   5.195   1.091   3.074 -0.9988 -0.7755  0.1323
    7CHTO  H111 2771   5.199   1.256   3.131 -0.4043  0.0190  1.7027
    7CHTO   C69 2772   5.393   1.140   3.279  0.0040  0.3021 -0.1010
    7CHTO  H126 2773   5.425   1.245   3.267 -1.6634  1.0814  2.0301
    7CHTO   O41 2774   5.456   1.085   3.424  0.0536 -0.7395  0.3729
    7CHTO   C64 2775   5.374   1.133   3.549  0.4871 -0.1177  1.0456
    7CHTO  H121 2776   5.381   1.243   3.561  2.0920  0.0372 -0.9455
    7CHTO   C71 2777   5.431   1.065   3.671 -0.0195 -0.3164  0.5034
    7CHTO   O47 2778   5.419   1.129   3.797 -0.2527 -0.3100 -0.0449
    7CHTO  H104 2779   5.429   1.062   3.862 -1.7828 -1.5339 -1.0337
    7CHTO   O34 2780   5.458   1.051   3.170 -0.0830 -0.4585 -0.4462
    7CHTO   C49 2781   5.603   0.993   3.196  0.6001  0.0397  0.4690
    7CHTO   H91 2782   5.643   1.038   3.287  0.5051  0.5322  0.2630
    7CHTO   C47 2783   5.691   1.018   3.070  0.2334 -0.1381  0.1453
    7CHTO   H89 2784   5.794   1.011   3.112 -0.3486  1.4562  1.8619
    7CHTO   O33 2785   5.670   1.151   3.029 -0.7073  0.3892 -0.2795
    7CHTO   H70 2786   5.699   1.214   3.092  1.3984 -0.4920 -0.2918
    7CHTO   C45 2787   5.667   0.915   2.945  0.2991  0.4746 -0.0310
    7CHTO   H87 2788   5.564   0.923   2.907  0.2947 -2.2612 -0.7434
    7CHTO    N8 2789   5.765   0.943   2.835  0.4826 -0.0420  0.4715
    7CHTO   H75 2790   5.791   0.851   2.785  1.5730  0.1372  0.6896
    7CHTO   H76 2791   5.858   0.985   2.869 -0.0883  2.3995 -0.8840
    7CHTO   C43 2792   5.678   0.765   2.998  0.4164  0.6536  0.0425
    7CHTO   H85 2793   5.656   0.688   2.924 -2.4429 -0.0265  1.5131
    7CHTO   O29 2794   5.583   0.754   3.103  0.6060 -0.0900  0.0112
    7CHTO   C50 2795   5.598   0.834   3.218  0.6392  0.6519 -0.2180
    7CHTO   H92 2796   5.511   0.817   3.284  2.1276  0.3510  1.7109
    7CHTO   C54 2797   5.714   0.786   3.307  0.1624 -1.1704 -0.3722
    7CHTO   O36 2798   5.678   0.667   3.381  0.0158  0.4109  0.0980
    7CHTO   H72 2799   5.736   0.655   3.454  0.9245 -2.2846 -1.0006
    7CHTO   O27 2800   5.814   0.721   3.020  0.4724 -0.3674  0.4606
    7CHTO   C37 2801   5.891   0.608   3.074 -0.1867 -0.5885  0.2214
    7CHTO   H79 2802   5.881   0.598   3.183  0.9698 -1.6388  0.2407
    7CHTO   C38 2803   5.839   0.479   3.019  0.3359 -0.5125  0.0465
    7CHTO   H80 2804   5.826   0.492   2.910  1.2972  2.7322  0.2760
    7CHTO   O31 2805   5.705   0.463   3.067 -0.2758 -0.2472  0.3787
    7CHTO   H68 2806   5.629   0.467   3.012 -1.1079 -4.3758  1.0291
    7CHTO   C39 2807   5.932   0.354   3.063 -0.2353 -0.4249 -0.0096
    7CHTO   H81 2808   5.930   0.346   3.171 -2.2232  3.5277  0.3518
    7CHTO    N7 2809   5.889   0.221   3.006 -0.4885 -0.0778  0.2067
    7CHTO   H73 2810   5.873   0.140   3.075 -1.0204  0.2507  0.4725
    7CHTO   H74 2811   5.945   0.195   2.917  1.8067  1.8971  1.0233
    7CHTO   C40 2812   6.092   0.383   3.035 -0.2034  0.1909  0.9744
    7CHTO   H82 2813   6.117   0.362   2.931 -1.7124 -0.2249  0.6883
    7CHTO   O26 2814   6.121   0.520   3.071  0.4838 -0.1459  0.2831
    7CHTO   C41 2815   6.035   0.631   3.029 -1.0815 -0.4534  0.1435
    7CHTO   H83 2816   6.033   0.634   2.919 -2.2716 -3.5065  0.0391
    7CHTO   C52 2817   6.103   0.765   3.081  0.8686  0.2928 -0.1283
    7CHTO   O35 2818   6.050   0.888   3.020  0.0956  1.0131 -0.0747
    7CHTO   H71 2819   6.042   0.954   3.085  3.9579  2.2382 -0.6933
    7CHTO   O28 2820   6.170   0.295   3.114  0.5739  0.2253  0.3654
    7CHTO   C42 2821   6.305   0.252   3.087  0.3417  0.3047 -0.1984
    7CHTO   H84 2822   6.322   0.198   3.180 -4.4286 -0.9711  0.0816
    7CHTO   C44 2823   6.420   0.362   3.062 -0.0990 -0.2720 -0.1606
    7CHTO   H86 2824   6.380   0.422   2.980 -0.7920 -1.4034 -0.6707
    7CHTO   O32 2825   6.415   0.441   3.180 -0.3906  0.4704 -0.2593
    7CHTO   H69 2826   6.329   0.478   3.187 -0.5522 -0.2592  1.9910
    7CHTO   C48 2827   6.558   0.303   3.016  0.0179 -0.4372  0.0013
    7CHTO   H90 2828   6.602   0.251   3.102 -0.3885  1.0931  1.1597
    7CHTO    N9 2829   6.656   0.412   2.990  0.8151  0.2111  0.0494
    7CHTO   H77 2830   6.696   0.402   2.890  0.6695  1.5682 -0.1521
    7CHTO   H78 2831   6.615   0.511   2.999 -1.7989 -0.8770  0.4483
    7CHTO   C51 2832   6.521   0.206   2.902 -0.6885 -0.6384  0.4583
    7CHTO   H93 2833   6.471   0.265   2.825  0.4288  0.2619  0.4152
    7CHTO   O30 2834   6.441   0.097   2.947  0.0364 -0.5074  0.1763
    7CHTO   C46 2835   6.303   0.145   2.973  0.6317  0.0561 -0.0475
    7CHTO   H88 2836   6.258   0.180   2.879  0.7361 -3.3436 -1.4464
    7CHTO   C53 2837   6.232   0.021   3.019 -0.1651  0.0542  0.4434
    7CHTO   O72 2838   6.213  -0.082   2.923  0.8333 -0.2825 -0.2309
    7CHTO  H199 2839   6.232  -0.159   2.972 -0.4986 -0.6443 -0.2692
    7CHTO   O22 2840   6.643   0.144   2.850 -0.3112  0.2011  0.4942
    7CHTO   C31 2841   6.645   0.095   2.707  0.4230 -0.7590 -0.2143
    7CHTO   H59 2842   6.734   0.029   2.703  1.6486  0.8019  0.5149
    7CHTO   C29 2843   6.525  -0.000   2.670  0.0111 -0.6429  0.1831
    7CHTO   H57 2844   6.427   0.047   2.689 -0.4219 -1.0398 -1.0247
    7CHTO   O21 2845   6.529  -0.105   2.771  0.2853  0.3074 -0.2683
    7CHTO   H37 2846   6.585  -0.175   2.744  0.4319  0.2858  0.0907
    7CHTO   C27 2847   6.525  -0.040   2.517 -0.0515 -0.5032 -0.4984
    7CHTO   H55 2848   6.617  -0.095   2.491  1.5629  0.0548  3.5954
    7CHTO    N5 2849   6.409  -0.128   2.487 -0.0886 -0.0724  0.3242
    7CHTO   H43 2850   6.402  -0.200   2.568 -2.6247 -1.1228 -0.7655
    7CHTO   H44 2851   6.427  -0.195   2.404  1.8936  0.1345  0.5751
    7CHTO   C25 2852   6.542   0.087   2.423  0.6880  0.5211 -0.0633
    7CHTO   H53 2853   6.459   0.159   2.428  0.0100 -0.1007 -1.8209
    7CHTO   O17 2854   6.672   0.148   2.462 -0.0604 -0.3029  0.5532
    7CHTO   C32 2855   6.670   0.204   2.598  0.8226  0.1342  0.5839
    7CHTO   H60 2856   6.588   0.275   2.604 -0.0233 -0.8884  1.5491
    7CHTO   C36 2857   6.810   0.275   2.621 -0.0480  0.3306  0.2740
    7CHTO   O25 2858   6.826   0.391   2.535  0.2096 -0.3094 -0.5039
    7CHTO   H40 2859   6.909   0.434   2.543  0.0730 -0.1370 -0.0500
    7CHTO   O15 2860   6.550   0.047   2.272  0.4140 -0.8407  0.3017
    7CHTO   C19 2861   6.512   0.136   2.170 -0.0291 -0.5097  0.3042
    7CHTO   H47 2862   6.537   0.082   2.077  0.7064  1.8032 -0.8894
    7CHTO   C20 2863   6.358   0.172   2.153  0.4636  0.0219 -0.8194
    7CHTO   H48 2864   6.310   0.190   2.250 -1.1648 -4.3804 -0.7179
    7CHTO   O19 2865   6.311   0.039   2.124  0.4890 -0.2126  0.1367
    7CHTO   H35 2866   6.307  -0.013   2.201  0.6681 -0.5818 -0.0996
    7CHTO   C21 2867   6.329   0.283   2.042 -0.2297  0.3440 -0.4624
    7CHTO   H49 2868   6.356   0.243   1.945 -0.2339  1.5871 -0.9809
    7CHTO    N4 2869   6.189   0.331   2.025  0.4343  0.1958 -0.4531
    7CHTO   H41 2870   6.123   0.255   1.986  1.9313  0.0598 -2.8433
    7CHTO   H42 2871   6.180   0.416   1.959  0.0888 -0.2532 -0.9877
    7CHTO   C22 2872   6.429   0.404   2.066  0.6135 -0.3249 -0.1000
    7CHTO   H50 2873   6.406   0.461   2.156  1.3232  1.2118 -0.8805
    7CHTO   O14 2874   6.565   0.369   2.075 -0.0962 -0.1206 -0.3415
    7CHTO   C23 2875   6.602   0.265   2.170 -1.0102 -0.2897 -0.3957
    7CHTO   H51 2876   6.614   0.308   2.271 -0.6618 -2.5474  0.5541
    7CHTO   C34 2877   6.749   0.241   2.133 -0.5776 -0.1499  0.2534
    7CHTO   O23 2878   6.804   0.131   2.206  0.7267 -0.4998  0.3370
    7CHTO   H38 2879   6.897   0.140   2.207  0.7897 -1.0086 -0.0611
    7CHTO   O16 2880   6.434   0.493   1.956 -0.3749 -0.5871  0.1063
    7CHTO   C24 2881   6.453   0.653   1.996 -0.5274  0.3587 -0.5600
    7CHTO   H52 2882   6.459   0.667   2.104 -1.2636  1.3987 -0.6473
    7CHTO   C26 2883   6.334   0.741   1.943 -0.3601  0.2185  0.1214
    7CHTO   H54 2884   6.336   0.727   1.833  1.9091  1.4901 -0.0276
    7CHTO   O20 2885   6.215   0.681   1.996 -0.4085 -0.8782 -0.1903
    7CHTO   H36 2886   6.142   0.712   1.946  0.2847  0.9031 -0.1155
    7CHTO   C30 2887   6.354   0.894   1.978  0.5767  0.1666  0.4217
    7CHTO   H58 2888   6.334   0.905   2.086  0.6097  2.9138  0.1756
    7CHTO    N6 2889   6.250   0.980   1.915  0.1334 -0.1943  0.3320
    7CHTO   H45 2890   6.255   0.998   1.808 -0.5034 -0.4932  0.2491
    7CHTO   H46 2891   6.151   0.950   1.944  0.3073  1.3139  2.5879
    7CHTO   C33 2892   6.500   0.946   1.939  0.4222 -0.3193 -0.2651
    7CHTO   H61 2893   6.501   0.957   1.830 -2.7734  0.3998 -0.2838
    7CHTO   O18 2894   6.593   0.850   1.977 -0.4671 -0.2576  0.0053
    7CHTO   C28 2895   6.587   0.716   1.927  0.2675 -0.0733  0.0855
    7CHTO   H56 2896   6.573   0.710   1.819 -0.7044  0.4863  0.1777
    7CHTO   C35 2897   6.720   0.645   1.979 -0.0584 -0.2604  0.0725
    7CHTO   O24 2898   6.833   0.689   1.901  0.0853 -0.1096  0.2479
    7CHTO   H39 2899   6.854   0.776   1.929 -1.4069  0.1420  0.6427
    7CHTO    O9 2900   6.529   1.079   1.993 -0.4996 -0.0043 -0.0027
    7CHTO   C13 2901   6.651   1.146   1.919  0.1059 -0.5034 -0.3843
    7CHTO   H26 2902   6.655   1.092   1.822  0.7692  0.5925 -0.9730
    7CHTO   C11 2903   6.783   1.123   2.004 -0.3411 -0.4245 -0.1546
    7CHTO   H24 2904   6.796   1.015   2.023 -1.4965 -0.3159  1.3604
    7CHTO    O8 2905   6.766   1.177   2.137 -0.0478 -0.3107 -0.0542
    7CHTO    H3 2906   6.821   1.253   2.144 -0.0016 -0.4234  0.8412
    7CHTO    C9 2907   6.901   1.192   1.926 -0.1711 -0.1282  0.0783
    7CHTO   H22 2908   6.903   1.146   1.826 -0.8076  1.2466 -0.5931
    7CHTO    N2 2909   7.032   1.157   1.991 -0.8401 -0.4093  0.2017
    7CHTO   H10 2910   7.015   1.141   2.096  2.6991  0.9253  1.0537
    7CHTO   H11 2911   7.079   1.071   1.945 -1.5965 -0.6487 -0.1252
    7CHTO    C7 2912   6.876   1.345   1.911 -0.5027  0.0226 -0.2595
    7CHTO   H20 2913   6.965   1.383   1.856  0.3694 -0.4573  0.7977
    7CHTO    O4 2914   6.756   1.369   1.832 -0.3899  0.4831  0.0806
    7CHTO   C14 2915   6.637   1.301   1.881 -0.0072  0.5649  0.3308
    7CHTO   H27 2916   6.566   1.310   1.797  0.7502  2.4398 -0.1271
    7CHTO   C18 2917   6.575   1.370   2.004 -0.1963  0.0157 -0.0490
    7CHTO   O13 2918   6.519   1.493   1.981 -0.0456 -0.1657 -0.2576
    7CHTO    H7 2919   6.566   1.539   1.915 -0.1038 -0.4718 -0.5145
    7CHTO    O2 2920   6.872   1.428   2.053  0.6208  0.1994  0.0543
    7CHTO    C1 2921   6.951   1.547   2.087  0.1888  0.2432  0.2341
    7CHTO   H14 2922   6.915   1.630   2.023  0.8330 -0.1326 -0.6285
    7CHTO    C2 2923   7.109   1.540   2.066  0.1582 -0.4990 -0.6026
    7CHTO   H15 2924   7.130   1.448   2.122 -1.5547 -0.9929 -0.7272
    7CHTO    O6 2925   7.149   1.523   1.934  0.4375 -0.3295  0.3977
    7CHTO    H1 2926   7.242   1.515   1.927  0.4221  0.3300 -0.7351
    7CHTO    C3 2927   7.186   1.671   2.128 -0.0949  0.1682 -0.4936
    7CHTO   H16 2928   7.155   1.749   2.057  1.7964 -0.5075 -2.1078
    7CHTO    N1 2929   7.331   1.670   2.116  0.5644 -0.1330 -0.4464
    7CHTO    H8 2930   7.375   1.622   2.202 -1.9179 -1.9463 -0.1528
    7CHTO    H9 2931   7.365   1.625   2.024  1.8170  0.4769 -0.3022
    7CHTO    C4 2932   7.135   1.709   2.270  0.5800 -0.4381 -0.4389
    7CHTO   H17 2933   7.162   1.630   2.339 -0.0779 -1.6432 -1.5390
    7CHTO    O1 2934   6.992   1.712   2.271  0.2661  0.2367 -0.2322
    7CHTO    C5 2935   6.924   1.586   2.233  0.3664 -0.1297 -0.6109
    7CHTO   H18 2936   6.959   1.515   2.308  2.0378  1.3911  0.1108
    7CHTO   C16 2937   6.774   1.602   2.263  0.2406  0.1374 -0.5142
    7CHTO   O11 2938   6.760   1.617   2.401 -0.2180  0.4355 -0.0056
    7CHTO    H5 2939   6.777   1.705   2.429 -0.5748 -0.3554  2.8327
    7CHTO    O3 2940   7.161   1.849   2.294 -0.0465  0.3131 -0.1875
    7CHTO    C6 2941   7.237   1.873   2.411  0.6835 -0.1099 -0.3897
    7CHTO   H19 2942   7.298   1.788   2.442  0.1206 -0.9880 -1.6421
    7CHTO    C8 2943   7.342   1.989   2.380  0.0659 -0.5572  0.0596
    7CHTO   H21 2944   7.290   2.066   2.322  1.2275 -0.0271 -0.2935
    7CHTO    O7 2945   7.446   1.939   2.296 -0.1498 -0.3418  0.6822
    7CHTO    H2 2946   7.474   1.860   2.338 -2.2752 -1.3699  0.2869
    7CHTO   C12 2947   7.400   2.056   2.506  0.1054  0.9253  0.1863
    7CHTO   H25 2948   7.481   1.987   2.535 -0.6886  0.2331  0.7903
    7CHTO    N3 2949   7.460   2.198   2.475 -0.1430  0.6456  0.4736
    7CHTO   H12 2950   7.525   2.198   2.389 -0.5303 -0.3562  0.1735
    7CHTO   H13 2951   7.516   2.231   2.562  1.3258  2.1522 -1.0068
    7CHTO   C15 2952   7.292   2.059   2.628  0.1046 -0.8692  0.1487
    7CHTO   H28 2953   7.225   2.145   2.627  0.4215 -0.6177 -2.0054
    7CHTO   O10 2954   7.363   2.048   2.770 -0.3248  0.2973  0.2047
    7CHTO    H4 2955   7.304   2.082   2.835 -0.3001  1.9893 -0.6129
    7CHTO    O5 2956   7.217   1.939   2.632 -0.0102  0.1093  0.6932
    7CHTO   C10 2957   7.138   1.912   2.518  0.1184  0.4081 -0.2154
    7CHTO   H23 2958   7.089   2.007   2.496  1.3210  1.6532  2.3163
    7CHTO   C17 2959   7.034   1.806   2.571  0.4052  0.0913  0.3805
    7CHTO   O12 2960   6.938   1.853   2.665 -0.0327 -0.1645  0.1545
    7CHTO    H6 2961   6.876   1.903   2.616  1.9589  1.3580 -0.8710
    8CHTO  H203 2962   7.250   8.156   1.145 -1.8240 -1.3312 -0.2970
    8CHTO   O82 2963   7.199   8.234   1.130  0.0040 -0.0206  0.0431
    8CHTO  C123 2964   7.119   8.250   1.249  0.6006  0.1644 -0.3842
    8CHTO  H227 2965   7.184   8.247   1.337 -0.6355 -0.5523  0.5185
    8CHTO   O77 2966   7.070   8.384   1.226 -0.3739  0.0325 -0.0951
    8CHTO  C118 2967   6.979   8.440   1.326 -0.3793  0.1145 -0.7525
    8CHTO  H222 2968   7.022   8.463   1.424  0.2475 -2.6569 -0.3452
    8CHTO  C125 2969   6.926   8.573   1.253  0.1115 -0.3298 -0.5492
    8CHTO   O84 2970   6.880   8.665   1.354 -0.3683  0.3928  0.1954
    8CHTO  H205 2971   6.893   8.753   1.325 -1.4238  0.7636  0.8239
    8CHTO  C114 2972   6.854   8.354   1.345 -0.4349  0.2826 -0.6254
    8CHTO  H218 2973   6.801   8.346   1.250 -0.2894  1.1557 -0.7838
    8CHTO  C116 2974   6.901   8.206   1.378 -0.1989 -0.6186  0.0222
    8CHTO  H220 2975   6.958   8.209   1.473  1.5733 -0.4791 -1.0227
    8CHTO   O79 2976   6.778   8.137   1.396  0.1148  0.1074 -0.2740
    8CHTO  H201 2977   6.796   8.045   1.396 -0.6242 -0.0392 -0.9574
    8CHTO  C120 2978   6.996   8.158   1.258  0.8826 -0.1552  0.0178
    8CHTO  H224 2979   6.932   8.155   1.167  2.6331  1.9129 -1.3420
    8CHTO   N21 2980   7.044   8.015   1.278 -0.1169 -0.2317  0.5848
    8CHTO  H211 2981   6.971   7.954   1.328 -0.3185 -0.8929 -0.5107
    8CHTO  H212 2982   7.146   8.007   1.311 -0.2274  0.6389  1.1529
    8CHTO   O75 2983   6.775   8.412   1.445  0.3398  0.2786 -0.5704
    8CHTO  C112 2984   6.612   8.427   1.407  0.4410 -0.1855  0.9190
    8CHTO  H216 2985   6.579   8.340   1.349 -2.1432  2.0075 -0.9767
    8CHTO   O73 2986   6.596   8.551   1.334  0.4430 -0.0472  0.0568
    8CHTO  C113 2987   6.461   8.582   1.291 -0.3267  0.0274  0.1728
    8CHTO  H217 2988   6.426   8.500   1.225 -0.1367  0.1361 -0.0617
    8CHTO  C124 2989   6.457   8.711   1.208  0.4936 -0.5446  0.0109
    8CHTO   O83 2990   6.534   8.703   1.088  0.0785 -0.6184 -0.4691
    8CHTO  H204 2991   6.542   8.792   1.058  0.3031 -0.1885  0.8082
    8CHTO  C109 2992   6.369   8.591   1.417  0.1320 -0.2006 -0.6265
    8CHTO  H213 2993   6.408   8.674   1.477 -1.3917  0.5429 -0.6445
    8CHTO  C110 2994   6.380   8.457   1.496 -0.1558  0.3501  0.1539
    8CHTO  H214 2995   6.353   8.378   1.426 -0.2044 -0.1302  0.7063
    8CHTO   O78 2996   6.295   8.476   1.609  0.3565 -0.0185  0.2602
    8CHTO  H200 2997   6.339   8.527   1.673  3.6350 -0.8142 -1.2805
    8CHTO  C111 2998   6.528   8.432   1.538  0.2179  0.2811 -0.1247
    8CHTO  H215 2999   6.565   8.514   1.601  0.3696  0.2887 -0.2251
    8CHTO   N19 3000   6.545   8.306   1.619 -0.0599  0.0966  0.3298
    8CHTO  H207 3001   6.494   8.314   1.714  0.4990 -0.7393  0.6993
    8CHTO  H208 3002   6.478   8.230   1.582  0.5795 -0.6122  0.6058
    8CHTO   O74 3003   6.230   8.614   1.383 -0.3563  0.1037 -0.3030
    8CHTO  C115 3004   6.155   8.508   1.300  0.3085  0.3155 -0.2099
    8CHTO  H219 3005   6.223   8.437   1.253 -0.7109  0.3081 -1.7027
    8CHTO   O76 3006   6.061   8.410   1.398  0.4859  0.0029 -0.4265
    8CHTO  C122 3007   5.950   8.471   1.461  0.0537  0.0619 -0.4163
    8CHTO  H226 3008   5.991   8.536   1.538 -0.9994  0.2583 -0.0014
    8CHTO  C126 3009   5.876   8.365   1.547 -0.3002 -0.1847  0.5751
    8CHTO   O85 3010   5.961   8.305   1.644 -0.2640  0.3829 -0.9628
    8CHTO  H206 3011   6.003   8.369   1.698 -2.0415  1.1653 -0.4928
    8CHTO  C121 3012   5.861   8.547   1.359 -0.1485  0.7537 -0.0401
    8CHTO  H225 3013   5.817   8.467   1.295 -0.1421  1.1356 -0.5235
    8CHTO   O81 3014   5.751   8.624   1.416 -0.6714  0.5473 -0.4011
    8CHTO  H202 3015   5.683   8.565   1.444 -0.3684 -0.5831 -1.9012
    8CHTO  C119 3016   5.939   8.651   1.265 -0.6503 -0.0231 -0.7064
    8CHTO  H223 3017   5.869   8.679   1.185 -1.7054  1.3516  0.6688
    8CHTO  C117 3018   6.065   8.579   1.186  0.5071  0.3579  0.0740
    8CHTO  H221 3019   6.122   8.662   1.145  0.5442  0.3084  0.0259
    8CHTO   N20 3020   6.019   8.491   1.072 -0.0478 -0.0214 -0.2992
    8CHTO  H209 3021   6.078   8.400   1.072 -0.1202 -0.0829 -1.4143
    8CHTO  H210 3022   6.041   8.549   0.983  0.0212 -0.9569 -0.9040
    8CHTO   O80 3023   5.965   8.808   1.329 -0.2157  0.3489  0.4914
    8CHTO  C103 3024   5.869   8.923   1.308 -0.7932  0.1483  0.0363
    8CHTO  H190 3025   5.770   8.889   1.278 -1.2326  1.8214 -0.4975
    8CHTO  C101 3026   5.859   9.027   1.434 -0.3135 -0.4063  0.1743
    8CHTO  H188 3027   5.958   9.057   1.468  0.4794 -0.9769 -1.5550
    8CHTO   O68 3028   5.784   8.966   1.548 -0.4344  0.6187 -0.3826
    8CHTO  H168 3029   5.747   9.022   1.613  2.3522  1.0936  0.8468
    8CHTO   C99 3030   5.792   9.167   1.393 -0.2439 -0.1630 -0.8455
    8CHTO  H186 3031   5.686   9.142   1.368 -0.4932  0.5945 -0.5713
    8CHTO   N17 3032   5.779   9.277   1.502 -0.2111  0.3468 -0.9380
    8CHTO  H174 3033   5.697   9.264   1.571  0.1898  0.5585 -0.4253
    8CHTO  H175 3034   5.795   9.379   1.470  1.3203  0.4561  0.1647
    8CHTO   C97 3035   5.856   9.224   1.260  0.0895  0.5871 -0.5743
    8CHTO  H184 3036   5.961   9.252   1.278  0.3132 -0.1391 -0.7203
    8CHTO   O64 3037   5.845   9.124   1.162 -0.2430 -0.0513  0.0831
    8CHTO  C104 3038   5.930   9.007   1.187  0.3328 -0.5050 -0.1963
    8CHTO  H191 3039   6.034   9.029   1.211  0.6946 -2.2159 -0.1176
    8CHTO  C108 3040   5.939   8.921   1.054  0.2095 -0.1154 -1.0093
    8CHTO   O71 3041   5.811   8.874   1.002 -0.3114  0.5038  0.3624
    8CHTO  H171 3042   5.767   8.948   0.966 -0.0044  0.5855  0.1520
    8CHTO   O62 3043   5.778   9.327   1.195  0.0988  0.5374  0.0557
    8CHTO   C91 3044   5.851   9.420   1.111 -0.1048  0.0395  0.3124
    8CHTO  H178 3045   5.948   9.377   1.084  0.3143  1.3884 -0.3774
    8CHTO   C92 3046   5.860   9.549   1.197  0.2628 -0.1767  0.9831
    8CHTO  H179 3047   5.765   9.582   1.242 -0.0585 -0.5394  0.5849
    8CHTO   O66 3048   5.946   9.524   1.302  0.1373 -0.6167  0.4089
    8CHTO  H166 3049   5.906   9.472   1.369 -2.0689  0.8201  0.2492
    8CHTO   C93 3050   5.916   9.668   1.110  0.2050  1.3041 -0.6027
    8CHTO  H180 3051   6.023   9.649   1.091  0.5440  2.8447 -0.3054
    8CHTO   N16 3052   5.904   9.802   1.175  0.3216  0.0138  0.1726
    8CHTO  H172 3053   6.001   9.847   1.184  0.5377 -0.4493  0.1775
    8CHTO  H173 3054   5.857   9.793   1.272 -0.5438  0.9322 -0.1526
    8CHTO   C94 3055   5.834   9.674   0.976  0.1592  0.1474  0.7541
    8CHTO  H181 3056   5.728   9.698   0.991 -0.7330 -2.6751 -0.7166
    8CHTO   O61 3057   5.840   9.551   0.911 -0.3701  0.1132 -0.0510
    8CHTO   C95 3058   5.770   9.441   0.974 -0.6605 -0.5738 -0.1347
    8CHTO  H182 3059   5.670   9.480   0.991 -0.1497  0.9043 -0.4309
    8CHTO  C106 3060   5.755   9.311   0.883  0.8050  0.4986  0.0545
    8CHTO   O69 3061   5.727   9.351   0.743  0.1730 -0.5873  0.2845
    8CHTO  H169 3062   5.633   9.359   0.742  0.3013  1.2188  1.3656
    8CHTO   O63 3063   5.902   9.779   0.855 -0.0366 -0.5784 -0.0912
    8CHTO   C96 3064   5.823   9.787   0.713  0.5196  0.2916 -0.2919
    8CHTO  H183 3065   5.768   9.695   0.695  0.1163  0.7504 -1.5052
    8CHTO   C98 3066   5.919   9.807   0.596  0.6243 -0.2226  0.4905
    8CHTO  H185 3067   5.975   9.899   0.618 -0.5251  0.1971  1.7546
    8CHTO   O67 3068   6.013   9.701   0.599 -0.2043 -0.1249 -0.9326
    8CHTO  H167 3069   6.060   9.691   0.518 -1.9181 -1.4802 -1.7770
    8CHTO  C102 3070   5.847   9.811   0.453 -0.2859 -0.0249 -0.1394
    8CHTO  H189 3071   5.814   9.707   0.437  0.1021  0.0511 -1.4184
    8CHTO   N18 3072   5.932   9.841   0.336 -0.6828 -0.3901 -0.2665
    8CHTO  H176 3073   5.993   9.929   0.345 -1.1445 -0.1781  0.9120
    8CHTO  H177 3074   5.998   9.760   0.309 -0.0012 -0.3638  1.2479
    8CHTO  C105 3075   5.720   9.900   0.463  0.1739  0.0456  0.3148
    8CHTO  H192 3076   5.748  10.006   0.456 -2.7913  0.9177  1.1206
    8CHTO   O65 3077   5.643   9.897   0.575  0.0236  0.0067 -0.2906
    8CHTO  C100 3078   5.715   9.900   0.705  0.1524 -0.4215  1.1644
    8CHTO  H187 3079   5.768   9.996   0.698  1.3237 -1.1903 -1.5363
    8CHTO  C107 3080   5.624   9.899   0.820 -0.1585  0.1726  0.0834
    8CHTO   O70 3081   5.670   9.961   0.936 -0.5409  0.0033 -0.2547
    8CHTO  H170 3082   5.600   9.960   0.999 -2.6326  0.7150 -2.4934
    8CHTO   O57 3083   5.618   9.860   0.338 -0.7142 -0.2655 -0.2080
    8CHTO   C85 3084   5.564   9.952   0.243  0.1717 -0.2501 -0.3295
    8CHTO  H157 3085   5.647  10.004   0.189  1.2062 -0.0168  1.4462
    8CHTO   C83 3086   5.474  10.060   0.323 -0.3254 -0.1714  0.2331
    8CHTO  H155 3087   5.544  10.106   0.392  0.5044 -2.4574  0.9541
    8CHTO   O56 3088   5.379   9.991   0.405  0.5147 -0.1880  0.4154
    8CHTO  H135 3089   5.341  10.045   0.471  1.0592  0.2085  0.4026
    8CHTO   C81 3090   5.405  10.161   0.227 -0.1397 -0.8742  0.3944
    8CHTO  H153 3091   5.480  10.207   0.163 -0.8539  1.2707  1.0341
    8CHTO   N14 3092   5.345  10.279   0.289  0.5647 -0.6270  0.1124
    8CHTO  H141 3093   5.392  10.364   0.245  0.5340 -0.6846 -0.0322
    8CHTO  H142 3094   5.364  10.285   0.394  0.3216  1.6683  0.0508
    8CHTO   C79 3095   5.312  10.080   0.135 -0.0922  0.3817  0.0106
    8CHTO  H151 3096   5.269  10.146   0.060 -3.0578  0.5592  1.7885
    8CHTO   O52 3097   5.396   9.983   0.057 -0.0572 -0.4046 -0.5050
    8CHTO   C86 3098   5.465   9.885   0.143  0.6676 -0.1166 -0.5263
    8CHTO  H158 3099   5.385   9.829   0.195  0.2641  0.2180 -0.7874
    8CHTO   C90 3100   5.539   9.788   0.053  0.8485  0.0026  0.0858
    8CHTO   O60 3101   5.459   9.715  -0.036  0.6626 -0.1218 -0.1304
    8CHTO  H138 3102   5.385   9.686   0.015  0.1009 -0.9511 -1.3808
    8CHTO   O50 3103   5.199  10.016   0.197 -0.0457 -0.0546 -0.0747
    8CHTO   C73 3104   5.064   9.978   0.192 -0.3305  0.1715 -0.5102
    8CHTO  H145 3105   5.032   9.930   0.098  0.0366 -2.0218  0.4682
    8CHTO   C74 3106   4.972  10.102   0.215  0.5842  0.3098  0.4254
    8CHTO  H146 3107   4.996  10.165   0.128 -2.0707  0.8199  0.0275
    8CHTO   O54 3108   4.839  10.050   0.185 -0.3030  0.3346 -0.1752
    8CHTO  H133 3109   4.792  10.005   0.253 -0.0097 -0.4220 -0.4726
    8CHTO   C75 3110   4.992  10.171   0.350 -0.2683  0.3015  0.1013
    8CHTO  H147 3111   5.089  10.222   0.354 -0.2978  0.4007 -0.4445
    8CHTO   N13 3112   4.895  10.273   0.392 -0.4746  0.3552  0.2977
    8CHTO  H139 3113   4.817  10.232   0.455 -3.0556  2.5402 -1.3764
    8CHTO  H140 3114   4.936  10.355   0.451  1.1200 -0.6674  0.6394
    8CHTO   C76 3115   4.998  10.057   0.463  0.5932 -0.2448 -0.1749
    8CHTO  H148 3116   4.896  10.026   0.486  0.2746 -1.4027 -2.9622
    8CHTO   O49 3117   5.085   9.941   0.426 -0.1121 -0.4275  0.0405
    8CHTO   C77 3118   5.044   9.878   0.305  0.0554  0.2786 -0.6467
    8CHTO  H149 3119   4.939   9.850   0.317  0.0284  1.5400  2.4643
    8CHTO   C88 3120   5.136   9.751   0.296  0.0485  1.1167  0.2824
    8CHTO   O58 3121   5.134   9.695   0.185 -0.3029  0.2406 -0.5641
    8CHTO  H136 3122   5.205   9.724   0.132  0.1975  0.4292  0.2055
    8CHTO   O51 3123   5.072  10.119   0.581 -0.0938 -0.1397 -0.2621
    8CHTO   C78 3124   5.071  10.018   0.724 -0.2179  0.1505 -0.1446
    8CHTO  H150 3125   5.055   9.911   0.701 -1.4971 -0.1286  1.9306
    8CHTO   C80 3126   4.966  10.060   0.820  0.6148  0.1466 -0.3947
    8CHTO  H152 3127   4.987  10.161   0.860  1.8235 -1.0054  1.9539
    8CHTO   O55 3128   4.841  10.062   0.746  0.8477  0.0076 -0.4256
    8CHTO  H134 3129   4.847  10.142   0.699 -2.6393  1.9373  2.1554
    8CHTO   C84 3130   4.972   9.969   0.949  0.3748  0.1585  0.1121
    8CHTO  H156 3131   4.952   9.867   0.917  1.5197  0.2330 -0.8730
    8CHTO   N15 3132   4.861  10.008   1.041  0.0997  0.1915  0.0438
    8CHTO  H143 3133   4.776   9.944   1.028  1.9636 -1.9977 -1.7503
    8CHTO  H144 3134   4.827  10.109   1.031  0.0401  0.4514  2.4741
    8CHTO   C87 3135   5.108   9.987   1.019 -0.5540  0.6854  0.5653
    8CHTO  H159 3136   5.121  10.091   1.049  1.1471  1.8452 -3.7312
    8CHTO   O53 3137   5.212   9.948   0.910  0.0784  0.1043 -0.2760
    8CHTO   C82 3138   5.204  10.043   0.799 -0.7382  0.4820  0.3623
    8CHTO  H154 3139   5.219  10.148   0.823 -1.2024  1.1194 -1.9903
    8CHTO   C89 3140   5.326  10.001   0.710 -0.3451 -0.3327 -0.5082
    8CHTO   O59 3141   5.304   9.866   0.656 -0.0707  0.3965 -0.3808
    8CHTO  H137 3142   5.249   9.863   0.580  1.1743 -0.9131 -1.2606
    8CHTO   O45 3143   5.120   9.892   1.156 -0.5597  0.4850  0.3427
    8CHTO   C67 3144   5.158   9.755   1.122 -0.3904 -0.8701  0.4364
    8CHTO  H124 3145   5.139   9.735   1.017 -1.2741  1.8494  0.0415
    8CHTO   C65 3146   5.305   9.730   1.150 -0.3016  1.2509 -0.1025
    8CHTO  H122 3147   5.360   9.824   1.157 -0.2590  1.0955  2.0678
    8CHTO   O44 3148   5.363   9.652   1.039 -0.1027  0.3865  0.0875
    8CHTO  H102 3149   5.448   9.616   1.057  0.1213 -0.9738 -3.3350
    8CHTO   C63 3150   5.334   9.660   1.291 -0.6338 -0.5380  0.2148
    8CHTO  H120 3151   5.282   9.721   1.366  1.1842  0.2227  0.8745
    8CHTO   N11 3152   5.478   9.655   1.348 -0.4091  0.0700  0.3758
    8CHTO  H108 3153   5.467   9.609   1.444 -2.1421 -2.8771 -1.1636
    8CHTO  H109 3154   5.517   9.754   1.356 -0.7905  0.3134 -0.7100
    8CHTO   C61 3155   5.254   9.523   1.286 -0.5461  0.4539  0.3381
    8CHTO  H118 3156   5.236   9.489   1.389  1.9402 -2.3822 -0.1012
    8CHTO   O40 3157   5.126   9.523   1.222 -0.2668 -0.2243  0.3667
    8CHTO   C68 3158   5.071   9.657   1.210 -0.8565  0.3140  0.1347
    8CHTO  H125 3159   5.064   9.701   1.312 -0.0333 -0.5633  0.5845
    8CHTO   C72 3160   4.929   9.640   1.161 -0.3866 -0.7131 -0.3327
    8CHTO   O48 3161   4.928   9.585   1.030  0.1326 -0.0667 -0.0009
    8CHTO  H105 3162   4.911   9.493   1.029  0.3488 -0.1014 -0.3271
    8CHTO   O38 3163   5.329   9.427   1.211 -0.4810  0.1382  0.0615
    8CHTO   C55 3164   5.293   9.296   1.252  0.0028  0.3686  0.4649
    8CHTO  H112 3165   5.192   9.292   1.295 -1.7407 -0.0551 -3.4708
    8CHTO   C56 3166   5.398   9.245   1.352  0.3507 -0.1125  0.5689
    8CHTO  H113 3167   5.488   9.240   1.289 -0.6113 -2.5649 -0.7158
    8CHTO   O42 3168   5.422   9.334   1.467 -0.6994 -0.1952 -0.0999
    8CHTO  H100 3169   5.507   9.325   1.507 -0.4771  0.1054 -0.5112
    8CHTO   C57 3170   5.360   9.096   1.383 -0.4476 -0.2094  0.1960
    8CHTO  H114 3171   5.264   9.109   1.433 -1.8568 -1.0449 -2.2388
    8CHTO   N10 3172   5.468   9.034   1.474  0.0491  0.8119 -0.0538
    8CHTO  H106 3173   5.428   8.958   1.539 -0.1064  1.3052  0.4285
    8CHTO  H107 3174   5.534   8.987   1.403 -0.9941 -0.5753 -0.1269
    8CHTO   C58 3175   5.338   9.015   1.256 -0.1847  0.0536  0.5792
    8CHTO  H115 3176   5.437   9.003   1.207  0.0329 -0.7226  1.2039
    8CHTO   O37 3177   5.257   9.081   1.154 -0.0448  0.2722 -0.8220
    8CHTO   C59 3178   5.290   9.214   1.125  0.3709 -0.1809  0.5588
    8CHTO  H116 3179   5.382   9.213   1.066  0.6293 -0.4998  0.9650
    8CHTO   C70 3180   5.183   9.240   1.020  0.2700 -0.0151  0.1951
    8CHTO   O46 3181   5.176   9.369   0.958 -0.3547 -0.5364 -0.2108
    8CHTO  H103 3182   5.090   9.408   0.958  0.1765  0.6529 -0.8596
    8CHTO   O39 3183   5.283   8.885   1.300 -0.1371 -0.1787  0.0485
    8CHTO   C60 3184   5.144   8.864   1.277  0.7309  0.4376  0.1064
    8CHTO  H117 3185   5.085   8.955   1.283 -1.9389 -1.2321 -0.1321
    8CHTO   C62 3186   5.112   8.813   1.132  0.0774 -0.2451  0.4481
    8CHTO  H119 3187   5.153   8.879   1.053 -2.2877  0.9547  0.1727
    8CHTO   O43 3188   5.154   8.690   1.106 -0.4743 -0.2756  0.3362
    8CHTO  H101 3189   5.118   8.656   1.026 -2.0495 -1.6597  1.5858
    8CHTO   C66 3190   4.951   8.821   1.114  0.7313 -0.2814 -0.2116
    8CHTO  H123 3191   4.916   8.917   1.151 -2.4681 -1.4676 -0.0279
    8CHTO   N12 3192   4.907   8.797   0.978  0.3169 -0.2265  0.3299
    8CHTO  H110 3193   4.891   8.692   0.964 -2.6331  0.4584 -1.9609
    8CHTO  H111 3194   4.819   8.851   0.947  0.4957 -0.3015 -0.3092
    8CHTO   C69 3195   4.884   8.715   1.211  0.0302  0.6672 -0.4365
    8CHTO  H126 3196   4.887   8.617   1.161 -0.1621  0.4336  0.0044
    8CHTO   O41 3197   4.966   8.694   1.352  0.4821 -0.3614  0.6289
    8CHTO   C64 3198   5.091   8.767   1.383 -0.3588  0.1349 -0.2946
    8CHTO  H121 3199   5.174   8.704   1.420 -0.5599  0.9171  1.5700
    8CHTO   C71 3200   5.068   8.860   1.507 -0.0342  0.5456 -0.0412
    8CHTO   O47 3201   5.071   8.778   1.628 -0.5554  0.0661 -0.5315
    8CHTO  H104 3202   5.050   8.830   1.703  0.7409 -0.3647  0.1559
    8CHTO   O34 3203   4.741   8.759   1.238 -0.2514  0.2177  0.4694
    8CHTO   C49 3204   4.651   8.868   1.329 -0.1715  0.1120  1.1244
    8CHTO   H91 3205   4.630   8.811   1.420  2.7983  2.7815  3.6114
    8CHTO   C47 3206   4.515   8.883   1.259  0.1721  0.0625 -0.2624
    8CHTO   H89 3207   4.446   8.930   1.333  1.2010 -0.4995  1.0683
    8CHTO   O33 3208   4.465   8.748   1.236 -0.1535 -0.0971 -0.2437
    8CHTO   H70 3209   4.533   8.690   1.208  2.1940  0.3808  4.1024
    8CHTO   C45 3210   4.543   8.978   1.124 -0.3031 -1.0899 -0.5161
    8CHTO   H87 3211   4.624   8.928   1.070  0.8369 -0.0781  0.2307
    8CHTO    N8 3212   4.425   8.990   1.038 -0.0141  0.0309  0.0004
    8CHTO   H75 3213   4.457   9.027   0.942  0.6489 -0.3087  0.0827
    8CHTO   H76 3214   4.365   8.900   1.039  2.7978 -1.9263 -0.2163
    8CHTO   C43 3215   4.603   9.123   1.165 -0.6417  0.1606  0.6206
    8CHTO   H85 3216   4.642   9.178   1.079  0.4303 -1.3298  0.1279
    8CHTO   O29 3217   4.714   9.098   1.264 -0.5108 -0.4010  0.0609
    8CHTO   C50 3218   4.719   8.998   1.368 -0.4548 -0.8817  0.3329
    8CHTO   H92 3219   4.827   8.981   1.382 -0.2220  0.3408  0.0808
    8CHTO   C54 3220   4.668   9.071   1.492 -0.5503 -0.4362 -0.6311
    8CHTO   O36 3221   4.666   8.990   1.616 -0.0770  0.1709  0.2385
    8CHTO   H72 3222   4.705   8.906   1.600 -0.0159  0.2567 -0.0802
    8CHTO   O27 3223   4.513   9.216   1.224 -0.3838  0.0548  0.1289
    8CHTO   C37 3224   4.467   9.345   1.258  0.4774 -0.1579 -0.4749
    8CHTO   H79 3225   4.419   9.355   1.357  1.2135 -0.6512 -0.0621
    8CHTO   C38 3226   4.579   9.449   1.281  0.0437 -0.4558  0.1836
    8CHTO   H80 3227   4.650   9.444   1.197  1.7489 -0.1921  1.5851
    8CHTO   O31 3228   4.648   9.412   1.401  0.0991 -0.9441  0.2096
    8CHTO   H68 3229   4.740   9.429   1.392  0.2376 -1.4403  0.6623
    8CHTO   C39 3230   4.516   9.594   1.298 -0.2965  0.7272 -0.2946
    8CHTO   H81 3231   4.465   9.602   1.395  0.3831 -0.1663  0.1406
    8CHTO    N7 3232   4.620   9.706   1.321 -0.5646  0.0039  0.1054
    8CHTO   H73 3233   4.626   9.757   1.226 -2.6813 -2.4742 -1.4295
    8CHTO   H74 3234   4.600   9.776   1.400 -0.7822 -0.8860  0.8457
    8CHTO   C40 3235   4.420   9.627   1.177  0.2799 -0.1809 -0.4080
    8CHTO   H82 3236   4.471   9.624   1.081 -0.8317  0.0039 -1.0171
    8CHTO   O26 3237   4.319   9.524   1.187  0.5168  0.1692  0.0788
    8CHTO   C41 3238   4.364   9.389   1.153  0.0571 -0.0018  0.4491
    8CHTO   H83 3239   4.403   9.388   1.051  0.3642 -1.4269  0.5639
    8CHTO   C52 3240   4.238   9.298   1.149  0.4529  0.8310 -0.4665
    8CHTO   O35 3241   4.160   9.327   1.019 -0.0428  0.4828 -0.4322
    8CHTO   H71 3242   4.085   9.272   1.009  0.4946  0.2142 -3.4275
    8CHTO   O28 3243   4.346   9.754   1.197 -0.0627  0.3837  0.1070
    8CHTO   C42 3244   4.267   9.819   1.092  0.0312 -0.1778 -0.5676
    8CHTO   H84 3245   4.226   9.902   1.149  3.0874  0.0348  1.4831
    8CHTO   C44 3246   4.148   9.735   1.032 -0.3913 -0.2787 -0.3036
    8CHTO   H86 3247   4.188   9.638   1.003 -0.9394  0.2215 -2.7752
    8CHTO   O32 3248   4.049   9.709   1.133  0.2430 -0.5203  0.1030
    8CHTO   H69 3249   3.993   9.782   1.149 -0.8181 -0.9645 -1.5388
    8CHTO   C48 3250   4.084   9.795   0.902 -0.8551 -0.4793 -0.1630
    8CHTO   H90 3251   4.022   9.873   0.945 -0.9931 -0.9211  0.4485
    8CHTO    N9 3252   3.985   9.709   0.843  0.4659  0.1387  0.4622
    8CHTO   H77 3253   3.957   9.755   0.750  1.6921  1.4482  0.7249
    8CHTO   H78 3254   4.027   9.615   0.813 -2.0965 -0.0465 -2.7398
    8CHTO   C51 3255   4.191   9.859   0.802  0.1254  0.0531 -0.5788
    8CHTO   H93 3256   4.263   9.789   0.758 -0.2160 -1.7489  1.5983
    8CHTO   O30 3257   4.261   9.955   0.881  0.6409 -0.9812  0.6019
    8CHTO   C46 3258   4.355   9.886   0.986 -0.6433  0.3684 -0.2368
    8CHTO   H88 3259   4.413   9.804   0.944  2.6240  0.7047  3.3483
    8CHTO   C53 3260   4.452   9.997   1.038  0.1158 -0.0338  0.2334
    8CHTO   O72 3261   4.537  10.038   0.930  0.0995 -0.0208 -0.4759
    8CHTO  H199 3262   4.593  10.106   0.962  0.9200 -2.1909  2.8933
    8CHTO   O22 3263   4.137   9.944   0.695 -0.3576 -0.1222 -0.0165
    8CHTO   C31 3264   4.219   9.947   0.574 -0.3639 -0.3544 -0.5121
    8CHTO   H59 3265   4.173  10.026   0.512 -1.6286 -0.8379 -0.2148
    8CHTO   C29 3266   4.371   9.983   0.591  0.0144 -0.2965 -0.4463
    8CHTO   H57 3267   4.415   9.895   0.641 -1.4975 -1.1365 -0.5452
    8CHTO   O21 3268   4.385  10.096   0.676  0.0521 -0.5334  0.1793
    8CHTO   H37 3269   4.312  10.155   0.670 -0.3857 -0.9977  0.8075
    8CHTO   C27 3270   4.444  10.007   0.454  0.6960  0.5371  0.3103
    8CHTO   H55 3271   4.392  10.088   0.400 -0.8887 -0.5177  0.2341
    8CHTO    N5 3272   4.590  10.047   0.463  0.2293  0.1895 -0.1322
    8CHTO   H43 3273   4.605  10.146   0.504 -2.2002  1.1273 -1.3899
    8CHTO   H44 3274   4.626  10.045   0.361  1.7573 -1.5769  0.4253
    8CHTO   C25 3275   4.423   9.880   0.370 -0.2787  0.4909 -0.4159
    8CHTO   H53 3276   4.487   9.800   0.412 -0.8668  0.5382  0.5871
    8CHTO   O17 3277   4.289   9.830   0.368  0.3887  0.2603 -0.4238
    8CHTO   C32 3278   4.208   9.820   0.490 -0.3047 -0.2714  0.0189
    8CHTO   H60 3279   4.237   9.734   0.549 -0.7256 -1.0227 -0.8627
    8CHTO   C36 3280   4.063   9.795   0.454  0.0792 -0.2863 -0.0341
    8CHTO   O25 3281   3.988   9.901   0.391  0.1155  0.5443  0.2241
    8CHTO   H40 3282   3.924   9.927   0.455 -0.2676  3.1256 -1.1680
    8CHTO   O15 3283   4.474   9.893   0.213 -0.0225 -0.6906 -0.7283
    8CHTO   C19 3284   4.520   9.808   0.107 -0.6571 -1.0780  0.0601
    8CHTO   H47 3285   4.448   9.728   0.127 -1.4435 -0.1776  0.8966
    8CHTO   C20 3286   4.507   9.858  -0.036  0.2769 -0.3681  0.4365
    8CHTO   H48 3287   4.541   9.961  -0.048 -0.1927 -0.1811  0.6977
    8CHTO   O19 3288   4.362   9.858  -0.055 -0.2802  0.0577  0.7699
    8CHTO   H35 3289   4.335   9.932  -0.106 -2.2547 -2.5765 -2.1877
    8CHTO   C21 3290   4.568   9.773  -0.159 -0.8712  0.3125 -0.9519
    8CHTO   H49 3291   4.502   9.688  -0.177 -0.0943 -0.2395 -1.2373
    8CHTO    N4 3292   4.578   9.838  -0.289 -0.5865  0.0013  0.4945
    8CHTO   H41 3293   4.499   9.911  -0.296 -1.2100 -0.7883 -1.0973
    8CHTO   H42 3294   4.553   9.760  -0.360 -0.4263 -0.0312  0.4744
    8CHTO   C22 3295   4.704   9.712  -0.113  0.2486  0.2001 -0.4060
    8CHTO   H50 3296   4.790   9.779  -0.121 -0.8743  1.8030  0.6314
    8CHTO   O14 3297   4.693   9.668   0.022 -0.5574  0.3027 -0.4011
    8CHTO   C23 3298   4.666   9.751   0.129 -0.1314  0.5408  0.4051
    8CHTO   H51 3299   4.744   9.828   0.121  0.9466 -0.5733 -0.1852
    8CHTO   C34 3300   4.672   9.664   0.257 -0.1598 -0.2445 -0.4343
    8CHTO   O23 3301   4.808   9.636   0.290  0.1587  0.1106 -0.3544
    8CHTO   H38 3302   4.814   9.625   0.383 -1.2358  0.5723 -0.2020
    8CHTO   O16 3303   4.745   9.594  -0.187  0.8415 -0.2736  0.2296
    8CHTO   C24 3304   4.890   9.560  -0.195  0.4265  0.2134 -0.6257
    8CHTO   H52 3305   4.946   9.605  -0.112 -1.9891  0.2734  1.0328
    8CHTO   C26 3306   4.953   9.605  -0.327  0.4657  0.2338  0.6228
    8CHTO   H54 3307   4.878   9.585  -0.406  2.9807 -0.4236 -1.6295
    8CHTO   O20 3308   4.979   9.741  -0.308 -0.6741  0.1066  0.0373
    8CHTO   H36 3309   5.062   9.768  -0.274 -1.3998  0.9354  1.2141
    8CHTO   C30 3310   5.087   9.532  -0.360  0.5443  0.2510  0.2783
    8CHTO   H58 3311   5.166   9.567  -0.292 -1.2153  2.9812  0.9731
    8CHTO    N6 3312   5.136   9.558  -0.504 -0.0911 -0.2733 -0.0944
    8CHTO   H45 3313   5.234   9.604  -0.514  0.8476 -2.3197 -0.5190
    8CHTO   H46 3314   5.133   9.469  -0.564  0.1025  0.2706 -0.9257
    8CHTO   C33 3315   5.081   9.383  -0.337  0.7437  0.4928 -0.0110
    8CHTO   H61 3316   5.012   9.346  -0.414  0.3566 -0.5896  0.8392
    8CHTO   O18 3317   5.024   9.358  -0.214  0.5974 -0.7940 -0.1197
    8CHTO   C28 3318   4.895   9.410  -0.167 -0.1396 -0.0251 -0.1240
    8CHTO   H56 3319   4.814   9.358  -0.217  0.8524 -0.6694 -1.0799
    8CHTO   C35 3320   4.876   9.391  -0.011 -0.1432  0.1446 -0.0060
    8CHTO   O24 3321   4.969   9.444   0.074 -0.4318 -0.2179  0.0091
    8CHTO   H39 3322   5.049   9.454   0.026 -0.4184  1.6612  0.3652
    8CHTO    O9 3323   5.207   9.308  -0.357  0.7306 -0.3777  0.4624
    8CHTO   C13 3324   5.149   9.153  -0.436 -0.1225 -0.0939  0.4448
    8CHTO   H26 3325   5.052   9.172  -0.486 -0.9101 -2.9442  0.8226
    8CHTO   C11 3326   5.144   9.041  -0.327 -0.1767  0.2223  0.9666
    8CHTO   H24 3327   5.056   9.050  -0.262 -1.6223 -0.0904 -0.9014
    8CHTO    O8 3328   5.265   9.040  -0.253 -0.1249  0.1634 -0.7548
    8CHTO    H3 3329   5.253   9.018  -0.163  1.1821 -0.4960 -0.7435
    8CHTO    C9 3330   5.128   8.905  -0.400  0.1906 -0.0432 -0.4270
    8CHTO   H22 3331   5.035   8.913  -0.457  0.9088 -0.6582 -1.7050
    8CHTO    N2 3332   5.096   8.791  -0.309  0.1401 -0.2515 -0.1522
    8CHTO   H10 3333   5.054   8.833  -0.219 -0.1593 -2.7244  0.9005
    8CHTO   H11 3334   5.183   8.736  -0.276 -0.9225 -1.4282  0.7675
    8CHTO    C7 3335   5.256   8.882  -0.491 -0.5137  0.2714 -0.3384
    8CHTO   H20 3336   5.206   8.836  -0.578 -1.4997  0.7179 -0.0209
    8CHTO    O4 3337   5.327   9.004  -0.528 -0.1859  0.4424  0.3412
    8CHTO   C14 3338   5.252   9.122  -0.560  0.2610  0.1117  0.0588
    8CHTO   H27 3339   5.198   9.104  -0.655  0.4452 -0.7432  0.1034
    8CHTO   C18 3340   5.352   9.237  -0.592  0.1994  0.0140 -0.4374
    8CHTO   O13 3341   5.293   9.337  -0.675  0.0232  0.2140 -0.4478
    8CHTO    H7 3342   5.362   9.375  -0.726  0.7244 -1.8032 -1.0350
    8CHTO    O2 3343   5.369   8.784  -0.396 -0.1135  0.5417 -0.0077
    8CHTO    C1 3344   5.501   8.775  -0.443  0.2095  0.0468  0.4889
    8CHTO   H14 3345   5.540   8.878  -0.458 -1.8588  0.6915 -0.6594
    8CHTO    C2 3346   5.526   8.693  -0.574  1.0136  0.1121 -0.3349
    8CHTO   H15 3347   5.472   8.598  -0.563 -0.4988  0.7160 -2.1977
    8CHTO    O6 3348   5.469   8.761  -0.691  0.2343 -0.3369 -0.1951
    8CHTO    H1 3349   5.378   8.746  -0.707  0.1323 -0.9607  0.8987
    8CHTO    C3 3350   5.680   8.663  -0.615 -0.2826  0.0641 -0.0212
    8CHTO   H16 3351   5.724   8.761  -0.638 -2.0482  1.2854  1.5884
    8CHTO    N1 3352   5.705   8.583  -0.738  0.2153  0.2366  0.3381
    8CHTO    H8 3353   5.808   8.593  -0.770  0.3410 -0.1104  0.6248
    8CHTO    H9 3354   5.684   8.477  -0.728 -0.9067  0.5223  1.1034
    8CHTO    C4 3355   5.755   8.615  -0.486 -0.5102  0.1806  0.0029
    8CHTO   H17 3356   5.717   8.517  -0.455 -2.0491  0.6238 -0.4487
    8CHTO    O1 3357   5.721   8.714  -0.383  0.0513  0.3718 -0.0748
    8CHTO    C5 3358   5.586   8.714  -0.327  0.8041  0.5138 -0.0894
    8CHTO   H18 3359   5.546   8.614  -0.310  0.1391  0.7397 -0.3384
    8CHTO   C16 3360   5.580   8.794  -0.196  0.0341 -0.2390  0.2720
    8CHTO   O11 3361   5.673   8.748  -0.103  0.1553 -0.1214 -0.1954
    8CHTO    H5 3362   5.656   8.802  -0.028  1.5354  3.4243 -2.2933
    8CHTO    O3 3363   5.896   8.603  -0.492  0.2817 -0.0858 -0.0742
    8CHTO    C6 3364   5.964   8.542  -0.384  0.2663  0.4163 -0.4119
    8CHTO   H19 3365   5.900   8.530  -0.296 -0.6184  1.8938 -0.8266
    8CHTO    C8 3366   6.016   8.404  -0.424  0.0442  0.3479 -0.0266
    8CHTO   H21 3367   6.061   8.412  -0.523 -0.7853 -0.4287 -0.4690
    8CHTO    O7 3368   5.901   8.324  -0.441 -0.0117 -0.1227 -0.0488
    8CHTO    H2 3369   5.846   8.362  -0.507  2.1132  0.5360 -1.4859
    8CHTO   C12 3370   6.128   8.342  -0.330 -0.2364 -0.3632  0.9928
    8CHTO   H25 3371   6.077   8.307  -0.238 -1.3503  1.2693  1.0305
    8CHTO    N3 3372   6.187   8.218  -0.386  0.2363 -0.1942 -1.0671
    8CHTO   H12 3373   6.271   8.187  -0.326 -1.7454 -1.8356  0.9392
    8CHTO   H13 3374   6.110   8.144  -0.372 -1.9602  2.1076 -0.4576
    8CHTO   C15 3375   6.229   8.450  -0.285  0.7547 -0.2963  0.1890
    8CHTO   H28 3376   6.315   8.467  -0.351 -0.0345 -0.2350 -0.8334
    8CHTO   O10 3377   6.279   8.402  -0.143  0.2049 -0.4462 -0.0615
    8CHTO    H4 3378   6.355   8.446  -0.111  0.0287 -1.1197  1.2874
    8CHTO    O5 3379   6.166   8.577  -0.248 -0.3718  0.5908  0.6499
    8CHTO   C10 3380   6.086   8.635  -0.346  0.3239 -0.1701  0.4457
    8CHTO   H23 3381   6.156   8.666  -0.423  1.9214 -2.0188  1.1109
    8CHTO   C17 3382   6.036   8.773  -0.291  0.0756  0.1965  0.4900
    8CHTO   O12 3383   6.155   8.856  -0.259  0.8618 -0.6792 -0.1599
    8CHTO    H6 3384   6.128   8.941  -0.231  0.1868 -0.7587 -0.5260
    9CHTO  H203 3385   7.695   4.231   0.711 -1.1478  1.9581 -0.6622
    9CHTO   O82 3386   7.778   4.267   0.686 -0.2191 -0.2682 -0.9669
    9CHTO  C123 3387   7.875   4.182   0.620  0.5513  0.3195  0.1838
    9CHTO  H227 3388   7.846   4.170   0.515 -0.1517  0.0316  0.4075
    9CHTO   O77 3389   7.994   4.266   0.626  0.8317  0.0404  0.2161
    9CHTO  C118 3390   8.120   4.204   0.586 -0.3740 -0.0162  0.4888
    9CHTO  H222 3391   8.116   4.183   0.478 -0.0425 -0.5435  0.5727
    9CHTO  C125 3392   8.244   4.297   0.621  0.2112 -0.1526  0.4477
    9CHTO   O84 3393   8.231   4.425   0.561 -0.4903  0.2833  0.5499
    9CHTO  H205 3394   8.293   4.485   0.597 -1.8144  1.1755  1.3819
    9CHTO  C114 3395   8.143   4.068   0.658  0.1261  0.3381  0.7815
    9CHTO  H218 3396   8.161   4.089   0.764  0.2883  1.2259  0.5826
    9CHTO  C116 3397   8.019   3.981   0.654  0.2112 -0.5689 -0.2581
    9CHTO  H220 3398   8.003   3.956   0.547  0.1563 -2.0987  0.1038
    9CHTO   O79 3399   8.038   3.863   0.721  0.5919 -0.3504 -0.0644
    9CHTO  H201 3400   7.958   3.814   0.716 -0.0365  0.5332  1.3216
    9CHTO  C120 3401   7.891   4.052   0.705 -0.2077 -0.1338 -0.1794
    9CHTO  H224 3402   7.894   4.072   0.814 -1.7327 -0.4793 -0.0718
    9CHTO   N21 3403   7.768   3.965   0.698 -0.2888 -0.0710  0.2920
    9CHTO  H211 3404   7.703   3.995   0.779 -1.1212  1.2300 -0.8339
    9CHTO  H212 3405   7.797   3.862   0.713 -3.2880 -1.0639 -0.4086
    9CHTO   O75 3406   8.256   4.003   0.601 -0.4332 -0.5068  0.1509
    9CHTO  C112 3407   8.238   3.928   0.440 -0.4700  0.1086 -0.0998
    9CHTO  H216 3408   8.153   3.974   0.387 -1.6759 -0.7516  1.0377
    9CHTO   O73 3409   8.223   3.780   0.462 -0.1920 -0.3653  0.0588
    9CHTO  C113 3410   8.209   3.700   0.340 -0.3701  0.1863 -0.4946
    9CHTO  H217 3411   8.119   3.733   0.284  0.7301  1.4170 -1.5645
    9CHTO  C124 3412   8.191   3.554   0.379 -0.5535  0.0119  0.5980
    9CHTO   O83 3413   8.288   3.516   0.473 -0.3472  0.3787  0.0298
    9CHTO  H204 3414   8.245   3.512   0.557 -2.2750  2.3099 -0.8248
    9CHTO  C109 3415   8.337   3.729   0.257  0.2410 -0.4268  0.4650
    9CHTO  H213 3416   8.421   3.682   0.311 -0.3507 -0.6775  1.1729
    9CHTO  C110 3417   8.364   3.878   0.231  0.0667  0.0688 -0.2259
    9CHTO  H214 3418   8.284   3.920   0.170 -1.2193  1.5718  2.4048
    9CHTO   O78 3419   8.482   3.895   0.139 -0.1803 -0.0383 -0.1424
    9CHTO  H200 3420   8.494   3.827   0.075  0.8829  0.8354 -0.8923
    9CHTO  C111 3421   8.370   3.962   0.359 -0.5016 -0.3683 -0.3222
    9CHTO  H215 3422   8.453   3.927   0.422 -1.4007 -0.1440  0.9965
    9CHTO   N19 3423   8.388   4.105   0.341 -0.3447 -0.0925  0.4634
    9CHTO  H207 3424   8.396   4.137   0.238 -0.0645 -2.8829 -0.4160
    9CHTO  H208 3425   8.315   4.160   0.399 -0.0632  2.2326 -1.3519
    9CHTO   O74 3426   8.320   3.658   0.130  0.0411  0.2884  0.6549
    9CHTO  C115 3427   8.456   3.589   0.067 -0.2287  0.6343 -0.4960
    9CHTO  H219 3428   8.542   3.655   0.083 -0.3761  0.5478  0.6435
    9CHTO   O76 3429   8.492   3.452   0.137 -0.2012  0.0006  0.3392
    9CHTO  C122 3430   8.390   3.351   0.120 -0.4748 -0.0935  0.2855
    9CHTO  H226 3431   8.300   3.386   0.171 -0.6140 -0.9061  0.6136
    9CHTO  C126 3432   8.434   3.214   0.189 -0.1110  0.7266 -0.0470
    9CHTO   O85 3433   8.552   3.161   0.129  0.0799 -0.0901 -0.0080
    9CHTO  H206 3434   8.521   3.108   0.057  0.2556 -1.7045  1.0673
    9CHTO  C121 3435   8.359   3.332  -0.038 -0.3612 -0.2455 -0.0349
    9CHTO  H225 3436   8.449   3.289  -0.087  0.8717  1.0287  1.0659
    9CHTO   O81 3437   8.246   3.239  -0.056 -0.3268  0.3093 -0.5437
    9CHTO  H202 3438   8.257   3.201  -0.141  2.3224  0.7276 -0.4245
    9CHTO  C119 3439   8.314   3.467  -0.110  0.4811  0.2407 -0.8088
    9CHTO  H223 3440   8.291   3.440  -0.213 -2.3484 -0.8402  0.0536
    9CHTO  C117 3441   8.422   3.579  -0.090 -0.6120 -0.4262 -0.1214
    9CHTO  H221 3442   8.389   3.679  -0.118  0.8651 -0.4218 -1.9605
    9CHTO   N20 3443   8.553   3.562  -0.169  0.2029 -0.2432  0.2585
    9CHTO  H209 3444   8.612   3.487  -0.119 -0.3500 -0.7227  0.2057
    9CHTO  H210 3445   8.610   3.652  -0.159 -1.2019  0.7479 -0.4607
    9CHTO   O80 3446   8.150   3.524  -0.056  0.0173 -0.0643 -0.1031
    9CHTO  C103 3447   8.065   3.631  -0.149 -0.3539 -0.1284  0.5143
    9CHTO  H190 3448   7.988   3.685  -0.094 -0.5516  0.8771 -0.7188
    9CHTO  C101 3449   8.151   3.742  -0.221  0.0515  0.2590 -0.4065
    9CHTO  H188 3450   8.234   3.691  -0.269  1.1643 -1.0396  2.7277
    9CHTO   O68 3451   8.204   3.836  -0.102  0.7186  0.3592 -0.1879
    9CHTO  H168 3452   8.265   3.788  -0.050  0.3472 -1.6008 -1.5021
    9CHTO   C99 3453   8.059   3.812  -0.330 -0.8351 -0.1931 -0.0657
    9CHTO  H186 3454   7.974   3.865  -0.284 -0.4988 -0.1767  0.5454
    9CHTO   N17 3455   8.145   3.910  -0.408  0.4158  0.0711  0.1969
    9CHTO  H174 3456   8.105   4.010  -0.403  1.3661  0.4227  1.0654
    9CHTO  H175 3457   8.245   3.919  -0.368  0.2758 -2.8319  1.3719
    9CHTO   C97 3458   7.993   3.705  -0.426 -0.4520 -0.5807 -0.5892
    9CHTO  H184 3459   8.074   3.651  -0.477  1.0016  0.3615  0.6547
    9CHTO   O64 3460   7.915   3.615  -0.343 -0.1275 -0.3029 -0.3319
    9CHTO  C104 3461   7.989   3.531  -0.250  0.0817  0.1506  1.0370
    9CHTO  H191 3462   8.066   3.472  -0.300  0.6286  0.5782  1.3726
    9CHTO  C108 3463   7.900   3.433  -0.179 -0.3525  0.1750  0.1307
    9CHTO   O71 3464   7.824   3.496  -0.073  0.2109 -0.5363  0.1824
    9CHTO  H171 3465   7.797   3.428  -0.014  1.1755 -1.6483 -0.6250
    9CHTO   O62 3466   7.899   3.756  -0.519 -0.2757  0.2176  0.1227
    9CHTO   C91 3467   7.917   3.713  -0.655 -0.2023 -0.6467  0.5218
    9CHTO  H178 3468   7.981   3.625  -0.655 -1.6732 -1.7380  2.0128
    9CHTO   C92 3469   8.004   3.813  -0.742 -0.1792 -0.6645  0.8177
    9CHTO  H179 3470   8.104   3.834  -0.703 -0.3391  1.8599 -0.0153
    9CHTO   O66 3471   8.023   3.755  -0.872  0.3172 -0.0281 -0.1711
    9CHTO  H166 3472   8.048   3.665  -0.865 -0.0065 -0.0526  0.8060
    9CHTO   C93 3473   7.930   3.958  -0.758  0.5573  0.2141 -0.1571
    9CHTO  H180 3474   7.948   3.988  -0.863 -0.7954  0.1799 -0.4064
    9CHTO   N16 3475   7.979   4.069  -0.669 -0.3441  0.5695  0.5086
    9CHTO  H172 3476   8.042   4.139  -0.721  0.2230  0.3941  0.9568
    9CHTO  H173 3477   8.035   4.022  -0.589  0.9724  1.2749  0.0175
    9CHTO   C94 3478   7.777   3.944  -0.737 -0.1343 -0.2247  0.2373
    9CHTO  H181 3479   7.748   3.953  -0.633  1.3348 -0.0968  0.6427
    9CHTO   O61 3480   7.732   3.816  -0.781  0.0446 -0.4112  0.7376
    9CHTO   C95 3481   7.778   3.696  -0.719  0.2150  0.2638  0.2403
    9CHTO  H182 3482   7.708   3.668  -0.640 -0.4738 -0.9616 -0.7985
    9CHTO  C106 3483   7.775   3.579  -0.819 -0.0265  1.3126  0.0507
    9CHTO   O69 3484   7.640   3.552  -0.863  0.4384 -0.7240  0.0993
    9CHTO  H169 3485   7.636   3.528  -0.953  0.6014 -2.5882  0.5690
    9CHTO   O63 3486   7.696   4.050  -0.822  0.5750  0.2866 -0.2123
    9CHTO   C96 3487   7.551   4.096  -0.757  1.3251  0.0800  0.8145
    9CHTO  H183 3488   7.551   4.084  -0.649  2.1058 -2.1824  0.6090
    9CHTO   C98 3489   7.424   4.025  -0.812  0.0376  0.2740 -0.1361
    9CHTO  H185 3490   7.414   4.039  -0.921 -0.2950  1.2027  0.0093
    9CHTO   O67 3491   7.447   3.883  -0.790 -0.3652 -0.2582 -0.0900
    9CHTO  H167 3492   7.534   3.861  -0.819 -0.1973  2.4398 -1.7647
    9CHTO  C102 3493   7.284   4.065  -0.739  0.0295 -0.2904 -0.3434
    9CHTO  H189 3494   7.297   4.037  -0.633  1.4915 -0.7179 -0.6254
    9CHTO   N18 3495   7.159   3.996  -0.785 -0.1398  0.2994  0.4605
    9CHTO  H176 3496   7.077   4.049  -0.740 -0.3913  0.4087 -0.1332
    9CHTO  H177 3497   7.157   3.893  -0.752 -0.7596 -0.0438 -0.6342
    9CHTO  C105 3498   7.277   4.217  -0.742 -0.7110 -0.0337  0.1853
    9CHTO  H192 3499   7.238   4.242  -0.840  1.0160 -0.8255 -0.7120
    9CHTO   O65 3500   7.402   4.282  -0.706  0.1835  0.3514  0.0005
    9CHTO  C100 3501   7.514   4.248  -0.784 -0.7175  0.2410 -0.2250
    9CHTO  H187 3502   7.491   4.256  -0.891  0.1360  4.4533 -0.1567
    9CHTO  C107 3503   7.630   4.337  -0.747  1.0083 -0.0133 -0.0562
    9CHTO   O70 3504   7.719   4.367  -0.857  0.5137  0.4541  0.4290
    9CHTO  H170 3505   7.701   4.454  -0.888 -2.0049 -0.4266 -0.7133
    9CHTO   O57 3506   7.176   4.259  -0.618  0.0520 -0.2757  0.3267
    9CHTO   C85 3507   7.124   4.393  -0.645 -0.9827  0.2175  0.0344
    9CHTO  H157 3508   7.114   4.394  -0.756 -0.5090  0.3606 -0.0075
    9CHTO   C83 3509   7.217   4.508  -0.603  0.2912 -0.0407 -0.0671
    9CHTO  H155 3510   7.314   4.495  -0.649  0.3019 -0.3177  0.0348
    9CHTO   O56 3511   7.242   4.501  -0.468 -0.2860  0.7278  0.2803
    9CHTO  H135 3512   7.333   4.518  -0.453  0.4848 -1.9211 -1.0703
    9CHTO   C81 3513   7.147   4.636  -0.649 -0.2299 -0.4910 -0.3232
    9CHTO  H153 3514   7.118   4.626  -0.753  0.6301  0.3466 -0.6484
    9CHTO   N14 3515   7.253   4.744  -0.659  0.3460 -0.0557 -0.5014
    9CHTO  H141 3516   7.297   4.773  -0.566 -0.4023 -0.6920  0.0601
    9CHTO  H142 3517   7.195   4.823  -0.702  1.2511  0.1376 -1.3824
    9CHTO   C79 3518   7.022   4.668  -0.568  0.0018 -0.3390 -0.9346
    9CHTO  H151 3519   6.977   4.757  -0.610  3.0008  1.6952 -0.0232
    9CHTO   O52 3520   6.927   4.549  -0.577  0.1528  0.2156 -0.0340
    9CHTO   C86 3521   6.987   4.414  -0.574  0.4960 -0.5437  0.4472
    9CHTO  H158 3522   6.991   4.388  -0.466 -2.8747 -0.8427  0.5621
    9CHTO   C90 3523   6.884   4.318  -0.632  0.0663 -0.2076  0.2685
    9CHTO   O60 3524   6.749   4.318  -0.572  0.0398  0.6598  0.2411
    9CHTO  H138 3525   6.713   4.231  -0.578 -2.6862  1.8845 -2.1222
    9CHTO   O50 3526   7.047   4.690  -0.430  0.2002 -0.7646  0.1790
    9CHTO   C73 3527   7.010   4.741  -0.300  0.1066 -0.0236  0.2495
    9CHTO  H145 3528   6.903   4.721  -0.281 -0.3664  0.3600 -1.8902
    9CHTO   C74 3529   7.035   4.894  -0.293  0.2648 -0.0788  0.7378
    9CHTO  H146 3530   6.981   4.931  -0.382 -0.0185 -0.2686  0.8319
    9CHTO   O54 3531   6.969   4.952  -0.179  0.1273  0.8637 -0.0239
    9CHTO  H133 3532   6.891   4.903  -0.164 -0.0598  1.4896  1.1208
    9CHTO   C75 3533   7.192   4.926  -0.309 -0.4497  0.3045 -0.0243
    9CHTO  H147 3534   7.224   4.887  -0.407 -2.4267 -0.8419 -0.2322
    9CHTO   N13 3535   7.237   5.064  -0.309  0.2086 -0.4485 -0.4475
    9CHTO  H139 3536   7.337   5.064  -0.348  0.5723  0.0475  0.4562
    9CHTO  H140 3537   7.179   5.112  -0.387  0.8397  1.0826 -0.0009
    9CHTO   C76 3538   7.267   4.840  -0.199 -0.5776 -0.6474 -0.6759
    9CHTO  H148 3539   7.240   4.887  -0.104  0.8722  2.0775 -1.5451
    9CHTO   O49 3540   7.231   4.702  -0.205 -0.0887  0.0091  0.2921
    9CHTO   C77 3541   7.095   4.673  -0.189  0.2184 -0.1331 -0.2693
    9CHTO  H149 3542   7.058   4.712  -0.095  0.6745  1.7996 -0.8682
    9CHTO   C88 3543   7.062   4.522  -0.200 -0.3517 -0.0277 -0.2588
    9CHTO   O58 3544   6.909   4.482  -0.170 -0.7748  0.1891 -0.0588
    9CHTO  H136 3545   6.887   4.512  -0.084 -2.2081  1.3061 -0.7923
    9CHTO   O51 3546   7.428   4.840  -0.228  0.3999 -0.0702 -0.0878
    9CHTO   C78 3547   7.517   4.795  -0.101 -0.2270 -0.1889  0.3691
    9CHTO  H150 3548   7.452   4.770  -0.014 -0.8344  2.7515  0.7960
    9CHTO   C80 3549   7.602   4.915  -0.053 -0.4885  0.4537  0.8984
    9CHTO  H152 3550   7.674   4.939  -0.134 -0.4887 -2.9029 -0.1435
    9CHTO   O55 3551   7.517   5.032  -0.031 -0.5729  0.1490 -0.0435
    9CHTO  H134 3552   7.463   5.008   0.042 -1.2915 -2.5203 -1.3705
    9CHTO   C84 3553   7.675   4.862   0.076 -0.0830 -0.8670  0.5827
    9CHTO  H156 3554   7.604   4.839   0.156 -1.6409  0.8624 -0.2682
    9CHTO   N15 3555   7.773   4.964   0.137 -1.0794  0.2383 -0.2969
    9CHTO  H143 3556   7.712   5.049   0.162 -0.7677  0.3736  0.0054
    9CHTO  H144 3557   7.849   5.000   0.071  1.0989  2.3107  3.1651
    9CHTO   C87 3558   7.754   4.729   0.057 -0.1909 -0.7438 -0.2203
    9CHTO  H159 3559   7.841   4.746  -0.007  0.6121 -0.8277  0.8338
    9CHTO   O53 3560   7.658   4.620   0.004 -0.0136 -0.4988  0.0205
    9CHTO   C82 3561   7.607   4.666  -0.122  0.0300 -0.6081  0.4324
    9CHTO  H154 3562   7.693   4.692  -0.183 -0.9552  0.8311 -0.3741
    9CHTO   C89 3563   7.538   4.549  -0.193 -0.4630  0.3248  0.3953
    9CHTO   O59 3564   7.514   4.575  -0.332 -0.2809 -0.0578 -0.0940
    9CHTO  H137 3565   7.595   4.568  -0.378 -0.2618  0.5864 -0.1608
    9CHTO   O45 3566   7.817   4.679   0.195  0.3500 -0.1048 -0.2138
    9CHTO   C67 3567   7.879   4.552   0.180  0.0230  0.5970 -0.2637
    9CHTO  H124 3568   7.817   4.486   0.120 -0.4633  0.6004  0.2312
    9CHTO   C65 3569   8.017   4.566   0.104 -0.4916 -0.3952 -0.4569
    9CHTO  H122 3570   8.054   4.667   0.123 -0.2763 -0.4050 -0.8197
    9CHTO   O44 3571   7.994   4.546  -0.033 -0.3288  0.2430  0.7142
    9CHTO  H102 3572   8.074   4.553  -0.080 -0.1633  2.2158  1.2213
    9CHTO   C63 3573   8.135   4.472   0.167  0.3076  0.4479  0.3030
    9CHTO  H120 3574   8.169   4.519   0.259 -1.7191  0.3397  1.1370
    9CHTO   N11 3575   8.260   4.455   0.090 -0.1533  0.0275 -0.0861
    9CHTO  H108 3576   8.331   4.411   0.157  0.2009 -0.2897 -0.6634
    9CHTO  H109 3577   8.304   4.545   0.054 -0.9744  0.6354  0.4090
    9CHTO   C61 3578   8.073   4.331   0.198 -0.5371  0.1909  0.6057
    9CHTO  H118 3579   8.151   4.273   0.248 -1.5258 -1.2745  0.4834
    9CHTO   O40 3580   7.951   4.345   0.287 -0.1770 -0.1497 -0.1164
    9CHTO   C68 3581   7.899   4.478   0.315  0.5787 -0.6074  0.3954
    9CHTO  H125 3582   7.968   4.535   0.380 -0.7772 -0.2025  1.5132
    9CHTO   C72 3583   7.766   4.470   0.396 -0.2812  0.6098  0.4995
    9CHTO   O48 3584   7.664   4.398   0.329  0.6450 -0.2978 -0.2344
    9CHTO  H105 3585   7.694   4.316   0.295  2.8101 -0.3908  1.7656
    9CHTO   O38 3586   8.033   4.256   0.079 -0.2018  0.0917  0.0446
    9CHTO   C55 3587   7.910   4.184   0.066  0.7543 -0.3439  1.0501
    9CHTO  H112 3588   7.830   4.245   0.110 -2.8736 -3.4907 -0.9078
    9CHTO   C56 3589   7.915   4.041   0.129  0.0180  0.5052 -0.0921
    9CHTO  H113 3590   8.003   3.993   0.082 -0.1738  0.0794 -0.0175
    9CHTO   O42 3591   7.939   4.066   0.269  0.2288  0.0108  0.6745
    9CHTO  H100 3592   8.018   4.019   0.287  0.2212 -0.9041 -1.4804
    9CHTO   C57 3593   7.775   3.963   0.117 -0.0143 -0.9368  0.1250
    9CHTO  H114 3594   7.697   4.013   0.174 -0.3931 -2.0946  0.6291
    9CHTO   N10 3595   7.779   3.826   0.177  0.0852  0.1935  0.2949
    9CHTO  H106 3596   7.881   3.792   0.181 -0.1977 -0.6024  0.8457
    9CHTO  H107 3597   7.721   3.757   0.117  1.3150  1.6604 -2.6646
    9CHTO   C58 3598   7.732   3.957  -0.034 -0.4628  0.0998 -0.5486
    9CHTO  H115 3599   7.810   3.903  -0.091  1.4489  0.9650  1.1815
    9CHTO   O37 3600   7.736   4.093  -0.089 -0.4843 -0.0924 -0.2237
    9CHTO   C59 3601   7.859   4.170  -0.080  0.0208  0.1777  0.2670
    9CHTO  H116 3602   7.935   4.120  -0.140 -0.1140  0.9943 -0.6036
    9CHTO   C70 3603   7.833   4.309  -0.135  0.0459 -0.3167  0.3678
    9CHTO   O46 3604   7.777   4.301  -0.269  0.4943  0.1721 -0.1057
    9CHTO  H103 3605   7.751   4.388  -0.290  2.1316  0.6470 -0.1792
    9CHTO   O39 3606   7.594   3.901  -0.062  0.3059 -0.3625  0.7918
    9CHTO   C60 3607   7.589   3.764  -0.105 -0.5434  0.3346 -0.3194
    9CHTO  H117 3608   7.688   3.718  -0.108 -0.5667 -0.0818  3.1037
    9CHTO   C62 3609   7.508   3.681   0.003 -0.2065  0.4651  0.1382
    9CHTO  H119 3610   7.564   3.671   0.098 -1.1758  1.1880  0.7968
    9CHTO   O43 3611   7.378   3.746   0.008  0.1002 -0.0727 -0.3648
    9CHTO  H101 3612   7.338   3.742   0.093 -0.9868  0.5351 -0.8374
    9CHTO   C66 3613   7.489   3.528  -0.048  0.8105  0.0012  0.3352
    9CHTO  H123 3614   7.586   3.482  -0.067  0.1370 -0.5434 -1.9360
    9CHTO   N12 3615   7.422   3.446   0.054 -0.0684 -0.2725  0.0612
    9CHTO  H110 3616   7.489   3.423   0.137  1.8805  1.9117 -0.8312
    9CHTO  H111 3617   7.334   3.498   0.090 -0.6204 -0.6050 -0.8159
    9CHTO   C69 3618   7.422   3.526  -0.183  0.1044  0.3818  0.5039
    9CHTO  H126 3619   7.322   3.574  -0.184  1.0578  2.4475  0.9442
    9CHTO   O41 3620   7.519   3.597  -0.281 -0.9263  0.3446  0.3065
    9CHTO   C64 3621   7.525   3.745  -0.244  0.6059  0.1534 -0.5966
    9CHTO  H121 3622   7.426   3.794  -0.260  1.5328  1.8631 -1.2300
    9CHTO   C71 3623   7.607   3.806  -0.365  0.0829  0.3967  0.1649
    9CHTO   O47 3624   7.647   3.942  -0.349 -0.1323  0.1524  0.4839
    9CHTO  H104 3625   7.574   3.994  -0.320  1.3792  1.9056  1.2171
    9CHTO   O34 3626   7.400   3.369  -0.239  0.1685  0.1706  0.1096
    9CHTO   C49 3627   7.469   3.306  -0.368 -0.6994 -0.4941  0.1113
    9CHTO   H91 3628   7.457   3.370  -0.455  0.2252  1.4072  1.3613
    9CHTO   C47 3629   7.415   3.163  -0.393 -0.3861  0.1929 -0.5869
    9CHTO   H89 3630   7.464   3.121  -0.484 -3.1506 -1.1922 -1.4854
    9CHTO   O33 3631   7.275   3.178  -0.416  0.0806  0.3076  0.3548
    9CHTO   H70 3632   7.251   3.093  -0.447  3.3718 -0.8800  0.8635
    9CHTO   C45 3633   7.454   3.060  -0.270 -0.4474 -0.1450  0.4130
    9CHTO   H87 3634   7.366   3.070  -0.204 -1.9832 -1.5953 -1.3910
    9CHTO    N8 3635   7.460   2.923  -0.324 -0.6281  0.1978 -0.0861
    9CHTO   H75 3636   7.549   2.914  -0.385 -0.4194  2.4877 -0.1834
    9CHTO   H76 3637   7.477   2.842  -0.255  2.1611 -0.7026 -1.7549
    9CHTO   C43 3638   7.575   3.120  -0.183  0.1159  0.3012  0.1010
    9CHTO   H85 3639   7.538   3.203  -0.122  0.4699  0.1524  0.5278
    9CHTO   O29 3640   7.676   3.168  -0.274  0.1790 -0.2908  0.5340
    9CHTO   C50 3641   7.626   3.274  -0.355  0.7969 -0.2683  0.6974
    9CHTO   H92 3642   7.670   3.364  -0.311  1.0451 -0.4212  0.7628
    9CHTO   C54 3643   7.693   3.275  -0.498  0.4466  0.2203 -0.0062
    9CHTO   O36 3644   7.723   3.411  -0.531  0.3851  0.0342 -0.1109
    9CHTO   H72 3645   7.783   3.447  -0.468 -0.4003  0.0399  0.6430
    9CHTO   O27 3646   7.625   3.018  -0.092 -0.3079  0.9222  0.4112
    9CHTO   C37 3647   7.687   3.036   0.038 -0.0741  0.0137  0.1523
    9CHTO   H79 3648   7.742   2.945   0.064 -1.8949 -1.1684 -0.0191
    9CHTO   C38 3649   7.782   3.159   0.050  0.3262 -0.8543 -0.0938
    9CHTO   H80 3650   7.729   3.243   0.003  0.8312 -0.8504 -0.6680
    9CHTO   O31 3651   7.899   3.136  -0.031  0.1863  0.4905  0.3999
    9CHTO   H68 3652   7.969   3.108   0.024 -0.4431  1.7167  1.9074
    9CHTO   C39 3653   7.833   3.190   0.199 -0.2465 -0.0807 -0.0153
    9CHTO   H81 3654   7.893   3.108   0.240 -0.0624  0.7536  1.4288
    9CHTO    N7 3655   7.915   3.311   0.215 -0.2688 -0.1142  0.1354
    9CHTO   H73 3656   7.876   3.385   0.147  0.1675 -0.6709 -0.7294
    9CHTO   H74 3657   7.933   3.345   0.316  1.3332 -0.4768 -0.0153
    9CHTO   C40 3658   7.701   3.204   0.287 -0.0778 -0.1501  0.3529
    9CHTO   H82 3659   7.639   3.285   0.248  0.7220 -0.4272 -1.5777
    9CHTO   O26 3660   7.633   3.082   0.285  0.2147 -0.0360  0.1311
    9CHTO   C41 3661   7.574   3.057   0.149 -0.3017 -0.3585  0.6186
    9CHTO   H83 3662   7.504   3.136   0.118 -0.3533  0.4313  2.7047
    9CHTO   C52 3663   7.490   2.932   0.163  0.7101  0.2525 -0.2827
    9CHTO   O35 3664   7.582   2.796   0.235  0.3376 -0.2752 -0.9132
    9CHTO   H71 3665   7.512   2.739   0.260  0.5355 -1.2699 -2.5578
    9CHTO   O28 3666   7.720   3.219   0.431  0.6497 -0.5848 -0.3423
    9CHTO   C42 3667   7.627   3.310   0.504 -0.2961 -0.3184  0.1521
    9CHTO   H84 3668   7.655   3.299   0.609  0.8189 -0.9997 -0.1993
    9CHTO   C44 3669   7.474   3.273   0.490  0.7265  0.0893 -0.0694
    9CHTO   H86 3670   7.445   3.277   0.385  0.1949 -1.4381  0.0093
    9CHTO   O32 3671   7.448   3.136   0.538 -0.3877  0.7309  0.3001
    9CHTO   H69 3672   7.365   3.111   0.502  0.3538 -0.4490 -0.6567
    9CHTO   C48 3673   7.373   3.382   0.562 -0.2369  0.5980  0.4891
    9CHTO   H90 3674   7.394   3.380   0.669 -1.4530  4.4444  0.8953
    9CHTO    N9 3675   7.225   3.340   0.538  0.4764  0.1585 -0.1507
    9CHTO   H77 3676   7.226   3.267   0.458 -0.6471 -0.9463  0.8309
    9CHTO   H78 3677   7.159   3.420   0.509  1.6195  0.7706 -1.1286
    9CHTO   C51 3678   7.420   3.527   0.508 -0.0746  0.6184 -0.0358
    9CHTO   H93 3679   7.414   3.520   0.399  0.5772 -0.2375 -0.0191
    9CHTO   O30 3680   7.555   3.551   0.558  0.8594  0.2480  0.1971
    9CHTO   C46 3681   7.648   3.464   0.471  0.2550 -0.0049  0.9276
    9CHTO   H88 3682   7.628   3.478   0.365  0.6989  1.3191  1.0136
    9CHTO   C53 3683   7.794   3.506   0.514 -0.1197  0.3067 -0.4387
    9CHTO   O72 3684   7.832   3.645   0.516  0.3798  0.7535  0.1178
    9CHTO  H199 3685   7.893   3.662   0.585 -0.2676  2.8367  0.1931
    9CHTO   O22 3686   7.333   3.631   0.557 -0.0650 -0.2360 -0.5893
    9CHTO   C31 3687   7.317   3.768   0.483 -0.3723 -0.0107 -0.1059
    9CHTO   H59 3688   7.233   3.820   0.534  0.1584  1.4251 -0.6424
    9CHTO   C29 3689   7.438   3.858   0.502  0.3290  0.0096  1.1392
    9CHTO   H57 3690   7.523   3.804   0.457  0.3336  1.6372 -0.9112
    9CHTO   O21 3691   7.468   3.882   0.644 -0.5879  0.0154 -0.4518
    9CHTO   H37 3692   7.557   3.900   0.668 -0.0675 -0.2925 -2.0705
    9CHTO   C27 3693   7.419   3.999   0.425 -0.5185  0.4361  0.5464
    9CHTO   H55 3694   7.339   4.056   0.474  0.0550  1.2009  0.5941
    9CHTO    N5 3695   7.543   4.080   0.424  0.3659  0.5361  0.1601
    9CHTO   H43 3696   7.636   4.032   0.450 -0.3288 -0.4587  0.8569
    9CHTO   H44 3697   7.540   4.152   0.343  0.4869  1.5434  1.0401
    9CHTO   C25 3698   7.365   3.979   0.279  0.1794 -0.2032 -0.3113
    9CHTO   H53 3699   7.436   3.935   0.208  0.1964 -0.3945 -0.1741
    9CHTO   O17 3700   7.257   3.888   0.276  0.3682 -0.0076 -0.1080
    9CHTO   C32 3701   7.280   3.757   0.340 -0.5083  0.4828  0.0323
    9CHTO   H60 3702   7.367   3.722   0.285  0.0503  0.1019  1.1565
    9CHTO   C36 3703   7.147   3.676   0.325  0.1701  0.2492  0.5225
    9CHTO   O25 3704   7.135   3.596   0.209  0.2081 -0.7006 -0.3422
    9CHTO   H40 3705   7.158   3.508   0.231  1.3966  0.6531  4.2345
    9CHTO   O15 3706   7.312   4.131   0.213 -0.3743  0.4895 -0.9093
    9CHTO   C19 3707   7.271   4.167   0.080  0.0247  0.0308  0.2241
    9CHTO   H47 3708   7.246   4.274   0.076  1.9855  0.4793 -0.4092
    9CHTO   C20 3709   7.380   4.152  -0.030 -0.7208  0.0768  0.3454
    9CHTO   H48 3710   7.426   4.052  -0.031  0.5305  0.6113  2.7007
    9CHTO   O19 3711   7.488   4.249   0.005 -0.1337  0.4788 -0.0174
    9CHTO   H35 3712   7.527   4.247   0.090  0.4943  1.3349 -0.2875
    9CHTO   C21 3713   7.312   4.181  -0.170  0.0915  0.1895 -0.7426
    9CHTO   H49 3714   7.272   4.282  -0.165 -0.4034 -0.0335 -0.1231
    9CHTO    N4 3715   7.407   4.186  -0.279 -0.1890 -0.2024 -0.1348
    9CHTO   H41 3716   7.403   4.100  -0.345 -1.7871  0.1047 -0.4448
    9CHTO   H42 3717   7.402   4.275  -0.340  1.0060  0.0575  0.1352
    9CHTO   C22 3718   7.191   4.083  -0.177  0.4959  0.3353  0.2972
    9CHTO   H50 3719   7.245   3.988  -0.170 -1.4976 -0.7179  2.0149
    9CHTO   O14 3720   7.092   4.114  -0.077 -0.6632 -0.2393 -0.0875
    9CHTO   C23 3721   7.136   4.092   0.055  0.0659  0.2336 -0.2189
    9CHTO   H51 3722   7.143   3.983   0.069  1.5916  0.2808 -0.5649
    9CHTO   C34 3723   7.027   4.144   0.153  0.0960  0.2360 -0.2242
    9CHTO   O23 3724   7.007   4.286   0.135  0.4864  0.2375  0.0727
    9CHTO   H38 3725   7.036   4.329   0.213  1.6957  1.3947 -0.9932
    9CHTO   O16 3726   7.120   4.088  -0.301 -0.2139  0.6578  0.1769
    9CHTO   C24 3727   7.016   3.969  -0.329 -0.6394 -0.5442 -0.7709
    9CHTO   H52 3728   6.991   3.922  -0.234 -1.0885  1.5361  0.1844
    9CHTO   C26 3729   7.071   3.864  -0.424 -0.2796 -0.5911 -0.3506
    9CHTO   H54 3730   7.104   3.913  -0.518  1.5592 -0.3237  0.4237
    9CHTO   O20 3731   7.189   3.810  -0.362 -0.3191  0.0844 -0.3158
    9CHTO   H36 3732   7.222   3.745  -0.421 -1.2507 -0.2513 -0.4819
    9CHTO   C30 3733   6.957   3.762  -0.461 -0.4313 -0.0611 -0.1808
    9CHTO   H58 3734   6.915   3.712  -0.372 -2.9334 -0.9500 -1.8042
    9CHTO    N6 3735   7.003   3.644  -0.540 -0.1619  0.2172  0.4004
    9CHTO   H45 3736   7.086   3.593  -0.493 -1.1026 -0.0596  1.7532
    9CHTO   H46 3737   6.921   3.576  -0.557  0.1863 -0.5518  1.7153
    9CHTO   C33 3738   6.834   3.835  -0.523 -0.2194 -0.2083  0.1470
    9CHTO   H61 3739   6.854   3.890  -0.616 -0.1573 -0.8778 -0.2471
    9CHTO   O18 3740   6.796   3.931  -0.426  0.0355 -0.3447  0.4038
    9CHTO   C28 3741   6.888   4.030  -0.378 -0.9754 -0.4656  0.7008
    9CHTO   H56 3742   6.908   4.090  -0.467  2.1077 -4.1248 -1.2677
    9CHTO   C35 3743   6.825   4.118  -0.269  0.1922 -0.0733 -0.8296
    9CHTO   O24 3744   6.691   4.169  -0.298 -0.1995  0.5731  0.2860
    9CHTO   H39 3745   6.690   4.243  -0.240 -0.2594  0.8497 -0.0624
    9CHTO    O9 3746   6.720   3.758  -0.560  0.2668  0.1055 -0.0297
    9CHTO   C13 3747   6.618   3.822  -0.668 -0.2001  0.0170 -0.3927
    9CHTO   H26 3748   6.682   3.849  -0.755 -0.5311 -1.1914 -1.0238
    9CHTO   C11 3749   6.560   3.956  -0.600  0.0266  0.0517  0.4701
    9CHTO   H24 3750   6.639   4.031  -0.586  1.6354 -1.0870 -2.0822
    9CHTO    O8 3751   6.506   3.929  -0.468 -0.1029 -0.1890 -0.2452
    9CHTO    H3 3752   6.442   3.861  -0.467 -0.2575 -0.0523 -0.6613
    9CHTO    C9 3753   6.465   4.017  -0.708 -0.5495  0.0639 -0.0011
    9CHTO   H22 3754   6.524   4.014  -0.800 -1.2476  2.0109 -0.5455
    9CHTO    N2 3755   6.433   4.160  -0.678 -0.0024  0.3471  0.0204
    9CHTO   H10 3756   6.348   4.195  -0.735 -0.4685 -0.1111  0.4262
    9CHTO   H11 3757   6.516   4.227  -0.691  2.0208 -2.1766 -0.5794
    9CHTO    C7 3758   6.345   3.918  -0.724  0.0109  0.5266 -0.1398
    9CHTO   H20 3759   6.289   3.963  -0.808 -0.5524 -0.5519 -0.3450
    9CHTO    O4 3760   6.382   3.782  -0.746  0.1510 -0.1973  0.1327
    9CHTO   C14 3761   6.510   3.726  -0.710 -0.3052  0.4572 -0.1350
    9CHTO   H27 3762   6.556   3.676  -0.797  0.9624  0.1646  0.6780
    9CHTO   C18 3763   6.476   3.617  -0.604  0.3747  0.2726  0.1350
    9CHTO   O13 3764   6.438   3.499  -0.676  0.1404 -0.3895  0.0655
    9CHTO    H7 3765   6.355   3.468  -0.645 -0.8076  1.7783 -0.2430
    9CHTO    O2 3766   6.250   3.923  -0.584  0.2702  0.0598  0.5607
    9CHTO    C1 3767   6.127   3.849  -0.561  0.1735  0.5379  0.0225
    9CHTO   H14 3768   6.155   3.754  -0.511 -1.8529 -0.9479 -1.5692
    9CHTO    C2 3769   6.037   3.807  -0.683  0.1782 -0.0208  0.1174
    9CHTO   H15 3770   6.028   3.899  -0.743 -0.7755 -0.3724 -0.2913
    9CHTO    O6 3771   6.115   3.709  -0.759 -0.3290  0.6317  0.0022
    9CHTO    H1 3772   6.196   3.746  -0.787  0.4007 -1.8372 -1.1990
    9CHTO    C3 3773   5.889   3.747  -0.635 -0.2538  0.0535  0.0793
    9CHTO   H16 3774   5.905   3.659  -0.571 -0.0685 -0.2671 -0.4060
    9CHTO    N1 3775   5.800   3.714  -0.750 -0.1684 -0.1289  0.2368
    9CHTO    H8 3776   5.756   3.803  -0.793  0.6912  1.6876  3.0052
    9CHTO    H9 3777   5.859   3.661  -0.823  0.3090  0.9505 -0.1625
    9CHTO    C4 3778   5.830   3.851  -0.538  0.5070 -0.3572 -0.1639
    9CHTO   H17 3779   5.807   3.946  -0.586  1.5029  0.0941  0.2444
    9CHTO    O1 3780   5.923   3.880  -0.424 -0.6247 -0.3235 -0.3571
    9CHTO    C5 3781   6.046   3.937  -0.460  0.3270  0.5617 -0.6017
    9CHTO   H18 3782   6.027   4.037  -0.500  1.0642  1.3864  1.0492
    9CHTO   C16 3783   6.099   3.952  -0.314 -0.4140  0.3900  0.0055
    9CHTO   O11 3784   6.214   4.041  -0.308  0.4034  0.2228  0.0385
    9CHTO    H5 3785   6.265   4.024  -0.231 -0.7519 -1.5314  0.4450
    9CHTO    O3 3786   5.718   3.785  -0.469  0.4393  0.3885 -0.0480
    9CHTO    C6 3787   5.600   3.865  -0.438  0.3802  0.1842  0.0778
    9CHTO   H19 3788   5.610   3.971  -0.459 -1.2778  0.0406 -1.6776
    9CHTO    C8 3789   5.472   3.824  -0.508 -0.1479 -0.3032  0.8524
    9CHTO   H21 3790   5.457   3.718  -0.486 -1.7622 -0.2826 -0.0278
    9CHTO    O7 3791   5.499   3.848  -0.648 -0.0556  0.1307 -0.1687
    9CHTO    H2 3792   5.417   3.846  -0.693  0.0006  1.9993 -0.3972
    9CHTO   C12 3793   5.337   3.895  -0.461  0.0048 -0.3273  0.5082
    9CHTO   H25 3794   5.344   4.000  -0.497 -1.2552 -0.7202 -0.9594
    9CHTO    N3 3795   5.225   3.834  -0.534 -0.4213  0.3082 -0.2923
    9CHTO   H12 3796   5.128   3.879  -0.521 -0.6472 -0.4881  0.8946
    9CHTO   H13 3797   5.211   3.727  -0.540 -0.5591  0.3506 -0.7288
    9CHTO   C15 3798   5.323   3.896  -0.312  0.4622  0.4829  0.1355
    9CHTO   H28 3799   5.282   3.804  -0.272  0.2738 -0.9362 -3.1902
    9CHTO   O10 3800   5.229   4.005  -0.275  0.1929 -0.0121 -0.3221
    9CHTO    H4 3801   5.176   3.966  -0.208 -1.1896  1.3254 -0.6311
    9CHTO    O5 3802   5.448   3.928  -0.252  0.7289 -0.1840 -0.5929
    9CHTO   C10 3803   5.567   3.855  -0.287  0.0975 -0.5296 -0.0869
    9CHTO   H23 3804   5.552   3.751  -0.258 -2.3016 -0.2290 -0.1514
    9CHTO   C17 3805   5.679   3.909  -0.200 -0.7014  0.9201  0.6406
    9CHTO   O12 3806   5.706   4.049  -0.209 -0.1189 -0.0638  0.2879
    9CHTO    H6 3807   5.705   4.081  -0.297 -1.3250  1.1760  0.7282
   10CHTO  H203 3808   4.457   5.737   2.256 -0.6137  0.7575 -0.6543
   10CHTO   O82 3809   4.489   5.791   2.327 -0.5240 -0.2271  0.0582
   10CHTO  C123 3810   4.406   5.898   2.365 -0.5681  0.1875  0.3857
   10CHTO  H227 3811   4.338   5.934   2.286  0.5563 -0.3868 -0.8722
   10CHTO   O77 3812   4.318   5.844   2.469 -0.2732  1.0726 -0.4458
   10CHTO  C118 3813   4.209   5.929   2.511 -0.0518 -0.1156  0.2366
   10CHTO  H222 3814   4.151   5.969   2.426 -0.2099 -2.3188 -0.7340
   10CHTO  C125 3815   4.110   5.845   2.604  0.6414  0.1701 -0.1085
   10CHTO   O84 3816   4.175   5.748   2.693  0.0226  0.4590  0.1582
   10CHTO  H205 3817   4.106   5.738   2.756 -0.7358  2.1206 -0.3590
   10CHTO  C114 3818   4.282   6.055   2.568 -0.0853 -0.1945 -0.1276
   10CHTO  H218 3819   4.342   6.023   2.653  0.3275 -1.1078 -0.7590
   10CHTO  C116 3820   4.384   6.120   2.471  0.1823  0.1345  0.1812
   10CHTO  H220 3821   4.334   6.168   2.385 -1.7400 -1.4949  0.3672
   10CHTO   O79 3822   4.437   6.229   2.549 -0.1576  0.0612  0.0368
   10CHTO  H201 3823   4.521   6.259   2.518  1.4429 -0.4928  3.5902
   10CHTO  C120 3824   4.488   6.017   2.428  0.0673  0.2209  0.2331
   10CHTO  H224 3825   4.541   5.981   2.518 -0.9709  1.8033  1.4966
   10CHTO   N21 3826   4.579   6.076   2.327  0.2773 -0.6053  0.5005
   10CHTO  H211 3827   4.681   6.041   2.334  1.3079  2.2648  0.4959
   10CHTO  H212 3828   4.548   6.045   2.228  1.7731  0.3245 -0.2916
   10CHTO   O75 3829   4.167   6.139   2.611 -0.1281 -0.6932 -0.0843
   10CHTO  C112 3830   4.178   6.174   2.779  0.9144  0.2199 -0.2811
   10CHTO  H216 3831   4.284   6.172   2.807  1.3954  2.6969 -1.7686
   10CHTO   O73 3832   4.102   6.083   2.850  0.3160 -0.1503  0.3696
   10CHTO  C113 3833   4.100   6.101   2.990 -0.5600 -0.0742  0.1076
   10CHTO  H217 3834   4.202   6.125   3.026 -0.7228  1.4630 -0.4013
   10CHTO  C124 3835   4.047   5.969   3.049 -0.0360  0.0165  0.0227
   10CHTO   O83 3836   4.145   5.868   3.013 -0.1044 -0.0890 -0.3686
   10CHTO  H204 3837   4.225   5.897   3.051 -0.9299 -0.3829  1.6471
   10CHTO  C109 3838   4.029   6.233   3.029 -0.2764  0.8784 -0.0045
   10CHTO  H213 3839   3.928   6.226   2.988 -0.3132  1.7377 -0.0727
   10CHTO  C110 3840   4.103   6.348   2.967 -0.3090 -0.2373 -0.1614
   10CHTO  H214 3841   4.204   6.365   3.007 -0.6683  1.6191  0.0383
   10CHTO   O78 3842   4.037   6.476   2.984 -0.2442  0.3618  0.0174
   10CHTO  H200 3843   4.073   6.551   2.941 -0.8718  0.0949 -1.0044
   10CHTO  C111 3844   4.122   6.321   2.807  0.1734 -0.2303  0.2206
   10CHTO  H215 3845   4.022   6.323   2.761 -0.9859 -0.5033  2.6380
   10CHTO   N19 3846   4.203   6.433   2.741  0.1487  0.9194  0.2847
   10CHTO  H207 3847   4.284   6.391   2.683 -2.4527 -0.6508 -2.3592
   10CHTO  H208 3848   4.147   6.482   2.663  1.2692  2.5203  0.4544
   10CHTO   O74 3849   4.018   6.247   3.169  0.4301 -0.4832  0.5053
   10CHTO  C115 3850   3.872   6.242   3.222 -0.9930  0.1208 -0.4622
   10CHTO  H219 3851   3.796   6.254   3.145 -0.4683  0.7355 -0.8928
   10CHTO   O76 3852   3.841   6.106   3.289  0.0615  0.0276  0.0764
   10CHTO  C122 3853   3.858   6.080   3.430 -1.2389 -0.3268 -0.2098
   10CHTO  H226 3854   3.962   6.050   3.445 -1.5306 -1.4623 -0.4316
   10CHTO  C126 3855   3.780   5.946   3.458 -0.6699 -0.0192  0.6838
   10CHTO   O85 3856   3.780   5.919   3.598 -0.4277 -0.6009 -0.5965
   10CHTO  H206 3857   3.697   5.941   3.636 -1.0376 -0.4596 -1.9943
   10CHTO  C121 3858   3.812   6.195   3.530 -0.4193  0.3505  0.4404
   10CHTO  H225 3859   3.726   6.146   3.580 -2.8183  1.6768 -2.2706
   10CHTO   O81 3860   3.923   6.236   3.614 -0.2028  0.6111 -0.1427
   10CHTO  H202 3861   3.893   6.256   3.701 -1.4125 -0.5217 -0.2831
   10CHTO  C119 3862   3.758   6.319   3.446 -0.0771 -0.6150 -0.4681
   10CHTO  H223 3863   3.666   6.284   3.398 -1.0875 -0.7601  1.4884
   10CHTO  C117 3864   3.856   6.359   3.332 -0.5730  0.3787  0.4175
   10CHTO  H221 3865   3.960   6.378   3.360 -1.1009  2.8333  0.8924
   10CHTO   N20 3866   3.819   6.485   3.255  0.7991 -0.0393  0.5385
   10CHTO  H209 3867   3.904   6.551   3.241 -0.2080  1.2050  0.1608
   10CHTO  H210 3868   3.779   6.461   3.158  0.1754 -0.2789  0.8529
   10CHTO   O80 3869   3.695   6.441   3.536 -0.0669 -0.2751 -0.4911
   10CHTO  C103 3870   3.541   6.426   3.607 -0.3994  0.4817  0.6670
   10CHTO  H190 3871   3.518   6.524   3.649 -0.3586  0.4905  0.6681
   10CHTO  C101 3872   3.424   6.376   3.511 -0.7849  0.2220 -0.3860
   10CHTO  H188 3873   3.446   6.279   3.467 -4.0390 -1.0222  0.5213
   10CHTO   O68 3874   3.416   6.483   3.395 -0.2832  0.2020 -0.1650
   10CHTO  H168 3875   3.501   6.484   3.356 -0.1599  0.0255  0.1030
   10CHTO   C99 3876   3.290   6.358   3.591  0.7755  0.1511 -0.9667
   10CHTO  H186 3877   3.271   6.454   3.642  0.3043  0.1200 -1.0803
   10CHTO   N17 3878   3.163   6.325   3.511 -0.1865 -0.6044  0.9097
   10CHTO  H174 3879   3.197   6.332   3.409 -0.0965  0.1418  0.9914
   10CHTO  H175 3880   3.094   6.405   3.529  0.9808  0.5390  0.4283
   10CHTO   C97 3881   3.321   6.247   3.694  0.0716  0.0182  0.5272
   10CHTO  H184 3882   3.354   6.156   3.642  1.4214 -0.2622  1.8242
   10CHTO   O64 3883   3.423   6.292   3.788  0.0393  0.3028  0.5117
   10CHTO  C104 3884   3.554   6.323   3.725 -0.1597 -0.1030  0.0995
   10CHTO  H191 3885   3.600   6.234   3.680  0.6476  0.0270  0.6568
   10CHTO  C108 3886   3.656   6.372   3.828  0.1607 -0.6040 -0.1492
   10CHTO   O71 3887   3.628   6.500   3.885  0.2167 -0.4625 -0.2013
   10CHTO  H171 3888   3.565   6.491   3.953  0.1443 -0.4833 -0.2715
   10CHTO   O62 3889   3.213   6.232   3.781 -0.0204 -0.3119 -0.0665
   10CHTO   C91 3890   3.160   6.094   3.789 -0.9142  0.3097 -0.0958
   10CHTO  H178 3891   3.152   6.059   3.686 -0.2731  1.6706 -0.6145
   10CHTO   C92 3892   3.011   6.098   3.826 -0.0513 -0.4352  0.0907
   10CHTO  H179 3893   2.948   6.165   3.766  1.1524 -0.2002 -0.9089
   10CHTO   O66 3894   2.938   5.976   3.803 -0.4941  0.7556 -0.0354
   10CHTO  H166 3895   2.951   5.914   3.872 -0.5853 -0.4874 -1.1129
   10CHTO   C93 3896   2.993   6.129   3.982  0.0910  0.4554  0.3746
   10CHTO  H180 3897   2.901   6.078   4.014  0.4829  1.4494  3.2345
   10CHTO   N16 3898   2.971   6.276   4.011 -0.2767  0.1933  0.1929
   10CHTO  H172 3899   2.885   6.292   4.075 -0.5365 -0.8668  0.1303
   10CHTO  H173 3900   3.060   6.318   4.055  0.3490 -1.2208  0.3118
   10CHTO   C94 3901   3.111   6.075   4.070  0.4861 -0.5621  0.6252
   10CHTO  H181 3902   3.186   6.152   4.086 -0.8214  0.4908  1.8368
   10CHTO   O61 3903   3.165   5.963   4.002 -0.7646 -0.0592  0.1163
   10CHTO   C95 3904   3.240   5.997   3.886 -0.7528 -1.0604 -0.2822
   10CHTO  H182 3905   3.327   6.049   3.927 -0.3068 -1.3514 -0.8509
   10CHTO  C106 3906   3.280   5.868   3.808  0.2491  0.2656 -0.0735
   10CHTO   O69 3907   3.376   5.893   3.709  0.8969  0.3014 -0.6144
   10CHTO  H169 3908   3.386   5.823   3.648 -1.3773 -0.0886 -0.5632
   10CHTO   O63 3909   3.048   6.025   4.209 -0.2905 -0.4441 -0.4899
   10CHTO   C96 3910   3.143   6.029   4.321  0.0965 -0.2932  0.4610
   10CHTO  H183 3911   3.220   6.103   4.301 -0.9513  0.9681  0.9670
   10CHTO   C98 3912   3.233   5.908   4.341  0.5754 -0.0054  0.1233
   10CHTO  H185 3913   3.177   5.817   4.366  2.4368 -1.0264  0.6421
   10CHTO   O67 3914   3.307   5.870   4.230 -0.3873  0.4541  0.1489
   10CHTO  H167 3915   3.254   5.853   4.154 -0.4062  0.1037  0.2378
   10CHTO  C102 3916   3.323   5.931   4.476 -0.0694  0.1129 -0.2936
   10CHTO  H189 3917   3.397   6.006   4.446 -0.6907  1.5741  1.6761
   10CHTO   N18 3918   3.395   5.808   4.517 -0.3249 -0.3429  0.0696
   10CHTO  H176 3919   3.327   5.732   4.554  0.8855 -2.4459 -1.9109
   10CHTO  H177 3920   3.459   5.777   4.436 -0.7433 -4.4585  1.2096
   10CHTO  C105 3921   3.250   6.000   4.589 -0.3705  0.4745 -0.4661
   10CHTO  H192 3922   3.200   5.921   4.645  2.3566 -0.2853  0.9879
   10CHTO   O65 3923   3.154   6.096   4.554 -0.3858 -0.6121  0.0348
   10CHTO  C100 3924   3.065   6.067   4.453 -0.3263  0.6726 -0.0288
   10CHTO  H187 3925   3.000   5.981   4.474  2.4573 -1.8447 -1.5119
   10CHTO  C107 3926   2.971   6.192   4.431  0.5371 -1.0258 -0.4658
   10CHTO   O70 3927   2.851   6.189   4.346 -0.2606  0.3203 -0.6184
   10CHTO  H170 3928   2.884   6.187   4.258  1.7422 -0.3345  0.1194
   10CHTO   O57 3929   3.380   6.074   4.671  0.6173  0.4826 -0.1925
   10CHTO   C85 3930   3.364   6.075   4.821 -0.2249 -0.0606 -0.1529
   10CHTO  H157 3931   3.261   6.041   4.841 -1.2801  2.2388 -1.4848
   10CHTO   C83 3932   3.356   6.224   4.871  0.7592  0.3698 -0.6866
   10CHTO  H155 3933   3.262   6.265   4.836  0.2842  0.1400  0.2903
   10CHTO   O56 3934   3.462   6.301   4.808  0.3631  0.3635  0.0995
   10CHTO  H135 3935   3.457   6.304   4.715 -2.3301 -2.7212  0.0443
   10CHTO   C81 3936   3.360   6.233   5.028 -0.1769 -0.3498 -0.3296
   10CHTO  H153 3937   3.274   6.178   5.068  0.4705 -0.7060  0.5957
   10CHTO   N14 3938   3.335   6.369   5.082 -0.5930 -0.2329 -0.5956
   10CHTO  H141 3939   3.367   6.454   5.025 -0.4404 -0.1759 -0.4250
   10CHTO  H142 3940   3.371   6.380   5.182 -0.4211  0.9224 -0.7735
   10CHTO   C79 3941   3.487   6.166   5.089 -0.6525  0.1726  0.0978
   10CHTO  H151 3942   3.478   6.174   5.197 -0.2949  2.3108  0.0098
   10CHTO   O52 3943   3.480   6.025   5.043 -0.2359  0.8079 -0.0092
   10CHTO   C86 3944   3.472   5.989   4.910 -0.1668 -0.7144  0.0757
   10CHTO  H158 3945   3.576   6.015   4.879 -0.8105  1.8574 -0.0863
   10CHTO   C90 3946   3.453   5.838   4.888 -0.2755 -0.5985  0.0957
   10CHTO   O60 3947   3.339   5.774   4.940 -0.3868  0.0658  0.0871
   10CHTO  H138 3948   3.362   5.684   4.939 -0.7106 -0.0445  1.4801
   10CHTO   O50 3949   3.619   6.235   5.065 -0.0533 -0.0730 -0.5458
   10CHTO   C73 3950   3.746   6.193   5.109 -0.1024  0.5350  0.4544
   10CHTO  H145 3951   3.757   6.084   5.098  1.1812  1.0087 -3.3996
   10CHTO   C74 3952   3.783   6.225   5.254 -0.2675 -0.0592  0.6566
   10CHTO  H146 3953   3.716   6.173   5.324  1.8187 -1.8412  1.3710
   10CHTO   O54 3954   3.911   6.164   5.272 -0.4934  0.1801  0.2680
   10CHTO  H133 3955   3.895   6.074   5.294 -1.9847  0.1487 -0.8737
   10CHTO   C75 3956   3.778   6.386   5.269  0.0755 -0.2336  0.1069
   10CHTO  H147 3957   3.677   6.424   5.245  0.7744  0.8171 -1.2228
   10CHTO   N13 3958   3.800   6.435   5.404  0.1227  0.7595  0.1021
   10CHTO  H139 3959   3.814   6.352   5.472  1.2292  0.5404 -0.3848
   10CHTO  H140 3960   3.880   6.508   5.404  0.5450  0.2983 -0.6973
   10CHTO   C76 3961   3.885   6.448   5.170  0.6071  0.6971 -0.2995
   10CHTO  H148 3962   3.984   6.414   5.199 -0.4157 -0.1748  2.2822
   10CHTO   O49 3963   3.856   6.398   5.033 -0.4995 -0.2859 -0.4318
   10CHTO   C77 3964   3.848   6.253   5.017  0.3291 -0.2104 -0.1997
   10CHTO  H149 3965   3.943   6.202   5.036  1.1439  1.4164  0.1953
   10CHTO   C88 3966   3.815   6.234   4.869 -0.3997  0.5498 -0.0301
   10CHTO   O58 3967   3.884   6.368   4.771  0.2370 -0.1640 -0.1511
   10CHTO  H136 3968   3.968   6.402   4.795 -0.7711  2.3901 -0.0812
   10CHTO   O51 3969   3.883   6.596   5.149 -0.0311  0.5337 -0.0636
   10CHTO   C78 3970   4.030   6.683   5.199 -0.3474 -0.0314 -0.0380
   10CHTO  H150 3971   4.097   6.638   5.275  0.4666 -0.5569 -1.0466
   10CHTO   C80 3972   3.974   6.816   5.248 -0.2800  0.3917  0.4543
   10CHTO  H152 3973   3.899   6.847   5.173  2.0134  1.1257 -1.6082
   10CHTO   O55 3974   3.904   6.786   5.374 -0.3821 -0.3033 -0.4525
   10CHTO  H134 3975   3.852   6.858   5.404  0.2260  0.6747 -1.6990
   10CHTO   C84 3976   4.084   6.928   5.274  0.0880  0.3942 -0.2953
   10CHTO  H156 3977   4.155   6.902   5.353 -0.0291  0.0115 -0.3143
   10CHTO   N15 3978   4.025   7.064   5.304  0.1631  0.2527  0.4859
   10CHTO  H143 3979   3.974   7.093   5.214  1.0668 -0.6474 -0.3318
   10CHTO  H144 3980   3.960   7.073   5.389  1.1594 -0.3039  1.3202
   10CHTO   C87 3981   4.168   6.935   5.141  0.4332 -0.4042  0.4729
   10CHTO  H159 3982   4.102   6.966   5.060 -0.2297 -1.1441  0.7211
   10CHTO   O53 3983   4.227   6.796   5.118 -0.0750  0.5619  0.1150
   10CHTO   C82 3984   4.122   6.704   5.078  0.4722  0.3640 -0.0098
   10CHTO  H154 3985   4.076   6.745   4.989  1.1521 -1.2601 -1.1250
   10CHTO   C89 3986   4.197   6.578   5.027  0.6544  0.4476 -0.0885
   10CHTO   O59 3987   4.277   6.513   5.133 -0.6414  0.4267 -0.1514
   10CHTO  H137 3988   4.367   6.527   5.110 -0.5356  0.2652  0.1681
   10CHTO   O45 3989   4.284   7.029   5.162 -0.0921 -0.3743  0.1220
   10CHTO   C67 3990   4.339   7.067   5.038 -0.1556 -0.3111  0.4309
   10CHTO  H124 3991   4.305   7.000   4.960  0.1371  0.1875 -0.1322
   10CHTO   C65 3992   4.286   7.212   4.997 -0.4885 -0.0075  0.9120
   10CHTO  H122 3993   4.179   7.224   5.015 -0.4371  0.4331  0.9419
   10CHTO   O44 3994   4.308   7.240   4.855  0.2893 -0.0288 -0.1132
   10CHTO  H102 3995   4.233   7.228   4.800  0.4538 -1.6650  0.0031
   10CHTO   C63 3996   4.352   7.318   5.095  0.9015  0.2506 -0.3776
   10CHTO  H120 3997   4.337   7.287   5.199 -0.3748 -1.7957 -1.1404
   10CHTO   N11 3998   4.288   7.453   5.106 -0.6525 -0.1886  0.6972
   10CHTO  H108 3999   4.219   7.482   5.030 -0.1413  1.4158  0.8301
   10CHTO  H109 4000   4.252   7.470   5.206  0.7399  3.0706  0.6924
   10CHTO   C61 4001   4.509   7.314   5.075  0.7982  0.9142  0.0706
   10CHTO  H118 4002   4.555   7.375   5.154 -1.6898  0.8460  1.6246
   10CHTO   O40 4003   4.561   7.182   5.090 -0.4593 -0.0623  0.3266
   10CHTO   C68 4004   4.498   7.062   5.035 -0.1452 -0.3055 -0.3074
   10CHTO  H125 4005   4.515   6.969   5.092 -1.4181 -1.6138 -2.0038
   10CHTO   C72 4006   4.556   7.039   4.902  0.3348  0.0017  0.1020
   10CHTO   O48 4007   4.510   6.923   4.833  0.0480 -0.8247  0.1240
   10CHTO  H105 4008   4.436   6.889   4.878 -0.9268 -0.4208 -1.1605
   10CHTO   O38 4009   4.553   7.354   4.938  0.0473  0.7878 -0.6785
   10CHTO   C55 4010   4.667   7.442   4.925  0.2403  0.4197  0.8206
   10CHTO  H112 4011   4.698   7.422   4.822  0.8565 -0.2217  1.1220
   10CHTO   C56 4012   4.787   7.422   5.022 -0.7546  0.2982 -0.4973
   10CHTO  H113 4013   4.754   7.416   5.127  0.9951  1.7196  0.1628
   10CHTO   O42 4014   4.835   7.299   4.994 -0.1514  0.0321 -0.0084
   10CHTO  H100 4015   4.871   7.304   4.907  2.3869 -1.0499  0.9153
   10CHTO   C57 4016   4.894   7.536   5.018 -0.5813  0.2455  0.2206
   10CHTO  H114 4017   4.946   7.522   4.923  1.4421  1.6513  1.0607
   10CHTO   N10 4018   4.994   7.520   5.124  0.0255 -0.1902 -0.5699
   10CHTO  H106 4019   4.946   7.538   5.219  0.5393 -2.8758  0.2238
   10CHTO  H107 4020   5.074   7.592   5.111 -1.8027  2.4310  2.1414
   10CHTO   C58 4021   4.824   7.672   5.014  0.8774  0.0357  0.4702
   10CHTO  H115 4022   4.773   7.693   5.110 -0.1135 -1.3831  0.2718
   10CHTO   O37 4023   4.719   7.681   4.910 -0.0598  0.6019 -0.0885
   10CHTO   C59 4024   4.611   7.591   4.918 -0.2479  0.0726 -0.2891
   10CHTO  H116 4025   4.549   7.617   5.004 -0.6841 -1.1113 -0.2397
   10CHTO   C70 4026   4.520   7.609   4.791 -0.2732 -0.7960 -0.3495
   10CHTO   O46 4027   4.480   7.745   4.793 -0.0781  0.5621  0.3374
   10CHTO  H103 4028   4.415   7.760   4.727  0.0571  1.2390  0.3448
   10CHTO   O39 4029   4.929   7.783   4.970 -0.0276 -0.0200  0.1278
   10CHTO   C60 4030   4.877   7.916   4.949  0.9293 -0.0580  0.4890
   10CHTO  H117 4031   4.769   7.906   4.952  0.8079  1.0229  0.2190
   10CHTO   C62 4032   4.915   8.011   5.062  0.0348  0.5032 -0.2910
   10CHTO  H119 4033   4.889   7.958   5.156 -2.8840 -0.5304 -1.6391
   10CHTO   O43 4034   5.051   8.040   5.057 -0.0133 -0.4103 -0.5484
   10CHTO  H101 4035   5.088   8.052   5.143 -0.1813  0.5362 -0.6107
   10CHTO   C66 4036   4.817   8.134   5.060 -0.5040  0.0288 -0.3168
   10CHTO  H123 4037   4.715   8.097   5.061 -0.0381 -1.2826 -0.3395
   10CHTO   N12 4038   4.827   8.216   5.180 -1.1187 -0.1499 -0.2615
   10CHTO  H110 4039   4.917   8.184   5.229  0.4127 -0.1702 -3.0139
   10CHTO  H111 4040   4.735   8.204   5.236 -1.5509 -0.8886 -1.1150
   10CHTO   C69 4041   4.847   8.216   4.927  0.5144 -0.3690 -0.7020
   10CHTO  H126 4042   4.947   8.265   4.926 -0.4317  1.9314  3.6847
   10CHTO   O41 4043   4.833   8.121   4.810 -0.6474  0.1561  0.4259
   10CHTO   C64 4044   4.914   7.978   4.817 -0.6552  0.0648 -0.8418
   10CHTO  H121 4045   5.022   8.001   4.802 -0.4854  0.3905  0.6996
   10CHTO   C71 4046   4.866   7.894   4.697  0.1941  0.2767 -0.0851
   10CHTO   O47 4047   4.901   7.949   4.573  0.3278 -0.9007 -0.0886
   10CHTO  H104 4048   4.985   7.992   4.574  0.5858 -1.3993  0.6281
   10CHTO   O34 4049   4.752   8.344   4.914  0.1575 -0.4951 -0.2669
   10CHTO   C49 4050   4.645   8.382   4.836  0.1477  0.1334 -0.3804
   10CHTO   H91 4051   4.619   8.483   4.868 -0.2636 -1.2561  4.0098
   10CHTO   C47 4052   4.517   8.288   4.846 -0.4291  0.4257 -0.3237
   10CHTO   H89 4053   4.497   8.288   4.955  0.1959 -0.9328 -0.2074
   10CHTO   O33 4054   4.558   8.156   4.819  0.4476 -0.2592  0.1228
   10CHTO   H70 4055   4.595   8.152   4.733 -1.2128  0.8692 -0.6836
   10CHTO   C45 4056   4.402   8.327   4.747  0.2508 -0.0532 -0.3688
   10CHTO   H87 4057   4.384   8.240   4.682 -1.0950 -1.8090  2.2609
   10CHTO    N8 4058   4.279   8.364   4.814 -0.3180 -0.2900 -0.0158
   10CHTO   H75 4059   4.285   8.459   4.865  2.7360 -0.8422  0.7312
   10CHTO   H76 4060   4.252   8.292   4.891 -1.6994  1.8389  1.5725
   10CHTO   C43 4061   4.451   8.432   4.629 -0.0667  0.6633  0.6156
   10CHTO   H85 4062   4.384   8.428   4.543  0.2370  1.8558  0.3037
   10CHTO   O29 4063   4.586   8.393   4.593  0.2721  0.6137 -0.3788
   10CHTO   C50 4064   4.691   8.387   4.691  0.4025  0.0604  0.2049
   10CHTO   H92 4065   4.751   8.297   4.672  0.7674  0.5797 -1.2463
   10CHTO   C54 4066   4.781   8.509   4.661  0.0009  0.9152  0.1380
   10CHTO   O36 4067   4.851   8.494   4.535  0.4932  0.0401 -0.2521
   10CHTO   H72 4068   4.883   8.408   4.514 -1.4976 -0.8622  0.3454
   10CHTO   O27 4069   4.445   8.575   4.663 -0.7172  0.5963 -0.1450
   10CHTO   C37 4070   4.429   8.703   4.595 -0.2168 -0.0911 -0.1646
   10CHTO   H79 4071   4.520   8.734   4.542  0.1019 -1.1801 -0.2721
   10CHTO   C38 4072   4.311   8.696   4.501 -0.1710  0.0490  0.3243
   10CHTO   H80 4073   4.229   8.649   4.557 -1.2451  2.5098  0.8789
   10CHTO   O31 4074   4.346   8.610   4.392  0.1145  0.0064 -0.1739
   10CHTO   H68 4075   4.274   8.551   4.379 -1.6973  1.8808  1.1629
   10CHTO   C39 4076   4.281   8.840   4.445  0.0949 -0.0745 -0.0839
   10CHTO   H81 4077   4.354   8.868   4.369 -0.7840  1.7041 -0.3007
   10CHTO    N7 4078   4.151   8.843   4.362  0.7754 -0.2195  0.3776
   10CHTO   H73 4079   4.146   8.747   4.313  3.0869  0.2758 -0.9241
   10CHTO   H74 4080   4.068   8.878   4.422 -1.5802 -0.9551 -2.3709
   10CHTO   C40 4081   4.284   8.955   4.548  0.4307  0.0929  0.4100
   10CHTO   H82 4082   4.189   8.960   4.601 -0.0670 -2.6631 -0.1434
   10CHTO   O26 4083   4.395   8.940   4.640 -0.2307 -0.3542  0.3409
   10CHTO   C41 4084   4.406   8.813   4.704 -0.4332 -0.2062 -0.6748
   10CHTO   H83 4085   4.319   8.790   4.767 -1.3008  2.6664 -0.7496
   10CHTO   C52 4086   4.529   8.824   4.808  0.6539 -0.0370  0.0820
   10CHTO   O35 4087   4.507   8.905   4.919 -0.6108 -0.4753 -0.0927
   10CHTO   H71 4088   4.578   8.901   4.980 -1.7099  0.2020  1.2636
   10CHTO   O28 4089   4.306   9.079   4.471  0.1729  0.3068 -0.3525
   10CHTO   C42 4090   4.251   9.209   4.507  0.3960 -0.2889 -0.2654
   10CHTO   H84 4091   4.177   9.194   4.585  2.3685 -0.2467  1.6573
   10CHTO   C44 4092   4.172   9.274   4.392 -0.0125  0.1814 -0.4127
   10CHTO   H86 4093   4.238   9.288   4.306 -0.8360  1.6436 -0.8406
   10CHTO   O32 4094   4.065   9.187   4.358  0.3369  0.2690 -0.5889
   10CHTO   H69 4095   4.093   9.128   4.291 -0.2431 -0.2471 -0.3692
   10CHTO   C48 4096   4.110   9.418   4.424  0.9359  0.5065 -0.6268
   10CHTO   H90 4097   4.031   9.406   4.497 -0.0850  0.9713 -1.6484
   10CHTO    N9 4098   4.045   9.481   4.299 -0.6057  0.2429 -0.8555
   10CHTO   H77 4099   4.123   9.518   4.233  0.3651 -0.4779 -0.1207
   10CHTO   H78 4100   3.988   9.566   4.334 -1.1653 -0.2026 -0.6952
   10CHTO   C51 4101   4.211   9.515   4.492  0.3717  0.8864 -0.0032
   10CHTO   H93 4102   4.279   9.540   4.410 -1.0259 -0.9262 -1.7773
   10CHTO   O30 4103   4.274   9.445   4.597  0.5811 -0.3881 -0.2564
   10CHTO   C46 4104   4.352   9.310   4.561 -0.2834 -0.6208 -0.7177
   10CHTO   H88 4105   4.435   9.321   4.491 -0.8413 -0.1630 -1.3072
   10CHTO   C53 4106   4.415   9.263   4.697  0.0164 -0.2152  0.1223
   10CHTO   O72 4107   4.521   9.350   4.728  0.1568 -0.3942 -0.8088
   10CHTO  H199 4108   4.519   9.347   4.822 -1.3550  0.6434 -0.7759
   10CHTO   O22 4109   4.134   9.632   4.546 -0.4900 -0.1563  0.2153
   10CHTO   C31 4110   4.193   9.763   4.564 -0.6683 -0.2745 -0.5249
   10CHTO   H59 4111   4.116   9.829   4.609 -0.2498 -0.1278 -0.0300
   10CHTO   C29 4112   4.312   9.771   4.662  0.1555  1.1978  0.2693
   10CHTO   H57 4113   4.405   9.724   4.626  0.7106  1.9225  0.7280
   10CHTO   O21 4114   4.263   9.712   4.789  0.1766 -0.4415  0.4257
   10CHTO   H37 4115   4.337   9.715   4.847  0.6019 -1.9592 -0.0049
   10CHTO   C27 4116   4.353   9.922   4.686 -0.1376  0.3627  0.4151
   10CHTO   H55 4117   4.265   9.980   4.719 -0.5849 -1.1845  2.0387
   10CHTO    N5 4118   4.457   9.941   4.789 -0.1404 -0.0303  0.4827
   10CHTO   H43 4119   4.430  10.009   4.869 -1.8853 -1.4780  1.1669
   10CHTO   H44 4120   4.546   9.970   4.736 -1.2319  0.7339 -0.9547
   10CHTO   C25 4121   4.389   9.989   4.544 -0.5723  0.3681  0.0431
   10CHTO   H53 4122   4.481   9.940   4.506 -0.3192  0.1724  0.9021
   10CHTO   O17 4123   4.287   9.960   4.448 -0.8173  0.2944 -0.3168
   10CHTO   C32 4124   4.251   9.828   4.432 -0.4920  0.3118 -0.5770
   10CHTO   H60 4125   4.334   9.764   4.402 -0.2778  0.3176 -0.0056
   10CHTO   C36 4126   4.144   9.824   4.325  0.5505  0.1006 -0.4905
   10CHTO   O25 4127   4.147   9.918   4.215 -0.1762  0.2374 -0.4361
   10CHTO   H40 4128   4.102   9.866   4.152  1.5545  0.2188 -1.7040
   10CHTO   O15 4129   4.401  10.156   4.554  0.0752  0.8901  0.3965
   10CHTO   C19 4130   4.400  10.273   4.463 -1.5439 -0.0459 -0.1067
   10CHTO   H47 4131   4.310  10.245   4.407  0.1053 -2.0446 -1.8566
   10CHTO   C20 4132   4.386  10.416   4.535  0.0531  0.0987 -0.2019
   10CHTO   H48 4133   4.469  10.434   4.604  0.5497  0.0109 -0.7770
   10CHTO   O19 4134   4.260  10.418   4.603  0.4690 -0.7408  0.2471
   10CHTO   H35 4135   4.203  10.490   4.586 -1.2191 -2.1929 -0.3374
   10CHTO   C21 4136   4.397  10.528   4.426  0.0742  0.9717 -0.3553
   10CHTO   H49 4137   4.313  10.513   4.358  1.0241 -0.1498 -1.3028
   10CHTO    N4 4138   4.399  10.664   4.493  0.2763  0.1277  0.5771
   10CHTO   H41 4139   4.301  10.693   4.527  0.3190  0.8950  0.0584
   10CHTO   H42 4140   4.429  10.735   4.418  0.0087 -0.8994 -0.5209
   10CHTO   C22 4141   4.529  10.507   4.341  1.0482  0.7876  0.3633
   10CHTO   H50 4142   4.615  10.518   4.406 -0.7392  0.8399  2.8217
   10CHTO   O14 4143   4.525  10.375   4.272  0.1324 -0.6172 -0.0970
   10CHTO   C23 4144   4.531  10.265   4.367  0.0597  0.0567  1.2577
   10CHTO   H51 4145   4.628  10.269   4.418 -0.0966  0.6333  1.5090
   10CHTO   C34 4146   4.524  10.141   4.283  0.0468  0.5344  0.5224
   10CHTO   O23 4147   4.416  10.139   4.195 -0.4488  0.4201  0.5258
   10CHTO   H38 4148   4.446  10.171   4.112 -0.6327 -1.1089 -0.1354
   10CHTO   O16 4149   4.545  10.588   4.224  0.3849 -0.5661  0.9428
   10CHTO   C24 4150   4.711  10.610   4.180  0.3796  0.2108  0.7743
   10CHTO   H52 4151   4.776  10.548   4.243  0.4613 -0.1959  0.3011
   10CHTO   C26 4152   4.744  10.756   4.203  0.6421 -0.3300 -0.1318
   10CHTO   H54 4153   4.681  10.820   4.137  1.3764  0.0664 -0.4664
   10CHTO   O20 4154   4.725  10.797   4.338  0.0377 -0.3872 -0.6450
   10CHTO   H36 4155   4.632  10.798   4.351  0.2353 -1.2700  0.9219
   10CHTO   C30 4156   4.889  10.786   4.156  0.9055  0.7003  0.0803
   10CHTO   H58 4157   4.962  10.749   4.229  2.5450  1.4434 -1.1542
   10CHTO    N6 4158   4.919  10.933   4.163 -0.3750  0.0820 -0.2284
   10CHTO   H45 4159   4.875  10.986   4.246  0.4030 -0.0620  0.2831
   10CHTO   H46 4160   5.021  10.964   4.147  0.9835 -3.2153  1.4609
   10CHTO   C33 4161   4.915  10.724   4.013 -0.0586  0.0012 -0.1150
   10CHTO   H61 4162   4.860  10.781   3.936  0.2986 -0.4483 -0.7133
   10CHTO   O18 4163   4.869  10.588   4.001  0.1747  0.1561  0.0592
   10CHTO   C28 4164   4.735  10.565   4.038  0.3294 -0.1896  0.2642
   10CHTO   H56 4165   4.679  10.636   3.978 -0.8074 -0.9417  0.4097
   10CHTO   C35 4166   4.692  10.418   4.004  1.2617  0.5266 -0.0302
   10CHTO   O24 4167   4.761  10.319   4.082  0.0185  0.7683 -0.1912
   10CHTO   H39 4168   4.756  10.235   4.040  1.8070  1.3766 -1.6972
   10CHTO    O9 4169   5.050  10.733   3.979 -0.2479 -0.4673 -0.0247
   10CHTO   C13 4170   5.099  10.723   3.827 -0.0496 -0.0798  0.1019
   10CHTO   H26 4171   5.071  10.810   3.765  1.0626  0.5436  0.4682
   10CHTO   C11 4172   5.059  10.586   3.749 -0.5994 -0.0809 -0.0893
   10CHTO   H24 4173   4.952  10.600   3.728 -0.2574  1.7345 -0.7361
   10CHTO    O8 4174   5.084  10.479   3.836 -0.4060  0.1183 -0.6625
   10CHTO    H3 4175   5.015  10.416   3.827 -0.6222  0.5366 -1.9288
   10CHTO    C9 4176   5.131  10.568   3.610  0.1514 -0.0627  0.1112
   10CHTO   H22 4177   5.100  10.655   3.550 -1.2366 -1.3306 -1.0356
   10CHTO    N2 4178   5.102  10.444   3.532 -0.0328 -0.0045 -0.4692
   10CHTO   H10 4179   5.177  10.367   3.533 -0.8610 -0.8738  2.9682
   10CHTO   H11 4180   5.009  10.404   3.571 -0.1694  0.1205 -0.6641
   10CHTO    C7 4181   5.291  10.580   3.635  0.0719 -0.4269  0.1455
   10CHTO   H20 4182   5.329  10.592   3.532 -0.5621  0.7763  0.0359
   10CHTO    O4 4183   5.326  10.696   3.717  0.0190 -0.0058 -0.2883
   10CHTO   C14 4184   5.255  10.736   3.835 -0.2547  0.2652 -0.6913
   10CHTO   H27 4185   5.273  10.845   3.838 -1.0983  0.4147 -1.1203
   10CHTO   C18 4186   5.331  10.676   3.959  0.2586 -0.4213 -0.0019
   10CHTO   O13 4187   5.469  10.712   3.972  0.1346 -0.1678 -0.4000
   10CHTO    H7 4188   5.484  10.804   3.964  2.8164 -0.3309  1.7937
   10CHTO    O2 4189   5.356  10.436   3.698 -0.1707 -0.0578  0.2863
   10CHTO    C1 4190   5.496  10.430   3.668  0.2612  0.1891 -1.0748
   10CHTO   H14 4191   5.540  10.531   3.682 -1.9274  1.0156  0.0934
   10CHTO    C2 4192   5.544  10.365   3.531  0.1516  0.8719  0.2470
   10CHTO   H15 4193   5.513  10.260   3.542  0.5094  0.6500 -0.7986
   10CHTO    O6 4194   5.484  10.438   3.424  0.2827  0.1753  0.5163
   10CHTO    H1 4195   5.535  10.515   3.410 -0.5327  0.5988 -0.1855
   10CHTO    C3 4196   5.706  10.377   3.514  0.3379 -0.0739 -0.2072
   10CHTO   H16 4197   5.736  10.483   3.523 -2.6370  0.6620  1.7356
   10CHTO    N1 4198   5.768  10.332   3.386 -0.1221  0.0714  0.1590
   10CHTO    H8 4199   5.776  10.225   3.379 -1.2114 -0.0513  0.5859
   10CHTO    H9 4200   5.703  10.363   3.305 -1.6975 -0.2858  1.2576
   10CHTO    C4 4201   5.765  10.305   3.647  0.4042 -0.4387  0.5369
   10CHTO   H17 4202   5.750  10.198   3.634 -0.2462 -0.3342  0.4032
   10CHTO    O1 4203   5.700  10.345   3.770 -0.7453 -0.1046 -0.3630
   10CHTO    C5 4204   5.557  10.333   3.775  0.9746  0.7143  0.2823
   10CHTO   H18 4205   5.525  10.233   3.747 -0.2538  1.1276  0.1598
   10CHTO   C16 4206   5.513  10.357   3.926  0.2966 -0.2174 -0.6039
   10CHTO   O11 4207   5.554  10.248   4.006  0.3696 -0.3179  0.6883
   10CHTO    H5 4208   5.480  10.203   4.041 -0.2810 -0.7083 -1.1496
   10CHTO    O3 4209   5.907  10.332   3.656  0.6604  0.1663 -0.0885
   10CHTO    C6 4210   6.002  10.212   3.655  0.2961  0.2058 -0.8010
   10CHTO   H19 4211   5.961  10.117   3.623 -0.7827  0.2184  0.4597
   10CHTO    C8 4212   6.118  10.251   3.558 -0.4698 -0.3728 -0.3371
   10CHTO   H21 4213   6.158  10.347   3.589 -3.2091  0.8917 -0.5825
   10CHTO    O7 4214   6.068  10.259   3.422 -0.1374 -0.7307 -0.1680
   10CHTO    H2 4215   6.134  10.295   3.367  0.3671  0.1598  0.9991
   10CHTO   C12 4216   6.232  10.139   3.578  0.4252 -0.4057 -0.0994
   10CHTO   H25 4217   6.183  10.042   3.554 -0.0537 -0.1307 -0.2333
   10CHTO    N3 4218   6.343  10.169   3.484 -0.3114  0.0874  0.0021
   10CHTO   H12 4219   6.307  10.126   3.392 -1.3497  0.2682  0.3097
   10CHTO   H13 4220   6.435  10.136   3.530  0.7439  3.4799  0.4885
   10CHTO   C15 4221   6.274  10.133   3.724  0.2712  0.6943 -0.3728
   10CHTO   H28 4222   6.330  10.218   3.764  2.6517 -0.9179 -0.1263
   10CHTO   O10 4223   6.352  10.008   3.761 -0.1509  0.5047 -0.0803
   10CHTO    H4 4224   6.442  10.026   3.781 -0.4901 -0.1443  2.1204
   10CHTO    O5 4225   6.160  10.101   3.810  0.0318  0.3348  0.0259
   10CHTO   C10 4226   6.052  10.191   3.799 -0.3149 -0.3914 -0.4281
   10CHTO   H23 4227   6.091  10.282   3.843 -0.5269  0.2696 -1.5767
   10CHTO   C17 4228   5.940  10.151   3.900  0.3581 -0.7872  0.0459
   10CHTO   O12 4229   5.973  10.194   4.034  0.0713 -0.3051  0.4337
   10CHTO    H6 4230   5.936  10.278   4.055  0.0517  0.0103 -0.8430
   11CHTO  H203 4231   7.133   4.718   0.187  0.8208  0.8804 -0.3378
   11CHTO   O82 4232   7.051   4.757   0.165  0.1979 -0.2802 -0.1496
   11CHTO  C123 4233   7.065   4.896   0.139 -0.0717 -0.2938 -0.5914
   11CHTO  H227 4234   7.106   4.908   0.038 -0.4408  0.9379 -0.6011
   11CHTO   O77 4235   6.932   4.946   0.154  0.4960  0.9202  0.5570
   11CHTO  C118 4236   6.918   5.087   0.135  0.0088 -0.1584  0.2723
   11CHTO  H222 4237   6.962   5.118   0.039 -2.7892  2.1029 -0.3467
   11CHTO  C125 4238   6.760   5.110   0.118  0.0508  0.3988 -0.3782
   11CHTO   O84 4239   6.711   5.047  -0.003  0.0825  0.5181  0.1823
   11CHTO  H205 4240   6.744   5.103  -0.070  1.6810 -0.7347 -0.0958
   11CHTO  C114 4241   6.995   5.170   0.240 -0.3287 -0.5922 -0.6209
   11CHTO  H218 4242   6.947   5.153   0.336  0.6384  0.1146 -0.0019
   11CHTO  C116 4243   7.143   5.126   0.254  0.0842  0.0588  0.4480
   11CHTO  H220 4244   7.202   5.168   0.170  0.6060 -2.1441 -0.3341
   11CHTO   O79 4245   7.197   5.189   0.369  0.2602 -0.3132 -0.2645
   11CHTO  H201 4246   7.285   5.169   0.394 -0.4207 -1.2678  1.4442
   11CHTO  C120 4247   7.157   4.969   0.251  0.1186 -0.0180  0.1514
   11CHTO  H224 4248   7.128   4.942   0.355 -0.4070 -0.4639 -0.1028
   11CHTO   N21 4249   7.301   4.929   0.239 -0.4593 -0.0574  0.3312
   11CHTO  H211 4250   7.315   4.824   0.257  0.5751  0.1733  0.8746
   11CHTO  H212 4251   7.366   4.994   0.295 -0.8884 -0.2958  1.1080
   11CHTO   O75 4252   6.987   5.311   0.208  0.3422 -0.3554 -0.2582
   11CHTO  C112 4253   6.862   5.379   0.314  0.5378 -0.2628  0.2093
   11CHTO  H216 4254   6.826   5.306   0.388  0.5816  0.2162  0.7022
   11CHTO   O73 4255   6.757   5.416   0.219  0.5348  0.0683  0.1795
   11CHTO  C113 4256   6.635   5.463   0.283  0.2520  0.0655  0.2229
   11CHTO  H217 4257   6.603   5.388   0.359 -2.2445  0.7573 -0.1081
   11CHTO  C124 4258   6.527   5.483   0.176  0.1793 -0.5203  0.1678
   11CHTO   O83 4259   6.480   5.355   0.124  0.1045  0.4274  0.6013
   11CHTO  H204 4260   6.423   5.301   0.175 -1.2638  0.0957 -1.2318
   11CHTO  C109 4261   6.653   5.593   0.359  0.0731  0.0233  1.0813
   11CHTO  H213 4262   6.676   5.668   0.282  1.7973 -0.2908  1.2671
   11CHTO  C110 4263   6.776   5.585   0.458  0.2756  0.4012  0.0821
   11CHTO  H214 4264   6.742   5.538   0.550 -1.2301  2.0348  0.4034
   11CHTO   O78 4265   6.804   5.721   0.487  0.5077 -0.4420 -0.4750
   11CHTO  H200 4266   6.890   5.731   0.523 -0.4302 -1.6274  2.2501
   11CHTO  C111 4267   6.899   5.517   0.391 -0.4762  0.0436  0.1591
   11CHTO  H215 4268   6.940   5.587   0.316  0.5748 -1.5542 -0.7892
   11CHTO   N19 4269   7.006   5.486   0.488 -0.1253 -0.0123  0.8054
   11CHTO  H207 4270   6.971   5.539   0.575 -2.6591 -0.5899  0.1808
   11CHTO  H208 4271   7.092   5.543   0.456  0.2788 -0.7269  0.6015
   11CHTO   O74 4272   6.536   5.641   0.437 -0.0212  0.2201 -0.1344
   11CHTO  C115 4273   6.440   5.744   0.367 -0.3638 -0.3097 -0.1239
   11CHTO  H219 4274   6.480   5.775   0.270 -0.0583  0.3015  0.2028
   11CHTO   O76 4275   6.288   5.674   0.331 -0.0011 -0.3609 -0.2204
   11CHTO  C122 4276   6.230   5.634   0.454 -0.1364 -0.0308 -0.2271
   11CHTO  H226 4277   6.299   5.561   0.497  1.1004  0.6693 -0.9764
   11CHTO  C126 4278   6.093   5.557   0.427  0.1843 -0.1166 -0.4767
   11CHTO   O85 4279   6.019   5.600   0.309  0.4612 -0.2647 -0.9347
   11CHTO  H206 4280   5.929   5.614   0.328  0.9527  0.9302  0.5781
   11CHTO  C121 4281   6.211   5.757   0.552  0.0318  0.6869  0.3576
   11CHTO  H225 4282   6.102   5.771   0.566 -0.0497 -1.0323  1.5699
   11CHTO   O81 4283   6.279   5.719   0.673  0.5670 -0.5471  0.4560
   11CHTO  H202 4284   6.242   5.771   0.742  0.8801  0.0585  0.1626
   11CHTO  C119 4285   6.270   5.891   0.497  0.0648  0.2958  0.1369
   11CHTO  H223 4286   6.214   5.899   0.404 -0.3485 -2.0904  0.1630
   11CHTO  C117 4287   6.420   5.874   0.455  0.2004 -0.2568  0.2242
   11CHTO  H221 4288   6.490   5.849   0.534  0.6772 -0.2526 -0.1990
   11CHTO   N20 4289   6.475   5.994   0.386  0.7709  0.7491  0.6750
   11CHTO  H209 4290   6.424   6.077   0.434 -1.0559 -0.6262  1.1652
   11CHTO  H210 4291   6.583   5.991   0.388  0.7398 -2.6567  0.1299
   11CHTO   O80 4292   6.219   6.022   0.577 -0.5295 -0.0065  0.2799
   11CHTO  C103 4293   6.262   6.045   0.710  0.3708 -0.0970  0.4253
   11CHTO  H190 4294   6.246   5.952   0.766  2.4255 -0.1422  1.0008
   11CHTO  C101 4295   6.410   6.100   0.740 -0.5891  0.5295 -0.3569
   11CHTO  H188 4296   6.439   6.165   0.658 -0.5667  2.1513  0.8935
   11CHTO   O68 4297   6.515   5.979   0.756 -0.8967  0.8913  0.0277
   11CHTO  H168 4298   6.512   5.940   0.842 -0.2467  0.9914  0.0930
   11CHTO   C99 4299   6.413   6.182   0.877 -0.6047 -0.4980 -0.6601
   11CHTO  H186 4300   6.393   6.105   0.954  0.4916  1.8993  2.0863
   11CHTO   N17 4301   6.544   6.248   0.901 -0.0970 -0.1357 -0.0693
   11CHTO  H174 4302   6.584   6.228   1.000  3.9516 -0.8041 -1.7570
   11CHTO  H175 4303   6.536   6.356   0.896  1.1273 -0.0159  0.2823
   11CHTO   C97 4304   6.292   6.279   0.882 -0.7603  0.3947 -0.0030
   11CHTO  H184 4305   6.299   6.341   0.792 -1.0738 -0.9597 -0.9680
   11CHTO   O64 4306   6.171   6.197   0.884 -0.5076  0.6818 -0.6191
   11CHTO  C104 4307   6.146   6.136   0.756  0.0527  0.1962 -0.3153
   11CHTO  H191 4308   6.137   6.217   0.684 -0.3937 -0.0194 -0.5049
   11CHTO  C108 4309   6.008   6.069   0.759 -0.1419  0.0823 -0.1680
   11CHTO   O71 4310   5.914   6.155   0.824  0.0043 -0.5567  0.8225
   11CHTO  H171 4311   5.831   6.116   0.808  0.1925 -0.6953  0.1848
   11CHTO   O62 4312   6.277   6.355   1.002 -0.0633  0.0672  0.2894
   11CHTO   C91 4313   6.178   6.451   1.026  0.3866  0.3008  0.2778
   11CHTO  H178 4314   6.100   6.441   0.950  0.6312 -2.3971  0.3392
   11CHTO   C92 4315   6.241   6.595   1.023  0.1043  0.3434  1.0370
   11CHTO  H179 4316   6.335   6.588   1.080  0.9946 -0.3066 -0.4875
   11CHTO   O66 4317   6.273   6.628   0.883 -0.5077  0.9827 -0.2029
   11CHTO  H166 4318   6.360   6.600   0.860 -1.0773 -0.2641 -0.8543
   11CHTO   C93 4319   6.146   6.699   1.086 -0.0259 -0.1464 -0.3471
   11CHTO  H180 4320   6.054   6.693   1.026  0.4511 -1.2941 -0.9941
   11CHTO   N16 4321   6.197   6.840   1.076 -0.6662  0.2894  0.2050
   11CHTO  H172 4322   6.115   6.896   1.118 -0.8523  0.3568 -0.2478
   11CHTO  H173 4323   6.217   6.872   0.975  3.2727 -0.5465  0.6098
   11CHTO   C94 4324   6.108   6.649   1.227  0.2484 -0.2424 -0.0282
   11CHTO  H181 4325   6.190   6.600   1.279 -0.6149 -2.8442 -1.0384
   11CHTO   O61 4326   6.021   6.536   1.193 -0.0229  0.2050  0.3358
   11CHTO   C95 4327   6.095   6.419   1.155  0.1752 -0.1667  0.1738
   11CHTO  H182 4328   6.167   6.405   1.236  1.1575 -1.1454 -0.8443
   11CHTO  C106 4329   5.998   6.295   1.148  0.1902 -0.2305 -0.0955
   11CHTO   O69 4330   5.934   6.261   1.274 -0.6271 -0.3218 -0.1702
   11CHTO  H169 4331   5.988   6.218   1.338 -0.5338 -0.4079 -0.3076
   11CHTO   O63 4332   6.020   6.756   1.325  0.2876 -0.0449  0.2714
   11CHTO   C96 4333   6.075   6.755   1.462 -0.2234  0.5119 -0.4818
   11CHTO  H183 4334   6.171   6.704   1.463 -1.4604 -1.8748 -0.7320
   11CHTO   C98 4335   5.988   6.673   1.554 -0.2745  0.5851 -0.2389
   11CHTO  H185 4336   5.883   6.706   1.553 -0.0086  1.4312 -0.1483
   11CHTO   O67 4337   5.980   6.533   1.503  0.2047  0.0471 -0.0106
   11CHTO  H167 4338   5.898   6.495   1.529 -0.7570  0.0966 -2.7717
   11CHTO  C102 4339   6.045   6.666   1.704 -0.2986 -0.4377  0.0217
   11CHTO  H189 4340   6.127   6.593   1.696  0.3858  0.4314 -0.9293
   11CHTO   N18 4341   5.945   6.613   1.808 -0.1366  0.3890  0.2318
   11CHTO  H176 4342   5.879   6.693   1.835 -0.7745 -0.6237  1.7461
   11CHTO  H177 4343   6.005   6.582   1.893  0.2516 -1.0507 -0.5456
   11CHTO  C105 4344   6.101   6.805   1.748 -0.2536  0.1840  0.1695
   11CHTO  H192 4345   6.023   6.868   1.790  0.9181  0.8097  1.4702
   11CHTO   O65 4346   6.158   6.888   1.644  0.4226  0.0907 -0.3493
   11CHTO  C100 4347   6.098   6.904   1.517 -0.3718  0.2133 -0.5510
   11CHTO  H187 4348   6.002   6.954   1.535 -0.7207 -0.5712 -0.2281
   11CHTO  C107 4349   6.190   7.002   1.431 -0.0394 -0.2697  0.0941
   11CHTO   O70 4350   6.200   7.134   1.483 -0.1670  0.0660 -0.2699
   11CHTO  H170 4351   6.123   7.185   1.466 -0.5916 -0.5742 -0.2465
   11CHTO   O57 4352   6.217   6.772   1.840 -0.4111 -0.2233 -0.1156
   11CHTO   C85 4353   6.234   6.840   1.968 -0.4806 -0.2798 -0.4522
   11CHTO  H157 4354   6.135   6.838   2.019  0.4867 -1.6134  1.4254
   11CHTO   C83 4355   6.269   6.987   1.941  0.5286 -0.1852 -0.1689
   11CHTO  H155 4356   6.190   7.032   1.881  0.9722  1.3462  0.3785
   11CHTO   O56 4357   6.387   7.006   1.865 -0.2594  0.0497  0.4991
   11CHTO  H135 4358   6.418   6.923   1.835 -0.8893 -0.1335  0.3522
   11CHTO   C81 4359   6.277   7.060   2.079 -0.0350  0.2475  0.0662
   11CHTO  H153 4360   6.185   7.049   2.137  0.9259 -1.7595  1.2478
   11CHTO   N14 4361   6.284   7.206   2.057  0.3147 -0.3043  0.4441
   11CHTO  H141 4362   6.373   7.232   2.004  0.4767 -1.7919 -0.0387
   11CHTO  H142 4363   6.282   7.249   2.155 -0.2165 -0.0662  0.3325
   11CHTO   C79 4364   6.396   6.999   2.165 -0.6171 -0.5525  0.6109
   11CHTO  H151 4365   6.397   7.049   2.262 -0.6494 -1.5220  1.1139
   11CHTO   O52 4366   6.377   6.865   2.189  0.2188  0.3466 -0.0632
   11CHTO   C86 4367   6.346   6.785   2.066 -0.6288 -0.3056 -0.1365
   11CHTO  H158 4368   6.448   6.777   2.021  0.0185 -0.1524  1.2834
   11CHTO   C90 4369   6.311   6.640   2.112  0.1391  0.8757  0.4714
   11CHTO   O60 4370   6.401   6.579   2.203  0.0643  0.5191  0.1797
   11CHTO  H138 4371   6.402   6.619   2.288  0.9083 -1.2824  1.0694
   11CHTO   O50 4372   6.527   7.004   2.102  0.1601 -0.3469 -0.3040
   11CHTO   C73 4373   6.672   6.991   2.126 -0.6708 -0.1742 -0.4930
   11CHTO  H145 4374   6.690   6.911   2.200 -1.4740  1.3095  1.3557
   11CHTO   C74 4375   6.730   7.128   2.181  0.0114 -0.4823  0.3652
   11CHTO  H146 4376   6.663   7.158   2.263  1.6002 -1.5701  2.0927
   11CHTO   O54 4377   6.860   7.090   2.242  0.4062  0.3396 -0.1177
   11CHTO  H133 4378   6.874   7.135   2.323 -1.5731  1.8057 -0.5708
   11CHTO   C75 4379   6.734   7.234   2.067 -0.4069 -0.1435 -0.4034
   11CHTO  H147 4380   6.631   7.257   2.039 -0.4180  0.9017  0.4562
   11CHTO   N13 4381   6.801   7.356   2.125 -0.1004  0.0287 -0.4112
   11CHTO  H139 4382   6.906   7.333   2.135 -0.7197 -2.4290  0.9509
   11CHTO  H140 4383   6.754   7.383   2.219  1.0610  0.9396 -0.0816
   11CHTO   C76 4384   6.813   7.179   1.939 -0.0469 -0.1185 -0.0962
   11CHTO  H148 4385   6.912   7.141   1.961  0.4233  1.2053  0.0927
   11CHTO   O49 4386   6.738   7.064   1.896  0.4688 -0.2499 -0.3465
   11CHTO   C77 4387   6.742   6.952   1.991 -0.8008 -0.4067 -0.8059
   11CHTO  H149 4388   6.850   6.947   2.009 -0.9128  0.0601 -0.0194
   11CHTO   C88 4389   6.690   6.821   1.933  0.2554 -0.0109  0.5173
   11CHTO   O58 4390   6.748   6.711   2.031  0.4202 -0.2881 -0.1566
   11CHTO  H136 4391   6.830   6.689   1.991  0.6202 -0.9007  0.5941
   11CHTO   O51 4392   6.802   7.283   1.813  0.1430 -0.4126 -0.0308
   11CHTO   C78 4393   6.945   7.305   1.752 -0.5971 -0.5239 -0.1314
   11CHTO  H150 4394   7.019   7.259   1.820 -1.8030 -1.2583  0.7125
   11CHTO   C80 4395   6.975   7.454   1.738  0.7203 -0.1355 -0.2256
   11CHTO  H152 4396   6.879   7.506   1.713  1.0179  0.1006 -0.8973
   11CHTO   O55 4397   7.012   7.503   1.867 -0.0757 -0.4553 -0.1052
   11CHTO  H134 4398   7.060   7.583   1.879 -0.6752 -0.0406 -0.4722
   11CHTO   C84 4399   7.088   7.487   1.630  0.4894 -0.2695  0.4993
   11CHTO  H156 4400   7.187   7.463   1.669  0.6845  2.9497  2.2020
   11CHTO   N15 4401   7.094   7.633   1.590 -0.6931  0.0273  0.0249
   11CHTO  H143 4402   7.194   7.670   1.588 -0.2879 -0.9057  1.8059
   11CHTO  H144 4403   7.040   7.692   1.661 -1.1603  0.3773 -0.6224
   11CHTO   C87 4404   7.062   7.403   1.503 -0.6827 -0.9812  0.1365
   11CHTO  H159 4405   6.965   7.434   1.464 -0.8714 -0.2638  1.1548
   11CHTO   O53 4406   7.059   7.271   1.532  0.0353 -0.7798  0.0790
   11CHTO   C82 4407   6.951   7.228   1.619 -0.2227  0.1049  0.5352
   11CHTO  H154 4408   6.857   7.235   1.565 -0.3507  2.9828  1.0925
   11CHTO   C89 4409   6.969   7.080   1.655 -0.2861  0.0590  0.4670
   11CHTO   O59 4410   6.935   6.991   1.554  0.1952  0.1135  0.0629
   11CHTO  H137 4411   6.968   7.023   1.473  0.2977 -0.8971 -0.3036
   11CHTO   O45 4412   7.172   7.417   1.394 -0.2091  0.0364  0.1392
   11CHTO   C67 4413   7.134   7.410   1.256  0.2147  0.4533  0.1222
   11CHTO  H124 4414   7.068   7.325   1.242 -1.0601  1.1536  1.7656
   11CHTO   C65 4415   7.052   7.535   1.212 -0.3093 -0.0220  0.1991
   11CHTO  H122 4416   7.071   7.621   1.277  0.4372  0.2180 -0.3279
   11CHTO   O44 4417   6.916   7.503   1.242 -0.1819 -1.1614  0.4382
   11CHTO  H102 4418   6.860   7.578   1.236  0.5363 -0.5704  1.0897
   11CHTO   C63 4419   7.086   7.584   1.066 -0.8176  0.7611 -0.4860
   11CHTO  H120 4420   7.187   7.626   1.059 -0.0348 -1.2183 -1.5574
   11CHTO   N11 4421   6.991   7.686   1.004 -0.7620 -0.1442  0.0439
   11CHTO  H108 4422   6.890   7.653   1.016 -1.1224  0.6138 -0.9103
   11CHTO  H109 4423   7.010   7.721   0.905 -3.4996  1.3855  0.0189
   11CHTO   C61 4424   7.097   7.454   0.981 -0.3380 -0.2982 -0.5175
   11CHTO  H118 4425   7.117   7.488   0.878 -0.7157 -1.1151 -0.8708
   11CHTO   O40 4426   7.206   7.365   1.014 -0.5612  0.5401 -0.3992
   11CHTO   C68 4427   7.261   7.382   1.154 -0.4951 -0.4990  0.8006
   11CHTO  H125 4428   7.318   7.477   1.163 -0.7765 -0.5976  4.1040
   11CHTO   C72 4429   7.348   7.268   1.209  0.1852  0.0773  0.1438
   11CHTO   O48 4430   7.450   7.240   1.115 -0.4215  0.0776  0.0508
   11CHTO  H105 4431   7.437   7.152   1.084  2.3080  0.5086 -2.4962
   11CHTO   O38 4432   6.978   7.373   0.980 -0.0142  0.2255  0.0175
   11CHTO   C55 4433   6.954   7.285   0.868 -0.2575 -0.0705  0.8056
   11CHTO  H112 4434   7.053   7.270   0.823 -0.8927 -0.9166 -0.3158
   11CHTO   C56 4435   6.858   7.360   0.761 -0.0398 -0.4783 -0.7188
   11CHTO  H113 4436   6.766   7.385   0.816  0.2120 -0.4664 -0.2979
   11CHTO   O42 4437   6.925   7.473   0.718  0.1381  0.0990  0.0082
   11CHTO  H100 4438   6.891   7.502   0.635 -2.4762  0.8064  1.2627
   11CHTO   C57 4439   6.823   7.253   0.644 -0.2186 -0.6496  0.0537
   11CHTO  H114 4440   6.905   7.252   0.573 -0.3539 -1.2846 -0.0966
   11CHTO   N10 4441   6.710   7.297   0.560  0.0701  0.7925 -0.0248
   11CHTO  H106 4442   6.710   7.262   0.458 -0.3187  0.1124  0.2066
   11CHTO  H107 4443   6.677   7.400   0.566 -0.2476  0.6495  0.7423
   11CHTO   C58 4444   6.790   7.111   0.694 -0.0318 -0.0021 -0.5029
   11CHTO  H115 4445   6.690   7.105   0.741 -0.5052  1.9115 -1.2562
   11CHTO   O37 4446   6.887   7.063   0.791  0.0189 -0.1699  0.3586
   11CHTO   C59 4447   6.893   7.147   0.907  0.5499  0.3627 -0.1250
   11CHTO  H116 4448   6.795   7.157   0.951 -0.3373 -0.9262 -1.7370
   11CHTO   C70 4449   6.985   7.074   1.006  0.4141  0.1378  0.5213
   11CHTO   O46 4450   6.952   7.097   1.138 -0.2378  0.4113 -0.1313
   11CHTO  H103 4451   6.969   7.184   1.168 -0.5401  1.2128 -2.2100
   11CHTO   O39 4452   6.815   7.005   0.554 -0.5121 -0.0760  0.0586
   11CHTO   C60 4453   6.704   6.919   0.539  0.0345 -0.5327 -0.0016
   11CHTO  H117 4454   6.654   6.911   0.636  3.1063 -0.0156  1.6729
   11CHTO   C62 4455   6.598   6.961   0.431 -0.0706 -0.7674 -0.3327
   11CHTO  H119 4456   6.548   7.049   0.476  2.0800  0.3647 -0.0690
   11CHTO   O43 4457   6.675   6.996   0.314  0.1195 -0.6797 -0.3584
   11CHTO  H101 4458   6.729   7.073   0.317 -0.6093 -0.1443 -0.9041
   11CHTO   C66 4459   6.487   6.851   0.414 -0.1544  0.1228  0.2231
   11CHTO  H123 4460   6.439   6.841   0.512  1.0781  1.8919  1.0173
   11CHTO   N12 4461   6.382   6.895   0.322 -0.2210  0.0440 -0.4253
   11CHTO  H110 4462   6.380   7.003   0.316 -0.3236 -0.0062 -1.3459
   11CHTO  H111 4463   6.382   6.846   0.226 -1.5821 -0.9685  0.0864
   11CHTO   C69 4464   6.551   6.713   0.370  0.0693 -0.0796 -0.2619
   11CHTO  H126 4465   6.612   6.732   0.279 -0.0411  0.8974 -0.1352
   11CHTO   O41 4466   6.649   6.675   0.490 -0.6339 -0.0396 -0.3298
   11CHTO   C64 4467   6.758   6.778   0.510  0.4811 -0.2376 -0.2153
   11CHTO  H121 4468   6.814   6.778   0.414 -0.2805  1.5839 -0.6783
   11CHTO   C71 4469   6.856   6.726   0.619  0.0245 -0.1787 -0.4606
   11CHTO   O47 4470   6.975   6.797   0.619 -0.4219 -0.4481 -0.4876
   11CHTO  H104 4471   7.003   6.824   0.704 -2.4617  0.9141 -0.2099
   11CHTO   O34 4472   6.462   6.618   0.340 -0.0062  0.0939  0.0559
   11CHTO   C49 4473   6.368   6.533   0.423 -0.1301 -0.7246 -0.5481
   11CHTO   H91 4474   6.418   6.541   0.520  0.4147 -1.2785 -0.7764
   11CHTO   C47 4475   6.354   6.384   0.386 -0.4723  0.2325 -0.6550
   11CHTO   H89 4476   6.309   6.343   0.479  0.3791 -0.9700 -0.7666
   11CHTO   O33 4477   6.492   6.337   0.381 -0.2224 -0.1275  0.2796
   11CHTO   H70 4478   6.491   6.252   0.341 -1.6093 -0.0489  0.1156
   11CHTO   C45 4479   6.267   6.371   0.256  0.4400  0.0081 -0.3711
   11CHTO   H87 4480   6.303   6.434   0.173 -1.0403 -0.9802 -1.7902
   11CHTO    N8 4481   6.257   6.233   0.210  0.3165  0.0665 -0.5026
   11CHTO   H75 4482   6.262   6.231   0.102 -2.4444  1.1789 -0.6784
   11CHTO   H76 4483   6.344   6.183   0.250  0.6720  1.2211  0.1903
   11CHTO   C43 4484   6.124   6.424   0.282 -0.9806  0.0512  0.1048
   11CHTO   H85 4485   6.072   6.427   0.186  1.5201  1.7093 -1.2404
   11CHTO   O29 4486   6.139   6.560   0.330 -0.1173  0.3075 -0.0082
   11CHTO   C50 4487   6.232   6.594   0.433 -0.2719  0.0669 -0.0683
   11CHTO   H92 4488   6.254   6.701   0.445  0.1486  0.1545 -1.4208
   11CHTO   C54 4489   6.177   6.575   0.582 -0.1635  0.6571  0.3371
   11CHTO   O36 4490   6.132   6.446   0.623  0.1834  0.4892  0.3381
   11CHTO   H72 4491   6.079   6.404   0.558 -1.6654  1.5989  1.0885
   11CHTO   O27 4492   6.045   6.347   0.374 -0.1984  0.3419  0.0713
   11CHTO   C37 4493   5.911   6.326   0.430 -1.1590 -0.6599 -0.8650
   11CHTO   H79 4494   5.917   6.307   0.539  1.9274  0.5155 -0.8016
   11CHTO   C38 4495   5.812   6.449   0.410  0.3263 -0.5571 -0.2265
   11CHTO   H80 4496   5.808   6.472   0.302  1.7391  2.8535  0.3677
   11CHTO   O31 4497   5.869   6.563   0.481  0.9549 -0.3395  0.1066
   11CHTO   H68 4498   5.837   6.647   0.457  1.6238  0.2711  1.2815
   11CHTO   C39 4499   5.663   6.412   0.462  0.0722  0.1705  0.3835
   11CHTO   H81 4500   5.648   6.413   0.570 -1.8762  2.9809  0.1550
   11CHTO    N7 4501   5.564   6.520   0.420  0.3314  0.2015  0.7005
   11CHTO   H73 4502   5.562   6.526   0.313  1.1452 -1.3115  0.6006
   11CHTO   H74 4503   5.597   6.618   0.452  0.7376 -0.1740  1.4547
   11CHTO   C40 4504   5.618   6.274   0.401  0.4491 -0.1763  0.5562
   11CHTO   H82 4505   5.582   6.278   0.298 -0.8643  0.2930  1.0172
   11CHTO   O26 4506   5.722   6.177   0.418  0.2230  0.6006  0.0478
   11CHTO   C41 4507   5.850   6.198   0.360  0.0172  0.9031 -0.3544
   11CHTO   H83 4508   5.831   6.214   0.253  4.2538  1.3832 -1.1481
   11CHTO   C52 4509   5.943   6.075   0.375 -0.4554 -0.3380 -0.3945
   11CHTO   O35 4510   5.898   5.973   0.324  0.2346  0.5832 -0.1767
   11CHTO   H71 4511   5.834   5.941   0.385  0.6454  2.3724  1.2291
   11CHTO   O28 4512   5.503   6.223   0.471  0.1031 -0.2854 -0.0331
   11CHTO   C42 4513   5.445   6.092   0.437 -0.5027  0.3759 -0.1590
   11CHTO   H84 4514   5.508   6.044   0.362 -0.9254  3.1933 -2.4285
   11CHTO   C44 4515   5.300   6.096   0.366  0.2202 -0.2159 -0.7303
   11CHTO   H86 4516   5.241   6.166   0.424  0.9439  1.6144 -2.1508
   11CHTO   O32 4517   5.312   6.152   0.237 -0.5886  0.4016  0.2215
   11CHTO   H69 4518   5.228   6.153   0.196 -1.3235  3.1297  1.7161
   11CHTO   C48 4519   5.215   5.963   0.355  0.0639 -0.1740 -0.3442
   11CHTO   H90 4520   5.259   5.893   0.284  1.6400  0.4234  0.0140
   11CHTO    N9 4521   5.066   5.967   0.326  0.3977 -0.3772 -0.5352
   11CHTO   H77 4522   5.007   5.956   0.416 -0.7068  0.2074 -1.1700
   11CHTO   H78 4523   5.033   6.064   0.290 -0.0169 -1.0240 -1.9184
   11CHTO   C51 4524   5.239   5.884   0.494 -0.0373 -0.3760 -0.3225
   11CHTO   H93 4525   5.186   5.925   0.581  3.2087 -0.8757  1.9723
   11CHTO   O30 4526   5.377   5.876   0.524 -0.9081  0.4284  1.3093
   11CHTO   C46 4527   5.439   6.001   0.559 -0.3805  0.1427  0.1607
   11CHTO   H88 4528   5.365   6.044   0.626 -2.5174  0.1763 -2.1545
   11CHTO   C53 4529   5.574   5.971   0.617  0.3800 -0.0500  0.2113
   11CHTO   O72 4530   5.572   5.921   0.753 -0.2018  0.1088  0.3582
   11CHTO  H199 4531   5.660   5.919   0.787 -0.6122 -1.3001  1.3656
   11CHTO   O22 4532   5.197   5.746   0.478 -0.5425 -0.7299  0.0127
   11CHTO   C31 4533   5.184   5.645   0.590  0.5208  0.1304 -0.2754
   11CHTO   H59 4534   5.254   5.672   0.672 -1.1319  1.5517  0.6972
   11CHTO   C29 4535   5.043   5.637   0.653 -0.3107  0.1536 -0.6357
   11CHTO   H57 4536   4.980   5.610   0.566  0.0044 -1.7888 -0.2781
   11CHTO   O21 4537   4.997   5.769   0.693 -0.1050  0.0884 -0.1168
   11CHTO   H37 4538   5.030   5.794   0.777  1.4156  0.6152 -0.8451
   11CHTO   C27 4539   5.027   5.522   0.764  0.9299  0.5224 -0.4106
   11CHTO   H55 4540   5.080   5.551   0.855 -1.7416 -1.1663  1.7627
   11CHTO    N5 4541   4.882   5.509   0.799 -0.1378  0.3808 -0.7105
   11CHTO   H43 4542   4.852   5.408   0.774  2.8505 -1.5884  3.0943
   11CHTO   H44 4543   4.861   5.498   0.904  0.0666 -0.4607 -0.7523
   11CHTO   C25 4544   5.089   5.390   0.723 -0.2365 -0.4272 -0.3473
   11CHTO   H53 4545   5.023   5.339   0.650 -0.3003 -0.4891 -0.2462
   11CHTO   O17 4546   5.212   5.409   0.652  0.3632 -0.3716 -0.5579
   11CHTO   C32 4547   5.227   5.500   0.541  0.3425  0.5122 -0.1915
   11CHTO   H60 4548   5.156   5.472   0.463  0.4368 -1.5258  0.4414
   11CHTO   C36 4549   5.377   5.502   0.503 -0.1671 -0.6158  0.3481
   11CHTO   O25 4550   5.410   5.380   0.433  0.0960 -0.3000 -0.4620
   11CHTO   H40 4551   5.428   5.311   0.494  0.4036 -0.9023 -1.2274
   11CHTO   O15 4552   5.109   5.296   0.849 -0.6855 -0.0196  0.3889
   11CHTO   C19 4553   5.057   5.168   0.864  0.0505  0.3001  0.7879
   11CHTO   H47 4554   5.124   5.125   0.939  1.6172 -0.6165 -1.0805
   11CHTO   C20 4555   4.918   5.152   0.926  0.3249  0.1249 -0.0562
   11CHTO   H48 4556   4.838   5.203   0.870  1.3227  0.0968 -1.4985
   11CHTO   O19 4557   4.923   5.200   1.058  0.0073 -0.7314  0.4337
   11CHTO   H35 4558   4.839   5.224   1.093 -0.6828  0.1698 -1.8092
   11CHTO   C21 4559   4.856   5.000   0.922  0.3193 -0.3508 -0.3722
   11CHTO   H49 4560   4.901   4.936   0.998 -2.5969 -0.2490  1.5355
   11CHTO    N4 4561   4.709   4.994   0.958  0.2258 -0.1054 -0.2626
   11CHTO   H41 4562   4.695   4.991   1.065  2.5910  0.1625  0.0947
   11CHTO   H42 4563   4.666   5.084   0.917 -0.8712  0.1585  1.4487
   11CHTO   C22 4564   4.885   4.939   0.778  0.5447  0.8257 -0.2934
   11CHTO   H50 4565   4.829   4.992   0.701 -1.1563  2.3348  1.9408
   11CHTO   O14 4566   5.018   4.952   0.745  0.8321  0.3496  0.0580
   11CHTO   C23 4567   5.067   5.081   0.730  0.3400 -0.5434 -0.2155
   11CHTO   H51 4568   5.009   5.132   0.651 -1.4974  0.2704  1.6028
   11CHTO   C34 4569   5.208   5.055   0.685  0.1252  0.1483 -1.1993
   11CHTO   O23 4570   5.216   5.052   0.540  0.0878 -0.6742 -0.2834
   11CHTO   H38 4571   5.191   5.133   0.500  1.9809  1.0394  1.8552
   11CHTO   O16 4572   4.864   4.795   0.776  0.5526  0.0671 -1.1059
   11CHTO   C24 4573   4.844   4.736   0.656 -0.0664 -0.0547  0.2353
   11CHTO   H52 4574   4.868   4.803   0.573 -0.3527 -1.0419 -0.6658
   11CHTO   C26 4575   4.695   4.688   0.647 -0.2563  0.3494  1.0136
   11CHTO   H54 4576   4.678   4.613   0.727 -2.0588 -0.2590  0.0701
   11CHTO   O20 4577   4.612   4.805   0.664 -0.3099  0.5316  0.4374
   11CHTO   H36 4578   4.669   4.879   0.667 -0.4346  0.6572 -0.1585
   11CHTO   C30 4579   4.663   4.622   0.511  0.6310 -0.4510 -0.1564
   11CHTO   H58 4580   4.645   4.691   0.428  1.7136 -1.2860 -1.1160
   11CHTO    N6 4581   4.536   4.544   0.521  0.2218  0.8831  0.2909
   11CHTO   H45 4582   4.545   4.442   0.555 -3.1503  1.2690  2.4709
   11CHTO   H46 4583   4.494   4.546   0.421 -2.8312  1.4268  1.5486
   11CHTO   C33 4584   4.784   4.531   0.468 -0.5106  0.0858 -0.1220
   11CHTO   H61 4585   4.772   4.433   0.518 -0.3294  0.8277  1.4134
   11CHTO   O18 4586   4.914   4.582   0.498  0.9892  0.1233  0.0928
   11CHTO   C28 4587   4.931   4.614   0.633  0.4298 -0.1608  0.2952
   11CHTO   H56 4588   4.889   4.535   0.695 -3.3430  2.8642  1.8335
   11CHTO   C35 4589   5.075   4.644   0.666 -0.0487 -0.3161 -0.9156
   11CHTO   O24 4590   5.140   4.521   0.689 -0.3870  0.3121 -0.6545
   11CHTO   H39 4591   5.098   4.473   0.759  0.7171  0.3650  0.0557
   11CHTO    O9 4592   4.770   4.497   0.333  0.1811 -0.4528  0.1348
   11CHTO   C13 4593   4.811   4.610   0.225  0.1386 -0.5565  0.0420
   11CHTO   H26 4594   4.851   4.692   0.288  0.0307 -1.3493  1.1614
   11CHTO   C11 4595   4.691   4.660   0.137 -0.4717 -0.9873 -0.7007
   11CHTO   H24 4596   4.613   4.684   0.211  0.6165 -1.3980  0.5911
   11CHTO    O8 4597   4.639   4.557   0.051 -0.3431  0.2491 -0.1721
   11CHTO    H3 4598   4.585   4.590  -0.018  1.7215  0.2700 -1.8319
   11CHTO    C9 4599   4.741   4.792   0.072 -0.1181  0.1664 -0.2638
   11CHTO   H22 4600   4.758   4.862   0.155 -0.8153  0.2797 -0.2157
   11CHTO    N2 4601   4.633   4.865  -0.004  0.3669 -0.1132  0.0439
   11CHTO   H10 4602   4.604   4.802  -0.086  1.0647 -0.3998  0.0170
   11CHTO   H11 4603   4.679   4.956  -0.042 -1.9621  0.6395 -1.0397
   11CHTO    C7 4604   4.880   4.764   0.001  0.2993 -0.2756  0.2059
   11CHTO   H20 4605   4.955   4.810   0.068 -0.2086  1.6409 -0.5290
   11CHTO    O4 4606   4.914   4.622  -0.002 -0.0947  0.0856  0.0062
   11CHTO   C14 4607   4.921   4.559   0.128 -0.3476  0.1879 -0.2410
   11CHTO   H27 4608   5.013   4.585   0.184 -0.7041  0.4589  0.2187
   11CHTO   C18 4609   4.931   4.408   0.094 -0.3561  0.0235  0.3971
   11CHTO   O13 4610   5.014   4.336   0.184  0.1676 -0.1853  0.2345
   11CHTO    H7 4611   4.982   4.248   0.179 -0.2719  0.0560 -1.4492
   11CHTO    O2 4612   4.907   4.831  -0.154  0.3599 -0.2189  0.2170
   11CHTO    C1 4613   4.995   4.945  -0.152 -0.1994  0.2012  0.3226
   11CHTO   H14 4614   5.073   4.936  -0.073 -0.6183 -0.7316  0.6382
   11CHTO    C2 4615   4.922   5.084  -0.132 -0.1027  0.3633  0.4516
   11CHTO   H15 4616   4.846   5.084  -0.210  1.0642  0.5493 -0.7031
   11CHTO    O6 4617   4.869   5.081   0.002  0.2889 -0.1005 -0.1124
   11CHTO    H1 4618   4.797   5.141   0.011  0.1044 -0.6853  2.9926
   11CHTO    C3 4619   5.033   5.208  -0.147  0.5163 -0.0972 -0.2205
   11CHTO   H16 4620   5.111   5.189  -0.072 -0.5689  0.0652  0.9673
   11CHTO    N1 4621   4.969   5.339  -0.117  0.3667  0.0424 -0.3478
   11CHTO    H8 4622   5.041   5.419  -0.109  1.1389 -0.5351 -1.4085
   11CHTO    H9 4623   4.903   5.326  -0.033  2.2258  0.1727  1.1825
   11CHTO    C4 4624   5.111   5.197  -0.285  0.3841 -0.4996  0.2847
   11CHTO   H17 4625   5.042   5.219  -0.367 -0.3733 -1.7591  0.5673
   11CHTO    O1 4626   5.161   5.059  -0.299  0.7261 -0.2327 -0.1838
   11CHTO    C5 4627   5.065   4.949  -0.285 -0.1431  0.1541 -0.9298
   11CHTO   H18 4628   4.984   4.969  -0.355 -1.0456 -1.4447 -0.3586
   11CHTO   C16 4629   5.132   4.815  -0.314 -0.2357 -0.8892  0.6549
   11CHTO   O11 4630   5.241   4.789  -0.231  0.3998  0.2473 -0.1274
   11CHTO    H5 4631   5.284   4.710  -0.257  1.1790  1.4014 -2.4022
   11CHTO    O3 4632   5.225   5.282  -0.289  0.5599 -0.2876  0.2280
   11CHTO    C6 4633   5.292   5.288  -0.422 -0.5882  0.5068 -0.0693
   11CHTO   H19 4634   5.248   5.206  -0.479 -0.9528  1.2623 -0.8812
   11CHTO    C8 4635   5.266   5.432  -0.478  0.8176  0.0723 -0.3235
   11CHTO   H21 4636   5.317   5.503  -0.412  3.0176  0.5633 -2.4712
   11CHTO    O7 4637   5.125   5.441  -0.481  0.6516  0.0782 -0.2847
   11CHTO    H2 4638   5.105   5.532  -0.483 -2.1868 -0.3889  2.0113
   11CHTO   C12 4639   5.328   5.443  -0.624  0.7009  0.6744 -0.7111
   11CHTO   H25 4640   5.284   5.362  -0.685  2.0804 -0.7660  0.1501
   11CHTO    N3 4641   5.301   5.574  -0.690 -0.1731 -0.1942  0.7882
   11CHTO   H12 4642   5.275   5.553  -0.792  0.4787 -0.7799  0.7346
   11CHTO   H13 4643   5.244   5.649  -0.639 -0.0526  0.4166  0.0281
   11CHTO   C15 4644   5.478   5.407  -0.597  0.2293 -0.8581  0.1204
   11CHTO   H28 4645   5.521   5.475  -0.523  1.2242 -0.0249 -1.1976
   11CHTO   O10 4646   5.563   5.383  -0.732  0.0612  0.1632 -0.5237
   11CHTO    H4 4647   5.606   5.465  -0.741 -2.2480  1.2908 -1.5871
   11CHTO    O5 4648   5.505   5.276  -0.538 -0.2722  0.0726 -0.0501
   11CHTO   C10 4649   5.449   5.253  -0.406  0.2170 -0.0039  0.0666
   11CHTO   H23 4650   5.500   5.323  -0.339  0.5321  0.2645 -0.4469
   11CHTO   C17 4651   5.474   5.102  -0.373  0.0270  0.0356 -0.3736
   11CHTO   O12 4652   5.620   5.081  -0.354 -0.0076  0.0683 -0.1631
   11CHTO    H6 4653   5.633   4.988  -0.343  1.0597  0.1626 -0.5579
   12CHTO  H203 4654   4.975   2.010   2.425  1.5552  0.8774  0.5475
   12CHTO   O82 4655   5.035   1.940   2.405 -0.3220 -0.7712  0.5716
   12CHTO  C123 4656   5.016   1.823   2.479 -0.0207  0.5653 -0.5290
   12CHTO  H227 4657   5.038   1.843   2.584 -3.3381  1.7811  0.0098
   12CHTO   O77 4658   4.874   1.792   2.453  0.2480 -0.5860  0.4918
   12CHTO  C118 4659   4.827   1.689   2.542  0.0356  0.0722 -0.5220
   12CHTO  H222 4660   4.859   1.701   2.646 -1.2406 -2.5062  0.2091
   12CHTO  C125 4661   4.671   1.695   2.526  0.2098 -0.1811  0.4951
   12CHTO   O84 4662   4.602   1.589   2.598  0.2894 -0.2314  0.0446
   12CHTO  H205 4663   4.510   1.578   2.585  0.4705 -0.2019 -1.4238
   12CHTO  C114 4664   4.882   1.554   2.492 -0.2832  1.3151 -0.6917
   12CHTO  H218 4665   4.843   1.529   2.394 -0.0467 -1.0223 -0.2227
   12CHTO  C116 4666   5.040   1.570   2.501 -0.0783  0.7398  0.1020
   12CHTO  H220 4667   5.068   1.577   2.608  2.2098 -0.6884 -0.3714
   12CHTO   O79 4668   5.103   1.449   2.451  0.3442  0.4654  0.3124
   12CHTO  H201 4669   5.055   1.395   2.391  3.2464  1.0573 -2.6922
   12CHTO  C120 4670   5.096   1.697   2.431  0.2900 -0.2030 -0.4433
   12CHTO  H224 4671   5.070   1.680   2.324 -0.1855  0.6952 -0.4759
   12CHTO   N21 4672   5.241   1.711   2.441  0.0930 -0.1442 -0.1673
   12CHTO  H211 4673   5.270   1.770   2.527  2.5879 -0.7087 -0.5815
   12CHTO  H212 4674   5.272   1.758   2.349  0.3461 -1.6533 -0.8681
   12CHTO   O75 4675   4.837   1.458   2.595  0.5291  0.0577  1.1097
   12CHTO  C112 4676   4.814   1.312   2.537 -0.1771  0.1243  0.1491
   12CHTO  H216 4677   4.878   1.299   2.449  0.9108  0.6643  0.8478
   12CHTO   O73 4678   4.673   1.313   2.503 -0.3823  0.4206 -0.0947
   12CHTO  C113 4679   4.623   1.187   2.453  0.3181  0.2808 -0.1637
   12CHTO  H217 4680   4.689   1.164   2.367 -1.6704 -2.4311 -1.0370
   12CHTO  C124 4681   4.489   1.222   2.389 -0.1689 -0.4533  0.0679
   12CHTO   O83 4682   4.382   1.262   2.478  0.6897 -0.0011  0.2908
   12CHTO  H204 4683   4.378   1.355   2.493  1.5919  0.3031 -1.2238
   12CHTO  C109 4684   4.635   1.074   2.562 -0.3697 -1.7581 -0.1491
   12CHTO  H213 4685   4.582   1.112   2.650  0.4321 -0.0680 -0.3786
   12CHTO  C110 4686   4.785   1.070   2.601 -0.3923  0.3869 -0.4775
   12CHTO  H214 4687   4.843   1.030   2.518  3.5814 -0.0347  2.3576
   12CHTO   O78 4688   4.807   0.965   2.699 -0.0933 -0.1312 -0.1907
   12CHTO  H200 4689   4.805   1.008   2.782 -0.1070 -1.4692  0.5133
   12CHTO  C111 4690   4.841   1.201   2.649  0.0732  0.0026  0.8840
   12CHTO  H215 4691   4.783   1.233   2.737 -1.3722  0.3805 -0.1780
   12CHTO   N19 4692   4.989   1.197   2.684  0.1157  1.0677  0.1282
   12CHTO  H207 4693   5.036   1.295   2.684  0.6284  0.8233 -1.2973
   12CHTO  H208 4694   5.041   1.136   2.612 -1.4877 -1.1914  0.8472
   12CHTO   O74 4695   4.572   0.955   2.517  0.4571  0.0892  0.0208
   12CHTO  C115 4696   4.518   0.854   2.635  0.5462 -0.2202  0.3428
   12CHTO  H219 4697   4.596   0.838   2.709  1.3763  0.3044 -0.4068
   12CHTO   O76 4698   4.413   0.912   2.703  0.3872 -0.1543 -0.5338
   12CHTO  C122 4699   4.322   0.844   2.789  0.1442 -0.1828  0.4446
   12CHTO  H226 4700   4.232   0.905   2.792  2.2348  3.2057 -2.6735
   12CHTO  C126 4701   4.382   0.854   2.940  0.2196  0.7172  0.9196
   12CHTO   O85 4702   4.308   0.780   3.040  0.0755  0.0535 -0.1369
   12CHTO  H206 4703   4.336   0.803   3.126  2.4115 -1.1318 -0.5466
   12CHTO  C121 4704   4.293   0.696   2.748  0.7987 -0.4932  0.0409
   12CHTO  H225 4705   4.258   0.638   2.836  1.3239 -0.3816  0.3304
   12CHTO   O81 4706   4.186   0.693   2.647  0.3036  0.4289  0.0550
   12CHTO  H202 4707   4.182   0.607   2.610 -1.1662 -0.2481  1.7062
   12CHTO  C119 4708   4.422   0.636   2.695 -0.5188  0.2951  0.1441
   12CHTO  H223 4709   4.492   0.639   2.779 -1.0817 -1.1472  0.6903
   12CHTO  C117 4710   4.479   0.716   2.572 -0.0163  0.2307  0.7075
   12CHTO  H221 4711   4.401   0.731   2.497  1.0142 -0.1074 -0.4352
   12CHTO   N20 4712   4.589   0.642   2.498  0.0814 -0.3772  0.4418
   12CHTO  H209 4713   4.682   0.697   2.501  0.0854 -0.4082  0.8670
   12CHTO  H210 4714   4.556   0.608   2.401 -1.0054  0.0424  0.6536
   12CHTO   O80 4715   4.416   0.476   2.669  0.2675  0.2466 -0.2274
   12CHTO  C103 4716   4.288   0.410   2.609 -0.3168  0.0201  0.5238
   12CHTO  H190 4717   4.201   0.462   2.649  0.6009  2.4194 -0.4697
   12CHTO  C101 4718   4.294   0.409   2.451  0.6234 -0.1028 -0.6575
   12CHTO  H188 4719   4.397   0.422   2.416  0.6259  0.4217 -0.4643
   12CHTO   O68 4720   4.229   0.536   2.400 -0.1145  0.5952 -0.8298
   12CHTO  H168 4721   4.147   0.511   2.361 -0.8616  1.8018 -0.0512
   12CHTO   C99 4722   4.224   0.280   2.383  0.1777 -0.8218  0.1967
   12CHTO  H186 4723   4.117   0.310   2.377  0.5025  1.1511  3.0723
   12CHTO   N17 4724   4.261   0.265   2.235 -0.5250 -0.1053 -0.4722
   12CHTO  H174 4725   4.244   0.357   2.181  1.4323  0.0114 -0.9324
   12CHTO  H175 4726   4.200   0.184   2.196  1.2737 -2.1425  0.8639
   12CHTO   C97 4727   4.231   0.151   2.469  0.1222 -0.2034 -0.1127
   12CHTO  H184 4728   4.329   0.102   2.463  0.1637 -0.0360 -0.8163
   12CHTO   O64 4729   4.192   0.187   2.601  0.1993  0.1197 -0.3074
   12CHTO  C104 4730   4.290   0.262   2.674  0.3345  0.0547  0.1030
   12CHTO  H191 4731   4.394   0.230   2.681  0.8657  1.5420 -0.8761
   12CHTO  C108 4732   4.233   0.247   2.810 -0.0923  0.2968  0.5299
   12CHTO   O71 4733   4.248   0.118   2.858  0.9028 -0.6024  0.0561
   12CHTO  H171 4734   4.296   0.119   2.938 -0.9609  0.2608  1.2092
   12CHTO   O62 4735   4.127   0.056   2.428  0.0294  0.0212  0.6004
   12CHTO   C91 4736   4.133  -0.079   2.485 -0.1615  0.5983 -0.0854
   12CHTO  H178 4737   4.222  -0.083   2.548  0.3543  0.2007 -0.8377
   12CHTO   C92 4738   4.162  -0.181   2.376 -0.1767  0.3228  0.5750
   12CHTO  H179 4739   4.078  -0.180   2.304  0.4668  1.2806 -0.1744
   12CHTO   O66 4740   4.278  -0.146   2.292 -0.3000  0.4042  0.2479
   12CHTO  H166 4741   4.283  -0.204   2.218 -2.3150  0.9989 -0.3797
   12CHTO   C93 4742   4.171  -0.328   2.434  0.0073  0.1238  0.2266
   12CHTO  H180 4743   4.266  -0.332   2.490  1.2694  1.3209 -1.7888
   12CHTO   N16 4744   4.191  -0.437   2.336  0.2640  0.3531  0.2067
   12CHTO  H172 4745   4.179  -0.392   2.238  1.2344 -1.4069 -0.7559
   12CHTO  H173 4746   4.289  -0.478   2.356  0.3545  1.7091  2.7047
   12CHTO   C94 4747   4.054  -0.360   2.537 -0.7311 -0.3379  0.0438
   12CHTO  H181 4748   3.960  -0.385   2.487 -0.3137 -0.1586 -0.8353
   12CHTO   O61 4749   4.022  -0.249   2.624 -0.6350 -0.1572  0.1087
   12CHTO   C95 4750   4.005  -0.125   2.556 -0.8341 -0.2020  0.1525
   12CHTO  H182 4751   3.933  -0.142   2.476 -2.2338  2.0228  0.8916
   12CHTO  C106 4752   3.945  -0.007   2.650 -0.4079 -0.1789  0.1528
   12CHTO   O69 4753   3.818  -0.043   2.704  0.2311  0.3170 -0.1713
   12CHTO  H169 4754   3.794   0.027   2.762  1.4334  1.5473 -1.1168
   12CHTO   O63 4755   4.095  -0.499   2.617 -1.0321 -0.1139 -0.3646
   12CHTO   C96 4756   4.225  -0.473   2.717  0.3074 -0.3236  0.1240
   12CHTO  H183 4757   4.269  -0.374   2.707  1.5100 -0.6473  2.0000
   12CHTO   C98 4758   4.329  -0.581   2.700 -0.5637 -0.6839  0.1237
   12CHTO  H185 4759   4.281  -0.678   2.685 -2.2857  0.0601  0.6637
   12CHTO   O67 4760   4.394  -0.557   2.573 -1.0598 -0.5360  0.4435
   12CHTO  H167 4761   4.469  -0.500   2.573 -1.4001 -0.0821 -0.2386
   12CHTO  C102 4762   4.437  -0.599   2.819  0.0190 -0.9505  0.5207
   12CHTO  H189 4763   4.506  -0.514   2.812 -0.9550 -0.1158  0.8715
   12CHTO   N18 4764   4.520  -0.721   2.801  0.0753  0.6029 -0.1520
   12CHTO  H176 4765   4.622  -0.694   2.777  0.4632 -0.3530  0.3688
   12CHTO  H177 4766   4.485  -0.784   2.720 -2.2440  1.9628 -0.2383
   12CHTO  C105 4767   4.358  -0.601   2.949  0.3706 -0.0278 -0.6052
   12CHTO  H192 4768   4.296  -0.690   2.956 -1.5140  1.3105  0.3516
   12CHTO   O65 4769   4.269  -0.490   2.958  0.2939  0.4883  0.2882
   12CHTO  C100 4770   4.162  -0.481   2.864  0.8383 -0.2066 -0.1704
   12CHTO  H187 4771   4.105  -0.574   2.879  1.1815 -0.3737  0.1060
   12CHTO  C107 4772   4.069  -0.362   2.912 -0.3397  0.0607 -0.5277
   12CHTO   O70 4773   4.146  -0.252   2.969  0.0615 -0.3561 -0.1384
   12CHTO  H170 4774   4.219  -0.265   3.026 -0.5489  0.7492  0.9119
   12CHTO   O57 4775   4.451  -0.601   3.077  0.6735 -0.4107  0.3116
   12CHTO   C85 4776   4.403  -0.677   3.189 -0.2153  0.2760 -0.6733
   12CHTO  H157 4777   4.322  -0.745   3.157  0.3712 -1.2536  0.9827
   12CHTO   C83 4778   4.338  -0.577   3.289 -0.1012  0.7488 -0.0178
   12CHTO  H155 4779   4.244  -0.542   3.246 -0.3511 -1.3292 -1.2421
   12CHTO   O56 4780   4.415  -0.458   3.300 -0.0716  0.0906 -0.1533
   12CHTO  H135 4781   4.390  -0.387   3.244  0.8170  0.3618 -0.2108
   12CHTO   C81 4782   4.301  -0.645   3.424  0.0004 -0.0297 -0.4148
   12CHTO  H153 4783   4.233  -0.727   3.403  0.2890 -1.0480  2.3741
   12CHTO   N14 4784   4.220  -0.552   3.515 -0.6536  0.1887 -0.1721
   12CHTO  H141 4785   4.142  -0.505   3.458  0.4785  0.8769 -1.1803
   12CHTO  H142 4786   4.180  -0.610   3.596  0.3149  1.2922  1.1075
   12CHTO   C79 4787   4.431  -0.704   3.490 -0.2834  0.1570 -0.9390
   12CHTO  H151 4788   4.395  -0.758   3.578  0.8686  2.3497  0.9283
   12CHTO   O52 4789   4.501  -0.801   3.393  0.3328  0.4818  0.2067
   12CHTO   C86 4790   4.521  -0.756   3.259 -0.1563  0.9535  0.2492
   12CHTO  H158 4791   4.605  -0.683   3.263  1.1437 -0.4841 -0.1719
   12CHTO   C90 4792   4.567  -0.875   3.160 -0.2826 -0.4690 -0.2996
   12CHTO   O60 4793   4.693  -0.919   3.212 -0.4773 -0.1094  0.5098
   12CHTO  H138 4794   4.711  -0.997   3.163  0.4931  0.9739 -0.9050
   12CHTO   O50 4795   4.524  -0.609   3.541  0.3388 -0.3288 -0.0732
   12CHTO   C73 4796   4.593  -0.563   3.658 -0.7281  0.1096  0.4160
   12CHTO  H145 4797   4.530  -0.589   3.744 -0.0055 -3.0205  0.0841
   12CHTO   C74 4798   4.611  -0.411   3.660  0.5425  0.3467 -0.0236
   12CHTO  H146 4799   4.516  -0.356   3.655 -0.4753 -1.4655 -0.9213
   12CHTO   O54 4800   4.666  -0.378   3.790  0.0714  0.3990  0.5793
   12CHTO  H133 4801   4.686  -0.289   3.813 -2.5047  0.8212  1.2467
   12CHTO   C75 4802   4.708  -0.374   3.534 -0.0737 -0.3318  0.0511
   12CHTO  H147 4803   4.655  -0.401   3.441 -0.4855 -0.3942  0.3037
   12CHTO   N13 4804   4.740  -0.229   3.518  0.5650 -0.3435  0.0910
   12CHTO  H139 4805   4.657  -0.162   3.506  1.3546  0.5307 -0.5177
   12CHTO  H140 4806   4.829  -0.179   3.554 -0.3358  1.8066 -0.6001
   12CHTO   C76 4807   4.846  -0.462   3.541 -0.3837 -0.0590  0.3242
   12CHTO  H148 4808   4.903  -0.443   3.633 -0.0797 -0.4559  0.2174
   12CHTO   O49 4809   4.809  -0.609   3.553 -0.3702  0.6720 -0.6843
   12CHTO   C77 4810   4.725  -0.646   3.665 -0.1600  0.1397 -0.1019
   12CHTO  H149 4811   4.779  -0.631   3.759  1.7191 -1.5656 -0.8762
   12CHTO   C88 4812   4.710  -0.795   3.659 -0.1900  0.1846 -0.1731
   12CHTO   O58 4813   4.843  -0.862   3.695 -0.2463 -0.2469  0.8413
   12CHTO  H136 4814   4.843  -0.953   3.716  1.0273 -1.0047 -2.1806
   12CHTO   O51 4815   4.935  -0.442   3.410  0.1359 -0.0571  0.2252
   12CHTO   C78 4816   5.077  -0.537   3.428  0.9808 -0.3512 -0.3120
   12CHTO  H150 4817   5.066  -0.629   3.488 -3.1329 -0.6227 -1.3115
   12CHTO   C80 4818   5.195  -0.455   3.474  0.3158  0.0508  0.2712
   12CHTO  H152 4819   5.205  -0.361   3.416 -1.1251  0.1586  0.1867
   12CHTO   O55 4820   5.145  -0.432   3.607  0.1299 -0.1343  0.5961
   12CHTO  H134 4821   5.064  -0.384   3.606  0.2725  0.0932 -1.1220
   12CHTO   C84 4822   5.329  -0.530   3.469  0.5707  0.5953 -0.7708
   12CHTO  H156 4823   5.325  -0.612   3.541  0.9350 -0.7143 -2.2162
   12CHTO   N15 4824   5.445  -0.445   3.522 -0.2222  0.2324 -0.3024
   12CHTO  H143 4825   5.536  -0.502   3.523  0.3699  1.1492  1.4643
   12CHTO  H144 4826   5.425  -0.406   3.620  0.9110  0.2089 -0.0437
   12CHTO   C87 4827   5.350  -0.585   3.325 -0.0596 -1.0010 -0.9008
   12CHTO  H159 4828   5.379  -0.510   3.251 -1.7914 -0.0287 -0.6139
   12CHTO   O53 4829   5.233  -0.663   3.278 -0.5496 -0.8171  0.4048
   12CHTO   C82 4830   5.109  -0.589   3.288  0.0728  0.5913 -0.2455
   12CHTO  H154 4831   5.109  -0.501   3.224  0.8409  0.3196 -0.6350
   12CHTO   C89 4832   4.995  -0.683   3.247  0.2545 -0.1773  0.3915
   12CHTO   O59 4833   4.995  -0.823   3.293 -0.1455 -0.3292  0.1995
   12CHTO  H137 4834   4.931  -0.855   3.232 -0.9489  1.5128  0.0573
   12CHTO   O45 4835   5.465  -0.689   3.321 -0.6765 -0.5933  0.0758
   12CHTO   C67 4836   5.529  -0.725   3.198  0.2045  0.5336  0.3617
   12CHTO  H124 4837   5.607  -0.794   3.231  2.3815  3.6048  1.9623
   12CHTO   C65 4838   5.429  -0.785   3.088 -0.0563 -0.3008 -0.4218
   12CHTO  H122 4839   5.343  -0.816   3.147  0.4369  1.2645  1.1605
   12CHTO   O44 4840   5.499  -0.891   3.028  0.2978 -0.1514 -0.3621
   12CHTO  H102 4841   5.439  -0.957   3.001 -0.4053 -0.1180  1.0325
   12CHTO   C63 4842   5.380  -0.674   2.995 -0.5189 -0.4078  0.9265
   12CHTO  H120 4843   5.335  -0.593   3.051 -1.2592  0.6842 -1.1939
   12CHTO   N11 4844   5.258  -0.713   2.912 -0.6754 -0.7019 -0.2135
   12CHTO  H108 4845   5.270  -0.696   2.807  0.6915 -0.4405 -0.0206
   12CHTO  H109 4846   5.168  -0.693   2.966  0.2264  1.1877  0.6298
   12CHTO   C61 4847   5.509  -0.627   2.919 -0.9635 -0.3002  0.7444
   12CHTO  H118 4848   5.486  -0.521   2.904 -1.5526 -0.4174  0.7850
   12CHTO   O40 4849   5.631  -0.636   3.003  0.0680 -0.0278  0.3780
   12CHTO   C68 4850   5.607  -0.603   3.141 -0.0540  0.0026 -0.2887
   12CHTO  H125 4851   5.557  -0.504   3.142  1.7243  0.9421 -0.3819
   12CHTO   C72 4852   5.755  -0.580   3.196  0.3293  0.7868 -0.7121
   12CHTO   O48 4853   5.753  -0.552   3.335 -0.5275 -0.0621  0.1203
   12CHTO  H105 4854   5.751  -0.626   3.392  0.4478 -1.3849 -1.5291
   12CHTO   O38 4855   5.534  -0.696   2.796 -0.2810  0.5408  0.0963
   12CHTO   C55 4856   5.632  -0.635   2.701  0.3750  0.3841  0.2629
   12CHTO  H112 4857   5.678  -0.549   2.753 -2.8490  0.1885  3.6781
   12CHTO   C56 4858   5.564  -0.597   2.569 -0.4841 -0.0067  0.9955
   12CHTO  H113 4859   5.525  -0.689   2.523  0.0858  1.2750 -2.1703
   12CHTO   O42 4860   5.451  -0.515   2.607  0.3109  0.8576  0.4918
   12CHTO  H100 4861   5.482  -0.430   2.635  2.7149 -0.1344  0.9917
   12CHTO   C57 4862   5.672  -0.523   2.478  0.4401 -0.2527  0.0879
   12CHTO  H114 4863   5.697  -0.439   2.543  0.1391  1.2256 -1.6646
   12CHTO   N10 4864   5.615  -0.480   2.346 -0.1257  0.0962 -0.7885
   12CHTO  H106 4865   5.628  -0.562   2.277  0.8585 -0.2613 -0.1969
   12CHTO  H107 4866   5.673  -0.396   2.312 -0.8299  1.2138  0.6953
   12CHTO   C58 4867   5.792  -0.608   2.458 -0.5017  0.0638  0.1635
   12CHTO  H115 4868   5.768  -0.694   2.392 -1.7279  0.0402  0.6201
   12CHTO   O37 4869   5.841  -0.660   2.585 -0.0179 -0.0764 -0.2359
   12CHTO   C59 4870   5.746  -0.733   2.662  0.1486 -0.0200  0.0494
   12CHTO  H116 4871   5.709  -0.816   2.601 -0.3956 -0.3820  0.8691
   12CHTO   C70 4872   5.815  -0.791   2.781 -0.1766  1.0156  0.0469
   12CHTO   O46 4873   5.875  -0.696   2.868  0.2279 -0.2520 -0.1552
   12CHTO  H103 4874   5.951  -0.724   2.915  0.8509  1.3105 -0.2201
   12CHTO   O39 4875   5.927  -0.528   2.376 -0.1161  0.4644 -0.3371
   12CHTO   C60 4876   6.061  -0.562   2.416 -0.3403 -0.4883 -0.4953
   12CHTO  H117 4877   6.052  -0.648   2.482  0.2403 -0.0677  0.1382
   12CHTO   C62 4878   6.148  -0.613   2.296 -0.6895 -0.7632 -0.3322
   12CHTO  H119 4879   6.094  -0.706   2.269 -1.2043 -0.4014 -0.5585
   12CHTO   O43 4880   6.152  -0.523   2.189  0.3506  0.0214  0.2032
   12CHTO  H101 4881   6.072  -0.473   2.181 -0.5974 -1.4206  0.4430
   12CHTO   C66 4882   6.293  -0.656   2.351  0.5374 -0.1061 -0.3986
   12CHTO  H123 4883   6.282  -0.727   2.433  4.6457 -1.0042 -0.5241
   12CHTO   N12 4884   6.384  -0.723   2.265 -0.1255 -0.0035 -0.2838
   12CHTO  H110 4885   6.337  -0.820   2.255  0.9831 -0.7929  1.7870
   12CHTO  H111 4886   6.488  -0.724   2.293  0.8743  1.1922 -3.6671
   12CHTO   C69 4887   6.350  -0.525   2.411 -0.0276  0.1532 -0.5187
   12CHTO  H126 4888   6.355  -0.440   2.340 -1.0969 -0.0681 -0.8667
   12CHTO   O41 4889   6.264  -0.485   2.541  0.3153  0.3085  0.0734
   12CHTO   C64 4890   6.126  -0.448   2.501  0.5144 -0.0332 -0.3843
   12CHTO  H121 4891   6.140  -0.351   2.448  0.5974 -0.1806 -0.6346
   12CHTO   C71 4892   6.050  -0.423   2.637  0.4778  0.0806  0.1564
   12CHTO   O47 4893   6.087  -0.294   2.683  0.3793 -0.2676 -0.3605
   12CHTO  H104 4894   6.118  -0.302   2.771 -2.9362 -1.3809  0.7977
   12CHTO   O34 4895   6.508  -0.546   2.462 -0.5020  0.1592 -0.4018
   12CHTO   C49 4896   6.590  -0.557   2.571  0.4038  0.1658 -0.7014
   12CHTO   H91 4897   6.661  -0.477   2.552  1.4729 -0.6562 -0.1897
   12CHTO   C47 4898   6.652  -0.698   2.582  0.0404 -0.1958 -0.4139
   12CHTO   H89 4899   6.723  -0.695   2.666  0.2432 -1.8707 -0.5069
   12CHTO   O33 4900   6.719  -0.727   2.459 -0.2493 -0.5093  0.0972
   12CHTO   H70 4901   6.811  -0.727   2.477  0.0483  2.6442 -1.1498
   12CHTO   C45 4902   6.543  -0.807   2.616 -0.0143  0.0006 -0.0116
   12CHTO   H87 4903   6.477  -0.800   2.528  2.3663  0.6498 -1.7797
   12CHTO    N8 4904   6.602  -0.944   2.620  0.4852 -0.1730 -0.4680
   12CHTO   H75 4905   6.582  -1.004   2.708  1.7063 -0.0311 -0.0770
   12CHTO   H76 4906   6.563  -0.990   2.531  0.5784 -0.5157 -0.3311
   12CHTO   C43 4907   6.463  -0.763   2.748 -0.6193 -0.6367 -0.3747
   12CHTO   H85 4908   6.379  -0.832   2.747 -0.1848 -1.2860  2.3658
   12CHTO   O29 4909   6.426  -0.622   2.755  0.0131 -0.4670  0.2481
   12CHTO   C50 4910   6.516  -0.520   2.702  0.5884  0.2216 -0.3596
   12CHTO   H92 4911   6.460  -0.426   2.686 -2.4520 -1.3912  0.5522
   12CHTO   C54 4912   6.609  -0.472   2.806 -0.2445 -0.2034 -0.4463
   12CHTO   O36 4913   6.677  -0.356   2.754 -0.5685 -0.2806 -0.5248
   12CHTO   H72 4914   6.719  -0.352   2.670 -0.3411  1.1165 -0.3559
   12CHTO   O27 4915   6.535  -0.793   2.877  0.4894  0.3086  0.6271
   12CHTO   C37 4916   6.464  -0.823   3.001 -0.2429  0.0498  0.1476
   12CHTO   H79 4917   6.532  -0.802   3.085  0.7759  0.4547 -0.7701
   12CHTO   C38 4918   6.336  -0.735   3.028 -0.5332 -0.6647 -0.2786
   12CHTO   H80 4919   6.277  -0.736   2.935  2.6431  0.8729 -2.3945
   12CHTO   O31 4920   6.380  -0.600   3.055  0.0795  0.3862 -0.1321
   12CHTO   H68 4921   6.301  -0.554   3.078  0.0671 -0.1981  0.9897
   12CHTO   C39 4922   6.253  -0.797   3.138  0.6271  0.2289 -0.1523
   12CHTO   H81 4923   6.305  -0.783   3.233  0.1148 -1.8933  0.4722
   12CHTO    N7 4924   6.119  -0.733   3.157 -0.1533 -0.6461  0.4778
   12CHTO   H73 4925   6.121  -0.644   3.217  2.9922  0.8101 -1.6971
   12CHTO   H74 4926   6.036  -0.794   3.191 -1.4557  1.0727  0.4971
   12CHTO   C40 4927   6.226  -0.956   3.130  0.2491 -0.5691 -0.2437
   12CHTO   H82 4928   6.156  -0.981   3.050 -2.0571  0.2697  1.4661
   12CHTO   O26 4929   6.355  -1.013   3.112  0.6482 -0.3131 -0.5333
   12CHTO   C41 4930   6.423  -0.978   2.992  0.2256  0.2016  0.0984
   12CHTO   H83 4931   6.364  -0.987   2.900  0.1756 -2.4727  0.3536
   12CHTO   C52 4932   6.552  -1.064   2.976  0.4275 -0.5782 -0.8369
   12CHTO   O35 4933   6.528  -1.199   2.976  0.0898  0.8565  0.6250
   12CHTO   H71 4934   6.607  -1.247   2.963  0.4957  1.0454  2.3070
   12CHTO   O28 4935   6.180  -1.023   3.250 -0.1365  0.2058  0.1304
   12CHTO   C42 4936   6.070  -1.128   3.251 -0.5488  0.4313 -0.6070
   12CHTO   H84 4937   6.106  -1.202   3.322  3.0270 -0.1072 -2.8495
   12CHTO   C44 4938   6.047  -1.210   3.119  0.2850 -0.1301 -0.2675
   12CHTO   H86 4939   6.020  -1.136   3.044 -0.9845  0.8112  1.1019
   12CHTO   O32 4940   6.172  -1.264   3.074 -0.1460 -0.0146  0.2455
   12CHTO   H69 4941   6.197  -1.338   3.127 -0.5332 -1.5840 -1.7063
   12CHTO   C48 4942   5.934  -1.318   3.127  0.0238  0.3187 -0.0875
   12CHTO   H90 4943   5.962  -1.395   3.199 -0.5014 -0.6956 -0.9464
   12CHTO    N9 4944   5.916  -1.389   2.992 -0.6225  0.2070 -0.2966
   12CHTO   H77 4945   5.933  -1.313   2.916 -0.3905  1.1899  0.7245
   12CHTO   H78 4946   5.818  -1.434   2.978  0.0066 -1.2665 -0.0186
   12CHTO   C51 4947   5.807  -1.241   3.174 -0.1282 -0.2838 -0.3097
   12CHTO   H93 4948   5.773  -1.165   3.104  0.8242 -0.4136 -0.9283
   12CHTO   O30 4949   5.841  -1.185   3.303  0.2613  0.0967 -0.8370
   12CHTO   C46 4950   5.930  -1.069   3.299  0.4461 -0.0827  0.2966
   12CHTO   H88 4951   5.897  -0.993   3.229  0.8955  0.2548  0.4541
   12CHTO   C53 4952   5.934  -1.017   3.446 -0.3747 -0.4130  0.1685
   12CHTO   O72 4953   5.804  -0.953   3.460 -0.0624 -0.2850 -0.0329
   12CHTO  H199 4954   5.816  -0.863   3.439  2.8282 -1.1122 -2.4945
   12CHTO   O22 4955   5.698  -1.326   3.211 -0.0349 -0.3328 -0.2494
   12CHTO   C31 4956   5.559  -1.289   3.233  0.3869  0.1872  0.6099
   12CHTO   H59 4957   5.519  -1.364   3.304  0.8361 -0.3335  0.3117
   12CHTO   C29 4958   5.528  -1.151   3.298  0.1932 -0.0948  0.1194
   12CHTO   H57 4959   5.567  -1.068   3.236  0.3446 -1.0091 -1.0248
   12CHTO   O21 4960   5.603  -1.154   3.420  0.6970 -0.0754  0.0792
   12CHTO   H37 4961   5.568  -1.226   3.469 -1.5360  1.2319  0.4741
   12CHTO   C27 4962   5.374  -1.127   3.328  0.1525  0.8005  0.1608
   12CHTO   H55 4963   5.338  -1.204   3.399  0.3749  0.5593  0.0099
   12CHTO    N5 4964   5.349  -0.991   3.390  0.3171 -0.2986 -0.0218
   12CHTO   H43 4965   5.374  -0.908   3.326 -0.2316  0.6221  0.9599
   12CHTO   H44 4966   5.248  -0.984   3.429  1.1939  3.1577  1.7840
   12CHTO   C25 4967   5.299  -1.154   3.198  0.2967  0.4207  0.5781
   12CHTO   H53 4968   5.336  -1.080   3.125  0.6707 -0.2744  0.0551
   12CHTO   O17 4969   5.327  -1.291   3.143 -0.4033 -0.1267 -0.6443
   12CHTO   C32 4970   5.468  -1.306   3.108 -0.1969  0.1151 -0.1789
   12CHTO   H60 4971   5.503  -1.237   3.032 -1.2861  3.1386  1.9681
   12CHTO   C36 4972   5.471  -1.453   3.048  0.9022  0.0171 -0.1978
   12CHTO   O25 4973   5.589  -1.494   2.986  0.6781  0.4328  0.1627
   12CHTO   H40 4974   5.590  -1.478   2.894  2.6305  0.5420  0.1806
   12CHTO   O15 4975   5.138  -1.125   3.203 -0.1165  0.0356  1.1101
   12CHTO   C19 4976   5.019  -1.148   3.111  0.0406  0.0759  0.0524
   12CHTO   H47 4977   4.932  -1.116   3.171 -0.8628 -0.2448 -1.0591
   12CHTO   C20 4978   5.013  -1.063   2.976  0.1045 -0.4489 -0.3949
   12CHTO   H48 4979   5.094  -1.091   2.906  0.4762 -1.5916  0.4856
   12CHTO   O19 4980   5.019  -0.918   3.017 -0.7046  0.2266  0.7343
   12CHTO   H35 4981   4.999  -0.864   2.943  0.9754  2.0141  1.5244
   12CHTO   C21 4982   4.881  -1.099   2.904  0.6769 -0.6927 -0.1591
   12CHTO   H49 4983   4.795  -1.077   2.967  1.0192  0.3011 -0.0149
   12CHTO    N4 4984   4.858  -1.020   2.780 -0.8790  0.4372 -0.0927
   12CHTO   H41 4985   4.882  -0.915   2.771 -3.1578  0.9429 -0.6811
   12CHTO   H42 4986   4.877  -1.070   2.687 -1.9227 -2.4816  1.2041
   12CHTO   C22 4987   4.858  -1.251   2.878  0.0531 -0.5672  0.0491
   12CHTO   H50 4988   4.928  -1.293   2.806 -0.4972 -2.6889  0.7109
   12CHTO   O14 4989   4.870  -1.309   3.009 -0.2301  0.4732  0.8363
   12CHTO   C23 4990   4.990  -1.302   3.077 -0.2619  0.4792  0.5937
   12CHTO   H51 4991   5.068  -1.348   3.014  0.1681 -0.3041  1.6776
   12CHTO   C34 4992   4.985  -1.380   3.207  0.4627  0.3165  0.0142
   12CHTO   O23 4993   4.970  -1.522   3.184 -0.5587  0.0930  0.4155
   12CHTO   H38 4994   4.881  -1.537   3.157 -0.2984  0.9149 -0.9773
   12CHTO   O16 4995   4.726  -1.281   2.830 -0.2733  0.2813  0.0182
   12CHTO   C24 4996   4.711  -1.425   2.734 -0.4854  0.1853  0.8826
   12CHTO   H52 4997   4.800  -1.489   2.737 -0.8571 -0.5357 -1.8030
   12CHTO   C26 4998   4.675  -1.388   2.581  0.0494 -0.6496  0.3714
   12CHTO   H54 4999   4.600  -1.306   2.582  2.3778  1.5494  1.4664
   12CHTO   O20 5000   4.798  -1.350   2.510 -0.1986  0.6542 -0.2100
   12CHTO   H36 5001   4.843  -1.431   2.497 -1.5942 -0.1847  0.0708
   12CHTO   C30 5002   4.607  -1.510   2.512  0.4190 -0.0216  0.0671
   12CHTO   H58 5003   4.681  -1.589   2.491  0.6045 -0.2470  1.5802
   12CHTO    N6 5004   4.550  -1.462   2.386  1.0175 -0.8629  0.4183
   12CHTO   H45 5005   4.599  -1.499   2.297  0.5902 -0.2406 -0.0795
   12CHTO   H46 5006   4.445  -1.488   2.379  1.4324 -2.6398  0.4427
   12CHTO   C33 5007   4.490  -1.571   2.602  0.3617  0.1956  0.0160
   12CHTO   H61 5008   4.413  -1.498   2.630  3.1450  2.8676  0.9450
   12CHTO   O18 5009   4.552  -1.614   2.723  0.5232  0.3560  0.6736
   12CHTO   C28 5010   4.596  -1.503   2.802 -0.2522 -0.4622 -0.1859
   12CHTO   H56 5011   4.518  -1.433   2.832  2.4875  2.3584  0.5255
   12CHTO   C35 5012   4.653  -1.575   2.930  0.2106  0.3042 -0.1785
   12CHTO   O24 5013   4.759  -1.665   2.903  0.4156  0.7377 -0.0309
   12CHTO   H39 5014   4.830  -1.627   2.857 -0.3803  2.3191  0.0020
   12CHTO    O9 5015   4.419  -1.680   2.540  0.0608  0.5061 -0.1536
   12CHTO   C13 5016   4.478  -1.833   2.560 -0.1160  0.0553 -0.3162
   12CHTO   H26 5017   4.588  -1.828   2.567 -0.0880  0.2542 -0.9343
   12CHTO   C11 5018   4.428  -1.927   2.447  0.1269 -0.4493 -0.7231
   12CHTO   H24 5019   4.471  -1.888   2.354 -1.2160 -0.9865 -1.5843
   12CHTO    O8 5020   4.286  -1.919   2.434  0.1257  0.0866 -0.2093
   12CHTO    H3 5021   4.269  -1.944   2.345 -0.1700 -0.8365  0.1004
   12CHTO    C9 5022   4.499  -2.067   2.469 -0.5023 -0.0824 -0.8337
   12CHTO   H22 5023   4.606  -2.048   2.482 -0.4776 -0.4464 -0.4767
   12CHTO    N2 5024   4.508  -2.160   2.354  0.2658 -0.0573  0.1998
   12CHTO   H10 5025   4.570  -2.111   2.281 -0.3608  1.6652  0.8023
   12CHTO   H11 5026   4.554  -2.251   2.390 -0.8760 -1.4950 -1.8191
   12CHTO    C7 5027   4.445  -2.129   2.603  0.3768 -0.5333 -0.3588
   12CHTO   H20 5028   4.510  -2.217   2.622 -1.0209 -2.0277 -2.3969
   12CHTO    O4 5029   4.448  -2.036   2.716  0.5137  0.2911 -0.3871
   12CHTO   C14 5030   4.428  -1.893   2.709  0.5067  0.8152  0.5498
   12CHTO   H27 5031   4.487  -1.846   2.790  1.3307  0.4802  0.1474
   12CHTO   C18 5032   4.280  -1.867   2.738 -0.1881  0.3728 -0.1714
   12CHTO   O13 5033   4.242  -1.734   2.764  0.2285 -0.5024  0.7541
   12CHTO    H7 5034   4.151  -1.723   2.785  0.0816  1.3916 -0.6886
   12CHTO    O2 5035   4.292  -2.187   2.595 -0.5410 -0.1813 -0.4853
   12CHTO    C1 5036   4.277  -2.295   2.694  0.1343  0.0947  0.8923
   12CHTO   H14 5037   4.329  -2.271   2.789  2.4799 -0.3263 -0.2445
   12CHTO    C2 5038   4.309  -2.446   2.657 -0.3266  0.6429  0.3882
   12CHTO   H15 5039   4.272  -2.473   2.557  0.7184  0.1600  0.1208
   12CHTO    O6 5040   4.454  -2.453   2.636  0.2507 -0.1080 -0.0369
   12CHTO    H1 5041   4.466  -2.496   2.554 -1.1651 -1.0736  0.2435
   12CHTO    C3 5042   4.270  -2.551   2.775 -0.9306 -0.3875 -0.2092
   12CHTO   H16 5043   4.328  -2.525   2.864  0.2590  1.1011 -1.3801
   12CHTO    N1 5044   4.284  -2.690   2.731 -0.1210  0.1379  0.2547
   12CHTO    H8 5045   4.250  -2.703   2.630 -0.1338 -0.6976  0.3616
   12CHTO    H9 5046   4.216  -2.750   2.789  0.1316 -0.3833  0.0081
   12CHTO    C4 5047   4.119  -2.519   2.813 -0.4464 -0.0445  0.1836
   12CHTO   H17 5048   4.055  -2.545   2.729  0.8090 -0.5589 -0.6330
   12CHTO    O1 5049   4.100  -2.382   2.843 -0.0252 -0.0811 -0.3003
   12CHTO    C5 5050   4.132  -2.287   2.739  0.6289  0.0204 -0.5784
   12CHTO   H18 5051   4.063  -2.309   2.658 -3.3367  0.6497  2.4720
   12CHTO   C16 5052   4.097  -2.141   2.786  0.0355  0.7875  0.3261
   12CHTO   O11 5053   4.141  -2.115   2.917 -0.2447 -0.4161 -0.0989
   12CHTO    H5 5054   4.198  -2.041   2.913 -0.9391  0.0622 -1.6951
   12CHTO    O3 5055   4.071  -2.592   2.926  0.3422 -0.3822  0.0915
   12CHTO    C6 5056   3.924  -2.630   2.919 -0.5800 -0.6356  0.2992
   12CHTO   H19 5057   3.877  -2.572   2.840  0.9413  1.1969  0.6882
   12CHTO    C8 5058   3.916  -2.787   2.897 -0.9204 -0.0122 -0.3201
   12CHTO   H21 5059   4.001  -2.826   2.953 -1.2047  0.2479  0.2919
   12CHTO    O7 5060   3.940  -2.812   2.754  0.3086  0.2898 -0.1368
   12CHTO    H2 5061   3.862  -2.834   2.707  1.9162 -2.9739 -1.4922
   12CHTO   C12 5062   3.773  -2.848   2.947 -0.0801 -0.0677 -0.3530
   12CHTO   H25 5063   3.696  -2.823   2.872 -1.4488  0.6598  1.2643
   12CHTO    N3 5064   3.774  -2.995   2.958 -0.3601 -0.3294 -0.1833
   12CHTO   H12 5065   3.740  -3.050   2.871 -2.0933  0.9196 -0.3273
   12CHTO   H13 5066   3.859  -3.040   3.006 -1.1664  0.2489  1.8045
   12CHTO   C15 5067   3.733  -2.776   3.084 -0.2128 -0.5407  0.0113
   12CHTO   H28 5068   3.795  -2.800   3.170 -0.3524 -0.7743  0.0468
   12CHTO   O10 5069   3.572  -2.831   3.124  0.3309 -0.0512 -0.1191
   12CHTO    H4 5070   3.546  -2.890   3.056 -0.3638  0.1152 -0.0004
   12CHTO    O5 5071   3.727  -2.635   3.067  0.4635  0.2941  0.6265
   12CHTO   C10 5072   3.856  -2.585   3.054 -0.7742 -0.2037 -0.1972
   12CHTO   H23 5073   3.918  -2.612   3.139  0.2925  1.2932 -0.4937
   12CHTO   C17 5074   3.839  -2.436   3.055 -0.2711 -0.8337 -0.0006
   12CHTO   O12 5075   3.814  -2.386   3.189 -0.0604  0.0457 -0.1534
   12CHTO    H6 5076   3.755  -2.313   3.183  0.1034  0.2919  1.0979
   13CHTO  H203 5077   7.938   4.243   1.768 -0.0762  1.4107  0.1944
   13CHTO   O82 5078   7.937   4.202   1.683  0.6743  0.0586  0.8156
   13CHTO  C123 5079   7.883   4.297   1.586  0.4331  0.2817 -0.1746
   13CHTO  H227 5080   7.887   4.252   1.485  1.0196 -2.0239  0.8335
   13CHTO   O77 5081   7.742   4.322   1.623 -0.3598 -0.2863  0.9438
   13CHTO  C118 5082   7.661   4.410   1.540 -0.6743 -0.0274  0.1008
   13CHTO  H222 5083   7.662   4.380   1.434  0.5649  0.4644 -0.0356
   13CHTO  C125 5084   7.513   4.403   1.592 -0.3259 -0.1946  0.2280
   13CHTO   O84 5085   7.525   4.462   1.716 -0.3924  0.3408 -0.5060
   13CHTO  H205 5086   7.443   4.448   1.760 -0.5455  0.8530 -0.6253
   13CHTO  C114 5087   7.725   4.550   1.543  0.1383 -0.2542  0.6088
   13CHTO  H218 5088   7.725   4.582   1.647 -1.0295  0.6996  0.3233
   13CHTO  C116 5089   7.876   4.543   1.502 -0.2753 -0.3965  0.1004
   13CHTO  H220 5090   7.887   4.517   1.395 -2.2205 -0.2274 -0.1633
   13CHTO   O79 5091   7.930   4.672   1.511  0.5969 -0.5652  0.3752
   13CHTO  H201 5092   7.987   4.698   1.442  1.2131  2.3259  1.8787
   13CHTO  C120 5093   7.955   4.434   1.587  0.5744  0.2115 -0.0493
   13CHTO  H224 5094   7.953   4.465   1.693  0.2875  1.6324 -0.4643
   13CHTO   N21 5095   8.097   4.418   1.546 -0.2155  0.1990  0.6821
   13CHTO  H211 5096   8.164   4.382   1.622  0.9513 -0.4846 -0.6578
   13CHTO  H212 5097   8.147   4.499   1.495 -0.4072  0.4847  0.9453
   13CHTO   O75 5098   7.647   4.634   1.454 -0.0547  0.9755  0.3480
   13CHTO  C112 5099   7.607   4.779   1.509  0.3016  0.0402 -0.4910
   13CHTO  H216 5100   7.701   4.821   1.548 -0.7803 -0.0116  2.3362
   13CHTO   O73 5101   7.513   4.757   1.617  0.5813  0.1982  0.5287
   13CHTO  C113 5102   7.433   4.860   1.666 -0.1917 -0.1244 -0.1162
   13CHTO  H217 5103   7.488   4.937   1.723 -0.4759 -1.4473  2.0195
   13CHTO  C124 5104   7.322   4.796   1.762 -0.1836  0.4470  0.0241
   13CHTO   O83 5105   7.383   4.723   1.866 -0.0187 -0.0229 -0.2551
   13CHTO  H204 5106   7.418   4.786   1.926  1.7788 -2.0899  0.9363
   13CHTO  C109 5107   7.361   4.924   1.551  0.0214  0.0195  0.5117
   13CHTO  H213 5108   7.300   4.846   1.502  1.1022 -0.1968 -0.5150
   13CHTO  C110 5109   7.462   4.973   1.448 -0.4438  0.1720  0.1591
   13CHTO  H214 5110   7.515   5.052   1.502 -1.4767  1.5580 -0.8209
   13CHTO   O78 5111   7.401   5.039   1.342 -0.4620 -0.3150 -0.3577
   13CHTO  H200 5112   7.436   5.126   1.339  0.2838 -0.6756 -2.6279
   13CHTO  C111 5113   7.551   4.866   1.395 -0.6735  0.2368  0.4840
   13CHTO  H215 5114   7.486   4.801   1.335 -2.5833 -0.8036  3.5475
   13CHTO   N19 5115   7.665   4.919   1.313  0.6681 -0.2033 -0.3111
   13CHTO  H207 5116   7.711   4.834   1.265  1.0737 -0.6411  0.8466
   13CHTO  H208 5117   7.622   4.977   1.232 -1.8066  0.0471  1.1353
   13CHTO   O74 5118   7.273   5.029   1.608  0.1695 -0.4026 -0.1497
   13CHTO  C115 5119   7.173   5.126   1.512 -0.1151 -0.2325  1.0648
   13CHTO  H219 5120   7.233   5.202   1.462  0.4664  0.3333  2.6009
   13CHTO   O76 5121   7.100   5.053   1.395  0.1736  0.1830  0.0769
   13CHTO  C122 5122   7.012   4.948   1.439 -0.3562 -0.1147  0.0360
   13CHTO  H226 5123   7.069   4.862   1.474 -0.5214 -0.0823  0.3935
   13CHTO  C126 5124   6.929   4.904   1.307 -0.0092  0.2931  0.4511
   13CHTO   O85 5125   7.009   4.879   1.193  0.0822 -0.5555  0.5482
   13CHTO  H206 5126   7.078   4.818   1.207 -0.9791 -1.7036  0.8013
   13CHTO  C121 5127   6.905   4.996   1.550  0.0623 -0.4242  0.8938
   13CHTO  H225 5128   6.805   4.967   1.511  0.9877 -1.2298 -0.9641
   13CHTO   O81 5129   6.931   4.929   1.673  0.2549  0.1467 -0.1454
   13CHTO  H202 5130   6.866   4.864   1.692  0.5913 -0.3300 -0.6185
   13CHTO  C119 5131   6.912   5.154   1.573  0.0858 -0.0298  0.1282
   13CHTO  H223 5132   6.886   5.201   1.478  0.8040 -1.6533 -0.8933
   13CHTO  C117 5133   7.062   5.196   1.602 -0.1686  0.0112  0.4656
   13CHTO  H221 5134   7.097   5.174   1.702 -0.0633  2.1545  0.9094
   13CHTO   N20 5135   7.078   5.348   1.594 -0.1007  0.5847 -0.5312
   13CHTO  H209 5136   6.998   5.413   1.562 -0.0523  0.2507 -1.3440
   13CHTO  H210 5137   7.182   5.370   1.578  0.3705 -1.5272 -0.4618
   13CHTO   O80 5138   6.807   5.227   1.679  0.4925  0.3700 -0.0719
   13CHTO  C103 5139   6.651   5.284   1.625  0.1814  0.3370 -0.1090
   13CHTO  H190 5140   6.607   5.331   1.713 -0.0071 -0.3760  0.1876
   13CHTO  C101 5141   6.646   5.379   1.497  0.5691 -0.0736  0.7019
   13CHTO  H188 5142   6.713   5.341   1.420  0.2196  2.4957 -0.9581
   13CHTO   O68 5143   6.702   5.520   1.540 -0.5119  0.0140  0.8908
   13CHTO  H168 5144   6.795   5.520   1.531 -0.3696  0.1918  2.2817
   13CHTO   C99 5145   6.493   5.392   1.441  0.9533 -0.2882  0.5198
   13CHTO  H186 5146   6.433   5.454   1.512  0.6052  0.6155 -0.5549
   13CHTO   N17 5147   6.487   5.454   1.303 -0.2529 -0.4351 -0.1475
   13CHTO  H174 5148   6.545   5.411   1.223 -0.2821  0.9240 -0.9184
   13CHTO  H175 5149   6.493   5.562   1.308 -1.2676 -0.3933  0.2288
   13CHTO   C97 5150   6.424   5.258   1.438  0.0722 -0.1477  0.0341
   13CHTO  H184 5151   6.475   5.204   1.357  1.0792  1.9875 -0.7867
   13CHTO   O64 5152   6.439   5.191   1.563 -0.0656  0.0090 -0.3374
   13CHTO  C104 5153   6.572   5.157   1.597 -0.2968 -0.4638 -0.2201
   13CHTO  H191 5154   6.615   5.105   1.512 -0.4039 -1.0377  0.0690
   13CHTO  C108 5155   6.584   5.064   1.721 -0.3874 -0.3565  0.3875
   13CHTO   O71 5156   6.466   4.979   1.733  0.0076 -0.3505 -0.0541
   13CHTO  H171 5157   6.394   5.031   1.764  0.8714 -0.6529  2.6554
   13CHTO   O62 5158   6.284   5.265   1.408  0.2613  0.4861  0.4702
   13CHTO   C91 5159   6.214   5.139   1.381  0.4541  0.1724  0.2510
   13CHTO  H178 5160   6.276   5.051   1.397  0.0790 -0.4328 -1.5299
   13CHTO   C92 5161   6.174   5.150   1.228 -0.9860  0.0657  0.0283
   13CHTO  H179 5162   6.118   5.243   1.211 -0.4990  0.0949 -1.5112
   13CHTO   O66 5163   6.291   5.157   1.145  0.1670 -0.5910  0.7226
   13CHTO  H166 5164   6.349   5.226   1.172 -0.6366  0.0176  0.9134
   13CHTO   C93 5165   6.081   5.030   1.185  0.0182  0.0270 -0.6421
   13CHTO  H180 5166   6.136   4.938   1.207  0.0911  0.3329  0.4872
   13CHTO   N16 5167   6.035   5.031   1.050 -0.0122  0.3763  0.3855
   13CHTO  H172 5168   5.973   5.118   1.036 -1.0936 -0.2022  1.6013
   13CHTO  H173 5169   5.989   4.937   1.024 -1.7706  0.1084  4.1702
   13CHTO   C94 5170   5.968   5.040   1.289  0.1146 -0.9580  0.1022
   13CHTO  H181 5171   5.917   5.137   1.279  0.5156 -0.5926  1.4846
   13CHTO   O61 5172   6.016   5.010   1.423  0.4704 -0.0874 -0.2171
   13CHTO   C95 5173   6.091   5.126   1.474  0.1034  0.0186  0.2374
   13CHTO  H182 5174   6.030   5.215   1.461 -1.1552 -1.0433 -1.2620
   13CHTO  C106 5175   6.113   5.101   1.624  0.0282 -0.1667 -0.0149
   13CHTO   O69 5176   6.166   5.215   1.694 -0.0328 -0.8624  0.0565
   13CHTO  H169 5177   6.236   5.250   1.643 -1.1967  2.2451  0.4411
   13CHTO   O63 5178   5.870   4.937   1.275 -0.5224  0.3017  0.4978
   13CHTO   C96 5179   5.722   4.947   1.361 -0.5510 -0.0220 -0.2207
   13CHTO  H183 5180   5.644   4.902   1.299  1.2985 -4.2315  0.3344
   13CHTO   C98 5181   5.683   5.095   1.380  0.1574 -0.0633  0.4454
   13CHTO  H185 5182   5.762   5.149   1.434 -0.6062  0.7693  0.7628
   13CHTO   O67 5183   5.677   5.152   1.247 -0.0443 -0.2742 -0.2125
   13CHTO  H167 5184   5.600   5.132   1.198 -0.0608 -1.9644  0.4726
   13CHTO  C102 5185   5.545   5.113   1.458 -0.4532 -0.2380 -0.6580
   13CHTO  H189 5186   5.472   5.078   1.384 -0.5198 -0.0861 -0.6661
   13CHTO   N18 5187   5.508   5.255   1.489 -0.1689 -0.2381  0.1565
   13CHTO  H176 5188   5.405   5.282   1.470 -0.1930  0.4690  1.2866
   13CHTO  H177 5189   5.544   5.291   1.584  1.9099 -0.4082 -0.5454
   13CHTO  C105 5190   5.548   5.024   1.585  0.0787  0.6261 -0.3868
   13CHTO  H192 5191   5.609   5.071   1.662 -0.7438  1.7320 -0.3864
   13CHTO   O65 5192   5.595   4.888   1.564 -0.1435 -0.3980  0.4525
   13CHTO  C100 5193   5.719   4.873   1.503 -0.1664  0.1255  0.5671
   13CHTO  H187 5194   5.796   4.909   1.573 -0.1319  1.6159 -0.2145
   13CHTO  C107 5195   5.754   4.719   1.491 -0.2988  0.3033 -0.3437
   13CHTO   O70 5196   5.849   4.678   1.389  0.0027  0.2534 -0.0394
   13CHTO  H170 5197   5.924   4.735   1.390  1.5157 -1.6252 -1.7014
   13CHTO   O57 5198   5.395   5.020   1.642 -0.0819 -0.4827 -0.0183
   13CHTO   C85 5199   5.292   4.942   1.580  0.3035 -0.4894  0.1943
   13CHTO  H157 5200   5.331   4.915   1.480  0.3204 -0.2369  0.1337
   13CHTO   C83 5201   5.166   5.022   1.551  0.0182  0.3381  0.7242
   13CHTO  H155 5202   5.189   5.120   1.511  0.3822 -0.5361 -1.2763
   13CHTO   O56 5203   5.106   5.060   1.671 -0.9178  0.2181  0.4134
   13CHTO  H135 5204   5.046   4.994   1.699 -0.3655  0.1909  1.5878
   13CHTO   C81 5205   5.068   4.941   1.464 -0.0986 -0.3064  0.7148
   13CHTO  H153 5206   5.118   4.908   1.373 -1.6654 -1.3709  0.2213
   13CHTO   N14 5207   4.952   5.019   1.404 -0.1835 -0.0479 -0.1110
   13CHTO  H141 5208   4.874   5.042   1.474 -1.3109  0.4928 -1.5269
   13CHTO  H142 5209   4.906   4.965   1.324 -1.9948 -0.2453  1.0243
   13CHTO   C79 5210   5.016   4.815   1.542  0.3653 -1.0715  0.0352
   13CHTO  H151 5211   4.965   4.751   1.470  2.0641 -1.7088 -0.6335
   13CHTO   O52 5212   5.134   4.749   1.585  0.0034  0.3638  0.0241
   13CHTO   C86 5213   5.239   4.817   1.660  0.2212  0.5738  0.2486
   13CHTO  H158 5214   5.190   4.837   1.757  0.4278 -0.5024  0.5816
   13CHTO   C90 5215   5.345   4.706   1.686 -0.5266  0.1651 -0.4281
   13CHTO   O60 5216   5.344   4.645   1.816 -0.1530 -0.2576 -0.6252
   13CHTO  H138 5217   5.264   4.597   1.825 -1.3836  1.9313  0.5089
   13CHTO   O50 5218   4.928   4.841   1.653 -0.4050 -0.5134  0.4200
   13CHTO   C73 5219   4.804   4.779   1.695 -0.1621  0.5549  0.2075
   13CHTO  H145 5220   4.767   4.718   1.610  0.0828  0.8905 -0.1404
   13CHTO   C74 5221   4.707   4.887   1.730 -0.6908 -0.0600 -0.1222
   13CHTO  H146 5222   4.692   4.951   1.642 -1.6955  1.5424  1.1776
   13CHTO   O54 5223   4.577   4.825   1.767  0.3059 -0.4636 -0.5135
   13CHTO  H133 5224   4.564   4.833   1.859  1.1856 -4.7844  0.0961
   13CHTO   C75 5225   4.767   4.967   1.851 -0.0355 -0.0858 -0.2615
   13CHTO  H147 5226   4.865   5.007   1.820  0.7664  0.0103  2.2485
   13CHTO   N13 5227   4.676   5.076   1.890 -0.5742 -0.0315  0.6306
   13CHTO  H139 5228   4.728   5.151   1.948  0.9345 -2.1617  2.1146
   13CHTO  H140 5229   4.603   5.031   1.956 -1.2372 -0.9013 -0.6667
   13CHTO   C76 5230   4.811   4.871   1.973 -0.0330  0.5574 -0.0179
   13CHTO  H148 5231   4.721   4.821   2.009 -1.5443  2.2870 -1.2979
   13CHTO   O49 5232   4.905   4.772   1.916  0.0626  0.3001 -0.3435
   13CHTO   C77 5233   4.838   4.691   1.814  0.1392  0.2575  0.2151
   13CHTO  H149 5234   4.743   4.648   1.848 -0.5195  1.1413 -0.5012
   13CHTO   C88 5235   4.923   4.573   1.778  0.0423  0.0237 -1.0078
   13CHTO   O58 5236   4.868   4.499   1.677 -0.0839  0.1147 -0.2523
   13CHTO  H136 5237   4.850   4.413   1.711  3.0576 -1.3562 -2.0933
   13CHTO   O51 5238   4.879   4.946   2.096 -0.2872  0.0340 -0.0079
   13CHTO   C78 5239   5.036   4.984   2.104  0.4668  0.2899 -0.2841
   13CHTO  H150 5240   5.057   5.025   2.205  1.0758  0.8990 -0.6535
   13CHTO   C80 5241   5.083   5.084   1.994  0.1177 -0.2950  0.1733
   13CHTO  H152 5242   5.063   5.036   1.896 -1.3568  0.3559  0.1317
   13CHTO   O55 5243   5.006   5.205   2.010  0.0478  0.0827 -0.1259
   13CHTO  H134 5244   5.013   5.265   1.938 -3.0645  1.2996  0.5155
   13CHTO   C84 5245   5.239   5.118   1.996  0.1296 -1.2980  0.3934
   13CHTO  H156 5246   5.272   5.165   2.089 -0.9365  0.2920 -0.0215
   13CHTO   N15 5247   5.273   5.218   1.891 -0.2084  0.3818  0.2797
   13CHTO  H143 5248   5.259   5.183   1.791  0.7819 -0.1948  0.3342
   13CHTO  H144 5249   5.373   5.256   1.901  0.0202  0.0900 -0.8383
   13CHTO   C87 5250   5.323   4.990   2.003  0.2965  0.5283  0.3842
   13CHTO  H159 5251   5.306   4.946   1.905 -2.1357 -0.0067  1.0278
   13CHTO   O53 5252   5.266   4.895   2.122 -0.3124 -0.6530  0.0295
   13CHTO   C82 5253   5.131   4.863   2.088  0.6456 -0.6100  0.0920
   13CHTO  H154 5254   5.129   4.825   1.986 -0.7683 -0.0577 -0.1016
   13CHTO   C89 5255   5.091   4.752   2.180  0.2241  0.7472 -0.6950
   13CHTO   O59 5256   5.195   4.654   2.199  0.3635 -0.5218  0.1854
   13CHTO  H137 5257   5.153   4.571   2.212  0.0726 -0.3559  0.2986
   13CHTO   O45 5258   5.475   5.021   2.004  0.0048 -0.3402 -0.8645
   13CHTO   C67 5259   5.560   4.903   1.983 -0.1405 -0.2858 -0.5305
   13CHTO  H124 5260   5.501   4.830   1.927 -1.7282 -0.1763  0.9462
   13CHTO   C65 5261   5.699   4.936   1.910  0.1273 -0.1872 -0.4108
   13CHTO  H122 5262   5.668   4.990   1.820  0.3548 -0.0799 -0.4262
   13CHTO   O44 5263   5.759   4.807   1.873 -0.1204 -0.0271 -0.0440
   13CHTO  H102 5264   5.837   4.779   1.916 -2.4703 -1.9712  3.2406
   13CHTO   C63 5265   5.782   5.035   1.997 -0.6924 -0.6381  0.8857
   13CHTO  H120 5266   5.727   5.129   2.010  0.9324  0.6721 -1.4617
   13CHTO   N11 5267   5.897   5.097   1.917  0.0425 -0.5820 -0.0052
   13CHTO  H108 5268   5.860   5.109   1.818 -0.2870  0.7541  0.2749
   13CHTO  H109 5269   5.981   5.030   1.920  0.8004  0.4183  3.2745
   13CHTO   C61 5270   5.806   4.972   2.139 -0.3124 -0.4759 -0.3270
   13CHTO  H118 5271   5.843   5.056   2.200 -0.8637 -0.6057  0.1922
   13CHTO   O40 5272   5.689   4.915   2.200  0.0274 -0.0500 -0.2238
   13CHTO   C68 5273   5.591   4.835   2.127 -0.2180 -0.3759  0.1384
   13CHTO  H125 5274   5.497   4.842   2.186  0.6759 -1.4471  1.7571
   13CHTO   C72 5275   5.628   4.685   2.119  0.0131 -0.2610 -0.1913
   13CHTO   O48 5276   5.528   4.607   2.051  0.0856 -0.5957 -0.5518
   13CHTO  H105 5277   5.453   4.582   2.101 -0.3039 -2.0052 -1.7832
   13CHTO   O38 5278   5.904   4.864   2.125 -0.0234 -0.1490  0.2817
   13CHTO   C55 5279   6.003   4.845   2.224  0.6011 -0.0785  0.4681
   13CHTO  H112 5280   6.014   4.736   2.212  1.2958 -0.0623  0.9296
   13CHTO   C56 5281   5.958   4.886   2.379  0.0850 -0.2713 -0.1459
   13CHTO  H113 5282   5.907   4.983   2.378  0.2917 -0.1240 -3.4419
   13CHTO   O42 5283   5.857   4.792   2.426  0.1498 -0.3035 -0.6736
   13CHTO  H100 5284   5.776   4.793   2.378 -0.9819  1.0351  1.1556
   13CHTO   C57 5285   6.079   4.884   2.476  0.7256  0.3598  0.3381
   13CHTO  H114 5286   6.111   4.781   2.492 -1.7393 -0.3931  0.6485
   13CHTO   N10 5287   6.054   4.939   2.614  0.4353  0.1956 -0.0465
   13CHTO  H106 5288   6.126   4.889   2.677  1.2827  0.7800 -0.5384
   13CHTO  H107 5289   5.954   4.909   2.641  0.0242  0.1714 -1.5841
   13CHTO   C58 5290   6.200   4.962   2.413 -0.0021 -0.2451  0.6015
   13CHTO  H115 5291   6.176   5.069   2.397  1.0983 -0.0749  0.0764
   13CHTO   O37 5292   6.236   4.904   2.288  0.0318 -0.6705 -0.0935
   13CHTO   C59 5293   6.140   4.918   2.183  0.2258  0.2836 -0.1956
   13CHTO  H116 5294   6.133   5.022   2.151 -0.6656  0.2219 -0.2201
   13CHTO   C70 5295   6.201   4.848   2.064 -0.3844 -0.7125  0.4964
   13CHTO   O46 5296   6.129   4.851   1.941  0.1721 -0.4943  0.1961
   13CHTO  H103 5297   6.188   4.822   1.873 -0.0030 -1.4787  0.4524
   13CHTO   O39 5298   6.344   4.944   2.514 -0.2710  0.0232  0.2625
   13CHTO   C60 5299   6.412   5.064   2.512 -0.4739 -0.0528  0.2995
   13CHTO  H117 5300   6.409   5.098   2.409  1.8162 -1.7085 -0.3592
   13CHTO   C62 5301   6.350   5.175   2.599 -0.4047 -0.3662 -0.2187
   13CHTO  H119 5302   6.245   5.192   2.565 -0.1337  0.2041 -0.7865
   13CHTO   O43 5303   6.343   5.122   2.737 -1.2239  0.1488  0.1834
   13CHTO  H101 5304   6.394   5.167   2.802 -0.1780 -0.9135  0.1142
   13CHTO   C66 5305   6.433   5.309   2.579 -0.4775  0.0004  0.1158
   13CHTO  H123 5306   6.441   5.336   2.474  0.5633  0.6383  0.3547
   13CHTO   N12 5307   6.381   5.426   2.650  0.6141 -0.2906 -0.1068
   13CHTO  H110 5308   6.391   5.416   2.757 -0.8019 -2.7294 -0.1638
   13CHTO  H111 5309   6.275   5.426   2.634  0.8923 -2.9362 -2.2363
   13CHTO   C69 5310   6.585   5.279   2.618 -0.4264 -0.5859 -0.2590
   13CHTO  H126 5311   6.595   5.271   2.728  0.4922  0.2542 -0.2735
   13CHTO   O41 5312   6.641   5.162   2.531  0.3299 -0.8193  0.4962
   13CHTO   C64 5313   6.557   5.033   2.545 -0.7974 -0.1682 -0.1658
   13CHTO  H121 5314   6.562   4.997   2.649 -1.2400  1.9986  0.6433
   13CHTO   C71 5315   6.614   4.924   2.453 -0.3724 -0.1233  0.1364
   13CHTO   O47 5316   6.624   4.976   2.321  0.7961  0.1102 -0.1252
   13CHTO  H104 5317   6.612   4.909   2.256 -2.1369  0.5122 -0.0777
   13CHTO   O34 5318   6.670   5.399   2.573  0.1495 -0.2504 -0.2532
   13CHTO   C49 5319   6.790   5.482   2.535  0.1574 -0.6862 -0.3766
   13CHTO   H91 5320   6.857   5.427   2.469  1.7712  1.2472 -0.4078
   13CHTO   C47 5321   6.873   5.491   2.666  0.1903 -0.1816  0.0643
   13CHTO   H89 5322   6.967   5.539   2.633  0.7031 -0.0471  1.6895
   13CHTO   O33 5323   6.912   5.358   2.717  0.4001 -0.0500 -0.5864
   13CHTO   H70 5324   6.959   5.303   2.658 -2.0165 -0.8784 -1.7999
   13CHTO   C45 5325   6.813   5.571   2.792  0.2621  0.0964  0.3669
   13CHTO   H87 5326   6.762   5.501   2.860  3.0572 -2.6750 -0.2307
   13CHTO    N8 5327   6.926   5.633   2.865  0.2718 -0.0716 -0.5358
   13CHTO   H75 5328   6.931   5.741   2.862  2.1936 -0.1247  0.3228
   13CHTO   H76 5329   6.937   5.596   2.965 -0.4463  1.3305  0.0647
   13CHTO   C43 5330   6.698   5.670   2.730 -0.3769  0.3466  0.3494
   13CHTO   H85 5331   6.610   5.605   2.727  0.7052 -1.1292  0.3301
   13CHTO   O29 5332   6.734   5.719   2.603 -0.0366 -0.4823 -0.2582
   13CHTO   C50 5333   6.756   5.627   2.494 -0.1238 -1.0967 -0.2980
   13CHTO   H92 5334   6.676   5.612   2.419 -0.0816  0.5864 -0.6981
   13CHTO   C54 5335   6.866   5.693   2.405 -0.3414 -0.4474 -0.4357
   13CHTO   O36 5336   6.919   5.632   2.289  0.1002  0.4234 -0.1338
   13CHTO   H72 5337   6.985   5.683   2.247  1.0990 -1.0399 -0.3699
   13CHTO   O27 5338   6.660   5.781   2.813  0.1009 -0.3795 -0.3213
   13CHTO   C37 5339   6.615   5.914   2.852  0.4177 -0.9505  0.2212
   13CHTO   H79 5340   6.587   5.915   2.958 -1.2117  1.4469 -0.1744
   13CHTO   C38 5341   6.729   6.015   2.833 -0.4639 -0.1989  0.1719
   13CHTO   H80 5342   6.775   6.004   2.734 -0.8178 -1.0365  0.1029
   13CHTO   O31 5343   6.833   5.992   2.935  0.1491 -0.0432  0.2683
   13CHTO   H68 5344   6.847   6.068   2.988  1.7934  0.2611 -0.5536
   13CHTO   C39 5345   6.672   6.159   2.849 -0.1129 -0.3561  0.3296
   13CHTO   H81 5346   6.653   6.183   2.953 -0.0262 -1.5742  0.6326
   13CHTO    N7 5347   6.778   6.261   2.810  0.0580  0.0371  0.0697
   13CHTO   H73 5348   6.827   6.248   2.714  0.7317  0.5446  0.3410
   13CHTO   H74 5349   6.853   6.251   2.887  0.4565  0.2174 -0.2908
   13CHTO   C40 5350   6.543   6.185   2.764  0.6756 -0.1885 -0.1742
   13CHTO   H82 5351   6.570   6.185   2.659 -0.1904 -2.4657 -0.4138
   13CHTO   O26 5352   6.441   6.085   2.792 -0.8259  0.8734  0.7415
   13CHTO   C41 5353   6.487   5.949   2.771 -0.5931 -0.2776  0.0467
   13CHTO   H83 5354   6.517   5.934   2.666  0.1917 -0.2741  0.2664
   13CHTO   C52 5355   6.375   5.852   2.805 -0.2144  0.4405  0.0231
   13CHTO   O35 5356   6.319   5.879   2.936  0.0209 -0.1282 -0.6579
   13CHTO   H71 5357   6.241   5.930   2.922 -0.2809 -0.1752  0.7560
   13CHTO   O28 5358   6.478   6.311   2.807  0.3000  0.0244  0.0879
   13CHTO   C42 5359   6.471   6.439   2.730 -0.3583  0.4709 -0.2492
   13CHTO   H84 5360   6.549   6.437   2.655  0.7668 -2.4561  0.9459
   13CHTO   C44 5361   6.493   6.558   2.826 -0.2499 -0.4482 -0.0175
   13CHTO   H86 5362   6.421   6.554   2.908  0.6398 -0.4525  0.7726
   13CHTO   O32 5363   6.622   6.540   2.885  0.1298  0.1455 -0.5477
   13CHTO   H69 5364   6.618   6.472   2.949 -0.1429  0.6425 -0.0228
   13CHTO   C48 5365   6.474   6.697   2.753  0.3963 -0.0361  0.4937
   13CHTO   H90 5366   6.551   6.702   2.676  0.9529  1.9690  1.1571
   13CHTO    N9 5367   6.492   6.820   2.841 -0.6479  0.1690  0.1886
   13CHTO   H77 5368   6.402   6.880   2.848 -0.3771  0.6225 -0.1969
   13CHTO   H78 5369   6.573   6.878   2.799  1.2422 -0.7950  2.4063
   13CHTO   C51 5370   6.332   6.708   2.684 -0.3960  0.4624  0.5170
   13CHTO   H93 5371   6.262   6.693   2.765 -1.8394 -0.2962 -0.8539
   13CHTO   O30 5372   6.330   6.603   2.585 -0.0580 -0.4705  0.0243
   13CHTO   C46 5373   6.342   6.453   2.652 -0.6900  0.2215 -0.0579
   13CHTO   H88 5374   6.259   6.430   2.720  1.0795  1.4863  2.6394
   13CHTO   C53 5375   6.338   6.348   2.537  0.5702  0.3109 -0.4100
   13CHTO   O72 5376   6.264   6.233   2.584 -0.8131  0.2292 -0.1314
   13CHTO  H199 5377   6.192   6.258   2.638  0.0375  0.6018  0.8436
   13CHTO   O22 5378   6.304   6.835   2.614 -0.2733 -0.1483 -0.0351
   13CHTO   C31 5379   6.177   6.892   2.586  0.1304 -0.2997  0.3285
   13CHTO   H59 5380   6.194   6.989   2.535  2.0658 -0.7274  0.1265
   13CHTO   C29 5381   6.098   6.804   2.488  0.7640 -0.0961  0.2716
   13CHTO   H57 5382   6.083   6.705   2.533 -1.2481 -0.5186 -1.2320
   13CHTO   O21 5383   6.172   6.780   2.367  0.1197 -0.2342  0.7511
   13CHTO   H37 5384   6.255   6.739   2.381  1.0103  0.3531 -2.4478
   13CHTO   C27 5385   5.954   6.863   2.459 -0.8853  0.8050  0.7011
   13CHTO   H55 5386   5.968   6.949   2.392 -2.2054 -1.0425 -2.0174
   13CHTO    N5 5387   5.879   6.755   2.382 -0.0489 -0.0270 -0.3917
   13CHTO   H43 5388   5.892   6.657   2.426  1.3671  0.0043 -0.7066
   13CHTO   H44 5389   5.889   6.773   2.276  1.1835 -0.1859 -0.3098
   13CHTO   C25 5390   5.881   6.922   2.582 -0.1761 -0.0880  0.3655
   13CHTO   H53 5391   5.827   6.841   2.633  0.1477 -0.1637  0.5850
   13CHTO   O17 5392   5.965   6.993   2.674 -0.2085  0.0380 -0.0282
   13CHTO   C32 5393   6.087   6.928   2.711  0.2309  0.3090 -0.4169
   13CHTO   H60 5394   6.062   6.833   2.757  0.2827  0.6386  0.2993
   13CHTO   C36 5395   6.163   7.027   2.808  0.8840 -0.2353 -0.1879
   13CHTO   O25 5396   6.106   7.017   2.944  0.0484  0.2789  0.1334
   13CHTO   H40 5397   6.104   7.107   2.970  0.6957  0.7976 -1.5594
   13CHTO   O15 5398   5.788   7.019   2.535 -0.1624  0.3895 -0.3874
   13CHTO   C19 5399   5.657   7.076   2.551  0.0283 -0.3324 -0.0087
   13CHTO   H47 5400   5.646   7.083   2.661 -1.9328  0.3888 -0.2244
   13CHTO   C20 5401   5.655   7.230   2.507 -0.1593  0.2691  0.3903
   13CHTO   H48 5402   5.671   7.244   2.399  0.4379  0.6202  0.5228
   13CHTO   O19 5403   5.767   7.288   2.583 -0.6728 -0.2241  0.2321
   13CHTO   H35 5404   5.846   7.239   2.571  0.2285  1.1952  0.2992
   13CHTO   C21 5405   5.513   7.290   2.539  0.6092 -0.3502  0.1171
   13CHTO   H49 5406   5.510   7.297   2.648  1.1447  1.4460  0.0297
   13CHTO    N4 5407   5.493   7.430   2.500  0.2007  0.4263 -0.0251
   13CHTO   H41 5408   5.578   7.493   2.524 -0.5407  1.6252 -0.4855
   13CHTO   H42 5409   5.466   7.436   2.396  0.2123 -0.8043 -0.1038
   13CHTO   C22 5410   5.405   7.196   2.488  0.4446  0.1049  0.3953
   13CHTO   H50 5411   5.428   7.186   2.382 -1.0586  0.5056  0.0107
   13CHTO   O14 5412   5.415   7.067   2.550 -0.1046  0.2196  0.0122
   13CHTO   C23 5413   5.531   6.995   2.504 -0.4565 -0.2037 -0.3693
   13CHTO   H51 5414   5.526   6.986   2.394 -1.2368  2.2041 -0.5676
   13CHTO   C34 5415   5.542   6.854   2.568 -0.6139  0.4430 -0.4972
   13CHTO   O23 5416   5.440   6.779   2.503  0.0045  0.1787 -0.3576
   13CHTO   H38 5417   5.358   6.814   2.532  0.1657 -1.2636  1.9287
   13CHTO   O16 5418   5.271   7.240   2.499  0.3248  0.1899  0.3384
   13CHTO   C24 5419   5.141   7.124   2.502  0.5441 -0.0441 -0.7705
   13CHTO   H52 5420   5.159   7.041   2.570 -1.4113 -1.2283 -1.6198
   13CHTO   C26 5421   5.125   7.051   2.365  0.0990 -0.7543 -0.1484
   13CHTO   H54 5422   5.123   7.125   2.282  2.9108 -0.8549 -0.3341
   13CHTO   O20 5423   5.232   6.958   2.358 -0.2365  0.0532 -0.7408
   13CHTO   H36 5424   5.275   6.951   2.275  4.0755  1.1309  1.2337
   13CHTO   C30 5425   4.984   6.982   2.349 -0.3714 -0.3943  0.3125
   13CHTO   H58 5426   4.978   6.899   2.420 -1.4463 -1.0857 -0.5656
   13CHTO    N6 5427   4.969   6.921   2.216  0.3583 -0.1866  0.3337
   13CHTO   H45 5428   5.054   6.930   2.150  0.5212  0.5961  0.6541
   13CHTO   H46 5429   4.946   6.816   2.218  1.5790 -0.4588  0.4693
   13CHTO   C33 5430   4.869   7.071   2.405  0.1214 -0.0977  0.2590
   13CHTO   H61 5431   4.860   7.160   2.341  0.4492  0.0745  0.4499
   13CHTO   O18 5432   4.899   7.116   2.538  0.1466  0.1447 -0.0233
   13CHTO   C28 5433   5.013   7.198   2.553 -0.5782 -0.9657  0.3880
   13CHTO   H56 5434   4.999   7.290   2.497  0.1983  0.0222  1.7904
   13CHTO   C35 5435   5.022   7.230   2.699  0.5309 -0.0631  0.2356
   13CHTO   O24 5436   4.932   7.323   2.749 -0.0713  0.0204 -0.4408
   13CHTO   H39 5437   4.975   7.361   2.824  1.5014 -2.2705 -0.1526
   13CHTO    O9 5438   4.742   7.009   2.398  0.5528  0.1258 -0.2719
   13CHTO   C13 5439   4.706   6.916   2.517  0.3372  0.5962 -0.0407
   13CHTO   H26 5440   4.802   6.887   2.565  1.3708 -0.6282 -2.7176
   13CHTO   C11 5441   4.631   6.794   2.471  0.2679  0.3957  0.0560
   13CHTO   H24 5442   4.683   6.737   2.392 -2.4364 -0.7235 -0.9786
   13CHTO    O8 5443   4.498   6.824   2.426  0.1466 -0.0514 -0.2780
   13CHTO    H3 5444   4.448   6.828   2.505 -0.8507 -0.0638 -0.8954
   13CHTO    C9 5445   4.632   6.707   2.602  0.1520 -0.0054 -0.0118
   13CHTO   H22 5446   4.736   6.705   2.638 -0.1955  0.2246  1.0458
   13CHTO    N2 5447   4.593   6.568   2.580  0.6570 -0.6788  0.1981
   13CHTO   H10 5448   4.509   6.551   2.514  1.0249 -2.0815  0.0762
   13CHTO   H11 5449   4.675   6.500   2.562 -0.6242 -2.2588  0.1095
   13CHTO    C7 5450   4.551   6.782   2.723 -0.0919 -0.1184  0.1921
   13CHTO   H20 5451   4.626   6.769   2.803  2.3227 -0.5791 -2.0605
   13CHTO    O4 5452   4.527   6.921   2.697 -0.0371  0.4286 -0.1818
   13CHTO   C14 5453   4.629   6.999   2.627 -0.0054 -0.1907  0.2568
   13CHTO   H27 5454   4.705   7.027   2.703  0.8200 -0.3122 -0.5167
   13CHTO   C18 5455   4.563   7.129   2.582  0.1964  0.2299 -0.4692
   13CHTO   O13 5456   4.644   7.243   2.561  0.5891 -0.1944  0.1788
   13CHTO    H7 5457   4.609   7.320   2.602 -0.2188  0.9588 -2.5940
   13CHTO    O2 5458   4.412   6.715   2.757 -0.3476  0.4903  0.1474
   13CHTO    C1 5459   4.389   6.713   2.898  0.2858  0.6378 -0.6001
   13CHTO   H14 5460   4.444   6.795   2.948 -0.9279  1.6128 -0.8505
   13CHTO    C2 5461   4.438   6.581   2.975  0.3898  0.0009 -0.3887
   13CHTO   H15 5462   4.385   6.493   2.935  1.7112 -0.4041 -1.3033
   13CHTO    O6 5463   4.579   6.567   2.952 -0.1273 -0.3270  0.1198
   13CHTO    H1 5464   4.602   6.548   2.863 -3.4044  0.8535 -1.0554
   13CHTO    C3 5465   4.400   6.604   3.129  0.0933 -0.0155 -0.3169
   13CHTO   H16 5466   4.467   6.684   3.164 -0.5767  0.6111 -0.4404
   13CHTO    N1 5467   4.434   6.479   3.204  0.3541 -0.5804  0.1843
   13CHTO    H8 5468   4.532   6.497   3.245 -0.5003  1.3830  1.4616
   13CHTO    H9 5469   4.440   6.390   3.144 -0.7100 -0.7462  0.3192
   13CHTO    C4 5470   4.258   6.651   3.161 -0.3892 -0.1962 -0.6408
   13CHTO   H17 5471   4.187   6.569   3.153 -0.0727 -0.7966  2.1587
   13CHTO    O1 5472   4.223   6.755   3.070  0.2980  0.0547  0.0791
   13CHTO    C5 5473   4.241   6.741   2.923  0.2812  0.0420  0.7285
   13CHTO   H18 5474   4.190   6.660   2.872 -1.7711 -0.0572  2.8537
   13CHTO   C16 5475   4.205   6.872   2.850 -0.5444 -0.0650 -0.7490
   13CHTO   O11 5476   4.067   6.898   2.864 -0.0582 -0.1005 -0.0894
   13CHTO    H5 5477   4.029   6.905   2.949 -1.3391  0.4804 -0.6962
   13CHTO    O3 5478   4.249   6.720   3.289 -0.4214  0.3764 -0.0359
   13CHTO    C6 5479   4.124   6.717   3.360 -0.2430  0.6622  0.5631
   13CHTO   H19 5480   4.045   6.673   3.300 -0.4447 -1.9532  2.6297
   13CHTO    C8 5481   4.144   6.632   3.493  0.1346 -0.0673  0.1383
   13CHTO   H21 5482   4.227   6.680   3.546 -1.6959  0.1954  2.8936
   13CHTO    O7 5483   4.180   6.497   3.465 -0.1694  0.4447 -0.5886
   13CHTO    H2 5484   4.260   6.488   3.416 -0.8785  1.0691 -1.8821
   13CHTO   C12 5485   4.011   6.637   3.591 -0.2660  0.2809  0.1140
   13CHTO   H25 5486   3.935   6.581   3.534 -0.0782  0.7731 -0.6248
   13CHTO    N3 5487   4.022   6.562   3.714  0.1898  1.1307 -1.4111
   13CHTO   H12 5488   3.928   6.571   3.767 -0.0035  2.5210 -1.9813
   13CHTO   H13 5489   4.029   6.459   3.682 -0.3209  1.2591 -1.9533
   13CHTO   C15 5490   3.964   6.789   3.605 -0.0584  0.3182 -0.0893
   13CHTO   H28 5491   4.031   6.841   3.674  0.6624 -0.1308 -0.4487
   13CHTO   O10 5492   3.814   6.790   3.655  0.0102  0.8108  0.1076
   13CHTO    H4 5493   3.747   6.791   3.589 -0.5534  3.5806  0.6428
   13CHTO    O5 5494   3.953   6.855   3.476 -0.3330  0.6470  0.0508
   13CHTO   C10 5495   4.076   6.856   3.401 -0.0656  0.3368  0.0630
   13CHTO   H23 5496   4.145   6.896   3.475 -2.3739  1.2113  1.8224
   13CHTO   C17 5497   4.069   6.957   3.287  0.3354 -0.4130  0.8409
   13CHTO   O12 5498   4.020   7.084   3.339  0.2158  0.7235 -0.0706
   13CHTO    H6 5499   3.927   7.086   3.329  0.0719  0.5673  1.1914
   14CHTO  H203 5500   6.853   4.550   1.955 -0.9620 -0.0818 -0.5790
   14CHTO   O82 5501   6.802   4.552   2.034 -0.1663 -0.0298 -0.0580
   14CHTO  C123 5502   6.665   4.551   1.988 -0.5305 -0.3706 -0.7322
   14CHTO  H227 5503   6.659   4.630   1.911  1.5219  1.0523  0.5241
   14CHTO   O77 5504   6.653   4.414   1.937  0.5074 -0.3421  0.5713
   14CHTO  C118 5505   6.548   4.402   1.849 -0.4222 -0.5597  0.3708
   14CHTO  H222 5506   6.563   4.469   1.762  0.7096 -0.5891  0.5361
   14CHTO  C125 5507   6.550   4.252   1.795  0.1838  0.2731  0.5881
   14CHTO   O84 5508   6.465   4.230   1.685  0.1541  0.1400  0.0885
   14CHTO  H205 5509   6.495   4.157   1.635 -0.4618 -0.0661  0.0091
   14CHTO  C114 5510   6.409   4.424   1.919 -0.4060 -0.0002  0.3053
   14CHTO  H218 5511   6.380   4.330   1.966  0.5160 -0.5293 -0.1730
   14CHTO  C116 5512   6.416   4.548   2.010 -0.3160  0.0559  0.4505
   14CHTO  H220 5513   6.411   4.631   1.937  1.2844  0.2013  0.4909
   14CHTO   O79 5514   6.298   4.548   2.092  0.4909  0.1682  0.1894
   14CHTO  H201 5515   6.309   4.607   2.164 -0.3453 -0.7780  1.1035
   14CHTO  C120 5516   6.552   4.568   2.090  0.4418  0.6036  0.1716
   14CHTO  H224 5517   6.553   4.489   2.168 -3.2348  1.1464  0.8478
   14CHTO   N21 5518   6.548   4.705   2.146  0.6074  0.1102  0.0857
   14CHTO  H211 5519   6.647   4.745   2.159  1.4568 -0.4855 -3.9565
   14CHTO  H212 5520   6.487   4.776   2.093  0.8291  0.7598  0.7012
   14CHTO   O75 5521   6.324   4.450   1.800 -0.4397  0.5450 -0.2031
   14CHTO  C112 5522   6.160   4.439   1.823  0.6736 -0.5707 -0.5035
   14CHTO  H216 5523   6.126   4.514   1.896 -0.5975 -0.8061 -0.8456
   14CHTO   O73 5524   6.135   4.307   1.868 -0.1495  0.2953  0.0871
   14CHTO  C113 5525   6.001   4.292   1.902  0.2755  0.0288 -0.5092
   14CHTO  H217 5526   5.969   4.365   1.979  0.5803  0.1268 -0.4751
   14CHTO  C124 5527   6.003   4.160   1.967  0.7078  0.6196 -0.0033
   14CHTO   O83 5528   5.873   4.110   2.003 -0.0346 -0.1137 -0.2985
   14CHTO  H204 5529   5.885   4.027   2.044  0.5892  0.1410  0.0484
   14CHTO  C109 5530   5.916   4.297   1.775 -0.1082 -0.4636 -0.2607
   14CHTO  H213 5531   5.933   4.203   1.721 -1.8222 -0.7868 -0.2668
   14CHTO  C110 5532   5.941   4.421   1.681 -0.1303  1.0386 -0.9494
   14CHTO  H214 5533   5.885   4.504   1.724 -2.0565 -1.7080  2.0313
   14CHTO   O78 5534   5.880   4.395   1.555 -0.1855 -0.7947  0.4568
   14CHTO  H200 5535   5.862   4.472   1.505  0.3053 -0.1272  1.2861
   14CHTO  C111 5536   6.092   4.459   1.676  0.3530 -0.8170 -0.8097
   14CHTO  H215 5537   6.140   4.391   1.604 -0.2950 -0.4595 -1.5788
   14CHTO   N19 5538   6.120   4.597   1.632  0.8521  0.0040 -0.3184
   14CHTO  H207 5539   6.227   4.609   1.627  0.6877  1.8000  0.0670
   14CHTO  H208 5540   6.069   4.618   1.538  0.8561  2.7952  0.2558
   14CHTO   O74 5541   5.777   4.306   1.813 -0.1879 -0.2113  0.4259
   14CHTO  C115 5542   5.679   4.213   1.707 -0.1457 -0.5159 -0.1531
   14CHTO  H219 5543   5.657   4.269   1.616 -1.4179  0.4263  0.7234
   14CHTO   O76 5544   5.755   4.084   1.651  0.1607  0.2148  0.2771
   14CHTO  C122 5545   5.667   3.996   1.569 -0.7173  0.2170  0.0483
   14CHTO  H226 5546   5.731   3.907   1.560 -0.8005  0.0935  0.6332
   14CHTO  C126 5547   5.659   4.061   1.424 -0.5646 -0.1810 -0.3226
   14CHTO   O85 5548   5.637   3.972   1.318  0.2760 -0.4156  0.5411
   14CHTO  H206 5549   5.719   3.941   1.285  0.0391  0.4708 -0.9501
   14CHTO  C121 5550   5.524   3.971   1.630  0.7088  0.2087  1.3323
   14CHTO  H225 5551   5.462   3.929   1.549  1.1925 -0.1566  1.1461
   14CHTO   O81 5552   5.532   3.862   1.725  0.3626 -0.0996 -0.1851
   14CHTO  H202 5553   5.454   3.817   1.747  0.5707 -0.2609  0.2179
   14CHTO  C119 5554   5.453   4.100   1.682 -0.0314  0.5115  0.1570
   14CHTO  H223 5555   5.441   4.169   1.598  2.0255  0.6053 -0.1064
   14CHTO  C117 5556   5.543   4.178   1.780 -0.0333  0.0429 -0.2836
   14CHTO  H221 5557   5.563   4.126   1.874 -1.1078  2.1413  1.1412
   14CHTO   N20 5558   5.486   4.316   1.821  0.1727  0.1705 -0.5199
   14CHTO  H209 5559   5.468   4.331   1.926  0.5875  0.5009 -0.4892
   14CHTO  H210 5560   5.417   4.362   1.752 -0.4094  0.0355 -0.0227
   14CHTO   O80 5561   5.312   4.073   1.725  0.6076  0.3709 -0.3780
   14CHTO  C103 5562   5.211   4.027   1.625 -0.3265  0.4914 -0.0982
   14CHTO  H190 5563   5.255   4.009   1.527  3.0119  0.5079  1.3360
   14CHTO  C101 5564   5.128   3.901   1.662  0.1699 -0.5193  0.3142
   14CHTO  H188 5565   5.107   3.912   1.769  0.8285  3.3580  0.1079
   14CHTO   O68 5566   5.227   3.775   1.644  0.1546 -0.1278  0.7078
   14CHTO  H168 5567   5.197   3.718   1.575 -2.0219  1.3949  0.3708
   14CHTO   C99 5568   4.988   3.882   1.579 -0.4903 -0.3235 -0.1393
   14CHTO  H186 5569   5.021   3.862   1.475  3.5184 -0.9795  1.2011
   14CHTO   N17 5570   4.906   3.772   1.626  0.0415  0.4877  0.2821
   14CHTO  H174 5571   4.808   3.803   1.659  0.0001  0.2083  0.4234
   14CHTO  H175 5572   4.898   3.694   1.551 -1.6296  0.4433  0.4777
   14CHTO   C97 5573   4.909   4.016   1.583  0.5147 -0.2428  0.5608
   14CHTO  H184 5574   4.869   4.042   1.682 -0.0737  1.1776 -0.0263
   14CHTO   O64 5575   4.999   4.111   1.533  0.3523  0.7065 -0.0761
   14CHTO  C104 5576   5.106   4.147   1.611  0.0542 -0.3626 -0.2756
   14CHTO  H191 5577   5.063   4.176   1.707  1.4351 -0.8893  0.5380
   14CHTO  C108 5578   5.166   4.272   1.553 -0.4928 -0.3693 -0.5437
   14CHTO   O71 5579   5.261   4.349   1.635 -0.0426  0.2810  0.5256
   14CHTO  H171 5580   5.319   4.405   1.586 -0.3536 -0.2540 -0.4688
   14CHTO   O62 5581   4.811   4.008   1.482  0.7053  0.3421  0.0521
   14CHTO   C91 5582   4.691   4.086   1.493  0.8013 -0.6417  0.8132
   14CHTO  H178 5583   4.617   4.015   1.527 -0.6295  0.2934 -0.2728
   14CHTO   C92 5584   4.645   4.137   1.351 -0.4580 -0.1026 -1.0044
   14CHTO  H179 5585   4.682   4.067   1.275  0.6536 -1.2744  0.5807
   14CHTO   O66 5586   4.505   4.123   1.332 -0.1261  0.0927  0.5216
   14CHTO  H166 5587   4.451   4.166   1.395 -1.3567  1.8863 -1.6775
   14CHTO   C93 5588   4.693   4.282   1.310 -0.7498 -0.0092  0.5836
   14CHTO  H180 5589   4.654   4.307   1.211 -2.1813 -3.0638  0.3150
   14CHTO   N16 5590   4.841   4.299   1.291 -0.2869 -0.2004  0.2658
   14CHTO  H172 5591   4.897   4.250   1.369  2.3959  0.6814 -1.0078
   14CHTO  H173 5592   4.864   4.405   1.298 -0.8683 -0.1988  2.4330
   14CHTO   C94 5593   4.633   4.381   1.421  0.7145  0.2103 -1.1503
   14CHTO  H181 5594   4.708   4.452   1.456  0.9167  0.5806 -2.3105
   14CHTO   O61 5595   4.596   4.313   1.544 -1.1664 -0.0699  0.0698
   14CHTO   C95 5596   4.689   4.214   1.593  0.3805 -0.1461  0.3865
   14CHTO  H182 5597   4.785   4.264   1.597  1.2837 -1.6948 -1.5399
   14CHTO  C106 5598   4.637   4.172   1.736 -0.0421 -0.6720 -0.3556
   14CHTO   O69 5599   4.653   4.285   1.826  0.5658  0.1340 -0.1438
   14CHTO  H169 5600   4.603   4.254   1.899 -0.7517 -2.2902 -2.0162
   14CHTO   O63 5601   4.516   4.449   1.374 -0.3822  0.4149 -0.1383
   14CHTO   C96 5602   4.484   4.592   1.440  0.2432 -0.4204  0.1290
   14CHTO  H183 5603   4.565   4.627   1.504 -0.5092  1.4145  0.0985
   14CHTO   C98 5604   4.348   4.598   1.517  0.2055 -0.4668  0.3356
   14CHTO  H185 5605   4.269   4.550   1.458  1.4945 -0.9831 -1.0198
   14CHTO   O67 5606   4.366   4.514   1.624  0.0448  0.5583  0.4960
   14CHTO  H167 5607   4.414   4.547   1.698 -1.5688 -0.7119  2.1721
   14CHTO  C102 5608   4.309   4.746   1.568 -0.3415 -0.2830 -0.3670
   14CHTO  H189 5609   4.376   4.770   1.652 -1.3395  0.4624  0.2261
   14CHTO   N18 5610   4.169   4.763   1.619 -0.6410 -0.2767  0.2425
   14CHTO  H176 5611   4.110   4.681   1.580  1.4009 -0.7436 -2.0491
   14CHTO  H177 5612   4.120   4.854   1.588 -1.7081 -0.9030  0.0769
   14CHTO  C105 5613   4.344   4.852   1.464 -0.0907  0.1448 -0.3019
   14CHTO  H192 5614   4.271   4.848   1.384  2.0989 -0.4439 -2.3059
   14CHTO   O65 5615   4.469   4.828   1.397  0.5088 -0.0714  0.4130
   14CHTO  C100 5616   4.475   4.707   1.325  0.4825  0.1380 -0.0026
   14CHTO  H187 5617   4.377   4.688   1.278  0.3917  0.1184  0.1972
   14CHTO  C107 5618   4.594   4.712   1.227  0.4136 -0.3466  0.3803
   14CHTO   O70 5619   4.709   4.728   1.295  0.1966 -0.1632 -0.2886
   14CHTO  H170 5620   4.769   4.766   1.234 -2.0708 -0.2962 -2.6870
   14CHTO   O57 5621   4.345   5.001   1.546  0.3746 -0.4229 -0.7357
   14CHTO   C85 5622   4.360   5.122   1.467  0.4678  0.0726 -0.4346
   14CHTO  H157 5623   4.273   5.121   1.399 -0.2161  0.0989  0.4300
   14CHTO   C83 5624   4.489   5.124   1.383  0.1959 -0.3180 -0.3026
   14CHTO  H155 5625   4.496   5.033   1.324  2.5392 -1.0113  0.9472
   14CHTO   O56 5626   4.604   5.128   1.469 -0.0783  0.3714 -0.3606
   14CHTO  H135 5627   4.606   5.054   1.527 -0.6273  1.1370  0.6352
   14CHTO   C81 5628   4.485   5.247   1.283 -0.2603 -0.1164  1.1728
   14CHTO  H153 5629   4.390   5.234   1.231  0.0133 -0.0886  0.6628
   14CHTO   N14 5630   4.592   5.238   1.184  0.1774  0.3229 -0.3199
   14CHTO  H141 5631   4.677   5.207   1.240 -0.7815 -0.4392  0.7193
   14CHTO  H142 5632   4.561   5.162   1.116 -0.9324  1.0545 -0.6386
   14CHTO   C79 5633   4.477   5.384   1.367  0.7569  0.5492 -0.0388
   14CHTO  H151 5634   4.448   5.459   1.293 -1.5006  0.0543  0.3207
   14CHTO   O52 5635   4.366   5.373   1.466 -0.4038  0.2863 -0.0817
   14CHTO   C86 5636   4.369   5.260   1.548 -0.4684  0.2126 -0.4302
   14CHTO  H158 5637   4.463   5.261   1.607 -0.4202  1.8915 -0.5369
   14CHTO   C90 5638   4.258   5.261   1.651 -0.0047 -0.0784  0.2838
   14CHTO   O60 5639   4.290   5.179   1.771  0.4628  0.5003  0.0424
   14CHTO  H138 5640   4.356   5.225   1.819  0.9115 -0.6725  0.5729
   14CHTO   O50 5641   4.594   5.424   1.431 -0.2386  0.5809 -0.3090
   14CHTO   C73 5642   4.636   5.539   1.500 -0.3363  0.3375  0.6630
   14CHTO  H145 5643   4.576   5.563   1.590  0.4962 -0.8532  1.5527
   14CHTO   C74 5644   4.634   5.671   1.419  0.0312  0.5102 -0.3019
   14CHTO  H146 5645   4.528   5.681   1.389  0.7110  1.5265 -2.4837
   14CHTO   O54 5646   4.667   5.780   1.501 -0.6981 -0.1911  0.2386
   14CHTO  H133 5647   4.627   5.777   1.586 -0.8200  0.5422  0.2112
   14CHTO   C75 5648   4.727   5.654   1.297  0.0773  0.4725  0.2775
   14CHTO  H147 5649   4.683   5.584   1.225  2.6611 -1.3599  0.4045
   14CHTO   N13 5650   4.735   5.779   1.225 -0.2593  0.2250  0.1481
   14CHTO  H139 5651   4.638   5.815   1.192  0.3331  0.1840 -1.6750
   14CHTO  H140 5652   4.783   5.852   1.289  1.1909  0.9470 -1.7244
   14CHTO   C76 5653   4.871   5.605   1.342 -0.2460  0.1599 -0.4565
   14CHTO  H148 5654   4.931   5.675   1.400 -0.4181 -1.8021  2.2270
   14CHTO   O49 5655   4.856   5.484   1.421 -0.0755 -0.2416 -0.5664
   14CHTO   C77 5656   4.785   5.510   1.547  0.4586  0.0051  0.7596
   14CHTO  H149 5657   4.829   5.596   1.597  1.0280 -0.0822  0.4179
   14CHTO   C88 5658   4.804   5.393   1.639  0.4641 -0.7196  0.5415
   14CHTO   O58 5659   4.953   5.353   1.649  0.4704  0.1377  0.5910
   14CHTO  H136 5660   5.001   5.431   1.664  2.3553 -1.1071  1.2450
   14CHTO   O51 5661   4.956   5.569   1.218  0.3439  0.2652 -0.3757
   14CHTO   C78 5662   5.103   5.610   1.214 -0.3064 -0.4343  0.3144
   14CHTO  H150 5663   5.116   5.651   1.316 -1.9171 -0.6740  0.6353
   14CHTO   C80 5664   5.131   5.716   1.110  0.0934 -0.1869 -0.0753
   14CHTO  H152 5665   5.080   5.682   1.017 -1.0263  0.6755  0.2160
   14CHTO   O55 5666   5.074   5.846   1.144  0.4333  0.0109 -0.3247
   14CHTO  H134 5667   5.080   5.898   1.066  1.0049  0.4701  0.0184
   14CHTO   C84 5668   5.282   5.740   1.080 -0.8751  0.2205 -1.1018
   14CHTO  H156 5669   5.330   5.781   1.170 -0.8313  2.7842 -2.2410
   14CHTO   N15 5670   5.306   5.821   0.956  0.1804  0.0211  0.1452
   14CHTO  H143 5671   5.251   5.789   0.870  1.2003 -0.0063 -0.5004
   14CHTO  H144 5672   5.289   5.925   0.970  2.4290  0.4505 -0.0558
   14CHTO   C87 5673   5.361   5.606   1.068  1.0178 -0.2815  0.1928
   14CHTO  H159 5674   5.331   5.559   0.975  0.4066  1.6682 -0.6323
   14CHTO   O53 5675   5.326   5.524   1.186  0.3414  0.2600  0.1643
   14CHTO   C82 5676   5.182   5.485   1.187  0.0245 -1.0513 -0.2265
   14CHTO  H154 5677   5.157   5.450   1.086  0.0519 -2.2105  0.1588
   14CHTO   C89 5678   5.157   5.371   1.283  0.3281 -0.3199  0.5172
   14CHTO   O59 5679   5.201   5.389   1.413 -0.8529 -0.4835 -0.0122
   14CHTO  H137 5680   5.175   5.321   1.473  1.1561 -0.6619  0.6871
   14CHTO   O45 5681   5.530   5.653   1.067  0.3783  0.0006  0.3251
   14CHTO   C67 5682   5.621   5.544   1.052  0.4200  0.0225 -0.1591
   14CHTO  H124 5683   5.572   5.449   1.073 -0.9433  1.0537  1.4347
   14CHTO   C65 5684   5.690   5.538   0.908 -0.1256  0.3640  0.7426
   14CHTO  H122 5685   5.610   5.539   0.834  0.4657  0.0341  0.0878
   14CHTO   O44 5686   5.764   5.417   0.903  0.3211 -0.5217 -0.2584
   14CHTO  H102 5687   5.718   5.363   0.842 -0.0717 -1.5230  0.8905
   14CHTO   C63 5688   5.776   5.666   0.886  0.0292  0.2972  0.0662
   14CHTO  H120 5689   5.706   5.750   0.886 -0.6613 -0.2635 -1.0318
   14CHTO   N11 5690   5.833   5.678   0.750  0.2141 -0.2213  0.6368
   14CHTO  H108 5691   5.770   5.727   0.680  0.0309  0.9686  1.6229
   14CHTO  H109 5692   5.928   5.726   0.753  0.2521 -0.0979 -1.6619
   14CHTO   C61 5693   5.882   5.677   1.000  0.4264  0.5205 -0.1470
   14CHTO  H118 5694   5.936   5.773   0.992  0.0732  0.6177 -1.6553
   14CHTO   O40 5695   5.814   5.675   1.129  0.6439  0.4885  0.1364
   14CHTO   C68 5696   5.722   5.563   1.170 -0.5564 -0.3101  0.4106
   14CHTO  H125 5697   5.667   5.607   1.256 -1.8117  0.2142 -0.6345
   14CHTO   C72 5698   5.798   5.439   1.222  0.0310 -0.0456  0.4582
   14CHTO   O48 5699   5.907   5.458   1.317  0.6329 -0.3024  0.1818
   14CHTO  H105 5700   5.992   5.480   1.285  1.4989 -3.5399  0.0900
   14CHTO   O38 5701   5.977   5.573   1.009  0.5458 -0.6665  0.1604
   14CHTO   C55 5702   6.103   5.588   0.944 -1.5228 -0.2079  0.1493
   14CHTO  H112 5703   6.100   5.668   0.869  2.8586 -2.1131 -2.1997
   14CHTO   C56 5704   6.135   5.448   0.878  0.5952  0.6377 -0.6997
   14CHTO  H113 5705   6.101   5.370   0.948  1.3262 -0.5785 -1.6650
   14CHTO   O42 5706   6.052   5.437   0.759  0.2663 -0.4708  0.1437
   14CHTO  H100 5707   5.970   5.481   0.760 -0.1794 -1.2999  0.7436
   14CHTO   C57 5708   6.285   5.440   0.833  0.0035  0.4692  0.1646
   14CHTO  H114 5709   6.300   5.479   0.732 -0.2509 -1.1229 -0.4977
   14CHTO   N10 5710   6.319   5.294   0.831  0.0691 -0.3822  0.0604
   14CHTO  H106 5711   6.408   5.278   0.771  0.1674 -0.9409  0.3520
   14CHTO  H107 5712   6.235   5.239   0.790  0.6109  0.4278 -2.2539
   14CHTO   C58 5713   6.387   5.504   0.935  0.2561  0.0617 -0.6758
   14CHTO  H115 5714   6.388   5.445   1.030 -0.8507  0.5655 -0.3536
   14CHTO   O37 5715   6.341   5.632   0.969 -0.1223 -0.4884  0.2903
   14CHTO   C59 5716   6.220   5.640   1.045  0.2970  0.6650  0.2854
   14CHTO  H116 5717   6.233   5.575   1.131  1.9106  0.5526 -0.0391
   14CHTO   C70 5718   6.192   5.786   1.102 -0.3797  0.1617  0.2220
   14CHTO   O46 5719   6.225   5.888   1.007  0.0818 -0.0693 -0.3640
   14CHTO  H103 5720   6.318   5.896   1.000  0.4251 -2.2880  1.0901
   14CHTO   O39 5721   6.526   5.514   0.859 -0.3164 -0.1268 -0.2335
   14CHTO   C60 5722   6.633   5.513   0.955  0.9250  0.4654  0.3092
   14CHTO  H117 5723   6.617   5.577   1.041  2.4657  1.8777 -0.4157
   14CHTO   C62 5724   6.658   5.361   0.989  0.7348 -0.0529  0.0260
   14CHTO  H119 5725   6.568   5.330   1.047  1.0894  2.2184  1.8895
   14CHTO   O43 5726   6.667   5.280   0.872 -0.4081 -0.1396  0.4201
   14CHTO  H101 5727   6.587   5.286   0.822  0.1377  2.1415 -0.2378
   14CHTO   C66 5728   6.792   5.341   1.079 -0.1740 -0.1284  0.5452
   14CHTO  H123 5729   6.784   5.410   1.164  0.7655 -0.4442  0.8945
   14CHTO   N12 5730   6.820   5.203   1.135 -0.5804 -0.6406 -0.0991
   14CHTO  H110 5731   6.916   5.213   1.183  0.1597 -0.1526 -1.6304
   14CHTO  H111 5732   6.743   5.171   1.202 -0.9651  0.1755 -0.1481
   14CHTO   C69 5733   6.907   5.387   0.993  0.2999 -0.3059 -0.0010
   14CHTO  H126 5734   6.912   5.327   0.900 -1.0652  2.1125 -1.6922
   14CHTO   O41 5735   6.883   5.542   0.970 -0.5963 -0.4439 -0.1032
   14CHTO   C64 5736   6.759   5.565   0.890 -0.2248 -0.2706 -0.0517
   14CHTO  H121 5737   6.766   5.518   0.789  1.1222 -0.5474  0.1544
   14CHTO   C71 5738   6.747   5.715   0.870  0.0773  0.3455 -0.1735
   14CHTO   O47 5739   6.868   5.762   0.806 -0.3153 -0.3500  0.2377
   14CHTO  H104 5740   6.868   5.855   0.816  0.6011 -0.3839  0.5147
   14CHTO   O34 5741   7.049   5.362   1.085 -0.5078 -0.1145 -0.5428
   14CHTO   C49 5742   7.194   5.423   1.060 -0.2056 -0.0984 -0.0706
   14CHTO   H91 5743   7.238   5.355   0.987 -0.7540  0.4829 -0.9516
   14CHTO   C47 5744   7.276   5.429   1.188  0.7986 -0.0419  0.4403
   14CHTO   H89 5745   7.377   5.465   1.158  0.3198  0.0905 -1.0312
   14CHTO   O33 5746   7.293   5.300   1.256 -0.2754  0.5453  0.2712
   14CHTO   H70 5747   7.382   5.269   1.253  0.1363  1.7862 -0.4242
   14CHTO   C45 5748   7.215   5.535   1.298  0.3873 -0.7355  0.3396
   14CHTO   H87 5749   7.150   5.483   1.369  0.2332 -2.5290 -1.0688
   14CHTO    N8 5750   7.332   5.595   1.374 -0.0260  0.2388  0.1593
   14CHTO   H75 5751   7.325   5.562   1.476  0.3662 -1.1801 -0.2646
   14CHTO   H76 5752   7.325   5.702   1.363 -1.2356  0.1170 -0.4184
   14CHTO   C43 5753   7.114   5.645   1.221 -0.4902  0.0688  0.4673
   14CHTO   H85 5754   7.024   5.586   1.201 -0.3809  1.1047 -3.6817
   14CHTO   O29 5755   7.179   5.682   1.098 -0.1274 -0.0663  0.3118
   14CHTO   C50 5756   7.196   5.571   1.006  0.3983 -0.6856  0.4435
   14CHTO   H92 5757   7.120   5.575   0.927  0.5021  1.0819  0.4137
   14CHTO   C54 5758   7.328   5.602   0.928  0.7553  0.3313  0.9822
   14CHTO   O36 5759   7.328   5.730   0.862 -0.6600  0.0028  0.2776
   14CHTO   H72 5760   7.283   5.800   0.904  0.8718  1.2958 -0.2092
   14CHTO   O27 5761   7.077   5.750   1.307 -0.2760  0.1991 -0.1158
   14CHTO   C37 5762   6.978   5.848   1.338  0.1926 -0.6828  0.4153
   14CHTO   H79 5763   7.020   5.949   1.348 -1.6724 -0.0085  1.6106
   14CHTO   C38 5764   6.875   5.855   1.216  0.1451 -0.1162 -0.0410
   14CHTO   H80 5765   6.835   5.754   1.196 -1.1599  0.5375 -0.8575
   14CHTO   O31 5766   6.937   5.892   1.094  0.5688  0.5389  1.0174
   14CHTO   H68 5767   6.882   5.877   1.019  0.2848  2.2252  0.8554
   14CHTO   C39 5768   6.745   5.943   1.253  0.0905  0.2453 -0.6069
   14CHTO   H81 5769   6.776   6.048   1.256  2.7941 -0.4785 -2.5285
   14CHTO    N7 5770   6.633   5.928   1.149  0.6164 -0.5351 -0.8347
   14CHTO   H73 5771   6.658   5.845   1.085  0.5823  0.1757 -1.7804
   14CHTO   H74 5772   6.613   6.011   1.082 -3.1654 -1.0092 -0.4015
   14CHTO   C40 5773   6.693   5.905   1.396  0.8144 -0.6724  0.3666
   14CHTO   H82 5774   6.651   5.805   1.399 -0.4546 -0.2386 -1.8358
   14CHTO   O26 5775   6.800   5.923   1.495 -0.8919 -0.1803  0.5676
   14CHTO   C41 5776   6.902   5.818   1.474 -0.4509 -0.2415 -0.2414
   14CHTO   H83 5777   6.851   5.721   1.464  1.7537 -1.4393 -0.1399
   14CHTO   C52 5778   7.005   5.818   1.587  0.1792 -0.8778  0.5144
   14CHTO   O35 5779   7.098   5.685   1.587  0.0993 -0.1307 -0.5128
   14CHTO   H71 5780   7.112   5.648   1.672 -1.2306  0.2306 -0.1175
   14CHTO   O28 5781   6.591   5.995   1.449 -0.6770  0.2345  0.1736
   14CHTO   C42 5782   6.486   5.952   1.532 -0.0325  0.2765  0.6302
   14CHTO   H84 5783   6.473   6.033   1.604  2.1671  1.2514 -0.0141
   14CHTO   C44 5784   6.504   5.826   1.622  0.1542 -0.4427  0.3195
   14CHTO   H86 5785   6.538   5.741   1.563 -0.4021 -1.7572  1.8455
   14CHTO   O32 5786   6.601   5.870   1.721 -0.3971 -0.1323 -0.3616
   14CHTO   H69 5787   6.674   5.812   1.717  0.5756  0.9885  0.7533
   14CHTO   C48 5788   6.376   5.770   1.688 -0.0595 -0.6871 -0.2578
   14CHTO   H90 5789   6.346   5.845   1.762 -2.4729 -0.3436 -1.5566
   14CHTO    N9 5790   6.402   5.639   1.758  0.1950  0.2271 -0.1493
   14CHTO   H77 5791   6.313   5.591   1.797  0.4394  0.7999  1.1389
   14CHTO   H78 5792   6.483   5.622   1.827 -0.7826  0.5372  1.1008
   14CHTO   C51 5793   6.259   5.771   1.590  0.4019 -0.4536 -0.6872
   14CHTO   H93 5794   6.276   5.700   1.509 -0.6719 -0.2987 -1.0485
   14CHTO   O30 5795   6.246   5.908   1.543  0.0611  0.1891 -0.5636
   14CHTO   C46 5796   6.354   5.939   1.447 -0.2907 -0.2111  0.5968
   14CHTO   H88 5797   6.367   5.859   1.375 -1.3770  0.2722 -0.1453
   14CHTO   C53 5798   6.322   6.072   1.370  0.2400 -0.0233  0.8894
   14CHTO   O72 5799   6.210   6.048   1.277  0.5038  0.0458 -0.2380
   14CHTO  H199 5800   6.226   6.083   1.191 -1.0800 -0.2473 -0.6710
   14CHTO   O22 5801   6.135   5.751   1.668 -0.4432 -0.1264  0.2655
   14CHTO   C31 5802   6.016   5.695   1.601 -0.0215 -0.2244 -0.3111
   14CHTO   H59 5803   6.052   5.637   1.513  3.2168 -0.9038  1.3689
   14CHTO   C29 5804   5.951   5.595   1.702 -0.4794 -0.7596  0.6075
   14CHTO   H57 5805   5.926   5.664   1.784 -2.5282  0.1481 -0.7195
   14CHTO   O21 5806   6.043   5.496   1.747 -0.3885 -0.0613 -0.0398
   14CHTO   H37 5807   6.129   5.533   1.760 -0.4021  0.3653 -1.0763
   14CHTO   C27 5808   5.817   5.540   1.640  0.0746 -0.5947  0.1260
   14CHTO   H55 5809   5.838   5.482   1.548 -2.7524 -0.6076 -0.5727
   14CHTO    N5 5810   5.749   5.453   1.739  0.1556  0.5156  0.2148
   14CHTO   H43 5811   5.723   5.511   1.827 -0.0797  1.4880 -0.4908
   14CHTO   H44 5812   5.651   5.421   1.708  0.8663 -2.1070  0.5751
   14CHTO   C25 5813   5.721   5.650   1.590 -0.1325  0.0358  0.3130
   14CHTO   H53 5814   5.690   5.707   1.679 -1.1058 -0.4537  0.3020
   14CHTO   O17 5815   5.794   5.738   1.501  0.0530 -0.8234 -0.0062
   14CHTO   C32 5816   5.918   5.798   1.549  0.3790  0.2835  0.8794
   14CHTO   H60 5817   5.887   5.857   1.636 -0.3985  0.0540  0.7689
   14CHTO   C36 5818   5.969   5.894   1.442 -0.1621  0.2002 -0.0643
   14CHTO   O25 5819   5.872   5.990   1.410  0.1927  0.4233  0.3752
   14CHTO   H40 5820   5.817   5.977   1.336 -1.2755  2.4987  1.0546
   14CHTO   O15 5821   5.596   5.603   1.517 -0.0780  0.5271  0.2344
   14CHTO   C19 5822   5.467   5.669   1.509  0.0171  0.6260 -0.2509
   14CHTO   H47 5823   5.409   5.616   1.432 -1.7206 -0.5324  1.7667
   14CHTO   C20 5824   5.381   5.641   1.636  0.1301 -0.0063 -0.0276
   14CHTO   H48 5825   5.420   5.696   1.723  0.9740 -0.4870 -0.1028
   14CHTO   O19 5826   5.391   5.500   1.667  0.0823 -0.5251 -0.2590
   14CHTO   H35 5827   5.337   5.443   1.616  0.2991 -1.0869  0.1287
   14CHTO   C21 5828   5.233   5.691   1.603 -0.8400  0.5384  0.7407
   14CHTO   H49 5829   5.187   5.625   1.529  1.2153 -0.2550  0.1130
   14CHTO    N4 5830   5.148   5.677   1.721 -0.3778  0.0169  0.5972
   14CHTO   H41 5831   5.114   5.574   1.726  1.0337 -0.4936 -0.0004
   14CHTO   H42 5832   5.200   5.699   1.813 -1.0680 -2.7889  1.7167
   14CHTO   C22 5833   5.228   5.837   1.544 -0.2514  0.4091  0.0535
   14CHTO   H50 5834   5.260   5.909   1.619  0.1474  1.8752 -1.4941
   14CHTO   O14 5835   5.325   5.845   1.435  0.0159  0.0053  0.0776
   14CHTO   C23 5836   5.458   5.820   1.480 -0.8621 -0.3698  0.7149
   14CHTO   H51 5837   5.477   5.879   1.570 -1.9592  1.9921 -0.5573
   14CHTO   C34 5838   5.543   5.866   1.358  0.5125  0.4883 -0.6026
   14CHTO   O23 5839   5.564   6.005   1.364  0.3427 -0.7023  0.1066
   14CHTO   H38 5840   5.647   6.025   1.401  0.3748 -0.6475  0.0033
   14CHTO   O16 5841   5.103   5.880   1.487 -0.2613 -0.4352  0.5499
   14CHTO   C24 5842   5.079   6.049   1.485  0.3400  0.0354 -0.3435
   14CHTO   H52 5843   4.990   6.075   1.428 -0.4529 -0.9629  0.4249
   14CHTO   C26 5844   5.195   6.121   1.416  0.2249 -0.7083  0.6622
   14CHTO   H54 5845   5.289   6.101   1.472  0.8370 -2.7607 -1.0034
   14CHTO   O20 5846   5.210   6.056   1.289 -0.1160  0.8274  0.5009
   14CHTO   H36 5847   5.243   5.969   1.299  1.3248  1.0737 -1.9435
   14CHTO   C30 5848   5.162   6.273   1.412 -1.0927  0.5921  0.1584
   14CHTO   H58 5849   5.075   6.294   1.349 -1.5281 -0.4402  0.4118
   14CHTO    N6 5850   5.273   6.344   1.339  0.5384  0.1189 -0.5210
   14CHTO   H45 5851   5.364   6.328   1.395  1.6281 -0.7834 -2.4861
   14CHTO   H46 5852   5.252   6.450   1.332 -0.1808  0.0371  0.3341
   14CHTO   C33 5853   5.142   6.324   1.553  0.0295 -0.7557 -0.2115
   14CHTO   H61 5854   5.231   6.304   1.614  2.1233  1.0784 -2.5520
   14CHTO   O18 5855   5.033   6.249   1.608 -0.3845  0.0499 -0.2547
   14CHTO   C28 5856   5.062   6.111   1.628  0.1900 -0.0231 -0.0959
   14CHTO   H56 5857   5.154   6.098   1.685  1.0195  1.1301 -1.1411
   14CHTO   C35 5858   4.946   6.053   1.704 -0.0833 -0.7477  0.2382
   14CHTO   O24 5859   4.929   6.126   1.827 -0.5184 -0.2538  0.0837
   14CHTO   H39 5860   4.955   6.072   1.900 -0.6632 -0.3213  0.0861
   14CHTO    O9 5861   5.119   6.463   1.562  0.6708 -0.4296 -0.5112
   14CHTO   C13 5862   5.098   6.521   1.709 -0.1559  0.1595 -0.0281
   14CHTO   H26 5863   5.081   6.439   1.782  0.7893 -1.3236 -1.4347
   14CHTO   C11 5864   4.973   6.611   1.696 -0.3647  0.2078 -0.1190
   14CHTO   H24 5865   4.885   6.550   1.672 -0.8561  0.6589  0.5037
   14CHTO    O8 5866   4.977   6.687   1.573  0.0349 -0.0838  0.1230
   14CHTO    H3 5867   5.044   6.753   1.569  1.1545 -1.0682  1.7691
   14CHTO    C9 5868   4.948   6.687   1.829  0.3692  0.3333 -0.1321
   14CHTO   H22 5869   4.955   6.614   1.911 -0.0068  1.4193  0.8827
   14CHTO    N2 5870   4.816   6.756   1.835 -0.5160  0.0738 -0.1668
   14CHTO   H10 5871   4.826   6.857   1.872 -0.5550 -0.0339  0.1309
   14CHTO   H11 5872   4.731   6.701   1.872 -0.0446  0.0388  0.8861
   14CHTO    C7 5873   5.071   6.780   1.864  0.4835 -0.4117  0.0721
   14CHTO   H20 5874   5.052   6.834   1.959  0.8875 -0.0853 -0.0319
   14CHTO    O4 5875   5.198   6.702   1.871 -0.0382 -0.2102 -0.2693
   14CHTO   C14 5876   5.221   6.604   1.769  0.2844  0.4559 -0.2053
   14CHTO   H27 5877   5.277   6.526   1.824  0.3030 -0.2347 -1.1843
   14CHTO   C18 5878   5.314   6.655   1.654 -0.3239 -0.3125  0.0185
   14CHTO   O13 5879   5.451   6.681   1.689 -0.4499  0.2866 -0.6851
   14CHTO    H7 5880   5.482   6.748   1.632 -1.0702  1.7080  0.6057
   14CHTO    O2 5881   5.083   6.901   1.750 -0.5081 -0.0081  0.2633
   14CHTO    C1 5882   5.145   7.024   1.799 -0.3912  0.3365  0.2656
   14CHTO   H14 5883   5.181   7.083   1.711  0.5364 -0.3111  0.2033
   14CHTO    C2 5884   5.281   7.002   1.891  1.0520  0.7024 -0.4830
   14CHTO   H15 5885   5.256   6.938   1.977  1.1860 -0.4024 -1.2528
   14CHTO    O6 5886   5.387   6.935   1.815 -0.0001 -0.1817 -0.1706
   14CHTO    H1 5887   5.458   6.909   1.871  0.2322 -2.3077 -1.3850
   14CHTO    C3 5888   5.337   7.148   1.939 -0.1312 -0.0277 -0.2212
   14CHTO   H16 5889   5.393   7.178   1.850  1.7669 -0.1098  0.9102
   14CHTO    N1 5890   5.441   7.143   2.050  0.6346  0.0624  0.4227
   14CHTO    H8 5891   5.532   7.092   2.024 -0.8596 -2.8012  0.6412
   14CHTO    H9 5892   5.452   7.237   2.103  0.3523 -0.1052  0.7837
   14CHTO    C4 5893   5.226   7.256   1.962  0.9400  0.0947  0.1619
   14CHTO   H17 5894   5.197   7.256   2.068  0.0831  0.8159 -0.0660
   14CHTO    O1 5895   5.113   7.245   1.878  0.4759 -0.4085  0.8501
   14CHTO    C5 5896   5.048   7.117   1.870 -0.2450 -0.3079  0.2033
   14CHTO   H18 5897   5.028   7.084   1.972  0.8319  0.0635  0.5487
   14CHTO   C16 5898   4.920   7.119   1.779  0.2615 -0.2382 -0.2296
   14CHTO   O11 5899   4.811   7.188   1.840 -0.3646  0.0246  0.3227
   14CHTO    H5 5900   4.746   7.204   1.774  0.5352 -0.6679 -0.7356
   14CHTO    O3 5901   5.290   7.382   1.928  0.3687 -0.0027 -0.2018
   14CHTO    C6 5902   5.237   7.511   1.975 -0.4034 -0.3882  0.1703
   14CHTO   H19 5903   5.132   7.507   2.005  0.0825  0.4046  2.0560
   14CHTO    C8 5904   5.324   7.557   2.104  0.1368 -0.2433 -0.3004
   14CHTO   H21 5905   5.430   7.557   2.076  0.1172 -0.9451 -0.3720
   14CHTO    O7 5906   5.300   7.459   2.205 -0.1952  0.6937  0.0124
   14CHTO    H2 5907   5.368   7.460   2.270 -0.7859 -2.5693  0.7910
   14CHTO   C12 5908   5.291   7.704   2.145  0.6303 -0.1332 -0.5125
   14CHTO   H25 5909   5.183   7.702   2.173  0.3611 -2.9175 -1.5879
   14CHTO    N3 5910   5.373   7.744   2.265 -0.0125  0.2396  0.0964
   14CHTO   H12 5911   5.467   7.777   2.224  0.2304 -2.3239 -1.4955
   14CHTO   H13 5912   5.324   7.831   2.309  0.3181  0.5104 -0.0701
   14CHTO   C15 5913   5.305   7.791   2.014  0.1920  0.1017 -0.0239
   14CHTO   H28 5914   5.409   7.791   1.983 -0.3095 -2.1953 -1.8152
   14CHTO   O10 5915   5.269   7.942   2.046  0.9881 -0.0629  0.0600
   14CHTO    H4 5916   5.176   7.946   2.053  0.9709 -0.1192 -0.1502
   14CHTO    O5 5917   5.218   7.745   1.914  0.4821  0.1375  0.5591
   14CHTO   C10 5918   5.250   7.613   1.862  0.4131  0.2146 -0.0791
   14CHTO   H23 5919   5.350   7.611   1.817  0.9463  0.5711  1.0667
   14CHTO   C17 5920   5.150   7.587   1.744  0.3773 -0.4344 -0.3175
   14CHTO   O12 5921   5.012   7.603   1.778  0.0980  0.2298 -0.1570
   14CHTO    H6 5922   4.998   7.677   1.835 -1.0520  0.0512 -0.2089
   15CHTO  H203 5923   7.069   4.642   1.908 -2.3187  0.9204  5.0943
   15CHTO   O82 5924   6.994   4.670   1.860  0.4909 -0.0396 -0.1728
   15CHTO  C123 5925   6.955   4.573   1.760  0.0203 -0.3953  0.4407
   15CHTO  H227 5926   6.919   4.479   1.804  0.5853 -0.5200  0.6407
   15CHTO   O77 5927   6.841   4.636   1.687 -0.3926 -0.5205 -0.0596
   15CHTO  C118 5928   6.785   4.576   1.569 -0.4482 -0.0103 -0.3384
   15CHTO  H222 5929   6.739   4.485   1.611 -0.9422  0.6391  0.5487
   15CHTO  C125 5930   6.671   4.673   1.521 -0.7114  1.1638 -0.1371
   15CHTO   O84 5931   6.575   4.693   1.624  0.3507 -0.9785  0.1366
   15CHTO  H205 5932   6.508   4.753   1.596 -0.4188 -1.3800  1.1070
   15CHTO  C114 5933   6.893   4.547   1.466  0.2037  0.0780 -0.7244
   15CHTO  H218 5934   6.933   4.643   1.434 -0.4066  0.8812  0.8212
   15CHTO  C116 5935   7.008   4.466   1.529 -0.0215  0.0576 -0.0167
   15CHTO  H220 5936   6.975   4.365   1.558 -0.2780 -0.1183 -0.9010
   15CHTO   O79 5937   7.115   4.452   1.428 -0.5872 -0.4957  0.5662
   15CHTO  H201 5938   7.081   4.413   1.350  0.3170 -1.4823  0.6591
   15CHTO  C120 5939   7.069   4.542   1.656 -0.1211  0.1744  0.0659
   15CHTO  H224 5940   7.117   4.639   1.634  0.5422 -0.2869 -0.5504
   15CHTO   N21 5941   7.166   4.453   1.721 -0.1798  0.7457 -0.4603
   15CHTO  H211 5942   7.208   4.386   1.648 -0.4156 -0.0832  0.1644
   15CHTO  H212 5943   7.116   4.380   1.784  1.1279  0.3137  0.0967
   15CHTO   O75 5944   6.827   4.495   1.351  0.4453  0.5879  0.4731
   15CHTO  C112 5945   6.786   4.326   1.367  0.0843  0.3965 -0.8382
   15CHTO  H216 5946   6.772   4.299   1.473  0.7611  1.7522 -0.3863
   15CHTO   O73 5947   6.893   4.256   1.300 -0.3888 -0.8466 -0.5789
   15CHTO  C113 5948   6.882   4.117   1.298 -0.8623 -0.4366 -0.0744
   15CHTO  H217 5949   6.860   4.073   1.397 -1.7809 -2.3777 -1.1073
   15CHTO  C124 5950   7.014   4.065   1.246 -0.5349  0.3470 -0.3749
   15CHTO   O83 5951   7.131   4.086   1.321  0.2047  0.3219 -0.1461
   15CHTO  H204 5952   7.182   4.155   1.284 -0.6051  0.7350 -0.5152
   15CHTO  C109 5953   6.757   4.081   1.221 -0.3791  0.1355 -0.5105
   15CHTO  H213 5954   6.771   4.119   1.118 -0.8032 -1.9350 -1.3745
   15CHTO  C110 5955   6.633   4.150   1.283 -0.2073  0.1842  0.3697
   15CHTO  H214 5956   6.616   4.099   1.378  0.6814  0.5333  0.7199
   15CHTO   O78 5957   6.509   4.119   1.207 -0.3440 -0.0254 -0.4961
   15CHTO  H200 5958   6.507   4.171   1.129 -1.5646 -0.2585 -0.6303
   15CHTO  C111 5959   6.648   4.304   1.298  0.1704  0.1844  0.7237
   15CHTO  H215 5960   6.662   4.346   1.197  1.5916 -0.5463  0.6032
   15CHTO   N19 5961   6.538   4.375   1.366 -0.4880 -0.2745  0.5076
   15CHTO  H207 5962   6.536   4.475   1.324 -0.0815 -0.5782 -0.2573
   15CHTO  H208 5963   6.553   4.380   1.473 -0.4355  1.4874  0.4445
   15CHTO   O74 5964   6.752   3.932   1.220 -0.6540  0.0698 -0.3589
   15CHTO  C115 5965   6.662   3.873   1.104 -0.8925  0.5607  0.4620
   15CHTO  H219 5966   6.578   3.938   1.080 -1.6320 -0.9898 -1.3233
   15CHTO   O76 5967   6.740   3.866   0.981 -0.0491 -0.0564  0.0053
   15CHTO  C122 5968   6.838   3.760   0.976  0.3713 -0.0178 -0.8519
   15CHTO  H226 5969   6.895   3.759   1.069 -0.4244  1.1587 -0.3428
   15CHTO  C126 5970   6.942   3.793   0.865  0.5295  0.1089  0.3595
   15CHTO   O85 5971   7.014   3.916   0.877  0.0788  0.1226  0.5883
   15CHTO  H206 5972   6.941   3.972   0.889 -0.7736 -0.3824 -2.0354
   15CHTO  C121 5973   6.765   3.622   0.958 -0.0848 -0.1490 -0.3624
   15CHTO  H225 5974   6.751   3.596   0.851 -0.2707 -1.5763  0.0070
   15CHTO   O81 5975   6.847   3.513   1.006 -0.7999  0.5831  0.9746
   15CHTO  H202 5976   6.933   3.511   0.968  0.2071 -0.8913  3.2038
   15CHTO  C119 5977   6.618   3.630   1.031  0.1895 -0.0878 -0.1278
   15CHTO  H223 5978   6.546   3.666   0.956  0.8831  0.0168 -0.7491
   15CHTO  C117 5979   6.616   3.732   1.154  0.0250  0.8531 -0.1610
   15CHTO  H221 5980   6.673   3.709   1.244  0.4575  2.0189 -0.1350
   15CHTO   N20 5981   6.470   3.748   1.201 -0.1721 -0.4803  0.1843
   15CHTO  H209 5982   6.453   3.829   1.270 -1.1619 -0.1686 -0.4165
   15CHTO  H210 5983   6.413   3.772   1.112  1.3284 -0.2647 -0.7387
   15CHTO   O80 5984   6.557   3.488   1.062 -0.2841  0.0135  0.7663
   15CHTO  C103 5985   6.450   3.408   0.966  0.4565  0.3338 -0.2133
   15CHTO  H190 5986   6.383   3.350   1.030  2.0831  1.2719  2.4329
   15CHTO  C101 5987   6.362   3.492   0.876  0.1332  0.1186  0.8216
   15CHTO  H188 5988   6.427   3.537   0.800  1.0900  0.0061  1.5642
   15CHTO   O68 5989   6.285   3.600   0.966 -0.0702  0.4900 -0.1077
   15CHTO  H168 5990   6.324   3.685   0.966 -0.9890  0.9261  1.5290
   15CHTO   C99 5991   6.259   3.412   0.786  0.5396  0.0007  0.0367
   15CHTO  H186 5992   6.187   3.362   0.853  0.4105 -0.8406 -0.7272
   15CHTO   N17 5993   6.176   3.495   0.687  0.0901 -0.2048 -0.3557
   15CHTO  H174 5994   6.125   3.425   0.623  0.6531 -0.3480 -0.6459
   15CHTO  H175 5995   6.246   3.550   0.626  0.4098 -0.5272 -0.2749
   15CHTO   C97 5996   6.336   3.295   0.719 -0.0962  0.0271 -0.5014
   15CHTO  H184 5997   6.386   3.338   0.631  2.9781 -0.9627  0.6824
   15CHTO   O64 5998   6.426   3.231   0.808  0.4695  0.1930  0.4270
   15CHTO  C104 5999   6.526   3.298   0.880 -0.3213 -0.0193 -0.4777
   15CHTO  H191 6000   6.597   3.343   0.811 -0.5187 -0.4622 -0.9769
   15CHTO  C108 6001   6.604   3.203   0.973 -0.0570  0.3952 -1.1129
   15CHTO   O71 6002   6.712   3.270   1.039  0.1016  0.4840  0.2769
   15CHTO  H171 6003   6.761   3.213   1.096  3.3113  0.9270 -1.9183
   15CHTO   O62 6004   6.245   3.195   0.672  0.6856  0.1045  0.3425
   15CHTO   C91 6005   6.246   3.161   0.532 -0.2899 -0.0064 -0.0699
   15CHTO  H178 6006   6.282   3.246   0.474  0.2166  1.3733  2.1933
   15CHTO   C92 6007   6.092   3.143   0.497  0.1556 -0.3864 -0.4506
   15CHTO  H179 6008   6.031   3.233   0.510  0.6110 -0.4370  2.1552
   15CHTO   O66 6009   6.096   3.126   0.355  0.2240 -0.0977 -0.7045
   15CHTO  H166 6010   6.021   3.074   0.332 -0.2580  0.6154 -0.7684
   15CHTO   C93 6011   6.029   3.018   0.575  0.2101  0.2114 -0.0926
   15CHTO  H180 6012   5.941   2.982   0.519  0.4981 -0.9841  0.2153
   15CHTO   N16 6013   5.959   3.050   0.705  0.3187  0.3136  0.0216
   15CHTO  H172 6014   5.898   2.964   0.724  0.0320  0.7757  1.1989
   15CHTO  H173 6015   6.035   3.059   0.781  0.7232  0.0779 -0.3525
   15CHTO   C94 6016   6.133   2.899   0.576 -0.0480 -0.3789  0.3924
   15CHTO  H181 6017   6.190   2.894   0.669 -0.4801  0.7254  0.7270
   15CHTO   O61 6018   6.244   2.908   0.485  0.2841 -0.1098  0.1805
   15CHTO   C95 6019   6.325   3.029   0.502  0.6421 -0.5279  0.2092
   15CHTO  H182 6020   6.392   3.009   0.585  1.2033 -1.9465 -0.5730
   15CHTO  C106 6021   6.422   3.049   0.377  0.4458  0.4241 -0.2068
   15CHTO   O69 6022   6.345   3.051   0.254  0.2607 -0.5733  0.1508
   15CHTO  H169 6023   6.280   3.119   0.254 -1.0881 -1.8039 -2.0301
   15CHTO   O63 6024   6.052   2.769   0.556  0.0757  0.6121 -0.5773
   15CHTO   C96 6025   6.079   2.667   0.655  0.2164 -0.8359 -0.1179
   15CHTO  H183 6026   6.093   2.713   0.752 -0.8729 -1.8698  0.5379
   15CHTO   C98 6027   6.208   2.588   0.606 -0.0229 -0.5393 -0.0414
   15CHTO  H185 6028   6.214   2.593   0.496  1.0593  1.4962  0.0932
   15CHTO   O67 6029   6.322   2.655   0.660 -0.2847 -0.4097 -0.3269
   15CHTO  H167 6030   6.331   2.737   0.615 -0.0787 -0.6403 -0.7089
   15CHTO  C102 6031   6.214   2.435   0.646  0.3476 -0.3310 -0.2347
   15CHTO  H189 6032   6.253   2.436   0.748 -0.2314  2.4092 -0.0225
   15CHTO   N18 6033   6.313   2.361   0.569  0.3293  0.4872 -0.1621
   15CHTO  H176 6034   6.409   2.396   0.602 -0.0592  0.6250  0.8082
   15CHTO  H177 6035   6.294   2.381   0.464 -0.7916  0.8621  0.1156
   15CHTO  C105 6036   6.073   2.372   0.639  0.1517  0.2067  0.2860
   15CHTO  H192 6037   6.042   2.376   0.534  1.5338 -2.3098 -0.2682
   15CHTO   O65 6038   5.985   2.449   0.714  0.1076 -0.5906 -0.3483
   15CHTO  C100 6039   5.952   2.573   0.655  0.0650 -0.5925 -0.0242
   15CHTO  H187 6040   5.906   2.571   0.555 -1.0151  1.3386  0.4193
   15CHTO  C107 6041   5.838   2.628   0.747  0.0496  0.5475 -0.0779
   15CHTO   O70 6042   5.710   2.562   0.745 -0.0681 -0.0612  0.3848
   15CHTO  H170 6043   5.647   2.628   0.767  0.4598  0.6493 -0.1689
   15CHTO   O57 6044   6.071   2.223   0.671  0.5896  0.3629  0.3800
   15CHTO   C85 6045   6.074   2.164   0.800 -0.0168  0.0892  0.0509
   15CHTO  H157 6046   6.128   2.227   0.874 -0.0712  0.5260 -0.2801
   15CHTO   C83 6047   6.175   2.041   0.790  0.5908 -0.1166 -0.3659
   15CHTO  H155 6048   6.273   2.085   0.774  0.9337 -1.1088 -1.0352
   15CHTO   O56 6049   6.153   1.964   0.670 -0.4016  0.1158 -0.7561
   15CHTO  H135 6050   6.217   1.897   0.659 -0.5304 -0.1832  0.3044
   15CHTO   C81 6051   6.168   1.963   0.920 -0.3615 -0.1152  0.3380
   15CHTO  H153 6052   6.197   2.029   1.002 -0.4177 -2.9476  2.6850
   15CHTO   N14 6053   6.269   1.853   0.939  0.2935  0.7626 -0.0204
   15CHTO  H141 6054   6.244   1.791   1.022 -0.1551  1.5223  0.4197
   15CHTO  H142 6055   6.272   1.795   0.849 -1.6361 -0.0398  0.3991
   15CHTO   C79 6056   6.021   1.912   0.950 -0.0135 -0.1462  0.1753
   15CHTO  H151 6057   6.023   1.871   1.051 -1.4500 -0.6837 -0.0116
   15CHTO   O52 6058   5.920   2.015   0.951 -0.0806  0.4082  0.0350
   15CHTO   C86 6059   5.922   2.119   0.848 -0.1604 -0.2702  0.1022
   15CHTO  H158 6060   5.874   2.070   0.762  1.3684  1.4523 -1.7997
   15CHTO   C90 6061   5.834   2.236   0.882  0.4120  0.6193  0.0698
   15CHTO   O60 6062   5.698   2.200   0.850  0.1163 -0.1129 -0.1070
   15CHTO  H138 6063   5.688   2.218   0.759  0.6960  3.1770  0.4214
   15CHTO   O50 6064   5.979   1.812   0.860  0.5966  0.1426  0.7739
   15CHTO   C73 6065   5.860   1.733   0.851 -0.2045  0.5420  0.3714
   15CHTO  H145 6066   5.774   1.787   0.810 -0.2643  0.5030  0.4450
   15CHTO   C74 6067   5.803   1.664   0.986 -0.7253  0.7371 -0.4285
   15CHTO  H146 6068   5.774   1.747   1.052  1.0760  0.4232  0.7957
   15CHTO   O54 6069   5.686   1.584   0.955 -0.3913 -0.6765 -0.8366
   15CHTO  H133 6070   5.614   1.644   0.948  1.2845  1.2927 -1.8545
   15CHTO   C75 6071   5.926   1.582   1.047 -0.4214  0.5324  0.1659
   15CHTO  H147 6072   6.006   1.656   1.061  0.9143 -0.4968 -1.7630
   15CHTO   N13 6073   5.902   1.514   1.178  0.1286 -0.6407  0.9577
   15CHTO  H139 6074   5.798   1.490   1.170  0.4167 -1.1206 -1.5850
   15CHTO  H140 6075   5.954   1.421   1.191  1.0518 -0.5612 -1.9568
   15CHTO   C76 6076   5.987   1.477   0.941  0.6355  0.4851 -0.1434
   15CHTO  H148 6077   5.922   1.390   0.952  0.0668  0.9524  0.2060
   15CHTO   O49 6078   5.999   1.533   0.809 -0.0382 -0.0789  0.1831
   15CHTO   C77 6079   5.894   1.615   0.751 -0.4497  0.0701 -0.3380
   15CHTO  H149 6080   5.805   1.560   0.724  0.5986 -1.9826  0.3072
   15CHTO   C88 6081   5.943   1.667   0.613  0.0225 -0.2404  0.6985
   15CHTO   O58 6082   5.839   1.763   0.557 -0.1151  0.3456 -0.3072
   15CHTO  H136 6083   5.891   1.818   0.502 -0.3064  0.2174 -0.6221
   15CHTO   O51 6084   6.138   1.451   0.987  0.1341  0.3624  0.8641
   15CHTO   C78 6085   6.212   1.333   0.914 -0.4123  0.9630 -0.0347
   15CHTO  H150 6086   6.176   1.310   0.812 -2.0054  0.7453  0.5534
   15CHTO   C80 6087   6.194   1.209   1.009  0.2723  0.3292  0.4012
   15CHTO  H152 6088   6.211   1.243   1.114 -3.5547  0.8599  0.9216
   15CHTO   O55 6089   6.060   1.156   1.009 -0.6666  0.4637 -0.4153
   15CHTO  H134 6090   6.068   1.071   1.049  3.2654  0.9092 -0.1067
   15CHTO   C84 6091   6.296   1.099   0.960 -0.2994 -0.9842 -0.0116
   15CHTO  H156 6092   6.265   1.079   0.858  0.3366 -0.9599 -0.2122
   15CHTO   N15 6093   6.292   0.973   1.040  0.2031 -0.0089 -0.0765
   15CHTO  H143 6094   6.334   0.889   0.988  1.0274  0.6344 -0.4585
   15CHTO  H144 6095   6.191   0.947   1.062  0.3976  0.7468  1.7551
   15CHTO   C87 6096   6.448   1.146   0.953  0.3577  0.5422 -0.1391
   15CHTO  H159 6097   6.480   1.170   1.054  1.6008  1.0446 -0.6387
   15CHTO   O53 6098   6.449   1.270   0.870  0.5352  0.1406 -0.1501
   15CHTO   C82 6099   6.363   1.377   0.906  0.1622  0.2596  0.0876
   15CHTO  H154 6100   6.399   1.425   0.998  2.4081 -1.4811  0.1596
   15CHTO   C89 6101   6.367   1.486   0.798 -0.4308  0.1079 -0.6278
   15CHTO   O59 6102   6.486   1.564   0.819 -0.1926  0.2731  0.2772
   15CHTO  H137 6103   6.477   1.635   0.758  1.4190  1.4002  1.2964
   15CHTO   O45 6104   6.537   1.031   0.879  0.3118 -0.2046 -0.3117
   15CHTO   C67 6105   6.679   1.064   0.886 -0.2895  0.0462 -0.1805
   15CHTO  H124 6106   6.691   1.166   0.921  1.1144 -0.4146  0.7746
   15CHTO   C65 6107   6.747   0.974   0.997 -0.8261  0.4576 -0.0725
   15CHTO  H122 6108   6.689   0.882   0.990  0.3797 -0.1826 -1.8635
   15CHTO   O44 6109   6.716   1.036   1.123 -0.0239 -0.3975  0.1226
   15CHTO  H102 6110   6.792   1.083   1.152 -1.4385  2.8061 -1.0700
   15CHTO   C63 6111   6.904   0.940   0.979 -0.0472  0.3833  0.3081
   15CHTO  H120 6112   6.911   0.863   0.902  1.2458  0.1147  0.6856
   15CHTO   N11 6113   6.982   0.880   1.091  0.1620  0.0458  0.1283
   15CHTO  H108 6114   6.915   0.838   1.163  0.2021  0.2031  0.2582
   15CHTO  H109 6115   7.048   0.804   1.055  1.3880  0.9645  0.4088
   15CHTO   C61 6116   6.964   1.068   0.923 -0.4887 -0.6762  0.1299
   15CHTO  H118 6117   7.073   1.057   0.909 -0.1019  1.5420  1.1400
   15CHTO   O40 6118   6.912   1.089   0.786  0.3910  0.0777  0.7092
   15CHTO   C68 6119   6.771   1.049   0.752  0.1965  0.5882 -0.5333
   15CHTO  H125 6120   6.761   0.940   0.731  0.5993  0.4585 -0.0745
   15CHTO   C72 6121   6.721   1.130   0.630 -0.0397 -0.0200  0.1914
   15CHTO   O48 6122   6.704   1.271   0.653  0.4416  0.2297  0.1786
   15CHTO  H105 6123   6.703   1.305   0.565 -0.9563 -0.6402 -0.1614
   15CHTO   O38 6124   6.948   1.181   1.015 -0.5974  0.2017 -0.7736
   15CHTO   C55 6125   7.005   1.317   1.001 -0.0392  0.4203 -0.7066
   15CHTO  H112 6126   7.015   1.351   0.897 -0.5877  0.0730 -0.8718
   15CHTO   C56 6127   7.141   1.324   1.078  0.0078  0.4290 -0.0256
   15CHTO  H113 6128   7.124   1.290   1.182 -0.9343  2.4985  0.5272
   15CHTO   O42 6129   7.234   1.234   1.020 -0.5853  0.2488  0.0199
   15CHTO  H100 6130   7.316   1.273   0.996  0.1777  0.0059  2.1143
   15CHTO   C57 6131   7.199   1.467   1.067  0.2645 -0.1351  1.0521
   15CHTO  H114 6132   7.236   1.488   0.967 -0.0717 -0.4646  0.8582
   15CHTO   N10 6133   7.318   1.503   1.149 -0.5918  0.4204 -0.0340
   15CHTO  H106 6134   7.382   1.419   1.172  0.4454  1.2774  0.2088
   15CHTO  H107 6135   7.374   1.582   1.102  1.5877 -1.7212 -1.1399
   15CHTO   C58 6136   7.090   1.571   1.107  1.2826 -0.1139 -0.4981
   15CHTO  H115 6137   7.077   1.570   1.217 -0.2660  2.1556 -0.6298
   15CHTO   O37 6138   6.965   1.543   1.042  0.2381 -0.2800  0.2811
   15CHTO   C59 6139   6.911   1.416   1.066  0.3809  0.0411  0.2139
   15CHTO  H116 6140   6.906   1.388   1.172  2.1443 -1.5307 -0.0872
   15CHTO   C70 6141   6.775   1.406   1.002  0.6087  0.3297  0.4243
   15CHTO   O46 6142   6.676   1.470   1.087 -0.0642  0.3038 -0.0478
   15CHTO  H103 6143   6.597   1.486   1.038  0.3995  0.3117 -0.8094
   15CHTO   O39 6144   7.129   1.729   1.059 -1.1486 -0.1408 -0.2682
   15CHTO   C60 6145   7.094   1.766   0.920  0.4581  0.2014 -0.7708
   15CHTO  H117 6146   7.068   1.677   0.863 -0.8674  0.4050 -0.4981
   15CHTO   C62 6147   6.969   1.861   0.910 -0.1842  0.2164 -0.5054
   15CHTO  H119 6148   6.892   1.803   0.964  2.5907  1.0776  4.7277
   15CHTO   O43 6149   6.994   1.985   0.982 -0.1917 -0.2055  0.5837
   15CHTO  H101 6150   7.073   2.019   0.944 -0.0418 -0.2742  0.8373
   15CHTO   C66 6151   6.936   1.879   0.753  0.0552  0.1663  0.1878
   15CHTO  H123 6152   6.920   1.782   0.707  0.7221  0.1615 -0.0400
   15CHTO   N12 6153   6.808   1.952   0.734  0.1090  0.2090  0.2321
   15CHTO  H110 6154   6.802   2.047   0.784 -1.0831 -0.8493  2.1898
   15CHTO  H111 6155   6.786   1.964   0.629 -0.9127  5.1266  0.9024
   15CHTO   C69 6156   7.058   1.950   0.686 -0.7709  0.4453 -0.2528
   15CHTO  H126 6157   7.073   2.054   0.722  0.0271  0.5371 -0.8045
   15CHTO   O41 6158   7.184   1.874   0.703 -0.7325  0.0021 -0.0145
   15CHTO   C64 6159   7.216   1.831   0.850 -0.4092  0.4580  0.5140
   15CHTO  H121 6160   7.240   1.914   0.919  0.9907  0.6589 -0.2092
   15CHTO   C71 6161   7.338   1.737   0.837 -0.2759  0.2698  0.2460
   15CHTO   O47 6162   7.446   1.813   0.787  0.6843  0.8749  0.2021
   15CHTO  H104 6163   7.510   1.814   0.855  0.7271  2.4138  0.1743
   15CHTO   O34 6164   7.041   1.958   0.528  0.4937  0.1127  0.3825
   15CHTO   C49 6165   7.060   2.007   0.390 -0.4586  0.7998 -1.0372
   15CHTO   H91 6166   7.091   1.917   0.337  1.6135  0.8551  0.0219
   15CHTO   C47 6167   7.178   2.106   0.374  0.1570 -0.2003 -0.3165
   15CHTO   H89 6168   7.207   2.111   0.266 -2.2599 -0.9124 -1.0186
   15CHTO   O33 6169   7.292   2.046   0.447  0.1568 -0.1934  0.5875
   15CHTO   H70 6170   7.371   2.030   0.400 -0.9967  0.2764 -1.6293
   15CHTO   C45 6171   7.130   2.249   0.431 -0.2412 -0.2237 -0.2787
   15CHTO   H87 6172   7.120   2.239   0.540 -0.4839  1.7266 -0.1075
   15CHTO    N8 6173   7.232   2.353   0.401  0.2307  0.8653 -0.1390
   15CHTO   H75 6174   7.199   2.440   0.346  0.4152  1.2515  0.3532
   15CHTO   H76 6175   7.298   2.378   0.483  0.8067 -0.2636 -0.2456
   15CHTO   C43 6176   6.983   2.297   0.384  0.2818  0.1694 -0.5214
   15CHTO   H85 6177   6.952   2.384   0.443  3.5053  1.4776 -0.6343
   15CHTO   O29 6178   6.890   2.194   0.388  0.3490 -0.0072  0.3681
   15CHTO   C50 6179   6.924   2.062   0.338  0.7058 -0.3775  0.5393
   15CHTO   H92 6180   6.844   1.996   0.374 -1.7977  2.5827  0.5624
   15CHTO   C54 6181   6.908   2.053   0.181 -0.6155  0.3161  0.0542
   15CHTO   O36 6182   6.781   2.092   0.134 -0.0590 -0.0875  0.4657
   15CHTO   H72 6183   6.711   2.064   0.190  0.4191 -0.7491  0.7446
   15CHTO   O27 6184   6.980   2.356   0.253  0.1811  0.0474 -0.1302
   15CHTO   C37 6185   6.878   2.417   0.174 -0.2787 -0.2275 -0.0250
   15CHTO   H79 6186   6.807   2.344   0.132 -0.0814  1.0137 -2.5794
   15CHTO   C38 6187   6.785   2.516   0.250 -0.5096  0.0805 -0.6128
   15CHTO   H80 6188   6.853   2.579   0.311  0.0886 -2.0574  0.9855
   15CHTO   O31 6189   6.687   2.446   0.333  0.2507  0.1113 -0.1899
   15CHTO   H68 6190   6.661   2.364   0.295  0.0469  0.4566 -0.8029
   15CHTO   C39 6191   6.699   2.618   0.159 -0.7058  0.0021  0.3117
   15CHTO   H81 6192   6.624   2.564   0.101 -0.6884 -0.2968  0.5655
   15CHTO    N7 6193   6.631   2.731   0.235 -0.3199  0.4702 -0.2614
   15CHTO   H73 6194   6.669   2.709   0.333  0.6504  0.1071 -0.7105
   15CHTO   H74 6195   6.527   2.705   0.239 -1.0967  3.1555 -1.8023
   15CHTO   C40 6196   6.798   2.680   0.056 -0.1212  0.1013  0.3565
   15CHTO   H82 6197   6.869   2.749   0.102  2.7142 -1.7499 -1.1025
   15CHTO   O26 6198   6.864   2.573  -0.018 -0.3315 -0.6327  0.0265
   15CHTO   C41 6199   6.953   2.489   0.056 -0.4799 -0.1927  0.3483
   15CHTO   H83 6200   7.035   2.548   0.100 -0.9291 -0.4090  1.4735
   15CHTO   C52 6201   7.008   2.398  -0.052 -0.2560 -0.0226  0.1039
   15CHTO   O35 6202   7.119   2.336  -0.023 -0.8100 -0.0531 -0.1555
   15CHTO   H71 6203   7.173   2.344  -0.099 -0.3326 -0.7133  0.1086
   15CHTO   O28 6204   6.729   2.730  -0.061  0.1544  0.1423 -0.0871
   15CHTO   C42 6205   6.766   2.844  -0.143 -1.0693  0.3987 -0.7695
   15CHTO   H84 6206   6.752   2.808  -0.245 -1.2035 -4.1465  0.7203
   15CHTO   C44 6207   6.914   2.902  -0.135  0.0446 -0.2854 -0.4847
   15CHTO   H86 6208   6.937   2.924  -0.030 -1.0505  1.5872 -0.6182
   15CHTO   O32 6209   7.001   2.801  -0.170  0.4799  0.6018 -0.2853
   15CHTO   H69 6210   6.996   2.780  -0.261  1.5609 -1.0909  0.0294
   15CHTO   C48 6211   6.934   3.041  -0.215  0.4889  0.3346 -0.3742
   15CHTO   H90 6212   6.960   3.007  -0.315 -0.6978 -3.7153  0.6098
   15CHTO    N9 6213   7.065   3.104  -0.168  0.0344 -0.2597  0.0696
   15CHTO   H77 6214   7.058   3.136  -0.066 -1.0455 -0.9073  0.2117
   15CHTO   H78 6215   7.124   3.164  -0.235  0.2561  3.9244  3.8231
   15CHTO   C51 6216   6.813   3.145  -0.205 -0.2820 -0.0462 -0.9472
   15CHTO   H93 6217   6.820   3.187  -0.105 -3.2508  0.7864 -1.0599
   15CHTO   O30 6218   6.691   3.073  -0.223  0.0200  0.3297  0.2971
   15CHTO   C46 6219   6.665   2.957  -0.122 -0.2567  0.3595 -0.4608
   15CHTO   H88 6220   6.674   2.991  -0.019  0.3681 -1.3162  0.0421
   15CHTO   C53 6221   6.521   2.901  -0.145 -0.0031 -0.1118 -0.0870
   15CHTO   O72 6222   6.417   2.995  -0.115 -0.3014 -0.1884 -0.4938
   15CHTO  H199 6223   6.340   2.961  -0.156 -0.3406 -1.5460  0.6518
   15CHTO   O22 6224   6.826   3.251  -0.306  0.1155 -0.1429  0.0182
   15CHTO   C31 6225   6.786   3.390  -0.291  0.4863  0.0252  0.8634
   15CHTO   H59 6226   6.829   3.439  -0.380  1.0791 -0.4164  0.9066
   15CHTO   C29 6227   6.629   3.414  -0.289  0.1373  0.2889  0.2839
   15CHTO   H57 6228   6.585   3.348  -0.212 -1.0837  0.2920 -0.3957
   15CHTO   O21 6229   6.578   3.371  -0.413  0.2447 -0.3710 -0.1944
   15CHTO   H37 6230   6.606   3.422  -0.487  0.3623  1.3871  1.0399
   15CHTO   C27 6231   6.587   3.559  -0.252 -0.4656  0.0075  0.0376
   15CHTO   H55 6232   6.614   3.626  -0.334  1.8780  1.2642  1.7936
   15CHTO    N5 6233   6.438   3.572  -0.224  0.6070 -0.0400 -0.3089
   15CHTO   H43 6234   6.395   3.625  -0.308 -2.7231 -0.5704  1.0220
   15CHTO   H44 6235   6.394   3.474  -0.228  0.8510 -0.0982 -2.1130
   15CHTO   C25 6236   6.670   3.619  -0.130  0.4585  0.4220 -0.1754
   15CHTO   H53 6237   6.639   3.569  -0.037 -1.8294 -1.2044 -1.7706
   15CHTO   O17 6238   6.807   3.596  -0.159 -0.1118 -0.5470 -0.0476
   15CHTO   C32 6239   6.853   3.464  -0.172  0.1163 -0.1790 -0.2144
   15CHTO   H60 6240   6.823   3.419  -0.077 -0.5423  1.4427  0.3782
   15CHTO   C36 6241   7.005   3.473  -0.210  0.1259 -0.7593 -0.8235
   15CHTO   O25 6242   7.086   3.540  -0.116 -0.0513 -0.0610  0.1280
   15CHTO   H40 6243   7.072   3.631  -0.132 -1.0203 -0.4131 -1.1219
   15CHTO   O15 6244   6.644   3.758  -0.106  0.0503 -0.2496 -0.1137
   15CHTO   C19 6245   6.669   3.872  -0.019  0.4678 -0.7061 -0.0197
   15CHTO   H47 6246   6.749   3.935  -0.060  1.4306 -2.1528 -0.3730
   15CHTO   C20 6247   6.545   3.964  -0.010 -0.3050 -0.2450  0.0992
   15CHTO   H48 6248   6.459   3.908   0.031  0.1973 -0.4351  0.8978
   15CHTO   O19 6249   6.513   4.014  -0.143 -0.2609  0.1261 -0.2843
   15CHTO   H35 6250   6.514   3.946  -0.208 -2.5982 -1.3288  1.0931
   15CHTO   C21 6251   6.567   4.094   0.082 -0.1352 -0.4736  0.1834
   15CHTO   H49 6252   6.638   4.159   0.029  0.3073 -0.0899  1.2302
   15CHTO    N4 6253   6.451   4.170   0.113  0.5649 -0.6694  0.1065
   15CHTO   H41 6254   6.374   4.164   0.037  0.5567 -0.3407  0.0862
   15CHTO   H42 6255   6.471   4.272   0.141  1.6335 -0.7940 -0.1839
   15CHTO   C22 6256   6.639   4.044   0.213  0.4385  0.1011 -0.0682
   15CHTO   H50 6257   6.572   3.986   0.275  1.7730 -1.9157 -0.4835
   15CHTO   O14 6258   6.752   3.958   0.190  0.4110  0.5280 -0.0249
   15CHTO   C23 6259   6.710   3.837   0.122  0.3335  0.2423  0.0285
   15CHTO   H51 6260   6.633   3.783   0.179  0.7141 -0.5358 -0.1797
   15CHTO   C34 6261   6.835   3.748   0.130  0.3200 -0.5788 -0.2481
   15CHTO   O23 6262   6.953   3.792   0.058 -0.3195 -0.1159 -0.0637
   15CHTO   H38 6263   6.954   3.760  -0.030  0.4252 -0.3835  0.0329
   15CHTO   O16 6264   6.700   4.162   0.274  0.6208 -0.3466  0.2355
   15CHTO   C24 6265   6.692   4.163   0.432  0.0044  0.4047  0.1810
   15CHTO   H52 6266   6.624   4.088   0.471  2.6115 -1.5843  1.1130
   15CHTO   C26 6267   6.640   4.299   0.477 -0.0159  0.5265  0.0073
   15CHTO   H54 6268   6.686   4.376   0.411 -0.3707  1.0145  0.3263
   15CHTO   O20 6269   6.496   4.302   0.459 -0.1424  0.1904 -0.4681
   15CHTO   H36 6270   6.467   4.386   0.487 -0.4141  0.2561 -0.9368
   15CHTO   C30 6271   6.677   4.327   0.629 -0.0530  0.0177  0.6384
   15CHTO   H58 6272   6.639   4.252   0.699  1.9677 -1.2844  0.3742
   15CHTO    N6 6273   6.625   4.463   0.674 -0.1083 -0.4999  0.0202
   15CHTO   H45 6274   6.649   4.499   0.773 -1.1579 -0.8935  0.4235
   15CHTO   H46 6275   6.518   4.470   0.662 -0.0529  0.6304  0.1406
   15CHTO   C33 6276   6.830   4.309   0.633  0.3477 -0.2764  0.1141
   15CHTO   H61 6277   6.884   4.352   0.547  0.4679  0.2765  0.4655
   15CHTO   O18 6278   6.844   4.170   0.626 -0.4204  0.5144  0.3028
   15CHTO   C28 6279   6.831   4.124   0.492  0.5838 -0.3492 -0.2042
   15CHTO   H56 6280   6.904   4.165   0.423  1.0427  0.5729  0.8138
   15CHTO   C35 6281   6.860   3.972   0.494 -0.2096 -0.3067 -0.2760
   15CHTO   O24 6282   6.999   3.949   0.507  0.3425 -0.5221 -0.1941
   15CHTO   H39 6283   7.014   3.859   0.488  0.0577 -0.9255  1.4136
   15CHTO    O9 6284   6.898   4.359   0.748  0.3282  0.0880 -0.0077
   15CHTO   C13 6285   7.042   4.460   0.728 -0.2049 -0.0701 -0.0353
   15CHTO   H26 6286   7.011   4.563   0.701  0.8223  0.7853  1.9053
   15CHTO   C11 6287   7.137   4.396   0.622  0.0775  0.2053 -0.3465
   15CHTO   H24 6288   7.084   4.405   0.527  0.0273  2.8179 -0.0981
   15CHTO    O8 6289   7.150   4.257   0.655 -0.0326  0.2329 -0.4638
   15CHTO    H3 6290   7.076   4.206   0.628  1.8185 -1.0414 -3.4814
   15CHTO    C9 6291   7.276   4.465   0.612  0.5368 -0.7463  0.0025
   15CHTO   H22 6292   7.249   4.568   0.585  0.5609 -1.0270 -1.1567
   15CHTO    N2 6293   7.358   4.405   0.503  0.0184  0.3933  0.1390
   15CHTO   H10 6294   7.292   4.352   0.436 -0.6480  0.9537  0.3370
   15CHTO   H11 6295   7.410   4.488   0.457 -0.2729  0.9660  0.8290
   15CHTO    C7 6296   7.347   4.457   0.756 -0.3015  0.4060  0.0207
   15CHTO   H20 6297   7.430   4.529   0.742 -0.1610  0.2392 -0.0122
   15CHTO    O4 6298   7.262   4.502   0.856  0.6966 -0.2934 -0.0286
   15CHTO   C14 6299   7.122   4.478   0.867  0.2646 -0.7072  0.4186
   15CHTO   H27 6300   7.099   4.576   0.914  0.6049 -0.7993  0.7775
   15CHTO   C18 6301   7.080   4.366   0.974 -0.4132 -0.3034 -0.4581
   15CHTO   O13 6302   7.092   4.406   1.106  0.1460 -0.3959  0.3711
   15CHTO    H7 6303   7.059   4.352   1.175 -0.7901  0.3793  0.5442
   15CHTO    O2 6304   7.415   4.306   0.802  0.1119  0.3137  0.0569
   15CHTO    C1 6305   7.467   4.299   0.933  0.9210  0.2288  0.4737
   15CHTO   H14 6306   7.396   4.348   1.003 -0.6374 -1.0243 -0.1996
   15CHTO    C2 6307   7.609   4.368   0.953 -0.6752  0.3273  0.6435
   15CHTO   H15 6308   7.684   4.326   0.883 -1.5476 -0.2746  0.0524
   15CHTO    O6 6309   7.602   4.508   0.924 -0.0178  0.0568 -0.1996
   15CHTO    H1 6310   7.525   4.530   0.875  0.3200  1.7947  0.0215
   15CHTO    C3 6311   7.671   4.348   1.099 -0.3574 -0.6019 -0.1226
   15CHTO   H16 6312   7.616   4.389   1.186 -0.4685 -1.1447  0.0634
   15CHTO    N1 6313   7.813   4.400   1.117 -0.2681 -0.1215  0.3123
   15CHTO    H8 6314   7.862   4.342   1.041 -1.0313 -0.4630  0.0765
   15CHTO    H9 6315   7.861   4.375   1.210  0.4344 -1.0406 -0.3011
   15CHTO    C4 6316   7.658   4.190   1.122 -0.2621  0.1924  0.0376
   15CHTO   H17 6317   7.723   4.141   1.050 -0.2525  0.5712 -0.2167
   15CHTO    O1 6318   7.527   4.145   1.105 -0.1673  0.6241 -0.3314
   15CHTO    C5 6319   7.474   4.151   0.970 -0.0680 -0.0992 -0.4928
   15CHTO   H18 6320   7.548   4.098   0.910 -0.2562  1.1935 -1.8928
   15CHTO   C16 6321   7.342   4.075   0.973  0.1716  0.3964  0.4129
   15CHTO   O11 6322   7.366   3.939   0.994  0.4811 -0.1668  0.1854
   15CHTO    H5 6323   7.412   3.902   0.921  1.3574  0.3143  0.4831
   15CHTO    O3 6324   7.677   4.158   1.262 -0.1263  0.1752 -0.1471
   15CHTO    C6 6325   7.690   4.015   1.294 -0.4724 -0.2309 -0.3225
   15CHTO   H19 6326   7.639   3.952   1.221 -1.3882 -0.4460  0.4874
   15CHTO    C8 6327   7.837   3.977   1.314  0.4224 -0.0242 -0.5741
   15CHTO   H21 6328   7.874   4.046   1.390 -0.1858  0.8531 -1.0628
   15CHTO    O7 6329   7.913   3.999   1.193  0.0532  0.3330 -0.0138
   15CHTO    H2 6330   7.952   4.084   1.191 -1.1834  0.9929  2.2692
   15CHTO   C12 6331   7.866   3.835   1.368  0.4628 -0.0476 -0.6816
   15CHTO   H25 6332   7.827   3.757   1.299  1.7527 -1.7457  0.4665
   15CHTO    N3 6333   8.011   3.800   1.394  0.4848 -0.7645 -0.3464
   15CHTO   H12 6334   8.023   3.695   1.416 -1.3751 -0.8710  0.2513
   15CHTO   H13 6335   8.078   3.837   1.318 -0.0045 -0.5400 -0.6756
   15CHTO   C15 6336   7.781   3.825   1.500 -0.1782 -0.6499 -0.7469
   15CHTO   H28 6337   7.809   3.898   1.575 -0.7357  1.1737 -2.2610
   15CHTO   O10 6338   7.764   3.680   1.536  0.1020  0.3346 -0.2917
   15CHTO    H4 6339   7.737   3.629   1.462  0.7989  0.1836 -0.4424
   15CHTO    O5 6340   7.641   3.854   1.481  0.1907  0.3985 -0.3581
   15CHTO   C10 6341   7.618   3.988   1.432 -0.0270  0.3927  0.5257
   15CHTO   H23 6342   7.655   4.063   1.502  0.9909  1.5037 -1.1570
   15CHTO   C17 6343   7.472   4.018   1.418  0.3793 -0.1716  0.6151
   15CHTO   O12 6344   7.409   4.035   1.546 -0.3593  0.0468  0.1814
   15CHTO    H6 6345   7.319   4.059   1.532 -1.1394 -1.4540  2.3800
   16CHTO  H203 6346   6.047   4.463   0.274 -0.0994 -2.2238 -1.3832
   16CHTO   O82 6347   5.972   4.462   0.330  0.6454 -0.1576 -0.2604
   16CHTO  C123 6348   6.001   4.367   0.432  0.0806  0.0676  0.1065
   16CHTO  H227 6349   5.928   4.380   0.514  1.3148 -0.1415  1.2484
   16CHTO   O77 6350   5.989   4.239   0.369  0.3008  0.0887 -0.1533
   16CHTO  C118 6351   6.020   4.124   0.443 -0.0532 -0.2625  0.1261
   16CHTO  H222 6352   5.935   4.115   0.513  0.6654 -0.3946  0.9889
   16CHTO  C125 6353   6.018   4.004   0.338 -0.5238  0.4410 -0.0127
   16CHTO   O84 6354   5.900   3.993   0.260 -0.0633  0.3240  0.0252
   16CHTO  H205 6355   5.917   4.047   0.186 -1.6890 -2.2954 -2.3391
   16CHTO  C114 6356   6.162   4.137   0.514 -0.2655  0.7922  0.4553
   16CHTO  H218 6357   6.234   4.159   0.435  1.3535 -1.5252  1.2233
   16CHTO  C116 6358   6.166   4.262   0.594 -0.4054 -0.0704 -0.5630
   16CHTO  H220 6359   6.079   4.255   0.663 -0.1908 -0.1881 -0.3017
   16CHTO   O79 6360   6.292   4.281   0.661 -0.7507  0.5524 -0.7240
   16CHTO  H201 6361   6.295   4.358   0.714 -1.0631 -0.3320  0.6171
   16CHTO  C120 6362   6.141   4.386   0.496 -0.1683 -0.2665 -0.3309
   16CHTO  H224 6363   6.213   4.388   0.412 -0.3262  0.2530 -0.4520
   16CHTO   N21 6364   6.150   4.517   0.562 -0.2395  0.7924 -0.2306
   16CHTO  H211 6365   6.210   4.509   0.651 -1.4217 -0.1141  0.4990
   16CHTO  H212 6366   6.185   4.591   0.492  0.1760  0.4460 -0.3885
   16CHTO   O75 6367   6.194   4.007   0.571  0.5102  0.8695 -0.2404
   16CHTO  C112 6368   6.332   3.925   0.500  0.4220 -0.2835  0.4522
   16CHTO  H216 6369   6.388   3.999   0.443 -0.9228 -0.3989 -1.0705
   16CHTO   O73 6370   6.276   3.821   0.419  0.1071  0.3896 -0.0835
   16CHTO  C113 6371   6.375   3.748   0.351  0.8240  0.0877 -0.6880
   16CHTO  H217 6372   6.443   3.822   0.304  1.0551  0.4382  0.1766
   16CHTO  C124 6373   6.301   3.666   0.237 -0.0724  0.5447 -0.7291
   16CHTO   O83 6374   6.248   3.744   0.135 -0.1959 -0.0397 -0.3634
   16CHTO  H204 6375   6.208   3.690   0.070 -0.9233  1.1858 -0.9582
   16CHTO  C109 6376   6.461   3.669   0.449 -0.0550  0.1453 -0.1190
   16CHTO  H213 6377   6.393   3.598   0.497 -0.3206  0.7029  0.3292
   16CHTO  C110 6378   6.525   3.764   0.555 -0.1074 -0.0656  0.0116
   16CHTO  H214 6379   6.598   3.820   0.496  1.5738 -1.0295  1.1472
   16CHTO   O78 6380   6.592   3.697   0.663  0.3493  0.0798 -0.2361
   16CHTO  H200 6381   6.537   3.667   0.733  0.0401  1.7132  0.2523
   16CHTO  C111 6382   6.416   3.861   0.615  0.1806 -0.2291  0.2239
   16CHTO  H215 6383   6.346   3.798   0.674 -1.6439  1.0807 -0.5025
   16CHTO   N19 6384   6.464   3.959   0.713 -0.0929 -0.3859 -0.7044
   16CHTO  H207 6385   6.470   3.917   0.812 -1.5769  0.7106 -0.1279
   16CHTO  H208 6386   6.562   3.996   0.687  1.1206 -0.4089  3.5574
   16CHTO   O74 6387   6.572   3.606   0.383 -0.1364  0.4889 -1.0263
   16CHTO  C115 6388   6.599   3.469   0.409 -0.2452 -0.3673 -0.4711
   16CHTO  H219 6389   6.558   3.435   0.505  1.0960 -2.7770 -0.7192
   16CHTO   O76 6390   6.522   3.374   0.295  0.1430  0.1064 -0.1698
   16CHTO  C122 6391   6.607   3.353   0.185  0.2885  0.3148  0.5289
   16CHTO  H226 6392   6.638   3.445   0.135  0.5749 -0.8274 -1.4212
   16CHTO  C126 6393   6.524   3.274   0.071 -0.1971 -0.1832  0.0452
   16CHTO   O85 6394   6.413   3.341   0.017  0.2792  0.1521  0.0211
   16CHTO  H206 6395   6.366   3.284  -0.042  0.1229  0.6136 -0.3029
   16CHTO  C121 6396   6.737   3.270   0.218 -0.1897  0.7559  0.3046
   16CHTO  H225 6397   6.713   3.162   0.206  0.0649  0.2664  3.6697
   16CHTO   O81 6398   6.838   3.312   0.130 -0.3311  0.0178 -0.2749
   16CHTO  H202 6399   6.825   3.289   0.040 -2.6088  0.1226  0.0172
   16CHTO  C119 6400   6.771   3.283   0.371 -0.2299 -0.1454 -0.2892
   16CHTO  H223 6401   6.690   3.230   0.422 -1.1611  0.0322 -1.5665
   16CHTO  C117 6402   6.751   3.439   0.407 -0.2458  0.8589  0.0565
   16CHTO  H221 6403   6.797   3.506   0.335  1.2980  1.2152  1.3340
   16CHTO   N20 6404   6.816   3.462   0.543 -0.0315 -0.6729  0.0278
   16CHTO  H209 6405   6.868   3.377   0.583 -0.6419 -0.7098  0.7615
   16CHTO  H210 6406   6.889   3.540   0.528  0.1328 -0.8408 -0.0435
   16CHTO   O80 6407   6.906   3.199   0.434  0.2129 -0.0647  0.1432
   16CHTO  C103 6408   6.910   3.043   0.425 -0.4050 -0.0645 -0.0286
   16CHTO  H190 6409   6.823   3.006   0.371 -1.2422  1.3008  0.3844
   16CHTO  C101 6410   7.042   2.985   0.363  0.0528  0.0293  0.0991
   16CHTO  H188 6411   7.122   3.032   0.420  1.5038 -3.0086  0.6286
   16CHTO   O68 6412   7.052   3.036   0.214  0.5890  0.2651  0.9595
   16CHTO  H168 6413   6.976   3.005   0.168  0.9992  0.8718 -0.1593
   16CHTO   C99 6414   7.044   2.832   0.375 -0.6439 -0.4584  0.2822
   16CHTO  H186 6415   6.955   2.792   0.322 -1.4016 -0.3864  1.4567
   16CHTO   N17 6416   7.167   2.758   0.324  0.4575  0.2391  0.4167
   16CHTO  H174 6417   7.238   2.726   0.400 -0.0808  2.5465  1.9440
   16CHTO  H175 6418   7.211   2.800   0.235 -1.1134 -1.2284 -1.0865
   16CHTO   C97 6419   7.019   2.794   0.523  0.2064  0.4725  0.1816
   16CHTO  H184 6420   7.097   2.831   0.592 -1.1865  2.4640  0.7279
   16CHTO   O64 6421   6.891   2.848   0.558 -0.0567 -0.0039 -0.4659
   16CHTO  C104 6422   6.901   2.991   0.574  0.2439 -0.0578  0.6316
   16CHTO  H191 6423   6.986   3.027   0.631 -1.6082  1.5067  2.4839
   16CHTO  C108 6424   6.772   3.050   0.636  0.1366  0.0008  0.1330
   16CHTO   O71 6425   6.754   3.014   0.771  0.2866 -0.9452  0.5340
   16CHTO  H171 6426   6.665   3.003   0.799 -0.1643 -1.3114 -1.0112
   16CHTO   O62 6427   6.987   2.653   0.550 -0.6215  0.3646 -0.5661
   16CHTO   C91 6428   6.974   2.606   0.685 -0.3540 -0.1052 -0.3341
   16CHTO  H178 6429   6.986   2.690   0.753  0.8717  1.2230 -2.1517
   16CHTO   C92 6430   7.083   2.511   0.724 -0.8872  0.0676  0.5296
   16CHTO  H179 6431   7.083   2.422   0.660 -2.4519 -1.3270  2.3934
   16CHTO   O66 6432   7.210   2.575   0.702  0.3793  0.6031 -0.0440
   16CHTO  H166 6433   7.272   2.523   0.654  0.2286 -0.2100  0.6278
   16CHTO   C93 6434   7.070   2.460   0.872 -0.0067 -0.2450 -0.3063
   16CHTO  H180 6435   7.090   2.544   0.940  1.8331  0.7369 -2.0182
   16CHTO   N16 6436   7.172   2.356   0.907  0.0916  0.1338 -0.0852
   16CHTO  H172 6437   7.154   2.265   0.852  3.5988 -0.2609 -0.6483
   16CHTO  H173 6438   7.171   2.328   1.011 -1.5465  0.6986  0.0659
   16CHTO   C94 6439   6.928   2.402   0.901 -0.4590 -0.1155 -0.8209
   16CHTO  H181 6440   6.901   2.323   0.831 -0.2238  1.1660 -2.3872
   16CHTO   O61 6441   6.831   2.502   0.864 -0.0295  0.7170  0.4789
   16CHTO   C95 6442   6.838   2.533   0.721 -0.2172  0.4502 -1.0150
   16CHTO  H182 6443   6.825   2.441   0.664 -1.0976  1.8147 -3.1139
   16CHTO  C106 6444   6.710   2.616   0.688 -0.5350  0.3389  0.1326
   16CHTO   O69 6445   6.611   2.538   0.623 -0.2769 -0.2768  0.3010
   16CHTO  H169 6446   6.531   2.585   0.636  0.1184  0.4578  0.1200
   16CHTO   O63 6447   6.910   2.371   1.058 -0.0879  0.2152 -0.3832
   16CHTO   C96 6448   6.759   2.357   1.108 -0.0520  0.3242 -0.3098
   16CHTO  H183 6449   6.771   2.291   1.195  0.5343 -0.7669 -1.2059
   16CHTO   C98 6450   6.655   2.284   1.014  0.2268  0.7463 -0.1645
   16CHTO  H185 6451   6.663   2.326   0.912  0.6932  2.1603  0.4492
   16CHTO   O67 6452   6.690   2.140   1.004  0.3429  0.3019 -0.0899
   16CHTO  H167 6453   6.723   2.117   1.089 -0.1993 -0.2549 -0.0301
   16CHTO  C102 6454   6.504   2.303   1.068 -0.0131  0.4568 -0.1678
   16CHTO  H189 6455   6.497   2.250   1.163 -1.3667 -0.1308 -0.5892
   16CHTO   N18 6456   6.396   2.240   0.984 -0.0185 -0.3994 -0.4604
   16CHTO  H176 6457   6.429   2.143   0.951  0.5396 -0.0417 -0.9633
   16CHTO  H177 6458   6.315   2.223   1.054  1.7845  0.8691  2.0291
   16CHTO  C105 6459   6.487   2.452   1.092 -0.7997  0.3206 -0.0595
   16CHTO  H192 6460   6.510   2.502   0.998  1.0023  0.6209  0.5227
   16CHTO   O65 6461   6.577   2.511   1.184  0.5008 -0.4090 -0.6291
   16CHTO  C100 6462   6.713   2.502   1.147 -0.6111 -0.1062  0.2509
   16CHTO  H187 6463   6.727   2.580   1.070  0.2898  0.6944  1.2097
   16CHTO  C107 6464   6.797   2.544   1.268  0.5391  0.2957  0.4959
   16CHTO   O70 6465   6.738   2.649   1.336  0.2172 -0.4370 -0.4121
   16CHTO  H170 6466   6.733   2.724   1.280  0.2805 -0.7022 -0.7739
   16CHTO   O57 6467   6.336   2.477   1.144  0.2319 -0.1709  0.2237
   16CHTO   C85 6468   6.258   2.575   1.066  0.0941  0.4535  0.3117
   16CHTO  H157 6469   6.280   2.541   0.963  1.0422 -0.4583  0.8219
   16CHTO   C83 6470   6.306   2.727   1.079 -0.3378 -0.2353 -0.1753
   16CHTO  H155 6471   6.411   2.726   1.049 -0.5970  2.5577 -1.3386
   16CHTO   O56 6472   6.309   2.773   1.217 -0.2011 -0.2352  0.0896
   16CHTO  H135 6473   6.333   2.704   1.276  0.9718  0.4409  0.4208
   16CHTO   C81 6474   6.221   2.810   0.971 -0.6073 -0.2335 -0.1691
   16CHTO  H153 6475   6.252   2.778   0.872 -0.9747 -2.3312  0.3618
   16CHTO   N14 6476   6.260   2.955   0.972  0.1179 -0.5732  0.0872
   16CHTO  H141 6477   6.225   2.998   1.063  1.0178  0.5836 -0.1011
   16CHTO  H142 6478   6.213   3.005   0.890 -1.3992 -0.9112  0.7374
   16CHTO   C79 6479   6.064   2.784   0.982  0.4709 -0.5157  0.0124
   16CHTO  H151 6480   6.018   2.818   0.890 -0.2828  0.6182  0.7935
   16CHTO   O52 6481   6.026   2.644   1.007 -0.2035  0.1800  0.1240
   16CHTO   C86 6482   6.103   2.569   1.104  0.3420 -0.5179  0.2583
   16CHTO  H158 6483   6.086   2.617   1.202  0.7965  2.9976 -1.3094
   16CHTO   C90 6484   6.052   2.420   1.121 -0.2048 -0.0474 -0.3046
   16CHTO   O60 6485   5.910   2.405   1.136 -0.8734 -0.2024 -0.4587
   16CHTO  H138 6486   5.885   2.323   1.173  0.6316 -0.3957  0.1629
   16CHTO   O50 6487   5.999   2.870   1.084 -0.0252  0.3645 -0.1851
   16CHTO   C73 6488   5.877   2.828   1.153  0.2696  0.0353  0.5478
   16CHTO  H145 6489   5.888   2.722   1.178  0.8002 -0.0233  0.0754
   16CHTO   C74 6490   5.751   2.845   1.062 -0.0814 -0.1104 -0.1651
   16CHTO  H146 6491   5.768   2.781   0.975  2.1630 -0.9836  0.8918
   16CHTO   O54 6492   5.636   2.786   1.122 -0.3497 -0.7194 -0.0438
   16CHTO  H133 6493   5.556   2.793   1.073  0.4353  0.2797 -1.1985
   16CHTO   C75 6494   5.740   3.002   1.021  0.1637  0.1682 -0.4032
   16CHTO  H147 6495   5.837   3.035   0.983  0.7927 -1.1900  0.0121
   16CHTO   N13 6496   5.633   3.047   0.932  0.2430 -0.0008  0.7624
   16CHTO  H139 6497   5.669   3.129   0.872 -1.2454  1.7087  2.1276
   16CHTO  H140 6498   5.612   2.973   0.856 -2.3675  1.0741  0.3557
   16CHTO   C76 6499   5.729   3.077   1.161  0.6519 -0.1429  0.4080
   16CHTO  H148 6500   5.638   3.045   1.214 -0.4022  0.0452 -1.2576
   16CHTO   O49 6501   5.842   3.047   1.245 -0.1847 -0.5219 -0.4705
   16CHTO   C77 6502   5.863   2.911   1.283  0.3199 -0.3122  0.5182
   16CHTO  H149 6503   5.775   2.883   1.340  0.9932 -0.3627  1.5460
   16CHTO   C88 6504   5.982   2.897   1.388  0.0229 -0.2995 -0.4032
   16CHTO   O58 6505   6.015   2.731   1.425  0.1733  0.0091 -0.4872
   16CHTO  H136 6506   6.060   2.673   1.366 -0.2753  0.3838 -1.2021
   16CHTO   O51 6507   5.739   3.254   1.138  0.0027 -0.3334  0.0009
   16CHTO   C78 6508   5.766   3.348   1.275  1.0601 -0.2865 -1.0379
   16CHTO  H150 6509   5.761   3.278   1.361  1.9550 -1.0031 -1.5698
   16CHTO   C80 6510   5.658   3.457   1.283  0.0592 -0.4020  0.1306
   16CHTO  H152 6511   5.648   3.515   1.189  0.0023 -0.3946  0.1415
   16CHTO   O55 6512   5.533   3.390   1.283  0.5714 -0.3433  0.5350
   16CHTO  H134 6513   5.522   3.361   1.372 -0.3379 -0.7593  0.2964
   16CHTO   C84 6514   5.685   3.549   1.411 -0.2541 -0.2374 -0.0744
   16CHTO  H156 6515   5.685   3.482   1.496 -0.6751  0.5120  0.5285
   16CHTO   N15 6516   5.586   3.651   1.434 -0.3887  0.0904  0.2717
   16CHTO  H143 6517   5.488   3.609   1.432 -0.0668 -0.6274 -1.0059
   16CHTO  H144 6518   5.602   3.731   1.365  0.1098 -0.9765 -0.8785
   16CHTO   C87 6519   5.828   3.603   1.404 -0.2997 -0.1160  0.3675
   16CHTO  H159 6520   5.839   3.671   1.319  0.3350 -0.0574  0.4986
   16CHTO   O53 6521   5.929   3.483   1.387  0.1692 -0.0893  0.4479
   16CHTO   C82 6522   5.906   3.408   1.266 -0.2451  0.3789  0.6851
   16CHTO  H154 6523   5.921   3.472   1.178  0.2659 -0.0233  0.4795
   16CHTO   C89 6524   6.011   3.299   1.256  0.7299 -0.0540  0.4831
   16CHTO   O59 6525   6.141   3.359   1.262 -0.0041  0.0623  0.4435
   16CHTO  H137 6526   6.170   3.371   1.174 -1.4840  0.1160 -0.0382
   16CHTO   O45 6527   5.862   3.676   1.559 -0.3182 -0.2375 -0.2317
   16CHTO   C67 6528   6.002   3.689   1.598  0.7833 -0.0408 -0.4508
   16CHTO  H124 6529   6.065   3.644   1.520  1.0633 -2.1200  0.9401
   16CHTO   C65 6530   6.046   3.838   1.623 -0.0074 -0.2842  0.3629
   16CHTO  H122 6531   5.954   3.885   1.657  1.3583  2.3738  0.5632
   16CHTO   O44 6532   6.077   3.898   1.495 -0.1924 -0.5152 -0.7392
   16CHTO  H102 6533   6.167   3.923   1.494 -0.3582  0.1317  0.1193
   16CHTO   C63 6534   6.150   3.858   1.746 -0.0986  0.7469 -0.0296
   16CHTO  H120 6535   6.095   3.867   1.840 -1.2438 -1.4974 -0.4623
   16CHTO   N11 6536   6.227   3.990   1.749 -0.1745 -0.1578 -0.0032
   16CHTO  H108 6537   6.165   4.063   1.701 -0.1231 -0.1630 -0.0790
   16CHTO  H109 6538   6.235   4.018   1.852 -1.1510 -1.1989  0.3598
   16CHTO   C61 6539   6.247   3.736   1.759  0.3323  0.3824 -0.4519
   16CHTO  H118 6540   6.301   3.745   1.855  0.6230  2.3190 -0.7709
   16CHTO   O40 6541   6.176   3.608   1.767  0.4837  0.6270  0.3928
   16CHTO   C68 6542   6.035   3.608   1.732  0.8424 -0.1477 -0.1667
   16CHTO  H125 6543   5.971   3.654   1.811  0.4494  0.6133 -0.9162
   16CHTO   C72 6544   5.985   3.458   1.722 -0.7857 -0.8255  0.0192
   16CHTO   O48 6545   6.058   3.376   1.628 -0.2120  0.1545  0.6488
   16CHTO  H105 6546   6.137   3.341   1.664 -0.5174  0.4905  1.6545
   16CHTO   O38 6547   6.345   3.730   1.652 -0.2754 -0.3307  0.0721
   16CHTO   C55 6548   6.475   3.669   1.669 -0.2503  0.1663 -0.1277
   16CHTO  H112 6549   6.459   3.597   1.750  0.0848 -0.2993 -0.4772
   16CHTO   C56 6550   6.584   3.780   1.701 -0.0023  0.0806  0.5045
   16CHTO  H113 6551   6.568   3.862   1.630  1.7093 -0.6639 -0.7923
   16CHTO   O42 6552   6.555   3.842   1.829 -0.3673  0.6433  0.1989
   16CHTO  H100 6553   6.525   3.789   1.900  1.7597 -0.4029  0.3449
   16CHTO   C57 6554   6.726   3.725   1.692 -0.3643 -0.4058 -0.3102
   16CHTO  H114 6555   6.736   3.659   1.778 -0.2474 -1.1213 -0.8592
   16CHTO   N10 6556   6.817   3.842   1.705 -0.3714  0.0546 -0.1759
   16CHTO  H106 6557   6.914   3.809   1.669 -0.7226 -0.4656 -0.6545
   16CHTO  H107 6558   6.830   3.883   1.804  0.7298 -1.9441  0.5332
   16CHTO   C58 6559   6.744   3.641   1.565  0.5874 -0.0139 -1.0354
   16CHTO  H115 6560   6.729   3.696   1.470  0.3296 -0.5212 -1.2941
   16CHTO   O37 6561   6.643   3.535   1.568 -0.5397  0.2399  0.3458
   16CHTO   C59 6562   6.512   3.589   1.547  0.1129  0.2171  0.9685
   16CHTO  H116 6563   6.513   3.646   1.454  1.9003  0.7408  1.2993
   16CHTO   C70 6564   6.412   3.469   1.526  0.6089 -0.8400  0.1484
   16CHTO   O46 6565   6.286   3.517   1.490 -0.5771  0.1974 -0.1086
   16CHTO  H103 6566   6.248   3.564   1.561  1.2349  2.1572 -0.3729
   16CHTO   O39 6567   6.890   3.565   1.569 -0.5774  0.3638  0.1277
   16CHTO   C60 6568   6.937   3.534   1.439  0.0493  0.1909  0.2020
   16CHTO  H117 6569   6.846   3.520   1.380 -0.1128  0.2424  0.4411
   16CHTO   C62 6570   7.038   3.640   1.389 -0.3602 -0.3101  0.3003
   16CHTO  H119 6571   6.987   3.738   1.387 -0.0546 -0.1782 -1.1224
   16CHTO   O43 6572   7.143   3.655   1.489 -0.2437 -0.2514 -0.3480
   16CHTO  H101 6573   7.194   3.577   1.496 -1.2553 -0.7028  2.7083
   16CHTO   C66 6574   7.086   3.608   1.240  0.3297  0.1145 -0.1409
   16CHTO  H123 6575   6.997   3.599   1.178  0.5764 -1.0501 -0.3314
   16CHTO   N12 6576   7.176   3.710   1.176  0.1552  0.4621 -0.2062
   16CHTO  H110 6577   7.128   3.807   1.187  0.2411  0.5313 -0.4375
   16CHTO  H111 6578   7.272   3.711   1.226  0.2335  1.6917 -0.3497
   16CHTO   C69 6579   7.149   3.469   1.236  0.7163  0.3846 -0.4163
   16CHTO  H126 6580   7.242   3.456   1.295 -0.1946 -2.0190  0.5760
   16CHTO   O41 6581   7.034   3.362   1.308 -0.3595 -0.5428  0.8571
   16CHTO   C64 6582   7.005   3.396   1.443  0.3430 -0.0679  0.4894
   16CHTO  H121 6583   7.107   3.404   1.487 -0.4638 -0.6360  2.5004
   16CHTO   C71 6584   6.923   3.284   1.511 -0.1837 -0.2730 -0.0639
   16CHTO   O47 6585   7.004   3.212   1.607 -0.0909 -0.2473 -0.6305
   16CHTO  H104 6586   7.009   3.121   1.586 -0.5955 -0.5286  0.4445
   16CHTO   O34 6587   7.174   3.420   1.072  0.1297 -1.1243 -0.6407
   16CHTO   C49 6588   7.241   3.321   0.977  0.5816 -0.0076 -0.5286
   16CHTO   H91 6589   7.295   3.378   0.902  1.8854 -1.7450 -0.9429
   16CHTO   C47 6590   7.139   3.232   0.910  0.0398  0.6712 -0.1047
   16CHTO   H89 6591   7.201   3.183   0.832 -1.0348  0.7817 -1.0354
   16CHTO   O33 6592   7.033   3.305   0.840  0.3697  0.6282  0.2085
   16CHTO   H70 6593   7.039   3.393   0.871 -0.2649  0.5736  0.4901
   16CHTO   C45 6594   7.063   3.126   1.008 -0.4972 -0.1144 -0.4086
   16CHTO   H87 6595   6.966   3.175   1.028  0.8478  2.3930  0.1852
   16CHTO    N8 6596   7.041   2.996   0.938  0.0449  0.3690  0.4667
   16CHTO   H75 6597   7.128   2.940   0.911  0.1976  0.3628  0.9612
   16CHTO   H76 6598   6.994   3.005   0.841 -0.0885  0.6950  0.5576
   16CHTO   C43 6599   7.149   3.099   1.139 -0.1557 -0.0119 -0.3448
   16CHTO   H85 6600   7.130   3.174   1.215  2.1162 -0.5662  0.8015
   16CHTO   O29 6601   7.282   3.100   1.094 -0.0369  0.5652  0.3467
   16CHTO   C50 6602   7.338   3.224   1.039  0.6343  0.2250  0.2720
   16CHTO   H92 6603   7.380   3.284   1.121  2.7920 -1.5905  0.5511
   16CHTO   C54 6604   7.452   3.180   0.938 -0.0526  0.8419  0.8962
   16CHTO   O36 6605   7.554   3.123   1.014 -0.4846 -0.1809  0.0188
   16CHTO   H72 6606   7.530   3.042   1.053 -1.4440  0.3417  0.5365
   16CHTO   O27 6607   7.119   2.981   1.213  0.5814  0.3188  0.5382
   16CHTO   C37 6608   7.187   2.891   1.301 -0.3019  0.7741  0.5709
   16CHTO   H79 6609   7.270   2.944   1.350 -2.0654  2.9474  1.2787
   16CHTO   C38 6610   7.101   2.844   1.413  0.1379 -0.1655 -0.3964
   16CHTO   H80 6611   7.006   2.804   1.373  0.7606  0.7654 -2.8555
   16CHTO   O31 6612   7.068   2.960   1.497  0.2287 -0.0864  0.1236
   16CHTO   H68 6613   6.999   2.941   1.557  1.3765 -1.9302  0.9062
   16CHTO   C39 6614   7.163   2.735   1.505 -0.4696 -0.1831  0.2268
   16CHTO   H81 6615   7.251   2.776   1.555  0.0655  0.0632 -0.9020
   16CHTO    N7 6616   7.074   2.688   1.608  0.5762  0.0635 -0.1844
   16CHTO   H73 6617   7.124   2.621   1.677 -0.0354 -0.0093  0.1914
   16CHTO   H74 6618   7.050   2.766   1.679 -2.7822 -0.4709 -0.6371
   16CHTO   C40 6619   7.218   2.612   1.417 -0.7149 -0.5812  0.0661
   16CHTO   H82 6620   7.144   2.547   1.369  0.6119 -0.9588 -1.5212
   16CHTO   O26 6621   7.308   2.674   1.324  0.5309  0.3390 -0.5425
   16CHTO   C41 6622   7.236   2.761   1.234 -0.7683 -0.0460 -0.0156
   16CHTO   H83 6623   7.162   2.706   1.174  0.4571 -1.8772  0.1371
   16CHTO   C52 6624   7.350   2.799   1.137 -0.1438  0.0841  0.4333
   16CHTO   O35 6625   7.418   2.684   1.056  0.2012  0.5087 -0.1291
   16CHTO   H71 6626   7.508   2.681   1.079  0.0326  2.6050  0.8952
   16CHTO   O28 6627   7.300   2.529   1.503 -0.2654  0.3888  0.5751
   16CHTO   C42 6628   7.295   2.379   1.488  0.2898 -0.3452  0.6356
   16CHTO   H84 6629   7.372   2.343   1.556  0.1348 -1.9665 -0.0260
   16CHTO   C44 6630   7.335   2.322   1.349 -0.0254 -0.5162  0.5237
   16CHTO   H86 6631   7.265   2.360   1.276  1.5871 -0.3826 -0.9975
   16CHTO   O32 6632   7.466   2.366   1.327  0.2354 -0.3253 -0.2209
   16CHTO   H69 6633   7.497   2.335   1.243 -0.6719  1.2686 -1.1597
   16CHTO   C48 6634   7.328   2.161   1.347  0.7492 -0.3035 -0.1769
   16CHTO   H90 6635   7.399   2.119   1.418  1.3490  0.3437 -0.3927
   16CHTO    N9 6636   7.376   2.104   1.219 -0.4903 -0.4028 -0.0088
   16CHTO   H77 6637   7.465   2.153   1.184 -0.8984 -0.1323 -0.6674
   16CHTO   H78 6638   7.379   1.997   1.213  0.9754 -0.6285  3.4392
   16CHTO   C51 6639   7.180   2.117   1.376  0.2182 -0.0701 -0.9757
   16CHTO   H93 6640   7.109   2.168   1.310  0.0453 -1.5227 -1.9376
   16CHTO   O30 6641   7.160   2.150   1.508 -0.3224  1.2022 -0.6276
   16CHTO   C46 6642   7.158   2.307   1.533  0.2851 -0.1872  0.4132
   16CHTO   H88 6643   7.081   2.346   1.467  2.6607  0.7407 -1.8638
   16CHTO   C53 6644   7.118   2.332   1.682  0.5992 -0.3806  0.2709
   16CHTO   O72 6645   6.978   2.300   1.705 -0.4409 -0.2134 -0.0130
   16CHTO  H199 6646   6.925   2.362   1.659 -0.0758  0.7434  0.8357
   16CHTO   O22 6647   7.144   1.978   1.361  0.2804 -0.4614  0.3902
   16CHTO   C31 6648   7.018   1.921   1.405  0.5892 -0.0970  0.4876
   16CHTO   H59 6649   6.983   1.987   1.487  1.0448  0.2624  0.3957
   16CHTO   C29 6650   6.916   1.937   1.286 -0.1394  0.7611  0.0346
   16CHTO   H57 6651   6.971   1.896   1.200 -0.3209  1.6162 -0.4950
   16CHTO   O21 6652   6.887   2.071   1.247  0.3744 -0.0884 -0.7598
   16CHTO   H37 6653   6.849   2.071   1.162 -1.8299  1.0736  0.1671
   16CHTO   C27 6654   6.782   1.852   1.312  0.4562  0.5539  0.3442
   16CHTO   H55 6655   6.718   1.901   1.387  1.5633  2.6581 -0.0520
   16CHTO    N5 6656   6.702   1.843   1.189 -0.4340  0.7385 -1.1299
   16CHTO   H43 6657   6.707   1.934   1.131  1.2696  1.2378 -0.2450
   16CHTO   H44 6658   6.604   1.799   1.201  0.1384 -0.3201 -0.3275
   16CHTO   C25 6659   6.808   1.709   1.368  0.3272 -0.2778  0.5515
   16CHTO   H53 6660   6.867   1.650   1.298  2.3129 -0.3703  2.2617
   16CHTO   O17 6661   6.896   1.721   1.482  0.3000 -0.4573 -0.5193
   16CHTO   C32 6662   7.027   1.782   1.467  0.4387 -0.4085  0.0056
   16CHTO   H60 6663   7.085   1.714   1.404 -0.2825 -3.1692  2.1921
   16CHTO   C36 6664   7.089   1.783   1.603  0.4089 -0.2718  0.2912
   16CHTO   O25 6665   7.212   1.850   1.611 -0.2969  0.5228 -0.3977
   16CHTO   H40 6666   7.219   1.888   1.696 -1.1415  0.0472 -0.1107
   16CHTO   O15 6667   6.680   1.638   1.424 -0.2881 -0.4282 -0.5516
   16CHTO   C19 6668   6.562   1.642   1.506  0.8703  0.3947 -0.0488
   16CHTO   H47 6669   6.555   1.541   1.549  0.6331  0.0696 -0.8328
   16CHTO   C20 6670   6.576   1.741   1.634 -0.3246 -0.1520  0.9251
   16CHTO   H48 6671   6.586   1.847   1.604  2.6604 -0.4848  0.6114
   16CHTO   O19 6672   6.696   1.702   1.711 -0.2821 -0.6936  0.0233
   16CHTO   H35 6673   6.732   1.760   1.775 -1.2618 -0.4053  0.3210
   16CHTO   C21 6674   6.456   1.734   1.730 -0.0960  1.0363 -0.3111
   16CHTO   H49 6675   6.444   1.633   1.769  1.0469  0.6187 -1.0258
   16CHTO    N4 6676   6.461   1.813   1.850  0.5135 -0.4367 -0.2595
   16CHTO   H41 6677   6.453   1.918   1.829  0.1867 -0.5143 -0.5168
   16CHTO   H42 6678   6.386   1.786   1.922 -0.6560  2.8935 -0.1355
   16CHTO   C22 6679   6.327   1.755   1.646  0.1704  0.2081  0.8838
   16CHTO   H50 6680   6.314   1.854   1.603 -0.8742  0.5773  2.0466
   16CHTO   O14 6681   6.327   1.654   1.540 -0.1914  0.0015  0.0791
   16CHTO   C23 6682   6.425   1.675   1.434  0.4552  0.2823 -0.1173
   16CHTO   H51 6683   6.416   1.782   1.407 -3.0906  0.7616  2.4955
   16CHTO   C34 6684   6.393   1.579   1.314 -0.1154  0.2998 -0.0775
   16CHTO   O23 6685   6.251   1.565   1.282 -0.1553  0.0054  0.5387
   16CHTO   H38 6686   6.216   1.651   1.267 -0.1220 -0.2099 -0.8175
   16CHTO   O16 6687   6.211   1.713   1.721  0.5482  0.5658  0.6159
   16CHTO   C24 6688   6.084   1.796   1.701  0.3150 -0.3480  0.0823
   16CHTO   H52 6689   6.079   1.848   1.605  1.7354  2.1697  1.3340
   16CHTO   C26 6690   6.078   1.898   1.809  0.2445 -0.1945 -0.1010
   16CHTO   H54 6691   6.100   1.858   1.910  3.4607  0.7370 -0.3722
   16CHTO   O20 6692   6.180   1.993   1.794 -0.4684 -0.1001 -0.5378
   16CHTO   H36 6693   6.160   2.070   1.844 -1.7838 -1.3535  0.8882
   16CHTO   C30 6694   5.944   1.981   1.812  0.9583 -0.5055  0.0422
   16CHTO   H58 6695   5.929   2.042   1.722  1.6508  0.7936  0.7826
   16CHTO    N6 6696   5.934   2.073   1.926 -0.3596  0.0202  0.7630
   16CHTO   H45 6697   6.024   2.132   1.939  0.1090 -0.5178 -0.0622
   16CHTO   H46 6698   5.847   2.137   1.925 -1.4958 -1.5325 -0.6881
   16CHTO   C33 6699   5.826   1.884   1.806 -0.4517  0.5271  0.4225
   16CHTO   H61 6700   5.824   1.827   1.901 -1.0180  0.2196  0.2304
   16CHTO   O18 6701   5.839   1.784   1.702  0.2042  0.8743  0.1115
   16CHTO   C28 6702   5.961   1.709   1.701  0.1823  0.0579  0.0363
   16CHTO   H56 6703   5.963   1.642   1.787  0.1469 -0.5843 -0.4567
   16CHTO   C35 6704   5.974   1.621   1.575  0.0655  0.3682 -0.1332
   16CHTO   O24 6705   5.869   1.527   1.558  0.2919  0.6030  0.6152
   16CHTO   H39 6706   5.786   1.570   1.551  1.1998  2.2877 -0.1036
   16CHTO    O9 6707   5.702   1.956   1.799  0.3145 -0.3695  0.3307
   16CHTO   C13 6708   5.612   1.928   1.933  0.3036  0.4940  0.5149
   16CHTO   H26 6709   5.664   1.943   2.030  1.6080  3.0170 -0.5365
   16CHTO   C11 6710   5.547   1.776   1.921 -0.4305 -0.4466 -0.5739
   16CHTO   H24 6711   5.627   1.709   1.957 -0.1668 -0.0536 -0.4215
   16CHTO    O8 6712   5.514   1.740   1.788 -0.4985 -0.0013 -0.2209
   16CHTO    H3 6713   5.593   1.721   1.741 -1.0285  1.0607 -1.5846
   16CHTO    C9 6714   5.426   1.764   2.017  0.0246  0.2266 -0.3104
   16CHTO   H22 6715   5.462   1.807   2.111  0.4438  2.7116 -1.5562
   16CHTO    N2 6716   5.391   1.624   2.043 -0.4262 -0.5826 -0.2013
   16CHTO   H10 6717   5.343   1.599   2.136  0.0227 -1.3695 -0.1771
   16CHTO   H11 6718   5.463   1.546   2.023 -0.7131 -1.3834  1.8018
   16CHTO    C7 6719   5.311   1.866   1.976  0.2805  0.1814  0.1289
   16CHTO   H20 6720   5.276   1.915   2.069 -1.5890  0.4113 -0.6603
   16CHTO    O4 6721   5.366   1.968   1.899 -0.5502 -0.7891  0.0911
   16CHTO   C14 6722   5.488   2.031   1.932 -0.3165  0.5631 -0.2282
   16CHTO   H27 6723   5.473   2.071   2.035 -1.0575  0.6924 -0.3864
   16CHTO   C18 6724   5.503   2.148   1.838  0.2668  0.0574  0.0819
   16CHTO   O13 6725   5.616   2.222   1.885 -0.0268  0.8145  0.5416
   16CHTO    H7 6726   5.620   2.310   1.851  1.4588 -0.1639 -1.9275
   16CHTO    O2 6727   5.191   1.798   1.901  0.2815  0.2683  0.5141
   16CHTO    C1 6728   5.068   1.873   1.892 -0.5435 -0.0985  0.4887
   16CHTO   H14 6729   5.020   1.846   1.796 -0.5182  0.8327  0.2050
   16CHTO    C2 6730   5.080   2.032   1.891 -0.2395  0.2534  0.8726
   16CHTO   H15 6731   5.162   2.064   1.958 -0.6527 -0.4265  1.7214
   16CHTO    O6 6732   5.108   2.078   1.753  0.4402  0.3506  0.0742
   16CHTO    H1 6733   5.198   2.071   1.730  0.3302  0.1546 -0.3050
   16CHTO    C3 6734   4.950   2.112   1.941 -0.1180 -0.6680 -0.0271
   16CHTO   H16 6735   4.881   2.120   1.856  0.7707 -1.0244 -0.7867
   16CHTO    N1 6736   4.978   2.257   1.982  0.0107 -0.3397 -0.4386
   16CHTO    H8 6737   5.085   2.276   1.978 -0.0440 -0.2085 -1.2781
   16CHTO    H9 6738   4.935   2.277   2.079 -2.3087 -0.3406 -1.4524
   16CHTO    C4 6739   4.888   2.036   2.059 -0.1308  0.0754  0.0230
   16CHTO   H17 6740   4.948   2.049   2.149  2.0235 -1.1427 -1.1987
   16CHTO    O1 6741   4.858   1.900   2.017 -0.3217  0.0130 -0.5652
   16CHTO    C5 6742   4.985   1.827   2.007 -0.3791 -0.8422  0.2375
   16CHTO   H18 6743   5.034   1.849   2.102  0.8085 -0.5686 -0.4357
   16CHTO   C16 6744   4.952   1.680   2.011 -0.5917 -0.4646 -0.0887
   16CHTO   O11 6745   4.887   1.649   2.133  0.1638  0.0662 -0.1513
   16CHTO    H5 6746   4.794   1.661   2.133 -0.2320 -2.7529 -0.2603
   16CHTO    O3 6747   4.755   2.076   2.093  0.4289  0.7019 -0.1727
   16CHTO    C6 6748   4.698   2.033   2.223  0.4693 -0.2484  0.1178
   16CHTO   H19 6749   4.760   1.954   2.267  1.0545  1.3408  2.2432
   16CHTO    C8 6750   4.696   2.154   2.323 -0.4911 -0.0853  0.2398
   16CHTO   H21 6751   4.657   2.239   2.267 -0.0791 -0.2657 -0.3285
   16CHTO    O7 6752   4.827   2.176   2.363 -0.1566  0.3105 -0.2299
   16CHTO    H2 6753   4.871   2.224   2.295 -1.5600  0.5535 -0.9759
   16CHTO   C12 6754   4.604   2.123   2.446  0.2475 -0.4450 -0.2620
   16CHTO   H25 6755   4.646   2.037   2.502  0.0266 -0.2420  0.2207
   16CHTO    N3 6756   4.597   2.245   2.536  0.0060 -0.8571 -0.0360
   16CHTO   H12 6757   4.694   2.291   2.529 -0.2482 -0.1908  0.7253
   16CHTO   H13 6758   4.578   2.216   2.638  0.5612 -0.6066  0.1367
   16CHTO   C15 6759   4.461   2.086   2.382  0.5510 -0.2038  0.5812
   16CHTO   H28 6760   4.430   2.166   2.315 -0.3588  0.0221  1.2660
   16CHTO   O10 6761   4.351   2.068   2.485 -0.0078 -0.3082  0.5122
   16CHTO    H4 6762   4.269   2.070   2.440  0.3006 -0.8113 -0.0753
   16CHTO    O5 6763   4.475   1.964   2.309  0.4345  0.8930 -0.0584
   16CHTO   C10 6764   4.557   1.975   2.190 -0.0062 -0.4157  0.8458
   16CHTO   H23 6765   4.508   2.035   2.114  0.8600 -2.1334 -1.1101
   16CHTO   C17 6766   4.557   1.837   2.131  0.2563  0.1084  0.6775
   16CHTO   O12 6767   4.443   1.757   2.144 -0.3305  0.0114  0.1860
   16CHTO    H6 6768   4.422   1.735   2.233 -2.5195  1.8767  0.1751
   17CHTO  H203 6769   5.633   4.138   0.212 -0.8001  0.8772  0.9500
   17CHTO   O82 6770   5.610   4.174   0.129  0.1744  0.0665  0.3262
   17CHTO  C123 6771   5.507   4.268   0.163  0.9488  0.1027 -0.3248
   17CHTO  H227 6772   5.431   4.220   0.226  0.6967 -1.2442 -1.5990
   17CHTO   O77 6773   5.587   4.365   0.240 -0.2887 -0.2184 -0.2500
   17CHTO  C118 6774   5.510   4.482   0.284  0.1673  0.6688  0.3586
   17CHTO  H222 6775   5.425   4.452   0.347 -0.1309  3.7673  1.5354
   17CHTO  C125 6776   5.613   4.569   0.370  0.1627 -0.0906  0.0995
   17CHTO   O84 6777   5.678   4.502   0.477  0.3574 -0.6877 -0.8775
   17CHTO  H205 6778   5.696   4.417   0.440  0.6778 -0.9431 -0.1436
   17CHTO  C114 6779   5.452   4.553   0.157  0.0192  0.2839 -1.2153
   17CHTO  H218 6780   5.534   4.599   0.102 -0.6459 -0.4504 -2.8373
   17CHTO  C116 6781   5.361   4.461   0.063 -0.1483 -0.1972 -0.9990
   17CHTO  H220 6782   5.270   4.433   0.120  0.0460  3.2425  1.1758
   17CHTO   O79 6783   5.315   4.529  -0.055  0.3967  0.0952  0.2067
   17CHTO  H201 6784   5.306   4.622  -0.043  2.2244  0.3623 -0.3451
   17CHTO  C120 6785   5.440   4.328   0.029  0.0532 -0.3075 -0.3025
   17CHTO  H224 6786   5.526   4.361  -0.032  0.3362  1.1085  0.8373
   17CHTO   N21 6787   5.360   4.229  -0.046 -0.6871  0.1220 -0.0306
   17CHTO  H211 6788   5.265   4.263  -0.084 -0.5844  0.1459 -0.2615
   17CHTO  H212 6789   5.423   4.175  -0.114 -0.1274 -0.9983  1.3491
   17CHTO   O75 6790   5.382   4.660   0.215  0.0070  0.2080 -0.0435
   17CHTO  C112 6791   5.379   4.812   0.128  0.1348  0.5244  0.2659
   17CHTO  H216 6792   5.325   4.798   0.033 -1.5432  1.2925  1.0844
   17CHTO   O73 6793   5.520   4.847   0.107  0.2800  0.7195  0.0317
   17CHTO  C113 6794   5.537   4.969   0.032 -1.3154 -0.6247 -0.3802
   17CHTO  H217 6795   5.493   4.949  -0.068 -1.8074 -1.2535 -0.0422
   17CHTO  C124 6796   5.694   4.987   0.027  0.5987  0.7790 -0.1569
   17CHTO   O83 6797   5.760   4.897  -0.056  0.4029 -0.0457 -0.4186
   17CHTO  H204 6798   5.819   4.942  -0.114  0.0307  0.5662 -0.3199
   17CHTO  C109 6799   5.466   5.093   0.093 -0.1326 -0.7144 -0.5741
   17CHTO  H213 6800   5.522   5.121   0.183  0.9614  1.5153 -1.9023
   17CHTO  C110 6801   5.316   5.053   0.129 -0.1011  0.6840 -0.0347
   17CHTO  H214 6802   5.252   5.053   0.041  1.6004 -0.2588 -1.3117
   17CHTO   O78 6803   5.257   5.167   0.194 -0.0510 -0.2842  0.4642
   17CHTO  H200 6804   5.307   5.191   0.270  0.4354  0.5572 -0.1183
   17CHTO  C111 6805   5.303   4.926   0.218 -0.0635  0.2424  0.4043
   17CHTO  H215 6806   5.358   4.937   0.313  1.5329  0.6524 -0.5519
   17CHTO   N19 6807   5.160   4.889   0.246 -0.1925 -0.1572 -0.0459
   17CHTO  H207 6808   5.130   4.894   0.349  1.0766  1.2523  0.2842
   17CHTO  H208 6809   5.138   4.792   0.205  0.4464 -0.6934  0.8788
   17CHTO   O74 6810   5.474   5.210   0.004 -0.2452 -0.2190 -0.1479
   17CHTO  C115 6811   5.502   5.336   0.087  0.1847 -0.0496 -0.7855
   17CHTO  H219 6812   5.444   5.339   0.179  1.7723 -2.3774  0.3313
   17CHTO   O76 6813   5.668   5.351   0.136 -0.8503 -0.2327  0.0185
   17CHTO  C122 6814   5.749   5.353   0.013 -0.4716 -0.2204  0.2290
   17CHTO  H226 6815   5.738   5.256  -0.037  1.8076 -1.3413  1.8077
   17CHTO  C126 6816   5.898   5.361   0.060 -0.1657 -0.1489  0.5952
   17CHTO   O85 6817   5.995   5.321  -0.039  0.4640 -0.2003 -0.0049
   17CHTO  H206 6818   6.084   5.321  -0.010  0.9894 -1.5258 -1.5562
   17CHTO  C121 6819   5.709   5.473  -0.083 -0.2899 -0.1425  0.1664
   17CHTO  H225 6820   5.792   5.547  -0.084 -1.1424  0.8190 -0.0252
   17CHTO   O81 6821   5.683   5.420  -0.217 -0.2133  0.1675 -0.4137
   17CHTO  H202 6822   5.731   5.345  -0.245  0.4265  0.5661 -0.3942
   17CHTO  C119 6823   5.587   5.552  -0.032 -0.3023 -0.4402  0.0532
   17CHTO  H223 6824   5.612   5.597   0.064 -0.7625  0.5534 -0.2892
   17CHTO  C117 6825   5.466   5.459  -0.009 -0.4221 -0.1044 -0.0243
   17CHTO  H221 6826   5.426   5.409  -0.097  0.9687  1.2394 -1.4481
   17CHTO   N20 6827   5.356   5.540   0.043  0.5241  0.0561  0.0082
   17CHTO  H209 6828   5.331   5.501   0.140 -0.2856 -0.5392 -0.4390
   17CHTO  H210 6829   5.265   5.543  -0.016 -0.1883 -1.2113  1.0380
   17CHTO   O80 6830   5.562   5.697  -0.123 -0.1644  0.2037  0.3632
   17CHTO  C103 6831   5.604   5.829  -0.052 -0.0117 -0.2061 -0.1078
   17CHTO  H190 6832   5.566   5.832   0.050 -0.7850  0.2382 -0.4109
   17CHTO  C101 6833   5.765   5.861  -0.052  0.1198  0.2534 -0.5209
   17CHTO  H188 6834   5.802   5.854  -0.155 -0.1134  1.5691 -0.7160
   17CHTO   O68 6835   5.824   5.755   0.044 -0.0283 -0.1775  0.4032
   17CHTO  H168 6836   5.768   5.734   0.116 -1.0044 -0.1137 -0.3352
   17CHTO   C99 6837   5.800   6.005  -0.009 -0.0981  0.9195 -0.3485
   17CHTO  H186 6838   5.760   6.016   0.094  0.3499 -0.3492 -0.0318
   17CHTO   N17 6839   5.953   6.032  -0.010 -0.5535 -0.2345 -0.2819
   17CHTO  H174 6840   6.012   5.948  -0.043  1.1268  0.4738  0.8176
   17CHTO  H175 6841   5.981   6.051   0.093  1.0056 -1.1451 -0.5238
   17CHTO   C97 6842   5.720   6.102  -0.098  0.0736 -0.2685 -0.3102
   17CHTO  H184 6843   5.756   6.105  -0.201  0.0687  2.5596 -0.2744
   17CHTO   O64 6844   5.575   6.074  -0.093 -0.5532 -0.1999 -0.1308
   17CHTO  C104 6845   5.532   5.943  -0.135 -0.5687 -0.0860 -0.1074
   17CHTO  H191 6846   5.555   5.930  -0.241 -1.7425  1.9190 -0.6364
   17CHTO  C108 6847   5.374   5.934  -0.124  0.1552 -0.4262  0.1476
   17CHTO   O71 6848   5.332   5.821  -0.205  0.1339 -0.8288  0.0363
   17CHTO  H171 6849   5.373   5.742  -0.176 -1.4647 -1.4703  0.6342
   17CHTO   O62 6850   5.738   6.240  -0.043 -0.3089  0.5459  0.5934
   17CHTO   C91 6851   5.660   6.345  -0.104  0.3181  0.1583  0.0968
   17CHTO  H178 6852   5.592   6.306  -0.180  0.7726  0.2613 -0.3684
   17CHTO   C92 6853   5.753   6.444  -0.194  0.3234  0.0638 -0.5450
   17CHTO  H179 6854   5.805   6.390  -0.273 -1.0143  0.6707 -1.8724
   17CHTO   O66 6855   5.669   6.533  -0.274  0.1177  0.6596 -0.4537
   17CHTO  H166 6856   5.628   6.604  -0.228  0.9266  0.5997  0.3804
   17CHTO   C93 6857   5.842   6.548  -0.113  0.4000 -0.0857 -0.1651
   17CHTO  H180 6858   5.861   6.633  -0.180 -1.4171  0.8181  0.4465
   17CHTO   N16 6859   5.974   6.486  -0.076 -0.1628 -0.5689 -0.4037
   17CHTO  H172 6860   5.951   6.432   0.014 -0.1426  1.4406  0.8543
   17CHTO  H173 6861   6.016   6.419  -0.149 -1.3761 -0.8997 -0.8036
   17CHTO   C94 6862   5.767   6.600   0.017 -0.7571 -0.3635 -0.2303
   17CHTO  H181 6863   5.809   6.556   0.107 -0.0275  1.6443  0.4454
   17CHTO   O61 6864   5.625   6.576   0.010  0.4984  0.1837 -0.6030
   17CHTO   C95 6865   5.583   6.439   0.013 -0.4847  0.6276  0.5999
   17CHTO  H182 6866   5.605   6.394   0.110 -0.2608 -0.0140  0.2564
   17CHTO  C106 6867   5.435   6.429   0.003  0.3544 -0.2473  0.7753
   17CHTO   O69 6868   5.380   6.505   0.109 -0.0077  0.1439 -0.2090
   17CHTO  H169 6869   5.378   6.594   0.079  1.5551  0.5265  0.7817
   17CHTO   O63 6870   5.792   6.771   0.035  0.8654 -0.5840  0.0890
   17CHTO   C96 6871   5.708   6.831   0.158  0.2514 -0.3066  0.0093
   17CHTO  H183 6872   5.661   6.752   0.215  0.3899 -0.9844 -0.7987
   17CHTO   C98 6873   5.588   6.918   0.107 -0.8396  0.4088  0.2125
   17CHTO  H185 6874   5.629   6.977   0.024 -0.6545 -1.2022 -0.8858
   17CHTO   O67 6875   5.486   6.833   0.050 -0.0826 -0.0993  0.1342
   17CHTO  H167 6876   5.426   6.885   0.001  1.1925 -0.4143 -1.7988
   17CHTO  C102 6877   5.524   7.000   0.218 -0.0921 -0.4858  0.0193
   17CHTO  H189 6878   5.476   6.928   0.287 -0.4116  0.4784  0.8134
   17CHTO   N18 6879   5.415   7.091   0.177 -0.1018 -0.3980 -0.5709
   17CHTO  H176 6880   5.327   7.039   0.144  0.8865 -1.9949 -0.7159
   17CHTO  H177 6881   5.442   7.170   0.108  2.0055 -0.5538  0.0506
   17CHTO  C105 6882   5.625   7.070   0.313  0.2865  0.2960 -0.1145
   17CHTO  H192 6883   5.678   7.151   0.264 -0.0988  1.1007  0.7798
   17CHTO   O65 6884   5.726   6.974   0.360  0.1696  0.0021  0.3537
   17CHTO  C100 6885   5.807   6.915   0.253  0.3904  0.1261 -0.2446
   17CHTO  H187 6886   5.862   6.985   0.189  1.8615 -0.1978  0.6496
   17CHTO  C107 6887   5.915   6.828   0.314 -0.7652  0.3009 -0.0279
   17CHTO   O70 6888   6.001   6.913   0.385 -0.1234 -0.5145 -0.4082
   17CHTO  H170 6889   6.031   6.863   0.458 -0.7015 -0.6901 -0.2936
   17CHTO   O57 6890   5.554   7.111   0.439  0.1846  0.0226  0.3280
   17CHTO   C85 6891   5.582   7.246   0.480  0.1529 -0.6230 -0.4652
   17CHTO  H157 6892   5.578   7.314   0.392 -1.1783  2.5472  1.9320
   17CHTO   C83 6893   5.735   7.252   0.527  0.3201  0.3200 -0.2462
   17CHTO  H155 6894   5.806   7.230   0.447  0.8670 -1.2052  0.6383
   17CHTO   O56 6895   5.753   7.149   0.628  0.3788 -0.1265 -0.4321
   17CHTO  H135 6896   5.753   7.065   0.588  1.6978  0.0353 -0.7677
   17CHTO   C81 6897   5.764   7.395   0.592 -0.4164  0.6930  0.4490
   17CHTO  H153 6898   5.745   7.473   0.519 -1.2649 -1.0918 -1.3050
   17CHTO   N14 6899   5.906   7.426   0.629 -0.5471 -0.0413 -0.5955
   17CHTO  H141 6900   5.908   7.528   0.662  2.4361  0.0684 -0.9402
   17CHTO  H142 6901   5.930   7.363   0.712 -1.4642 -0.4174 -0.6135
   17CHTO   C79 6902   5.661   7.422   0.717  0.6430 -0.1304 -0.0199
   17CHTO  H151 6903   5.674   7.526   0.750 -2.4697  0.3236 -0.1523
   17CHTO   O52 6904   5.520   7.415   0.673 -0.1055 -0.3106 -0.3430
   17CHTO   C86 6905   5.480   7.296   0.595  0.6237 -0.5422  0.2167
   17CHTO  H158 6906   5.463   7.217   0.671 -1.1602  0.2189  0.6282
   17CHTO   C90 6907   5.336   7.317   0.530  0.0417 -0.3332  0.3395
   17CHTO   O60 6908   5.302   7.199   0.461  0.3338 -0.7796  0.1478
   17CHTO  H138 6909   5.329   7.124   0.511 -0.0297 -0.4855  0.7848
   17CHTO   O50 6910   5.673   7.333   0.832 -0.2832  0.4288 -0.3241
   17CHTO   C73 6911   5.666   7.307   0.971 -0.2606 -0.1934 -0.3963
   17CHTO  H145 6912   5.616   7.389   1.025  0.1913 -0.1238 -0.0903
   17CHTO   C74 6913   5.811   7.306   1.032 -0.3084  0.0296 -0.0386
   17CHTO  H146 6914   5.862   7.390   0.984 -0.2265 -0.0127 -0.0248
   17CHTO   O54 6915   5.790   7.324   1.168 -0.4925  0.0388 -0.0595
   17CHTO  H133 6916   5.873   7.346   1.206 -0.4761 -0.2760  0.0844
   17CHTO   C75 6917   5.885   7.167   0.994 -0.3334  0.5221 -0.8856
   17CHTO  H147 6918   5.902   7.156   0.886 -2.8922 -0.2577 -1.2177
   17CHTO   N13 6919   6.017   7.147   1.054 -0.1575 -0.0750  0.3926
   17CHTO  H139 6920   6.005   7.153   1.161 -1.4668  0.1009  0.2340
   17CHTO  H140 6921   6.084   7.222   1.014 -2.6567  1.3422 -1.2930
   17CHTO   C76 6922   5.785   7.050   1.037 -0.4140  0.2602  0.4604
   17CHTO  H148 6923   5.759   7.066   1.142  0.0420 -0.5604  0.7088
   17CHTO   O49 6924   5.664   7.058   0.955  0.1007 -0.6631  0.1267
   17CHTO   C77 6925   5.594   7.175   0.998  0.6140  0.0759  0.1355
   17CHTO  H149 6926   5.574   7.166   1.105  0.2163 -2.6163 -0.1318
   17CHTO   C88 6927   5.448   7.169   0.945 -0.1613  0.3132 -0.0530
   17CHTO   O58 6928   5.359   7.288   0.997 -0.1479 -0.1439  0.5183
   17CHTO  H136 6929   5.395   7.370   0.966 -1.5187  0.1028 -0.4681
   17CHTO   O51 6930   5.841   6.906   1.012  0.1504  0.0640  0.3735
   17CHTO   C78 6931   5.730   6.795   0.984 -0.1018  0.1875 -0.1896
   17CHTO  H150 6932   5.635   6.844   0.957  0.9207  2.3911  0.0800
   17CHTO   C80 6933   5.711   6.714   1.114  0.4962 -0.0317  0.1834
   17CHTO  H152 6934   5.811   6.675   1.141  0.5438 -0.8018 -1.0346
   17CHTO   O55 6935   5.652   6.794   1.215 -0.4391  0.5067  0.5278
   17CHTO  H134 6936   5.619   6.744   1.287  0.1922  0.7967  1.0270
   17CHTO   C84 6937   5.630   6.575   1.091 -0.6842  0.2120  0.6410
   17CHTO  H156 6938   5.529   6.606   1.064 -0.8398  0.9481  1.9926
   17CHTO   N15 6939   5.629   6.476   1.204 -0.0871 -0.9129 -0.1417
   17CHTO  H143 6940   5.727   6.436   1.220 -1.0352 -3.5190 -0.5452
   17CHTO  H144 6941   5.598   6.520   1.296 -0.3894  0.1940 -0.7649
   17CHTO   C87 6942   5.688   6.512   0.960 -0.6164  0.4978  0.0557
   17CHTO  H159 6943   5.794   6.489   0.976 -0.8820 -1.1643 -0.4826
   17CHTO   O53 6944   5.683   6.598   0.846 -0.8064  0.6099  0.4165
   17CHTO   C82 6945   5.776   6.708   0.859 -0.5347 -0.1877 -0.4077
   17CHTO  H154 6946   5.878   6.674   0.873 -0.6851 -1.1629 -1.4993
   17CHTO   C89 6947   5.768   6.786   0.726  0.2458  0.5787 -0.7962
   17CHTO   O59 6948   5.637   6.833   0.694  0.1408  0.3486 -0.3806
   17CHTO  H137 6949   5.644   6.893   0.622 -1.1307  0.0838 -0.7225
   17CHTO   O45 6950   5.606   6.384   0.911  0.2722  0.0402 -0.7008
   17CHTO   C67 6951   5.459   6.367   0.913 -0.1807  0.0768 -0.0531
   17CHTO  H124 6952   5.426   6.396   1.013  1.8304  1.6107  0.1990
   17CHTO   C65 6953   5.380   6.453   0.806 -0.2241 -0.0490 -0.2684
   17CHTO  H122 6954   5.450   6.507   0.743  0.4847  0.4343  0.9278
   17CHTO   O44 6955   5.318   6.567   0.872 -0.1705  0.6583  0.1716
   17CHTO  H102 6956   5.275   6.614   0.803 -1.7976  0.7197  1.1854
   17CHTO   C63 6957   5.288   6.366   0.715  0.3876  0.5383 -0.2016
   17CHTO  H120 6958   5.354   6.312   0.647  0.3451  0.1416  0.0681
   17CHTO   N11 6959   5.209   6.446   0.616  0.8801 -0.6868 -0.4494
   17CHTO  H108 6960   5.264   6.471   0.528  0.8388  0.9768 -0.0243
   17CHTO  H109 6961   5.186   6.542   0.658  1.3916  0.2978 -2.3627
   17CHTO   C61 6962   5.208   6.253   0.790 -0.0168  0.9590 -0.0884
   17CHTO  H118 6963   5.175   6.179   0.715  0.6762  1.2178 -0.6560
   17CHTO   O40 6964   5.288   6.178   0.888 -0.4807 -0.0938 -0.1589
   17CHTO   C68 6965   5.430   6.209   0.896 -0.0362  0.1270 -0.1762
   17CHTO  H125 6966   5.480   6.169   0.805  1.7720  0.9961  0.4159
   17CHTO   C72 6967   5.491   6.131   1.014  0.2576  0.6028 -0.6098
   17CHTO   O48 6968   5.633   6.129   1.034 -0.3842  0.9943  0.6670
   17CHTO  H105 6969   5.646   6.082   1.114 -2.6918  1.3707  1.2818
   17CHTO   O38 6970   5.096   6.308   0.865 -0.6230  0.1343 -0.3227
   17CHTO   C55 6971   5.014   6.231   0.953  0.1813 -0.4673  0.6821
   17CHTO  H112 6972   5.089   6.180   1.014  1.0095  1.1697  1.0607
   17CHTO   C56 6973   4.925   6.134   0.872  0.4659 -0.1835 -0.3621
   17CHTO  H113 6974   4.878   6.179   0.783  0.2980  0.5400  0.0951
   17CHTO   O42 6975   5.010   6.031   0.816 -0.0117 -0.2702  0.1557
   17CHTO  H100 6976   5.039   6.070   0.736 -2.2273  2.1857  0.4704
   17CHTO   C57 6977   4.815   6.063   0.962 -0.0564 -0.0169  0.5691
   17CHTO  H114 6978   4.868   5.992   1.025  0.6953 -0.1137 -0.1643
   17CHTO   N10 6979   4.712   5.986   0.887 -0.2939  0.4999 -0.7149
   17CHTO  H106 6980   4.679   6.044   0.802 -0.2069  0.4385 -0.7915
   17CHTO  H107 6981   4.753   5.891   0.852  1.0614  0.8843 -0.2187
   17CHTO   C58 6982   4.743   6.167   1.050 -0.5306 -0.4023  0.0914
   17CHTO  H115 6983   4.684   6.239   0.989  1.4005  1.7962  0.7147
   17CHTO   O37 6984   4.843   6.240   1.116 -0.4280  0.1728  0.3627
   17CHTO   C59 6985   4.916   6.327   1.027 -0.5864 -0.2486  0.2629
   17CHTO  H116 6986   4.849   6.386   0.965 -0.0876  2.2281  1.9739
   17CHTO   C70 6987   4.998   6.421   1.118 -0.5699  0.1465  0.1577
   17CHTO   O46 6988   5.048   6.529   1.044 -0.5003  0.1117 -0.4321
   17CHTO  H103 6989   5.132   6.553   1.079 -0.5479  0.4136 -0.5181
   17CHTO   O39 6990   4.634   6.096   1.170 -0.5251  0.0811  0.1770
   17CHTO   C60 6991   4.536   6.187   1.225  0.1303 -0.7131  0.4612
   17CHTO  H117 6992   4.585   6.284   1.236  0.4072 -1.0970  2.9066
   17CHTO   C62 6993   4.421   6.204   1.122 -0.4246  0.8812  0.8597
   17CHTO  H119 6994   4.459   6.251   1.029  1.2703 -0.8108  0.6403
   17CHTO   O43 6995   4.366   6.076   1.086  0.2268  0.1259 -0.6334
   17CHTO  H101 6996   4.303   6.083   1.017  0.5535 -0.4120 -0.9868
   17CHTO   C66 6997   4.318   6.303   1.176 -0.2600 -0.3409 -0.3149
   17CHTO  H123 6998   4.368   6.398   1.194  0.3609 -0.6255 -0.5088
   17CHTO   N12 6999   4.205   6.335   1.081  0.1166  0.2249  0.1999
   17CHTO  H110 7000   4.247   6.392   1.000 -0.0490 -0.1422 -0.1492
   17CHTO  H111 7001   4.161   6.243   1.045 -4.0646  1.6293  1.4367
   17CHTO   C69 7002   4.263   6.255   1.312  0.2983  0.2198 -0.2098
   17CHTO  H126 7003   4.219   6.155   1.296 -0.2614  0.5313 -0.6114
   17CHTO   O41 7004   4.376   6.224   1.418  0.6321  0.4071 -0.4318
   17CHTO   C64 7005   4.499   6.138   1.368  0.1130  0.4026 -0.5843
   17CHTO  H121 7006   4.482   6.029   1.375 -1.7302  0.7033 -0.1548
   17CHTO   C71 7007   4.623   6.150   1.455  0.6152 -0.0871 -0.3584
   17CHTO   O47 7008   4.603   6.109   1.588 -0.0713 -0.2054 -0.3722
   17CHTO  H104 7009   4.656   6.162   1.644 -0.0062 -0.5504 -0.1059
   17CHTO   O34 7010   4.163   6.351   1.374  0.4455  0.0145  0.2394
   17CHTO   C49 7011   4.053   6.429   1.433 -0.3395  0.1502  0.9100
   17CHTO   H91 7012   4.092   6.523   1.472  0.1343  0.1743  0.3863
   17CHTO   C47 7013   3.986   6.346   1.545  0.2475  0.6924 -0.4411
   17CHTO   H89 7014   3.908   6.415   1.584  0.3736 -0.5691  2.1174
   17CHTO   O33 7015   4.081   6.323   1.654  0.4203 -0.8483  0.2889
   17CHTO   H70 7016   4.061   6.381   1.725  1.1108  1.1253 -1.0764
   17CHTO   C45 7017   3.924   6.210   1.484 -0.2939 -0.4803 -0.1579
   17CHTO   H87 7018   4.000   6.132   1.494 -0.0837 -0.4579 -1.4579
   17CHTO    N8 7019   3.797   6.172   1.552 -0.8055 -0.0768  0.2283
   17CHTO   H75 7020   3.739   6.252   1.595 -0.6741  1.1574 -1.8278
   17CHTO   H76 7021   3.820   6.095   1.624  4.0709 -0.6149 -1.7029
   17CHTO   C43 7022   3.911   6.215   1.320 -0.5898 -0.8371 -0.7988
   17CHTO   H85 7023   4.007   6.184   1.281  0.8771  1.2134  1.0772
   17CHTO   O29 7024   3.869   6.340   1.277  0.2304 -0.1455 -0.2090
   17CHTO   C50 7025   3.942   6.455   1.326  0.0544 -0.9661 -0.2121
   17CHTO   H92 7026   3.991   6.502   1.240 -1.1635  1.2393  0.2790
   17CHTO   C54 7027   3.840   6.564   1.362 -0.0915 -0.1332  0.4889
   17CHTO   O36 7028   3.730   6.537   1.446  0.3550  0.8577  0.3546
   17CHTO   H72 7029   3.665   6.599   1.419  1.4941  0.4976 -3.5286
   17CHTO   O27 7030   3.831   6.101   1.269 -0.1512  0.0828  0.2645
   17CHTO   C37 7031   3.832   5.970   1.226  0.4810 -0.0768 -0.4250
   17CHTO   H79 7032   3.907   5.911   1.281  2.5693  1.5478 -1.4561
   17CHTO   C38 7033   3.689   5.910   1.254  0.2403  0.6712 -0.4603
   17CHTO   H80 7034   3.615   5.980   1.211 -2.9993 -2.5184 -0.3402
   17CHTO   O31 7035   3.668   5.900   1.396  0.0084 -0.3218  0.3414
   17CHTO   H68 7036   3.746   5.880   1.444  1.3737  0.9340 -1.3066
   17CHTO   C39 7037   3.686   5.768   1.185  0.0535  0.0802 -0.4003
   17CHTO   H81 7038   3.760   5.707   1.235  0.5079 -0.8005 -2.1012
   17CHTO    N7 7039   3.550   5.708   1.204  0.2757 -0.1977 -0.1935
   17CHTO   H73 7040   3.477   5.758   1.142 -0.3633  0.8832  1.4034
   17CHTO   H74 7041   3.520   5.735   1.304  2.6443  1.4880  0.1242
   17CHTO   C40 7042   3.719   5.777   1.028  0.4719 -0.3641 -0.1570
   17CHTO   H82 7043   3.642   5.833   0.974  0.4082  1.6825  1.9827
   17CHTO   O26 7044   3.855   5.841   1.018 -0.1894 -0.0375 -0.0866
   17CHTO   C41 7045   3.861   5.970   1.073 -0.2946 -0.0133  0.2513
   17CHTO   H83 7046   3.789   6.036   1.021 -1.2284  0.7885  2.5029
   17CHTO   C52 7047   4.003   6.030   1.036 -0.2994 -0.1980  0.7020
   17CHTO   O35 7048   4.034   5.988   0.903  0.5289  0.8344  0.8505
   17CHTO   H71 7049   3.990   6.050   0.849 -2.3292 -0.7769  1.1848
   17CHTO   O28 7050   3.738   5.650   0.957 -0.2127 -0.1240  0.1837
   17CHTO   C42 7051   3.856   5.564   0.961  0.0376  0.5207 -0.3848
   17CHTO   H84 7052   3.818   5.471   0.919  1.2557  0.0235 -0.4095
   17CHTO   C44 7053   3.910   5.524   1.101 -0.6149 -0.2980 -0.4598
   17CHTO   H86 7054   3.931   5.614   1.160  1.0540 -0.9952  0.0346
   17CHTO   O32 7055   3.805   5.454   1.161  0.0939  0.0704 -0.1114
   17CHTO   H69 7056   3.834   5.381   1.213 -1.9167  0.3497  1.4365
   17CHTO   C48 7057   4.040   5.432   1.096 -0.2923 -0.8399 -0.0499
   17CHTO   H90 7058   4.006   5.338   1.053  0.9634 -0.6670 -1.4409
   17CHTO    N9 7059   4.102   5.396   1.226 -0.3936 -0.4615  0.3550
   17CHTO   H77 7060   4.188   5.334   1.204  0.1449  0.6776 -0.7805
   17CHTO   H78 7061   4.029   5.338   1.281  0.9900 -1.4880  1.1467
   17CHTO   C51 7062   4.141   5.499   0.997  0.2598 -0.5494 -0.6169
   17CHTO   H93 7063   4.173   5.598   1.032 -1.2366 -0.2590 -0.0544
   17CHTO   O30 7064   4.068   5.511   0.874  0.1249  0.1861 -0.0810
   17CHTO   C46 7065   3.972   5.612   0.866 -0.0925 -1.0353  0.0893
   17CHTO   H88 7066   4.007   5.711   0.896 -1.2575 -0.5171 -0.2169
   17CHTO   C53 7067   3.934   5.623   0.715 -0.7204 -0.2384 -0.6835
   17CHTO   O72 7068   3.879   5.498   0.676  0.2791  0.4174  0.4431
   17CHTO  H199 7069   3.797   5.513   0.635  0.7105  0.8345 -0.2747
   17CHTO   O22 7070   4.264   5.424   0.971 -0.0350 -0.0568 -0.0557
   17CHTO   C31 7071   4.357   5.468   0.872 -0.2593  1.3475  0.3491
   17CHTO   H59 7072   4.454   5.426   0.905 -0.9309  0.3037  1.0111
   17CHTO   C29 7073   4.318   5.397   0.738 -0.1539 -0.3362 -0.1690
   17CHTO   H57 7074   4.210   5.413   0.734 -0.0168  0.6840  0.0335
   17CHTO   O21 7075   4.351   5.257   0.752  0.2467 -0.7436 -0.4105
   17CHTO   H37 7076   4.397   5.236   0.831 -0.3493  0.9260  0.4009
   17CHTO   C27 7077   4.389   5.452   0.609 -0.3627 -0.5894 -0.5168
   17CHTO   H55 7078   4.496   5.428   0.609  0.1296  1.3084  2.3064
   17CHTO    N5 7079   4.326   5.399   0.487 -0.3545  0.3106 -0.0491
   17CHTO   H43 7080   4.350   5.294   0.483  0.2481  0.5249 -4.7576
   17CHTO   H44 7081   4.358   5.451   0.398  0.2617 -0.3738 -0.2351
   17CHTO   C25 7082   4.375   5.613   0.615 -0.3850 -0.1665 -0.6649
   17CHTO   H53 7083   4.268   5.635   0.626 -0.4243 -0.8544  0.4370
   17CHTO   O17 7084   4.446   5.654   0.735  0.0236 -0.0171  0.2538
   17CHTO   C32 7085   4.387   5.626   0.860 -0.4157 -0.3590  0.0265
   17CHTO   H60 7086   4.296   5.684   0.878 -1.2275 -0.5549 -3.0132
   17CHTO   C36 7087   4.480   5.668   0.983  0.2111  0.6721 -0.1207
   17CHTO   O25 7088   4.411   5.657   1.104 -0.3823 -0.3015 -0.4789
   17CHTO   H40 7089   4.461   5.652   1.183 -0.4960 -0.9889 -0.4460
   17CHTO   O15 7090   4.425   5.683   0.501 -0.5453 -0.4670  0.5349
   17CHTO   C19 7091   4.439   5.822   0.481  0.2829 -0.5656  0.8986
   17CHTO   H47 7092   4.435   5.835   0.372 -2.3550 -0.9045  0.9120
   17CHTO   C20 7093   4.315   5.910   0.537  0.6134 -0.0584 -0.2745
   17CHTO   H48 7094   4.302   5.893   0.645  1.0686 -2.0268 -0.5069
   17CHTO   O19 7095   4.191   5.862   0.479 -0.0815  0.2288 -0.1758
   17CHTO   H35 7096   4.198   5.882   0.387 -1.3287  0.6164 -0.1941
   17CHTO   C21 7097   4.338   6.062   0.521 -0.9878 -0.3082  0.1080
   17CHTO   H49 7098   4.345   6.088   0.415 -0.4782 -0.2632  0.1501
   17CHTO    N4 7099   4.233   6.155   0.575  0.4350 -0.3408 -0.3636
   17CHTO   H41 7100   4.230   6.243   0.512  2.5782  1.5383  2.0222
   17CHTO   H42 7101   4.137   6.106   0.569  0.2793 -0.0882 -0.0105
   17CHTO   C22 7102   4.480   6.100   0.580  0.3694 -0.0580 -0.5391
   17CHTO   H50 7103   4.482   6.070   0.685  0.4034 -1.4282 -0.9192
   17CHTO   O14 7104   4.579   6.020   0.510  0.8266 -0.4098 -0.0181
   17CHTO   C23 7105   4.572   5.879   0.531 -0.2169  0.8186 -0.0490
   17CHTO   H51 7106   4.583   5.872   0.640  0.6928  1.0911 -0.1166
   17CHTO   C34 7107   4.700   5.823   0.458  0.5535  0.1314  0.5878
   17CHTO   O23 7108   4.701   5.683   0.454  0.3235 -0.7042  0.2552
   17CHTO   H38 7109   4.777   5.652   0.408 -0.4331 -0.5520 -1.1375
   17CHTO   O16 7110   4.526   6.232   0.564 -0.0972  0.5393 -0.0544
   17CHTO   C24 7111   4.596   6.299   0.663  0.4360  0.3550 -0.1687
   17CHTO   H52 7112   4.640   6.229   0.734 -0.5717  0.2805  0.3870
   17CHTO   C26 7113   4.501   6.404   0.730 -0.3399  0.6256  0.5523
   17CHTO   H54 7114   4.448   6.457   0.648  1.9877  3.2990  0.6753
   17CHTO   O20 7115   4.390   6.342   0.792  0.0141  0.0872 -0.1008
   17CHTO   H36 7116   4.349   6.279   0.735  0.5401  1.8240 -2.4777
   17CHTO   C30 7117   4.575   6.509   0.824 -0.8456 -0.0667 -0.0181
   17CHTO   H58 7118   4.616   6.464   0.916 -0.6643  0.5778  0.2210
   17CHTO    N6 7119   4.489   6.613   0.885 -0.2672 -0.2922  0.2833
   17CHTO   H45 7120   4.537   6.666   0.966 -1.4646  0.3502  0.5800
   17CHTO   H46 7121   4.426   6.675   0.824  0.3960 -0.3283 -0.4422
   17CHTO   C33 7122   4.704   6.562   0.750 -0.5088 -0.5926  0.4097
   17CHTO   H61 7123   4.665   6.626   0.669  0.4447  0.4096  0.7306
   17CHTO   O18 7124   4.779   6.457   0.692  0.0991 -0.5615  0.3568
   17CHTO   C28 7125   4.708   6.378   0.601 -0.4082  0.5945  0.6153
   17CHTO   H56 7126   4.669   6.437   0.517 -2.1339 -1.3319  0.0229
   17CHTO   C35 7127   4.807   6.276   0.537  0.3001  0.1699 -0.1871
   17CHTO   O24 7128   4.905   6.345   0.456  0.5890 -0.1867  0.0980
   17CHTO   H39 7129   4.860   6.376   0.381  1.8664 -0.4931 -0.8192
   17CHTO    O9 7130   4.783   6.646   0.830  0.2441 -0.0521 -0.3975
   17CHTO   C13 7131   4.893   6.733   0.742  0.6747 -0.1849 -0.0713
   17CHTO   H26 7132   4.933   6.664   0.664  1.3457 -0.4567  0.5034
   17CHTO   C11 7133   5.014   6.779   0.838 -0.4184 -0.0724  0.1065
   17CHTO   H24 7134   5.077   6.692   0.856 -0.0554  0.4414  1.4094
   17CHTO    O8 7135   4.971   6.831   0.968 -0.1695  0.3427  0.2691
   17CHTO    H3 7136   5.048   6.868   1.006 -0.2848 -0.4086  1.2592
   17CHTO    C9 7137   5.108   6.860   0.751 -0.5717  0.0443 -0.6147
   17CHTO   H22 7138   5.135   6.798   0.664  0.6859  1.1844 -1.0702
   17CHTO    N2 7139   5.245   6.883   0.801 -0.8648 -0.0462 -0.0086
   17CHTO   H10 7140   5.220   6.942   0.888 -1.4838  1.6427 -1.2982
   17CHTO   H11 7141   5.307   6.939   0.733 -1.0562 -1.7410 -1.6009
   17CHTO    C7 7142   5.028   6.985   0.702  0.2096 -0.3036 -0.4784
   17CHTO   H20 7143   5.101   7.046   0.645  1.6954  0.5580  2.2339
   17CHTO    O4 7144   4.920   6.957   0.613 -0.1738  0.1926 -0.3814
   17CHTO   C14 7145   4.828   6.855   0.660  0.3732  0.0878  0.5529
   17CHTO   H27 7146   4.784   6.806   0.570  1.6424 -0.2110  0.0838
   17CHTO   C18 7147   4.715   6.915   0.739  0.3282  0.0991 -0.4374
   17CHTO   O13 7148   4.587   6.909   0.671  0.2015  0.1718 -0.1112
   17CHTO    H7 7149   4.565   6.820   0.651  0.9900 -0.3007  1.0537
   17CHTO    O2 7150   4.971   7.081   0.840 -0.0982 -0.5772 -0.0209
   17CHTO    C1 7151   4.918   7.215   0.805  0.1118  0.0683 -0.3946
   17CHTO   H14 7152   4.845   7.205   0.722 -1.5870  0.7579  0.9786
   17CHTO    C2 7153   5.027   7.319   0.754  0.4465  0.8786  0.5525
   17CHTO   H15 7154   5.120   7.299   0.809 -0.2346  1.1735  1.8305
   17CHTO    O6 7155   5.062   7.275   0.625  0.1861  0.2100  0.4706
   17CHTO    H1 7156   4.991   7.299   0.568  1.0604 -0.5479 -0.9891
   17CHTO    C3 7157   4.985   7.474   0.764 -0.1038 -0.2489 -0.2330
   17CHTO   H16 7158   4.917   7.504   0.682 -0.4467  1.1942  0.5688
   17CHTO    N1 7159   5.106   7.560   0.747 -0.0367  0.0927  0.2225
   17CHTO    H8 7160   5.155   7.561   0.651  0.6617  0.7800  0.5821
   17CHTO    H9 7161   5.092   7.659   0.787 -0.5234  0.0465  0.1707
   17CHTO    C4 7162   4.911   7.510   0.901 -1.0067  0.4448  0.4145
   17CHTO   H17 7163   4.984   7.507   0.982  1.7938 -0.5418 -2.0611
   17CHTO    O1 7164   4.809   7.410   0.917 -0.3468 -0.1370  0.7125
   17CHTO    C5 7165   4.839   7.272   0.930 -0.4553  0.3136 -0.5921
   17CHTO   H18 7166   4.898   7.248   1.018 -0.1928  0.5780 -0.6954
   17CHTO   C16 7167   4.699   7.200   0.954 -0.3922  0.1674 -0.1088
   17CHTO   O11 7168   4.642   7.222   1.080 -0.5752 -0.1111  0.1806
   17CHTO    H5 7169   4.551   7.231   1.058 -0.9222 -2.0413  0.7575
   17CHTO    O3 7170   4.844   7.635   0.894 -0.2385  0.1477 -0.2701
   17CHTO    C6 7171   4.827   7.725   1.013  0.2001  0.0347  0.9664
   17CHTO   H19 7172   4.741   7.790   0.994  0.3923 -0.6662 -2.7250
   17CHTO    C8 7173   4.796   7.643   1.146 -0.0751  0.5889  0.0740
   17CHTO   H21 7174   4.875   7.569   1.162 -0.5511  0.1100  0.2656
   17CHTO    O7 7175   4.671   7.580   1.118  0.1291 -0.0517 -0.4145
   17CHTO    H2 7176   4.653   7.513   1.181 -1.2504  1.5966  0.9966
   17CHTO   C12 7177   4.797   7.744   1.278  0.4904 -0.0584 -0.1437
   17CHTO   H25 7178   4.708   7.811   1.275  2.0009  2.0980  1.3645
   17CHTO    N3 7179   4.780   7.660   1.402  0.5803  0.4404  0.4551
   17CHTO   H12 7180   4.683   7.614   1.410 -0.2130  1.7009 -1.4334
   17CHTO   H13 7181   4.787   7.738   1.477 -1.1845 -0.5451  1.6731
   17CHTO   C15 7182   4.924   7.831   1.273  0.8080  0.1290 -0.0665
   17CHTO   H28 7183   5.016   7.783   1.307  0.8309 -1.0387 -1.6898
   17CHTO   O10 7184   4.915   7.949   1.353  0.1905 -0.3971 -0.5312
   17CHTO    H4 7185   4.998   7.984   1.381 -0.1291 -1.1341  1.4054
   17CHTO    O5 7186   4.942   7.897   1.142 -0.5445  0.3370  0.2818
   17CHTO   C10 7187   4.949   7.810   1.031 -0.6413  1.1168 -0.1982
   17CHTO   H23 7188   5.036   7.746   1.043 -0.7296  0.5116 -2.3976
   17CHTO   C17 7189   4.971   7.891   0.906  0.3642 -0.1354  0.0487
   17CHTO   O12 7190   5.105   7.934   0.893 -0.3691  0.6631  0.7102
   17CHTO    H6 7191   5.146   7.926   0.810 -0.1368 -0.1805  0.9011
   18CHTO  H203 7192   6.230   7.811   1.841  1.1467  0.9921  1.2588
   18CHTO   O82 7193   6.255   7.876   1.778  0.2279  0.3626  0.2194
   18CHTO  C123 7194   6.197   7.855   1.649  0.7822  0.6603 -0.1304
   18CHTO  H227 7195   6.092   7.888   1.645  0.9276  1.0243 -1.3164
   18CHTO   O77 7196   6.265   7.947   1.573  0.5333  0.8018  0.4128
   18CHTO  C118 7197   6.226   7.945   1.437 -0.5770  0.1030  0.1694
   18CHTO  H222 7198   6.120   7.962   1.417 -0.5801 -2.0062 -1.7781
   18CHTO  C125 7199   6.301   8.060   1.361  0.0994 -0.0419  0.6976
   18CHTO   O84 7200   6.443   8.062   1.358  0.3206 -0.4201  0.0857
   18CHTO  H205 7201   6.477   7.975   1.359 -0.5181 -0.7524  0.2818
   18CHTO  C114 7202   6.278   7.811   1.378  0.7510  0.7107 -0.5526
   18CHTO  H218 7203   6.386   7.809   1.396  0.5117  2.0622  1.1974
   18CHTO  C116 7204   6.199   7.688   1.443  0.4730  0.0268  0.2931
   18CHTO  H220 7205   6.092   7.684   1.415  0.7100 -0.7690 -0.5676
   18CHTO   O79 7206   6.260   7.565   1.383 -0.1469 -0.4871  0.0789
   18CHTO  H201 7207   6.188   7.505   1.382 -0.4617 -0.1101 -0.1059
   18CHTO  C120 7208   6.211   7.705   1.595  0.3458  0.3850  0.3786
   18CHTO  H224 7209   6.313   7.668   1.618 -0.0030 -2.6351 -2.6182
   18CHTO   N21 7210   6.111   7.618   1.662  0.4062  0.1702  0.1868
   18CHTO  H211 7211   6.133   7.512   1.661  0.6612  0.2157  0.9345
   18CHTO  H212 7212   6.012   7.631   1.622 -0.2069 -4.2135  0.0259
   18CHTO   O75 7213   6.249   7.808   1.240  0.3260  0.1605  0.1977
   18CHTO  C112 7214   6.377   7.748   1.143  0.0900  0.2232 -0.5470
   18CHTO  H216 7215   6.418   7.664   1.200 -0.0239  1.2634  1.0772
   18CHTO   O73 7216   6.470   7.850   1.134 -0.2934  0.0875  0.1905
   18CHTO  C113 7217   6.588   7.835   1.054 -0.2264  0.1682 -0.1913
   18CHTO  H217 7218   6.649   7.751   1.093 -0.5159  1.6309  3.6409
   18CHTO  C124 7219   6.660   7.969   1.063 -0.2755  0.2739  0.2126
   18CHTO   O83 7220   6.800   7.953   1.035  0.3243 -0.3208  0.0207
   18CHTO  H204 7221   6.823   8.039   1.007  2.0943 -0.9602 -0.5216
   18CHTO  C109 7222   6.538   7.801   0.908  0.1286  0.2196  0.0326
   18CHTO  H213 7223   6.478   7.888   0.876 -0.6509 -1.3829 -3.0591
   18CHTO  C110 7224   6.447   7.676   0.913  0.5439 -0.3095 -0.2624
   18CHTO  H214 7225   6.503   7.587   0.942 -1.2663 -1.1246  0.8194
   18CHTO   O78 7226   6.402   7.638   0.784  0.6284  0.3657 -0.1530
   18CHTO  H200 7227   6.474   7.610   0.730  2.1337  0.4105  1.7572
   18CHTO  C111 7228   6.323   7.699   1.011 -0.0675 -0.6537 -0.1806
   18CHTO  H215 7229   6.258   7.780   0.975 -0.6421 -0.6964  0.7371
   18CHTO   N19 7230   6.240   7.574   1.028  0.3268  0.3690  0.0633
   18CHTO  H207 7231   6.263   7.499   0.954 -0.4886 -0.4480  0.6212
   18CHTO  H208 7232   6.135   7.602   1.027 -0.0936 -1.1599 -0.5039
   18CHTO   O74 7233   6.653   7.786   0.814 -0.1475  0.2224 -0.5856
   18CHTO  C115 7234   6.646   7.852   0.663 -0.1605 -0.1965 -0.4272
   18CHTO  H219 7235   6.582   7.791   0.599  0.7441 -2.6614  0.9455
   18CHTO   O76 7236   6.555   8.014   0.664 -0.3219  0.0709  0.1760
   18CHTO  C122 7237   6.550   8.075   0.534  0.0489  0.1670  0.6244
   18CHTO  H226 7238   6.538   8.182   0.549  1.4766  0.1980  1.6740
   18CHTO  C126 7239   6.429   8.018   0.459  0.0176 -0.3994  0.2568
   18CHTO   O85 7240   6.391   8.064   0.325  0.2007 -0.3831 -0.3818
   18CHTO  H206 7241   6.455   8.027   0.268  0.5489  0.4487 -0.5341
   18CHTO  C121 7242   6.688   8.059   0.448 -0.7969  0.2661  0.3417
   18CHTO  H225 7243   6.691   8.098   0.344  0.9706  1.2718  0.7585
   18CHTO   O81 7244   6.788   8.144   0.510 -0.7301 -0.4336  0.4618
   18CHTO  H202 7245   6.835   8.185   0.440 -2.3522  1.4021  0.3982
   18CHTO  C119 7246   6.751   7.916   0.451  0.5227 -0.1289 -0.1379
   18CHTO  H223 7247   6.672   7.849   0.418  0.3086  0.9843 -1.8916
   18CHTO  C117 7248   6.787   7.867   0.596  0.4285 -0.2355 -0.5529
   18CHTO  H221 7249   6.841   7.929   0.668  1.4961 -1.8715  0.0916
   18CHTO   N20 7250   6.849   7.732   0.598 -0.0953  0.3949  0.3272
   18CHTO  H209 7251   6.912   7.734   0.509 -0.6089  1.6543 -0.0274
   18CHTO  H210 7252   6.914   7.719   0.683 -2.7267 -1.2040  2.1547
   18CHTO   O80 7253   6.869   7.892   0.334  0.0903  0.5606  0.3213
   18CHTO  C103 7254   6.838   7.837   0.207 -0.0419 -0.3982 -0.6153
   18CHTO  H190 7255   6.926   7.834   0.143  0.3852  0.0310 -0.0550
   18CHTO  C101 7256   6.786   7.687   0.211 -0.0845 -0.6329  0.2921
   18CHTO  H188 7257   6.724   7.682   0.300  1.3645 -1.0962  1.2978
   18CHTO   O68 7258   6.892   7.589   0.237 -0.5261 -0.2265 -0.2917
   18CHTO  H168 7259   6.878   7.553   0.323  0.8443 -1.3942 -0.5527
   18CHTO   C99 7260   6.702   7.636   0.078 -0.4205 -0.6148  0.5639
   18CHTO  H186 7261   6.778   7.626  -0.002  0.0746  0.0509  0.9437
   18CHTO   N17 7262   6.623   7.515   0.107 -0.1442 -0.3992  0.3085
   18CHTO  H174 7263   6.525   7.518   0.063  0.2323  0.5111 -0.4952
   18CHTO  H175 7264   6.682   7.432   0.072 -2.5065 -1.7410 -0.5488
   18CHTO   C97 7265   6.616   7.757   0.037  0.3494 -0.3441  0.2620
   18CHTO  H184 7266   6.546   7.773   0.120 -0.8017  2.7735 -1.2539
   18CHTO   O64 7267   6.691   7.872   0.009  0.0915 -0.5133 -0.2430
   18CHTO  C104 7268   6.736   7.932   0.134  0.3741 -0.6854 -0.2862
   18CHTO  H191 7269   6.651   7.945   0.201 -0.6709 -1.9857 -1.3239
   18CHTO  C108 7270   6.788   8.075   0.112  0.3402  0.4421  0.3753
   18CHTO   O71 7271   6.683   8.181   0.106 -0.7057  0.0000  0.1097
   18CHTO  H171 7272   6.667   8.219   0.190 -0.0235  1.2561 -0.3173
   18CHTO   O62 7273   6.545   7.726  -0.089  0.4041  0.2854  0.3124
   18CHTO   C91 7274   6.402   7.748  -0.087  0.2619  0.0243  0.5647
   18CHTO  H178 7275   6.377   7.759   0.018  1.9053 -0.2990  0.9928
   18CHTO   C92 7276   6.327   7.623  -0.141  0.8562  0.2971  0.7185
   18CHTO  H179 7277   6.358   7.596  -0.243 -1.5750 -1.2856  0.3682
   18CHTO   O66 7278   6.371   7.515  -0.060 -0.5408  0.7492 -0.2179
   18CHTO  H166 7279   6.452   7.486  -0.098 -0.9526  1.5816 -1.7510
   18CHTO   C93 7280   6.171   7.643  -0.146 -0.0215  0.2457  0.8465
   18CHTO  H180 7281   6.134   7.641  -0.042 -0.4533  1.7087  0.7320
   18CHTO   N16 7282   6.103   7.527  -0.220 -0.2962 -0.2010  0.1142
   18CHTO  H172 7283   6.169   7.451  -0.259  0.6182 -0.7144  2.6005
   18CHTO  H173 7284   6.014   7.483  -0.177 -1.0103  0.3700 -0.7425
   18CHTO   C94 7285   6.138   7.787  -0.200 -0.4052  1.0427  0.1975
   18CHTO  H181 7286   6.137   7.789  -0.308  0.7829 -1.6819  0.0921
   18CHTO   O61 7287   6.219   7.886  -0.144 -0.2527  0.0915  0.1976
   18CHTO   C95 7288   6.357   7.871  -0.171  0.2621  0.3658 -0.3441
   18CHTO  H182 7289   6.367   7.868  -0.280  1.5026 -1.7225 -0.1944
   18CHTO  C106 7290   6.426   8.015  -0.136  0.4099  0.1578 -0.0085
   18CHTO   O69 7291   6.398   8.051   0.003  0.3295  0.7125  0.5363
   18CHTO  H169 7292   6.319   8.018   0.041  1.4052  0.9123  3.0158
   18CHTO   O63 7293   5.996   7.817  -0.146 -0.5900 -0.2360  0.1260
   18CHTO   C96 7294   5.922   7.934  -0.204  0.3857 -0.1666  0.5247
   18CHTO  H183 7295   5.985   7.995  -0.269 -1.8554 -0.3074 -1.8463
   18CHTO   C98 7296   5.875   8.035  -0.092  0.3665 -0.3795  0.6772
   18CHTO  H185 7297   5.818   7.980  -0.016 -1.0236  0.2631  0.1180
   18CHTO   O67 7298   5.996   8.068  -0.022 -0.1220 -0.0877 -0.2024
   18CHTO  H167 7299   6.025   8.157  -0.028  3.2441 -0.6822  4.1357
   18CHTO  C102 7300   5.795   8.159  -0.148  0.4783  0.1482 -0.2014
   18CHTO  H189 7301   5.874   8.223  -0.190 -0.0965 -0.5048 -2.3494
   18CHTO   N18 7302   5.732   8.239  -0.036 -0.3582 -0.6875 -0.4586
   18CHTO  H176 7303   5.796   8.278   0.042  0.3575 -0.1931 -1.2865
   18CHTO  H177 7304   5.657   8.177   0.011 -1.5165 -0.5106 -2.0431
   18CHTO  C105 7305   5.691   8.116  -0.252 -0.1517 -0.1135  0.8066
   18CHTO  H192 7306   5.601   8.082  -0.202  1.0645 -1.0666  2.4200
   18CHTO   O65 7307   5.742   8.017  -0.343 -0.1653  0.2043 -0.1199
   18CHTO  C100 7308   5.794   7.896  -0.274  0.2713 -0.6116  0.3667
   18CHTO  H187 7309   5.718   7.859  -0.203 -0.3959 -2.6710 -1.3740
   18CHTO  C107 7310   5.818   7.787  -0.386  0.4515 -0.3572  0.5171
   18CHTO   O70 7311   5.689   7.750  -0.431 -0.3945 -0.4149  0.1264
   18CHTO  H170 7312   5.691   7.748  -0.524 -0.1965  0.6612  0.1021
   18CHTO   O57 7313   5.648   8.259  -0.345  0.2986  0.1414  0.2510
   18CHTO   C85 7314   5.510   8.266  -0.401  0.4619 -0.0227  0.5922
   18CHTO  H157 7315   5.516   8.344  -0.480 -1.0596  0.0104  0.4987
   18CHTO   C83 7316   5.394   8.312  -0.301 -0.0205 -0.1469 -0.7156
   18CHTO  H155 7317   5.412   8.415  -0.272 -0.1329 -0.0325 -1.0528
   18CHTO   O56 7318   5.410   8.230  -0.184 -0.4374 -0.3784 -0.0482
   18CHTO  H135 7319   5.325   8.235  -0.146 -0.1627 -0.2221  0.5689
   18CHTO   C81 7320   5.260   8.302  -0.372 -0.2785 -0.3056  0.0010
   18CHTO  H153 7321   5.268   8.363  -0.463  1.8869  0.9286  0.9801
   18CHTO   N14 7322   5.145   8.366  -0.300  0.5543 -0.0036  0.0732
   18CHTO  H141 7323   5.117   8.311  -0.212  0.4324  1.6690  1.0840
   18CHTO  H142 7324   5.063   8.368  -0.369  1.8263  0.0254 -1.4822
   18CHTO   C79 7325   5.224   8.155  -0.412 -0.1185  0.1943 -0.7011
   18CHTO  H151 7326   5.130   8.160  -0.467 -1.5058 -0.0666  1.5912
   18CHTO   O52 7327   5.319   8.112  -0.506 -0.2634  0.3316 -0.3269
   18CHTO   C86 7328   5.462   8.123  -0.464  0.3544  0.5095 -0.4239
   18CHTO  H158 7329   5.475   8.046  -0.386 -1.7402  1.0039  0.4506
   18CHTO   C90 7330   5.545   8.075  -0.590 -0.6666 -0.2481 -0.5170
   18CHTO   O60 7331   5.514   8.170  -0.694 -0.3078 -0.1913 -0.2594
   18CHTO  H138 7332   5.527   8.129  -0.777  1.6446  0.1910 -0.1796
   18CHTO   O50 7333   5.208   8.063  -0.309 -0.5141  0.4025  0.1896
   18CHTO   C73 7334   5.157   7.933  -0.277 -0.2224 -0.7409  0.1165
   18CHTO  H145 7335   5.188   7.860  -0.354 -1.2103 -0.8450 -0.1861
   18CHTO   C74 7336   5.007   7.944  -0.266  0.2412  0.2995  0.1302
   18CHTO  H146 7337   4.986   7.992  -0.363  1.8318  2.0141  0.6208
   18CHTO   O54 7338   4.949   7.810  -0.257 -0.3000  0.1550  0.7988
   18CHTO  H133 7339   4.870   7.808  -0.206  0.1497  0.4416  1.5057
   18CHTO   C75 7340   4.972   8.035  -0.146 -0.0794 -0.1053 -0.6402
   18CHTO  H147 7341   4.996   8.138  -0.177  0.9035  0.7938  2.8684
   18CHTO   N13 7342   4.828   8.053  -0.118  0.4125 -0.4446  0.1455
   18CHTO  H139 7343   4.811   8.096  -0.020 -1.4133 -0.3928 -0.1845
   18CHTO  H140 7344   4.774   7.960  -0.120 -1.4375  0.6123  0.1016
   18CHTO   C76 7345   5.050   7.991  -0.016 -0.5096 -0.4392  0.0618
   18CHTO  H148 7346   5.003   7.901   0.023 -0.0158  0.2323  2.2877
   18CHTO   O49 7347   5.193   7.969  -0.043 -0.1193  0.2033  0.4457
   18CHTO   C77 7348   5.226   7.877  -0.147  0.6228  1.0588  0.7106
   18CHTO  H149 7349   5.186   7.777  -0.127  0.1950  0.6852 -1.8398
   18CHTO   C88 7350   5.381   7.862  -0.169  0.4073 -0.0529  0.2061
   18CHTO   O58 7351   5.424   7.754  -0.244 -0.5911 -0.0628 -0.0732
   18CHTO  H136 7352   5.396   7.670  -0.211 -0.3754 -0.5632 -1.1478
   18CHTO   O51 7353   5.053   8.121   0.081  0.2474 -0.1557  0.1456
   18CHTO   C78 7354   5.091   8.090   0.224 -0.1105  0.1064 -0.1742
   18CHTO  H150 7355   5.116   7.984   0.241  0.2127 -0.2098 -2.5338
   18CHTO   C80 7356   4.972   8.130   0.318 -0.0644 -0.2420 -0.0950
   18CHTO  H152 7357   4.951   8.239   0.305  0.9592 -0.1606 -1.1548
   18CHTO   O55 7358   4.855   8.051   0.287  0.4552 -0.5731  0.2166
   18CHTO  H134 7359   4.877   7.960   0.279  2.0562 -0.2237  0.5477
   18CHTO   C84 7360   5.013   8.125   0.474 -0.5550 -0.4728  0.3024
   18CHTO  H156 7361   5.030   8.019   0.496  0.1226 -0.4735 -0.2244
   18CHTO   N15 7362   4.900   8.168   0.560 -0.2268 -0.7181  0.0275
   18CHTO  H143 7363   4.867   8.090   0.626  0.6579 -2.8906 -2.0185
   18CHTO  H144 7364   4.926   8.256   0.615 -0.6131  0.5845 -1.8352
   18CHTO   C87 7365   5.147   8.198   0.501  0.2478 -0.6945  0.3226
   18CHTO  H159 7366   5.144   8.304   0.474  1.3422 -1.1530 -1.7215
   18CHTO   O53 7367   5.255   8.138   0.397  0.5957 -0.2244  0.2044
   18CHTO   C82 7368   5.218   8.168   0.260  0.2860 -1.0891  0.6850
   18CHTO  H154 7369   5.193   8.274   0.257  2.9946 -0.4318 -0.9131
   18CHTO   C89 7370   5.339   8.148   0.161  0.4979 -0.0628 -0.3285
   18CHTO   O59 7371   5.400   8.019   0.173  0.0978  0.3230  0.5195
   18CHTO  H137 7372   5.377   7.967   0.099 -1.1763  3.2226 -1.1895
   18CHTO   O45 7373   5.214   8.206   0.668 -0.2971  0.3599  0.3805
   18CHTO   C67 7374   5.341   8.274   0.675  0.7776 -0.0790  0.2916
   18CHTO  H124 7375   5.402   8.245   0.590  2.0214 -1.1439  1.5157
   18CHTO   C65 7376   5.329   8.431   0.674 -0.0434  0.2126  0.0973
   18CHTO  H122 7377   5.232   8.449   0.721  0.0195 -2.3504  1.2493
   18CHTO   O44 7378   5.336   8.479   0.540 -0.3619  0.1396 -0.2950
   18CHTO  H102 7379   5.426   8.475   0.514 -0.3769  1.3667 -0.5595
   18CHTO   C63 7380   5.428   8.502   0.775 -0.7638  0.3125  0.4790
   18CHTO  H120 7381   5.388   8.483   0.875 -3.2224  1.3024 -0.2757
   18CHTO   N11 7382   5.425   8.654   0.772  0.6099  0.1595  0.4610
   18CHTO  H108 7383   5.326   8.679   0.741 -0.8763 -4.6246  0.9229
   18CHTO  H109 7384   5.496   8.704   0.708  0.4831  0.4095  0.5151
   18CHTO   C61 7385   5.570   8.438   0.771 -0.7710 -0.6340  0.3844
   18CHTO  H118 7386   5.632   8.480   0.851  1.4504 -2.5463 -0.2779
   18CHTO   O40 7387   5.556   8.295   0.805  0.3324 -0.3231 -0.1575
   18CHTO   C68 7388   5.425   8.219   0.797  0.4691 -0.8671  0.3172
   18CHTO  H125 7389   5.373   8.242   0.892  1.2631 -0.0415  0.5529
   18CHTO   C72 7390   5.437   8.064   0.786  0.2342 -0.0424  0.1358
   18CHTO   O48 7391   5.520   8.024   0.677  0.0856 -0.5677  0.1756
   18CHTO  H105 7392   5.560   7.941   0.695 -1.5925 -1.4656 -0.2025
   18CHTO   O38 7393   5.632   8.465   0.639  0.0500  0.1167  0.0690
   18CHTO   C55 7394   5.760   8.406   0.616  0.2058  0.3462 -0.1023
   18CHTO  H112 7395   5.770   8.323   0.686  0.7352  0.0713 -0.5038
   18CHTO   C56 7396   5.879   8.502   0.627  0.3503  0.1093  0.1746
   18CHTO  H113 7397   5.867   8.582   0.552 -2.4909 -0.3243  0.1081
   18CHTO   O42 7398   5.875   8.570   0.756  0.0844  0.2407 -0.3048
   18CHTO  H100 7399   5.789   8.603   0.772 -0.0838 -0.4658  0.3295
   18CHTO   C57 7400   6.013   8.414   0.618 -0.4632  0.0177 -0.1383
   18CHTO  H114 7401   6.023   8.364   0.714 -3.2975 -1.4613 -0.5499
   18CHTO   N10 7402   6.137   8.491   0.604 -0.5863  0.1176  0.6089
   18CHTO  H106 7403   6.113   8.583   0.554 -4.0322 -1.3557 -0.5536
   18CHTO  H107 7404   6.192   8.509   0.696 -1.7611 -0.7009  1.4816
   18CHTO   C58 7405   6.005   8.310   0.504  0.1748  0.2153  0.2699
   18CHTO  H115 7406   6.019   8.362   0.407  0.2920  0.2959  0.3284
   18CHTO   O37 7407   5.875   8.243   0.491  0.4030 -0.6257 -0.1850
   18CHTO   C59 7408   5.765   8.332   0.480  0.0788 -0.0676 -0.1805
   18CHTO  H116 7409   5.784   8.398   0.395  0.4860  0.0552  0.0018
   18CHTO   C70 7410   5.637   8.259   0.455 -0.4022 -0.0954  0.0956
   18CHTO   O46 7411   5.637   8.196   0.322 -0.0163 -0.0479 -0.2731
   18CHTO  H103 7412   5.552   8.160   0.303 -0.1309 -0.6840  1.3317
   18CHTO   O39 7413   6.104   8.185   0.541  0.3409  0.2064  0.7270
   18CHTO   C60 7414   6.060   8.107   0.658  0.8277  0.3779 -0.1601
   18CHTO  H117 7415   5.997   8.171   0.720 -0.6808 -0.6788 -0.5499
   18CHTO   C62 7416   5.970   7.984   0.608 -0.0366  0.4794  0.2334
   18CHTO  H119 7417   5.886   8.018   0.543 -0.0036 -1.6257 -0.9671
   18CHTO   O43 7418   6.036   7.893   0.528  0.3841 -0.0481 -0.2661
   18CHTO  H101 7419   6.055   7.820   0.583 -1.2557 -0.1908  0.1374
   18CHTO   C66 7420   5.905   7.916   0.743  1.1364  0.3813  0.3504
   18CHTO  H123 7421   5.867   7.994   0.808 -0.4093 -0.2556  0.2165
   18CHTO   N12 7422   5.791   7.828   0.711 -0.2855  0.7348 -0.1033
   18CHTO  H110 7423   5.790   7.802   0.606  1.8870  1.4440 -0.3298
   18CHTO  H111 7424   5.692   7.849   0.750  0.4757 -0.6596  2.6562
   18CHTO   C69 7425   6.020   7.852   0.824  0.1267  0.4796 -0.3618
   18CHTO  H126 7426   6.068   7.756   0.794  0.2831  0.2514  0.5999
   18CHTO   O41 7427   6.117   7.967   0.873  0.6490  0.1911 -0.3599
   18CHTO   C64 7428   6.172   8.054   0.749 -0.1389 -0.6137 -0.1559
   18CHTO  H121 7429   6.245   7.994   0.690  1.7942 -0.3194  1.8718
   18CHTO   C71 7430   6.249   8.172   0.803  0.2499  0.0546  0.4948
   18CHTO   O47 7431   6.364   8.141   0.883 -0.0722 -0.3439 -0.0139
   18CHTO  H104 7432   6.390   8.211   0.940  2.2218  1.4701 -3.1340
   18CHTO   O34 7433   5.956   7.805   0.966  0.6712  0.7825  0.4369
   18CHTO   C49 7434   5.930   7.875   1.096 -0.2959  0.4434  0.3000
   18CHTO   H91 7435   6.021   7.908   1.146  1.1454 -0.6189 -1.5879
   18CHTO   C47 7436   5.851   7.782   1.188 -0.8064 -0.5618  0.5675
   18CHTO   H89 7437   5.855   7.826   1.290  1.4355 -0.9637  0.6754
   18CHTO   O33 7438   5.930   7.654   1.197 -0.2305 -0.3684 -0.4825
   18CHTO   H70 7439   5.895   7.611   1.273  3.2517 -0.8681  0.9176
   18CHTO   C45 7440   5.699   7.768   1.129  0.3061  0.2313 -0.0462
   18CHTO   H87 7441   5.710   7.737   1.023 -0.8477 -1.1928  0.2231
   18CHTO    N8 7442   5.624   7.663   1.204  0.4488 -0.1510 -0.1887
   18CHTO   H75 7443   5.520   7.650   1.180  0.0667 -0.6496  1.6415
   18CHTO   H76 7444   5.638   7.662   1.311 -0.0773  0.3813 -0.1137
   18CHTO   C43 7445   5.626   7.909   1.115 -0.1818  0.2358 -0.3721
   18CHTO   H85 7446   5.537   7.890   1.056 -1.3433 -3.1062  2.3312
   18CHTO   O29 7447   5.712   8.013   1.052  0.5488  0.3695  0.3148
   18CHTO   C50 7448   5.848   8.009   1.089 -0.5642  0.7129 -0.3864
   18CHTO   H92 7449   5.891   8.075   1.011  0.6775  0.5392  0.1541
   18CHTO   C54 7450   5.871   8.100   1.211  0.2313 -0.6100 -0.6693
   18CHTO   O36 7451   6.013   8.120   1.238 -0.0808  0.0075  0.9343
   18CHTO   H72 7452   6.046   8.191   1.185  0.7036 -1.1525 -0.1556
   18CHTO   O27 7453   5.569   7.957   1.239 -0.0061 -0.2637 -0.4223
   18CHTO   C37 7454   5.470   8.059   1.275  0.5013  0.8846 -0.4198
   18CHTO   H79 7455   5.439   8.042   1.379  1.2794  0.9634 -0.1718
   18CHTO   C38 7456   5.527   8.196   1.271  0.0091 -0.3174  0.0525
   18CHTO   H80 7457   5.581   8.211   1.176  1.8807 -1.5545  0.8857
   18CHTO   O31 7458   5.630   8.208   1.373  0.1883  0.5119 -0.0619
   18CHTO   H68 7459   5.695   8.275   1.365  0.6244  0.1813  0.6414
   18CHTO   C39 7460   5.428   8.318   1.293 -0.4058  0.0987 -0.8287
   18CHTO   H81 7461   5.385   8.328   1.393  1.9236 -1.3945  0.3537
   18CHTO    N7 7462   5.493   8.449   1.267  0.3911  0.2942 -0.1412
   18CHTO   H73 7463   5.434   8.534   1.297  0.5730  1.1789 -2.2105
   18CHTO   H74 7464   5.596   8.463   1.298  0.2415  0.4200  0.2950
   18CHTO   C40 7465   5.306   8.292   1.201  0.3642 -0.1683 -0.4334
   18CHTO   H82 7466   5.334   8.306   1.097 -0.3669 -0.3391 -0.6566
   18CHTO   O26 7467   5.253   8.161   1.229 -0.5097  0.2907  0.6669
   18CHTO   C41 7468   5.344   8.058   1.184  0.2357 -0.1142 -0.0663
   18CHTO   H83 7469   5.377   8.071   1.080 -0.7989 -2.5597 -0.7414
   18CHTO   C52 7470   5.274   7.919   1.191 -0.3168  0.1200  0.3436
   18CHTO   O35 7471   5.310   7.825   1.097  0.3859  0.2153  0.0589
   18CHTO   H71 7472   5.402   7.811   1.112  0.0140  0.1986  2.6339
   18CHTO   O28 7473   5.201   8.389   1.232  0.0152  0.2459 -0.8788
   18CHTO   C42 7474   5.058   8.377   1.218 -0.4601 -0.3653  0.1512
   18CHTO   H84 7475   5.023   8.480   1.221 -1.5031 -0.7352  0.7750
   18CHTO   C44 7476   4.999   8.305   1.344 -0.8606  0.1528  0.4356
   18CHTO   H86 7477   5.039   8.204   1.346 -2.8564 -0.6867 -0.3743
   18CHTO   O32 7478   5.049   8.367   1.470 -0.0136  0.3159  0.4351
   18CHTO   H69 7479   5.049   8.460   1.460  0.5211  0.2377 -0.2877
   18CHTO   C48 7480   4.840   8.305   1.330  0.0889  0.5130  0.1533
   18CHTO   H90 7481   4.799   8.406   1.336 -0.7358  0.2824 -1.2261
   18CHTO    N9 7482   4.777   8.245   1.449  0.2159 -0.4504 -0.7546
   18CHTO   H77 7483   4.673   8.215   1.446  0.1371 -0.5254  1.4830
   18CHTO   H78 7484   4.777   8.313   1.533 -0.3163 -0.3259 -0.8534
   18CHTO   C51 7485   4.790   8.247   1.193 -0.5960 -0.0165 -0.1119
   18CHTO   H93 7486   4.806   8.139   1.193 -2.5085 -0.4048  4.4288
   18CHTO   O30 7487   4.857   8.322   1.092  0.3597 -0.5390  0.0973
   18CHTO   C46 7488   4.997   8.311   1.088  0.4415  0.5479 -0.2700
   18CHTO   H88 7489   5.027   8.206   1.089  1.2328  0.7639 -0.4544
   18CHTO   C53 7490   5.053   8.370   0.953  0.6255  0.3101  0.9555
   18CHTO   O72 7491   5.009   8.502   0.925  0.0835 -0.1600 -0.0103
   18CHTO  H199 7492   5.006   8.524   0.834  1.3961 -1.2742 -0.3481
   18CHTO   O22 7493   4.648   8.281   1.180 -0.2308  0.1209  0.0465
   18CHTO   C31 7494   4.569   8.247   1.059 -0.8213 -0.0901  0.0936
   18CHTO   H59 7495   4.461   8.258   1.082 -0.1037  3.2179  2.1344
   18CHTO   C29 7496   4.604   8.355   0.949 -0.1157 -0.1454  0.5382
   18CHTO   H57 7497   4.713   8.355   0.935 -0.0849 -2.3435  0.4905
   18CHTO   O21 7498   4.580   8.488   0.993  0.0149 -0.0142  0.4926
   18CHTO   H37 7499   4.598   8.561   0.937 -0.4648 -0.7135 -0.5861
   18CHTO   C27 7500   4.525   8.326   0.813 -0.1137  0.3434 -0.0587
   18CHTO   H55 7501   4.417   8.341   0.825 -0.5508 -3.9890  2.4131
   18CHTO    N5 7502   4.574   8.408   0.697  0.1012  0.4112 -0.2482
   18CHTO   H43 7503   4.682   8.406   0.696  0.1707  2.8221  0.0763
   18CHTO   H44 7504   4.527   8.374   0.606 -1.5679 -0.2903  0.8493
   18CHTO   C25 7505   4.532   8.175   0.769  0.0590  0.4535 -0.2757
   18CHTO   H53 7506   4.635   8.155   0.738 -0.7811 -0.9440 -2.2679
   18CHTO   O17 7507   4.497   8.090   0.889 -0.5530 -0.0579 -0.3019
   18CHTO   C32 7508   4.592   8.107   0.998  0.0364 -0.2960 -0.5350
   18CHTO   H60 7509   4.692   8.103   0.955 -1.1522 -2.1251 -3.3012
   18CHTO   C36 7510   4.569   8.000   1.107  0.0146  0.0929  0.0284
   18CHTO   O25 7511   4.438   8.003   1.167 -0.6308 -0.5735 -0.0951
   18CHTO   H40 7512   4.374   7.951   1.122 -0.7995 -2.7520  2.5231
   18CHTO   O15 7513   4.416   8.139   0.635 -0.1735  0.3343 -0.2890
   18CHTO   C19 7514   4.322   8.027   0.633 -0.6686 -0.9392  0.1446
   18CHTO   H47 7515   4.244   8.060   0.704 -0.4503  2.2722 -1.0154
   18CHTO   C20 7516   4.254   7.996   0.491 -0.2836 -0.3940 -0.1426
   18CHTO   H48 7517   4.220   8.089   0.444  0.4926 -0.4888 -0.9077
   18CHTO   O19 7518   4.136   7.910   0.516 -0.1110  0.2392 -0.5213
   18CHTO   H35 7519   4.060   7.966   0.520  0.7919  1.4228  0.6572
   18CHTO   C21 7520   4.356   7.934   0.396  0.0605 -0.4506  0.1552
   18CHTO   H49 7521   4.307   7.853   0.343 -1.2968  0.0303  0.6471
   18CHTO    N4 7522   4.408   8.022   0.288  0.1251  0.3004 -0.7326
   18CHTO   H41 7523   4.318   8.066   0.247  0.1573  1.4331  0.3905
   18CHTO   H42 7524   4.459   7.967   0.211 -1.5392  0.5889 -2.0808
   18CHTO   C22 7525   4.471   7.863   0.468  0.2457  0.0653 -0.1938
   18CHTO   H50 7526   4.559   7.923   0.490  0.1587 -0.6722  2.2911
   18CHTO   O14 7527   4.424   7.804   0.595 -0.1381 -0.4529 -0.4550
   18CHTO   C23 7528   4.388   7.901   0.693  0.4120  1.3715  0.0352
   18CHTO   H51 7529   4.479   7.924   0.751  0.7684  2.4181 -0.9264
   18CHTO   C34 7530   4.310   7.832   0.805 -0.4720  0.0202 -0.1334
   18CHTO   O23 7531   4.244   7.932   0.892  0.5673  0.1378 -0.1591
   18CHTO   H38 7532   4.194   7.988   0.836 -0.2787 -0.9004 -0.4592
   18CHTO   O16 7533   4.506   7.744   0.392 -0.3662 -0.0497 -0.2019
   18CHTO   C24 7534   4.648   7.757   0.308 -0.3579  0.0246  0.7977
   18CHTO   H52 7535   4.686   7.859   0.304 -0.9780  0.1727 -1.9269
   18CHTO   C26 7536   4.614   7.703   0.168 -0.0843 -0.1537  0.4082
   18CHTO   H54 7537   4.588   7.595   0.180 -1.3732  0.2276  1.1314
   18CHTO   O20 7538   4.504   7.776   0.113  0.2628 -0.0569  0.5838
   18CHTO   H36 7539   4.499   7.779   0.019  0.1444  0.1622  0.5970
   18CHTO   C30 7540   4.750   7.702   0.089  0.1086 -0.3151  0.0354
   18CHTO   H58 7541   4.776   7.807   0.067  1.4337  0.0442  3.1234
   18CHTO    N6 7542   4.729   7.638  -0.044  0.4418  0.4656  0.1698
   18CHTO   H45 7543   4.766   7.699  -0.125  0.3281  1.0730  0.5724
   18CHTO   H46 7544   4.761   7.536  -0.056 -1.8694 -0.3430  0.4932
   18CHTO   C33 7545   4.862   7.623   0.166  0.7374 -0.5209  0.9467
   18CHTO   H61 7546   4.841   7.518   0.188 -0.1362 -0.9170 -1.5608
   18CHTO   O18 7547   4.875   7.691   0.297 -0.0343  0.1969  0.1988
   18CHTO   C28 7548   4.753   7.670   0.376 -0.4394 -0.3870  0.4506
   18CHTO   H56 7549   4.723   7.566   0.364  0.6034 -0.9696  2.6126
   18CHTO   C35 7550   4.770   7.709   0.523  0.0443 -0.1927 -0.7018
   18CHTO   O24 7551   4.698   7.617   0.605 -0.6189  0.3732 -0.6229
   18CHTO   H39 7552   4.698   7.640   0.696 -0.3506 -1.2623 -0.1884
   18CHTO    O9 7553   4.990   7.618   0.093  0.5663  0.4209  0.6516
   18CHTO   C13 7554   5.121   7.573   0.208 -0.4289 -0.3696  0.1532
   18CHTO   H26 7555   5.070   7.515   0.288 -2.6285  0.8541 -0.3101
   18CHTO   C11 7556   5.199   7.699   0.270 -0.0255 -0.1102  0.4457
   18CHTO   H24 7557   5.132   7.759   0.334  0.6285  1.2530 -0.1274
   18CHTO    O8 7558   5.242   7.785   0.165  0.7230 -0.4136 -0.0789
   18CHTO    H3 7559   5.177   7.783   0.096  0.1514 -0.7659  0.4603
   18CHTO    C9 7560   5.310   7.637   0.358  0.1564  0.3314  0.2479
   18CHTO   H22 7561   5.261   7.568   0.428 -1.0543 -0.2478 -1.1296
   18CHTO    N2 7562   5.381   7.738   0.441 -0.2992 -0.3692 -0.1702
   18CHTO   H10 7563   5.332   7.834   0.436  1.3644  0.6548  2.0574
   18CHTO   H11 7564   5.404   7.712   0.544  0.9336 -0.2126 -0.4023
   18CHTO    C7 7565   5.411   7.552   0.264 -0.9924 -0.5005 -0.6158
   18CHTO   H20 7566   5.497   7.527   0.330 -0.4755 -0.9306 -1.4425
   18CHTO    O4 7567   5.341   7.443   0.201 -0.0937 -0.3924  0.3364
   18CHTO   C14 7568   5.222   7.469   0.136  0.6708 -0.5143  0.7846
   18CHTO   H27 7569   5.159   7.378   0.134 -0.7214  0.4179  1.5465
   18CHTO   C18 7570   5.241   7.514  -0.012  0.5799  0.0377  0.0636
   18CHTO   O13 7571   5.283   7.404  -0.095  0.1938  0.0343  0.0593
   18CHTO    H7 7572   5.360   7.360  -0.068  0.4634 -0.1131 -0.9087
   18CHTO    O2 7573   5.471   7.653   0.152  0.1851  0.1556 -0.0839
   18CHTO    C1 7574   5.607   7.626   0.105  0.0057 -0.1593  0.7799
   18CHTO   H14 7575   5.608   7.680   0.008  0.5564  0.9676  1.3964
   18CHTO    C2 7576   5.640   7.470   0.083 -0.3109  0.0786 -0.2986
   18CHTO   H15 7577   5.628   7.416   0.178  1.8283 -0.7265 -0.4563
   18CHTO    O6 7578   5.549   7.411  -0.008 -0.5593  0.9090 -0.4382
   18CHTO    H1 7579   5.462   7.416   0.026 -0.3282 -0.3850  0.3800
   18CHTO    C3 7580   5.789   7.439   0.043 -0.4335  0.4185  0.0749
   18CHTO   H16 7581   5.808   7.479  -0.058  3.2237 -0.5789  0.3144
   18CHTO    N1 7582   5.819   7.290   0.030 -0.0151 -0.0787  0.4012
   18CHTO    H8 7583   5.751   7.239  -0.036  0.4911 -1.7555  1.1470
   18CHTO    H9 7584   5.806   7.238   0.124  0.1681 -0.1477  0.3884
   18CHTO    C4 7585   5.877   7.527   0.144  0.0438 -0.1612 -0.0509
   18CHTO   H17 7586   5.859   7.495   0.247  0.3667  0.6131  0.2501
   18CHTO    O1 7587   5.846   7.667   0.134  0.0863 -0.4127 -0.2293
   18CHTO    C5 7588   5.721   7.691   0.196  0.8677  0.6603  0.2865
   18CHTO   H18 7589   5.706   7.639   0.290 -1.7172 -1.4106 -1.1878
   18CHTO   C16 7590   5.706   7.849   0.219  0.5548  0.5308  0.5111
   18CHTO   O11 7591   5.783   7.894   0.328 -0.2083  0.4491 -0.2486
   18CHTO    H5 7592   5.831   7.826   0.370  0.3282  0.2390 -1.1872
   18CHTO    O3 7593   6.016   7.520   0.121  0.0915 -0.2182 -0.1472
   18CHTO    C6 7594   6.097   7.537   0.248 -0.1336  0.1541 -0.8009
   18CHTO   H19 7595   6.036   7.565   0.335  2.3052  0.2750  0.9197
   18CHTO    C8 7596   6.167   7.401   0.278 -0.1948 -0.0522 -0.3078
   18CHTO   H21 7597   6.232   7.379   0.194  0.1503  2.0653 -0.6070
   18CHTO    O7 7598   6.068   7.300   0.306  0.0472 -0.5407 -0.2728
   18CHTO    H2 7599   6.021   7.261   0.235  0.1942 -0.0512 -0.6416
   18CHTO   C12 7600   6.257   7.408   0.403  0.1751  0.4089 -0.1582
   18CHTO   H25 7601   6.188   7.422   0.489  1.9691  0.9699  1.2290
   18CHTO    N3 7602   6.335   7.284   0.432 -0.3877  0.5692 -0.4537
   18CHTO   H12 7603   6.419   7.307   0.497 -1.7122  0.3913  1.3560
   18CHTO   H13 7604   6.357   7.235   0.338  0.8025  0.0343  0.0858
   18CHTO   C15 7605   6.350   7.538   0.396 -0.2847  0.4306  0.4175
   18CHTO   H28 7606   6.427   7.517   0.322 -0.7745  1.5343 -0.4284
   18CHTO   O10 7607   6.400   7.564   0.525 -0.3571  1.0377  0.3761
   18CHTO    H4 7608   6.470   7.509   0.554  0.0127  0.2245 -1.9302
   18CHTO    O5 7609   6.284   7.655   0.356  0.4041  0.4494  0.4704
   18CHTO   C10 7610   6.205   7.653   0.232  0.2653  0.4073  0.2111
   18CHTO   H23 7611   6.271   7.650   0.145 -0.4238  2.7329 -0.4376
   18CHTO   C17 7612   6.124   7.789   0.217 -0.3036  0.4911 -0.6196
   18CHTO   O12 7613   6.193   7.905   0.175  0.6626 -0.2370  0.0791
   18CHTO    H6 7614   6.156   7.924   0.090 -1.5182 -0.3410  0.9655
   19CHTO  H203 7615   4.574   9.540   2.238  0.1949 -0.4455 -0.6908
   19CHTO   O82 7616   4.661   9.513   2.216  0.4135 -0.4825  0.2051
   19CHTO  C123 7617   4.682   9.375   2.174  0.2531 -0.3316  0.5551
   19CHTO  H227 7618   4.596   9.356   2.109  0.2684  2.3967 -0.2981
   19CHTO   O77 7619   4.803   9.373   2.087  0.4253  0.0167 -0.2104
   19CHTO  C118 7620   4.830   9.246   2.020  0.1949  0.0182 -0.1426
   19CHTO  H222 7621   4.738   9.215   1.969  0.1135 -0.4975  0.3089
   19CHTO  C125 7622   4.953   9.269   1.917 -0.2870  0.1089 -0.2448
   19CHTO   O84 7623   4.958   9.172   1.816  0.5573 -0.1174 -0.6222
   19CHTO  H205 7624   4.940   9.211   1.733  2.4755  0.6675 -0.6899
   19CHTO  C114 7625   4.848   9.141   2.131 -0.5115 -0.6922  0.6290
   19CHTO  H218 7626   4.940   9.159   2.187 -0.6583  0.1026  0.6214
   19CHTO  C116 7627   4.742   9.134   2.242 -0.1110 -0.7166  0.2121
   19CHTO  H220 7628   4.654   9.080   2.200 -0.0327 -0.2575 -0.5461
   19CHTO   O79 7629   4.787   9.044   2.335 -0.1034  0.1508  0.5732
   19CHTO  H201 7630   4.789   8.957   2.299  0.0950 -0.2662  1.5630
   19CHTO  C120 7631   4.707   9.280   2.298 -0.2782 -0.1500  0.0283
   19CHTO  H224 7632   4.793   9.317   2.357 -1.1798  0.8687  0.7114
   19CHTO   N21 7633   4.598   9.272   2.397 -0.9065  0.8234  0.4786
   19CHTO  H211 7634   4.601   9.349   2.472  3.5711 -0.5790  1.8636
   19CHTO  H212 7635   4.500   9.260   2.352 -0.6698  0.9023 -0.0660
   19CHTO   O75 7636   4.862   9.015   2.060  0.5950 -0.2419 -0.0168
   19CHTO  C112 7637   4.992   8.906   2.073 -0.1950 -0.1107  0.0364
   19CHTO  H216 7638   5.052   8.927   2.164 -0.6208  0.3798  0.2072
   19CHTO   O73 7639   5.073   8.917   1.956 -0.2950  0.3975  0.0244
   19CHTO  C113 7640   5.186   8.830   1.956 -0.5566  0.7333 -0.2949
   19CHTO  H217 7641   5.247   8.859   2.044  0.1186  2.4614 -1.2889
   19CHTO  C124 7642   5.283   8.867   1.840  0.1773  0.5505 -0.2362
   19CHTO   O83 7643   5.293   9.010   1.812 -0.0568 -0.5101  0.0427
   19CHTO  H204 7644   5.259   9.059   1.884  1.3406 -0.6148  0.7748
   19CHTO  C109 7645   5.144   8.677   1.952  0.0732  0.8044 -0.1749
   19CHTO  H213 7646   5.089   8.659   1.859  2.4911 -1.1638 -1.2573
   19CHTO  C110 7647   5.050   8.650   2.072  0.4694 -0.6686 -0.1721
   19CHTO  H214 7648   5.113   8.654   2.161  0.6527  1.6171 -0.3856
   19CHTO   O78 7649   5.004   8.513   2.063  0.2175 -0.0086  0.0981
   19CHTO  H200 7650   5.065   8.456   2.106  0.2059  2.0009  2.8961
   19CHTO  C111 7651   4.936   8.756   2.077  0.2306  0.1849 -0.7092
   19CHTO  H215 7652   4.866   8.742   1.994  1.6688  0.8184 -2.0662
   19CHTO   N19 7653   4.858   8.749   2.203  0.1425  0.3979 -0.8874
   19CHTO  H207 7654   4.922   8.763   2.289  0.3065 -0.9724 -0.7781
   19CHTO  H208 7655   4.820   8.649   2.207  0.0936  0.4729  1.1258
   19CHTO   O74 7656   5.252   8.578   1.960 -0.3393  0.0170 -0.2219
   19CHTO  C115 7657   5.266   8.487   1.846 -0.7658  0.4232  0.7133
   19CHTO  H219 7658   5.176   8.478   1.786  0.2547  1.6131 -1.0444
   19CHTO   O76 7659   5.376   8.538   1.737 -0.0376 -0.0647  0.2757
   19CHTO  C122 7660   5.509   8.510   1.783 -0.1555  0.2505  0.5240
   19CHTO  H226 7661   5.516   8.549   1.884  2.9211  3.0853 -0.6605
   19CHTO  C126 7662   5.614   8.586   1.698  0.3095  0.6696 -0.0230
   19CHTO   O85 7663   5.607   8.728   1.717 -0.0851 -0.2023  0.5457
   19CHTO  H206 7664   5.675   8.766   1.665 -0.6039  0.5217  0.3965
   19CHTO  C121 7665   5.540   8.355   1.794 -0.1275 -0.5256  0.4566
   19CHTO  H225 7666   5.594   8.318   1.704  0.1773  4.7869 -1.6896
   19CHTO   O81 7667   5.631   8.318   1.898  0.2789 -0.0931  0.1198
   19CHTO  H202 7668   5.700   8.382   1.899  0.1442  0.0637 -0.6704
   19CHTO  C119 7669   5.408   8.278   1.808  0.7943  0.0918  0.2645
   19CHTO  H223 7670   5.362   8.291   1.710 -1.8262  2.1137  1.6731
   19CHTO  C117 7671   5.301   8.345   1.903 -0.2184 -0.4607 -0.0498
   19CHTO  H221 7672   5.340   8.366   2.003 -0.4655 -3.0931  0.6109
   19CHTO   N20 7673   5.179   8.267   1.925 -0.5672  0.1909  0.3646
   19CHTO  H209 7674   5.203   8.187   1.993 -2.0219  0.4463  1.2047
   19CHTO  H210 7675   5.135   8.232   1.833  1.9794  1.3954 -1.3775
   19CHTO   O80 7676   5.435   8.109   1.810  0.1518 -0.2138 -0.6943
   19CHTO  C103 7677   5.493   8.034   1.680 -0.6413 -0.7251 -0.8753
   19CHTO  H190 7678   5.500   8.104   1.597  1.5878  0.6961  0.4387
   19CHTO  C101 7679   5.637   7.965   1.709  0.1225  0.4733 -0.0567
   19CHTO  H188 7680   5.644   7.916   1.807  0.6811 -0.8519 -0.7506
   19CHTO   O68 7681   5.738   8.081   1.700  0.1663 -0.3611 -0.4154
   19CHTO  H168 7682   5.755   8.110   1.612 -1.3575  0.6258 -0.4119
   19CHTO   C99 7683   5.657   7.850   1.597  0.0836  0.5405  1.1933
   19CHTO  H186 7684   5.656   7.894   1.495 -1.3822  0.7850  1.2938
   19CHTO   N17 7685   5.788   7.784   1.598 -0.3430 -0.4740  0.5784
   19CHTO  H174 7686   5.815   7.734   1.690  1.7581 -0.9812 -0.2891
   19CHTO  H175 7687   5.867   7.855   1.575 -1.3642 -0.1434 -2.0731
   19CHTO   C97 7688   5.533   7.754   1.607  0.0863  0.0480 -0.0443
   19CHTO  H184 7689   5.525   7.709   1.707 -2.2011  0.2411 -0.1080
   19CHTO   O64 7690   5.408   7.824   1.572  0.3377 -0.0951 -0.2956
   19CHTO  C104 7691   5.372   7.936   1.652 -0.1523 -0.3946 -0.3521
   19CHTO  H191 7692   5.333   7.908   1.750 -0.8627 -0.9601 -0.7977
   19CHTO  C108 7693   5.253   7.999   1.575  0.1599 -0.8995  0.3414
   19CHTO   O71 7694   5.139   7.921   1.567  0.2232 -0.4441  0.2418
   19CHTO  H171 7695   5.159   7.845   1.516 -1.2922 -0.0672 -0.9652
   19CHTO   O62 7696   5.534   7.646   1.509  0.2917 -0.4824  0.2693
   19CHTO   C91 7697   5.458   7.525   1.522  0.7452 -0.3114  0.0621
   19CHTO  H178 7698   5.399   7.536   1.612  0.2303  2.5739 -0.5831
   19CHTO   C92 7699   5.551   7.399   1.549  0.2239 -0.0853  0.7755
   19CHTO  H179 7700   5.638   7.405   1.482  2.0202 -0.7740  2.9827
   19CHTO   O66 7701   5.612   7.413   1.680 -0.6358  0.6127 -0.1107
   19CHTO  H166 7702   5.551   7.439   1.747  0.0937  1.3403  0.2774
   19CHTO   C93 7703   5.483   7.258   1.537 -0.0246 -0.6388 -0.2296
   19CHTO  H180 7704   5.433   7.234   1.632  2.3960 -1.7599  0.7773
   19CHTO   N16 7705   5.587   7.157   1.513 -0.1755  0.7991  0.7099
   19CHTO  H172 7706   5.556   7.073   1.452 -1.0519  0.2594  1.8636
   19CHTO  H173 7707   5.688   7.181   1.485  0.2407 -1.7901 -0.1729
   19CHTO   C94 7708   5.382   7.249   1.417 -0.1952  0.7574 -0.7091
   19CHTO  H181 7709   5.436   7.249   1.322  5.3968  0.1960  2.2647
   19CHTO   O61 7710   5.291   7.360   1.425 -0.1081 -0.2386 -0.4747
   19CHTO   C95 7711   5.366   7.479   1.404 -0.4985  0.3107 -0.5310
   19CHTO  H182 7712   5.429   7.466   1.316  0.7830 -0.0740  0.4309
   19CHTO  C106 7713   5.254   7.580   1.371  0.2457  0.2460  0.2920
   19CHTO   O69 7714   5.206   7.584   1.235  0.0269 -0.5036  0.4301
   19CHTO  H169 7715   5.126   7.632   1.228  1.5688  1.9267 -1.0696
   19CHTO   O63 7716   5.300   7.125   1.441  0.2614  1.0770  1.1754
   19CHTO   C96 7717   5.240   7.058   1.298 -0.0376 -0.1013 -0.6259
   19CHTO  H183 7718   5.318   7.045   1.224 -1.5959 -2.2148 -1.9853
   19CHTO   C98 7719   5.132   7.146   1.223 -0.0113  0.3208 -0.2166
   19CHTO  H185 7720   5.177   7.241   1.188  0.7928 -0.7032 -2.0246
   19CHTO   O67 7721   5.104   7.078   1.106 -0.1138  0.0187  0.3117
   19CHTO  H167 7722   5.016   7.094   1.079  0.0116 -0.4995 -0.4211
   19CHTO  C102 7723   4.997   7.161   1.304 -0.4680  0.1232 -0.0276
   19CHTO  H189 7724   4.917   7.179   1.231 -0.3526 -1.2685 -0.4950
   19CHTO   N18 7725   4.996   7.278   1.391  0.0420  0.7238  0.5147
   19CHTO  H176 7726   5.060   7.284   1.478 -2.1807  0.6956  2.1787
   19CHTO  H177 7727   4.897   7.309   1.419 -0.2490  0.0373  0.2508
   19CHTO  C105 7728   4.962   7.030   1.378  0.0221  0.3892  0.6545
   19CHTO  H192 7729   4.986   7.040   1.484 -0.9663 -2.4592  1.1909
   19CHTO   O65 7730   5.033   6.916   1.328 -0.5783  0.1982  0.9930
   19CHTO  C100 7731   5.179   6.920   1.347 -0.0664  0.1793  0.2212
   19CHTO  H187 7732   5.191   6.910   1.456 -1.5746 -2.1132  0.2113
   19CHTO  C107 7733   5.233   6.790   1.282  0.0868 -0.2983 -0.2551
   19CHTO   O70 7734   5.358   6.754   1.340 -0.0646 -0.0410 -0.6597
   19CHTO  H170 7735   5.428   6.766   1.279  1.8116  2.0093  1.8144
   19CHTO   O57 7736   4.809   7.007   1.366 -0.2805  0.5408  0.1141
   19CHTO   C85 7737   4.745   6.886   1.411 -0.6427  0.1581 -0.0451
   19CHTO  H157 7738   4.811   6.835   1.484 -1.2662  0.5475  0.7943
   19CHTO   C83 7739   4.728   6.787   1.287 -0.5904 -0.4745 -0.0092
   19CHTO  H155 7740   4.825   6.752   1.252 -1.5132 -4.2685  0.9873
   19CHTO   O56 7741   4.665   6.860   1.172  0.1342  0.2817 -0.7965
   19CHTO  H135 7742   4.605   6.807   1.122  1.4246 -1.4996 -0.5091
   19CHTO   C81 7743   4.658   6.659   1.335 -0.2163  0.9749 -0.0600
   19CHTO  H153 7744   4.720   6.608   1.408 -1.1984 -0.8348 -0.4678
   19CHTO   N14 7745   4.649   6.560   1.226 -0.2489 -0.2594 -0.2461
   19CHTO  H141 7746   4.630   6.615   1.136 -2.2462 -0.6752 -0.1007
   19CHTO  H142 7747   4.565   6.499   1.251 -0.6209 -0.8294 -2.7449
   19CHTO   C79 7748   4.522   6.690   1.405 -0.1119 -0.7995  0.2839
   19CHTO  H151 7749   4.486   6.598   1.450 -2.7435 -0.0943 -0.2861
   19CHTO   O52 7750   4.533   6.794   1.512 -0.0338 -0.9616 -0.1593
   19CHTO   C86 7751   4.604   6.909   1.465  0.3423 -0.2955 -0.5959
   19CHTO  H158 7752   4.535   6.949   1.388  1.3167 -0.2632 -1.4603
   19CHTO   C90 7753   4.612   7.013   1.576  0.1994  0.8036  0.8697
   19CHTO   O60 7754   4.490   7.076   1.604  0.1736 -0.6912 -0.6265
   19CHTO  H138 7755   4.479   7.150   1.547 -0.5187  1.0761  1.6794
   19CHTO   O50 7756   4.409   6.724   1.314 -0.4026  0.3301  0.4459
   19CHTO   C73 7757   4.276   6.753   1.270  0.3691  0.4415  0.2172
   19CHTO  H145 7758   4.217   6.662   1.287  0.9749  0.2481  1.3791
   19CHTO   C74 7759   4.256   6.788   1.120  0.1795 -0.4104  0.3676
   19CHTO  H146 7760   4.293   6.713   1.048 -1.3827 -2.1499  1.3151
   19CHTO   O54 7761   4.115   6.792   1.101 -0.2815  0.1215  0.1256
   19CHTO  H133 7762   4.098   6.715   1.050  0.2383 -0.3180  0.6050
   19CHTO   C75 7763   4.325   6.934   1.100  0.0308  0.1671 -0.4605
   19CHTO  H147 7764   4.431   6.929   1.129 -0.9667  0.9066  3.6247
   19CHTO   N13 7765   4.320   6.985   0.960 -0.3974 -0.3354  0.2968
   19CHTO  H139 7766   4.228   7.032   0.930 -1.0580 -0.9315  1.3275
   19CHTO  H140 7767   4.331   6.904   0.889 -1.2312 -0.6515  0.5197
   19CHTO   C76 7768   4.270   7.042   1.204  0.8320  0.1835 -0.3286
   19CHTO  H148 7769   4.164   7.062   1.190  0.1849 -2.5624  0.4713
   19CHTO   O49 7770   4.279   6.999   1.342 -0.2625 -0.0924  0.3317
   19CHTO   C77 7771   4.216   6.875   1.361 -0.5658  0.6538  0.5508
   19CHTO  H149 7772   4.110   6.886   1.337  0.0451  1.1062 -2.0849
   19CHTO   C88 7773   4.224   6.835   1.508  0.2374 -0.1820  1.1623
   19CHTO   O58 7774   4.200   6.955   1.607  0.3868  0.1151  0.4443
   19CHTO  H136 7775   4.167   7.030   1.561  2.5550 -0.7215 -2.6850
   19CHTO   O51 7776   4.374   7.190   1.198 -0.6919  0.1988  0.3204
   19CHTO   C78 7777   4.309   7.337   1.264  0.2382 -0.1127 -0.3486
   19CHTO  H150 7778   4.235   7.316   1.344 -1.9171 -1.7161 -2.6752
   19CHTO   C80 7779   4.232   7.409   1.151 -0.0100 -1.3733  0.0841
   19CHTO  H152 7780   4.299   7.407   1.063 -1.1502  0.9621 -0.8746
   19CHTO   O55 7781   4.122   7.325   1.123 -0.3727 -0.0104 -0.7163
   19CHTO  H134 7782   4.149   7.249   1.075  1.1720  0.8967 -1.2931
   19CHTO   C84 7783   4.194   7.557   1.199 -0.2466 -0.3202 -0.6362
   19CHTO  H156 7784   4.132   7.553   1.288 -0.9144 -0.0854 -1.0884
   19CHTO   N15 7785   4.126   7.638   1.092  0.1020  0.6863  0.4959
   19CHTO  H143 7786   4.199   7.676   1.023  1.1823 -3.2907 -0.7286
   19CHTO  H144 7787   4.074   7.714   1.146  0.3823  0.5881  0.9108
   19CHTO   C87 7788   4.324   7.629   1.244 -0.2188  0.1824 -0.0993
   19CHTO  H159 7789   4.392   7.634   1.160 -0.1456 -3.0342 -0.3177
   19CHTO   O53 7790   4.395   7.549   1.361 -0.3666 -0.4974 -0.2760
   19CHTO   C82 7791   4.422   7.415   1.318 -0.1962  0.1813 -0.5785
   19CHTO  H154 7792   4.508   7.407   1.251  0.4242  0.4345  0.1785
   19CHTO   C89 7793   4.473   7.346   1.452  0.3324 -0.2442 -0.1615
   19CHTO   O59 7794   4.598   7.384   1.498 -0.0935 -0.4632 -0.4893
   19CHTO  H137 7795   4.657   7.371   1.426  1.8770  3.5307  0.2727
   19CHTO   O45 7796   4.291   7.808   1.298 -0.1799  0.2404  0.4175
   19CHTO   C67 7797   4.266   7.820   1.441  0.0123 -0.5022 -0.3387
   19CHTO  H124 7798   4.214   7.731   1.477 -2.9046  1.4544  0.4993
   19CHTO   C65 7799   4.398   7.839   1.524  0.4889  0.3690 -0.3728
   19CHTO  H122 7800   4.481   7.853   1.455  0.8106  0.2777 -0.0047
   19CHTO   O44 7801   4.413   7.711   1.592  0.0081 -0.1422 -0.0710
   19CHTO  H102 7802   4.486   7.714   1.650  0.0989  0.8375 -0.2379
   19CHTO   C63 7803   4.388   7.967   1.613  0.1005  0.3361  0.3063
   19CHTO  H120 7804   4.386   8.051   1.543  0.1519  0.4450  0.4372
   19CHTO   N11 7805   4.514   7.997   1.693 -0.6416  0.5895 -0.2906
   19CHTO  H108 7806   4.593   8.056   1.651 -0.4053 -0.4463 -1.3433
   19CHTO  H109 7807   4.552   7.904   1.729  0.5088  0.4175 -1.8587
   19CHTO   C61 7808   4.255   7.965   1.697 -0.3321  0.8979  0.1663
   19CHTO  H118 7809   4.251   8.068   1.735  1.0046  0.7207  0.8053
   19CHTO   O40 7810   4.136   7.948   1.613 -0.5126 -0.2672 -0.0774
   19CHTO   C68 7811   4.167   7.938   1.463 -0.3588 -0.2698 -0.1552
   19CHTO  H125 7812   4.218   8.028   1.424 -1.0027 -0.6408 -1.8670
   19CHTO   C72 7813   4.036   7.912   1.376 -0.1367  0.5767 -0.4679
   19CHTO   O48 7814   3.951   7.823   1.450  0.0419  0.3700 -0.4975
   19CHTO  H105 7815   3.920   7.859   1.531 -1.6881 -0.7119 -0.6506
   19CHTO   O38 7816   4.262   7.871   1.802 -0.4617  0.1061 -0.4638
   19CHTO   C55 7817   4.146   7.845   1.887 -0.2657  0.4840 -0.0673
   19CHTO  H112 7818   4.076   7.922   1.850 -1.5062 -1.1647 -1.2070
   19CHTO   C56 7819   4.173   7.869   2.050 -0.0666  0.2488  0.1945
   19CHTO  H113 7820   4.259   7.809   2.087  0.7474  1.7347  0.7519
   19CHTO   O42 7821   4.224   8.004   2.072  0.0491  1.0647 -0.1354
   19CHTO  H100 7822   4.293   8.027   2.012 -0.6622  2.7667 -0.3324
   19CHTO   C57 7823   4.045   7.831   2.130 -0.2801  0.0644 -0.4224
   19CHTO  H114 7824   3.965   7.903   2.115 -0.3589 -0.4464 -2.5572
   19CHTO   N10 7825   4.067   7.841   2.279 -0.1749  0.1008  0.1050
   19CHTO  H106 7826   4.082   7.747   2.330 -2.2976  0.0778  0.7347
   19CHTO  H107 7827   3.996   7.905   2.330 -0.5751  0.1942 -0.5726
   19CHTO   C58 7828   3.992   7.690   2.091  0.2036  0.2854  0.0162
   19CHTO  H115 7829   4.070   7.612   2.103  1.3048  0.7255 -3.6012
   19CHTO   O37 7830   3.964   7.690   1.953  0.2201 -0.1485  0.1603
   19CHTO   C59 7831   4.089   7.705   1.873  0.0930  0.0721 -0.1570
   19CHTO  H116 7832   4.169   7.637   1.902  1.5015  0.9388 -1.9819
   19CHTO   C70 7833   4.066   7.669   1.730  0.4645  0.3304  0.9263
   19CHTO   O46 7834   4.012   7.537   1.708 -0.4722  0.7308 -0.0513
   19CHTO  H103 7835   3.971   7.523   1.625 -1.1209 -1.4767  0.5839
   19CHTO   O39 7836   3.852   7.647   2.167 -0.0150 -0.2887  0.1716
   19CHTO   C60 7837   3.780   7.531   2.113 -0.5267  0.1776 -0.3028
   19CHTO  H117 7838   3.778   7.535   2.004 -0.4686  1.1590 -0.2701
   19CHTO   C62 7839   3.834   7.388   2.138 -0.4228 -0.3615 -0.5381
   19CHTO  H119 7840   3.941   7.390   2.107 -0.2883  0.9833 -0.0368
   19CHTO   O43 7841   3.837   7.354   2.277 -0.7811  0.5205 -0.4382
   19CHTO  H101 7842   3.860   7.265   2.296 -0.5023  0.8855  0.9322
   19CHTO   C66 7843   3.753   7.279   2.052 -0.1217 -0.1989  0.4376
   19CHTO  H123 7844   3.757   7.312   1.949 -1.0087  2.0517  1.1038
   19CHTO   N12 7845   3.828   7.152   2.056 -0.3994 -0.1480  0.1462
   19CHTO  H110 7846   3.932   7.165   2.033  0.4000 -3.8496  1.2356
   19CHTO  H111 7847   3.810   7.105   2.152  0.6743 -1.8304 -0.4581
   19CHTO   C69 7848   3.600   7.281   2.085 -0.6861 -0.3002 -0.4120
   19CHTO  H126 7849   3.584   7.207   2.166 -0.4747 -1.1374 -1.1253
   19CHTO   O41 7850   3.537   7.427   2.117  0.3263 -0.2368  0.1825
   19CHTO   C64 7851   3.636   7.543   2.165  0.1379  0.5827  0.7921
   19CHTO  H121 7852   3.646   7.540   2.276 -0.2013  1.4470  0.8514
   19CHTO   C71 7853   3.569   7.681   2.129  0.4599  0.0199 -0.1616
   19CHTO   O47 7854   3.586   7.707   1.990  0.1857 -0.6274 -0.1550
   19CHTO  H104 7855   3.512   7.747   1.948 -0.3316  0.3883  1.6325
   19CHTO   O34 7856   3.533   7.219   1.979  0.3821 -0.0727 -0.4482
   19CHTO   C49 7857   3.471   7.267   1.847  0.2887  0.4508 -0.1318
   19CHTO   H91 7858   3.371   7.301   1.872  0.8347  1.6318  0.4929
   19CHTO   C47 7859   3.476   7.136   1.766  0.3238  0.4499  0.1612
   19CHTO   H89 7860   3.416   7.172   1.680  0.4029 -0.2117 -0.1757
   19CHTO   O33 7861   3.407   7.028   1.827  0.7718  0.2967  0.3496
   19CHTO   H70 7862   3.362   6.979   1.761  0.7971  0.2939  0.3344
   19CHTO   C45 7863   3.622   7.099   1.718 -0.9906 -0.1667  0.2123
   19CHTO   H87 7864   3.689   7.080   1.803  0.1300  1.4774 -0.2663
   19CHTO    N8 7865   3.634   6.981   1.630  0.0225  0.4166 -0.7043
   19CHTO   H75 7866   3.568   6.907   1.673  1.6151 -0.3734  0.4281
   19CHTO   H76 7867   3.731   6.936   1.641  0.2672  0.9268 -0.7538
   19CHTO   C43 7868   3.696   7.230   1.658  0.2636 -0.1501  0.7573
   19CHTO   H85 7869   3.800   7.198   1.653 -0.4408 -2.5195  0.6330
   19CHTO   O29 7870   3.677   7.350   1.737 -0.6664  0.5250  0.5300
   19CHTO   C50 7871   3.549   7.383   1.786  0.8613  0.1090  0.3837
   19CHTO   H92 7872   3.578   7.465   1.853  1.2616  1.3679 -1.3205
   19CHTO   C54 7873   3.471   7.454   1.671 -0.0808 -0.5507  0.0864
   19CHTO   O36 7874   3.526   7.586   1.661 -0.3490 -0.0134 -0.8227
   19CHTO   H72 7875   3.450   7.633   1.632 -1.3518 -1.0151  0.1729
   19CHTO   O27 7876   3.658   7.254   1.520  0.2608  0.1303  0.9066
   19CHTO   C37 7877   3.685   7.240   1.375  0.6674 -0.2360 -0.1676
   19CHTO   H79 7878   3.735   7.144   1.357  1.9107 -0.0273  2.0369
   19CHTO   C38 7879   3.552   7.257   1.295 -0.6429  0.9004 -0.7397
   19CHTO   H80 7880   3.503   7.344   1.340  2.0899  2.9737 -1.6790
   19CHTO   O31 7881   3.464   7.147   1.327 -0.6518 -0.0598  0.0582
   19CHTO   H68 7882   3.395   7.188   1.376 -0.9119  1.6613 -1.6459
   19CHTO   C39 7883   3.564   7.269   1.137  0.1299  0.0103  0.5510
   19CHTO   H81 7884   3.583   7.165   1.109  0.1388 -0.3943  2.0285
   19CHTO    N7 7885   3.444   7.304   1.059  0.2470 -0.2592 -0.0285
   19CHTO   H73 7886   3.415   7.408   1.066  1.9230  0.1511  1.0525
   19CHTO   H74 7887   3.361   7.246   1.097 -0.4652  1.4208  1.0367
   19CHTO   C40 7888   3.687   7.359   1.095  1.0091  0.2300  0.3277
   19CHTO   H82 7889   3.652   7.462   1.108 -1.9746 -0.3701 -2.4700
   19CHTO   O26 7890   3.796   7.327   1.180  0.0983  0.0922 -0.6661
   19CHTO   C41 7891   3.777   7.347   1.326 -0.5299  0.0965  0.5650
   19CHTO   H83 7892   3.733   7.445   1.351 -0.0162  0.4885 -0.0223
   19CHTO   C52 7893   3.919   7.332   1.384 -0.0613 -0.0002 -0.3984
   19CHTO   O35 7894   3.977   7.197   1.363 -0.0929 -0.4376  0.4103
   19CHTO   H71 7895   3.997   7.166   1.449 -0.4271  2.3406  1.5460
   19CHTO   O28 7896   3.731   7.326   0.964  0.4860 -0.1130 -0.0525
   19CHTO   C42 7897   3.850   7.385   0.903 -0.6688 -0.3560  0.4158
   19CHTO   H84 7898   3.922   7.399   0.984 -1.0981  3.8905  0.1759
   19CHTO   C44 7899   3.828   7.528   0.842 -0.4439 -0.3655 -0.4312
   19CHTO   H86 7900   3.747   7.522   0.769 -1.3575 -0.8719  0.6061
   19CHTO   O32 7901   3.784   7.613   0.952 -0.1752 -0.4889 -0.4720
   19CHTO   H69 7902   3.793   7.702   0.925  0.5226 -0.1034  0.9854
   19CHTO   C48 7903   3.960   7.572   0.768 -0.1366 -0.1650  0.0137
   19CHTO   H90 7904   4.030   7.587   0.850  1.6718 -0.0221 -1.5139
   19CHTO    N9 7905   3.950   7.713   0.717 -0.1764 -0.7737 -0.0453
   19CHTO   H77 7906   3.874   7.725   0.642  0.3252  1.5205 -0.2417
   19CHTO   H78 7907   4.043   7.761   0.689  0.9169 -0.8381  3.1612
   19CHTO   C51 7908   4.025   7.470   0.665 -1.0074 -0.5251 -0.2528
   19CHTO   H93 7909   3.954   7.463   0.582  0.6530  3.4392 -2.1285
   19CHTO   O30 7910   4.036   7.351   0.741  0.4869  0.5036  0.2703
   19CHTO   C46 7911   3.918   7.289   0.802  0.3425 -0.4948  0.7388
   19CHTO   H88 7912   3.848   7.258   0.725  1.4656 -1.3250  0.0358
   19CHTO   C53 7913   3.978   7.165   0.873 -0.3715  0.2156  0.2118
   19CHTO   O72 7914   3.877   7.075   0.922  0.0395 -0.2199 -0.0088
   19CHTO  H199 7915   3.915   7.014   0.982  0.1774 -0.1314 -0.0082
   19CHTO   O22 7916   4.156   7.513   0.627  0.1893  0.3746  0.3363
   19CHTO   C31 7917   4.260   7.420   0.578 -0.2103  1.0313 -0.7015
   19CHTO   H59 7918   4.233   7.317   0.610 -0.4517  1.2567 -0.1783
   19CHTO   C29 7919   4.276   7.417   0.428  0.5543  0.0685  0.4167
   19CHTO   H57 7920   4.296   7.519   0.392  0.4503 -0.3217 -0.7570
   19CHTO   O21 7921   4.143   7.389   0.379  1.0137 -0.4374  0.0163
   19CHTO   H37 7922   4.135   7.435   0.297 -0.8525  0.3883  0.6415
   19CHTO   C27 7923   4.393   7.315   0.379  0.1972  0.0551 -0.4559
   19CHTO   H55 7924   4.355   7.213   0.388 -2.5332  1.1570  0.9700
   19CHTO    N5 7925   4.414   7.343   0.234 -0.4094  0.6510 -0.0557
   19CHTO   H43 7926   4.323   7.336   0.178 -0.5761 -0.5855  0.3650
   19CHTO   H44 7927   4.485   7.276   0.187 -1.1149 -1.1654  1.4126
   19CHTO   C25 7928   4.521   7.329   0.462 -0.2155  0.3039 -0.2471
   19CHTO   H53 7929   4.579   7.420   0.441  0.2660  0.3574  1.2723
   19CHTO   O17 7930   4.494   7.344   0.602 -0.1318  0.7060 -0.4008
   19CHTO   C32 7931   4.400   7.448   0.642 -0.0395 -0.4581  0.4409
   19CHTO   H60 7932   4.436   7.545   0.609  1.0088 -0.2642  2.1189
   19CHTO   C36 7933   4.397   7.466   0.797  0.0968 -0.4247 -0.6265
   19CHTO   O25 7934   4.522   7.514   0.846 -0.6142  0.4364  0.3962
   19CHTO   H40 7935   4.522   7.607   0.855 -1.9663  0.6782 -1.9562
   19CHTO   O15 7936   4.610   7.234   0.446  0.2637 -0.3916 -0.5306
   19CHTO   C19 7937   4.687   7.169   0.342  0.3923  0.7422  0.1426
   19CHTO   H47 7938   4.666   7.212   0.243  3.2982 -2.5747 -2.0380
   19CHTO   C20 7939   4.842   7.182   0.357 -0.2742  0.7513  0.3204
   19CHTO   H48 7940   4.881   7.149   0.454  0.8742 -0.8882 -0.6698
   19CHTO   O19 7941   4.867   7.323   0.352  0.4149  0.2890 -0.0546
   19CHTO   H35 7942   4.811   7.376   0.406 -1.5575 -1.8497  0.0951
   19CHTO   C21 7943   4.913   7.119   0.230  0.3742 -0.1725  0.5559
   19CHTO   H49 7944   4.878   7.175   0.144  0.7173 -0.4924  0.2098
   19CHTO    N4 7945   5.065   7.130   0.236 -0.0397  0.1121  0.6764
   19CHTO   H41 7946   5.081   7.234   0.258  1.7949  0.4078 -1.8389
   19CHTO   H42 7947   5.114   7.104   0.143 -0.4134 -0.4305  0.6272
   19CHTO   C22 7948   4.867   6.977   0.209  0.5712  0.1414  0.1633
   19CHTO   H50 7949   4.912   6.919   0.289 -0.7480 -0.4222  0.5027
   19CHTO   O14 7950   4.723   6.968   0.214  0.1295  0.4099  0.1090
   19CHTO   C23 7951   4.667   7.016   0.335 -0.0488 -0.3902  0.2208
   19CHTO   H51 7952   4.716   6.963   0.419  1.9506  0.1369 -0.5814
   19CHTO   C34 7953   4.515   6.974   0.330  0.8100  0.2368  0.5653
   19CHTO   O23 7954   4.450   7.016   0.209 -0.4069  0.1439 -0.2611
   19CHTO   H38 7955   4.469   7.106   0.193 -0.1087  0.4821  1.8770
   19CHTO   O16 7956   4.906   6.932   0.074 -0.2491 -0.3098  0.4861
   19CHTO   C24 7957   4.990   6.773   0.069  0.1446 -0.8962 -1.0168
   19CHTO   H52 7958   5.076   6.772   0.136 -1.1022  1.2764  0.6787
   19CHTO   C26 7959   5.032   6.756  -0.079 -0.2099 -0.7734  0.3009
   19CHTO   H54 7960   4.945   6.787  -0.141  0.7233 -1.1808 -1.2661
   19CHTO   O20 7961   5.134   6.850  -0.102 -0.2169  0.4031 -0.4884
   19CHTO   H36 7962   5.206   6.833  -0.045 -0.5146  0.3767 -0.1246
   19CHTO   C30 7963   5.072   6.613  -0.122  0.0416  0.0007 -0.2373
   19CHTO   H58 7964   5.169   6.599  -0.073 -0.5519  0.4823  1.1110
   19CHTO    N6 7965   5.092   6.614  -0.272 -0.6950 -0.8367  0.7011
   19CHTO   H45 7966   5.041   6.531  -0.317 -1.0292 -1.3682  2.0293
   19CHTO   H46 7967   5.051   6.706  -0.310  0.5664 -0.3947  0.3694
   19CHTO   C33 7968   4.969   6.510  -0.073  0.0667 -0.0446  0.4450
   19CHTO   H61 7969   4.876   6.551  -0.115  1.2049  0.6365 -1.5000
   19CHTO   O18 7970   4.958   6.526   0.066 -0.3666 -0.6160 -0.0558
   19CHTO   C28 7971   4.896   6.649   0.110 -1.0280 -1.0980 -0.2251
   19CHTO   H56 7972   4.799   6.666   0.064  0.9287  0.7134 -3.8976
   19CHTO   C35 7973   4.884   6.632   0.257  0.5054 -0.3298 -0.6744
   19CHTO   O24 7974   4.777   6.700   0.315 -0.2918  0.0365 -0.2341
   19CHTO   H39 7975   4.780   6.792   0.301 -1.8672 -0.0625 -1.3856
   19CHTO    O9 7976   4.986   6.373  -0.113 -0.4549  0.0336 -0.3984
   19CHTO   C13 7977   4.841   6.291  -0.112 -0.2068 -0.1873  0.2667
   19CHTO   H26 7978   4.768   6.351  -0.171 -0.8399 -1.3733 -0.1666
   19CHTO   C11 7979   4.781   6.255   0.033 -0.3187  0.7580  0.3126
   19CHTO   H24 7980   4.752   6.345   0.089 -0.0492 -0.2304  2.0629
   19CHTO    O8 7981   4.882   6.193   0.103 -0.5894 -0.4132 -0.3971
   19CHTO    H3 7982   4.961   6.244   0.102 -0.1997 -1.0056 -0.3520
   19CHTO    C9 7983   4.651   6.169   0.026  0.0320  0.1517 -0.0462
   19CHTO   H22 7984   4.581   6.239  -0.023 -0.7561  1.3586  2.6632
   19CHTO    N2 7985   4.579   6.158   0.154 -0.0533  0.6805 -0.1140
   19CHTO   H10 7986   4.602   6.063   0.201  2.2425  0.5635 -1.4250
   19CHTO   H11 7987   4.476   6.191   0.148  0.1757  1.4261  0.1480
   19CHTO    C7 7988   4.669   6.042  -0.064 -0.1493  0.3841  0.2277
   19CHTO   H20 7989   4.564   6.015  -0.089  0.0801  0.3960 -0.7432
   19CHTO    O4 7990   4.740   6.060  -0.189 -0.3323  0.5315 -0.1025
   19CHTO   C14 7991   4.849   6.158  -0.202  0.4067 -0.1344  0.5242
   19CHTO   H27 7992   4.836   6.187  -0.309  0.8953  1.5066  0.9011
   19CHTO   C18 7993   4.980   6.083  -0.195  0.4245  0.4563  0.2327
   19CHTO   O13 7994   5.006   5.995  -0.307 -0.0394  0.2548  0.5101
   19CHTO    H7 7995   4.926   5.946  -0.315 -1.2357  1.9923  1.4616
   19CHTO    O2 7996   4.737   5.932   0.020 -0.5314  0.0498 -0.1617
   19CHTO    C1 7997   4.712   5.792  -0.006 -0.1568 -0.9824 -0.5067
   19CHTO   H14 7998   4.737   5.778  -0.113  1.4913  1.2015 -0.4446
   19CHTO    C2 7999   4.566   5.741   0.021  0.0658  0.1377  0.0366
   19CHTO   H15 8000   4.544   5.795   0.115 -0.8983 -0.6260  0.2526
   19CHTO    O6 8001   4.476   5.785  -0.082 -0.0460  0.0366  0.1428
   19CHTO    H1 8002   4.394   5.746  -0.061 -0.2469  0.3849 -0.0047
   19CHTO    C3 8003   4.559   5.577   0.039  0.1578  0.0326  0.5678
   19CHTO   H16 8004   4.579   5.534  -0.060  1.1621  1.0393  0.3314
   19CHTO    N1 8005   4.425   5.534   0.098  0.1661 -0.1451 -0.2778
   19CHTO    H8 8006   4.434   5.487   0.196 -2.4636  0.2896  0.2122
   19CHTO    H9 8007   4.371   5.460   0.040  1.0991 -1.0655 -0.0005
   19CHTO    C4 8008   4.673   5.532   0.131  0.0624 -0.1050  0.4771
   19CHTO   H17 8009   4.652   5.567   0.232 -2.1537  0.7597 -0.2604
   19CHTO    O1 8010   4.800   5.577   0.074 -0.1113 -0.0805  0.4144
   19CHTO    C5 8011   4.815   5.721   0.075 -0.1509 -0.9457 -1.4843
   19CHTO   H18 8012   4.816   5.741   0.182 -1.4866  0.5950 -1.7546
   19CHTO   C16 8013   4.956   5.751   0.021 -0.1175 -0.1102 -0.2244
   19CHTO   O11 8014   4.981   5.722  -0.113  0.2009  0.4665  0.3023
   19CHTO    H5 8015   4.910   5.749  -0.167  0.5387  2.1689  0.6715
   19CHTO    O3 8016   4.692   5.392   0.129 -0.0055 -0.0836  0.3701
   19CHTO    C6 8017   4.665   5.318   0.251  0.3024  0.0192  0.1815
   19CHTO   H19 8018   4.606   5.372   0.324 -1.4421  2.2099 -2.7102
   19CHTO    C8 8019   4.586   5.193   0.224 -0.8579  0.6196  0.8031
   19CHTO   H21 8020   4.645   5.132   0.156  0.1063  1.7716  0.6008
   19CHTO    O7 8021   4.459   5.218   0.159  0.2734  0.4666 -0.3712
   19CHTO    H2 8022   4.463   5.260   0.075 -1.2474  0.1094 -0.6421
   19CHTO   C12 8023   4.563   5.110   0.353  0.5187 -0.3499  0.3932
   19CHTO   H25 8024   4.487   5.163   0.414  2.2872  1.8709  0.7194
   19CHTO    N3 8025   4.507   4.971   0.315  0.5636 -0.7746 -0.0731
   19CHTO   H12 8026   4.461   4.925   0.402  2.9569  0.3028  1.8410
   19CHTO   H13 8027   4.584   4.906   0.276  2.7976  1.1431  0.9431
   19CHTO   C15 8028   4.697   5.106   0.436  0.2391 -0.0302 -0.4712
   19CHTO   H28 8029   4.762   5.023   0.410 -0.8472 -1.4428  1.1757
   19CHTO   O10 8030   4.646   5.085   0.584  0.3326 -0.6565  0.1280
   19CHTO    H4 8031   4.588   5.011   0.588  0.6462 -0.9725 -1.0703
   19CHTO    O5 8032   4.776   5.225   0.442  0.7204 -0.1725 -0.5149
   19CHTO   C10 8033   4.802   5.283   0.313 -0.5800  0.0128 -0.2244
   19CHTO   H23 8034   4.857   5.214   0.250  0.7517 -0.5333  1.4781
   19CHTO   C17 8035   4.888   5.409   0.335  0.3114  0.1907  0.3396
   19CHTO   O12 8036   4.992   5.412   0.232 -0.1357 -0.0892 -0.5305
   19CHTO    H6 8037   4.992   5.495   0.188  0.4579 -1.1351 -2.5438
   20CHTO  H203 8038   4.494   1.019   2.182 -1.0954  1.2784 -0.6080
   20CHTO   O82 8039   4.495   0.987   2.094 -0.2729  0.0316 -0.1668
   20CHTO  C123 8040   4.476   1.084   1.996  0.4799 -0.6399  0.0112
   20CHTO  H227 8041   4.401   1.157   2.031 -0.5228 -1.3762 -0.5763
   20CHTO   O77 8042   4.606   1.152   2.005 -0.0130  0.1118  0.3389
   20CHTO  C118 8043   4.610   1.273   1.927  0.6493 -0.5041  0.5019
   20CHTO  H222 8044   4.520   1.333   1.946  1.7006  0.7253  1.6842
   20CHTO  C125 8045   4.742   1.354   1.970  0.1894  0.2234  0.1913
   20CHTO   O84 8046   4.860   1.276   1.938 -0.1589  0.8680  0.5331
   20CHTO  H205 8047   4.900   1.292   1.855  2.3388 -0.9255  1.3614
   20CHTO  C114 8048   4.615   1.219   1.784 -0.1806  0.0141 -0.5625
   20CHTO  H218 8049   4.694   1.145   1.772 -0.4036 -0.1828 -0.8208
   20CHTO  C116 8050   4.485   1.151   1.747 -0.1894 -0.2491 -0.4032
   20CHTO  H220 8051   4.401   1.223   1.732  0.4370  0.4929 -0.3499
   20CHTO   O79 8052   4.501   1.089   1.615  0.4040 -0.6259 -0.2389
   20CHTO  H201 8053   4.415   1.090   1.578  1.0036 -2.5471 -1.7237
   20CHTO  C120 8054   4.451   1.040   1.848  0.6115 -0.0031 -0.5591
   20CHTO  H224 8055   4.520   0.954   1.838  3.0060  1.4472  2.3602
   20CHTO   N21 8056   4.316   0.982   1.827  0.6354 -0.1909 -0.0849
   20CHTO  H211 8057   4.307   0.883   1.868  2.2546 -0.7738 -1.0738
   20CHTO  H212 8058   4.300   0.974   1.720  0.7595  0.2855 -0.1392
   20CHTO   O75 8059   4.639   1.332   1.699 -0.0754 -0.1864  0.3646
   20CHTO  C112 8060   4.754   1.330   1.561 -0.5684 -0.7420  0.6499
   20CHTO  H216 8061   4.773   1.226   1.529  3.0016 -0.2839  1.1103
   20CHTO   O73 8062   4.875   1.390   1.615  0.2938  0.2788  0.0046
   20CHTO  C113 8063   4.984   1.395   1.527 -0.9044  0.1983  0.2572
   20CHTO  H217 8064   5.005   1.286   1.518  1.0713  0.5179  0.7392
   20CHTO  C124 8065   5.088   1.455   1.626 -0.1673 -0.0155 -0.8725
   20CHTO   O83 8066   5.059   1.580   1.689 -0.5752 -0.1760 -0.2485
   20CHTO  H204 8067   5.034   1.643   1.625 -0.8397 -0.1981 -0.1679
   20CHTO  C109 8068   4.946   1.478   1.399 -0.7970 -1.1562  0.2961
   20CHTO  H213 8069   4.922   1.581   1.428 -1.6231 -0.8152 -1.4879
   20CHTO  C110 8070   4.820   1.419   1.334 -0.0624 -0.9483  0.0838
   20CHTO  H214 8071   4.837   1.317   1.299 -0.7593 -0.9298 -0.3167
   20CHTO   O78 8072   4.790   1.501   1.222 -0.0480 -0.0415  0.0506
   20CHTO  H200 8073   4.724   1.564   1.245  1.1521  0.9169  0.9658
   20CHTO  C111 8074   4.701   1.416   1.438 -0.1148  0.5795  0.2833
   20CHTO  H215 8075   4.683   1.517   1.476 -1.9735  0.9352 -1.4771
   20CHTO   N19 8076   4.580   1.366   1.373  0.0035 -0.9770 -0.2040
   20CHTO  H207 8077   4.496   1.392   1.436 -1.2963 -0.5154 -2.1178
   20CHTO  H208 8078   4.565   1.414   1.278  1.2768  1.4579  0.7631
   20CHTO   O74 8079   5.055   1.478   1.295 -0.0991  0.5849 -0.2189
   20CHTO  C115 8080   5.132   1.600   1.289 -0.2928 -0.1502  0.3601
   20CHTO  H219 8081   5.097   1.677   1.357 -0.9554 -1.1550  1.1650
   20CHTO   O76 8082   5.265   1.583   1.328  0.3074  0.0210 -0.5660
   20CHTO  C122 8083   5.339   1.484   1.257 -0.8533  0.0313 -0.2227
   20CHTO  H226 8084   5.294   1.389   1.284  1.0624 -1.6820 -2.8657
   20CHTO  C126 8085   5.489   1.478   1.320  0.5554  0.0185 -0.3119
   20CHTO   O85 8086   5.502   1.428   1.450 -0.5291  0.3819 -0.1642
   20CHTO  H206 8087   5.499   1.496   1.515  1.7288  0.4604 -0.1168
   20CHTO  C121 8088   5.337   1.498   1.102  0.0014 -0.0732 -0.3651
   20CHTO  H225 8089   5.438   1.498   1.057 -0.7376 -2.0915 -2.0850
   20CHTO   O81 8090   5.263   1.391   1.038  0.4161 -0.4122  0.2065
   20CHTO  H202 8091   5.207   1.347   1.099 -0.4248 -0.4327 -0.5780
   20CHTO  C119 8092   5.265   1.634   1.067  0.1006 -0.0980  0.2775
   20CHTO  H223 8093   5.330   1.712   1.106 -0.8198  1.6171 -1.5364
   20CHTO  C117 8094   5.120   1.654   1.144  0.0359  0.2035  0.5428
   20CHTO  H221 8095   5.040   1.600   1.092  1.1947 -1.0449  0.0105
   20CHTO   N20 8096   5.081   1.800   1.130  0.0504  0.5155 -0.1997
   20CHTO  H209 8097   4.986   1.817   1.178  0.4428  0.5079  0.5918
   20CHTO  H210 8098   5.159   1.858   1.177 -0.0200  1.1600 -0.8751
   20CHTO   O80 8099   5.266   1.675   0.907  0.6075  0.6489 -0.6126
   20CHTO  C103 8100   5.401   1.688   0.835 -0.2712 -0.3988  0.2325
   20CHTO  H190 8101   5.493   1.686   0.893  0.4516  2.1172 -0.7351
   20CHTO  C101 8102   5.434   1.582   0.720 -0.7147  0.6183 -0.1937
   20CHTO  H188 8103   5.344   1.546   0.671  0.1907 -1.1027 -0.6342
   20CHTO   O68 8104   5.506   1.457   0.783 -0.0116 -0.0933  0.7427
   20CHTO  H168 8105   5.442   1.427   0.844 -3.7865  0.8244 -2.5259
   20CHTO   C99 8106   5.524   1.646   0.603 -0.6764 -0.2432 -0.0097
   20CHTO  H186 8107   5.625   1.661   0.646 -0.5213 -0.5570 -0.2630
   20CHTO   N17 8108   5.544   1.557   0.486  0.0863 -0.5134 -0.4384
   20CHTO  H174 8109   5.634   1.595   0.440 -0.4087 -2.3087 -2.9563
   20CHTO  H175 8110   5.554   1.450   0.499 -0.3282 -0.2989  1.9786
   20CHTO   C97 8111   5.476   1.788   0.561 -0.3016  0.4639  0.3684
   20CHTO  H184 8112   5.372   1.780   0.527  0.7692  1.5403 -3.3944
   20CHTO   O64 8113   5.490   1.865   0.679 -0.1020 -0.5145  0.2934
   20CHTO  C104 8114   5.394   1.835   0.780 -0.6168 -0.3383  0.0997
   20CHTO  H191 8115   5.293   1.861   0.752 -0.7165  1.9050  2.3976
   20CHTO  C108 8116   5.426   1.925   0.903  0.6079  0.1123  0.3365
   20CHTO   O71 8117   5.565   1.922   0.941 -0.4045 -0.2039  0.1787
   20CHTO  H171 8118   5.619   1.965   0.877 -0.8404  1.0618  0.6352
   20CHTO   O62 8119   5.551   1.853   0.458  0.7582 -0.1934  0.4009
   20CHTO   C91 8120   5.522   1.991   0.420 -0.0326  0.2899 -0.2407
   20CHTO  H178 8121   5.495   2.047   0.509  1.6925 -0.8548  1.0338
   20CHTO   C92 8122   5.409   1.994   0.306 -0.2566  0.0738 -0.1593
   20CHTO  H179 8123   5.435   1.921   0.228 -1.4191  0.4140 -0.8617
   20CHTO   O66 8124   5.291   1.945   0.361  0.6359 -0.0015 -1.4074
   20CHTO  H166 8125   5.264   1.979   0.444 -0.4434  0.7831 -2.0615
   20CHTO   C93 8126   5.389   2.132   0.231 -0.3265 -0.2689 -0.4044
   20CHTO  H180 8127   5.332   2.202   0.295 -1.8151 -1.2270 -0.6699
   20CHTO   N16 8128   5.315   2.114   0.108  0.2316  0.1017  0.4144
   20CHTO  H172 8129   5.334   2.201   0.046  2.2245 -1.5086 -1.3216
   20CHTO  H173 8130   5.366   2.033   0.058 -1.7836 -1.1269  0.3431
   20CHTO   C94 8131   5.533   2.200   0.198 -0.1598 -0.7553 -0.6746
   20CHTO  H181 8132   5.584   2.154   0.113  2.4925  1.6610 -0.4486
   20CHTO   O61 8133   5.619   2.187   0.317 -0.2086  0.5661  0.3132
   20CHTO   C95 8134   5.650   2.061   0.360 -0.2674  0.3073  0.4452
   20CHTO  H182 8135   5.682   2.009   0.269 -1.3799 -0.4421  0.4774
   20CHTO  C106 8136   5.767   2.073   0.462 -0.5276  0.0183 -0.8866
   20CHTO   O69 8137   5.720   2.147   0.577  0.2174  0.7378  0.3172
   20CHTO  H169 8138   5.647   2.111   0.622  0.5353 -0.5082 -0.1471
   20CHTO   O63 8139   5.517   2.345   0.176  0.3590  0.5178 -0.3480
   20CHTO   C96 8140   5.500   2.400   0.020  0.4293  0.5242  0.4595
   20CHTO  H183 8141   5.422   2.345  -0.033 -0.7965  2.5444  0.1149
   20CHTO   C98 8142   5.636   2.410  -0.053  0.7468 -0.1618 -0.4062
   20CHTO  H185 8143   5.717   2.439   0.017 -1.3054 -3.1838  3.4160
   20CHTO   O67 8144   5.678   2.274  -0.088  0.5069 -0.1876  0.7416
   20CHTO  H167 8145   5.717   2.279  -0.173  0.3620 -0.4830  0.6591
   20CHTO  C102 8146   5.636   2.508  -0.188  0.7496  0.0264 -0.1207
   20CHTO  H189 8147   5.574   2.456  -0.262  0.8676 -0.1977 -0.0626
   20CHTO   N18 8148   5.767   2.527  -0.248  0.0247  0.6455  0.4059
   20CHTO  H176 8149   5.818   2.432  -0.251  0.0795  0.6017  2.2858
   20CHTO  H177 8150   5.822   2.590  -0.181 -0.1489 -0.1698  1.3282
   20CHTO  C105 8151   5.553   2.637  -0.158 -0.4226 -0.5118  0.3873
   20CHTO  H192 8152   5.615   2.698  -0.092  1.6715 -0.8325 -1.2451
   20CHTO   O65 8153   5.429   2.612  -0.101  0.1809 -0.3638 -0.4731
   20CHTO  C100 8154   5.436   2.542   0.025 -0.4765  0.4293  0.5746
   20CHTO  H187 8155   5.501   2.600   0.093  1.8048 -3.1405  1.5537
   20CHTO  C107 8156   5.295   2.535   0.072 -0.8994 -0.1070  0.2205
   20CHTO   O70 8157   5.225   2.662   0.067  0.3370 -0.6265  0.5037
   20CHTO  H170 8158   5.168   2.660   0.142  0.6156 -0.1371  0.7338
   20CHTO   O57 8159   5.534   2.702  -0.292 -0.3152 -0.5115  0.3064
   20CHTO   C85 8160   5.519   2.838  -0.287  0.3846 -0.4051 -0.3193
   20CHTO  H157 8161   5.514   2.873  -0.182 -1.5326 -0.1540 -0.4631
   20CHTO   C83 8162   5.380   2.875  -0.345 -0.3395  0.3064  0.6928
   20CHTO  H155 8163   5.318   2.838  -0.264  2.4264 -0.3004  2.6137
   20CHTO   O56 8164   5.361   2.799  -0.468 -0.5508  0.0413  0.2191
   20CHTO  H135 8165   5.286   2.743  -0.465 -2.1200  2.1117  0.6749
   20CHTO   C81 8166   5.372   3.025  -0.355 -0.5898  0.3816 -0.1329
   20CHTO  H153 8167   5.381   3.066  -0.254  1.6760  1.3673 -0.7017
   20CHTO   N14 8168   5.233   3.065  -0.397 -0.3935  0.0146 -0.8155
   20CHTO  H141 8169   5.228   3.171  -0.402 -0.4609  0.1471  1.8535
   20CHTO  H142 8170   5.160   3.032  -0.326  1.9621 -0.3301  1.5190
   20CHTO   C79 8171   5.482   3.080  -0.454 -0.1322  0.4765  0.6074
   20CHTO  H151 8172   5.474   3.188  -0.466  1.4850  0.7047  1.4077
   20CHTO   O52 8173   5.615   3.052  -0.404 -0.1887 -0.0575 -0.0721
   20CHTO   C86 8174   5.637   2.908  -0.372 -0.4563  0.1195 -0.6837
   20CHTO  H158 8175   5.645   2.869  -0.476  1.6092 -1.8481  0.1744
   20CHTO   C90 8176   5.782   2.894  -0.311  0.2915 -0.8471  0.0416
   20CHTO   O60 8177   5.827   2.974  -0.200 -0.3246 -0.0768  0.6014
   20CHTO  H138 8178   5.800   2.931  -0.121 -1.7300 -3.8585 -1.8125
   20CHTO   O50 8179   5.467   3.035  -0.592 -0.4800  0.0922 -0.8060
   20CHTO   C73 8180   5.564   3.040  -0.697  0.7727  0.3978  0.0395
   20CHTO  H145 8181   5.644   2.971  -0.667  0.2644 -1.3196 -2.4187
   20CHTO   C74 8182   5.626   3.182  -0.723 -0.2388  0.7493  0.2031
   20CHTO  H146 8183   5.649   3.214  -0.620 -0.7097 -0.4629  0.7011
   20CHTO   O54 8184   5.754   3.158  -0.799 -0.2331  0.2160  0.0629
   20CHTO  H133 8185   5.737   3.099  -0.870 -1.3937  0.5387  0.0703
   20CHTO   C75 8186   5.525   3.279  -0.797 -0.4328  0.1559 -0.3967
   20CHTO  H147 8187   5.443   3.314  -0.733  0.5575 -1.4881  1.8236
   20CHTO   N13 8188   5.584   3.406  -0.833 -0.2773 -0.0835  0.0778
   20CHTO  H139 8189   5.512   3.463  -0.890 -0.3511 -1.0616 -0.8192
   20CHTO  H140 8190   5.674   3.387  -0.889  1.0530 -0.0883  2.1835
   20CHTO   C76 8191   5.450   3.208  -0.916  0.1915  0.1962  0.1031
   20CHTO  H148 8192   5.517   3.214  -1.002  0.8766 -1.0920  0.5362
   20CHTO   O49 8193   5.412   3.073  -0.890  0.2609  0.0129  0.0797
   20CHTO   C77 8194   5.505   2.983  -0.831 -0.3124 -0.1630  0.2164
   20CHTO  H149 8195   5.587   2.970  -0.901  0.8338  1.6857  1.1890
   20CHTO   C88 8196   5.437   2.849  -0.827 -0.4849 -0.3733 -0.0975
   20CHTO   O58 8197   5.414   2.788  -0.951  0.0901 -0.4154 -0.1828
   20CHTO  H136 8198   5.491   2.790  -1.004 -0.2756  2.3515 -0.7014
   20CHTO   O51 8199   5.320   3.288  -0.945  0.1727 -0.5032 -0.4907
   20CHTO   C78 8200   5.184   3.294  -0.832 -0.2609  0.2727  0.6683
   20CHTO  H150 8201   5.216   3.299  -0.726 -1.2582  1.6750  0.9076
   20CHTO   C80 8202   5.085   3.182  -0.852 -0.2159 -0.4025 -0.2555
   20CHTO  H152 8203   5.050   3.189  -0.958  0.7806  3.6158 -0.4238
   20CHTO   O55 8204   5.155   3.050  -0.828  0.3343  0.3397 -0.3313
   20CHTO  H134 8205   5.097   2.990  -0.871 -1.1940  1.5452 -0.0041
   20CHTO   C84 8206   4.951   3.191  -0.763 -0.0246 -0.3198  0.5130
   20CHTO  H156 8207   4.981   3.149  -0.667 -1.4964 -0.8396  0.7544
   20CHTO   N15 8208   4.839   3.104  -0.809 -0.3751 -0.4424 -0.7075
   20CHTO  H143 8209   4.821   3.095  -0.914 -3.8920  2.5257 -0.4587
   20CHTO  H144 8210   4.749   3.121  -0.754 -1.0023 -1.9000 -1.2681
   20CHTO   C87 8211   4.901   3.340  -0.748 -0.3228  0.0515 -0.3172
   20CHTO  H159 8212   4.841   3.364  -0.836 -0.9135  1.3803  0.4457
   20CHTO   O53 8213   5.017   3.441  -0.730  0.1776  0.4502  0.2363
   20CHTO   C82 8214   5.111   3.430  -0.841  0.4112 -0.6155 -0.0057
   20CHTO  H154 8215   5.059   3.442  -0.936  0.3294 -1.6648 -0.1078
   20CHTO   C89 8216   5.203   3.550  -0.817  0.9336  0.7468  0.5914
   20CHTO   O59 8217   5.286   3.580  -0.931  0.4650 -0.0442 -0.5485
   20CHTO  H137 8218   5.244   3.557  -1.011 -1.3072  1.6872 -0.1575
   20CHTO   O45 8219   4.805   3.361  -0.624  0.2912  0.3354  0.1506
   20CHTO   C67 8220   4.852   3.332  -0.491 -0.1761  0.3037  0.1723
   20CHTO  H124 8221   4.912   3.241  -0.494  1.0216  1.0431  1.5448
   20CHTO   C65 8222   4.943   3.450  -0.431  0.0475  0.5381  0.3675
   20CHTO  H122 8223   4.924   3.535  -0.495 -0.0927 -0.6220 -1.1687
   20CHTO   O44 8224   5.077   3.408  -0.463  0.3972 -0.6209 -0.3777
   20CHTO  H102 8225   5.108   3.460  -0.535  1.5616  0.0742  0.6134
   20CHTO   C63 8226   4.911   3.487  -0.281  0.8186  0.2603  0.2076
   20CHTO  H120 8227   4.820   3.548  -0.277 -0.0012 -0.7800 -1.5661
   20CHTO   N11 8228   5.003   3.591  -0.218  0.2620 -0.2810  0.1390
   20CHTO  H108 8229   4.959   3.688  -0.227  1.0503  0.0482 -0.2078
   20CHTO  H109 8230   5.089   3.617  -0.276  1.0130 -0.0321  1.3293
   20CHTO   C61 8231   4.879   3.358  -0.200 -0.4821  0.5665 -0.2387
   20CHTO  H118 8232   4.830   3.392  -0.108  0.2233 -0.7467  0.6268
   20CHTO   O40 8233   4.782   3.272  -0.262 -0.6361  0.6359 -0.2398
   20CHTO   C68 8234   4.734   3.297  -0.398  0.1024  0.1759 -0.2895
   20CHTO  H125 8235   4.673   3.389  -0.390 -3.0382 -1.7645 -0.7433
   20CHTO   C72 8236   4.637   3.185  -0.443 -0.0108 -0.3388  0.5061
   20CHTO   O48 8237   4.698   3.061  -0.436  0.6555 -0.6229 -0.1337
   20CHTO  H105 8238   4.644   2.997  -0.479 -2.5408  1.2169  0.9888
   20CHTO   O38 8239   4.993   3.276  -0.166  0.3161  0.0174 -0.3896
   20CHTO   C55 8240   4.968   3.205  -0.036  0.2082 -0.7344  0.6938
   20CHTO  H112 8241   4.859   3.196  -0.025  0.0342 -1.2680 -1.2534
   20CHTO   C56 8242   5.039   3.279   0.081 -0.1272  0.3685  0.2251
   20CHTO  H113 8243   5.145   3.287   0.053 -0.4162  1.7499 -0.5175
   20CHTO   O42 8244   4.983   3.410   0.088 -0.3784 -0.1016 -0.1988
   20CHTO  H100 8245   4.890   3.411   0.082 -0.4257 -2.0576  0.0781
   20CHTO   C57 8246   5.010   3.195   0.216 -0.0882  0.3745  0.1393
   20CHTO  H114 8247   4.906   3.214   0.243 -0.1161 -0.9518  0.9977
   20CHTO   N10 8248   5.096   3.248   0.326 -0.0592  0.3451  0.4301
   20CHTO  H106 8249   5.062   3.224   0.425  1.0212 -2.1793  0.2298
   20CHTO  H107 8250   5.142   3.345   0.317  0.2810  0.1326 -0.1702
   20CHTO   C58 8251   5.035   3.045   0.200 -0.4064  0.6183  0.3796
   20CHTO  H115 8252   5.144   3.031   0.181 -0.2871  3.1491 -1.0679
   20CHTO   O37 8253   4.972   2.988   0.080  0.0487 -0.0773  0.2630
   20CHTO   C59 8254   5.017   3.052  -0.041 -0.9151  0.3997 -0.5352
   20CHTO  H116 8255   5.125   3.039  -0.052 -0.7111  0.6956  1.0337
   20CHTO   C70 8256   4.950   2.980  -0.159  0.8740 -0.1442  0.2146
   20CHTO   O46 8257   5.013   2.859  -0.189  0.2330  0.2884 -0.9582
   20CHTO  H103 8258   5.089   2.884  -0.238 -0.6868  1.4326 -1.8282
   20CHTO   O39 8259   4.985   2.971   0.316 -0.3528 -0.0430  0.3604
   20CHTO   C60 8260   5.073   2.869   0.367  0.3455 -0.2112 -0.4531
   20CHTO  H117 8261   5.126   2.823   0.284 -0.1254  1.5693 -1.7716
   20CHTO   C62 8262   5.183   2.929   0.462  0.3070 -0.1045 -0.0270
   20CHTO  H119 8263   5.236   3.001   0.396 -0.3047  0.1230 -0.2763
   20CHTO   O43 8264   5.133   3.003   0.574  0.3367  0.1610  0.1896
   20CHTO  H101 8265   5.053   2.972   0.612 -1.2990  1.2667 -2.1909
   20CHTO   C66 8266   5.287   2.806   0.509  0.2343 -0.3954  0.5138
   20CHTO  H123 8267   5.315   2.752   0.419  1.8852 -2.4199  2.1875
   20CHTO   N12 8268   5.414   2.850   0.570  0.0334 -0.4852 -0.4261
   20CHTO  H110 8269   5.391   2.901   0.663  0.9511 -1.0481  0.1220
   20CHTO  H111 8270   5.463   2.915   0.499 -0.8312  0.9551  0.2606
   20CHTO   C69 8271   5.207   2.698   0.590  0.0198  0.2683  0.1748
   20CHTO  H126 8272   5.165   2.747   0.681 -0.2192 -1.2105  0.8727
   20CHTO   O41 8273   5.089   2.653   0.494 -0.0563  0.4335  0.7201
   20CHTO   C64 8274   4.990   2.755   0.445 -0.4046 -0.0813 -0.6377
   20CHTO  H121 8275   4.940   2.798   0.534  2.6190 -0.3215  1.2343
   20CHTO   C71 8276   4.888   2.690   0.352  0.5775  0.3001 -0.2740
   20CHTO   O47 8277   4.768   2.768   0.362 -0.2968 -0.1397 -0.0387
   20CHTO  H104 8278   4.767   2.810   0.445 -1.0123  0.3316 -0.2782
   20CHTO   O34 8279   5.273   2.582   0.634 -0.2803 -0.4429 -0.3481
   20CHTO   C49 8280   5.231   2.443   0.690 -0.5311  0.2443 -0.1942
   20CHTO   H91 8281   5.153   2.389   0.637  1.1725 -4.4656  1.7744
   20CHTO   C47 8282   5.161   2.461   0.830 -0.2692 -0.6007  0.1316
   20CHTO   H89 8283   5.065   2.506   0.798 -0.7964 -1.0352  1.0978
   20CHTO   O33 8284   5.231   2.555   0.912 -0.2636 -0.1816 -0.9056
   20CHTO   H70 8285   5.277   2.628   0.874 -0.2761 -0.3711 -1.2832
   20CHTO   C45 8286   5.146   2.319   0.910  0.4342 -0.1232 -0.9630
   20CHTO   H87 8287   5.228   2.312   0.984 -1.0117  1.5015  0.8340
   20CHTO    N8 8288   5.018   2.320   0.989 -0.1076 -0.4018  0.1752
   20CHTO   H75 8289   4.928   2.302   0.933  0.3792  1.8487 -1.4180
   20CHTO   H76 8290   5.021   2.242   1.063 -1.2792 -2.7175 -2.1424
   20CHTO   C43 8291   5.161   2.200   0.810  0.9682 -0.7052  0.0005
   20CHTO   H85 8292   5.147   2.111   0.872 -0.4782 -0.5646 -0.1120
   20CHTO   O29 8293   5.290   2.209   0.749 -0.6419  0.5090  0.7852
   20CHTO   C50 8294   5.339   2.342   0.709  0.4950  0.4954  0.1232
   20CHTO   H92 8295   5.417   2.367   0.782  2.1664 -0.4641 -1.3025
   20CHTO   C54 8296   5.407   2.316   0.564  0.0029  0.6496  0.4460
   20CHTO   O36 8297   5.483   2.432   0.534 -0.0315 -0.1248 -0.3284
   20CHTO   H72 8298   5.565   2.447   0.576 -0.5351  1.4127  0.1566
   20CHTO   O27 8299   5.051   2.195   0.709  0.0813  0.2238 -0.5785
   20CHTO   C37 8300   4.955   2.144   0.613 -0.0570  0.4522 -0.5659
   20CHTO   H79 8301   4.853   2.141   0.655 -0.0257 -1.6155 -0.6014
   20CHTO   C38 8302   4.942   2.233   0.487 -0.1319  0.1197 -0.2918
   20CHTO   H80 8303   5.045   2.257   0.457  0.7873 -1.3454  1.5090
   20CHTO   O31 8304   4.860   2.351   0.528  0.2715  0.5332 -0.1719
   20CHTO   H68 8305   4.772   2.327   0.508  0.5383 -2.0116  1.4893
   20CHTO   C39 8306   4.867   2.166   0.367  0.0228 -0.9122  0.5159
   20CHTO   H81 8307   4.763   2.156   0.399  0.0705  0.5905  1.1734
   20CHTO    N7 8308   4.865   2.246   0.239 -0.2428  0.3656 -0.0264
   20CHTO   H73 8309   4.838   2.349   0.255 -1.1471  0.5447 -2.4921
   20CHTO   H74 8310   4.963   2.249   0.193 -0.6001 -0.7729 -0.8969
   20CHTO   C40 8311   4.934   2.026   0.351  0.2722 -1.0472  0.6613
   20CHTO   H82 8312   5.040   2.028   0.329  0.0030 -0.4661 -0.6532
   20CHTO   O26 8313   4.903   1.950   0.467 -0.1633 -0.1013  0.4114
   20CHTO   C41 8314   4.994   1.997   0.570  0.0995  0.0731  0.4454
   20CHTO   H83 8315   5.095   1.989   0.526  0.9380  1.0831  2.1078
   20CHTO   C52 8316   4.992   1.912   0.689 -0.3300 -0.1583 -0.2142
   20CHTO   O35 8317   5.018   1.755   0.651 -0.3717  0.1290  0.1875
   20CHTO   H71 8318   5.103   1.748   0.610  0.2831 -1.2461  1.7341
   20CHTO   O28 8319   4.853   1.938   0.268 -0.2020  0.4446 -0.3196
   20CHTO   C42 8320   4.920   1.836   0.195  0.1939 -0.1190 -0.2937
   20CHTO   H84 8321   4.842   1.768   0.162  0.4998 -1.2879  1.3725
   20CHTO   C44 8322   5.012   1.742   0.278 -0.4501 -0.1506 -0.0140
   20CHTO   H86 8323   5.085   1.798   0.336  1.3959 -0.8655 -1.6146
   20CHTO   O32 8324   4.928   1.678   0.381  0.2935 -0.3168 -0.1997
   20CHTO   H69 8325   4.964   1.642   0.460 -1.2586  3.0927  2.1775
   20CHTO   C48 8326   5.088   1.637   0.199 -1.0865  0.1871  0.0974
   20CHTO   H90 8327   5.011   1.570   0.161 -0.1823 -0.0712 -1.3393
   20CHTO    N9 8328   5.182   1.551   0.290  0.0759 -1.0180 -0.4690
   20CHTO   H77 8329   5.123   1.509   0.370  0.3962  1.0056  0.8614
   20CHTO   H78 8330   5.234   1.479   0.228  1.7600 -0.2820  0.0616
   20CHTO   C51 8331   5.164   1.712   0.080  0.9097  0.0730  0.0299
   20CHTO   H93 8332   5.224   1.785   0.134 -0.7139  0.3795  1.4553
   20CHTO   O30 8333   5.069   1.781  -0.005 -0.0959 -0.0763  0.0243
   20CHTO   C46 8334   4.984   1.894   0.066 -0.0964  0.3009  0.2881
   20CHTO   H88 8335   5.054   1.968   0.104  0.0905  1.2408 -1.7970
   20CHTO   C53 8336   4.889   1.965  -0.029 -0.1806  0.3675 -0.3431
   20CHTO   O72 8337   4.969   2.019  -0.131  0.1679  0.1277 -0.7639
   20CHTO  H199 8338   4.907   2.038  -0.199  0.0845  1.3276 -0.3645
   20CHTO   O22 8339   5.227   1.614  -0.009 -0.4422 -0.1193  0.1275
   20CHTO   C31 8340   5.371   1.592  -0.046 -0.0688 -0.2075  0.1375
   20CHTO   H59 8341   5.381   1.561  -0.152 -0.2733  1.5630 -0.4045
   20CHTO   C29 8342   5.461   1.719  -0.026 -0.2491  0.1229 -0.1562
   20CHTO   H57 8343   5.457   1.740   0.082 -2.0944 -1.1588  0.0588
   20CHTO   O21 8344   5.395   1.832  -0.094 -0.1139 -0.3377 -0.0222
   20CHTO   H37 8345   5.330   1.878  -0.045 -1.3933 -1.6474 -0.4258
   20CHTO   C27 8346   5.610   1.692  -0.071  0.8916 -0.1539  0.3290
   20CHTO   H55 8347   5.614   1.692  -0.181 -0.1622 -1.1451  0.2740
   20CHTO    N5 8348   5.707   1.797  -0.020 -0.6695 -0.4000 -0.2514
   20CHTO   H43 8349   5.697   1.797   0.087 -1.1685  1.3839 -0.2752
   20CHTO   H44 8350   5.679   1.895  -0.059  0.1322 -1.7153 -4.4578
   20CHTO   C25 8351   5.665   1.558  -0.011  0.3752  0.0442 -0.5252
   20CHTO   H53 8352   5.685   1.574   0.096 -1.2993  0.7810 -0.3074
   20CHTO   O17 8353   5.570   1.446  -0.019 -0.2163  0.1168 -0.0486
   20CHTO   C32 8354   5.437   1.468   0.030 -0.1484 -0.4879 -0.0962
   20CHTO   H60 8355   5.440   1.487   0.138  0.9078  1.2869 -0.4092
   20CHTO   C36 8356   5.374   1.321   0.020 -0.2989 -0.0556 -0.5565
   20CHTO   O25 8357   5.344   1.273  -0.115 -0.3340  0.2897 -0.2140
   20CHTO   H40 8358   5.260   1.233  -0.118  0.0375 -0.3962 -1.9384
   20CHTO   O15 8359   5.797   1.519  -0.091  0.4071 -0.1311 -0.5161
   20CHTO   C19 8360   5.924   1.514  -0.160  0.2267 -0.8969  0.0110
   20CHTO   H47 8361   5.932   1.594  -0.235  1.7911  0.2824  1.3799
   20CHTO   C20 8362   6.043   1.536  -0.064  0.4688 -0.0075  0.4460
   20CHTO   H48 8363   6.058   1.454   0.007  1.3135 -2.4451 -2.4530
   20CHTO   O19 8364   6.026   1.660   0.007 -0.7900  0.1280  0.2327
   20CHTO   H35 8365   6.022   1.732  -0.052  1.4503  1.3535  1.4888
   20CHTO   C21 8366   6.173   1.546  -0.155 -0.4222  0.5362  0.3749
   20CHTO   H49 8367   6.166   1.625  -0.229 -2.7683  0.5496  0.5988
   20CHTO    N4 8368   6.298   1.572  -0.080 -0.1111 -0.1580  0.0387
   20CHTO   H41 8369   6.342   1.664  -0.115 -0.4158  0.2369  0.6801
   20CHTO   H42 8370   6.365   1.488  -0.091 -0.1562 -0.1664 -0.1827
   20CHTO   C22 8371   6.180   1.408  -0.233 -0.2802 -0.5562  0.4570
   20CHTO   H50 8372   6.197   1.322  -0.168  2.0131 -0.6146 -0.1467
   20CHTO   O14 8373   6.066   1.390  -0.306  0.1371 -0.1637  0.4170
   20CHTO   C23 8374   5.946   1.374  -0.231  0.1118 -0.8643 -0.0089
   20CHTO   H51 8375   5.957   1.293  -0.157 -1.3058 -0.4829  0.6295
   20CHTO   C34 8376   5.835   1.350  -0.327 -0.1660 -0.4549 -0.4199
   20CHTO   O23 8377   5.715   1.303  -0.263  0.0297 -0.0206 -0.3548
   20CHTO   H38 8378   5.662   1.375  -0.235 -0.5697 -0.7933  0.5198
   20CHTO   O16 8379   6.278   1.420  -0.337  0.0057 -0.2814 -0.1769
   20CHTO   C24 8380   6.345   1.286  -0.380  0.0507  0.1116  0.2446
   20CHTO   H52 8381   6.287   1.198  -0.352  1.5885 -0.9529  0.1797
   20CHTO   C26 8382   6.481   1.261  -0.319 -0.0043 -0.3764 -0.8795
   20CHTO   H54 8383   6.542   1.352  -0.338 -0.2688 -0.1474 -0.6288
   20CHTO   O20 8384   6.466   1.254  -0.180 -0.3869  1.0575 -0.2986
   20CHTO   H36 8385   6.513   1.324  -0.139 -0.5660  0.2420  1.3558
   20CHTO   C30 8386   6.553   1.133  -0.366  0.1454  0.4818 -0.6004
   20CHTO   H58 8387   6.539   1.053  -0.293 -0.6250 -2.1011 -3.4635
   20CHTO    N6 8388   6.700   1.156  -0.381 -0.4179  0.3064 -0.6219
   20CHTO   H45 8389   6.738   1.243  -0.329 -0.5031  0.4984 -0.8778
   20CHTO   H46 8390   6.763   1.071  -0.359  0.8544  1.1267 -1.0423
   20CHTO   C33 8391   6.479   1.073  -0.492  0.4015  0.1044 -0.7657
   20CHTO   H61 8392   6.544   1.000  -0.541  0.1464 -0.2343 -0.6004
   20CHTO   O18 8393   6.452   1.178  -0.589 -0.4550 -1.3676  0.0243
   20CHTO   C28 8394   6.363   1.279  -0.536  0.4616  0.0904 -0.7986
   20CHTO   H56 8395   6.399   1.377  -0.566 -2.6204  1.0974 -1.3455
   20CHTO   C35 8396   6.230   1.268  -0.604 -0.1629  0.5915 -0.0931
   20CHTO   O24 8397   6.239   1.289  -0.745  0.3757 -0.5843 -0.1600
   20CHTO   H39 8398   6.148   1.302  -0.763  0.6077  2.3526  0.5410
   20CHTO    O9 8399   6.358   0.997  -0.456  0.4408 -0.1190 -0.4520
   20CHTO   C13 8400   6.359   0.862  -0.376  0.5431 -0.2975 -0.0996
   20CHTO   H26 8401   6.426   0.875  -0.289  0.7754  3.6903 -0.7615
   20CHTO   C11 8402   6.392   0.744  -0.468 -0.7420  0.2601  0.2869
   20CHTO   H24 8403   6.488   0.771  -0.515 -1.3984  0.7590 -0.7698
   20CHTO    O8 8404   6.299   0.728  -0.568  0.0438  0.0858  0.2233
   20CHTO    H3 8405   6.212   0.748  -0.540  0.2647  1.6752 -0.2213
   20CHTO    C9 8406   6.417   0.620  -0.369 -0.2509  0.0801  0.6956
   20CHTO   H22 8407   6.478   0.659  -0.286  2.0591  0.3795 -1.0903
   20CHTO    N2 8408   6.499   0.510  -0.428 -0.0778 -0.1002  0.2164
   20CHTO   H10 8409   6.483   0.477  -0.530  1.7249 -1.6227  0.3909
   20CHTO   H11 8410   6.600   0.497  -0.392 -0.6359 -3.3327  0.8047
   20CHTO    C7 8411   6.277   0.580  -0.304  0.9736  0.4028  0.7610
   20CHTO   H20 8412   6.300   0.503  -0.227 -0.1613 -2.6587 -1.8249
   20CHTO    O4 8413   6.216   0.693  -0.238  0.3322  0.2765 -0.0740
   20CHTO   C14 8414   6.219   0.830  -0.295 -0.0821  0.5768 -0.0829
   20CHTO   H27 8415   6.212   0.895  -0.205  0.4999 -0.4148  0.6870
   20CHTO   C18 8416   6.100   0.870  -0.388 -0.0243 -0.8312 -0.3757
   20CHTO   O13 8417   5.985   0.912  -0.314  0.5149  0.6691 -0.4587
   20CHTO    H7 8418   5.906   0.885  -0.358 -0.0339  3.3317 -1.2477
   20CHTO    O2 8419   6.168   0.519  -0.397  0.5074 -0.6016  0.1231
   20CHTO    C1 8420   6.073   0.433  -0.333  0.5294  0.6265 -0.7709
   20CHTO   H14 8421   6.072   0.459  -0.225 -0.6220  1.0862 -0.8805
   20CHTO    C2 8422   6.111   0.275  -0.348 -0.8859  0.5713 -0.4540
   20CHTO   H15 8423   6.095   0.244  -0.452 -1.0146 -0.9124 -0.0086
   20CHTO    O6 8424   6.248   0.259  -0.307 -0.3308  0.0991 -0.7108
   20CHTO    H1 8425   6.260   0.276  -0.215  0.5038  0.0608 -0.8064
   20CHTO    C3 8426   6.009   0.185  -0.269 -0.0886  0.4477 -0.0129
   20CHTO   H16 8427   6.013   0.217  -0.164 -1.4376 -1.0831  0.5175
   20CHTO    N1 8428   6.045   0.042  -0.269 -0.4356 -0.8976 -0.1595
   20CHTO    H8 8429   6.056   0.018  -0.374 -1.6346 -0.0773 -0.4811
   20CHTO    H9 8430   5.967  -0.027  -0.241 -0.3013 -1.4513 -1.0926
   20CHTO    C4 8431   5.860   0.218  -0.323  0.5141 -1.0719  0.5016
   20CHTO   H17 8432   5.846   0.182  -0.425 -0.8625 -0.0508  0.3072
   20CHTO    O1 8433   5.832   0.360  -0.316  0.0597  0.1221  0.3030
   20CHTO    C5 8434   5.926   0.446  -0.383 -0.1077 -0.1388 -0.7671
   20CHTO   H18 8435   5.933   0.425  -0.490  1.6944 -1.8429 -0.3491
   20CHTO   C16 8436   5.870   0.591  -0.369 -0.4467 -0.1142  0.8577
   20CHTO   O11 8437   5.786   0.646  -0.471 -0.0962 -0.4487 -0.1856
   20CHTO    H5 8438   5.721   0.583  -0.498 -1.3629  0.5637  0.4460
   20CHTO    O3 8439   5.765   0.165  -0.231  0.3983 -0.0825 -0.2272
   20CHTO    C6 8440   5.632   0.158  -0.294  0.1647 -0.5279  0.3635
   20CHTO   H19 8441   5.626   0.212  -0.389 -0.3620 -0.2266  0.5647
   20CHTO    C8 8442   5.585   0.014  -0.325  0.1684 -0.5226 -0.4363
   20CHTO   H21 8443   5.589  -0.044  -0.233 -1.6678  1.7621  1.1570
   20CHTO    O7 8444   5.666  -0.046  -0.429  0.3460 -0.3917 -0.0182
   20CHTO    H2 8445   5.622  -0.042  -0.512  0.3992  0.2695 -0.0167
   20CHTO   C12 8446   5.434   0.009  -0.363 -0.6686 -0.6607 -0.5451
   20CHTO   H25 8447   5.425   0.052  -0.465 -0.2624  0.0248 -0.2943
   20CHTO    N3 8448   5.390  -0.135  -0.364 -0.1145 -0.2983 -0.0454
   20CHTO   H12 8449   5.441  -0.195  -0.438  0.2849 -1.6281  1.3006
   20CHTO   H13 8450   5.419  -0.186  -0.274  2.0308  1.0483  0.0553
   20CHTO   C15 8451   5.339   0.090  -0.258 -0.4225 -0.0101 -0.0510
   20CHTO   H28 8452   5.326   0.044  -0.161 -1.1123 -0.1693 -0.2146
   20CHTO   O10 8453   5.205   0.128  -0.320  0.1423  0.1463 -0.1453
   20CHTO    H4 8454   5.165   0.048  -0.348  1.2003  0.3725 -2.4057
   20CHTO    O5 8455   5.388   0.227  -0.248  0.4663 -0.4475 -0.6091
   20CHTO   C10 8456   5.527   0.218  -0.202 -0.3281  0.0284 -0.0861
   20CHTO   H23 8457   5.520   0.170  -0.105 -1.6928  3.0189  1.3594
   20CHTO   C17 8458   5.572   0.363  -0.167  0.3861  0.0072  0.4166
   20CHTO   O12 8459   5.493   0.428  -0.067  0.0604 -0.6228 -0.9426
   20CHTO    H6 8460   5.407   0.426  -0.105 -0.1310 -3.4503 -0.5108
   21GLOH   H03 8461   3.929   0.082   1.475  0.9840  0.2904  0.7142
   21GLOH    O1 8462   3.950   0.134   1.395 -0.5338 -0.6011 -0.2841
   21GLOH    C1 8463   3.838   0.127   1.306  0.2485 -0.3458  0.2374
   21GLOH   H02 8464   3.829   0.225   1.258 -0.0729  0.1862  1.3731
   21GLOH   H08 8465   3.744   0.103   1.355 -0.6330 -0.0902 -1.3046
   21GLOH    C2 8466   3.843   0.022   1.199  0.1731  0.1501 -0.1568
   21GLOH   H04 8467   3.756   0.049   1.137  0.8518  1.2244 -0.6607
   21GLOH    O2 8468   3.959   0.035   1.113  0.4657 -0.3159  0.0794
   21GLOH   H05 8469   4.038   0.046   1.169  0.1565  2.0133  0.1051
   21GLOH    C3 8470   3.804  -0.118   1.244 -0.4300  0.1823  0.3660
   21GLOH   H06 8471   3.876  -0.145   1.321  0.3740  1.9393  0.2448
   21GLOH   H07 8472   3.818  -0.189   1.163 -0.1131 -0.3794  0.9073
   21GLOH    O3 8473   3.662  -0.133   1.290  0.0620 -0.0524 -0.3515
   21GLOH   H01 8474   3.610  -0.087   1.221 -0.2374  0.9154  0.4918
   22GLOH   H03 8475   4.196   1.669   1.120  0.2634  2.5371 -0.2127
   22GLOH    O1 8476   4.162   1.666   1.029 -0.0604  0.3357 -0.0570
   22GLOH    C1 8477   4.018   1.676   1.034 -0.4155 -0.4757 -0.1091
   22GLOH   H02 8478   3.982   1.599   1.102  0.1680  0.5255  1.3752
   22GLOH   H08 8479   3.982   1.670   0.932  0.6789  1.0751 -0.6119
   22GLOH    C2 8480   3.977   1.821   1.090 -0.0319  0.0061 -0.4419
   22GLOH   H04 8481   3.987   1.892   1.006 -1.2537  1.2705  0.4594
   22GLOH    O2 8482   3.837   1.823   1.112 -0.2404 -0.0772  0.3800
   22GLOH   H05 8483   3.791   1.809   1.028 -0.8382  1.0752  0.5086
   22GLOH    C3 8484   4.063   1.884   1.206  0.0139  0.2409 -0.4189
   22GLOH   H06 8485   4.167   1.880   1.173  0.6972  1.4084  1.5211
   22GLOH   H07 8486   4.052   1.828   1.298 -0.1320  1.1301  0.1112
   22GLOH    O3 8487   4.017   2.025   1.219 -0.1943 -0.2943  0.0085
   22GLOH   H01 8488   4.011   2.043   1.315 -0.2441  1.9308 -0.3755
   23GLOH   H03 8489   3.204   7.567   1.145 -2.8754  1.9311 -1.3879
   23GLOH    O1 8490   3.143   7.558   1.221 -0.7609  0.2001  0.1426
   23GLOH    C1 8491   3.222   7.533   1.344  0.2452 -0.3723 -0.2070
   23GLOH   H02 8492   3.327   7.553   1.324 -0.0092  2.6254  1.1490
   23GLOH   H08 8493   3.225   7.427   1.369 -0.1789 -0.1213  0.9096
   23GLOH    C2 8494   3.173   7.598   1.474 -0.2745  0.2395  0.5638
   23GLOH   H04 8495   3.224   7.548   1.558 -0.3676 -1.3137 -0.2747
   23GLOH    O2 8496   3.218   7.728   1.479  0.3898  0.3025  1.0287
   23GLOH   H05 8497   3.199   7.749   1.572  0.2190 -1.5460  1.4283
   23GLOH    C3 8498   3.021   7.585   1.476 -0.1656  0.0232 -0.6121
   23GLOH   H06 8499   2.989   7.482   1.464 -0.5314 -0.0169  0.6765
   23GLOH   H07 8500   2.982   7.647   1.395 -0.2079 -0.7493 -1.1824
   23GLOH    O3 8501   2.969   7.628   1.611  0.2243 -0.2520 -0.2321
   23GLOH   H01 8502   2.925   7.715   1.608  0.2608 -0.1406  1.7658
   24GLOH   H03 8503   4.252   0.533   1.013 -1.1717  3.2855  0.1940
   24GLOH    O1 8504   4.264   0.531   1.110  0.1114  0.3369  0.0276
   24GLOH    C1 8505   4.264   0.392   1.165 -0.6004 -0.3470 -0.2830
   24GLOH   H02 8506   4.301   0.410   1.266 -0.7391 -0.7220 -0.1631
   24GLOH   H08 8507   4.327   0.322   1.110 -1.1786  0.1308 -1.5623
   24GLOH    C2 8508   4.125   0.339   1.182 -0.3535  0.7390  0.2713
   24GLOH   H04 8509   4.081   0.350   1.082 -1.5178  0.2461  0.7201
   24GLOH    O2 8510   4.121   0.200   1.219 -0.4715 -0.8010 -0.6139
   24GLOH   H05 8511   4.068   0.177   1.297 -2.1838  1.6398 -1.0050
   24GLOH    C3 8512   4.051   0.432   1.282 -0.4978 -0.1687 -0.2746
   24GLOH   H06 8513   4.082   0.416   1.385 -1.4442 -0.9683 -0.1064
   24GLOH   H07 8514   3.949   0.397   1.275 -0.2863 -0.7846 -0.3249
   24GLOH    O3 8515   4.046   0.574   1.263  0.7762 -0.0796 -0.6470
   24GLOH   H01 8516   4.131   0.608   1.229 -0.0789  1.9295 -0.8160
   25GLOH   H03 8517   4.447   2.298   1.549 -2.7213 -0.2360 -1.4532
   25GLOH    O1 8518   4.483   2.232   1.487 -0.0525  0.2481 -0.4545
   25GLOH    C1 8519   4.548   2.292   1.373 -0.2671 -0.1221  0.1355
   25GLOH   H02 8520   4.646   2.321   1.411  0.1179 -1.2363  0.0020
   25GLOH   H08 8521   4.502   2.383   1.333 -0.8321 -0.6899 -0.5133
   25GLOH    C2 8522   4.562   2.195   1.250  0.5867 -0.5620 -0.7025
   25GLOH   H04 8523   4.459   2.160   1.239  0.1872  0.1479  0.6702
   25GLOH    O2 8524   4.610   2.267   1.134 -0.1204  0.5053  0.7024
   25GLOH   H05 8525   4.612   2.209   1.057  2.2939  1.4048  0.0443
   25GLOH    C3 8526   4.655   2.088   1.301 -0.6813  0.0752  0.2497
   25GLOH   H06 8527   4.620   2.033   1.389 -1.0682 -1.1239 -0.6293
   25GLOH   H07 8528   4.748   2.131   1.336 -1.3407  0.2308  1.8501
   25GLOH    O3 8529   4.670   1.991   1.202 -0.0438  0.6190  0.1558
   25GLOH   H01 8530   4.653   2.040   1.120  2.7689  0.3619 -0.6331
   26GLOH   H03 8531   3.752   3.237   0.153  0.1828  0.1760 -0.9547
   26GLOH    O1 8532   3.682   3.292   0.194  0.5877 -0.0743  0.0995
   26GLOH    C1 8533   3.584   3.211   0.256  0.5022 -1.3261  0.1505
   26GLOH   H02 8534   3.562   3.255   0.354  1.4533 -0.7467  0.1129
   26GLOH   H08 8535   3.621   3.111   0.278 -1.9825 -2.3169 -0.0629
   26GLOH    C2 8536   3.454   3.192   0.168  0.3663  0.4771  0.2926
   26GLOH   H04 8537   3.479   3.132   0.080 -0.3957 -0.0119  0.4067
   26GLOH    O2 8538   3.357   3.117   0.245  0.0948  0.2130  0.0376
   26GLOH   H05 8539   3.278   3.089   0.195  1.8753 -3.2121 -0.9616
   26GLOH    C3 8540   3.392   3.330   0.134 -0.0447  0.9773  0.0157
   26GLOH   H06 8541   3.373   3.368   0.235 -2.7889  2.3295 -0.9885
   26GLOH   H07 8542   3.299   3.321   0.080  0.8980  0.3563 -1.5274
   26GLOH    O3 8543   3.488   3.415   0.074 -0.4433 -0.3945  0.1292
   26GLOH   H01 8544   3.569   3.393   0.123  0.5062 -0.0770 -1.2617
   27GLOH   H03 8545   4.377   4.138   1.921 -0.7689 -0.3434  2.3232
   27GLOH    O1 8546   4.301   4.199   1.917  0.0940  0.6213 -0.5001
   27GLOH    C1 8547   4.248   4.204   2.051  0.0440 -0.5903 -0.1124
   27GLOH   H02 8548   4.258   4.305   2.090  1.2507 -1.0127  0.6812
   27GLOH   H08 8549   4.301   4.147   2.126  1.6558  0.8295 -0.1335
   27GLOH    C2 8550   4.094   4.184   2.051  0.1490  0.0895  0.4405
   27GLOH   H04 8551   4.088   4.075   2.070  1.3858 -0.3607 -1.5833
   27GLOH    O2 8552   4.036   4.239   2.179  0.0515  0.4230  0.4097
   27GLOH   H05 8553   3.939   4.236   2.169  0.2222  0.9211 -1.6819
   27GLOH    C3 8554   4.012   4.221   1.921 -0.1957  0.0558  1.0522
   27GLOH   H06 8555   4.015   4.329   1.908 -1.2214 -0.2274 -2.0590
   27GLOH   H07 8556   3.905   4.202   1.934 -0.4111  0.3380 -0.2055
   27GLOH    O3 8557   4.067   4.161   1.801  0.0615 -0.1147 -0.5935
   27GLOH   H01 8558   4.160   4.182   1.816 -0.2827 -0.5342  2.2663
   28GLOH   H03 8559   4.397   1.531   1.872  0.0937 -1.5961 -0.6403
   28GLOH    O1 8560   4.363   1.518   1.963  0.4132 -0.2624 -0.3133
   28GLOH    C1 8561   4.291   1.397   1.986  0.4981 -0.0467  0.0837
   28GLOH   H02 8562   4.332   1.355   2.078  1.6318 -2.0190 -1.2738
   28GLOH   H08 8563   4.315   1.325   1.908  1.1390  0.0517  0.1923
   28GLOH    C2 8564   4.140   1.399   1.988 -0.0614 -0.5392  0.1521
   28GLOH   H04 8565   4.103   1.429   1.889 -1.0295  0.2661  0.7493
   28GLOH    O2 8566   4.083   1.267   2.018  0.1703 -0.3053 -0.0207
   28GLOH   H05 8567   3.986   1.264   2.012 -0.0135  1.3825  1.4395
   28GLOH    C3 8568   4.096   1.499   2.098  0.7028  0.1293 -0.5632
   28GLOH   H06 8569   4.112   1.455   2.197 -0.8665 -0.3125 -0.4996
   28GLOH   H07 8570   3.992   1.516   2.072  0.8610  0.5261 -0.9395
   28GLOH    O3 8571   4.167   1.626   2.085  0.4944  0.1517  0.1489
   28GLOH   H01 8572   4.250   1.589   2.048  0.5487  0.4922 -0.0699
   29GLOH   H03 8573   3.231   0.028   0.709 -1.0273  0.2634 -1.6267
   29GLOH    O1 8574   3.275   0.115   0.711 -0.1908 -0.1727  0.3625
   29GLOH    C1 8575   3.401   0.094   0.771  0.2807  0.6126  0.0772
   29GLOH   H02 8576   3.440  -0.006   0.753  0.3996  0.0979  2.9447
   29GLOH   H08 8577   3.385   0.105   0.878  0.1134  2.5710 -0.1225
   29GLOH    C2 8578   3.517   0.188   0.733 -0.2278  0.4842 -0.0083
   29GLOH   H04 8579   3.546   0.165   0.630 -1.0795 -2.3022  0.3300
   29GLOH    O2 8580   3.483   0.326   0.727 -0.2224  0.2285  0.2514
   29GLOH   H05 8581   3.439   0.354   0.809  0.0420  0.1787  0.4078
   29GLOH    C3 8582   3.641   0.165   0.828  0.3621  0.5413  0.0278
   29GLOH   H06 8583   3.607   0.141   0.929  0.0667  0.2999 -0.1285
   29GLOH   H07 8584   3.706   0.252   0.830  0.3123  0.6484 -2.3703
   29GLOH    O3 8585   3.715   0.052   0.772  0.0823 -0.1367  0.3006
   29GLOH   H01 8586   3.803   0.069   0.811 -0.1599  3.2204 -0.4318
   30GLOH   H03 8587   4.080   3.940   2.319 -0.6651 -1.0838 -1.5609
   30GLOH    O1 8588   4.150   3.873   2.325  0.1158 -0.2002 -0.3667
   30GLOH    C1 8589   4.159   3.799   2.450 -0.6946 -0.3844  0.8026
   30GLOH   H02 8590   4.177   3.865   2.535 -1.0206  0.0584  0.5278
   30GLOH   H08 8591   4.247   3.734   2.441  1.9308  3.3087 -1.4007
   30GLOH    C2 8592   4.023   3.743   2.492 -0.3130  0.7396 -0.7417
   30GLOH   H04 8593   3.972   3.695   2.407 -1.1832  1.0446 -0.4009
   30GLOH    O2 8594   4.052   3.647   2.597  0.2354 -0.5382  0.2092
   30GLOH   H05 8595   4.099   3.574   2.554  0.6921  1.6400 -3.1452
   30GLOH    C3 8596   3.926   3.848   2.540  0.0373 -0.1426 -0.0547
   30GLOH   H06 8597   3.944   3.873   2.645  0.7314 -0.3635 -0.1222
   30GLOH   H07 8598   3.821   3.817   2.536 -0.0711  0.2550 -0.3580
   30GLOH    O3 8599   3.940   3.956   2.452 -0.2560 -0.3400  0.4257
   30GLOH   H01 8600   3.914   4.033   2.505 -1.1749 -1.3173  1.4181
   31GLOH   H03 8601   4.671   2.492   1.749  0.5239 -0.1788 -0.0528
   31GLOH    O1 8602   4.707   2.531   1.668  0.1381 -0.1727 -0.2218
   31GLOH    C1 8603   4.653   2.659   1.653  0.2750 -0.1734  1.2820
   31GLOH   H02 8604   4.546   2.655   1.672  0.2502  0.8190  1.3497
   31GLOH   H08 8605   4.673   2.695   1.552 -1.1875  0.5310  1.2394
   31GLOH    C2 8606   4.706   2.772   1.742  0.0168  0.0442 -0.6723
   31GLOH   H04 8607   4.669   2.867   1.702 -1.3465  0.0854  0.6744
   31GLOH    O2 8608   4.659   2.745   1.881 -0.6090  0.5092 -0.0429
   31GLOH   H05 8609   4.663   2.649   1.896 -0.6337  0.6186  0.6667
   31GLOH    C3 8610   4.858   2.784   1.749  0.5091  0.6413 -0.3001
   31GLOH   H06 8611   4.895   2.689   1.788  2.9961  1.3423 -0.8648
   31GLOH   H07 8612   4.885   2.854   1.829  2.1790 -1.1802  0.7935
   31GLOH    O3 8613   4.906   2.808   1.618 -0.2064 -0.7092  0.4697
   31GLOH   H01 8614   4.871   2.741   1.556 -0.5432  1.3198 -1.5688
   32GLOH   H03 8615   3.697   2.276   2.173  3.7804  1.5657 -3.6245
   32GLOH    O1 8616   3.630   2.236   2.114  0.7208  0.1508  0.5345
   32GLOH    C1 8617   3.634   2.097   2.134 -0.6627  0.1057 -0.1969
   32GLOH   H02 8618   3.699   2.069   2.217  0.6559 -2.2934 -1.9729
   32GLOH   H08 8619   3.689   2.054   2.050  0.4261 -1.4996  1.2987
   32GLOH    C2 8620   3.494   2.033   2.143 -0.3778  0.4155 -0.6998
   32GLOH   H04 8621   3.422   2.066   2.066 -0.7597 -0.5652 -0.7706
   32GLOH    O2 8622   3.509   1.887   2.124 -0.1734 -0.9046  0.0002
   32GLOH   H05 8623   3.441   1.844   2.069  0.8230 -2.5990  0.0475
   32GLOH    C3 8624   3.425   2.077   2.269 -0.0338  0.4824  0.1910
   32GLOH   H06 8625   3.417   2.185   2.260  1.2753  0.5307 -0.4084
   32GLOH   H07 8626   3.482   2.065   2.361  0.2389 -2.4510 -0.2851
   32GLOH    O3 8627   3.297   2.009   2.272  0.6070 -0.7122 -0.2599
   32GLOH   H01 8628   3.311   1.926   2.224 -1.9768 -0.3625 -1.6842
   33GLOH   H03 8629   2.813   6.990   2.409 -0.9871  0.1858 -1.3431
   33GLOH    O1 8630   2.801   7.081   2.443  0.6193 -0.1699  0.2491
   33GLOH    C1 8631   2.668   7.130   2.470  0.4346 -0.2566 -0.0521
   33GLOH   H02 8632   2.670   7.227   2.519  1.1657  0.0395 -0.6681
   33GLOH   H08 8633   2.617   7.064   2.539  0.0841  0.1316  0.0637
   33GLOH    C2 8634   2.585   7.139   2.339  0.2696  0.1512  0.2762
   33GLOH   H04 8635   2.656   7.165   2.259  1.3887 -2.3488  0.4113
   33GLOH    O2 8636   2.514   7.018   2.315  0.9195 -0.2386 -0.3573
   33GLOH   H05 8637   2.533   6.986   2.225  0.5767 -1.3504 -0.0422
   33GLOH    C3 8638   2.483   7.252   2.363 -0.1658 -0.2302 -0.5556
   33GLOH   H06 8639   2.428   7.234   2.455  2.0075 -1.7382  0.4814
   33GLOH   H07 8640   2.404   7.246   2.288 -0.5783 -0.1599 -0.1268
   33GLOH    O3 8641   2.546   7.381   2.372 -0.6048 -0.2506 -0.1903
   33GLOH   H01 8642   2.478   7.444   2.400 -2.5011 -1.6693 -1.4272
   34GLOH   H03 8643   2.947   6.058   2.066 -0.5671 -1.4266  0.2400
   34GLOH    O1 8644   2.907   6.065   1.978  0.3282 -0.8216 -0.1253
   34GLOH    C1 8645   2.907   6.206   1.940  0.2767  0.8636 -0.0698
   34GLOH   H02 8646   2.887   6.229   1.836  0.6553 -1.6205 -0.7253
   34GLOH   H08 8647   3.011   6.234   1.959  0.4014 -0.4273  1.2592
   34GLOH    C2 8648   2.829   6.301   2.038  0.1959 -0.1206  0.3995
   34GLOH   H04 8649   2.882   6.295   2.134  1.1625  0.3597 -0.0991
   34GLOH    O2 8650   2.852   6.431   1.979  0.4307  0.0807  0.1368
   34GLOH   H05 8651   2.836   6.444   1.884  0.1477  1.6906  0.3871
   34GLOH    C3 8652   2.680   6.261   2.043  0.5419  0.1593 -0.6163
   34GLOH   H06 8653   2.672   6.154   2.061  0.3106  0.5038  1.4147
   34GLOH   H07 8654   2.640   6.276   1.942  3.0764  0.8364 -1.5667
   34GLOH    O3 8655   2.612   6.336   2.147 -0.1017  0.3618 -0.4104
   34GLOH   H01 8656   2.556   6.394   2.092 -1.6618 -0.7924 -0.0636
   35GLOH   H03 8657   2.843   6.260   0.651  1.9974  0.5629  1.9467
   35GLOH    O1 8658   2.796   6.346   0.652  0.5473 -0.1617  0.0762
   35GLOH    C1 8659   2.748   6.387   0.783  0.3053 -0.5123 -0.4427
   35GLOH   H02 8660   2.823   6.439   0.842  0.1819 -0.5972 -0.2093
   35GLOH   H08 8661   2.714   6.298   0.837  1.7545 -1.3817 -0.9322
   35GLOH    C2 8662   2.631   6.488   0.760 -0.0199  0.8291  0.5737
   35GLOH   H04 8663   2.544   6.433   0.721  0.9023 -0.1285 -0.1596
   35GLOH    O2 8664   2.581   6.545   0.881  0.5383  0.2901 -0.0759
   35GLOH   H05 8665   2.502   6.498   0.913 -0.1798  0.8195 -1.0430
   35GLOH    C3 8666   2.674   6.589   0.658  0.1024 -0.2472  0.1801
   35GLOH   H06 8667   2.766   6.638   0.690  0.1519 -1.1375  1.4745
   35GLOH   H07 8668   2.610   6.675   0.644 -0.5548 -0.9508 -1.1975
   35GLOH    O3 8669   2.693   6.544   0.522  0.5775  0.7593 -0.1629
   35GLOH   H01 8670   2.745   6.462   0.533 -1.0715 -0.3154 -0.2941
   36GLOH   H03 8671   3.499   9.077   0.949  0.1756 -0.7057  0.1308
   36GLOH    O1 8672   3.507   9.088   0.852 -0.3321  0.5085  0.2267
   36GLOH    C1 8673   3.600   8.981   0.795  0.1810 -0.8528  0.7955
   36GLOH   H02 8674   3.568   8.882   0.826 -1.6904 -0.0137  1.6055
   36GLOH   H08 8675   3.701   9.006   0.827  0.1041  0.7690 -0.1326
   36GLOH    C2 8676   3.590   8.998   0.639  0.1797  0.2240 -0.3087
   36GLOH   H04 8677   3.634   9.092   0.604 -0.1290  1.0974  1.6125
   36GLOH    O2 8678   3.664   8.897   0.574 -0.8278  0.2285 -0.2138
   36GLOH   H05 8679   3.640   8.811   0.612 -1.4503  1.6041  2.6707
   36GLOH    C3 8680   3.441   9.010   0.590 -0.4999  0.2110  0.2339
   36GLOH   H06 8681   3.391   9.094   0.638  2.4934  1.6987  0.8578
   36GLOH   H07 8682   3.392   8.914   0.605  2.5742 -1.6946 -1.2791
   36GLOH    O3 8683   3.429   9.030   0.445  1.0362  0.4600  0.4123
   36GLOH   H01 8684   3.391   8.950   0.406 -0.9245  1.0469  1.0590
   37GLOH   H03 8685   3.772   4.794   1.160 -0.2537 -0.3489 -2.7847
   37GLOH    O1 8686   3.678   4.818   1.170  0.3397  1.1332  0.0308
   37GLOH    C1 8687   3.647   4.798   1.310  0.7762  0.0558  0.0090
   37GLOH   H02 8688   3.719   4.861   1.363  3.2844 -2.8450  0.2384
   37GLOH   H08 8689   3.659   4.693   1.338 -0.3088 -0.2378 -0.6236
   37GLOH    C2 8690   3.507   4.850   1.335  0.3494 -0.3390  0.1407
   37GLOH   H04 8691   3.436   4.796   1.271  3.7965 -2.9208 -1.6933
   37GLOH    O2 8692   3.468   4.819   1.467  0.4048 -0.6592 -0.0511
   37GLOH   H05 8693   3.372   4.836   1.469  0.7799  1.5247  2.2850
   37GLOH    C3 8694   3.497   4.999   1.291 -0.1329 -0.1028 -0.2136
   37GLOH   H06 8695   3.576   5.058   1.337  0.2525  1.1467 -2.4236
   37GLOH   H07 8696   3.400   5.030   1.329  0.9428  2.0473  0.8912
   37GLOH    O3 8697   3.505   5.009   1.153 -0.1020 -0.1993 -0.5326
   37GLOH   H01 8698   3.578   4.946   1.134 -0.9264 -1.7268  1.2723
   38GLOH   H03 8699   2.737   5.561   2.755  0.6333 -0.5480 -0.7562
   38GLOH    O1 8700   2.682   5.483   2.736 -0.2793 -0.1023  0.0218
   38GLOH    C1 8701   2.639   5.425   2.861 -0.7792  0.7181  0.1931
   38GLOH   H02 8702   2.725   5.406   2.925 -1.3259 -3.1326 -0.1383
   38GLOH   H08 8703   2.590   5.330   2.843 -0.7693  1.1834 -2.5899
   38GLOH    C2 8704   2.538   5.513   2.934 -0.0490  0.2559  0.7861
   38GLOH   H04 8705   2.451   5.516   2.866 -1.4072  0.3624  2.4878
   38GLOH    O2 8706   2.517   5.470   3.070  0.1530 -0.1646 -0.0897
   38GLOH   H05 8707   2.426   5.493   3.093  0.0635 -0.4323 -0.1713
   38GLOH    C3 8708   2.590   5.659   2.935  0.6730  0.4240 -0.2028
   38GLOH   H06 8709   2.619   5.688   2.834  3.7728 -1.3687  0.1157
   38GLOH   H07 8710   2.683   5.643   2.991  0.7059  2.3592  0.3333
   38GLOH    O3 8711   2.497   5.751   2.986  0.3923  0.3511  0.3081
   38GLOH   H01 8712   2.547   5.821   3.032  1.1951  1.8516 -2.7189
   39GLOH   H03 8713   3.338   5.496   2.454  1.3647  1.1923  0.9622
   39GLOH    O1 8714   3.417   5.445   2.428  0.2005  0.0030 -0.2801
   39GLOH    C1 8715   3.473   5.509   2.312  0.5738 -0.1968 -0.7755
   39GLOH   H02 8716   3.581   5.519   2.321  0.3258  2.5185 -0.4943
   39GLOH   H08 8717   3.431   5.609   2.299  0.4079 -0.0851  0.5652
   39GLOH    C2 8718   3.429   5.427   2.189 -0.2675 -0.2004 -0.3059
   39GLOH   H04 8719   3.321   5.405   2.193 -0.4993  0.4393 -2.4361
   39GLOH    O2 8720   3.453   5.505   2.069 -0.6969  0.3626  0.4575
   39GLOH   H05 8721   3.502   5.460   1.997 -1.9106 -1.9153  0.9935
   39GLOH    C3 8722   3.493   5.290   2.176 -0.0964  0.9147  0.2140
   39GLOH   H06 8723   3.463   5.228   2.260  0.2128  0.4137 -0.0482
   39GLOH   H07 8724   3.599   5.299   2.196 -0.5085  1.3439  2.2768
   39GLOH    O3 8725   3.458   5.204   2.064 -0.3464 -0.6410  0.2351
   39GLOH   H01 8726   3.494   5.241   1.981 -3.1060 -2.2839 -1.7812
   40GLOH   H03 8727   3.762   7.857   1.020 -0.2533 -2.3734  1.2015
   40GLOH    O1 8728   3.812   7.879   1.101  0.0107 -0.1501  0.4743
   40GLOH    C1 8729   3.738   7.833   1.214 -1.3574  0.0033 -0.1159
   40GLOH   H02 8730   3.764   7.891   1.304  0.1457 -0.1209 -0.4583
   40GLOH   H08 8731   3.773   7.732   1.236  1.8594  1.0580 -0.0273
   40GLOH    C2 8732   3.582   7.832   1.195 -0.1502 -0.1695  0.0465
   40GLOH   H04 8733   3.550   7.937   1.185  0.6151  0.1197  0.5203
   40GLOH    O2 8734   3.554   7.766   1.071  0.2391  0.2114 -0.0491
   40GLOH   H05 8735   3.497   7.819   1.013  2.6884  2.3486 -0.6200
   40GLOH    C3 8736   3.512   7.772   1.310  0.2156 -0.0695 -0.6219
   40GLOH   H06 8737   3.539   7.667   1.324 -0.1244 -0.2528 -1.3322
   40GLOH   H07 8738   3.406   7.781   1.292  0.3937  1.5295 -0.8941
   40GLOH    O3 8739   3.538   7.848   1.431 -0.0107  0.5528 -0.1560
   40GLOH   H01 8740   3.492   7.934   1.424 -0.8214  0.3520  2.0835
   41GLOH   H03 8741   3.099   0.396   1.218 -0.2280 -0.7906  0.3489
   41GLOH    O1 8742   3.033   0.452   1.263  0.1112  0.3637 -0.5519
   41GLOH    C1 8743   3.029   0.577   1.193 -0.2772 -0.7756 -0.1707
   41GLOH   H02 8744   2.947   0.571   1.123 -1.5631 -1.7443  1.3815
   41GLOH   H08 8745   3.117   0.587   1.130 -0.2234  0.7468  0.1246
   41GLOH    C2 8746   3.013   0.704   1.280  0.3282  0.1871 -0.0272
   41GLOH   H04 8747   3.100   0.723   1.345  2.0380 -2.4334 -1.4624
   41GLOH    O2 8748   3.001   0.819   1.186 -0.1869 -0.3779 -0.2473
   41GLOH   H05 8749   3.087   0.836   1.146  0.0972 -0.2780  0.3907
   41GLOH    C3 8750   2.882   0.691   1.363 -0.0761 -0.0634 -0.1805
   41GLOH   H06 8751   2.794   0.680   1.300 -0.5922  2.3225  0.0565
   41GLOH   H07 8752   2.876   0.782   1.423 -0.2648 -1.0950  1.4160
   41GLOH    O3 8753   2.898   0.573   1.448 -0.5696  0.1650 -0.2702
   41GLOH   H01 8754   2.926   0.507   1.382 -1.1859 -0.1913 -0.1763
   42GLOH   H03 8755   4.219   4.958   0.226  1.0369  0.1055 -0.1259
   42GLOH    O1 8756   4.199   5.042   0.271 -0.1520 -0.2449  0.0151
   42GLOH    C1 8757   4.073   5.054   0.342  0.0340 -0.2700  0.4767
   42GLOH   H02 8758   4.009   4.966   0.334 -0.1667 -0.0748 -0.0631
   42GLOH   H08 8759   4.020   5.136   0.294  1.2166  1.2887  1.7756
   42GLOH    C2 8760   4.091   5.098   0.487  0.0399  0.8052 -0.3773
   42GLOH   H04 8761   4.112   5.205   0.477 -1.5897  1.2742  0.9655
   42GLOH    O2 8762   3.963   5.095   0.560 -0.1241 -0.2296  0.5421
   42GLOH   H05 8763   3.897   5.153   0.519  0.8126 -0.0121 -0.6859
   42GLOH    C3 8764   4.219   5.033   0.552  0.4799 -0.4842 -0.3044
   42GLOH   H06 8765   4.215   5.027   0.661 -2.7767 -2.1108 -0.4691
   42GLOH   H07 8766   4.307   5.095   0.534 -0.2480  1.4097  2.3430
   42GLOH    O3 8767   4.236   4.898   0.511 -0.1082  0.2914  0.1264
   42GLOH   H01 8768   4.247   4.884   0.415 -1.0720 -1.3504  0.2429
   43GLOH   H03 8769   4.461   3.165   2.669  4.2226  0.4340 -0.4238
   43GLOH    O1 8770   4.493   3.099   2.733  0.9010 -0.4026  0.4876
   43GLOH    C1 8771   4.562   3.173   2.837 -0.4896  0.2915 -0.0137
   43GLOH   H02 8772   4.491   3.245   2.878  1.8337  2.0821  0.9599
   43GLOH   H08 8773   4.650   3.225   2.799  1.1879 -1.8695  0.8146
   43GLOH    C2 8774   4.607   3.079   2.951 -0.2496  0.0317 -0.4028
   43GLOH   H04 8775   4.671   3.004   2.902  0.1811 -0.0527  0.2883
   43GLOH    O2 8776   4.685   3.157   3.047 -0.2344 -0.4941 -0.1543
   43GLOH   H05 8777   4.668   3.252   3.032 -0.9111 -0.8503 -1.6935
   43GLOH    C3 8778   4.482   3.010   3.016  0.0976  0.2267 -0.2610
   43GLOH   H06 8779   4.445   3.081   3.090 -2.2690 -2.3975  1.1867
   43GLOH   H07 8780   4.519   2.919   3.065  2.0028  1.7749  1.2592
   43GLOH    O3 8781   4.382   2.962   2.928 -0.2080 -0.0450 -0.0823
   43GLOH   H01 8782   4.422   2.984   2.842  2.9835 -4.1525  0.1832
   44GLOH   H03 8783   3.613   5.259   0.904 -0.3810 -1.8659 -0.1561
   44GLOH    O1 8784   3.698   5.220   0.929  0.3353 -0.0033  0.3802
   44GLOH    C1 8785   3.753   5.156   0.815 -0.0543  0.3072  0.4248
   44GLOH   H02 8786   3.810   5.220   0.747 -0.1920 -1.0951 -1.0504
   44GLOH   H08 8787   3.674   5.125   0.746  0.9068  1.2953 -1.1466
   44GLOH    C2 8788   3.829   5.028   0.853  0.0169  0.2885 -0.6321
   44GLOH   H04 8789   3.767   4.969   0.923  2.8756 -0.0119  1.7449
   44GLOH    O2 8790   3.880   4.944   0.741 -0.5998 -0.1777 -0.2239
   44GLOH   H05 8791   3.900   5.004   0.668 -2.2472 -1.0456 -1.4407
   44GLOH    C3 8792   3.953   5.065   0.933  0.1797  0.1041 -0.2454
   44GLOH   H06 8793   4.024   5.133   0.884  0.4212  1.7675  2.3510
   44GLOH   H07 8794   4.011   4.973   0.938  0.9695  0.6894  1.7520
   44GLOH    O3 8795   3.909   5.119   1.059  0.2311  0.4157  0.0950
   44GLOH   H01 8796   3.838   5.179   1.031  1.2141  1.6917  0.2828
   45GLOH   H03 8797   3.012   9.556   2.412 -2.6430  0.0292 -0.5249
   45GLOH    O1 8798   3.001   9.511   2.498 -0.0704 -0.0569 -0.1897
   45GLOH    C1 8799   3.049   9.609   2.588  0.3223  0.5516 -0.8739
   45GLOH   H02 8800   3.019   9.576   2.688  0.5347  1.7994 -0.3789
   45GLOH   H08 8801   3.000   9.706   2.575 -1.4444  0.1649  2.2520
   45GLOH    C2 8802   3.206   9.620   2.585  0.7926  0.0811  0.4989
   45GLOH   H04 8803   3.241   9.619   2.481  0.1853  0.8289  0.2774
   45GLOH    O2 8804   3.258   9.737   2.661  0.2094 -0.3224  0.2390
   45GLOH   H05 8805   3.354   9.727   2.649 -0.1842 -1.3265 -2.4336
   45GLOH    C3 8806   3.259   9.488   2.650 -0.5031  0.7855  0.7183
   45GLOH   H06 8807   3.246   9.481   2.757 -0.4601 -0.1275  0.6608
   45GLOH   H07 8808   3.366   9.481   2.630 -0.0347 -1.0567  3.7139
   45GLOH    O3 8809   3.198   9.373   2.595  0.2682 -0.3024  0.4832
   45GLOH   H01 8810   3.118   9.404   2.549  0.0969 -0.0571  0.9489
   46GLOH   H03 8811   3.691   7.489   2.563  1.2441 -0.0418  1.8149
   46GLOH    O1 8812   3.618   7.437   2.601  0.4753  0.0438  0.5189
   46GLOH    C1 8813   3.494   7.476   2.554  0.1301  0.6831 -0.8654
   46GLOH   H02 8814   3.418   7.410   2.595 -1.0095  2.6297  0.2665
   46GLOH   H08 8815   3.488   7.467   2.446  0.0700 -2.1819 -0.6625
   46GLOH    C2 8816   3.456   7.622   2.600  0.1603 -0.2368 -0.8216
   46GLOH   H04 8817   3.534   7.692   2.568  1.3825 -0.5682  1.3529
   46GLOH    O2 8818   3.324   7.649   2.537 -0.1263 -0.5128  0.3469
   46GLOH   H05 8819   3.333   7.709   2.460  0.6427 -0.8433  0.1730
   46GLOH    C3 8820   3.440   7.625   2.754  0.5162  1.0166 -0.1231
   46GLOH   H06 8821   3.369   7.546   2.781  2.1560 -1.3349 -2.4403
   46GLOH   H07 8822   3.401   7.721   2.786  1.1210  0.3886  2.6366
   46GLOH    O3 8823   3.566   7.587   2.822 -0.3617 -0.1567 -0.5964
   46GLOH   H01 8824   3.605   7.514   2.770 -0.7105  1.1961 -2.8242
   47GLOH   H03 8825   3.650   8.889   2.341  0.2924  0.8121 -2.3583
   47GLOH    O1 8826   3.633   8.978   2.378 -0.3407 -0.1184 -0.2863
   47GLOH    C1 8827   3.739   9.072   2.353 -0.6323 -0.1636 -0.3344
   47GLOH   H02 8828   3.791   9.043   2.261  1.5105  1.4353  0.3363
   47GLOH   H08 8829   3.802   9.062   2.441 -1.6335  0.5359  0.4827
   47GLOH    C2 8830   3.683   9.213   2.335  1.0456  0.0220  0.1290
   47GLOH   H04 8831   3.601   9.224   2.407 -0.3175  0.9689 -1.5461
   47GLOH    O2 8832   3.785   9.313   2.365 -0.0003  0.6700  0.4062
   47GLOH   H05 8833   3.766   9.330   2.459  0.2900 -3.4585  1.3154
   47GLOH    C3 8834   3.633   9.252   2.193 -0.1482  0.0674 -0.3693
   47GLOH   H06 8835   3.701   9.220   2.114  0.9237 -0.0333  0.5747
   47GLOH   H07 8836   3.624   9.360   2.185 -1.7614 -0.2881 -4.7810
   47GLOH    O3 8837   3.515   9.178   2.176 -0.0331  0.0893 -0.0084
   47GLOH   H01 8838   3.443   9.233   2.211 -1.2874 -1.9755  0.7124
   48GLOH   H03 8839   2.974   6.855   1.742  1.7180  0.3199 -0.8753
   48GLOH    O1 8840   2.985   6.952   1.733  0.8556  0.5050 -0.0426
   48GLOH    C1 8841   2.850   7.001   1.709 -0.7159  0.2320 -0.1456
   48GLOH   H02 8842   2.855   7.019   1.602  0.3732  0.2674 -0.0929
   48GLOH   H08 8843   2.817   7.091   1.761 -0.3939 -0.6284  1.5999
   48GLOH    C2 8844   2.734   6.896   1.739  0.0231 -0.0957  0.2475
   48GLOH   H04 8845   2.731   6.883   1.848 -1.4741 -0.3881  0.1889
   48GLOH    O2 8846   2.606   6.949   1.686  0.4706 -0.2314 -0.0182
   48GLOH   H05 8847   2.596   6.953   1.589  0.7979  3.6861  0.0486
   48GLOH    C3 8848   2.768   6.757   1.685 -0.1603  0.7691  0.8983
   48GLOH   H06 8849   2.725   6.743   1.586  1.2325  0.5645  0.3166
   48GLOH   H07 8850   2.711   6.685   1.744 -0.6917  0.9698  0.6319
   48GLOH    O3 8851   2.903   6.722   1.688 -0.8658 -0.2082 -0.1489
   48GLOH   H01 8852   2.912   6.625   1.688  1.1632 -0.0982 -3.2097
   49GLOH   H03 8853   3.808   2.137   0.564  0.7931  1.1576  1.3573
   49GLOH    O1 8854   3.820   2.226   0.526  0.8067  0.4597 -0.3280
   49GLOH    C1 8855   3.947   2.222   0.461 -0.4900 -0.0130  0.1566
   49GLOH   H02 8856   3.943   2.133   0.399  1.0842 -0.0454  0.0701
   49GLOH   H08 8857   4.026   2.203   0.534 -1.0615 -1.6651  0.3577
   49GLOH    C2 8858   3.991   2.336   0.363  0.3616 -0.4789  0.5746
   49GLOH   H04 8859   4.007   2.423   0.428 -0.7850  0.7155 -0.7041
   49GLOH    O2 8860   4.122   2.307   0.307  0.3002  0.2338  0.7796
   49GLOH   H05 8861   4.141   2.382   0.248  1.1257 -0.0383  0.6978
   49GLOH    C3 8862   3.893   2.380   0.247  0.1301 -0.0267 -0.8866
   49GLOH   H06 8863   3.795   2.371   0.294  0.4459 -2.1404 -0.5737
   49GLOH   H07 8864   3.893   2.313   0.161  2.8577 -0.9536 -0.2335
   49GLOH    O3 8865   3.905   2.521   0.211 -0.3898  0.4692 -0.1902
   49GLOH   H01 8866   3.880   2.543   0.119 -1.5086 -0.4250 -0.1126
   50GLOH   H03 8867   3.761   4.289   1.223 -2.4317  1.0802 -0.9610
   50GLOH    O1 8868   3.735   4.325   1.309  0.7876  0.5185  0.3085
   50GLOH    C1 8869   3.614   4.402   1.296 -0.2498 -0.8594 -0.1914
   50GLOH   H02 8870   3.607   4.434   1.192 -1.4094 -0.6342 -0.0484
   50GLOH   H08 8871   3.612   4.490   1.360 -0.8277 -1.8337  1.1412
   50GLOH    C2 8872   3.492   4.310   1.319  0.4459 -0.3280 -0.1196
   50GLOH   H04 8873   3.485   4.277   1.423 -0.4506 -0.3329 -0.1786
   50GLOH    O2 8874   3.367   4.377   1.286 -0.1665  0.3058 -0.5616
   50GLOH   H05 8875   3.349   4.440   1.358 -0.7084  0.4554 -0.8272
   50GLOH    C3 8876   3.521   4.192   1.218 -0.2516  0.2490 -0.1672
   50GLOH   H06 8877   3.609   4.141   1.257  0.6855  0.5208 -1.9019
   50GLOH   H07 8878   3.548   4.224   1.118 -1.8275  1.5865 -0.1828
   50GLOH    O3 8879   3.416   4.099   1.216  0.0329  0.1890 -1.2195
   50GLOH   H01 8880   3.343   4.148   1.176  0.4450  2.6741  0.9121
   51GLOH   H03 8881   2.807   7.834   2.130 -0.5368  1.4578  0.1025
   51GLOH    O1 8882   2.723   7.791   2.153  0.0692 -0.0126 -0.3490
   51GLOH    C1 8883   2.689   7.705   2.044  0.4276  0.6247  0.0919
   51GLOH   H02 8884   2.636   7.762   1.968 -0.5352  0.9045  0.9527
   51GLOH   H08 8885   2.617   7.629   2.076  1.1304 -0.9471 -1.9548
   51GLOH    C2 8886   2.816   7.626   1.993  0.0691  0.0699 -0.4733
   51GLOH   H04 8887   2.848   7.553   2.069 -0.2404 -0.3054 -0.6963
   51GLOH    O2 8888   2.770   7.560   1.870 -0.3056  0.7999 -0.2136
   51GLOH   H05 8889   2.834   7.490   1.848 -0.3065  0.0873  1.9182
   51GLOH    C3 8890   2.922   7.730   1.966 -0.6950  0.0813  0.4705
   51GLOH   H06 8891   2.888   7.812   1.902  3.4620  1.0205 -0.6703
   51GLOH   H07 8892   3.004   7.693   1.904 -0.2629  1.8323 -0.0372
   51GLOH    O3 8893   2.974   7.789   2.086  0.0837 -0.0366  0.1296
   51GLOH   H01 8894   3.066   7.762   2.100  0.5521  0.8243 -1.2306
   52GLOH   H03 8895   4.424   3.776   2.674 -0.5893 -0.7286  1.3703
   52GLOH    O1 8896   4.433   3.682   2.653  0.2510 -0.2935 -0.3540
   52GLOH    C1 8897   4.556   3.633   2.716  0.1902 -0.3605 -0.0772
   52GLOH   H02 8898   4.638   3.635   2.644 -0.9942  1.2805 -1.4383
   52GLOH   H08 8899   4.540   3.528   2.740  0.0239 -0.5372 -0.9357
   52GLOH    C2 8900   4.593   3.708   2.844 -0.1973 -0.0270  0.3421
   52GLOH   H04 8901   4.514   3.685   2.917  0.2554  1.0687  1.2076
   52GLOH    O2 8902   4.720   3.640   2.873  0.4441 -0.0740  0.0326
   52GLOH   H05 8903   4.754   3.689   2.950  1.3221 -1.2714  0.4172
   52GLOH    C3 8904   4.604   3.863   2.826  0.1507 -0.0320  0.2588
   52GLOH   H06 8905   4.684   3.871   2.752  1.5113  0.3277  1.7365
   52GLOH   H07 8906   4.651   3.912   2.911  1.5774 -1.9170  0.6038
   52GLOH    O3 8907   4.471   3.925   2.789  0.0089  0.4331 -0.0111
   52GLOH   H01 8908   4.403   3.901   2.854 -0.4779  1.3820 -0.1525
   53GLOH   H03 8909   3.841   1.899   0.174 -0.1720 -0.1127 -0.0856
   53GLOH    O1 8910   3.765   1.922   0.117 -0.1772 -0.1960 -0.1117
   53GLOH    C1 8911   3.635   1.915   0.181 -0.0397  0.1031  0.3065
   53GLOH   H02 8912   3.651   1.904   0.289  2.8977 -3.1556 -0.3904
   53GLOH   H08 8913   3.573   1.833   0.145  0.7623  0.2830 -1.5209
   53GLOH    C2 8914   3.559   2.049   0.157  0.3869  0.3393  0.1416
   53GLOH   H04 8915   3.566   2.070   0.050 -1.5792 -0.5444 -0.1743
   53GLOH    O2 8916   3.418   2.015   0.193 -0.0787  0.0752 -0.7772
   53GLOH   H05 8917   3.376   2.096   0.227 -0.1988  0.7524 -2.5075
   53GLOH    C3 8918   3.626   2.157   0.242  0.3988 -0.4293 -0.5105
   53GLOH   H06 8919   3.718   2.176   0.188  0.5649  1.5664  0.4272
   53GLOH   H07 8920   3.638   2.125   0.345  1.4860  1.3634 -0.0650
   53GLOH    O3 8921   3.557   2.283   0.240  0.2175  0.1197 -0.1399
   53GLOH   H01 8922   3.555   2.311   0.147  2.7580  0.3822 -0.1562
   54GLOH   H03 8923   4.394   2.686   0.463 -0.6165 -1.1371  0.5688
   54GLOH    O1 8924   4.473   2.630   0.457  0.1363  0.0166 -0.5853
   54GLOH    C1 8925   4.426   2.507   0.401  0.1073 -0.6899  0.5442
   54GLOH   H02 8926   4.335   2.527   0.344 -0.7167 -1.3592  1.6098
   54GLOH   H08 8927   4.394   2.435   0.476 -0.4443  0.1322  1.1084
   54GLOH    C2 8928   4.542   2.442   0.319 -0.0952 -0.3464  0.4966
   54GLOH   H04 8929   4.637   2.445   0.375 -0.2378  0.1714  0.7104
   54GLOH    O2 8930   4.511   2.307   0.288  0.3323  0.0194 -0.7471
   54GLOH   H05 8931   4.498   2.313   0.192 -1.1914 -0.5937 -0.5990
   54GLOH    C3 8932   4.565   2.520   0.186  0.4500 -0.4012  0.4626
   54GLOH   H06 8933   4.638   2.601   0.190  0.7265 -0.6478  0.4026
   54GLOH   H07 8934   4.470   2.567   0.161 -0.1665 -2.1233 -0.4839
   54GLOH    O3 8935   4.612   2.443   0.070 -0.1551  0.2399 -0.4482
   54GLOH   H01 8936   4.537   2.387   0.042  0.7761 -0.8924 -0.7103
   55GLOH   H03 8937   2.849   0.567   1.903 -0.6442  0.4531 -0.6021
   55GLOH    O1 8938   2.941   0.594   1.885 -0.5019  0.1114 -0.4021
   55GLOH    C1 8939   3.022   0.593   2.003 -0.5400 -0.1996 -0.4210
   55GLOH   H02 8940   2.968   0.562   2.092  0.9951 -0.4663  0.4297
   55GLOH   H08 8941   3.056   0.694   2.026  0.3038 -0.5946  0.0984
   55GLOH    C2 8942   3.134   0.495   1.989  0.9330 -0.3313 -0.0267
   55GLOH   H04 8943   3.193   0.524   1.900 -1.1704  0.5859 -1.1649
   55GLOH    O2 8944   3.217   0.475   2.105 -0.0181 -0.0506 -0.6428
   55GLOH   H05 8945   3.238   0.564   2.138  1.8511 -0.2644 -1.2182
   55GLOH    C3 8946   3.069   0.362   1.949 -0.1017 -0.0573  0.2050
   55GLOH   H06 8947   3.045   0.366   1.843 -2.1655 -0.1247  0.6565
   55GLOH   H07 8948   2.974   0.357   2.002 -0.1475  2.0392  0.3262
   55GLOH    O3 8949   3.144   0.247   1.969 -0.6775 -0.4069  0.3895
   55GLOH   H01 8950   3.180   0.243   2.059  1.4318  0.8561 -0.3571
   56GLOH   H03 8951   4.368   3.378   2.777 -1.2914  1.1354 -0.8833
   56GLOH    O1 8952   4.337   3.420   2.859 -0.4673 -0.3852  0.2385
   56GLOH    C1 8953   4.279   3.315   2.943 -0.1671  0.0450 -0.3771
   56GLOH   H02 8954   4.351   3.281   3.017  0.3551  0.3391 -0.7529
   56GLOH   H08 8955   4.250   3.233   2.878  0.3035 -1.6047  1.4373
   56GLOH    C2 8956   4.156   3.373   3.006  0.0539 -0.6772  0.6481
   56GLOH   H04 8957   4.083   3.394   2.927 -1.3171  0.0354  2.0728
   56GLOH    O2 8958   4.100   3.278   3.099 -0.5668  0.8377  0.1140
   56GLOH   H05 8959   4.163   3.265   3.173 -0.0317 -0.0635 -0.4894
   56GLOH    C3 8960   4.192   3.509   3.078 -0.7295  0.0206  0.2143
   56GLOH   H06 8961   4.280   3.504   3.142  0.4998 -0.1734 -1.4509
   56GLOH   H07 8962   4.104   3.549   3.127 -0.0721 -0.6595  2.0163
   56GLOH    O3 8963   4.223   3.599   2.971  0.4315  0.2397  0.2968
   56GLOH   H01 8964   4.278   3.548   2.908  2.9436  0.5783  2.1707
   57GLOH   H03 8965   2.674   6.396   2.838  2.1542  1.6364  1.2206
   57GLOH    O1 8966   2.722   6.368   2.758 -0.1406 -0.4221  0.5119
   57GLOH    C1 8967   2.792   6.481   2.699 -0.1777 -0.4128 -0.5748
   57GLOH   H02 8968   2.878   6.509   2.759 -0.8562 -2.8556  1.6348
   57GLOH   H08 8969   2.732   6.571   2.702  1.2397  0.5257  0.0988
   57GLOH    C2 8970   2.831   6.439   2.553  0.2229  0.1650  0.1798
   57GLOH   H04 8971   2.747   6.388   2.503 -2.0465  1.3588  2.6521
   57GLOH    O2 8972   2.882   6.551   2.477 -0.0333  0.1583 -0.2723
   57GLOH   H05 8973   2.929   6.524   2.396 -1.9876 -1.1057 -1.0402
   57GLOH    C3 8974   2.947   6.342   2.573 -0.5479 -0.1027  0.8544
   57GLOH   H06 8975   3.047   6.381   2.593  1.5633 -4.5036 -0.3446
   57GLOH   H07 8976   2.959   6.307   2.471  1.2212 -0.3429  1.1266
   57GLOH    O3 8977   2.921   6.232   2.655 -0.7329  0.1317  0.0508
   57GLOH   H01 8978   2.855   6.264   2.719 -0.3968 -1.1679  1.0846
   58GLOH   H03 8979   2.819   5.447   2.319 -0.0084  0.1729 -0.1257
   58GLOH    O1 8980   2.889   5.510   2.293  0.5691 -0.3508  0.1240
   58GLOH    C1 8981   2.815   5.594   2.201 -0.3739 -0.2312 -0.0068
   58GLOH   H02 8982   2.717   5.606   2.246  0.0297  2.1290  0.2925
   58GLOH   H08 8983   2.798   5.552   2.102  0.0700  0.5694 -0.4233
   58GLOH    C2 8984   2.875   5.731   2.187 -0.7291  0.0843  0.5315
   58GLOH   H04 8985   2.901   5.764   2.289 -2.6887 -0.2750  1.1619
   58GLOH    O2 8986   2.996   5.731   2.106  0.1616 -0.4402  0.2661
   58GLOH   H05 8987   3.030   5.641   2.094  0.3348 -0.3771  0.2754
   58GLOH    C3 8988   2.774   5.841   2.144 -0.1861  0.1160 -0.5188
   58GLOH   H06 8989   2.829   5.933   2.166 -2.2742  1.2889 -0.1504
   58GLOH   H07 8990   2.685   5.838   2.205  0.4526  1.2351  0.4874
   58GLOH    O3 8991   2.745   5.833   2.001 -0.5917 -0.3204 -0.8238
   58GLOH   H01 8992   2.821   5.855   1.944  0.3156  0.1806  0.5373
   59GLOH   H03 8993   3.703   8.870   0.407  1.0080  1.1769 -0.2362
   59GLOH    O1 8994   3.743   8.833   0.327 -0.0085  0.4892 -0.4445
   59GLOH    C1 8995   3.887   8.824   0.349 -1.0255  0.3431  0.2264
   59GLOH   H02 8996   3.911   8.890   0.432  0.2820 -0.1983  0.2940
   59GLOH   H08 8997   3.942   8.867   0.265 -0.2948  1.5081  1.2800
   59GLOH    C2 8998   3.934   8.678   0.372  0.0170 -0.2873  0.0258
   59GLOH   H04 8999   3.888   8.613   0.296 -2.2709  0.2994  0.8681
   59GLOH    O2 9000   4.079   8.688   0.364  0.3729  0.3067 -0.4523
   59GLOH   H05 9001   4.093   8.708   0.269  0.1173  1.3578 -0.2731
   59GLOH    C3 9002   3.892   8.638   0.513  0.1471  0.7844  0.0645
   59GLOH   H06 9003   3.784   8.630   0.506  0.3932 -0.9667 -2.3428
   59GLOH   H07 9004   3.915   8.710   0.592  1.1285 -0.1536  0.6433
   59GLOH    O3 9005   3.960   8.508   0.545 -0.0237 -0.0250  0.2215
   59GLOH   H01 9006   4.037   8.487   0.489 -0.0101 -0.2707  0.3325
   60GLOH   H03 9007   2.888   5.362   0.657  1.3193  1.1879  1.5617
   60GLOH    O1 9008   2.869   5.319   0.743 -0.1176 -0.3261  0.5136
   60GLOH    C1 9009   2.961   5.366   0.844 -0.5684 -0.5578 -0.5608
   60GLOH   H02 9010   3.063   5.336   0.822  0.6135  1.2713  2.1969
   60GLOH   H08 9011   2.950   5.321   0.943  2.0567 -3.2684 -1.4156
   60GLOH    C2 9012   2.986   5.519   0.859 -0.3497 -0.0643  0.0129
   60GLOH   H04 9013   3.065   5.531   0.934  0.2715 -1.4359 -0.4010
   60GLOH    O2 9014   3.044   5.588   0.742 -1.0877 -0.1597 -0.1072
   60GLOH   H05 9015   2.995   5.555   0.665  0.5203  0.2701 -1.3664
   60GLOH    C3 9016   2.859   5.580   0.912 -0.1347  0.2737 -0.5945
   60GLOH   H06 9017   2.771   5.551   0.855  0.6567  1.0322 -2.2160
   60GLOH   H07 9018   2.871   5.688   0.898 -1.2621  0.5521  0.4419
   60GLOH    O3 9019   2.851   5.557   1.055  0.0755 -0.1917  0.9029
   60GLOH   H01 9020   2.790   5.629   1.078  0.5855  0.9696 -1.2410
   61GLOH   H03 9021   3.855   4.589   1.479 -0.6958  1.3650  2.5683
   61GLOH    O1 9022   3.899   4.664   1.435 -0.0584 -0.3205  0.2692
   61GLOH    C1 9023   3.999   4.614   1.346 -0.6779 -0.2228  0.3029
   61GLOH   H02 9024   4.034   4.517   1.382  0.2669  0.5938  1.6365
   61GLOH   H08 9025   4.090   4.674   1.349 -1.9925  1.7895  1.2636
   61GLOH    C2 9026   3.947   4.588   1.203  0.3681 -0.0261  0.5188
   61GLOH   H04 9027   3.854   4.529   1.213  0.8139 -0.9451 -0.6902
   61GLOH    O2 9028   3.929   4.709   1.129 -0.4604  0.0966 -0.1280
   61GLOH   H05 9029   4.018   4.736   1.099 -0.6451 -0.5550 -1.2839
   61GLOH    C3 9030   4.036   4.486   1.127  0.3498  0.5582  0.5146
   61GLOH   H06 9031   4.141   4.512   1.143  0.3879  0.1715  0.9169
   61GLOH   H07 9032   4.030   4.494   1.019 -0.6989  0.5799  0.5765
   61GLOH    O3 9033   4.015   4.349   1.176  0.4592 -0.3853  0.0984
   61GLOH   H01 9034   3.930   4.325   1.136  1.5936 -1.0490 -1.9903
   62GLOH   H03 9035   3.403   1.880   2.492  1.6627 -2.3880  3.7021
   62GLOH    O1 9036   3.331   1.911   2.550 -0.3526 -0.7481  0.4349
   62GLOH    C1 9037   3.396   2.004   2.640 -0.5444 -0.0514 -0.2170
   62GLOH   H02 9038   3.462   2.074   2.588  0.8456 -1.0089  0.2043
   62GLOH   H08 9039   3.458   1.948   2.710  1.0775  1.9373 -0.0212
   62GLOH    C2 9040   3.300   2.085   2.729  0.7750 -0.3006 -0.2067
   62GLOH   H04 9041   3.359   2.140   2.804 -0.5469 -1.6257  1.8560
   62GLOH    O2 9042   3.221   2.187   2.665 -0.8222 -0.1853  0.1119
   62GLOH   H05 9043   3.154   2.138   2.614 -0.4308 -0.3773 -0.2261
   62GLOH    C3 9044   3.211   1.985   2.814  0.4723 -0.1811  0.4282
   62GLOH   H06 9045   3.126   1.939   2.764  1.5395 -2.4243  0.6085
   62GLOH   H07 9046   3.156   2.035   2.894  0.0797 -2.2891  1.4970
   62GLOH    O3 9047   3.310   1.894   2.873 -0.3771 -0.1708 -0.1213
   62GLOH   H01 9048   3.345   1.937   2.953  0.9342 -1.5629  0.0768
   63GLOH   H03 9049   3.457   2.741   0.064 -0.6964  1.9652  1.1847
   63GLOH    O1 9050   3.421   2.683   0.133 -0.1995 -0.2605 -0.3776
   63GLOH    C1 9051   3.491   2.561   0.153  0.5994 -0.4777  0.0162
   63GLOH   H02 9052   3.429   2.493   0.212 -1.7552 -0.5232 -2.4130
   63GLOH   H08 9053   3.589   2.560   0.201  0.4178  1.2662  0.4531
   63GLOH    C2 9054   3.487   2.488   0.013 -0.3947 -0.2699  0.3151
   63GLOH   H04 9055   3.531   2.548  -0.068 -0.2240  1.3840  1.6036
   63GLOH    O2 9056   3.552   2.359   0.012 -0.3616  0.2825  0.1846
   63GLOH   H05 9057   3.563   2.343  -0.084 -0.1521 -1.7129  0.5234
   63GLOH    C3 9058   3.340   2.480  -0.032 -0.3507  0.5005  0.2735
   63GLOH   H06 9059   3.294   2.579  -0.028  0.5104  1.0607 -2.4729
   63GLOH   H07 9060   3.282   2.411   0.028  0.4759 -1.4587 -1.1355
   63GLOH    O3 9061   3.329   2.432  -0.166  0.7235  0.7767  0.6983
   63GLOH   H01 9062   3.346   2.336  -0.166  1.3600  0.8548 -1.5347
   64GLOH   H03 9063   3.983   4.117   1.683 -1.1972  0.0574  0.5963
   64GLOH    O1 9064   3.945   4.109   1.593  0.0544 -0.2767  0.0917
   64GLOH    C1 9065   4.017   4.196   1.505 -0.0277  0.6439 -0.0964
   64GLOH   H02 9066   4.087   4.258   1.560 -0.2061  0.9200 -0.1834
   64GLOH   H08 9067   3.951   4.260   1.447  0.2473  1.9711  1.0411
   64GLOH    C2 9068   4.111   4.129   1.405 -0.9293 -0.0930  0.3227
   64GLOH   H04 9069   4.046   4.075   1.334 -4.5042  2.0856  1.7646
   64GLOH    O2 9070   4.184   4.232   1.341 -0.4454 -0.7427 -0.6283
   64GLOH   H05 9071   4.130   4.259   1.265 -1.5418  1.0019  0.7304
   64GLOH    C3 9072   4.204   4.034   1.485  0.3501 -0.2219  0.3709
   64GLOH   H06 9073   4.241   4.087   1.573  0.1651  2.0610 -0.8761
   64GLOH   H07 9074   4.284   4.002   1.417 -0.5160  0.4645 -1.0014
   64GLOH    O3 9075   4.135   3.920   1.527 -0.8879  0.1142  0.3267
   64GLOH   H01 9076   4.106   3.877   1.445  0.6525 -2.0021  0.8547
   65GLOH   H03 9077   4.416   9.048   2.449  0.0636 -0.4667  0.4658
   65GLOH    O1 9078   4.430   8.955   2.476  0.7271 -0.4877  0.0726
   65GLOH    C1 9079   4.399   8.951   2.616  0.2330 -0.4677  0.2205
   65GLOH   H02 9080   4.317   9.018   2.643  0.4931 -0.0312 -0.0476
   65GLOH   H08 9081   4.478   8.985   2.682 -1.0857 -0.9374  2.0980
   65GLOH    C2 9082   4.345   8.815   2.661  0.3238 -1.3771 -0.0318
   65GLOH   H04 9083   4.429   8.744   2.671  2.3035  0.6828 -1.3678
   65GLOH    O2 9084   4.299   8.820   2.795 -0.3983 -0.0216 -0.4823
   65GLOH   H05 9085   4.231   8.889   2.800 -2.8345 -2.4594  1.3220
   65GLOH    C3 9086   4.237   8.749   2.574 -0.0834 -0.7241 -0.6231
   65GLOH   H06 9087   4.154   8.820   2.576 -0.6936 -1.4384 -0.1022
   65GLOH   H07 9088   4.205   8.650   2.608  1.3776 -1.7561 -2.2050
   65GLOH    O3 9089   4.274   8.736   2.435 -0.1166 -0.1213  0.1426
   65GLOH   H01 9090   4.344   8.803   2.432 -0.6215  0.3895 -0.2338
   66GLOH   H03 9091   3.247   8.127   2.219  1.2014  0.5078  0.6973
   66GLOH    O1 9092   3.191   8.132   2.298  0.0385  0.2333 -0.0961
   66GLOH    C1 9093   3.106   8.017   2.313  0.0900  0.3267 -0.7692
   66GLOH   H02 9094   3.116   7.958   2.222 -0.0893 -0.8547 -0.0424
   66GLOH   H08 9095   3.002   8.047   2.328  0.2472 -0.0269  1.2188
   66GLOH    C2 9096   3.141   7.923   2.432 -0.5579 -0.1667  0.0772
   66GLOH   H04 9097   3.105   7.982   2.518 -0.6293  1.4694 -1.0597
   66GLOH    O2 9098   3.068   7.800   2.441 -0.6799 -0.2226 -0.2412
   66GLOH   H05 9099   3.091   7.747   2.519  0.9975  0.4223 -0.2777
   66GLOH    C3 9100   3.297   7.914   2.447  0.4614 -0.5547  0.6840
   66GLOH   H06 9101   3.316   7.901   2.553 -0.3394  0.0640  0.9057
   66GLOH   H07 9102   3.338   8.012   2.425 -0.8098 -0.6719 -2.4368
   66GLOH    O3 9103   3.369   7.818   2.356 -0.1173 -0.0343 -0.7356
   66GLOH   H01 9104   3.457   7.858   2.361 -0.8471  1.4885  0.2215
   67GLOH   H03 9105   3.543   9.922   0.270 -0.5265 -1.5893 -1.9235
   67GLOH    O1 9106   3.602   9.948   0.197 -0.1625  0.2024 -1.0270
   67GLOH    C1 9107   3.703   9.855   0.199  0.1253  0.0995  0.0626
   67GLOH   H02 9108   3.749   9.864   0.298  1.7007  0.8530 -0.7156
   67GLOH   H08 9109   3.779   9.885   0.127  0.9502 -0.3597  0.7288
   67GLOH    C2 9110   3.662   9.709   0.173  0.2935 -0.1427 -0.9961
   67GLOH   H04 9111   3.749   9.644   0.183 -0.9473 -1.5896  0.6209
   67GLOH    O2 9112   3.566   9.658   0.272  0.7458 -0.1910 -0.1416
   67GLOH   H05 9113   3.485   9.624   0.230  1.7806 -0.6320 -1.8278
   67GLOH    C3 9114   3.603   9.701   0.028  0.4532  0.2753 -0.0025
   67GLOH   H06 9115   3.685   9.744  -0.030 -0.5234  1.2670 -0.6592
   67GLOH   H07 9116   3.512   9.760   0.016  0.6462  0.4176 -0.8148
   67GLOH    O3 9117   3.561   9.569  -0.014 -0.2293 -0.7216  0.1377
   67GLOH   H01 9118   3.620   9.506   0.030  2.7191  1.5383 -0.4277
   68GLOH   H03 9119   3.051   6.936   2.346 -0.7394 -0.2657 -0.8356
   68GLOH    O1 9120   3.090   7.003   2.287  0.4070  0.2032  0.4224
   68GLOH    C1 9121   3.103   7.141   2.329 -1.0100 -0.0058  0.1147
   68GLOH   H02 9122   3.192   7.149   2.392 -0.6537  1.6602 -0.5707
   68GLOH   H08 9123   3.028   7.173   2.402 -0.3729 -4.2258  2.7998
   68GLOH    C2 9124   3.092   7.243   2.213  0.1408  0.8537  0.8528
   68GLOH   H04 9125   2.986   7.246   2.184 -0.0161 -1.0933  1.1351
   68GLOH    O2 9126   3.115   7.373   2.268 -0.0461  0.3456  0.1344
   68GLOH   H05 9127   3.037   7.404   2.317  1.6796  0.4001  2.9591
   68GLOH    C3 9128   3.197   7.230   2.100  0.0019 -0.2075  0.6189
   68GLOH   H06 9129   3.299   7.249   2.132 -0.0662 -0.5102  1.0256
   68GLOH   H07 9130   3.167   7.298   2.020 -2.8909 -2.4386 -0.3004
   68GLOH    O3 9131   3.187   7.095   2.052 -0.7053  0.0460  0.1869
   68GLOH   H01 9132   3.154   7.051   2.132  1.2520  2.1697  2.2486
   69GLOH   H03 9133   3.473   5.250   0.275  1.4032  1.6844 -2.3764
   69GLOH    O1 9134   3.559   5.209   0.295  0.0435 -0.1348  0.0757
   69GLOH    C1 9135   3.521   5.090   0.365 -0.1261  0.4463 -0.3720
   69GLOH   H02 9136   3.434   5.042   0.321  0.7878  0.5481 -2.3702
   69GLOH   H08 9137   3.488   5.116   0.466  0.8186 -1.3160  0.4182
   69GLOH    C2 9138   3.632   4.978   0.376 -0.4432  0.1271  0.0172
   69GLOH   H04 9139   3.709   5.027   0.437 -0.3413  0.0154 -0.0219
   69GLOH    O2 9140   3.574   4.858   0.433 -0.0520 -0.2238 -0.0881
   69GLOH   H05 9141   3.502   4.823   0.379 -0.1082 -2.3525  1.3011
   69GLOH    C3 9142   3.704   4.951   0.246 -0.3609  0.0086  0.2753
   69GLOH   H06 9143   3.640   4.898   0.175 -0.1885 -0.3216  0.3666
   69GLOH   H07 9144   3.785   4.879   0.255 -2.9269 -2.9828  0.1693
   69GLOH    O3 9145   3.757   5.074   0.193 -0.3773 -0.5909  0.4970
   69GLOH   H01 9146   3.712   5.153   0.229  1.1965 -0.4742  2.3070
   70GLOH   H03 9147   3.211   7.915   2.812  1.5752 -1.3078 -0.5049
   70GLOH    O1 9148   3.262   7.979   2.865 -0.2619 -0.3037  0.0857
   70GLOH    C1 9149   3.173   8.065   2.943 -0.2741  0.4759  1.0815
   70GLOH   H02 9150   3.091   8.087   2.875  0.6370  1.8676  0.3940
   70GLOH   H08 9151   3.223   8.161   2.955 -0.7732  1.2596 -2.5295
   70GLOH    C2 9152   3.115   8.020   3.077 -0.4879  0.2956 -0.2586
   70GLOH   H04 9153   3.197   8.000   3.146  0.0200  0.4143 -0.8272
   70GLOH    O2 9154   3.036   8.129   3.133  0.2799 -0.4987  0.2316
   70GLOH   H05 9155   2.961   8.101   3.187  0.3385  0.5081  0.8374
   70GLOH    C3 9156   3.045   7.884   3.065  0.0290 -0.4294  0.2189
   70GLOH   H06 9157   3.115   7.815   3.017 -0.3854  0.4052 -1.6547
   70GLOH   H07 9158   2.970   7.898   2.987  0.8679  2.8378 -0.0753
   70GLOH    O3 9159   2.991   7.831   3.188  0.5636  0.3368  0.2270
   70GLOH   H01 9160   2.948   7.899   3.242  0.0435  1.9014 -2.0923
   71GLOH   H03 9161   4.232   1.544   1.261  0.0519 -0.0518  2.3705
   71GLOH    O1 9162   4.226   1.641   1.272 -0.3897  0.1693  0.3333
   71GLOH    C1 9163   4.358   1.674   1.337 -0.1169 -0.9221 -0.3157
   71GLOH   H02 9164   4.402   1.583   1.377 -0.4490 -0.6708  0.6351
   71GLOH   H08 9165   4.344   1.743   1.420 -0.7827  0.6904 -1.7311
   71GLOH    C2 9166   4.454   1.741   1.237 -0.6389  0.3648  0.1220
   71GLOH   H04 9167   4.409   1.831   1.192 -2.0812  0.5312  1.8594
   71GLOH    O2 9168   4.574   1.783   1.307  0.7166 -0.2966 -0.0891
   71GLOH   H05 9169   4.609   1.865   1.270 -0.9268  0.7375  0.5588
   71GLOH    C3 9170   4.478   1.630   1.127  0.5651  0.2898  0.6201
   71GLOH   H06 9171   4.379   1.604   1.090  1.0472 -1.5046  0.5895
   71GLOH   H07 9172   4.522   1.543   1.174 -1.4059 -1.2131 -0.2568
   71GLOH    O3 9173   4.568   1.676   1.027  0.2201  0.0866  0.2656
   71GLOH   H01 9174   4.525   1.758   0.995  0.3174 -0.0764 -0.2879
   72GLOH   H03 9175   3.922   9.240   2.327  0.2599  0.3754  1.2555
   72GLOH    O1 9176   4.016   9.214   2.321 -0.0031 -0.3095 -0.2041
   72GLOH    C1 9177   4.076   9.265   2.202 -0.3146  0.5736  0.1214
   72GLOH   H02 9178   4.183   9.255   2.222 -0.4279 -1.7180 -0.2694
   72GLOH   H08 9179   4.067   9.370   2.174  0.0499  1.2174  2.3671
   72GLOH    C2 9180   4.034   9.184   2.077 -0.4418 -0.4909  0.4662
   72GLOH   H04 9181   3.924   9.175   2.079 -0.6053  1.0285 -0.6951
   72GLOH    O2 9182   4.061   9.262   1.958  0.8376  0.0541  0.8397
   72GLOH   H05 9183   3.971   9.263   1.922  0.7229 -2.7152  0.9359
   72GLOH    C3 9184   4.090   9.040   2.068 -0.1622 -0.1208  0.1087
   72GLOH   H06 9185   4.176   9.048   2.136  1.6521  1.1987 -2.2663
   72GLOH   H07 9186   4.138   9.021   1.972 -1.2298 -1.4152 -0.1816
   72GLOH    O3 9187   3.992   8.940   2.100 -0.4674 -0.1403  0.3545
   72GLOH   H01 9188   4.001   8.910   2.192 -1.9916 -0.1130  0.5203
   73GLOH   H03 9189   4.137   8.501   0.091 -1.4330  0.8015  1.0699
   73GLOH    O1 9190   4.171   8.480   0.181 -0.0305  0.0024  0.3759
   73GLOH    C1 9191   4.311   8.488   0.197 -0.8605 -0.2935  0.2432
   73GLOH   H02 9192   4.356   8.572   0.143 -1.1851  0.4555  1.1193
   73GLOH   H08 9193   4.358   8.397   0.161  0.3395  0.3770  0.0721
   73GLOH    C2 9194   4.354   8.499   0.346  0.0742  0.2478  0.1378
   73GLOH   H04 9195   4.462   8.480   0.349  0.1916  1.0662  1.5680
   73GLOH    O2 9196   4.319   8.631   0.400 -0.3011  0.3814  0.2587
   73GLOH   H05 9197   4.223   8.640   0.401 -0.3319  0.1914 -0.4190
   73GLOH    C3 9198   4.288   8.388   0.426 -0.2063  0.3559 -0.1075
   73GLOH   H06 9199   4.318   8.389   0.530 -0.4824  0.4529 -0.0261
   73GLOH   H07 9200   4.306   8.287   0.390 -1.8783 -0.5776  1.6141
   73GLOH    O3 9201   4.143   8.403   0.413  0.4186 -0.0976 -0.1584
   73GLOH   H01 9202   4.138   8.425   0.318  2.5958 -0.4325 -0.3807
   74GLOH   H03 9203   4.305   1.542   2.473 -0.8729  0.3189 -0.8173
   74GLOH    O1 9204   4.263   1.611   2.528 -0.1483 -0.5502  0.8789
   74GLOH    C1 9205   4.202   1.569   2.648 -0.3533 -0.3922  0.0668
   74GLOH   H02 9206   4.268   1.504   2.705  1.5599 -1.0920 -2.8019
   74GLOH   H08 9207   4.113   1.508   2.628 -1.1907  0.2718  1.6946
   74GLOH    C2 9208   4.166   1.682   2.742  0.5372  0.1658  0.1225
   74GLOH   H04 9209   4.101   1.749   2.685  0.6752 -0.6705 -1.0528
   74GLOH    O2 9210   4.089   1.644   2.864  0.1326 -0.1679 -0.0972
   74GLOH   H05 9211   4.077   1.724   2.918 -0.6776 -1.6178  1.9206
   74GLOH    C3 9212   4.289   1.761   2.787  0.4030 -0.2922 -0.2459
   74GLOH   H06 9213   4.350   1.809   2.711  1.0755  1.1089  1.1322
   74GLOH   H07 9214   4.352   1.685   2.833  0.9004 -0.1608 -0.7073
   74GLOH    O3 9215   4.246   1.861   2.888  0.0926  0.5272  0.0047
   74GLOH   H01 9216   4.291   1.843   2.973 -0.7965 -0.6125  0.2416
   75GLOH   H03 9217   3.123   4.255   1.855 -0.8546 -2.0962 -1.4338
   75GLOH    O1 9218   3.034   4.278   1.890  0.2101  0.2361 -0.0858
   75GLOH    C1 9219   2.966   4.153   1.907 -0.6929 -0.3143 -0.2311
   75GLOH   H02 9220   2.860   4.167   1.890 -1.0715 -2.0106  0.6379
   75GLOH   H08 9221   2.981   4.110   2.006  0.8945 -0.3904 -0.4922
   75GLOH    C2 9222   2.998   4.044   1.811  0.4055 -0.2095 -0.1600
   75GLOH   H04 9223   2.918   3.970   1.827  0.2150  0.1766  0.6877
   75GLOH    O2 9224   2.973   4.101   1.678  0.1972 -0.8281  0.3725
   75GLOH   H05 9225   3.052   4.152   1.654 -1.5226  1.8037  0.0297
   75GLOH    C3 9226   3.130   3.978   1.844  0.3073 -0.6857  0.0712
   75GLOH   H06 9227   3.138   3.948   1.949 -1.1005 -1.5731 -0.0574
   75GLOH   H07 9228   3.204   4.052   1.815 -0.8844 -0.4044 -2.2961
   75GLOH    O3 9229   3.154   3.861   1.758  0.5736 -0.4849  0.2962
   75GLOH   H01 9230   3.170   3.875   1.663 -0.4240  1.6141  0.4220
   76GLOH   H03 9231   4.891   3.250   0.693 -0.8424 -1.4001  0.6760
   76GLOH    O1 9232   4.861   3.190   0.623 -0.1886 -0.2738 -0.5806
   76GLOH    C1 9233   4.770   3.245   0.527 -0.4506  0.3093 -0.4019
   76GLOH   H02 9234   4.825   3.258   0.434  0.5924  0.9764  0.2954
   76GLOH   H08 9235   4.744   3.347   0.556  0.9629  0.4142  0.5113
   76GLOH    C2 9236   4.628   3.171   0.512  0.4836 -0.9098 -0.3230
   76GLOH   H04 9237   4.567   3.196   0.600  0.2633 -1.1789 -0.4024
   76GLOH    O2 9238   4.561   3.215   0.391 -0.4541 -0.0052 -0.9530
   76GLOH   H05 9239   4.609   3.181   0.314  1.5460  1.6934 -0.4927
   76GLOH    C3 9240   4.632   3.018   0.527  0.0702 -0.0999  0.6071
   76GLOH   H06 9241   4.684   2.988   0.436 -0.3220  0.4640  0.2016
   76GLOH   H07 9242   4.534   2.972   0.515  0.6870 -1.1365 -0.6004
   76GLOH    O3 9243   4.698   2.989   0.648  0.1386  0.1373 -0.0428
   76GLOH   H01 9244   4.794   3.002   0.644  0.2094 -0.5474 -0.7302
   77GLOH   H03 9245   2.886   8.096   1.258 -0.0807 -0.2106  1.6578
   77GLOH    O1 9246   2.800   8.051   1.265 -0.3230 -0.0400 -0.0432
   77GLOH    C1 9247   2.722   8.076   1.146  0.8868 -0.1956  0.7881
   77GLOH   H02 9248   2.618   8.087   1.176  0.2922 -2.4163 -0.3266
   77GLOH   H08 9249   2.715   7.993   1.076 -1.4117  0.4915  0.1489
   77GLOH    C2 9250   2.743   8.214   1.072  0.4189  0.1695  0.6806
   77GLOH   H04 9251   2.847   8.224   1.036 -0.3458  1.4929 -1.2481
   77GLOH    O2 9252   2.652   8.224   0.965 -0.0719  0.1254 -0.1102
   77GLOH   H05 9253   2.706   8.217   0.884  1.3366 -2.0453  0.9804
   77GLOH    C3 9254   2.703   8.330   1.166 -0.3702  0.5662  0.2369
   77GLOH   H06 9255   2.606   8.316   1.214 -0.0757 -2.8857 -0.0897
   77GLOH   H07 9256   2.694   8.423   1.109  3.4360  0.3169 -0.8732
   77GLOH    O3 9257   2.810   8.330   1.266  0.0852 -0.1364  0.4387
   77GLOH   H01 9258   2.864   8.409   1.249 -0.3800 -0.3204 -2.0064
   78GLOH   H03 9259   3.496   4.588   1.756 -0.8500  1.7805 -2.2016
   78GLOH    O1 9260   3.578   4.635   1.776 -0.3499  0.1534 -0.3365
   78GLOH    C1 9261   3.675   4.608   1.671  0.6738 -0.3867  0.0095
   78GLOH   H02 9262   3.765   4.657   1.710 -1.4976  0.8196  3.7427
   78GLOH   H08 9263   3.656   4.661   1.578  0.0948  0.2814  0.4962
   78GLOH    C2 9264   3.705   4.458   1.646 -0.0075 -0.3377 -0.0628
   78GLOH   H04 9265   3.614   4.415   1.602 -0.0466 -0.6770  0.3559
   78GLOH    O2 9266   3.811   4.442   1.549  0.2081  0.4842 -0.4626
   78GLOH   H05 9267   3.801   4.363   1.493 -0.2879 -1.6368  2.5244
   78GLOH    C3 9268   3.732   4.390   1.781 -0.0553  0.0327 -0.2169
   78GLOH   H06 9269   3.658   4.422   1.855  1.3053  2.6871  0.0823
   78GLOH   H07 9270   3.831   4.422   1.815 -0.8944  3.4996 -0.8365
   78GLOH    O3 9271   3.735   4.245   1.768  0.2888 -0.4102  0.2490
   78GLOH   H01 9272   3.791   4.229   1.690  0.3851  4.2121 -0.7354
   79GLOH   H03 9273   3.872   1.927   2.841 -0.2455 -1.1593 -0.2899
   79GLOH    O1 9274   3.907   1.957   2.755 -0.5244 -0.0795 -0.0385
   79GLOH    C1 9275   3.944   2.097   2.763  0.1733  0.9639 -0.1840
   79GLOH   H02 9276   4.014   2.115   2.681  2.4090  0.3556  1.5463
   79GLOH   H08 9277   3.995   2.115   2.858  1.1780 -0.3699 -0.4514
   79GLOH    C2 9278   3.827   2.200   2.758 -0.1683 -0.8399  0.2781
   79GLOH   H04 9279   3.766   2.193   2.849  1.1686 -2.3986  1.0780
   79GLOH    O2 9280   3.881   2.334   2.762  0.1361 -0.5510  0.0316
   79GLOH   H05 9281   3.944   2.343   2.688  1.7688  0.7508  1.5329
   79GLOH    C3 9282   3.728   2.176   2.643  0.3139 -0.4873  0.6943
   79GLOH   H06 9283   3.676   2.082   2.657  0.3078 -0.3158  1.8699
   79GLOH   H07 9284   3.779   2.154   2.549  1.4451 -0.2572  1.2435
   79GLOH    O3 9285   3.624   2.278   2.636  0.7158 -0.4978 -0.4140
   79GLOH   H01 9286   3.634   2.315   2.546  0.8491  2.4749  0.7447
   80GLOH   H03 9287   3.452   9.247   0.845 -2.9529  0.7946 -1.9559
   80GLOH    O1 9288   3.433   9.334   0.884  0.0205  0.5111  0.3137
   80GLOH    C1 9289   3.529   9.430   0.829  0.3985  0.0332  0.0436
   80GLOH   H02 9290   3.512   9.453   0.724  1.8713 -2.8935 -0.8983
   80GLOH   H08 9291   3.632   9.396   0.841  1.3572  2.3219 -1.4243
   80GLOH    C2 9292   3.519   9.571   0.894  0.7551  0.0521 -0.1024
   80GLOH   H04 9293   3.526   9.550   1.002 -1.8798 -0.8179 -0.0552
   80GLOH    O2 9294   3.627   9.652   0.844  0.2760 -0.0862 -0.0362
   80GLOH   H05 9295   3.701   9.593   0.822 -1.2343 -1.3984 -1.7441
   80GLOH    C3 9296   3.383   9.643   0.866  0.0334  0.0131  0.7092
   80GLOH   H06 9297   3.387   9.730   0.932  0.1474  0.4677  0.1125
   80GLOH   H07 9298   3.306   9.576   0.905  1.1034 -0.1798  2.5206
   80GLOH    O3 9299   3.342   9.674   0.731 -0.4203  0.1728  0.6320
   80GLOH   H01 9300   3.348   9.590   0.681  2.2435 -0.4075  1.8148
   81GLOH   H03 9301   3.567   2.775   0.552 -1.0833 -0.7169  1.6240
   81GLOH    O1 9302   3.493   2.839   0.551 -0.1767  0.3269 -0.3412
   81GLOH    C1 9303   3.552   2.968   0.544 -0.5001 -0.1377  0.0390
   81GLOH   H02 9304   3.482   3.032   0.490 -1.2230  0.1124  1.2504
   81GLOH   H08 9305   3.644   2.962   0.486 -1.4285 -2.9040 -1.1980
   81GLOH    C2 9306   3.584   3.026   0.676 -0.3599  0.0030  0.5709
   81GLOH   H04 9307   3.484   3.035   0.721 -1.1388 -4.2052 -0.1501
   81GLOH    O2 9308   3.681   2.939   0.748  0.1875 -0.1313 -0.4561
   81GLOH   H05 9309   3.644   2.919   0.835 -4.0272  1.1655 -1.8131
   81GLOH    C3 9310   3.644   3.169   0.657 -1.3173  0.5224  0.4295
   81GLOH   H06 9311   3.676   3.221   0.747  0.9380 -1.4494  0.8316
   81GLOH   H07 9312   3.581   3.234   0.595  1.3405  1.1857 -1.6571
   81GLOH    O3 9313   3.769   3.156   0.582  0.3275 -0.8632 -0.3175
   81GLOH   H01 9314   3.840   3.132   0.645 -2.0567 -0.7863  2.4663
   82GLOH   H03 9315   3.904   8.967   1.966 -0.2055  0.9805 -0.1753
   82GLOH    O1 9316   3.819   8.972   1.918 -0.0780  0.1464 -0.5018
   82GLOH    C1 9317   3.820   9.044   1.796 -0.3223 -0.8874  0.4434
   82GLOH   H02 9318   3.778   8.988   1.713 -2.5870  0.4924  0.6080
   82GLOH   H08 9319   3.920   9.067   1.756 -0.1862 -1.0972  0.6636
   82GLOH    C2 9320   3.736   9.176   1.786 -0.4899  0.1224 -0.6486
   82GLOH   H04 9321   3.631   9.164   1.816 -0.1076 -0.0572  0.6418
   82GLOH    O2 9322   3.803   9.266   1.878 -0.1633 -0.1294  0.3027
   82GLOH   H05 9323   3.749   9.345   1.895  2.0524  1.5853 -0.3403
   82GLOH    C3 9324   3.741   9.234   1.646  0.0474  0.5147 -0.4537
   82GLOH   H06 9325   3.843   9.247   1.611  0.4860  0.0571  0.6148
   82GLOH   H07 9326   3.699   9.334   1.654  0.5043  0.6081  0.8602
   82GLOH    O3 9327   3.649   9.160   1.558 -0.0435  0.6942 -0.4191
   82GLOH   H01 9328   3.557   9.172   1.590 -0.2500 -2.3394  0.3160
   83GLOH   H03 9329   4.217   3.209   1.039 -2.5157  0.7222 -1.2263
   83GLOH    O1 9330   4.267   3.236   0.959  0.1781  0.2412  0.2347
   83GLOH    C1 9331   4.397   3.188   0.978  0.0706  0.3254  0.5379
   83GLOH   H02 9332   4.407   3.154   1.081 -0.4745  1.4767  0.9877
   83GLOH   H08 9333   4.463   3.274   0.962 -0.1204  0.0980 -1.4980
   83GLOH    C2 9334   4.419   3.072   0.880 -0.4074 -0.2784 -0.7609
   83GLOH   H04 9335   4.384   3.106   0.781 -1.4779 -1.9937 -0.9843
   83GLOH    O2 9336   4.566   3.058   0.874  0.0549  0.2020 -0.3370
   83GLOH   H05 9337   4.600   3.033   0.786 -1.3074  1.5163 -1.2564
   83GLOH    C3 9338   4.336   2.943   0.908  0.3030 -0.1254 -0.6113
   83GLOH   H06 9339   4.228   2.963   0.910  0.2220 -0.5559  2.0311
   83GLOH   H07 9340   4.355   2.908   1.010 -1.2078 -0.9850 -0.6004
   83GLOH    O3 9341   4.348   2.832   0.814  0.2119 -0.2881  0.1571
   83GLOH   H01 9342   4.373   2.758   0.873  1.1866 -0.2059 -0.1402
   84GLOH   H03 9343   4.161   2.560   1.585  2.1856  0.1165  0.9152
   84GLOH    O1 9344   4.122   2.551   1.673 -0.4804 -0.2551 -0.2497
   84GLOH    C1 9345   4.049   2.427   1.669 -0.3846 -0.3950  0.0380
   84GLOH   H02 9346   4.010   2.407   1.569  0.5346  0.2264 -0.4482
   84GLOH   H08 9347   3.954   2.433   1.723  0.4631 -0.2821  1.5210
   84GLOH    C2 9348   4.121   2.296   1.713 -0.1074 -0.2459 -0.7742
   84GLOH   H04 9349   4.145   2.315   1.819  0.9144 -1.2086 -0.8236
   84GLOH    O2 9350   4.040   2.173   1.704  0.0255  0.3190  0.8996
   84GLOH   H05 9351   3.972   2.175   1.773 -1.0240 -1.1694 -0.0706
   84GLOH    C3 9352   4.256   2.265   1.644  0.1815 -0.1023 -0.3059
   84GLOH   H06 9353   4.230   2.273   1.538 -0.0162 -1.3396 -0.3526
   84GLOH   H07 9354   4.276   2.165   1.681  3.0388  0.1877 -1.0036
   84GLOH    O3 9355   4.364   2.359   1.688  0.2493  0.6908  0.1057
   84GLOH   H01 9356   4.401   2.312   1.764  0.7835  1.0754  0.0828
   85GLOH   H03 9357   4.018   1.519   2.816  0.8962  0.3052 -0.7191
   85GLOH    O1 9358   3.944   1.464   2.784  0.4991 -0.0045  0.7278
   85GLOH    C1 9359   3.840   1.549   2.739  0.2260  0.4517 -0.2099
   85GLOH   H02 9360   3.865   1.586   2.640 -0.5692  1.5325 -0.0118
   85GLOH   H08 9361   3.823   1.631   2.809 -0.9504 -0.3619  0.4738
   85GLOH    C2 9362   3.703   1.480   2.741  0.5987  0.4657  0.0303
   85GLOH   H04 9363   3.690   1.461   2.848 -0.1662  2.3295  0.2841
   85GLOH    O2 9364   3.587   1.562   2.699 -0.4053 -0.1082 -0.2348
   85GLOH   H05 9365   3.617   1.625   2.631 -4.7086 -0.1140 -2.2529
   85GLOH    C3 9366   3.705   1.340   2.675 -0.3014  0.0819  0.0197
   85GLOH   H06 9367   3.728   1.332   2.569  1.6483 -4.8272  0.6508
   85GLOH   H07 9368   3.606   1.297   2.691 -0.7074  1.1980  0.5364
   85GLOH    O3 9369   3.798   1.256   2.745  0.5821  0.6096 -0.3420
   85GLOH   H01 9370   3.870   1.303   2.791  2.0776 -0.8064 -1.2012
   86GLOH   H03 9371   3.342   5.493   0.062 -1.9874 -1.2406 -0.6781
   86GLOH    O1 9372   3.321   5.479   0.156 -0.1918  0.6196  0.0107
   86GLOH    C1 9373   3.265   5.603   0.209 -0.0220  0.0783 -0.3466
   86GLOH   H02 9374   3.348   5.673   0.210 -0.1740  0.2628  1.9397
   86GLOH   H08 9375   3.249   5.591   0.317  0.5243  2.6630  0.0446
   86GLOH    C2 9376   3.140   5.647   0.127 -0.0009  0.4392 -0.1010
   86GLOH   H04 9377   3.178   5.670   0.027  0.4554  1.2585  0.2529
   86GLOH    O2 9378   3.032   5.545   0.120 -0.1005  0.2424 -0.0808
   86GLOH   H05 9379   3.015   5.494   0.201  0.0265 -0.4323 -0.4730
   86GLOH    C3 9380   3.075   5.767   0.186 -0.3515 -0.2316 -0.3783
   86GLOH   H06 9381   3.080   5.763   0.295  4.2413  2.3554 -0.3422
   86GLOH   H07 9382   2.979   5.783   0.136  0.2386  0.2235 -1.3864
   86GLOH    O3 9383   3.145   5.887   0.150 -0.4715  0.8388 -0.3521
   86GLOH   H01 9384   3.111   5.918   0.064 -2.5730  1.7779  0.7728
   87GLOH   H03 9385   3.973   4.599   2.818 -1.2588  1.9971  3.5311
   87GLOH    O1 9386   4.057   4.584   2.865  0.4998 -0.2291 -0.1144
   87GLOH    C1 9387   4.062   4.678   2.976 -0.2897  0.4118  0.2266
   87GLOH   H02 9388   4.011   4.634   3.062  2.1532  0.2335  1.6289
   87GLOH   H08 9389   4.028   4.775   2.941 -0.8836  0.6442  1.4233
   87GLOH    C2 9390   4.206   4.706   3.026  0.1845 -0.1354  0.0816
   87GLOH   H04 9391   4.268   4.758   2.952 -0.4163  0.1488 -0.2258
   87GLOH    O2 9392   4.196   4.778   3.150  0.7817 -0.0796  0.4192
   87GLOH   H05 9393   4.141   4.728   3.212 -0.0112 -0.4054 -0.5207
   87GLOH    C3 9394   4.278   4.576   3.058  0.0350  0.4724 -0.3322
   87GLOH   H06 9395   4.245   4.547   3.158  2.3011 -2.2498 -0.2990
   87GLOH   H07 9396   4.383   4.601   3.067 -0.2497  1.2277  1.0019
   87GLOH    O3 9397   4.251   4.482   2.960 -0.3734 -0.4050  0.2261
   87GLOH   H01 9398   4.179   4.531   2.916 -1.0854 -1.7223 -0.1201
   88GLOH   H03 9399   5.106   3.529   0.738  1.0787  0.1642 -0.4116
   88GLOH    O1 9400   5.038   3.597   0.756  0.6038 -0.4584  0.1469
   88GLOH    C1 9401   4.956   3.556   0.868 -0.8127 -0.3051  0.6179
   88GLOH   H02 9402   4.901   3.637   0.914 -1.7628 -0.0069 -0.9996
   88GLOH   H08 9403   5.023   3.529   0.949  0.2869  1.5033  0.3305
   88GLOH    C2 9404   4.867   3.434   0.829 -0.3243 -0.1004 -0.1640
   88GLOH   H04 9405   4.828   3.458   0.728  0.5573  0.8068 -0.3018
   88GLOH    O2 9406   4.942   3.314   0.820  0.5802  0.2019 -0.2438
   88GLOH   H05 9407   4.981   3.306   0.909  0.0071  1.2769  0.1083
   88GLOH    C3 9408   4.748   3.415   0.926  0.4193  0.3854  0.4472
   88GLOH   H06 9409   4.781   3.407   1.030  0.8520  0.5333  0.3240
   88GLOH   H07 9410   4.701   3.319   0.903  0.9268  0.7350 -2.1136
   88GLOH    O3 9411   4.644   3.513   0.911 -0.6285  0.0897  0.2672
   88GLOH   H01 9412   4.645   3.534   0.816 -2.0098  1.8807  0.6318
   89GLOH   H03 9413   3.530   9.449   1.228 -0.1603 -0.0869  0.3478
   89GLOH    O1 9414   3.596   9.519   1.245  0.0098 -0.1735  0.0335
   89GLOH    C1 9415   3.726   9.490   1.204  0.1351  0.5005  0.3913
   89GLOH   H02 9416   3.792   9.500   1.290 -0.2208  2.4443  0.4664
   89GLOH   H08 9417   3.758   9.561   1.128 -0.6474 -0.4476 -0.8385
   89GLOH    C2 9418   3.751   9.347   1.153  0.3758 -0.0989  0.0021
   89GLOH   H04 9419   3.681   9.328   1.071  0.6526  0.3230 -0.3324
   89GLOH    O2 9420   3.880   9.324   1.096 -0.0008 -0.2117  0.3745
   89GLOH   H05 9421   3.870   9.275   1.013  2.2193 -1.4723  0.8260
   89GLOH    C3 9422   3.731   9.244   1.264  0.8141  0.5231 -0.3643
   89GLOH   H06 9423   3.631   9.266   1.303  0.4037  0.0243 -1.1101
   89GLOH   H07 9424   3.800   9.262   1.346 -0.4786 -0.2459  0.9175
   89GLOH    O3 9425   3.737   9.098   1.237 -0.9953  0.1900 -0.3317
   89GLOH   H01 9426   3.833   9.083   1.249 -1.1201 -0.4966 -0.1811
   90GLOH   H03 9427   3.846   8.403   0.600 -1.9888  0.5880 -2.5417
   90GLOH    O1 9428   3.764   8.373   0.643 -0.4339 -0.3491 -0.0767
   90GLOH    C1 9429   3.707   8.267   0.567 -0.3961 -0.1087 -0.5878
   90GLOH   H02 9430   3.776   8.183   0.558 -1.7715 -1.6687  2.7987
   90GLOH   H08 9431   3.689   8.301   0.465 -0.2764 -0.7530 -0.8295
   90GLOH    C2 9432   3.570   8.213   0.620  0.3274 -0.7760 -0.5523
   90GLOH   H04 9433   3.491   8.286   0.598 -0.7555 -1.5437  0.6872
   90GLOH    O2 9434   3.518   8.085   0.563 -0.1532 -0.1290 -0.9356
   90GLOH   H05 9435   3.568   8.075   0.480  0.9113 -0.2769 -0.2857
   90GLOH    C3 9436   3.583   8.209   0.774 -0.6282 -1.1989 -0.0875
   90GLOH   H06 9437   3.672   8.153   0.801 -0.2433  0.0091  1.1686
   90GLOH   H07 9438   3.505   8.147   0.819 -2.1785  0.2221 -0.7826
   90GLOH    O3 9439   3.576   8.344   0.829 -0.0453  0.0407 -0.0047
   90GLOH   H01 9440   3.661   8.377   0.793 -0.1165  0.2122 -0.0132
   91GLOH   H03 9441   3.958   0.653   2.857  3.0901 -1.2134 -1.8396
   91GLOH    O1 9442   4.021   0.717   2.895  0.3843  0.5953 -0.2567
   91GLOH    C1 9443   3.971   0.821   2.971 -0.9719  0.3510 -0.0240
   91GLOH   H02 9444   4.058   0.876   3.009 -1.6883 -1.3139  4.3172
   91GLOH   H08 9445   3.914   0.786   3.058 -1.2329  3.7099  1.2277
   91GLOH    C2 9446   3.880   0.922   2.898  0.1283 -0.0385 -0.6910
   91GLOH   H04 9447   3.940   0.985   2.829  1.4919  0.3632  0.8362
   91GLOH    O2 9448   3.766   0.865   2.820 -0.6408 -0.6218  0.4107
   91GLOH   H05 9449   3.783   0.772   2.800  3.0131  0.0172  0.2250
   91GLOH    C3 9450   3.816   1.018   3.007  0.4190  0.5322  0.5186
   91GLOH   H06 9451   3.735   1.076   2.964  0.5063  1.2526  1.3099
   91GLOH   H07 9452   3.895   1.091   3.025  1.4978 -0.5694  0.2884
   91GLOH    O3 9453   3.758   0.960   3.134 -0.5260 -0.3247  0.2920
   91GLOH   H01 9454   3.665   0.938   3.117 -0.1185  0.3898 -3.4691
   92GLOH   H03 9455   2.915   8.627   0.757 -0.9291  0.1891 -0.0604
   92GLOH    O1 9456   2.960   8.650   0.840 -0.5234 -0.1946 -0.1754
   92GLOH    C1 9457   2.954   8.790   0.850 -0.1986 -0.1559  0.3010
   92GLOH   H02 9458   2.929   8.836   0.754 -0.4484 -4.0969 -1.6181
   92GLOH   H08 9459   3.049   8.832   0.882  0.0008  0.2551 -0.7879
   92GLOH    C2 9460   2.834   8.818   0.947  0.3477  0.3314 -0.1253
   92GLOH   H04 9461   2.862   8.776   1.045  0.6854 -1.1497 -0.8302
   92GLOH    O2 9462   2.810   8.957   0.949 -0.4099 -0.9829 -0.3378
   92GLOH   H05 9463   2.828   8.997   0.862 -0.0899 -0.7068 -0.1473
   92GLOH    C3 9464   2.705   8.748   0.891  0.0014  0.2132 -0.2772
   92GLOH   H06 9465   2.635   8.762   0.973  0.5419  0.0682  0.2161
   92GLOH   H07 9466   2.712   8.641   0.873  1.2306  0.3596 -0.7109
   92GLOH    O3 9467   2.648   8.805   0.772  0.7594  0.1081 -1.1405
   92GLOH   H01 9468   2.581   8.872   0.794  1.4595  0.2747  0.5100
   93GLOH   H03 9469   2.700   6.624   0.384 -2.7216  2.0048  1.9633
   93GLOH    O1 9470   2.705   6.687   0.310 -0.3702 -0.1823  0.1686
   93GLOH    C1 9471   2.682   6.819   0.369  0.1752  0.3563 -1.1764
   93GLOH   H02 9472   2.709   6.895   0.296  0.7707  1.2559 -0.0368
   93GLOH   H08 9473   2.746   6.839   0.456 -1.8359 -2.2002  1.0057
   93GLOH    C2 9474   2.526   6.832   0.402 -0.0080  0.3143 -0.0087
   93GLOH   H04 9475   2.490   6.751   0.467  0.4698  1.4424  1.6741
   93GLOH    O2 9476   2.508   6.947   0.490  0.2099 -0.3865 -0.3502
   93GLOH   H05 9477   2.447   6.932   0.565 -1.7351 -1.4276 -2.0782
   93GLOH    C3 9478   2.441   6.833   0.264  0.6920 -0.3337 -0.4001
   93GLOH   H06 9479   2.490   6.894   0.189  0.2805  1.6529  0.9217
   93GLOH   H07 9480   2.345   6.880   0.285 -0.5359 -1.7741 -2.5812
   93GLOH    O3 9481   2.423   6.700   0.216 -0.0529  0.3609 -0.5725
   93GLOH   H01 9482   2.433   6.705   0.120  0.5558 -1.5566 -0.6282
   94GLOH   H03 9483   3.407   9.091   1.714 -0.7667  0.9944  0.8787
   94GLOH    O1 9484   3.426   9.170   1.660  0.2525  0.0856 -0.1219
   94GLOH    C1 9485   3.307   9.191   1.599 -0.1698 -0.2353 -0.2042
   94GLOH   H02 9486   3.226   9.169   1.669  1.0691 -2.5678  0.5422
   94GLOH   H08 9487   3.300   9.122   1.515 -1.6805  1.5433 -1.6061
   94GLOH    C2 9488   3.282   9.333   1.532  0.1313 -0.6508  0.3779
   94GLOH   H04 9489   3.374   9.357   1.477  0.0707 -1.0197  0.1073
   94GLOH    O2 9490   3.173   9.334   1.439 -0.2118  0.5052 -0.4974
   94GLOH   H05 9491   3.173   9.249   1.393  2.2402  0.2986 -0.1979
   94GLOH    C3 9492   3.269   9.442   1.645 -0.4127  0.3203  0.3253
   94GLOH   H06 9493   3.272   9.539   1.596 -0.0565 -1.3428 -3.0984
   94GLOH   H07 9494   3.366   9.445   1.694 -0.6937 -0.2930  0.9255
   94GLOH    O3 9495   3.162   9.446   1.737 -0.2149 -0.3302 -0.0402
   94GLOH   H01 9496   3.086   9.393   1.708  0.2371  0.0056 -1.9282
   95GLOH   H03 9497   4.341   4.355   0.163  0.5184 -0.8363 -2.5855
   95GLOH    O1 9498   4.367   4.268   0.199  0.0333  0.3216  0.7389
   95GLOH    C1 9499   4.506   4.260   0.195  0.3800  0.5064 -0.6427
   95GLOH   H02 9500   4.557   4.352   0.225 -2.1498  1.1053  2.0844
   95GLOH   H08 9501   4.520   4.244   0.088  3.3902 -0.7582 -0.0946
   95GLOH    C2 9502   4.567   4.143   0.273 -0.4726 -0.0680  0.1945
   95GLOH   H04 9503   4.535   4.059   0.210 -1.8571  1.2078 -0.8646
   95GLOH    O2 9504   4.713   4.144   0.279 -0.3852 -0.1994 -0.2223
   95GLOH   H05 9505   4.740   4.159   0.187  0.5784  0.7207  0.2036
   95GLOH    C3 9506   4.509   4.146   0.415 -0.4965  0.1037 -0.3700
   95GLOH   H06 9507   4.536   4.243   0.458 -1.4321 -0.4950  1.6402
   95GLOH   H07 9508   4.558   4.062   0.463  0.0899  2.1764  2.8505
   95GLOH    O3 9509   4.366   4.125   0.419  0.6054 -0.8431  0.3807
   95GLOH   H01 9510   4.321   4.142   0.334 -0.3019  0.8191  1.1515
   96GLOH   H03 9511   2.852   7.511   0.957  4.3618 -1.0722 -0.1069
   96GLOH    O1 9512   2.825   7.418   0.954  0.0666  0.0531  0.6798
   96GLOH    C1 9513   2.946   7.340   0.976 -0.0776 -0.2414 -0.8466
   96GLOH   H02 9514   2.922   7.263   1.049 -0.4376  1.8030  1.2312
   96GLOH   H08 9515   3.026   7.407   1.008 -0.6232 -0.6421  1.3936
   96GLOH    C2 9516   3.011   7.274   0.853  0.1719  0.1585  0.7855
   96GLOH   H04 9517   3.001   7.343   0.767 -0.2143 -2.1144 -1.0566
   96GLOH    O2 9518   3.149   7.252   0.876  0.4389 -0.6570 -0.2969
   96GLOH   H05 9519   3.155   7.196   0.955 -0.5492  1.3319  1.2254
   96GLOH    C3 9520   2.927   7.144   0.820 -0.1096  0.5071  0.6720
   96GLOH   H06 9521   2.929   7.064   0.894 -1.9772 -0.2819 -0.1088
   96GLOH   H07 9522   2.964   7.095   0.731  1.2550 -1.4246  2.2457
   96GLOH    O3 9523   2.793   7.185   0.800  0.9631  0.1810  0.3476
   96GLOH   H01 9524   2.798   7.272   0.844  3.0433 -0.7510  2.0070
   97GLOH   H03 9525   4.500   2.805   1.185  1.0901  3.4543  0.3612
   97GLOH    O1 9526   4.414   2.819   1.229  0.3511 -0.7458  0.3901
   97GLOH    C1 9527   4.378   2.702   1.304  0.2390 -0.7576 -0.1491
   97GLOH   H02 9528   4.454   2.677   1.378 -0.1937  1.8776  1.2745
   97GLOH   H08 9529   4.372   2.624   1.229  0.8768  1.2340 -2.3234
   97GLOH    C2 9530   4.247   2.712   1.372  0.4255  0.1742 -0.5062
   97GLOH   H04 9531   4.173   2.750   1.300 -1.1531  0.7730  1.3965
   97GLOH    O2 9532   4.213   2.584   1.426  0.1474 -0.3295 -0.0587
   97GLOH   H05 9533   4.160   2.528   1.367 -0.3606 -1.3948  1.3668
   97GLOH    C3 9534   4.254   2.809   1.484 -0.0599 -0.6008  0.0619
   97GLOH   H06 9535   4.316   2.784   1.570  0.7794  2.5284  0.4255
   97GLOH   H07 9536   4.153   2.821   1.524 -1.6432  1.6837 -4.2410
   97GLOH    O3 9537   4.286   2.935   1.424 -0.1163  0.1802  0.0699
   97GLOH   H01 9538   4.323   2.927   1.334 -0.3678 -2.2168  0.1647
   98GLOH   H03 9539   3.357   2.546   0.605  0.6983 -0.4361  1.0047
   98GLOH    O1 9540   3.393   2.456   0.598 -0.4087 -0.8037 -0.0653
   98GLOH    C1 9541   3.530   2.445   0.652  0.2963  0.3317  0.3131
   98GLOH   H02 9542   3.552   2.339   0.664 -2.3538 -0.3540 -0.4654
   98GLOH   H08 9543   3.531   2.499   0.747  1.4770  0.9622 -0.0581
   98GLOH    C2 9544   3.651   2.499   0.571 -0.4048  0.3189  0.3073
   98GLOH   H04 9545   3.678   2.430   0.490 -3.9207 -1.7816  0.8050
   98GLOH    O2 9546   3.628   2.625   0.515 -0.8680 -0.8268  0.1943
   98GLOH   H05 9547   3.689   2.642   0.441  0.9835  0.4377  1.9294
   98GLOH    C3 9548   3.766   2.525   0.664 -0.1336  0.1784 -0.5358
   98GLOH   H06 9549   3.739   2.608   0.730  0.7557 -0.9144  1.2107
   98GLOH   H07 9550   3.852   2.550   0.602 -0.0570 -0.1402 -0.5597
   98GLOH    O3 9551   3.790   2.397   0.722 -0.5644 -0.4374 -0.2415
   98GLOH   H01 9552   3.815   2.333   0.653 -1.8742  0.2671 -1.4018
   99GLOH   H03 9553   3.856   0.567   1.116 -0.0680 -0.6268  0.0522
   99GLOH    O1 9554   3.779   0.549   1.059 -0.1254 -0.3474  0.0404
   99GLOH    C1 9555   3.806   0.475   0.937  0.6353 -0.5341 -0.9445
   99GLOH   H02 9556   3.720   0.409   0.927  1.0796 -1.2715  0.0774
   99GLOH   H08 9557   3.892   0.412   0.955  0.7981  0.2469  1.0948
   99GLOH    C2 9558   3.817   0.568   0.814  0.5156  0.5014  0.2753
   99GLOH   H04 9559   3.793   0.673   0.834 -0.2158  0.7685 -1.8135
   99GLOH    O2 9560   3.952   0.573   0.780 -0.2675  0.0561  0.1898
   99GLOH   H05 9561   3.958   0.613   0.692 -0.2852 -3.0227 -1.2825
   99GLOH    C3 9562   3.725   0.537   0.691 -1.5903 -0.1808  0.2455
   99GLOH   H06 9563   3.622   0.540   0.725 -1.6064 -0.4678  0.2280
   99GLOH   H07 9564   3.739   0.432   0.665 -1.3116 -0.1335  0.2011
   99GLOH    O3 9565   3.735   0.624   0.572 -0.3043 -0.0822  0.1492
   99GLOH   H01 9566   3.708   0.564   0.500 -0.6507  0.8919 -0.5389
  100GLOH   H03 9567   3.920   9.130   0.836  1.8882  1.2979 -1.4270
  100GLOH    O1 9568   3.882   9.218   0.855 -0.2302  0.0673  0.1458
  100GLOH    C1 9569   3.944   9.296   0.757  0.7198 -0.2126  0.2176
  100GLOH   H02 9570   4.030   9.254   0.704  0.8923 -0.6161  0.8117
  100GLOH   H08 9571   3.982   9.385   0.807 -1.1276 -0.9795  3.1350
  100GLOH    C2 9572   3.837   9.345   0.657  0.5522  0.9572  0.4904
  100GLOH   H04 9573   3.749   9.282   0.672 -0.9104  2.5961 -1.0314
  100GLOH    O2 9574   3.793   9.481   0.677 -0.6069 -0.4008  0.2320
  100GLOH   H05 9575   3.756   9.514   0.594  1.2799 -0.3674 -0.6282
  100GLOH    C3 9576   3.885   9.319   0.514  0.1958  0.2118  0.3826
  100GLOH   H06 9577   3.985   9.361   0.504  0.9917 -2.0170 -1.3187
  100GLOH   H07 9578   3.829   9.380   0.442 -0.7454  2.0065  2.5535
  100GLOH    O3 9579   3.898   9.181   0.476  0.0878  0.0049 -0.0792
  100GLOH   H01 9580   3.811   9.157   0.439 -0.7228 -0.9405  2.2934
  101GLOH   H03 9581   2.315   7.634   2.441  0.2346  1.6234 -1.1800
  101GLOH    O1 9582   2.396   7.591   2.409 -0.1118  0.0583  0.0121
  101GLOH    C1 9583   2.447   7.669   2.299 -0.3227  0.2070  1.0012
  101GLOH   H02 9584   2.402   7.644   2.202  1.8441 -2.0493  0.5045
  101GLOH   H08 9585   2.546   7.626   2.282 -0.6738  0.0341 -0.7878
  101GLOH    C2 9586   2.448   7.827   2.319  0.0082  0.7767  0.5447
  101GLOH   H04 9587   2.514   7.855   2.403  1.4460  0.5085 -0.4837
  101GLOH    O2 9588   2.508   7.893   2.207  0.1744  0.0488 -0.7998
  101GLOH   H05 9589   2.597   7.854   2.201  0.0061 -0.7526  1.3887
  101GLOH    C3 9590   2.299   7.873   2.338 -0.7922  0.0161 -0.1339
  101GLOH   H06 9591   2.233   7.879   2.252 -1.1789  2.2845  0.2749
  101GLOH   H07 9592   2.311   7.978   2.369  1.7260 -0.0301 -0.8017
  101GLOH    O3 9593   2.243   7.805   2.452 -0.4977 -0.1546 -0.1582
  101GLOH   H01 9594   2.287   7.827   2.536 -1.0434  1.4394 -0.2716
  102GLOH   H03 9595   3.204   5.586   0.751  0.2208  0.1217 -1.6987
  102GLOH    O1 9596   3.298   5.560   0.748  0.2869  0.0923 -0.0696
  102GLOH    C1 9597   3.338   5.535   0.886 -0.6769  0.1955  0.1641
  102GLOH   H02 9598   3.264   5.574   0.956 -0.6062 -0.1414  0.4322
  102GLOH   H08 9599   3.424   5.587   0.927 -0.5411 -0.2105  0.3962
  102GLOH    C2 9600   3.361   5.388   0.905 -0.4824  0.0310  0.7251
  102GLOH   H04 9601   3.278   5.338   0.852  1.4546 -1.4045 -1.0912
  102GLOH    O2 9602   3.481   5.337   0.842 -0.2222 -0.1465 -0.8059
  102GLOH   H05 9603   3.490   5.349   0.746 -1.8834 -0.0438 -0.9611
  102GLOH    C3 9604   3.343   5.343   1.053  0.8587 -0.3900 -0.2580
  102GLOH   H06 9605   3.403   5.413   1.111  0.7613 -1.7114  1.4826
  102GLOH   H07 9606   3.390   5.246   1.065 -0.4690 -0.8978  1.0015
  102GLOH    O3 9607   3.208   5.338   1.100  0.8545 -0.1978 -0.2138
  102GLOH   H01 9608   3.211   5.251   1.144 -2.6485 -0.1207  0.2749
  103GLOH   H03 9609   4.106   2.826   1.140  0.3496  1.1483 -1.5733
  103GLOH    O1 9610   4.037   2.893   1.154 -0.1515  0.3553 -0.1843
  103GLOH    C1 9611   3.918   2.855   1.230  0.3376 -0.4301  0.1087
  103GLOH   H02 9612   3.859   2.947   1.242  0.2270 -0.2225 -1.8536
  103GLOH   H08 9613   3.944   2.816   1.329 -0.3685  1.1380  0.9459
  103GLOH    C2 9614   3.852   2.749   1.144  0.2573  0.2171 -0.5838
  103GLOH   H04 9615   3.923   2.671   1.113  2.1818  2.9472 -3.3785
  103GLOH    O2 9616   3.746   2.679   1.216 -0.2935 -0.1013 -0.1361
  103GLOH   H05 9617   3.785   2.601   1.260 -3.2497 -0.2221  2.4604
  103GLOH    C3 9618   3.795   2.803   1.009 -0.1416  0.5886  1.0391
  103GLOH   H06 9619   3.744   2.727   0.951  1.5786  0.0955  0.1204
  103GLOH   H07 9620   3.879   2.833   0.946 -0.1723 -2.5032 -0.5309
  103GLOH    O3 9621   3.713   2.913   1.011 -0.3349  0.2163 -0.3965
  103GLOH   H01 9622   3.768   2.985   1.048  1.6958 -2.0878  1.2604
  104GLOH   H03 9623   4.265   3.362   2.011 -0.2169 -0.8164 -0.3387
  104GLOH    O1 9624   4.339   3.353   2.075 -0.4265 -0.7882 -0.0891
  104GLOH    C1 9625   4.341   3.452   2.178 -0.6629  0.1496 -0.3851
  104GLOH   H02 9626   4.281   3.427   2.265  1.1403  1.6076  1.3060
  104GLOH   H08 9627   4.295   3.539   2.131 -1.6075 -1.5132 -2.6292
  104GLOH    C2 9628   4.484   3.493   2.228 -0.2373 -0.5055  0.5014
  104GLOH   H04 9629   4.531   3.401   2.267  0.0943  0.1209  1.6351
  104GLOH    O2 9630   4.566   3.557   2.128 -0.4966 -0.3690 -0.4899
  104GLOH   H05 9631   4.515   3.555   2.045  0.3127 -1.5838 -0.9809
  104GLOH    C3 9632   4.459   3.591   2.351 -0.0214  0.0598  0.4882
  104GLOH   H06 9633   4.380   3.660   2.321 -1.4879 -0.9675  1.8624
  104GLOH   H07 9634   4.552   3.644   2.371 -0.2478  0.9952 -0.9133
  104GLOH    O3 9635   4.414   3.514   2.462 -1.0290  0.5675 -0.2325
  104GLOH   H01 9636   4.410   3.577   2.536  0.1532 -0.1543  0.4621
  105GLOH   H03 9637   3.509   3.900   1.022 -0.2230 -3.1733 -1.8102
  105GLOH    O1 9638   3.413   3.912   1.008 -0.2037 -0.0684  0.1065
  105GLOH    C1 9639   3.365   3.863   0.877  0.7027 -0.5592 -0.2516
  105GLOH   H02 9640   3.376   3.943   0.804  0.3733 -1.6265 -1.4945
  105GLOH   H08 9641   3.260   3.834   0.885 -0.4490  3.7511  1.9988
  105GLOH    C2 9642   3.440   3.747   0.810 -0.0302 -0.2372 -0.0529
  105GLOH   H04 9643   3.393   3.730   0.712 -0.1639 -2.6313  0.3911
  105GLOH    O2 9644   3.582   3.767   0.797 -0.3958 -0.5578 -0.8108
  105GLOH   H05 9645   3.589   3.844   0.738  2.9780 -0.1822 -0.0541
  105GLOH    C3 9646   3.415   3.612   0.881  1.0683 -0.3380  0.5324
  105GLOH   H06 9647   3.453   3.628   0.982  0.7080  0.2543  0.5772
  105GLOH   H07 9648   3.476   3.532   0.840  1.7437 -0.8311  2.4300
  105GLOH    O3 9649   3.279   3.570   0.867 -0.1960 -0.3818  0.3011
  105GLOH   H01 9650   3.275   3.482   0.908 -1.0121 -0.7532 -0.5563
  106GLOH   H03 9651   3.685   9.641   2.187  0.4628  4.9559  0.9923
  106GLOH    O1 9652   3.588   9.638   2.193  0.4198 -0.6324  0.0369
  106GLOH    C1 9653   3.564   9.635   2.336 -0.3165  0.9682 -0.0255
  106GLOH   H02 9654   3.609   9.547   2.382 -1.7569  0.7202  0.9390
  106GLOH   H08 9655   3.455   9.628   2.344 -0.2252 -1.1178 -0.3189
  106GLOH    C2 9656   3.614   9.756   2.413 -0.1341  0.0347  0.3043
  106GLOH   H04 9657   3.711   9.768   2.364  0.0046  0.0195  0.5723
  106GLOH    O2 9658   3.547   9.887   2.399 -0.0790  0.1588 -0.1224
  106GLOH   H05 9659   3.527   9.900   2.305 -0.1368 -2.4812 -0.5012
  106GLOH    C3 9660   3.637   9.723   2.559  0.9827 -0.0867 -0.4007
  106GLOH   H06 9661   3.677   9.813   2.606  1.2936  0.4262 -1.5989
  106GLOH   H07 9662   3.720   9.653   2.564  0.5563 -0.5416  0.2526
  106GLOH    O3 9663   3.516   9.696   2.624 -0.2064  0.3538 -0.2799
  106GLOH   H01 9664   3.540   9.643   2.702 -1.1657 -2.8131 -2.0277
  107GLOH   H03 9665   3.504   5.326   2.475 -1.5994 -1.4455  0.2104
  107GLOH    O1 9666   3.560   5.255   2.511  0.0499 -0.1828  0.2211
  107GLOH    C1 9667   3.528   5.198   2.636  0.2856 -0.7363 -0.1172
  107GLOH   H02 9668   3.612   5.198   2.705  0.0769  2.0036  0.2142
  107GLOH   H08 9669   3.496   5.097   2.612  1.6296 -0.4845 -3.2204
  107GLOH    C2 9670   3.402   5.261   2.701  0.4512  0.1119  0.3003
  107GLOH   H04 9671   3.329   5.275   2.621  2.6829  0.9094 -1.6397
  107GLOH    O2 9672   3.341   5.177   2.803  0.3649 -0.1153 -0.4447
  107GLOH   H05 9673   3.362   5.085   2.779  1.6099 -0.5861  2.2736
  107GLOH    C3 9674   3.427   5.398   2.752 -0.1215 -0.2002  0.5130
  107GLOH   H06 9675   3.506   5.434   2.687 -0.4918 -1.4510 -0.6540
  107GLOH   H07 9676   3.473   5.382   2.849  1.4342 -2.7273 -0.5952
  107GLOH    O3 9677   3.320   5.490   2.757  0.5713 -0.0480  0.5321
  107GLOH   H01 9678   3.293   5.514   2.666 -0.3204  0.1396  0.8430
  108GLOH   H03 9679   3.600   4.542   0.837  4.9770  0.0200 -1.2537
  108GLOH    O1 9680   3.596   4.463   0.780  0.4998 -0.8081 -0.0285
  108GLOH    C1 9681   3.509   4.485   0.676  0.0072  0.3468 -0.5489
  108GLOH   H02 9682   3.509   4.401   0.606 -2.0095  0.4581 -0.7079
  108GLOH   H08 9683   3.555   4.561   0.613  3.4621 -0.9889  0.2269
  108GLOH    C2 9684   3.366   4.523   0.711  0.2854 -0.2971  0.0849
  108GLOH   H04 9685   3.370   4.605   0.785 -2.5916 -0.3012  0.2871
  108GLOH    O2 9686   3.286   4.578   0.601 -0.2272 -0.2058 -0.1125
  108GLOH   H05 9687   3.215   4.636   0.633  0.1157  0.8036 -1.1880
  108GLOH    C3 9688   3.291   4.398   0.765  0.0031  0.3180  0.3376
  108GLOH   H06 9689   3.309   4.319   0.692 -1.5350 -0.6509  0.9865
  108GLOH   H07 9690   3.186   4.424   0.760 -0.3064 -1.0029  0.0139
  108GLOH    O3 9691   3.335   4.358   0.898  0.0056 -0.2091 -0.1746
  108GLOH   H01 9692   3.307   4.267   0.923  1.7202 -0.5325  0.6941
  109GLOH   H03 9693   2.642   4.718   0.627  2.1727 -1.5136 -0.4498
  109GLOH    O1 9694   2.587   4.662   0.568  0.1608  0.2025 -0.2776
  109GLOH    C1 9695   2.677   4.608   0.471 -0.2117  0.6553 -0.6213
  109GLOH   H02 9696   2.662   4.501   0.452 -1.3701  0.8980 -1.1337
  109GLOH   H08 9697   2.780   4.615   0.506 -0.2474 -0.0776 -0.3450
  109GLOH    C2 9698   2.684   4.683   0.340 -0.0416  0.2447  0.3729
  109GLOH   H04 9699   2.737   4.779   0.350 -1.6590  1.3336 -1.2429
  109GLOH    O2 9700   2.762   4.612   0.246 -0.2815 -0.4005  0.5435
  109GLOH   H05 9701   2.706   4.542   0.209 -1.5835  0.1576  1.4333
  109GLOH    C3 9702   2.550   4.724   0.285  0.2217  0.1028  0.2585
  109GLOH   H06 9703   2.489   4.635   0.269  0.1406  0.3369 -0.7795
  109GLOH   H07 9704   2.556   4.779   0.191  1.6000 -0.3395  0.0854
  109GLOH    O3 9705   2.480   4.816   0.376 -0.4165  0.0197 -0.4615
  109GLOH   H01 9706   2.464   4.763   0.457 -3.7518  1.7207  0.0967
  110GLOH   H03 9707   3.593   0.404   0.289  0.0317 -0.6599  0.1008
  110GLOH    O1 9708   3.620   0.371   0.201 -0.1872 -0.2245 -0.1314
  110GLOH    C1 9709   3.763   0.361   0.197  1.6985  0.5936 -0.6270
  110GLOH   H02 9710   3.802   0.276   0.141 -0.2745 -1.3231  0.8247
  110GLOH   H08 9711   3.804   0.348   0.297 -0.1071 -1.3899 -0.0952
  110GLOH    C2 9712   3.835   0.487   0.138  0.7848  1.0345  0.6362
  110GLOH   H04 9713   3.776   0.578   0.158  3.0083  3.0894 -1.7678
  110GLOH    O2 9714   3.974   0.497   0.183  0.2645 -0.7729  0.3164
  110GLOH   H05 9715   3.983   0.591   0.208  0.7687 -0.3834 -1.2687
  110GLOH    C3 9716   3.819   0.479  -0.017 -0.8552  0.3539 -0.0221
  110GLOH   H06 9717   3.721   0.433  -0.031 -0.1638 -1.6829  1.6361
  110GLOH   H07 9718   3.901   0.417  -0.052 -1.3990 -0.9802  1.0501
  110GLOH    O3 9719   3.810   0.611  -0.073 -0.2688  0.0951 -0.3612
  110GLOH   H01 9720   3.851   0.600  -0.161  3.6020  0.0212  1.3646
  111GLOH   H03 9721   3.907   3.056   0.170  2.1611  1.1896  1.2803
  111GLOH    O1 9722   3.902   2.976   0.225  0.2543  0.1317 -0.3518
  111GLOH    C1 9723   3.994   2.962   0.332 -0.9014  1.0620 -0.4945
  111GLOH   H02 9724   3.978   2.876   0.397  4.7251 -0.1950 -0.5052
  111GLOH   H08 9725   3.987   3.048   0.399  0.5634  1.1871 -0.4806
  111GLOH    C2 9726   4.136   2.937   0.275  0.0986 -0.2276  0.5765
  111GLOH   H04 9727   4.152   3.010   0.195 -2.6742 -0.3682 -0.1518
  111GLOH    O2 9728   4.239   2.972   0.376  0.2651  0.0659  0.6574
  111GLOH   H05 9729   4.209   2.931   0.459  1.2479  0.1027  1.0324
  111GLOH    C3 9730   4.162   2.789   0.227  0.1496 -0.5972  0.0255
  111GLOH   H06 9731   4.086   2.771   0.151  0.4138  1.2708 -0.7062
  111GLOH   H07 9732   4.140   2.719   0.307  1.6616  0.5506  1.4807
  111GLOH    O3 9733   4.302   2.764   0.188  0.0491 -0.2644  0.7095
  111GLOH   H01 9734   4.332   2.844   0.140  0.0151 -1.8667 -2.0881
  112GLOH   H03 9735   2.967   7.389   2.744 -1.2275  0.8942  1.0430
  112GLOH    O1 9736   3.007   7.436   2.819  0.3537  0.4924  0.4869
  112GLOH    C1 9737   2.903   7.466   2.918  0.5843  0.2265  0.2661
  112GLOH   H02 9738   2.879   7.386   2.988  0.5619  1.4432  1.7038
  112GLOH   H08 9739   2.807   7.498   2.876 -0.4285 -0.8226  1.6963
  112GLOH    C2 9740   2.956   7.574   3.012  0.1873  0.1840  0.3176
  112GLOH   H04 9741   2.987   7.654   2.944  2.0027 -2.0553 -1.5598
  112GLOH    O2 9742   2.854   7.628   3.103  0.1749 -0.1934  0.0205
  112GLOH   H05 9743   2.903   7.690   3.159  1.1153  0.5277 -1.5669
  112GLOH    C3 9744   3.084   7.526   3.080  0.4425 -0.1258  0.3200
  112GLOH   H06 9745   3.073   7.433   3.135  2.2383 -0.5583 -0.0497
  112GLOH   H07 9746   3.109   7.605   3.151  0.7692  0.0742 -0.0179
  112GLOH    O3 9747   3.181   7.496   2.976  0.5992 -0.3154 -0.7671
  112GLOH   H01 9748   3.131   7.460   2.901 -0.9359  1.3098 -0.5534
  113GLOH   H03 9749   3.337   9.369   0.568 -1.1761  0.2347  0.1591
  113GLOH    O1 9750   3.325   9.462   0.594  0.0821  0.3949  0.2138
  113GLOH    C1 9751   3.328   9.537   0.469 -0.1764 -0.0900  0.6430
  113GLOH   H02 9752   3.431   9.572   0.456 -0.3051 -0.3695 -1.2691
  113GLOH   H08 9753   3.268   9.628   0.478 -1.9489 -1.2584  0.6953
  113GLOH    C2 9754   3.288   9.469   0.336 -0.1979  0.2341 -0.3555
  113GLOH   H04 9755   3.180   9.453   0.337 -0.1433 -0.1092  0.0632
  113GLOH    O2 9756   3.319   9.548   0.222 -0.2261  0.1944  0.8566
  113GLOH   H05 9757   3.237   9.584   0.184  0.4219  1.1959  0.3844
  113GLOH    C3 9758   3.360   9.332   0.331  0.1689  0.2504 -0.0402
  113GLOH   H06 9759   3.464   9.362   0.338 -0.0537  1.0921 -0.3237
  113GLOH   H07 9760   3.347   9.292   0.230 -0.6605 -0.7100  0.4343
  113GLOH    O3 9761   3.317   9.253   0.446 -0.1945  0.0549  0.2283
  113GLOH   H01 9762   3.355   9.163   0.443  0.0886  0.1570  0.8548
  114GLOH   H03 9763   3.592   1.003   0.833 -0.7510 -0.5214  1.2405
  114GLOH    O1 9764   3.687   0.982   0.834 -0.5050  0.4508 -0.6036
  114GLOH    C1 9765   3.759   1.075   0.748  0.5477 -0.4650 -0.1027
  114GLOH   H02 9766   3.728   1.179   0.764  1.4664 -0.3551  1.0557
  114GLOH   H08 9767   3.748   1.044   0.644  0.1554  0.8452 -0.4683
  114GLOH    C2 9768   3.912   1.068   0.779 -0.1872 -0.7148  0.3116
  114GLOH   H04 9769   3.951   0.966   0.762 -1.1685 -0.6504 -2.5530
  114GLOH    O2 9770   3.970   1.155   0.678  0.2357  0.0665  0.4490
  114GLOH   H05 9771   3.945   1.123   0.590 -1.0672  0.7936  0.5413
  114GLOH    C3 9772   3.946   1.114   0.922  0.4873  0.4500 -0.2394
  114GLOH   H06 9773   3.869   1.073   0.988  0.3626  0.4372 -0.3916
  114GLOH   H07 9774   3.923   1.220   0.925 -1.2509  0.1652 -1.9534
  114GLOH    O3 9775   4.086   1.089   0.964  0.1183 -0.5499  0.4783
  114GLOH   H01 9776   4.076   1.137   1.048  2.1803 -1.1198  1.0545
  115GLOH   H03 9777   3.638   4.605   2.188  0.5033  1.8018  0.1895
  115GLOH    O1 9778   3.720   4.566   2.224 -0.1701 -0.4054 -0.5412
  115GLOH    C1 9779   3.768   4.470   2.117  0.4110  0.0684 -0.2787
  115GLOH   H02 9780   3.876   4.457   2.119  0.4300  0.1459 -0.6310
  115GLOH   H08 9781   3.758   4.506   2.014 -0.9116 -0.9157 -0.5014
  115GLOH    C2 9782   3.714   4.330   2.136 -0.4967  0.7065 -1.2256
  115GLOH   H04 9783   3.741   4.281   2.041 -0.6877 -2.6229  0.3734
  115GLOH    O2 9784   3.770   4.264   2.251  0.2446  0.3621 -0.0103
  115GLOH   H05 9785   3.718   4.190   2.286  1.7368 -0.8069 -0.1994
  115GLOH    C3 9786   3.565   4.341   2.153  0.1377 -0.5074  0.4445
  115GLOH   H06 9787   3.539   4.401   2.240  2.0999  0.7512  0.1711
  115GLOH   H07 9788   3.516   4.247   2.180 -1.7838  0.6076  0.9676
  115GLOH    O3 9789   3.509   4.412   2.041 -0.0072  0.9281  0.7933
  115GLOH   H01 9790   3.535   4.504   2.057 -2.9448  2.0193 -0.3749
  116GLOH   H03 9791   3.873   8.849   2.720  1.1143  0.0228 -1.5494
  116GLOH    O1 9792   3.913   8.934   2.748 -0.1295  0.1369 -0.0553
  116GLOH    C1 9793   3.822   9.009   2.836  0.4972  0.3427  0.2384
  116GLOH   H02 9794   3.885   9.076   2.895 -0.2234  1.1032  0.1469
  116GLOH   H08 9795   3.779   8.927   2.894  1.1959 -1.4578 -1.7303
  116GLOH    C2 9796   3.727   9.099   2.752  0.4097 -0.3493  0.3953
  116GLOH   H04 9797   3.690   9.037   2.670  0.6606  2.5699 -2.0137
  116GLOH    O2 9798   3.628   9.148   2.837 -0.3434 -0.0801 -0.0326
  116GLOH   H05 9799   3.598   9.070   2.887  0.5191 -1.0969 -1.0939
  116GLOH    C3 9800   3.797   9.226   2.700  0.0657 -0.5041  0.4665
  116GLOH   H06 9801   3.875   9.196   2.630  0.3216  0.2362  0.4333
  116GLOH   H07 9802   3.837   9.283   2.784 -1.2595 -1.5746  1.8569
  116GLOH    O3 9803   3.712   9.313   2.622  0.0216  0.2671  0.4354
  116GLOH   H01 9804   3.622   9.290   2.650  0.6592 -1.2879  1.3087
  117GLOH   H03 9805   4.748   2.075   1.742 -1.9103  1.9268  0.0325
  117GLOH    O1 9806   4.697   2.009   1.792  0.0937  0.3700  0.0641
  117GLOH    C1 9807   4.704   1.878   1.726  0.2228  0.5353  0.3656
  117GLOH   H02 9808   4.730   1.805   1.802  0.5140 -0.2768 -0.5149
  117GLOH   H08 9809   4.779   1.879   1.647 -1.9117 -0.7701 -1.7382
  117GLOH    C2 9810   4.570   1.848   1.651  0.3849 -0.0922  0.1892
  117GLOH   H04 9811   4.541   1.923   1.576 -0.6991 -0.5112  0.1797
  117GLOH    O2 9812   4.580   1.714   1.587  0.1699 -1.1701 -0.8948
  117GLOH   H05 9813   4.582   1.726   1.491 -2.0253 -0.4607 -0.8733
  117GLOH    C3 9814   4.455   1.853   1.755 -0.0015  0.0369  0.1308
  117GLOH   H06 9815   4.468   1.942   1.816  1.4633 -0.8822  1.1801
  117GLOH   H07 9816   4.453   1.766   1.820  0.4275 -0.4155 -0.4603
  117GLOH    O3 9817   4.332   1.844   1.684 -0.1989  0.1940  0.1031
  117GLOH   H01 9818   4.307   1.756   1.648  0.7201  0.5584 -1.4883
  118GLOH   H03 9819   3.502   9.803   1.842 -0.2309  0.1687 -0.8267
  118GLOH    O1 9820   3.543   9.731   1.791 -0.3177 -0.1699 -0.4190
  118GLOH    C1 9821   3.487   9.748   1.658 -0.6163  0.2955  0.1379
  118GLOH   H02 9822   3.513   9.846   1.620  1.4084 -0.1376  0.2962
  118GLOH   H08 9823   3.379   9.744   1.643 -0.3537  0.6252 -1.9215
  118GLOH    C2 9824   3.557   9.649   1.567 -0.2837 -0.0282  0.5246
  118GLOH   H04 9825   3.528   9.551   1.607 -0.2611 -0.4309 -0.4288
  118GLOH    O2 9826   3.504   9.657   1.432  0.0161  0.4141  0.1283
  118GLOH   H05 9827   3.562   9.604   1.374  0.4042  0.2926  0.6268
  118GLOH    C3 9828   3.707   9.657   1.554 -0.2494 -0.7231  0.4956
  118GLOH   H06 9829   3.735   9.582   1.480  1.4984  0.8001 -0.4344
  118GLOH   H07 9830   3.756   9.625   1.646  0.6199 -0.1449  0.2406
  118GLOH    O3 9831   3.753   9.786   1.512 -0.0666  0.0556 -0.0005
  118GLOH   H01 9832   3.705   9.821   1.435 -0.3171  1.2305  0.6644
  119GLOH   H03 9833   3.977   1.296   0.719 -2.5348  0.6053  2.1571
  119GLOH    O1 9834   3.985   1.393   0.728  0.3187  0.6267 -0.1854
  119GLOH    C1 9835   4.117   1.427   0.693 -0.1238 -0.3782 -0.0356
  119GLOH   H02 9836   4.128   1.535   0.683 -0.4822 -0.4191 -0.8572
  119GLOH   H08 9837   4.150   1.383   0.599  0.7934 -0.9767  0.5468
  119GLOH    C2 9838   4.210   1.393   0.813  0.4289 -0.1908 -0.3427
  119GLOH   H04 9839   4.160   1.404   0.911  0.9385  0.2547 -0.1291
  119GLOH    O2 9840   4.241   1.253   0.796 -0.7713  0.3659 -0.5861
  119GLOH   H05 9841   4.179   1.192   0.840  0.0686  0.8717  1.3222
  119GLOH    C3 9842   4.320   1.502   0.812  0.3029 -0.2192  0.7303
  119GLOH   H06 9843   4.379   1.478   0.724  0.0361 -0.1908  0.5418
  119GLOH   H07 9844   4.391   1.483   0.893  1.3927 -1.2920 -0.4555
  119GLOH    O3 9845   4.282   1.638   0.800  0.1425 -0.2452 -0.2575
  119GLOH   H01 9846   4.245   1.667   0.886  0.1814  1.5134 -0.7996
  120GLOH   H03 9847   3.281   2.706   1.564  2.4382 -1.4742  0.0281
  120GLOH    O1 9848   3.240   2.621   1.588 -0.3241 -0.2919 -0.3135
  120GLOH    C1 9849   3.223   2.540   1.465 -0.2224  0.2253 -0.2234
  120GLOH   H02 9850   3.147   2.587   1.403 -1.0672 -0.3021  0.4111
  120GLOH   H08 9851   3.195   2.437   1.489  0.2355 -0.3422 -2.0879
  120GLOH    C2 9852   3.354   2.512   1.376  0.7974 -1.1868  0.4362
  120GLOH   H04 9853   3.385   2.614   1.347 -0.0613 -1.0629 -0.0815
  120GLOH    O2 9854   3.466   2.449   1.443 -0.0609 -0.1408  0.6446
  120GLOH   H05 9855   3.523   2.505   1.498  2.8400 -1.0734 -1.2966
  120GLOH    C3 9856   3.314   2.432   1.246  0.4942 -0.3967  0.3003
  120GLOH   H06 9857   3.276   2.335   1.278 -0.6166  0.0103  0.2348
  120GLOH   H07 9858   3.403   2.425   1.184  2.7043  3.7957  2.7815
  120GLOH    O3 9859   3.208   2.496   1.167  0.3438 -0.0172  0.5460
  120GLOH   H01 9860   3.243   2.493   1.076 -2.2459  0.3203 -0.4985
  121ACOH    H4 9861   4.470   1.370   2.820  0.8478 -1.5084 -2.8281
  121ACOH    O2 9862   4.558   1.411   2.815  0.0679  0.5691 -0.6802
  121ACOH    C2 9863   4.579   1.492   2.920  1.0007 -0.3431  0.3714
  121ACOH    O1 9864   4.491   1.534   2.993 -0.0877 -0.1556  0.2508
  121ACOH    C1 9865   4.714   1.534   2.927  0.1874 -0.5396 -0.6374
  121ACOH    H1 9866   4.766   1.485   3.009 -1.5080  0.1797  0.8779
  121ACOH    H2 9867   4.704   1.641   2.940 -0.0545 -0.7341  0.8915
  121ACOH    H3 9868   4.766   1.509   2.834  0.4397 -0.5112 -0.5058
  122ACOH    H4 9869   3.633   7.501   0.487 -1.1636 -0.7886 -0.4716
  122ACOH    O2 9870   3.669   7.421   0.528  0.0520  0.1568  0.3639
  122ACOH    C2 9871   3.577   7.369   0.612  0.2731  0.4743  0.1888
  122ACOH    O1 9872   3.508   7.430   0.685 -0.0622  0.0293 -0.6198
  122ACOH    C1 9873   3.610   7.223   0.621 -0.2726  0.1772  0.1953
  122ACOH    H1 9874   3.518   7.167   0.604  0.0955 -0.1891 -0.6165
  122ACOH    H2 9875   3.654   7.208   0.720  2.1762  0.0463 -0.8850
  122ACOH    H3 9876   3.682   7.190   0.546 -0.9406 -0.9275  0.0236
  123ACOH    H4 9877   3.205   1.271   2.453 -0.3965 -0.1842  0.9696
  123ACOH    O2 9878   3.181   1.361   2.482  0.1784  0.1095  0.5351
  123ACOH    C2 9879   3.260   1.385   2.587 -0.5136  0.8237  0.3608
  123ACOH    O1 9880   3.355   1.315   2.626 -0.2788 -0.5558 -0.2351
  123ACOH    C1 9881   3.215   1.508   2.653 -1.0722 -0.1926 -0.1158
  123ACOH    H1 9882   3.248   1.511   2.757  0.4398 -0.3879 -0.5853
  123ACOH    H2 9883   3.106   1.503   2.654 -1.1134  0.6873 -0.5323
  123ACOH    H3 9884   3.246   1.597   2.599 -0.0788  0.8821  2.1259
  124ACOH    H4 9885   4.657   2.590   2.832  1.3806  0.4185  0.9862
  124ACOH    O2 9886   4.674   2.667   2.774  0.2939 -0.1726 -0.1347
  124ACOH    C2 9887   4.560   2.681   2.698  0.4690 -0.5721 -0.4281
  124ACOH    O1 9888   4.451   2.642   2.733  0.5565 -0.0467 -0.0723
  124ACOH    C1 9889   4.579   2.761   2.573  0.1624  0.1358  0.4749
  124ACOH    H1 9890   4.518   2.727   2.490  0.8096  3.2506 -1.3419
  124ACOH    H2 9891   4.686   2.778   2.559  0.3060 -1.8186 -1.0223
  124ACOH    H3 9892   4.543   2.861   2.597  0.6876  0.3148  0.5325
  125ACOH    H4 9893   5.526   8.994   2.087  0.2213 -0.3170  0.7977
  125ACOH    O2 9894   5.545   9.080   2.047  0.0706 -0.4771  0.3760
  125ACOH    C2 9895   5.674   9.076   2.011  0.2923  0.5213  0.1447
  125ACOH    O1 9896   5.749   8.980   2.020 -0.4063  0.3716 -0.6581
  125ACOH    C1 9897   5.724   9.214   1.981 -0.3150 -0.3637 -0.0648
  125ACOH    H1 9898   5.641   9.283   1.991 -0.4273 -0.9305  3.8143
  125ACOH    H2 9899   5.768   9.219   1.881  0.6261  0.5526  0.3851
  125ACOH    H3 9900   5.799   9.241   2.056  0.5013  1.8795 -1.6237
  126ACOH    H4 9901   3.240   9.786   0.726  0.4504 -0.1923  0.2407
  126ACOH    O2 9902   3.182   9.865   0.729  0.2095 -0.3401 -0.4505
  126ACOH    C2 9903   3.055   9.817   0.731 -0.6983 -0.8430  0.1772
  126ACOH    O1 9904   3.023   9.713   0.676  0.4366  0.1180  0.9030
  126ACOH    C1 9905   2.961   9.929   0.748  0.2875 -0.1723 -0.2415
  126ACOH    H1 9906   2.983  10.006   0.675  1.5920 -0.5787 -0.3014
  126ACOH    H2 9907   2.976   9.975   0.846 -0.2690  0.6100 -0.5269
  126ACOH    H3 9908   2.858   9.894   0.739  0.9683 -2.3837  0.1391
  127ACOH    H4 9909   3.989   1.322   2.356  0.7491 -0.1840  0.0104
  127ACOH    O2 9910   4.024   1.329   2.446 -0.0893  0.7710  0.2820
  127ACOH    C2 9911   4.060   1.204   2.481 -0.1925 -0.3725  0.6139
  127ACOH    O1 9912   4.080   1.108   2.406  0.0709 -0.4549 -0.2703
  127ACOH    C1 9913   4.070   1.165   2.622 -0.6085 -0.1522  0.1792
  127ACOH    H1 9914   4.037   1.241   2.693  4.1803  0.8002  1.5926
  127ACOH    H2 9915   4.175   1.163   2.650 -1.0376  0.1505  1.8641
  127ACOH    H3 9916   4.026   1.066   2.634  1.2263 -0.9769  0.2799
  128ACOH    H4 9917   2.666   3.786   1.821  3.9293  0.5754 -1.2672
  128ACOH    O2 9918   2.636   3.853   1.757  0.1383  0.0126 -0.2609
  128ACOH    C2 9919   2.609   3.965   1.827  0.1025  0.3376 -0.0778
  128ACOH    O1 9920   2.617   3.983   1.949  0.1735 -0.4606  0.0397
  128ACOH    C1 9921   2.578   4.079   1.740  0.5553 -0.1181 -0.0727
  128ACOH    H1 9922   2.489   4.053   1.683  1.3606 -3.0981 -0.0673
  128ACOH    H2 9923   2.652   4.085   1.660  1.3546  3.0895  0.8157
  128ACOH    H3 9924   2.562   4.169   1.799  1.5926 -1.5220  2.4304
  129ACOH    H4 9925   3.287   1.876   0.571 -1.4671  0.9952 -1.4127
  129ACOH    O2 9926   3.241   1.797   0.538 -0.2811 -0.2333 -0.1837
  129ACOH    C2 9927   3.275   1.697   0.624 -0.0807 -0.4223  0.5840
  129ACOH    O1 9928   3.353   1.706   0.719 -0.2074  0.3021  0.0680
  129ACOH    C1 9929   3.214   1.568   0.594 -0.3711  0.1534 -0.2756
  129ACOH    H1 9930   3.295   1.500   0.569  0.8980  1.5101  0.0919
  129ACOH    H2 9931   3.137   1.572   0.517  0.2664  0.8905 -0.8727
  129ACOH    H3 9932   3.177   1.519   0.684 -0.0395  0.6495  0.1330
  130ACOH    H4 9933   4.856   4.150   0.348  0.1201 -2.1980  0.8619
  130ACOH    O2 9934   4.933   4.169   0.403  0.1627 -0.5111  0.2471
  130ACOH    C2 9935   5.025   4.069   0.388  1.0456  1.1497 -0.2147
  130ACOH    O1 9936   4.999   3.974   0.314 -0.6388  0.5192 -0.5021
  130ACOH    C1 9937   5.161   4.096   0.439 -0.2482 -0.3891  0.2278
  130ACOH    H1 9938   5.221   4.105   0.349 -3.1246  0.7744 -1.6792
  130ACOH    H2 9939   5.202   4.023   0.508 -0.8097  0.5913  1.6360
  130ACOH    H3 9940   5.162   4.191   0.494  2.3841 -0.6481  0.6457
  131ACOH    H4 9941   5.098   3.258   0.800  1.0186  1.9386  1.2957
  131ACOH    O2 9942   5.189   3.223   0.809  0.2506 -0.2341  0.8716
  131ACOH    C2 9943   5.270   3.307   0.735 -0.1689  0.0345 -0.0996
  131ACOH    O1 9944   5.236   3.409   0.673  0.0251  0.2723 -0.1920
  131ACOH    C1 9945   5.412   3.259   0.740 -0.1962  0.2061  0.1363
  131ACOH    H1 9946   5.425   3.156   0.774  2.9932 -0.1175 -1.8036
  131ACOH    H2 9947   5.464   3.324   0.811  0.0944 -0.2864  0.3827
  131ACOH    H3 9948   5.462   3.272   0.644  1.6215 -0.9332  0.8995
  132ACOH    H4 9949   4.869   1.585   0.793  0.0121  0.9587 -2.7345
  132ACOH    O2 9950   4.864   1.496   0.753  0.5464 -0.5332  0.3317
  132ACOH    C2 9951   4.766   1.513   0.657  0.7987 -0.3791 -0.5415
  132ACOH    O1 9952   4.712   1.621   0.624  0.0746 -0.0628 -0.3299
  132ACOH    C1 9953   4.751   1.378   0.594  0.1233  0.5049  0.7576
  132ACOH    H1 9954   4.659   1.365   0.538  0.4881  0.1488  0.2380
  132ACOH    H2 9955   4.750   1.298   0.667  1.6418  0.9623  1.3082
  132ACOH    H3 9956   4.833   1.366   0.524 -0.9706 -0.5062 -0.3702
  133ACOH    H4 9957   4.245   4.970   1.143 -0.2901  0.1997  0.9853
  133ACOH    O2 9958   4.317   4.944   1.083 -0.1514  0.3781  1.0720
  133ACOH    C2 9959   4.284   4.830   1.019  0.2473  0.1072  0.6842
  133ACOH    O1 9960   4.202   4.748   1.056 -0.7508 -0.7398 -0.6697
  133ACOH    C1 9961   4.393   4.789   0.927  0.7718 -0.1435 -0.5175
  133ACOH    H1 9962   4.450   4.704   0.966  1.4246 -0.2355 -1.6474
  133ACOH    H2 9963   4.459   4.873   0.908  1.4665 -0.5604  0.0302
  133ACOH    H3 9964   4.341   4.752   0.838  2.0349 -2.0777 -0.4885
  134ACOH    H4 9965   3.063   6.156   2.544 -0.7322 -0.5585 -1.4819
  134ACOH    O2 9966   3.108   6.070   2.542  0.5759  0.0853 -0.5434
  134ACOH    C2 9967   3.103   6.027   2.419  0.1368 -0.0092 -0.4931
  134ACOH    O1 9968   3.048   6.090   2.328  0.2946  0.5330 -0.1153
  134ACOH    C1 9969   3.165   5.894   2.401  0.4400 -0.2792 -0.2104
  134ACOH    H1 9970   3.248   5.884   2.471  0.4336 -2.5233 -0.4865
  134ACOH    H2 9971   3.193   5.880   2.296 -1.6888  2.1713 -1.1704
  134ACOH    H3 9972   3.091   5.821   2.433  0.0341 -0.2431 -1.0600
  135ACOH    H4 9973   2.761   7.099   2.054  0.2069  2.6097  2.3217
  135ACOH    O2 9974   2.714   7.156   1.991 -0.0572  0.1862  0.2311
  135ACOH    C2 9975   2.608   7.105   1.940  0.2565 -0.1409  0.2410
  135ACOH    O1 9976   2.546   7.032   2.008 -0.3017  0.0011 -0.0363
  135ACOH    C1 9977   2.553   7.203   1.836 -0.8395 -0.4233 -0.4291
  135ACOH    H1 9978   2.642   7.235   1.782  0.3233 -2.7359  0.0457
  135ACOH    H2 9979   2.503   7.288   1.884 -0.5746  0.0025 -0.9068
  135ACOH    H3 9980   2.485   7.161   1.762 -3.1420  2.6959 -0.1983
  136ACOH    H4 9981   4.276   3.952   2.357 -0.4703 -0.3891 -0.7904
  136ACOH    O2 9982   4.331   4.032   2.354  0.4109 -0.9244  0.6986
  136ACOH    C2 9983   4.463   3.998   2.350 -0.3606  0.7341 -0.7237
  136ACOH    O1 9984   4.500   3.887   2.383 -0.3761  0.3971 -0.2164
  136ACOH    C1 9985   4.547   4.111   2.307 -0.8915 -0.3885  0.7740
  136ACOH    H1 9986   4.517   4.157   2.213  0.2829 -0.7234  0.2243
  136ACOH    H2 9987   4.652   4.084   2.296 -0.4075  2.0704 -1.0681
  136ACOH    H3 9988   4.547   4.186   2.386  1.5293  0.9669 -0.4544
  137ACOH    H4 9989   3.098   9.015   0.514  0.3327 -0.4828 -0.1359
  137ACOH    O2 9990   3.074   9.109   0.515  0.0412 -0.5582  0.1302
  137ACOH    C2 9991   3.006   9.141   0.398 -0.1447 -0.5947  0.0885
  137ACOH    O1 9992   2.974   9.056   0.316  0.2246 -0.1461 -0.0204
  137ACOH    C1 9993   2.954   9.273   0.412 -0.3254 -0.4029 -0.0445
  137ACOH    H1 9994   2.936   9.296   0.517 -1.3155 -0.3446 -0.2290
  137ACOH    H2 9995   2.861   9.284   0.357 -0.9453 -3.3374  0.3659
  137ACOH    H3 9996   3.026   9.347   0.377 -1.3105  0.2577 -0.6914
  138ACOH    H4 9997   4.047   0.472   0.501 -1.1698  0.2860  1.0513
  138ACOH    O2 9998   3.986   0.398   0.482  0.1662 -0.4671 -0.4185
  138ACOH    C2 9999   4.015   0.298   0.566 -0.4016 -0.4199  0.4017
  138ACOH    O110000   4.081   0.303   0.661 -0.8488  0.2921 -0.1838
  138ACOH    C110001   3.920   0.190   0.528  0.0097 -1.1428  0.2246
  138ACOH    H110002   3.940   0.181   0.422  1.4561  2.6716  0.0930
  138ACOH    H210003   3.819   0.218   0.556  0.4248  0.5117  0.1209
  138ACOH    H310004   3.944   0.098   0.582  0.3374 -0.2228  1.6951
  139ACOH    H410005   4.034   9.109   0.464  0.0830 -0.5133 -0.4578
  139ACOH    O210006   4.099   9.040   0.443  0.5933 -0.1201 -0.1915
  139ACOH    C210007   4.138   9.048   0.314 -0.2230 -0.3401 -0.0825
  139ACOH    O110008   4.066   9.091   0.226 -0.5035  0.2071  0.4336
  139ACOH    C110009   4.250   8.954   0.282 -0.1730  0.1586  0.1246
  139ACOH    H110010   4.320   8.947   0.365 -1.3333 -0.1252  1.0881
  139ACOH    H210011   4.287   8.983   0.184 -3.1463 -0.4879 -1.2512
  139ACOH    H310012   4.208   8.854   0.267  0.2603  0.0619 -0.4821
  140ACOH    H410013   3.372   5.073   1.595 -0.5252  0.2261  0.2205
  140ACOH    O210014   3.306   5.110   1.534 -0.1236  0.3894 -0.1254
  140ACOH    C210015   3.329   5.244   1.536  0.3625 -0.9302 -0.0453
  140ACOH    O110016   3.431   5.308   1.563  0.5146 -0.5978 -0.1968
  140ACOH    C110017   3.209   5.311   1.471  0.5080 -0.4380  0.7445
  140ACOH    H110018   3.244   5.382   1.396 -1.3516  2.0857  2.1850
  140ACOH    H210019   3.172   5.374   1.552  1.9877  0.5070  0.7104
  140ACOH    H310020   3.133   5.246   1.429 -1.4563  2.5103 -0.4385
  141ACOH    H410021   4.291   1.397   0.298  2.4709  0.6854 -1.5304
  141ACOH    O210022   4.336   1.360   0.376 -0.1351  0.4837 -0.0615
  141ACOH    C210023   4.344   1.223   0.348  0.1611 -0.4340  0.0468
  141ACOH    O110024   4.331   1.161   0.244 -0.0569  0.2311 -0.9346
  141ACOH    C110025   4.387   1.148   0.469  0.0612 -0.2912 -0.7359
  141ACOH    H110026   4.489   1.112   0.458 -0.6336 -2.0014 -1.7386
  141ACOH    H210027   4.320   1.063   0.479 -3.6613  2.6542  0.7851
  141ACOH    H310028   4.371   1.207   0.559  0.3535 -3.5620  1.5534
  142ACOH    H410029   3.809   9.927   1.579 -0.1167  0.3903  0.5196
  142ACOH    O210030   3.858  10.010   1.591  0.4499  0.1303  0.0648
  142ACOH    C210031   3.871  10.014   1.721  0.6707  0.7832  0.5142
  142ACOH    O110032   3.814   9.959   1.815 -0.0329 -0.2610 -1.2232
  142ACOH    C110033   3.949  10.134   1.752  0.6209  0.0166 -0.2297
  142ACOH    H110034   4.020  10.115   1.833  0.7011  0.1497 -0.2682
  142ACOH    H210035   3.877  10.198   1.803  0.5537  0.0251 -0.3366
  142ACOH    H310036   3.987  10.190   1.667 -0.6704 -0.1412 -0.9213
  143ACOH    H410037   2.336   5.729   0.130 -0.5879  0.1234 -0.9323
  143ACOH    O210038   2.242   5.725   0.156 -0.5859 -0.1268 -0.9589
  143ACOH    C210039   2.176   5.814   0.076  0.0300 -0.4730 -0.1345
  143ACOH    O110040   2.229   5.919   0.044  0.1310  0.0451  0.2126
  143ACOH    C110041   2.034   5.801   0.083  0.3855  0.3564 -0.4181
  143ACOH    H110042   1.983   5.898   0.084  2.8293  1.7002 -0.5473
  143ACOH    H210043   1.998   5.744   0.169  0.6295  0.8511  0.0158
  143ACOH    H310044   2.007   5.745  -0.006  0.0757 -0.2950  0.0845
  144ACOH    H410045   4.723   3.635   2.119  0.6233 -2.3713  2.3049
  144ACOH    O210046   4.793   3.700   2.139 -0.7048 -0.0889 -0.1433
  144ACOH    C210047   4.812   3.772   2.023  0.5960 -0.0250  0.1607
  144ACOH    O110048   4.726   3.780   1.935  0.5278 -0.0038 -0.3600
  144ACOH    C110049   4.924   3.866   2.033  0.4333 -0.5646  0.2126
  144ACOH    H110050   4.886   3.963   2.064  1.6150  0.3779 -1.1862
  144ACOH    H210051   4.970   3.883   1.935 -0.2237  0.6165  0.0923
  144ACOH    H310052   4.990   3.827   2.110 -0.0917 -0.6791  0.6058
  145ACOH    H410053   4.117   8.283   1.587  1.8109  0.1932  2.0075
  145ACOH    O210054   4.199   8.259   1.542  0.7840  0.3137  0.0181
  145ACOH    C210055   4.209   8.340   1.429 -0.3692 -0.0235 -0.4932
  145ACOH    O110056   4.133   8.425   1.397 -0.8111 -0.3355  0.1504
  145ACOH    C110057   4.329   8.306   1.345  0.5064 -0.6659 -0.9028
  145ACOH    H110058   4.382   8.226   1.396  1.6965  0.9843  0.5338
  145ACOH    H210059   4.394   8.390   1.319  0.2428  0.4298  1.7554
  145ACOH    H310060   4.290   8.264   1.252 -3.2623 -0.2053  0.3569
  146ACOH    H410061   4.206   4.772   0.590 -0.5779  0.4775  0.8645
  146ACOH    O210062   4.158   4.727   0.662 -0.7893 -0.4935  0.1332
  146ACOH    C210063   4.063   4.647   0.605 -1.0465  0.5431 -0.0379
  146ACOH    O110064   4.054   4.631   0.487 -0.1295 -0.1126  0.2015
  146ACOH    C110065   3.978   4.579   0.702 -0.5895  0.1377 -0.0439
  146ACOH    H110066   3.940   4.645   0.779 -0.5071  0.5231 -0.3333
  146ACOH    H210067   4.037   4.506   0.757  2.3024  0.3387 -2.6880
  146ACOH    H310068   3.902   4.517   0.654 -1.0706  0.4042  0.3831
  147ACOH    H410069   3.767   8.040   1.736 -2.5147  2.5176  0.6220
  147ACOH    O210070   3.839   8.097   1.768 -0.0182  0.1153 -0.4222
  147ACOH    C210071   3.825   8.108   1.907 -0.6368  0.9242 -0.4503
  147ACOH    O110072   3.753   8.039   1.975  0.1373  0.2365  0.2154
  147ACOH    C110073   3.910   8.214   1.967 -0.0366 -0.0829 -0.6783
  147ACOH    H110074   3.847   8.303   1.960 -2.5352 -1.7394  0.2106
  147ACOH    H210075   4.003   8.227   1.911  1.7931 -0.7588  2.0900
  147ACOH    H310076   3.944   8.201   2.070 -0.7558  0.5089 -0.3648
  148ACOH    H410077   5.061   2.915   1.658 -1.6622  0.7419 -0.6841
  148ACOH    O210078   5.099   2.998   1.690  0.0097 -0.3144  0.1615
  148ACOH    C210079   5.110   3.073   1.584  0.4808  0.3722 -1.0829
  148ACOH    O110080   5.099   3.036   1.464 -0.2275 -0.1462 -0.3655
  148ACOH    C110081   5.142   3.219   1.615 -0.1985 -0.0631  0.2662
  148ACOH    H110082   5.059   3.284   1.643 -0.1907  0.1890 -0.2763
  148ACOH    H210083   5.191   3.271   1.532 -0.8394  0.0933 -0.0188
  148ACOH    H310084   5.220   3.220   1.690  0.1862 -0.1557 -0.1307
  149ACOH    H410085   4.638   4.158   2.608  0.6101 -0.4936 -0.7178
  149ACOH    O210086   4.733   4.147   2.590  0.7527  0.2655 -0.4505
  149ACOH    C210087   4.794   4.133   2.705 -0.1700  0.6647  0.3146
  149ACOH    O110088   4.758   4.153   2.822  0.1776  0.2867 -0.1040
  149ACOH    C110089   4.923   4.073   2.671 -1.1966 -0.1739  0.3770
  149ACOH    H110090   4.908   3.990   2.602 -2.0890 -0.9916  1.5399
  149ACOH    H210091   4.975   4.035   2.758 -0.4945 -1.9189 -0.7680
  149ACOH    H310092   4.982   4.149   2.619  1.2523 -0.9090  2.0144
  150ACOH    H410093   3.249   5.913   0.281  1.4004 -0.1975 -1.3686
  150ACOH    O210094   3.280   5.900   0.372  0.0510  0.1541 -0.8338
  150ACOH    C210095   3.185   5.949   0.446  0.5323  0.2938  0.5320
  150ACOH    O110096   3.086   6.007   0.414 -0.3071 -0.2256  0.2516
  150ACOH    C110097   3.205   5.918   0.590 -0.1468 -0.2875 -0.8160
  150ACOH    H110098   3.110   5.891   0.637  0.0718  2.6503  1.4976
  150ACOH    H210099   3.253   6.003   0.639  3.9830 -2.1200 -1.4782
  150ACOH    H310100   3.271   5.832   0.600  2.0643  1.3214 -1.2011
  151ACOH    H410101   3.091   3.348   0.267 -1.1772 -0.4897  0.8389
  151ACOH    O210102   3.073   3.294   0.188  0.1004  0.2736  0.0004
  151ACOH    C210103   2.981   3.207   0.220 -0.1411 -0.3558  1.0804
  151ACOH    O110104   2.968   3.139   0.316  0.7788  0.0832 -0.3488
  151ACOH    C110105   2.910   3.160   0.095 -0.3389 -0.6339  0.7329
  151ACOH    H110106   2.809   3.125   0.115  0.6199 -3.7608  0.4099
  151ACOH    H210107   2.978   3.084   0.058 -1.4654  0.7399 -4.5731
  151ACOH    H310108   2.913   3.248   0.031  0.8554 -1.9512 -1.0824
  152ACOH    H410109   2.646   9.799   1.539 -1.3560  1.1204  1.1990
  152ACOH    O210110   2.575   9.812   1.474 -0.2103  0.3923 -0.2141
  152ACOH    C210111   2.477   9.881   1.531 -0.4057 -0.6272  0.4594
  152ACOH    O110112   2.507   9.988   1.581 -0.4494  0.4911 -0.6401
  152ACOH    C110113   2.350   9.877   1.463  0.6827  0.4304 -0.2554
  152ACOH    H110114   2.346   9.842   1.360 -1.9884 -0.1670  0.0051
  152ACOH    H210115   2.302   9.974   1.454  0.2822  0.2197 -0.4374
  152ACOH    H310116   2.280   9.814   1.518  0.1747  1.0870 -0.1525
  153ACOH    H410117   4.826   2.793   1.390 -0.4990  0.5646 -1.2971
  153ACOH    O210118   4.854   2.701   1.378 -0.1903  0.4563  0.2285
  153ACOH    C210119   4.912   2.679   1.256  0.0558  0.8798 -0.2243
  153ACOH    O110120   4.937   2.772   1.183  0.7178 -0.3123 -0.2010
  153ACOH    C110121   4.901   2.542   1.211 -0.3336  0.2578  0.4776
  153ACOH    H110122   4.973   2.477   1.261  2.6681  1.6172 -1.9114
  153ACOH    H210123   4.924   2.550   1.104 -1.6041 -2.6335 -0.0602
  153ACOH    H310124   4.795   2.518   1.219 -0.2386  0.0399  1.0681
  154ACOH    H410125   3.007   1.948   1.274  0.9254  0.0014  0.6880
  154ACOH    O210126   3.039   1.937   1.183  0.0907  0.4163  0.3403
  154ACOH    C210127   2.928   1.932   1.108 -0.2190 -0.6411  0.0725
  154ACOH    O110128   2.813   1.935   1.134 -0.0964 -0.4281 -0.4735
  154ACOH    C110129   2.968   1.932   0.964  0.2554 -0.4096 -1.1025
  154ACOH    H110130   2.891   1.866   0.926 -2.0453  0.2840  2.1380
  154ACOH    H210131   3.066   1.885   0.952  1.4716  1.6643  0.4013
  154ACOH    H310132   2.968   2.033   0.922 -0.6860 -0.8261 -2.1107
  155ACOH    H410133   2.193   5.797   0.731  0.0835 -0.4274 -0.4149
  155ACOH    O210134   2.177   5.863   0.800 -0.4316 -0.6234 -0.3396
  155ACOH    C210135   2.069   5.944   0.766  0.1312 -0.0896 -0.5459
  155ACOH    O110136   2.007   5.938   0.663  0.3833  0.1169  0.3141
  155ACOH    C110137   2.026   6.048   0.864 -0.2373  0.1182  0.3444
  155ACOH    H110138   1.940   6.107   0.835 -1.1094 -2.0477 -1.5609
  155ACOH    H210139   2.113   6.114   0.875 -0.3841  0.6451 -1.5563
  155ACOH    H310140   1.999   6.013   0.963  2.2806  0.8646  1.3469
  156ACOH    H410141   3.830   0.742   0.535  0.5710  0.1059 -0.3921
  156ACOH    O210142   3.885   0.820   0.518  0.1539  0.4442 -0.1927
  156ACOH    C210143   4.015   0.791   0.502  0.2402  0.3160 -0.7730
  156ACOH    O110144   4.060   0.675   0.513  0.5099 -0.1702 -0.1303
  156ACOH    C110145   4.090   0.901   0.448 -0.0429  0.2969 -0.0742
  156ACOH    H110146   4.034   0.961   0.377 -0.2510  3.2971  2.4840
  156ACOH    H210147   4.185   0.870   0.403  0.4370  0.4081  0.8486
  156ACOH    H310148   4.119   0.971   0.527  0.9509 -0.1758 -0.0080
  157ACOH    H410149   4.795   2.442   1.575  1.4744  1.9003  0.1348
  157ACOH    O210150   4.858   2.395   1.517 -0.0355 -0.2717  0.2410
  157ACOH    C210151   4.863   2.272   1.570  0.0324 -0.3204 -0.0541
  157ACOH    O110152   4.802   2.231   1.665  0.6569 -0.3894  0.0370
  157ACOH    C110153   4.957   2.199   1.483  0.7328  0.4456 -0.2221
  157ACOH    H110154   4.943   2.092   1.500  0.4597  0.6954  1.2383
  157ACOH    H210155   5.056   2.217   1.526 -0.1889 -0.1405  2.2128
  157ACOH    H310156   4.954   2.215   1.376  0.8919  0.0147 -0.2951
  158ACOH    H410157   3.910   4.833   1.438 -2.2389  1.2996 -1.6735
  158ACOH    O210158   3.951   4.920   1.422  0.1859  0.5352  0.0770
  158ACOH    C210159   3.907   4.996   1.525 -0.1576 -0.1853  0.3901
  158ACOH    O110160   3.827   4.971   1.610 -0.1764 -0.4910  0.0166
  158ACOH    C110161   3.943   5.139   1.505 -0.1876  0.4601  0.3510
  158ACOH    H110162   3.855   5.199   1.526 -1.8957 -0.7322 -2.9788
  158ACOH    H210163   3.968   5.158   1.400 -0.1140 -0.2142  0.2447
  158ACOH    H310164   4.024   5.171   1.570  0.2478  3.2719 -1.5015
  159ACOH    H410165   3.393   9.929   2.439 -0.2391 -2.0208 -1.0226
  159ACOH    O210166   3.301   9.960   2.429  0.1905 -0.2868  0.2625
  159ACOH    C210167   3.234   9.906   2.325  0.5753  0.2113 -0.5251
  159ACOH    O110168   3.260   9.797   2.275  0.4122 -0.2427  0.2433
  159ACOH    C110169   3.094   9.968   2.314  0.2370 -0.3499 -0.5823
  159ACOH    H110170   3.019   9.913   2.371 -2.9572  3.4956 -0.8299
  159ACOH    H210171   3.068   9.983   2.209 -2.4930  0.8640  0.2172
  159ACOH    H310172   3.106  10.066   2.361 -0.1234 -1.5850  2.1504
  160ACOH    H410173   2.562   6.718   1.387 -1.9390  2.1355 -0.2779
  160ACOH    O210174   2.622   6.750   1.317 -0.0499 -0.5498  0.0367
  160ACOH    C210175   2.703   6.644   1.307 -0.0906  0.2277 -0.0371
  160ACOH    O110176   2.683   6.535   1.359 -0.0717  0.4355 -0.1886
  160ACOH    C110177   2.828   6.674   1.238 -0.6470  0.5711 -0.3684
  160ACOH    H110178   2.816   6.725   1.142  0.4620 -2.6862 -2.3176
  160ACOH    H210179   2.872   6.578   1.215 -1.7634  0.4095 -1.8952
  160ACOH    H310180   2.886   6.723   1.317 -0.1105 -2.3619  1.1014
  161ACOH    H410181   3.350   5.599   0.607  0.0178 -0.4010 -0.0650
  161ACOH    O210182   3.413   5.628   0.538  0.2138  0.0139  0.2903
  161ACOH    C210183   3.511   5.539   0.534  0.8963 -0.7175 -0.1019
  161ACOH    O110184   3.541   5.437   0.599 -0.2284  0.2072 -0.5139
  161ACOH    C110185   3.574   5.546   0.403  0.3502  0.0961  0.7771
  161ACOH    H110186   3.681   5.538   0.423  0.3697 -0.0957  0.6058
  161ACOH    H210187   3.550   5.637   0.347  1.3812  0.9573  1.7011
  161ACOH    H310188   3.540   5.460   0.345 -0.0929  0.1661  0.9400
  162ACOH    H410189   3.107   7.958   1.674 -1.2252 -0.6463 -2.1677
  162ACOH    O210190   3.149   7.872   1.693 -0.0794  0.3297 -0.0859
  162ACOH    C210191   3.189   7.863   1.822 -1.0731  0.4556 -0.1263
  162ACOH    O110192   3.202   7.949   1.906  0.3754  0.0427  0.2965
  162ACOH    C110193   3.268   7.738   1.834  0.5885 -0.0156  0.1549
  162ACOH    H110194   3.210   7.670   1.770  2.1825 -2.7991  1.5754
  162ACOH    H210195   3.270   7.698   1.935 -0.2746  0.0210  0.1896
  162ACOH    H310196   3.368   7.759   1.797  0.1126  0.6241 -0.7935
  163SOL     OW10197   2.740   5.917   1.462  0.1431  0.1702 -0.0188
  163SOL    HW110198   2.776   5.851   1.397  0.0419  0.9186 -0.8556
  163SOL    HW210199   2.799   5.921   1.543  0.1782 -0.8859  0.0043
  164SOL     OW10200   2.843   7.868   1.597  0.0809 -0.3283 -0.1127
  164SOL    HW110201   2.773   7.894   1.531  0.4450  1.7515  0.3013
  164SOL    HW210202   2.849   7.937   1.668  1.7108 -1.1173  0.5319
  165SOL     OW10203   3.393   1.097   1.126 -0.1149 -0.5487 -0.2767
  165SOL    HW110204   3.296   1.073   1.129  0.4441 -2.9591 -0.9487
  165SOL    HW210205   3.446   1.031   1.179  1.2048  0.6031 -0.1314
  166SOL     OW10206   3.073   7.992   0.936 -0.0284 -0.3860 -0.7139
  166SOL    HW110207   3.087   7.923   0.865  0.6850 -0.5601 -0.4011
  166SOL    HW210208   3.056   7.948   1.024  2.4382 -0.1825 -0.1105
  167SOL     OW10209   2.784   9.051   1.180 -0.2844  0.9363 -0.0990
  167SOL    HW110210   2.759   9.148   1.173 -1.5097  0.5706 -1.2141
  167SOL    HW210211   2.787   9.011   1.088 -0.3979 -0.2238  0.3925
  168SOL     OW10212   4.473   8.812   0.512  0.5154  0.2585  0.2455
  168SOL    HW110213   4.413   8.743   0.471 -1.6126  2.0906  0.1636
  168SOL    HW210214   4.555   8.822   0.457  0.1250 -1.1056 -0.5990
  169SOL     OW10215   3.476   3.479   2.302 -0.3392 -0.3681  0.5307
  169SOL    HW110216   3.458   3.444   2.210  0.6148  0.7063 -0.0560
  169SOL    HW210217   3.574   3.481   2.319 -0.4254  1.0912  0.9278
  170SOL     OW10218   2.888   5.678   1.383  0.3214  0.0382  0.4819
  170SOL    HW110219   2.862   5.584   1.358 -2.0153  1.0603 -1.1728
  170SOL    HW210220   2.987   5.688   1.376  0.5606 -2.1963  0.2606
  171SOL     OW10221   3.218   2.191   0.241  0.2628 -0.0386  0.8458
  171SOL    HW110222   3.277   2.208   0.320 -0.6664 -1.2180  1.8062
  171SOL    HW210223   3.124   2.176   0.272 -0.4263  1.1092 -0.6110
  172SOL     OW10224   4.266   3.845   0.092  0.0963  0.0886  0.0844
  172SOL    HW110225   4.276   3.875   0.187  1.2059  0.5711 -0.1789
  172SOL    HW210226   4.249   3.746   0.090 -1.3818  0.3113  0.8439
  173SOL     OW10227   4.222   3.285   1.433 -0.2639  0.2189 -0.0790
  173SOL    HW110228   4.231   3.237   1.521 -0.4495 -0.7818 -0.6032
  173SOL    HW210229   4.308   3.279   1.383  0.2209  1.7842  0.5163
  174SOL     OW10230   3.567   9.888   1.033 -0.2317 -0.6327 -0.2765
  174SOL    HW110231   3.487   9.843   1.071  0.1045 -2.3372 -1.5326
  174SOL    HW210232   3.623   9.821   0.983  0.9016  0.9285 -1.1572
  175SOL     OW10233   3.589   2.885   1.360  0.0648 -0.2946  0.1263
  175SOL    HW110234   3.602   2.838   1.273  1.4185 -1.7523  1.0928
  175SOL    HW210235   3.592   2.984   1.345 -0.3661 -0.5274 -1.5722
  176SOL     OW10236   3.548   2.746   1.771 -0.0479 -0.1440 -0.3145
  176SOL    HW110237   3.504   2.764   1.683  1.0574 -0.5553 -0.9556
  176SOL    HW210238   3.482   2.763   1.844 -1.4078 -1.1536 -1.2731
  177SOL     OW10239   2.691   6.979   0.728 -0.2030  0.4936  0.0316
  177SOL    HW110240   2.705   7.067   0.773 -0.0792  0.6480 -0.3066
  177SOL    HW210241   2.654   6.994   0.636  0.1044  0.2093 -0.1397
  178SOL     OW10242   2.215   6.567   0.586 -0.6416 -0.4198  0.3251
  178SOL    HW110243   2.277   6.551   0.509  0.5540  0.5743  1.0549
  178SOL    HW210244   2.146   6.635   0.560 -0.3642 -0.2357  0.0702
  179SOL     OW10245   3.233   3.564   2.668  0.6045  0.1766  0.2442
  179SOL    HW110246   3.203   3.576   2.763  1.8254 -0.1896  0.6810
  179SOL    HW210247   3.234   3.652   2.622  1.4522  0.5735  1.0088
  180SOL     OW10248   2.982   4.750   2.596  0.3565  0.7846 -0.0464
  180SOL    HW110249   3.042   4.825   2.623 -1.6551  1.5464  2.5224
  180SOL    HW210250   2.992   4.674   2.661 -1.2905  0.8476  0.2920
  181SOL     OW10251   2.474   5.831   2.668  0.5001 -0.0671  0.6699
  181SOL    HW110252   2.515   5.920   2.647 -0.2343  0.4549  1.4078
  181SOL    HW210253   2.449   5.828   2.764 -1.5052 -0.2223  0.1673
  182SOL     OW10254   3.654   8.791   1.156 -0.4544  0.6481 -0.3151
  182SOL    HW110255   3.633   8.757   1.248 -1.8704  0.7389 -0.5975
  182SOL    HW210256   3.678   8.713   1.097  1.4014  0.6809  0.3584
  183SOL     OW10257   3.075   7.219   1.498 -0.1187 -0.9171  0.2447
  183SOL    HW110258   3.083   7.201   1.596  0.3158  0.4949  0.4810
  183SOL    HW210259   3.132   7.155   1.447  1.3779 -0.2672  1.0634
  184SOL     OW10260   3.039   4.569   1.387 -0.2015  0.2135 -0.9935
  184SOL    HW110261   2.969   4.638   1.370  0.1695  0.3087 -2.1665
  184SOL    HW210262   3.002   4.498   1.448 -1.0972  0.6083 -1.0702
  185SOL     OW10263   3.906   3.288   1.677  0.0240 -0.6935 -0.6880
  185SOL    HW110264   3.908   3.327   1.585 -0.0834  0.2801 -0.2788
  185SOL    HW210265   3.866   3.196   1.672 -1.1755 -0.1570 -1.4417
  186SOL     OW10266   3.434   1.037   0.844 -0.2982 -0.9749  0.0776
  186SOL    HW110267   3.431   1.077   0.935  0.8488 -1.0338  0.1549
  186SOL    HW210268   3.342   1.011   0.815 -0.7005 -0.6919  1.0971
  187SOL     OW10269   3.686   9.386   0.118 -0.4074  0.2084 -0.6102
  187SOL    HW110270   3.653   9.304   0.072  0.0002 -0.7609  0.8069
  187SOL    HW210271   3.701   9.367   0.215  3.1700  0.9018 -0.9372
  188SOL     OW10272   2.220   5.647   0.627 -0.0552 -0.6376 -0.3676
  188SOL    HW110273   2.226   5.623   0.531 -2.2887 -1.2104 -0.3881
  188SOL    HW210274   2.264   5.576   0.682  1.1049 -0.3757 -0.9375
  189SOL     OW10275   3.075   9.633   0.121  0.4574  0.4779  0.7979
  189SOL    HW110276   2.999   9.671   0.174 -0.9589 -1.2384  0.0552
  189SOL    HW210277   3.057   9.537   0.102  1.6315  0.6948 -1.5515
  190SOL     OW10278   3.669   8.055   0.305 -0.2995 -0.1446 -0.3567
  190SOL    HW110279   3.768   8.058   0.300 -0.4074  1.0313 -2.1336
  190SOL    HW210280   3.633   8.006   0.226 -1.1101 -1.6632  0.9047
  191SOL     OW10281   3.771   2.000   0.654  0.2222 -0.1419 -0.1996
  191SOL    HW110282   3.806   1.918   0.699  0.8546  0.3774  0.2522
  191SOL    HW210283   3.719   2.055   0.720  0.7153  0.3626 -0.2277
  192SOL     OW10284   3.255   3.654   0.466  0.1388 -0.5842 -0.4234
  192SOL    HW110285   3.298   3.708   0.394 -0.6720  0.7601  0.0772
  192SOL    HW210286   3.195   3.713   0.520 -0.4930 -1.9226  0.3552
  193SOL     OW10287   4.821   3.598   1.333  0.1436 -0.0173  0.2773
  193SOL    HW110288   4.787   3.589   1.239  1.3937  0.4425 -0.2377
  193SOL    HW210289   4.746   3.621   1.394 -0.7008 -0.4266 -0.6008
  194SOL     OW10290   3.018   8.166   1.993 -0.0273 -0.4298 -0.3556
  194SOL    HW110291   3.084   8.092   1.982 -2.1359 -2.5085  0.7482
  194SOL    HW210292   2.975   8.160   2.083 -0.2212  2.1749 -0.2231
  195SOL     OW10293   2.913   3.401   1.933  0.7344  0.0149 -0.2440
  195SOL    HW110294   2.949   3.481   1.886  1.3184 -0.2766 -0.3034
  195SOL    HW210295   2.890   3.330   1.865 -0.2621  0.3160 -0.2337
  196SOL     OW10296   4.118   4.216   2.449 -0.0146  0.0920  0.1823
  196SOL    HW110297   4.120   4.230   2.350 -2.4368  1.2302  0.2658
  196SOL    HW210298   4.211   4.203   2.482  0.8855  0.2820 -2.1630
  197SOL     OW10299   2.451   6.682   2.373  0.6745 -0.2224  0.0854
  197SOL    HW110300   2.382   6.616   2.343 -1.0288  0.8093  1.5653
  197SOL    HW210301   2.412   6.774   2.369  1.2470  0.1797  2.8576
  198SOL     OW10302   3.310   2.801   0.340  0.1421  0.0907 -0.5597
  198SOL    HW110303   3.347   2.730   0.280 -0.9010 -0.1518 -0.9249
  198SOL    HW210304   3.374   2.819   0.414  0.3148 -1.4097 -0.3253
  199SOL     OW10305   2.611   8.955   1.363  0.0038 -0.7798  0.3230
  199SOL    HW110306   2.699   8.991   1.332  0.8430  0.2865  3.7913
  199SOL    HW210307   2.541   8.972   1.293  2.3380 -0.8728 -2.0914
  200SOL     OW10308   2.528   8.426   1.998  0.5376 -0.0186 -0.1822
  200SOL    HW110309   2.489   8.363   2.065 -1.1146 -0.2080 -1.2951
  200SOL    HW210310   2.562   8.374   1.919  3.0720  0.1407  0.7671
  201SOL     OW10311   3.184   2.247   0.829  0.3538  0.1440 -0.1086
  201SOL    HW110312   3.151   2.332   0.789  0.1153 -0.2026 -0.6618
  201SOL    HW210313   3.249   2.267   0.902 -0.3607  0.8145  0.3526
  202SOL     OW10314   3.650   8.445   1.800  0.2800 -0.3055  0.0340
  202SOL    HW110315   3.685   8.510   1.867 -0.3654  0.2125 -0.1180
  202SOL    HW210316   3.567   8.402   1.835 -0.4300  0.4463 -0.6800
  203SOL     OW10317   4.144   4.082   2.835  0.0721  0.1160  0.6245
  203SOL    HW110318   4.203   4.004   2.859  0.2465  0.2928  0.7781
  203SOL    HW210319   4.096   4.114   2.917 -0.1044  0.0834  0.5342
  204SOL     OW10320   3.236   1.316   0.419  0.0500 -0.0353 -0.1767
  204SOL    HW110321   3.323   1.334   0.464 -0.1759  2.7788 -0.7775
  204SOL    HW210322   3.246   1.329   0.320 -1.2334  1.2469 -0.1663
  205SOL     OW10323   4.797   4.055   0.667 -0.2422  0.3637 -0.0479
  205SOL    HW110324   4.838   4.079   0.755 -3.3329  0.6664  1.3615
  205SOL    HW210325   4.822   4.124   0.599  3.6308 -0.8098  0.0638
  206SOL     OW10326   2.829   9.299   2.524 -0.2596 -0.8224 -0.7937
  206SOL    HW110327   2.898   9.370   2.508 -2.5859  2.6077  3.5277
  206SOL    HW210328   2.775   9.286   2.441  2.5227 -0.2496 -2.7731
  207SOL     OW10329   4.049   3.583   0.657  0.2104 -0.6029  0.1389
  207SOL    HW110330   4.072   3.491   0.689 -1.3634 -0.8626  0.6039
  207SOL    HW210331   4.011   3.578   0.565 -0.0594 -0.4393  0.2413
  208SOL     OW10332   4.098   3.412   2.414  0.0968 -0.8710 -0.0705
  208SOL    HW110333   4.077   3.467   2.333 -1.1382 -0.2136  0.6627
  208SOL    HW210334   4.023   3.349   2.432 -0.6395  0.4659  1.7506
  209SOL     OW10335   3.528   0.137   1.167  0.0768  0.1900  1.0350
  209SOL    HW110336   3.480   0.109   1.250  0.5073 -0.7054  0.9945
  209SOL    HW210337   3.524   0.062   1.100 -0.6257  1.0584  0.0928
  210SOL     OW10338   3.466   0.394   2.694  0.5135  0.3196  0.2441
  210SOL    HW110339   3.541   0.371   2.756  0.3761  1.1532  0.7338
  210SOL    HW210340   3.380   0.363   2.735  0.4934  0.2414  0.1417
  211SOL     OW10341   3.502   1.810   2.387  0.2455  0.8888 -0.3070
  211SOL    HW110342   3.524   1.840   2.294  2.7903 -2.7218 -1.0051
  211SOL    HW210343   3.436   1.735   2.383  1.0549  0.0960  0.6801
  212SOL     OW10344   3.549   4.069   1.902 -0.3213  0.3942  0.5867
  212SOL    HW110345   3.567   3.985   1.953 -0.4370  0.3961  0.6308
  212SOL    HW210346   3.634   4.120   1.890 -0.4692  0.8775  1.6194
  213SOL     OW10347   3.007   7.852   1.157  0.1374  0.4073  0.4903
  213SOL    HW110348   3.084   7.799   1.193 -0.0102  0.1374  0.4029
  213SOL    HW210349   2.950   7.883   1.233  1.3231  2.1320  0.7114
  214SOL     OW10350   2.783   7.199   1.455  0.7526 -0.4020 -0.4553
  214SOL    HW110351   2.725   7.281   1.457  1.4733  0.1009  0.0564
  214SOL    HW210352   2.878   7.225   1.473  0.8143 -1.4913  0.8429
  215SOL     OW10353   3.514   0.899   0.195 -0.3937 -0.4834  0.4374
  215SOL    HW110354   3.438   0.938   0.143 -1.8916 -0.6338  2.4334
  215SOL    HW210355   3.525   0.802   0.171 -0.6728 -0.3964 -0.0387
  216SOL     OW10356   2.661   7.869   1.378  0.6081 -0.5134  0.4943
  216SOL    HW110357   2.645   7.792   1.317  0.7651 -0.0142 -0.1754
  216SOL    HW210358   2.711   7.940   1.330 -0.5384  0.4893  0.7537
  217SOL     OW10359   4.982   3.716   0.519  0.5674 -0.5563  0.4413
  217SOL    HW110360   5.035   3.697   0.437 -0.4993 -1.6440 -0.0114
  217SOL    HW210361   5.032   3.685   0.600  1.5438  0.3625  0.2094
  218SOL     OW10362   3.849   3.381   1.404 -0.3355 -0.6591  0.2191
  218SOL    HW110363   3.929   3.424   1.362  0.9891 -2.1469  1.1300
  218SOL    HW210364   3.793   3.451   1.449  0.4233  0.4036 -0.4558
  219SOL     OW10365   3.455   8.547   1.135  0.0783 -0.7358  0.2351
  219SOL    HW110366   3.494   8.487   1.205  0.1261  0.1516  0.9817
  219SOL    HW210367   3.367   8.583   1.167  0.5219  0.3800  0.2359
  220SOL     OW10368   4.973   3.038   1.199  0.3025 -0.5744 -0.2319
  220SOL    HW110369   4.955   2.939   1.204  1.7563 -0.7875  1.7255
  220SOL    HW210370   5.003   3.070   1.289  0.1211  1.6072 -0.9313
  221SOL     OW10371   2.991   4.309   0.906  0.6593 -0.0826 -0.0238
  221SOL    HW110372   2.975   4.210   0.917  1.8610 -0.2242  0.4652
  221SOL    HW210373   3.022   4.347   0.993 -4.1328  1.6028  1.1227
  222SOL     OW10374   2.759   8.505   0.039  0.0890  0.1949 -0.0795
  222SOL    HW110375   2.671   8.532   0.002 -0.4132 -1.6024 -0.2514
  222SOL    HW210376   2.745   8.444   0.117  1.1683  1.1428  0.8647
  223SOL     OW10377   3.822   7.870   2.556 -0.2160 -0.1765  0.3181
  223SOL    HW110378   3.749   7.899   2.619  0.4169  2.2881 -0.0282
  223SOL    HW210379   3.910   7.880   2.601  0.0115 -2.4653  0.4739
  224SOL     OW10380   2.902   4.466   2.069  0.8298 -0.0090  0.4537
  224SOL    HW110381   2.966   4.418   2.010 -0.0953  1.8226 -2.1104
  224SOL    HW210382   2.948   4.544   2.112  0.2764  1.5406 -1.6968
  225SOL     OW10383   2.803   5.988   2.850 -0.2644 -0.4483 -0.0486
  225SOL    HW110384   2.756   6.027   2.771  1.2622  0.2945 -0.6101
  225SOL    HW210385   2.792   5.889   2.849 -0.3652 -0.4343 -1.1144
  226SOL     OW10386   3.473   2.814   2.764  0.2081 -0.2258 -0.1164
  226SOL    HW110387   3.535   2.893   2.772  0.3608 -0.4351  0.7583
  226SOL    HW210388   3.386   2.845   2.727  1.1816 -0.0975 -2.4111
  227SOL     OW10389   4.098   3.261   0.625  0.2210  0.6090 -0.0132
  227SOL    HW110390   4.167   3.285   0.557 -2.5761 -0.5339 -3.4741
  227SOL    HW210391   4.102   3.163   0.644 -0.9644  0.3511 -0.9635
  228SOL     OW10392   3.397   8.944   1.777  0.3252  1.1305 -0.1013
  228SOL    HW110393   3.468   8.937   1.847 -0.6572  1.1450  0.9211
  228SOL    HW210394   3.307   8.931   1.820 -0.2888  1.1533 -1.3636
  229SOL     OW10395   2.355   6.921   0.720 -0.3761 -0.0689 -0.0749
  229SOL    HW110396   2.316   6.841   0.766 -0.5801  0.2705  0.3453
  229SOL    HW210397   2.368   6.995   0.786  0.8690 -0.1356 -0.2364
  230SOL     OW10398   3.351   3.284   2.454  0.2474 -0.3049  0.7975
  230SOL    HW110399   3.392   3.363   2.409 -1.8347  0.2997 -0.0697
  230SOL    HW210400   3.272   3.313   2.507  0.4409 -1.5803  1.8099
  231SOL     OW10401   3.618   8.918   1.441 -0.4420  0.4064 -0.0331
  231SOL    HW110402   3.621   9.002   1.496 -1.0694  0.2074  0.3073
  231SOL    HW210403   3.605   8.942   1.345 -1.7175  0.6682  0.1880
  232SOL     OW10404   2.997   4.042   1.062 -0.4841  0.1888 -0.0315
  232SOL    HW110405   2.979   3.996   1.149 -1.0089 -2.4191 -1.4665
  232SOL    HW210406   2.979   3.979   0.987  2.8937  1.3939 -1.9618
  233SOL     OW10407   2.225   6.742   1.360  0.2011 -0.3428  0.2545
  233SOL    HW110408   2.148   6.698   1.405  0.4554 -1.2587 -0.2004
  233SOL    HW210409   2.204   6.756   1.263  1.3725 -2.4130 -0.3132
  234SOL     OW10410   3.707   1.695   1.666  0.4551 -0.0355 -0.1075
  234SOL    HW110411   3.746   1.778   1.707  2.5066 -0.8297 -0.3800
  234SOL    HW210412   3.774   1.655   1.604 -1.2066 -0.9230 -1.3501
  235SOL     OW10413   4.146   2.672   1.045  0.0410  0.1575  0.2169
  235SOL    HW110414   4.095   2.638   0.966 -0.6942 -0.6074  1.0006
  235SOL    HW210415   4.243   2.680   1.022 -0.2989  0.7946 -1.0249
  236SOL     OW10416   2.657   7.000   1.158 -0.2081 -0.5213  0.2918
  236SOL    HW110417   2.636   6.961   1.069  1.6461 -0.9676  0.0361
  236SOL    HW210418   2.622   6.939   1.230 -1.3875 -0.3354 -0.1104
  237SOL     OW10419   4.477   3.975   2.002  0.6181 -0.2958  0.1683
  237SOL    HW110420   4.396   3.926   2.035  0.8205 -0.2459  0.7499
  237SOL    HW210421   4.553   3.911   1.995  0.5598 -0.3177 -0.2630
  238SOL     OW10422   3.619   1.673   0.600  0.3194  0.1839 -0.1421
  238SOL    HW110423   3.550   1.709   0.662  1.0359  0.5997  0.4185
  238SOL    HW210424   3.583   1.673   0.506  0.5418  3.0332 -0.2665
  239SOL     OW10425   2.880   5.137   0.376 -1.2313 -0.2281  0.5024
  239SOL    HW110426   2.863   5.050   0.329 -2.0829  0.5607 -0.6702
  239SOL    HW210427   2.889   5.120   0.475 -0.3012 -1.7785  0.1633
  240SOL     OW10428   3.559   1.120   1.984  0.3002  0.3363 -0.7517
  240SOL    HW110429   3.492   1.050   1.957 -0.6729 -0.0483  2.5096
  240SOL    HW210430   3.512   1.196   2.028  1.6234  1.9871 -2.1314
  241SOL     OW10431   3.059   4.802   1.700  0.0606 -0.3159  0.4786
  241SOL    HW110432   3.053   4.702   1.691 -1.6168 -0.1745 -0.2441
  241SOL    HW210433   2.984   4.835   1.758 -0.9428  0.7629 -1.3874
  242SOL     OW10434   3.403   7.917   0.931  0.3052  0.1980 -0.1318
  242SOL    HW110435   3.364   7.996   0.978  0.6967  1.6783 -2.2583
  242SOL    HW210436   3.355   7.902   0.844 -0.3636 -2.4707  0.6416
  243SOL     OW10437   4.401   4.350   1.129 -0.1723 -0.1071  0.2067
  243SOL    HW110438   4.330   4.324   1.194  0.2977  1.7599  1.5265
  243SOL    HW210439   4.491   4.345   1.173  0.1067  1.6484 -0.1106
  244SOL     OW10440   3.351   8.493   0.834 -0.2546  0.4320  0.3805
  244SOL    HW110441   3.357   8.563   0.905  0.6144  0.7118  0.0353
  244SOL    HW210442   3.421   8.424   0.850  0.9724  1.3060 -1.0815
  245SOL     OW10443   4.392   2.210   0.802 -0.2573 -0.0758 -0.0600
  245SOL    HW110444   4.365   2.287   0.860  0.2617 -0.1818  0.3131
  245SOL    HW210445   4.463   2.240   0.739 -1.2664  0.2172 -1.0889
  246SOL     OW10446   4.092   2.217   2.352  0.0338  0.0352 -0.0410
  246SOL    HW110447   4.028   2.142   2.336  0.4012 -0.9457  2.8824
  246SOL    HW210448   4.173   2.205   2.294 -0.0526 -1.6499  0.1786
  247SOL     OW10449   2.931   7.045   1.251 -0.1009 -0.7293 -0.0248
  247SOL    HW110450   2.844   7.016   1.211  0.1877 -3.2534  1.0965
  247SOL    HW210451   2.916   7.076   1.345  0.1912 -1.1977  0.1814
  248SOL     OW10452   3.479   1.075   2.550  0.4603 -0.6326 -0.4920
  248SOL    HW110453   3.574   1.052   2.569  1.5335  3.3288 -0.5850
  248SOL    HW210454   3.460   1.169   2.581 -3.3586 -1.2277 -0.6943
  249SOL     OW10455   3.766   0.327   2.044  0.2151  0.1655 -0.2541
  249SOL    HW110456   3.844   0.385   2.019 -0.7463  1.3831 -0.4884
  249SOL    HW210457   3.714   0.371   2.117  0.2422 -1.0666  0.5178
  250SOL     OW10458   3.379   9.795   1.225 -0.0397  0.4194 -0.1356
  250SOL    HW110459   3.294   9.752   1.197 -0.7953  0.3548  2.1149
  250SOL    HW210460   3.430   9.734   1.286  0.6141  1.2523  0.1796
  251SOL     OW10461   3.714   9.845   2.047  0.1286 -0.0108 -0.4315
  251SOL    HW110462   3.620   9.834   2.015  0.4646 -0.9905 -1.1133
  251SOL    HW210463   3.770   9.885   1.974  0.6239 -1.0849 -0.6507
  252SOL     OW10464   3.934   3.084   0.810 -0.2615 -0.0046  0.2617
  252SOL    HW110465   3.953   3.097   0.908 -2.8873 -0.8549  0.9134
  252SOL    HW210466   3.912   2.988   0.793  5.4287 -1.0697 -2.1546
  253SOL     OW10467   3.281   7.509   0.820 -0.1618 -0.5738  0.0518
  253SOL    HW110468   3.347   7.503   0.746  0.2377 -2.1956  0.5219
  253SOL    HW210469   3.245   7.418   0.840 -0.4030 -0.1244  1.7327
  254SOL     OW10470   3.840   1.449   1.795  0.3181 -0.9690  0.1308
  254SOL    HW110471   3.814   1.437   1.699 -1.4114 -0.0749  0.4814
  254SOL    HW210472   3.814   1.541   1.826 -0.9283 -1.9191  2.0116
  255SOL     OW10473   2.938   3.893   1.268 -0.7356  0.1366 -0.4676
  255SOL    HW110474   2.928   3.908   1.366  0.5283  0.2416 -0.3577
  255SOL    HW210475   2.893   3.807   1.243 -0.2013 -0.3869  0.3649
  256SOL     OW10476   3.610   8.106   2.214 -0.2239  0.4093 -0.0387
  256SOL    HW110477   3.668   8.067   2.143  0.3417 -0.0123  0.6536
  256SOL    HW210478   3.516   8.112   2.181  0.0888  0.4878 -0.9263
  257SOL     OW10479   3.782   1.093   1.255  0.2221  0.1998 -0.8385
  257SOL    HW110480   3.771   1.005   1.209 -1.2097  0.8970 -1.8703
  257SOL    HW210481   3.710   1.105   1.323  1.0554  0.1102  0.0608
  258SOL     OW10482   3.761   4.574   2.495 -0.4193 -0.3114 -0.0831
  258SOL    HW110483   3.772   4.555   2.398 -1.1708  2.4380 -0.7547
  258SOL    HW210484   3.669   4.549   2.524 -0.5343 -0.1671 -0.3235
  259SOL     OW10485   2.430   8.179   0.092 -0.3607  0.0201  0.1958
  259SOL    HW110486   2.504   8.246   0.086 -0.4675  0.3375  1.9378
  259SOL    HW210487   2.374   8.200   0.173 -1.3334 -1.2325 -0.1468
  260SOL     OW10488   3.473   4.922   2.131  0.0304  0.0918 -0.2090
  260SOL    HW110489   3.472   5.019   2.108  0.6373  0.0993 -0.2036
  260SOL    HW210490   3.528   4.907   2.213  0.3228 -0.3109 -0.4745
  261SOL     OW10491   3.109   3.339   2.582  0.5642 -0.1629  0.1282
  261SOL    HW110492   3.136   3.429   2.616  0.7432  0.4667 -1.6045
  261SOL    HW210493   3.015   3.319   2.611  0.1592  1.0407 -0.3246
  262SOL     OW10494   3.401   3.734   2.197  0.0673 -0.0998  0.1548
  262SOL    HW110495   3.417   3.664   2.266  0.2828 -1.0128 -0.8106
  262SOL    HW210496   3.483   3.746   2.141  0.1854  1.2477  0.5887
  263SOL     OW10497   3.107   1.461   2.031  0.0572 -0.3712  0.7371
  263SOL    HW110498   3.105   1.462   1.931 -0.4316 -1.4413  0.7305
  263SOL    HW210499   3.084   1.551   2.066  0.7205  0.1460 -0.1212
  264SOL     OW10500   3.194   9.788   1.900  0.4922 -0.4728  0.1117
  264SOL    HW110501   3.112   9.843   1.916  0.5563  0.0549 -1.2496
  264SOL    HW210502   3.192   9.706   1.957 -0.4158  0.1106  0.9325
  265SOL     OW10503   3.145   3.542   0.129 -0.3554 -0.1654  0.4295
  265SOL    HW110504   3.061   3.590   0.104 -0.0489 -0.4763 -1.2703
  265SOL    HW210505   3.133   3.443   0.114 -0.0736 -0.3406  1.3121
  266SOL     OW10506   3.523   2.204   1.306  0.1823  0.1978  0.2770
  266SOL    HW110507   3.539   2.298   1.334  0.3150  0.1205  0.4595
  266SOL    HW210508   3.558   2.190   1.213  1.8508 -0.1699  0.9546
  267SOL     OW10509   3.647   3.814   1.061  0.6513  0.1600  0.0689
  267SOL    HW110510   3.723   3.866   1.102  1.4433 -0.2547 -0.8590
  267SOL    HW210511   3.667   3.796   0.965 -0.4182 -0.3721 -0.0599
  268SOL     OW10512   2.548   8.119   0.600  0.5370 -0.2757 -0.1335
  268SOL    HW110513   2.614   8.044   0.593  0.3599 -0.3293 -1.3304
  268SOL    HW210514   2.560   8.166   0.688  0.3388 -1.9868  0.8401
  269SOL     OW10515   2.396   7.972   2.613  0.3701  0.0576  0.0184
  269SOL    HW110516   2.477   7.929   2.653 -0.3405  0.8657  2.4034
  269SOL    HW210517   2.393   8.069   2.640 -0.1633  0.6208 -1.9804
  270SOL     OW10518   3.398   0.537   1.621 -0.3335  0.4408 -0.5284
  270SOL    HW110519   3.300   0.554   1.632 -0.9636 -3.2822  0.2340
  270SOL    HW210520   3.439   0.521   1.711  0.2650 -1.3687 -1.1023
  271SOL     OW10521   3.697   0.210   2.729  0.2568 -0.2211  0.1784
  271SOL    HW110522   3.629   0.164   2.785  0.4525 -1.5184 -0.6302
  271SOL    HW210523   3.672   0.201   2.632  1.6146 -0.7838 -0.1287
  272SOL     OW10524   3.671   8.442   1.538  0.5194  0.1754  1.0072
  272SOL    HW110525   3.664   8.444   1.638 -1.7662  0.0210  0.8901
  272SOL    HW210526   3.708   8.529   1.505  1.7323  0.0490  2.0101
  273SOL     OW10527   3.420   8.352   2.853 -0.1546  0.9216 -0.3362
  273SOL    HW110528   3.414   8.262   2.810 -3.6893  1.2124 -0.5662
  273SOL    HW210529   3.435   8.422   2.783  2.0639  0.6004 -0.2099
  274SOL     OW10530   4.394   1.790   0.225  0.1171  0.2683  0.0217
  274SOL    HW110531   4.368   1.786   0.321  0.3936 -0.3127  0.0768
  274SOL    HW210532   4.463   1.720   0.206  0.8155  1.0486 -0.3716
  275SOL     OW10533   3.819   2.329   2.273  0.0096 -0.9153 -0.1923
  275SOL    HW110534   3.758   2.351   2.349  1.2839 -0.9187  0.8460
  275SOL    HW210535   3.908   2.374   2.287  0.2518 -0.9152 -1.6775
  276SOL     OW10536   3.359   4.569   1.054  0.3541  0.6552 -0.5761
  276SOL    HW110537   3.454   4.599   1.062  0.1956  0.6612  1.4383
  276SOL    HW210538   3.355   4.484   1.001  1.4051  0.9858 -1.1952
  277SOL     OW10539   2.670   9.666   1.170  0.2705  0.7873  0.6195
  277SOL    HW110540   2.601   9.612   1.218 -2.1824  2.4836 -0.8867
  277SOL    HW210541   2.724   9.717   1.237 -0.3921 -0.0182  1.7953
  278SOL     OW10542   2.563   7.298   1.145 -1.2391  0.3705 -0.3242
  278SOL    HW110543   2.538   7.346   1.229  0.7431  0.0234  0.4759
  278SOL    HW210544   2.597   7.207   1.166  0.3180  0.6750 -1.3970
  279SOL     OW10545   2.956   4.781   0.105  0.0041  0.1043 -0.1598
  279SOL    HW110546   2.889   4.710   0.127  0.4039  0.0622  0.9718
  279SOL    HW210547   2.916   4.871   0.123  0.4373  0.0602  1.1050
  280SOL     OW10548   3.551   3.783   0.025 -0.4460 -0.4068 -0.2812
  280SOL    HW110549   3.605   3.708  -0.014  0.6721  0.3497 -0.2352
  280SOL    HW210550   3.499   3.750   0.104 -0.9739 -1.4255 -1.0581
  281SOL     OW10551   3.537   0.621   1.177 -0.2062  0.0534 -0.4328
  281SOL    HW110552   3.565   0.571   1.095 -1.1929 -1.7586  0.3299
  281SOL    HW210553   3.565   0.717   1.168  1.1143 -0.4684 -2.1862
  282SOL     OW10554   4.265   3.041   2.461  0.1783  0.2125  0.0719
  282SOL    HW110555   4.262   3.047   2.362 -2.6929  1.6106  0.1981
  282SOL    HW210556   4.238   2.950   2.490  1.3804 -0.3127 -0.4104
  283SOL     OW10557   4.331   2.019   1.459  0.0235 -0.4173  0.2341
  283SOL    HW110558   4.340   1.976   1.549 -1.9795  2.1646  1.7446
  283SOL    HW210559   4.393   2.097   1.454  0.9541 -1.2282 -1.0872
  284SOL     OW10560   3.758   1.035   2.613 -0.5793  0.0996  0.2838
  284SOL    HW110561   3.756   0.960   2.680 -2.3547 -0.0249  0.1281
  284SOL    HW210562   3.773   1.122   2.660  3.0349 -0.4770  0.3133
  285SOL     OW10563   3.033   3.131   0.985 -0.6463 -0.3688 -0.0130
  285SOL    HW110564   3.006   3.052   0.930 -1.7094 -0.6789  0.9529
  285SOL    HW210565   3.059   3.102   1.076  4.1387 -0.2269 -1.2014
  286SOL     OW10566   2.429   6.525   0.421  0.5564 -0.3222  0.7546
  286SOL    HW110567   2.505   6.525   0.487  1.8261 -0.4458 -0.6696
  286SOL    HW210568   2.457   6.575   0.339 -0.0697 -2.3090 -0.7042
  287SOL     OW10569   3.568   4.049   0.676 -0.3884  1.1558 -0.9337
  287SOL    HW110570   3.664   4.043   0.647 -0.2282  0.8176 -0.3237
  287SOL    HW210571   3.561   4.109   0.755 -0.6385  0.8945 -0.7585
  288SOL     OW10572   3.300   1.612   2.343 -0.8717 -0.1857 -0.2600
  288SOL    HW110573   3.288   1.514   2.354 -1.2890 -0.1729 -0.5847
  288SOL    HW210574   3.217   1.652   2.302 -0.5923  0.2528 -0.4058
  289SOL     OW10575   2.922   5.116   1.270  0.0546 -0.0947  0.1322
  289SOL    HW110576   2.926   5.128   1.369 -0.0568  2.8272 -0.1490
  289SOL    HW210577   3.010   5.084   1.236  0.1626 -0.9020  1.1512
  290SOL     OW10578   3.913   1.587   0.547  0.4690 -0.1307  0.0971
  290SOL    HW110579   3.912   1.522   0.622  2.3439  1.0298  1.1758
  290SOL    HW210580   3.828   1.641   0.549  0.1620 -0.6299  0.8880
  291SOL     OW10581   2.709   4.869   0.703  0.2489  0.1405  0.4338
  291SOL    HW110582   2.664   4.928   0.770 -2.6819  1.2003 -2.3938
  291SOL    HW210583   2.788   4.916   0.665 -0.5395  1.2238  0.1057
  292SOL     OW10584   4.522   2.475   2.219 -0.3560 -0.2390  0.0521
  292SOL    HW110585   4.616   2.447   2.237 -0.0803 -0.5470 -1.7547
  292SOL    HW210586   4.461   2.396   2.227 -0.4355 -0.0928  0.9597
  293SOL     OW10587   3.931   0.543   2.547 -0.0253  0.1266  0.8640
  293SOL    HW110588   3.927   0.479   2.470 -0.3888  1.0368  0.1072
  293SOL    HW210589   4.013   0.600   2.538  0.8598 -0.9327  2.1090
  294SOL     OW10590   3.142   2.758   1.116  0.5293  0.0785 -0.3906
  294SOL    HW110591   3.154   2.673   1.167 -1.8195 -2.3557 -3.6454
  294SOL    HW210592   3.231   2.791   1.085  1.3524 -2.1259 -0.4770
  295SOL     OW10593   2.623   8.812   2.061 -0.0974 -0.3833  0.1148
  295SOL    HW110594   2.604   8.812   2.160 -2.5928  0.1068 -0.3211
  295SOL    HW210595   2.655   8.721   2.034 -2.0556 -1.3656  0.9369
  296SOL     OW10596   3.125   2.385   0.599  0.0425 -0.0085  0.0809
  296SOL    HW110597   3.101   2.418   0.508  1.4473 -1.8137 -0.9678
  296SOL    HW210598   3.224   2.380   0.608 -0.0952 -0.2815  1.5527
  297SOL     OW10599   2.702   4.968   0.964 -0.0566  0.7190 -0.5962
  297SOL    HW110600   2.791   4.956   1.008 -0.7991  1.5331  1.1676
  297SOL    HW210601   2.649   5.035   1.014 -2.4639 -1.2561 -0.4013
  298SOL     OW10602   3.042   5.366   0.337 -0.1073  0.1094 -0.2562
  298SOL    HW110603   3.132   5.323   0.326 -0.3827 -1.0056  1.7209
  298SOL    HW210604   2.971   5.295   0.340 -1.1017  0.9885 -1.9142
  299SOL     OW10605   3.123   3.201   2.032  0.6242  0.9304 -0.2085
  299SOL    HW110606   3.087   3.210   2.125  0.9060  1.2084 -0.1264
  299SOL    HW210607   3.058   3.240   1.967  0.2408  0.3718 -0.1670
  300SOL     OW10608   4.269   3.102   1.632 -0.0827  0.0541  0.2810
  300SOL    HW110609   4.274   3.026   1.566  0.9688 -0.5457  1.0344
  300SOL    HW210610   4.358   3.112   1.677  0.0059  2.2225 -0.3400
  301SOL     OW10611   3.613   5.361   1.806 -0.2075  0.2147  0.3855
  301SOL    HW110612   3.534   5.372   1.746 -0.5580  2.1805  1.1484
  301SOL    HW210613   3.675   5.292   1.769 -1.5926 -0.3387 -0.9430
  302SOL     OW10614   3.096   9.427   0.751  1.0277 -0.0666  0.2598
  302SOL    HW110615   3.050   9.514   0.734  0.1052 -0.3785  1.1093
  302SOL    HW210616   3.184   9.426   0.703 -0.1524  0.2406 -1.9447
  303SOL     OW10617   4.181   2.062   2.076  0.2384  0.5769 -0.6962
  303SOL    HW110618   4.225   1.982   2.036 -0.9424 -1.0521  1.1786
  303SOL    HW210619   4.093   2.036   2.115 -0.5466  2.9663 -0.7670
  304SOL     OW10620   2.586   6.268   0.185  0.3414  0.0564  0.3280
  304SOL    HW110621   2.657   6.204   0.215  2.0560  0.4360 -2.7574
  304SOL    HW210622   2.498   6.220   0.183  1.0208 -1.2758  1.2028
  305SOL     OW10623   4.651   3.812   1.029  0.2883 -0.1851 -0.0030
  305SOL    HW110624   4.580   3.834   0.963  1.0348 -1.6685 -1.3309
  305SOL    HW210625   4.649   3.715   1.050  2.6669 -0.4937 -0.9888
  306SOL     OW10626   3.416   1.313   2.115 -0.1593  0.3775  0.3308
  306SOL    HW110627   3.461   1.283   2.199 -1.0192 -0.2837  0.5599
  306SOL    HW210628   3.423   1.412   2.107  2.4674  0.1959 -0.2792
  307SOL     OW10629   3.383   8.780   0.321  0.0387  0.0528 -0.4267
  307SOL    HW110630   3.341   8.784   0.231  0.0333 -0.9437 -0.4640
  307SOL    HW210631   3.434   8.695   0.332 -0.4791 -0.1195  0.7461
  308SOL     OW10632   4.184   1.435   0.160 -0.2294  0.7513  0.3522
  308SOL    HW110633   4.187   1.521   0.109  0.4661  1.0959  0.9640
  308SOL    HW210634   4.117   1.442   0.233  1.1587  1.4632  1.5963
  309SOL     OW10635   4.816   3.781   0.205 -0.1708 -0.0862  0.7339
  309SOL    HW110636   4.888   3.836   0.247 -1.1118  1.0952  0.8538
  309SOL    HW210637   4.726   3.817   0.233 -0.8034 -1.0223 -0.0518
  310SOL     OW10638   3.652   3.612   2.686 -0.5571  0.5622 -0.3837
  310SOL    HW110639   3.578   3.545   2.679 -1.3984  1.5054 -0.4878
  310SOL    HW210640   3.637   3.686   2.621  0.2609  0.9756 -0.1136
  311SOL     OW10641   4.136   2.371   0.683  0.4286 -0.6645  0.4212
  311SOL    HW110642   4.203   2.322   0.627 -0.1416  0.3099 -1.1488
  311SOL    HW210643   4.077   2.305   0.730  0.9864 -1.4983 -0.0503
  312SOL     OW10644   3.214   0.976   0.368 -0.0019  0.1367  0.4767
  312SOL    HW110645   3.304   1.021   0.374  0.7834 -1.4882  1.2520
  312SOL    HW210646   3.143   1.041   0.396  0.9833  1.2866  0.3625
  313SOL     OW10647   3.908   3.201   0.085  0.2438 -0.0591  0.0507
  313SOL    HW110648   3.984   3.236   0.140  0.5929 -1.1769  0.3037
  313SOL    HW210649   3.913   3.239  -0.008  2.1636 -1.4946 -0.4643
  314SOL     OW10650   4.233   8.465   1.013  0.2215 -0.1960 -0.2386
  314SOL    HW110651   4.231   8.538   1.082 -1.9722 -0.6344  0.2051
  314SOL    HW210652   4.205   8.503   0.924  1.3114 -0.0159 -0.5111
  315SOL     OW10653   3.553   0.711   2.523 -0.1441  0.4962  0.0157
  315SOL    HW110654   3.643   0.707   2.480  0.8778  1.5147  1.9843
  315SOL    HW210655   3.489   0.653   2.472  1.0823  1.3549 -2.6095
  316SOL     OW10656   3.635   2.665   2.607  0.6512 -0.1883  0.4797
  316SOL    HW110657   3.669   2.732   2.542  0.9719 -0.7787  0.0383
  316SOL    HW210658   3.569   2.709   2.668  2.2557  0.9828  1.4068
  317SOL     OW10659   3.593   0.905   1.752 -0.9371  0.3103  0.5319
  317SOL    HW110660   3.627   0.837   1.686  1.9728  2.4083 -0.2269
  317SOL    HW210661   3.529   0.966   1.706 -0.9237  0.1738  0.3290
  318SOL     OW10662   3.378   0.244   1.856 -0.5557  0.4503 -0.6355
  318SOL    HW110663   3.406   0.339   1.846 -1.4921  0.7643 -0.2931
  318SOL    HW210664   3.290   0.239   1.902 -0.1946 -0.6194 -0.0332
  319SOL     OW10665   3.104   4.696   0.752  0.6302 -0.3064 -0.9939
  319SOL    HW110666   3.037   4.646   0.698  0.2308 -0.6598 -0.1818
  319SOL    HW210667   3.091   4.675   0.849 -0.5580  2.5189 -0.4733
  320SOL     OW10668   2.498   8.120   2.047 -0.9928  0.2300  0.0738
  320SOL    HW110669   2.459   8.075   2.127 -1.8270  0.7842 -0.0247
  320SOL    HW210670   2.477   8.066   1.965  2.3956 -1.9708  0.5242
  321SOL     OW10671   3.116   1.104   1.014 -0.4511  0.3814  0.3612
  321SOL    HW110672   3.048   1.130   1.083  1.1712  1.1455  1.7321
  321SOL    HW210673   3.134   1.181   0.953 -1.8372 -0.2736 -0.8974
  322SOL     OW10674   3.796   4.370   2.678 -0.0191 -0.0998  0.4177
  322SOL    HW110675   3.831   4.430   2.606 -0.7152 -2.0062 -1.5520
  322SOL    HW210676   3.854   4.289   2.685 -1.2417 -0.9988  0.4110
  323SOL     OW10677   3.566   8.717   2.849 -0.3898 -0.1534 -0.3427
  323SOL    HW110678   3.497   8.684   2.784 -0.9383 -2.9790  1.6081
  323SOL    HW210679   3.576   8.652   2.924  2.5669  1.4774  0.7778
  324SOL     OW10680   2.722   9.525   0.939  0.5210 -0.2450 -0.3968
  324SOL    HW110681   2.717   9.580   0.856 -2.3848 -0.2947 -0.3001
  324SOL    HW210682   2.688   9.579   1.016  1.9853 -0.6347  0.5223
  325SOL     OW10683   4.030   1.185   1.218  0.0977  0.4964 -0.1376
  325SOL    HW110684   3.932   1.175   1.234  0.1770 -0.6731 -0.3147
  325SOL    HW210685   4.077   1.103   1.251  0.8730  0.4724 -1.3027
  326SOL     OW10686   3.951   2.801   0.698  0.3261 -0.2678 -0.3773
  326SOL    HW110687   3.860   2.827   0.666  0.2261 -0.1234  0.0241
  326SOL    HW210688   3.944   2.724   0.761  0.1963  1.5466  1.8894
  327SOL     OW10689   3.227   0.586   0.664 -0.3373 -0.0383 -0.1100
  327SOL    HW110690   3.211   0.495   0.626  1.5339  0.0887 -1.2759
  327SOL    HW210691   3.212   0.655   0.593  1.0834  0.3515 -0.0546
  328SOL     OW10692   4.132   2.509   2.080  0.3649 -0.3483 -0.2364
  328SOL    HW110693   4.098   2.560   2.159 -0.0937  0.0077 -0.6609
  328SOL    HW210694   4.067   2.437   2.055 -1.0073  1.5177 -2.1952
  329SOL     OW10695   2.903   7.311   2.610 -0.0180  0.2398 -0.2301
  329SOL    HW110696   2.865   7.379   2.548 -2.5575 -1.3234 -0.4753
  329SOL    HW210697   2.899   7.221   2.567  2.0822 -0.2734  0.5859
  330SOL     OW10698   3.290   8.515   2.373  0.5900  0.9543  0.2679
  330SOL    HW110699   3.233   8.561   2.305  0.3975  0.8259  0.3403
  330SOL    HW210700   3.239   8.438   2.412  0.2099  1.7980  1.4858
  331SOL     OW10701   3.613   1.487   1.306  0.1271 -0.2084  0.2342
  331SOL    HW110702   3.590   1.562   1.245  0.0813 -1.7154 -1.6436
  331SOL    HW210703   3.532   1.457   1.356  0.5005  2.1016  2.2992
  332SOL     OW10704   4.879   3.944   1.131  0.7138  0.4157  0.6090
  332SOL    HW110705   4.817   3.897   1.068  2.6395  0.7414 -1.5885
  332SOL    HW210706   4.851   3.925   1.225 -3.4279  1.4912 -0.2777
  333SOL     OW10707   3.246   0.818   1.090 -0.0161 -0.2584  0.2552
  333SOL    HW110708   3.212   0.897   1.040  0.6449 -0.8698 -1.1955
  333SOL    HW210709   3.226   0.734   1.038  1.3352 -0.8400  0.6501
  334SOL     OW10710   3.827   8.658   2.068  0.0565 -0.4393  0.0388
  334SOL    HW110711   3.803   8.657   1.971 -0.4383  1.1880  0.1337
  334SOL    HW210712   3.918   8.698   2.079 -0.2277  0.1257  0.3192
  335SOL     OW10713   2.987   9.295   2.164  0.2084  0.2021 -0.4255
  335SOL    HW110714   3.038   9.381   2.171  0.0076  0.2124  1.0764
  335SOL    HW210715   3.025   9.229   2.230 -0.1650 -0.5885 -1.0016
  336SOL     OW10716   3.006   2.429   2.071 -0.0201 -0.3691  0.4736
  336SOL    HW110717   3.067   2.355   2.100  0.0543 -1.2088 -1.6828
  336SOL    HW210718   2.978   2.413   1.976  0.7005  2.8480 -0.3417
  337SOL     OW10719   2.826   5.255   1.682  0.1248  0.0397  0.1432
  337SOL    HW110720   2.772   5.170   1.684  0.3477 -0.0952  0.5574
  337SOL    HW210721   2.862   5.273   1.773  4.2478 -2.1247 -0.9261
  338SOL     OW10722   3.323   8.239   1.595 -0.2682 -0.0365  0.7531
  338SOL    HW110723   3.227   8.212   1.595  0.0046 -1.0435  2.3007
  338SOL    HW210724   3.330   8.337   1.612 -1.0964  0.3938 -1.2561
  339SOL     OW10725   2.461   6.710   1.547 -0.0756  0.1209 -0.2001
  339SOL    HW110726   2.376   6.708   1.493 -2.0166  0.8154  2.7157
  339SOL    HW210727   2.445   6.760   1.632  3.3671  0.4531  0.3134
  340SOL     OW10728   4.153   3.126   1.199  0.2882 -0.2435 -0.1783
  340SOL    HW110729   4.115   3.034   1.202  1.6352 -0.8065  0.2342
  340SOL    HW210730   4.160   3.162   1.292  0.0750  0.1406 -0.3107
  341SOL     OW10731   2.940   5.002   1.547  0.0164  0.1979 -0.4263
  341SOL    HW110732   2.990   4.927   1.590  1.1704  1.5034  0.5561
  341SOL    HW210733   2.861   5.027   1.603 -1.1024 -1.1029 -1.3961
  342SOL     OW10734   4.125   8.610   0.748  0.4539  0.6398 -0.1795
  342SOL    HW110735   4.065   8.558   0.688  0.5037 -0.8065  1.0197
  342SOL    HW210736   4.137   8.702   0.710 -0.4827  0.1417 -1.7421
  343SOL     OW10737   2.866   6.084   0.596  0.2634  0.0258 -0.9637
  343SOL    HW110738   2.782   6.031   0.582  0.4342 -0.1734 -1.2500
  343SOL    HW210739   2.940   6.043   0.542 -0.0393  1.6134 -2.6148
  344SOL     OW10740   3.213   0.858   2.419  0.5699 -1.0276  0.0093
  344SOL    HW110741   3.232   0.946   2.375 -0.1352 -0.5165  0.7177
  344SOL    HW210742   3.200   0.872   2.517  1.9742 -2.1463  0.3685
  345SOL     OW10743   4.212   2.845   0.599 -0.1877 -0.2423 -0.0441
  345SOL    HW110744   4.265   2.868   0.680  0.2243 -3.9316  0.8347
  345SOL    HW210745   4.122   2.810   0.627 -2.0745  3.2012 -1.4185
  346SOL     OW10746   2.710   6.162   2.355 -0.1321 -0.0053 -0.0777
  346SOL    HW110747   2.804   6.152   2.322  0.1284  2.0670 -0.0539
  346SOL    HW210748   2.660   6.221   2.292 -1.0715 -0.1186  0.5640
  347SOL     OW10749   3.841   2.988   1.737 -0.5420 -0.1101 -0.2062
  347SOL    HW110750   3.891   2.905   1.763  0.1699  0.2663 -0.3647
  347SOL    HW210751   3.763   3.001   1.799  0.6895  0.3587  1.2868
  348SOL     OW10752   3.741   1.341   1.111  1.0620 -0.7789 -0.4466
  348SOL    HW110753   3.735   1.388   1.199 -1.8587 -0.3959 -0.7820
  348SOL    HW210754   3.762   1.245   1.127 -1.2240 -1.1177  0.8583
  349SOL     OW10755   3.254   0.302   1.498  0.1668  0.0890 -0.1870
  349SOL    HW110756   3.258   0.392   1.542 -0.9159  0.3009 -0.4922
  349SOL    HW210757   3.269   0.313   1.400  1.3083 -0.2247 -0.0493
  350SOL     OW10758   3.134   3.662   2.141 -0.4716 -0.1791 -0.0594
  350SOL    HW110759   3.127   3.759   2.118 -2.8997 -0.5618 -1.0861
  350SOL    HW210760   3.220   3.645   2.189  0.8497  2.1429 -1.5198
  351SOL     OW10761   2.896   8.383   0.519  0.1675  0.9087  0.1823
  351SOL    HW110762   2.902   8.384   0.419 -0.7532 -3.7053 -0.0009
  351SOL    HW210763   2.810   8.424   0.548 -1.8927 -2.2338 -1.2591
  352SOL     OW10764   3.180   4.242   1.605 -0.0937  0.0161  0.5422
  352SOL    HW110765   3.163   4.239   1.507 -0.8859  1.1546  0.6298
  352SOL    HW210766   3.266   4.197   1.626 -0.3148 -0.9335 -0.5819
  353SOL     OW10767   3.421   4.912   2.782 -0.0603  0.0261 -0.0570
  353SOL    HW110768   3.362   4.848   2.832  0.0645  2.3783  3.2860
  353SOL    HW210769   3.515   4.902   2.814  0.4558  0.0140 -1.5285
  354SOL     OW10770   3.063   3.594   1.763  0.5904 -0.5135  0.0674
  354SOL    HW110771   3.090   3.683   1.799 -1.6277  0.1215  0.2323
  354SOL    HW210772   3.042   3.603   1.666  0.9756 -1.0149 -0.0670
  355SOL     OW10773   2.364   7.181   0.840  0.0180 -0.2652  0.5896
  355SOL    HW110774   2.387   7.277   0.859 -2.3541 -0.0571  2.6363
  355SOL    HW210775   2.311   7.176   0.755  1.7426 -0.0212 -0.5395
  356SOL     OW10776   3.301   2.511   0.929 -0.1398 -0.3985 -0.9638
  356SOL    HW110777   3.380   2.475   0.881  1.1892  2.0892 -0.7313
  356SOL    HW210778   3.271   2.596   0.886 -0.6702  0.3788  0.8542
  357SOL     OW10779   3.313   2.987   0.957 -0.0525 -0.1171  0.8790
  357SOL    HW110780   3.239   3.033   0.907  1.3029  0.7706 -0.3546
  357SOL    HW210781   3.325   2.895   0.920  2.6863  1.4225 -2.3643
  358SOL     OW10782   3.662   8.125   2.760  0.4697  0.1872  0.8019
  358SOL    HW110783   3.592   8.158   2.698  1.7179  0.9998 -0.1991
  358SOL    HW210784   3.658   8.025   2.767  0.8643  0.0222 -1.2444
  359SOL     OW10785   3.231   2.739   2.150 -0.1231  0.5647  0.2167
  359SOL    HW110786   3.176   2.656   2.140 -0.7256  1.0552 -0.7028
  359SOL    HW210787   3.289   2.732   2.231 -0.3212 -0.6602  0.2588
  360SOL     OW10788   3.122   9.140   2.358  0.5176  0.1874 -0.4854
  360SOL    HW110789   3.073   9.096   2.434  0.4346 -1.5847 -1.5301
  360SOL    HW210790   3.220   9.132   2.373  0.4964  0.3252 -0.2799
  361SOL     OW10791   4.175   3.657   1.899 -0.1818 -0.2050 -0.4049
  361SOL    HW110792   4.148   3.668   1.803 -0.1671 -1.5400 -0.5754
  361SOL    HW210793   4.270   3.625   1.903 -0.4268 -0.8953  0.0240
  362SOL     OW10794   3.163   0.032   1.127 -0.2605  0.1147  0.1317
  362SOL    HW110795   3.086  -0.030   1.140  0.5178 -0.9162 -0.0704
  362SOL    HW210796   3.247  -0.013   1.159  0.7365  0.0070 -2.5687
  363SOL     OW10797   2.639   7.607   0.789 -0.1960  0.4809 -0.1638
  363SOL    HW110798   2.716   7.593   0.851  0.8579 -0.5636 -1.6730
  363SOL    HW210799   2.574   7.531   0.799 -0.4088  0.7049  0.1875
  364SOL     OW10800   3.246   4.914   0.817 -0.3228 -0.1084  0.1109
  364SOL    HW110801   3.190   4.835   0.792 -0.6285 -0.5979  2.2596
  364SOL    HW210802   3.261   4.915   0.916  0.0456  2.2911  0.0643
  365SOL     OW10803   3.961   0.535   2.097 -0.0243  0.3416 -0.1474
  365SOL    HW110804   3.920   0.506   2.183 -0.0536  1.1505  0.1153
  365SOL    HW210805   3.970   0.635   2.096  1.2569  0.2358 -0.4937
  366SOL     OW10806   3.804   4.659   2.796  0.1342 -0.7362  0.2259
  366SOL    HW110807   3.773   4.754   2.788 -1.3157 -1.1913  0.2070
  366SOL    HW210808   3.775   4.608   2.716  1.6841 -1.0014 -0.1810
  367SOL     OW10809   3.356   9.373   2.222  0.5407  0.0691 -0.1925
  367SOL    HW110810   3.374   9.451   2.162  4.7121  0.1658  1.0620
  367SOL    HW210811   3.302   9.404   2.301 -0.5458  0.9857 -1.2643
  368SOL     OW10812   2.547   7.015   1.430 -0.1581 -0.1904  0.1677
  368SOL    HW110813   2.475   7.073   1.393 -1.6021 -1.5723  0.7334
  368SOL    HW210814   2.635   7.062   1.423 -1.0773  1.4489 -0.6994
  369SOL     OW10815   2.263   6.251   2.436 -0.0874 -0.0830  0.4675
  369SOL    HW110816   2.221   6.191   2.505 -0.0904  0.0728  0.5999
  369SOL    HW210817   2.337   6.303   2.478 -1.8958  2.1118  1.0676
  370SOL     OW10818   4.373   2.708   2.161 -0.1013  0.2578 -0.1677
  370SOL    HW110819   4.465   2.714   2.200  0.5379  0.0378 -1.6261
  370SOL    HW210820   4.358   2.616   2.124 -0.9182  0.2813  0.0999
  371SOL     OW10821   2.763   9.975   2.362  0.9313  0.3003  0.4047
  371SOL    HW110822   2.795   9.955   2.455  0.9467  1.1052  0.5729
  371SOL    HW210823   2.752  10.073   2.351  0.5917  0.1813 -0.3409
  372SOL     OW10824   4.148   2.843   2.033 -0.0563 -0.5354 -0.6430
  372SOL    HW110825   4.202   2.786   2.094 -1.2402 -2.1218 -1.0215
  372SOL    HW210826   4.083   2.897   2.087  0.2644 -0.4288 -0.3610
  373SOL     OW10827   3.915   8.392   1.134 -0.5481 -0.3196  0.4265
  373SOL    HW110828   3.990   8.345   1.089  0.7476  1.3260  0.8000
  373SOL    HW210829   3.866   8.328   1.194  1.0054 -1.2433  0.7274
  374SOL     OW10830   2.671   0.265   1.382  0.2467 -0.3651 -0.0998
  374SOL    HW110831   2.615   0.198   1.430 -0.4395 -0.5059 -1.0848
  374SOL    HW210832   2.767   0.256   1.411 -0.1838 -0.3207  1.3680
  375SOL     OW10833   2.347   7.033   1.049 -0.0067  0.2426 -0.6892
  375SOL    HW110834   2.393   6.947   1.025 -1.5208 -0.5856 -0.6870
  375SOL    HW210835   2.353   7.097   0.972 -0.2083 -0.4382 -1.2764
  376SOL     OW10836   3.998   1.860   0.168 -1.1558 -0.6096 -0.1298
  376SOL    HW110837   4.050   1.809   0.236 -1.2256  0.4534  0.7315
  376SOL    HW210838   4.061   1.903   0.103 -1.1059 -1.9432 -0.9693
  377SOL     OW10839   4.587   2.477   1.909 -0.2927 -0.2594 -0.2563
  377SOL    HW110840   4.510   2.509   1.964 -0.3782 -0.6896 -0.1230
  377SOL    HW210841   4.579   2.378   1.894 -0.3181 -0.1333 -1.1145
  378SOL     OW10842   3.845   1.553   1.455 -0.2762 -0.1637 -0.2001
  378SOL    HW110843   3.915   1.486   1.481 -1.3902 -0.2734  2.6410
  378SOL    HW210844   3.770   1.506   1.408 -1.0540 -0.9438  1.7841
  379SOL     OW10845   3.070   3.000   1.212  0.1945 -0.2723  0.1035
  379SOL    HW110846   3.073   2.902   1.194 -2.5728 -0.6857  1.5925
  379SOL    HW210847   3.139   3.023   1.280  1.8894 -0.8961 -1.3649
  380SOL     OW10848   3.256   0.711   0.425  0.0899  0.5829 -0.0600
  380SOL    HW110849   3.341   0.716   0.478  0.4829 -0.9479 -0.5269
  380SOL    HW210850   3.228   0.804   0.399  2.2989  1.0474 -0.9475
  381SOL     OW10851   3.359   0.726   2.711 -0.5038 -0.9822  0.2252
  381SOL    HW110852   3.425   0.681   2.772  0.4497  0.3126  0.1655
  381SOL    HW210853   3.406   0.757   2.629 -1.1330  0.1880  0.2999
  382SOL     OW10854   3.081   5.991   2.780 -0.3186 -0.4907 -0.1831
  382SOL    HW110855   3.117   6.023   2.693 -0.2735 -2.5419 -0.9585
  382SOL    HW210856   2.981   5.996   2.780 -0.2447  1.0491  0.2808
  383SOL     OW10857   4.737   2.731   0.784  0.1086 -0.2604 -0.0979
  383SOL    HW110858   4.664   2.665   0.768 -1.3444  0.2752  3.7421
  383SOL    HW210859   4.715   2.818   0.740  0.0098 -1.0434 -1.6242
  384SOL     OW10860   4.113   5.024   1.204  0.1793  0.1077  0.0182
  384SOL    HW110861   4.038   5.062   1.150 -1.1851 -2.6822 -0.1798
  384SOL    HW210862   4.078   4.995   1.293  1.5542  0.9798  0.8603
  385SOL     OW10863   4.643   4.119   0.981  0.1052 -0.3232 -0.0512
  385SOL    HW110864   4.649   4.029   1.024 -2.0400 -0.1722  0.5987
  385SOL    HW210865   4.721   4.175   1.011  3.0195 -2.8262 -2.6253
  386SOL     OW10866   2.828   3.672   0.659 -0.4145 -0.0139  0.2420
  386SOL    HW110867   2.770   3.606   0.610 -0.0600  0.0298 -0.2427
  386SOL    HW210868   2.866   3.629   0.741 -0.2082 -0.4046 -0.0564
  387SOL     OW10869   4.008   2.776   1.807  0.5771  0.0650 -0.2472
  387SOL    HW110870   4.059   2.697   1.774  0.8670 -0.4693  1.4119
  387SOL    HW210871   4.069   2.834   1.862 -0.3741 -0.1269  1.0267
  388SOL     OW10872   3.047   3.790   0.583  0.4165 -0.2126 -0.3211
  388SOL    HW110873   2.966   3.740   0.615 -0.1527  1.1420  0.3657
  388SOL    HW210874   3.019   3.867   0.526  1.0405  1.9249  2.1473
  389SOL     OW10875   3.171   9.919   0.386  0.5624 -0.5228 -0.0515
  389SOL    HW110876   3.160  10.017   0.371 -0.5227 -0.6412 -0.0758
  389SOL    HW210877   3.267   9.899   0.408  0.6542  0.6320  0.6557
  390SOL     OW10878   3.536   4.669   2.058  0.5712  0.8704  0.4282
  390SOL    HW110879   3.474   4.741   2.090  0.5436  1.3038 -0.6024
  390SOL    HW210880   3.554   4.681   1.961  1.5774  0.2255  0.5305
  391SOL     OW10881   3.105   4.416   1.149  0.4328  0.4173  0.5238
  391SOL    HW110882   3.089   4.454   1.240  0.6128 -0.6837  1.0280
  391SOL    HW210883   3.199   4.435   1.121  0.0246  1.7772  0.0648
  392SOL     OW10884   3.869   1.155   0.437 -0.4430 -0.0354 -0.0418
  392SOL    HW110885   3.840   1.080   0.377  0.3782  1.6511 -2.6307
  392SOL    HW210886   3.809   1.234   0.423  2.4198  1.8906 -1.9931
  393SOL     OW10887   3.938   8.084   0.233  0.1969  0.4101 -0.1859
  393SOL    HW110888   3.948   8.148   0.157  1.8961  1.7058  1.0881
  393SOL    HW210889   4.010   8.100   0.300 -1.3327 -0.6315  1.7713
  394SOL     OW10890   2.706   6.770   2.256  0.4537 -0.5605  0.1383
  394SOL    HW110891   2.629   6.726   2.302 -0.1480 -0.5393 -0.8436
  394SOL    HW210892   2.709   6.741   2.160 -0.2427  1.9137 -0.6556
  395SOL     OW10893   2.529   6.160   1.632  0.0337 -0.1992 -0.2806
  395SOL    HW110894   2.580   6.089   1.680  1.0768  0.0719 -0.9739
  395SOL    HW210895   2.491   6.123   1.548 -1.4537 -0.5643  0.5261
  396SOL     OW10896   3.822   7.595   2.520 -0.8079  0.0331 -0.4173
  396SOL    HW110897   3.899   7.557   2.470  0.0632  1.2721 -0.0366
  396SOL    HW210898   3.825   7.695   2.516 -1.2583  0.1331  1.2842
  397SOL     OW10899   3.568   8.355   1.279  0.0506 -0.3004  0.1326
  397SOL    HW110900   3.608   8.263   1.275  2.3685  0.7223 -1.8097
  397SOL    HW210901   3.613   8.407   1.352  0.1910 -0.0763 -0.1120
  398SOL     OW10902   3.254   3.380   1.021  0.0314 -0.5873  0.7194
  398SOL    HW110903   3.334   3.322   1.036 -0.2147 -0.2643  3.4910
  398SOL    HW210904   3.172   3.322   1.019  0.0635 -0.6284  0.4951
  399SOL     OW10905   3.546   8.937   0.114 -0.2104 -0.2641 -0.6588
  399SOL    HW110906   3.546   8.859   0.052 -1.0080  0.3842 -1.4801
  399SOL    HW210907   3.570   8.906   0.206  0.5645 -1.2926 -1.1944
  400SOL     OW10908   3.326   2.051   1.454  0.6756 -0.2131  0.2427
  400SOL    HW110909   3.328   1.976   1.388  1.4485 -1.0837  1.2573
  400SOL    HW210910   3.384   2.125   1.420  0.3559 -0.2830 -0.4843
  401SOL     OW10911   3.466   9.920   0.453  0.0660  0.1938 -0.1664
  401SOL    HW110912   3.469  10.020   0.449  1.6314  0.1397 -0.7628
  401SOL    HW210913   3.543   9.887   0.509  0.3436 -0.7298 -1.0849
  402SOL     OW10914   4.138   8.504   2.414  0.1737  0.6488 -0.1113
  402SOL    HW110915   4.196   8.580   2.387  0.9129  0.4705  0.9040
  402SOL    HW210916   4.046   8.537   2.437  0.9098  1.4680  1.7603
  403SOL     OW10917   3.004   9.064   2.593  0.4714  0.4617 -0.0263
  403SOL    HW110918   2.985   9.043   2.689 -2.1287 -0.7800 -0.7922
  403SOL    HW210919   2.930   9.120   2.556  0.3178 -0.9692 -1.9317
  404SOL     OW10920   2.802   3.992   2.697 -0.0936 -0.8914  0.7963
  404SOL    HW110921   2.836   4.075   2.741  0.8156 -1.4690  1.1911
  404SOL    HW210922   2.878   3.943   2.656 -1.1479  0.6695 -3.2607
  405SOL     OW10923   3.572   1.491   2.363 -0.1914 -0.1346  0.3088
  405SOL    HW110924   3.638   1.554   2.404 -0.4617  0.1656  0.2880
  405SOL    HW210925   3.484   1.538   2.351  0.1107  0.0352 -1.3365
  406SOL     OW10926   2.814   9.282   2.790  0.1317 -0.4670  0.0814
  406SOL    HW110927   2.796   9.303   2.694  0.7981  0.5499  0.1729
  406SOL    HW210928   2.799   9.185   2.806 -2.8080 -0.1594 -0.4164
  407SOL     OW10929   5.043   3.411   1.308 -0.2857 -0.0078  0.1873
  407SOL    HW110930   4.983   3.343   1.351  2.5850 -2.0436  1.1495
  407SOL    HW210931   5.043   3.494   1.363 -1.4252 -0.3483  0.7271
  408SOL     OW10932   3.784   5.256   0.490  0.4598  0.0056 -0.5145
  408SOL    HW110933   3.704   5.241   0.431  1.2340  0.5204 -1.7033
  408SOL    HW210934   3.772   5.341   0.541  0.2671  0.1044 -0.7217
  409SOL     OW10935   3.477   1.253   0.556  0.2865 -0.0881 -0.1335
  409SOL    HW110936   3.490   1.299   0.643  3.6926 -0.6118 -0.3235
  409SOL    HW210937   3.459   1.156   0.571 -0.5629  0.0863  0.0140
  410SOL     OW10938   3.450   0.652   0.113  0.2417  0.0601 -0.5361
  410SOL    HW110939   3.434   0.567   0.163 -1.0141  0.3335 -0.4472
  410SOL    HW210940   3.363   0.702   0.104  0.9729  1.3390 -0.5650
  411SOL     OW10941   3.154   9.684   1.098  0.2389 -1.0153 -0.3746
  411SOL    HW110942   3.094   9.760   1.126  0.8652 -1.4321  2.2998
  411SOL    HW210943   3.101   9.600   1.094 -0.4599 -0.4836 -3.3583
  412SOL     OW10944   3.146   8.610   2.157  0.1889 -0.1609  0.2026
  412SOL    HW110945   3.123   8.540   2.090  0.2115 -0.5270  0.5779
  412SOL    HW210946   3.197   8.683   2.113  1.8384 -1.3023  0.2051
  413SOL     OW10947   3.755   3.474   2.036 -0.2965  0.6812 -0.4030
  413SOL    HW110948   3.663   3.439   2.018 -0.3857  0.4832  0.4256
  413SOL    HW210949   3.822   3.420   1.985 -0.4251 -0.7696  0.9537
  414SOL     OW10950   3.762   1.839   1.385  0.2090 -0.1072 -0.0788
  414SOL    HW110951   3.758   1.748   1.426 -1.5945 -0.3494 -0.7475
  414SOL    HW210952   3.801   1.832   1.293 -0.9769 -0.3845 -0.5705
  415SOL     OW10953   2.843   6.454   1.693  0.5653  0.3499  0.1808
  415SOL    HW110954   2.879   6.420   1.606  0.7677 -1.1337  0.8306
  415SOL    HW210955   2.745   6.432   1.700  0.8220 -0.6013  0.8426
  416SOL     OW10956   3.088   4.544   1.684 -0.0355 -0.3954 -0.1156
  416SOL    HW110957   3.185   4.521   1.673 -0.1452 -1.0182  0.1481
  416SOL    HW210958   3.036   4.460   1.701 -0.6298 -0.0717 -0.3121
  417SOL     OW10959   4.461   2.919   1.963 -0.6087  0.4655  0.0368
  417SOL    HW110960   4.528   2.854   1.925 -0.6868  0.5509 -0.2499
  417SOL    HW210961   4.414   2.877   2.041 -0.8441  0.0784 -0.3105
  418SOL     OW10962   4.414   1.271   1.024  0.0284 -0.2773  0.1335
  418SOL    HW110963   4.388   1.202   0.958 -0.4079 -1.3533  1.4041
  418SOL    HW210964   4.506   1.305   1.004  0.2177 -1.1892 -0.5267
  419SOL     OW10965   4.170   0.973   1.329  0.0083  0.0853  0.2162
  419SOL    HW110966   4.229   0.920   1.268 -2.2844  0.5162 -2.4237
  419SOL    HW210967   4.125   0.911   1.393 -0.0233 -0.7624 -0.6166
  420SOL     OW10968   4.283   1.962   0.714  0.1690 -0.2592  0.2998
  420SOL    HW110969   4.290   2.062   0.722  0.1840 -0.3507  1.5918
  420SOL    HW210970   4.187   1.936   0.709  0.2255 -0.0020 -2.8439
  421SOL     OW10971   3.766   3.880   2.268 -0.0355  0.8639 -0.4196
  421SOL    HW110972   3.851   3.888   2.320  0.3841 -0.4507 -0.8892
  421SOL    HW210973   3.702   3.950   2.299  0.3957  0.4392  1.4939
  422SOL     OW10974   2.569   4.399   0.203  0.0943 -0.3320 -0.4447
  422SOL    HW110975   2.501   4.353   0.261  0.5003 -1.1432 -0.6061
  422SOL    HW210976   2.551   4.377   0.107 -0.5425  0.9659 -0.6428
  423SOL     OW10977   3.103   7.795   2.762 -0.1976 -0.7647 -0.1900
  423SOL    HW110978   3.013   7.816   2.724  0.3606  2.8104  0.3278
  423SOL    HW210979   3.109   7.696   2.779 -3.9189 -1.1081 -0.3666
  424SOL     OW10980   4.862   1.686   0.922 -0.4011 -0.1029 -0.1850
  424SOL    HW110981   4.789   1.754   0.928 -0.9665 -0.7755  0.7124
  424SOL    HW210982   4.919   1.691   1.003  0.0120 -0.1848 -0.4695
  425SOL     OW10983   3.811   3.888   1.428 -0.2245 -0.5007  0.0955
  425SOL    HW110984   3.853   3.898   1.338  1.0801  0.0077  0.7419
  425SOL    HW210985   3.841   3.964   1.487 -0.4142 -1.2743  1.2019
  426SOL     OW10986   4.465   3.601   1.882 -0.3945  0.0663  0.3993
  426SOL    HW110987   4.444   3.529   1.815 -3.0338 -0.0232  1.2591
  426SOL    HW210988   4.497   3.682   1.833  0.9127 -1.0947 -0.7133
  427SOL     OW10989   2.503   6.246   0.470 -0.9200  0.8795 -0.8232
  427SOL    HW110990   2.548   6.203   0.392 -1.1889 -0.3678 -0.3040
  427SOL    HW210991   2.424   6.299   0.438  0.0510  1.9210 -1.5813
  428SOL     OW10992   2.368   9.129   1.895  0.4143  0.0179  0.3621
  428SOL    HW110993   2.464   9.107   1.913  0.6758  0.1920 -0.7848
  428SOL    HW210994   2.354   9.137   1.796 -0.3587  1.8665  0.6080
  429SOL     OW10995   2.920   9.679   1.956  0.6204 -0.1771  0.1400
  429SOL    HW110996   2.928   9.660   1.858 -0.6298  3.3745 -0.7483
  429SOL    HW210997   2.841   9.739   1.971  2.1785  1.2358  3.0155
  430SOL     OW10998   3.077   8.129   1.623  0.2588 -0.1996 -0.1749
  430SOL    HW110999   3.069   8.107   1.526 -1.7866 -2.1574  0.3958
  430SOL    HW211000   2.990   8.110   1.669  1.1276  0.9056  2.0166
  431SOL     OW11001   3.293   1.856   1.925  0.0995  0.5527  0.5579
  431SOL    HW111002   3.263   1.940   1.880 -0.8715  0.5191  1.1415
  431SOL    HW211003   3.337   1.796   1.857  0.1363  1.2128 -0.0052
  432SOL     OW11004   3.183   4.083   0.676  0.3892 -0.1267 -0.4869
  432SOL    HW111005   3.272   4.043   0.654  0.2085  0.0531 -1.5576
  432SOL    HW211006   3.172   4.086   0.775  1.7658  0.2566 -0.3326
  433SOL     OW11007   3.366   8.832   1.123  0.2000 -0.3708  0.0605
  433SOL    HW111008   3.411   8.922   1.117 -0.0118 -0.3472 -1.3369
  433SOL    HW211009   3.431   8.760   1.100 -0.4049 -0.3479 -1.8228
  434SOL     OW11010   4.267   4.314   2.733  0.5132 -0.1442  0.0398
  434SOL    HW111011   4.211   4.231   2.744 -0.3411  0.4369  0.1192
  434SOL    HW211012   4.237   4.383   2.798  0.9021  0.3997 -0.3578
  435SOL     OW11013   3.147   4.541   2.371  0.3613 -0.1287 -0.2326
  435SOL    HW111014   3.100   4.623   2.338  1.6117  0.3201 -0.9205
  435SOL    HW211015   3.090   4.461   2.353 -0.4774  0.4849 -0.3587
  436SOL     OW11016   4.470   3.439   1.639  0.3036  0.3696  0.3863
  436SOL    HW111017   4.493   3.522   1.589  0.7704 -1.6342 -2.8836
  436SOL    HW211018   4.370   3.426   1.637  0.3465  0.1143 -0.3750
  437SOL     OW11019   3.027   3.711   2.522  0.0060 -0.5000  0.0875
  437SOL    HW111020   2.986   3.701   2.432  1.8723 -0.7066 -0.7674
  437SOL    HW211021   3.104   3.775   2.518 -0.6399  0.4338  1.7963
  438SOL     OW11022   2.633   3.343   0.750 -0.3206  0.7932 -0.7851
  438SOL    HW111023   2.624   3.246   0.773 -2.5140  1.3277  0.7417
  438SOL    HW211024   2.689   3.389   0.819  2.2485  0.3317 -2.4586
  439SOL     OW11025   3.080   5.326   2.808  0.1759 -0.1581 -0.2441
  439SOL    HW111026   3.105   5.413   2.851 -0.7029  0.7202 -1.4761
  439SOL    HW211027   3.158   5.291   2.757  0.2843  0.3294 -0.4199
  440SOL     OW11028   2.437   6.817   1.839  0.3024 -0.0685  0.3602
  440SOL    HW111029   2.483   6.868   1.767  0.6842 -1.7372 -0.5917
  440SOL    HW211030   2.465   6.853   1.929 -0.9775  2.7139 -0.2980
  441SOL     OW11031   2.473   7.413   1.428 -0.1919  0.2973 -0.1672
  441SOL    HW111032   2.492   7.447   1.520  0.7896 -1.9060  0.4591
  441SOL    HW211033   2.393   7.354   1.429 -1.1972  1.6158 -1.0481
  442SOL     OW11034   4.117   3.801   1.294 -0.0294 -0.1380  0.0031
  442SOL    HW111035   4.164   3.821   1.207  1.1187 -0.5217  0.5244
  442SOL    HW211036   4.109   3.702   1.305 -0.6890 -0.0778  0.0653
  443SOL     OW11037   4.086   3.176   2.686  0.7060 -0.4428  0.8605
  443SOL    HW111038   4.142   3.191   2.605 -1.0761 -2.9070 -0.9076
  443SOL    HW211039   4.013   3.245   2.689  0.3435 -0.7752 -0.0510
  444SOL     OW11040   2.730   9.861   0.525 -0.1756  0.0164  0.0514
  444SOL    HW111041   2.801   9.820   0.467  0.5428  2.1432 -0.6163
  444SOL    HW211042   2.697   9.945   0.482 -1.6797  0.1106  1.3578
  445SOL     OW11043   3.679   2.022   1.582 -0.1673  0.0827 -0.1545
  445SOL    HW111044   3.724   1.959   1.519  0.7888  1.5415 -0.9329
  445SOL    HW211045   3.581   2.021   1.565 -0.0472 -0.4314 -0.8564
  446SOL     OW11046   4.002   8.975   0.837  0.5690 -0.5401  0.8161
  446SOL    HW111047   3.979   8.906   0.906 -0.2836 -1.4544 -0.3524
  446SOL    HW211048   4.074   8.940   0.778  0.6808 -0.1096  0.6984
  447SOL     OW11049   2.594   6.060   2.602  0.2905 -0.2960 -0.6740
  447SOL    HW111050   2.640   6.109   2.527  1.9432  2.8356  2.2490
  447SOL    HW211051   2.509   6.106   2.624  0.8899  0.1361  0.7974
  448SOL     OW11052   4.003   8.289   2.589 -0.4409  0.3452  0.4130
  448SOL    HW111053   4.033   8.348   2.664 -1.0002  0.8683  0.2309
  448SOL    HW211054   4.031   8.328   2.502 -0.8370  0.3600  0.2894
  449SOL     OW11055   3.322   9.002   2.761  0.5719  0.0689  0.7471
  449SOL    HW111056   3.356   8.967   2.849 -2.1739 -1.3854  1.2636
  449SOL    HW211057   3.271   8.930   2.714 -0.7053  1.8085 -0.5788
  450SOL     OW11058   3.097   5.479   2.096  0.4222  0.1404  0.4339
  450SOL    HW111059   3.175   5.418   2.084  0.4826  0.5279 -1.3310
  450SOL    HW211060   3.045   5.452   2.177  1.2936 -1.3296  0.5135
  451SOL     OW11061   3.781   1.530   0.869  0.2336  0.5111  0.0942
  451SOL    HW111062   3.773   1.478   0.954 -1.3626 -0.4191 -0.6115
  451SOL    HW211063   3.844   1.482   0.808 -0.4046 -0.0368 -0.1388
  452SOL     OW11064   4.577   3.324   1.938 -0.5526  0.4780 -0.0056
  452SOL    HW111065   4.492   3.314   1.990 -0.4005 -0.1553  0.1181
  452SOL    HW211066   4.632   3.397   1.979 -1.0555  0.9259 -0.1154
  453SOL     OW11067   3.640   7.855   2.787  0.0351  0.5653  0.1578
  453SOL    HW111068   3.627   7.758   2.769 -1.1224  0.7551 -0.0566
  453SOL    HW211069   3.608   7.876   2.880  0.0814  0.7797  0.1247
  454SOL     OW11070   3.541   1.651   0.319 -0.3314  0.1073  0.0413
  454SOL    HW111071   3.627   1.623   0.277  0.0122  0.4508  0.5136
  454SOL    HW211072   3.469   1.655   0.249  0.0007 -0.3127 -0.3268
  455SOL     OW11073   2.824   7.474   1.219 -0.4748  0.5342 -0.5630
  455SOL    HW111074   2.799   7.412   1.144 -1.4089  2.1201 -1.5970
  455SOL    HW211075   2.919   7.503   1.207 -0.1137 -0.4656 -0.2180
  456SOL     OW11076   3.590   0.738   1.532 -0.0623  0.3458 -0.2454
  456SOL    HW111077   3.524   0.673   1.569 -0.7271 -0.3583 -2.6244
  456SOL    HW211078   3.647   0.693   1.464  1.7552  1.3986  0.5446
  457SOL     OW11079   3.663   8.754   2.244 -1.0367  0.2139 -0.1673
  457SOL    HW111080   3.607   8.671   2.252 -1.3948  0.5136  0.5580
  457SOL    HW211081   3.727   8.744   2.168 -2.0378 -0.1549 -0.9754
  458SOL     OW11082   4.700   2.904   1.366  0.2798  0.1318  0.5724
  458SOL    HW111083   4.684   2.935   1.272 -3.6310 -1.0472  0.7404
  458SOL    HW211084   4.682   2.979   1.429 -0.3055  0.0396  0.5210
  459SOL     OW11085   3.020   6.471   2.268 -0.4647 -0.2203 -0.3989
  459SOL    HW111086   3.108   6.514   2.247 -0.7366  0.0356 -1.0148
  459SOL    HW211087   2.967   6.461   2.184 -0.8925 -0.6720 -0.0744
  460SOL     OW11088   2.406   3.865   0.120  0.0603  1.1156  0.1637
  460SOL    HW111089   2.328   3.868   0.058 -1.0553 -1.5741  1.3680
  460SOL    HW211090   2.488   3.842   0.069 -0.9015 -1.4347 -0.3208
  461SOL     OW11091   2.888   5.091   0.643 -0.1829  0.3776 -0.6733
  461SOL    HW111092   2.980   5.079   0.606  0.0382 -0.1406  0.0370
  461SOL    HW211093   2.883   5.178   0.692  0.6945 -0.7713  1.5209
  462SOL     OW11094   4.295   3.878   0.365 -0.3845  0.2078 -0.0442
  462SOL    HW111095   4.305   3.972   0.397  0.1093 -0.1028  0.7095
  462SOL    HW211096   4.280   3.818   0.442  2.0125 -0.7185 -0.2450
  463SOL     OW11097   2.972   3.018   2.596  0.1429  0.0374 -0.0981
  463SOL    HW111098   2.875   3.037   2.613 -0.1725  0.9414 -2.6057
  463SOL    HW211099   2.982   2.981   2.503  2.0351 -1.5424  0.7118
  464SOL     OW11100   4.831   3.320   1.760 -0.0660 -0.0911 -0.1419
  464SOL    HW111101   4.751   3.326   1.821 -1.0065  0.0640 -1.3600
  464SOL    HW211102   4.901   3.262   1.801 -1.8212 -2.2669 -0.1264
  465SOL     OW11103   5.034   3.835   0.877 -0.1324  0.3299  0.1855
  465SOL    HW111104   5.033   3.752   0.821  0.3167 -0.0335  0.7127
  465SOL    HW211105   4.972   3.823   0.955 -2.3146  1.5944 -1.3048
  466SOL     OW11106   4.679   3.405   0.132 -0.3050 -0.2142  0.0917
  466SOL    HW111107   4.761   3.430   0.183 -1.1858 -0.1955  1.5390
  466SOL    HW211108   4.652   3.479   0.071 -0.3002  0.5264  0.9843
  467SOL     OW11109   2.958   1.932   2.065 -0.6769  0.2426 -0.5475
  467SOL    HW111110   2.918   1.981   1.987  0.5592  0.9928 -0.7298
  467SOL    HW211111   2.982   1.997   2.137 -0.5797 -0.2971 -0.0901
  468SOL     OW11112   3.674   3.774   0.522 -0.3082 -0.4081 -0.1037
  468SOL    HW111113   3.756   3.830   0.510 -0.9307  0.7673  1.0145
  468SOL    HW211114   3.674   3.701   0.454  0.5382  0.9258 -1.5813
  469SOL     OW11115   3.482   0.482   1.863 -0.5658 -0.7082 -0.7685
  469SOL    HW111116   3.465   0.540   1.943 -0.9720 -1.8261 -0.0330
  469SOL    HW211117   3.575   0.446   1.868 -0.3037 -0.1086 -1.2414
  470SOL     OW11118   2.637   3.531   0.503  0.4226 -0.4941 -0.1889
  470SOL    HW111119   2.596   3.474   0.573 -0.6645 -1.2894 -1.4545
  470SOL    HW211120   2.566   3.572   0.445  1.1525  2.3590  0.8189
  471SOL     OW11121   3.338   4.511   0.345 -0.3137 -0.5177  0.2072
  471SOL    HW111122   3.292   4.426   0.320 -0.2922 -0.6862  0.7486
  471SOL    HW211123   3.312   4.538   0.437 -0.5605  0.2315 -0.0781
  472SOL     OW11124   3.111   3.436   0.401 -0.5255 -0.0303 -0.1600
  472SOL    HW111125   3.087   3.417   0.496 -0.6830 -0.8231 -0.3609
  472SOL    HW211126   3.164   3.521   0.397 -0.2715 -0.1446  0.6679
  473SOL     OW11127   3.920   8.827   1.092 -0.3598  0.0128  0.0167
  473SOL    HW111128   3.919   8.755   1.161 -0.0502  1.7711  1.9028
  473SOL    HW211129   3.843   8.889   1.106 -0.5766  0.1179 -1.5232
  474SOL     OW11130   4.887   3.529   0.338 -0.0412 -0.3362  0.5697
  474SOL    HW111131   4.916   3.546   0.432 -0.2133  0.3105  0.5080
  474SOL    HW211132   4.848   3.613   0.299 -0.2010 -0.6683  0.0065
  475SOL     OW11133   2.923   4.925   2.386 -0.1063  0.2475  0.3478
  475SOL    HW111134   2.945   4.870   2.467  3.1254  0.3236 -0.4011
  475SOL    HW211135   2.889   5.014   2.415  2.7959  0.9809  1.7288
  476SOL     OW11136   3.378   9.054   2.427  0.2489 -0.6208  0.3024
  476SOL    HW111137   3.476   9.049   2.408 -0.0444 -1.9545 -0.9966
  476SOL    HW211138   3.363   9.087   2.520  1.8992  0.6138  0.1600
  477SOL     OW11139   3.917   2.797   2.705  0.5897 -1.1134  0.2404
  477SOL    HW111140   3.895   2.708   2.745 -0.4642 -0.8600  0.2438
  477SOL    HW211141   3.996   2.837   2.752 -0.2044 -1.1260  1.6221
  478SOL     OW11142   4.283   3.394   0.758 -0.9300 -0.0130 -0.1346
  478SOL    HW111143   4.205   3.366   0.702 -1.3759  0.0831  0.4229
  478SOL    HW211144   4.294   3.331   0.834 -0.7736  0.2538  0.0667
  479SOL     OW11145   3.514   0.164   0.064 -0.0998  0.0571  0.0122
  479SOL    HW111146   3.528   0.254   0.104 -0.9009 -0.3688  1.3043
  479SOL    HW211147   3.572   0.097   0.111  2.6192  0.3136 -2.7907
  480SOL     OW11148   4.543   2.175   0.544  0.1497  0.0377  0.2742
  480SOL    HW111149   4.545   2.081   0.578  0.3194  0.6255  1.9498
  480SOL    HW211150   4.555   2.175   0.445  2.2902 -1.5952  0.4945
  481SOL     OW11151   4.513   2.195   1.858  0.4215  0.6293  0.0783
  481SOL    HW111152   4.486   2.164   1.949 -0.7658  1.8961  0.1796
  481SOL    HW211153   4.566   2.124   1.813 -0.7901 -0.8653  0.9502
  482SOL     OW11154   2.683   5.468   1.585  0.0714  0.5624 -0.2671
  482SOL    HW111155   2.602   5.414   1.566 -1.2116  1.7084  1.7753
  482SOL    HW211156   2.755   5.410   1.623 -0.8829  0.0825  0.8038
  483SOL     OW11157   2.626   3.800   2.833  0.3463 -0.8761  0.5009
  483SOL    HW111158   2.675   3.869   2.779  1.9756 -2.1705  0.2904
  483SOL    HW211159   2.622   3.715   2.781 -2.6784 -0.6401  0.2711
  484SOL     OW11160   3.729   8.727   1.818 -0.3606  0.7948  0.3576
  484SOL    HW111161   3.743   8.742   1.720  1.6053  2.0534  0.7910
  484SOL    HW211162   3.733   8.815   1.866 -0.5352  0.1114  1.6609
  485SOL     OW11163   2.676   5.884   0.270  0.3059  0.4770 -0.0417
  485SOL    HW111164   2.732   5.837   0.339  0.9476  1.4491  0.1150
  485SOL    HW211165   2.721   5.970   0.244  1.4608 -1.0835 -3.6332
  486SOL     OW11166   3.149   9.497   1.983 -0.6862  0.3045 -0.0147
  486SOL    HW111167   3.151   9.493   1.883 -2.5512 -2.0263  0.0054
  486SOL    HW211168   3.243   9.499   2.017  0.0481 -1.7522 -1.7609
  487SOL     OW11169   3.136   5.045   0.498  0.1494  0.0321  0.5000
  487SOL    HW111170   3.144   5.077   0.404  0.4467  2.0596  1.1804
  487SOL    HW211171   3.223   5.061   0.545 -0.8705  1.7455  1.8905
  488SOL     OW11172   3.397   8.489   1.653 -0.3893 -0.1642 -0.3951
  488SOL    HW111173   3.477   8.429   1.657 -0.2360  0.0160 -0.7640
  488SOL    HW211174   3.422   8.580   1.688 -0.5319 -0.2136 -0.1593
  489SOL     OW11175   2.504   5.753   0.452  0.1452  0.1098  0.3113
  489SOL    HW111176   2.465   5.794   0.535  0.6003 -0.7959  0.9835
  489SOL    HW211177   2.556   5.823   0.402 -0.6729  0.8247  0.4417
  490SOL     OW11178   3.861   3.723   0.851 -0.3800  0.6681  0.1140
  490SOL    HW111179   3.929   3.660   0.813  0.7473  0.8780  1.7527
  490SOL    HW211180   3.774   3.710   0.803  0.1955 -1.1756 -0.4819
  491SOL     OW11181   2.870   5.319   2.645  0.0796 -0.2111  0.6087
  491SOL    HW111182   2.786   5.368   2.668 -0.7219 -2.1345  1.9491
  491SOL    HW211183   2.940   5.340   2.714  1.4028  2.9395 -1.5796
  492SOL     OW11184   3.775   5.024   2.508 -0.0917 -0.8474  0.1572
  492SOL    HW111185   3.776   4.997   2.411 -1.5028  0.1474 -0.1504
  492SOL    HW211186   3.712   5.101   2.520  0.9852 -0.1858  1.6702
  493SOL     OW11187   2.943   8.743   0.091  0.3436  0.5357 -0.0340
  493SOL    HW111188   3.043   8.743   0.094  0.3271  1.1380  0.6739
  493SOL    HW211189   2.910   8.656   0.053  1.0720 -0.5671  1.7977
  494SOL     OW11190   3.445   3.194   1.101 -0.1024  0.6402  0.0364
  494SOL    HW111191   3.537   3.219   1.071  0.1667  0.5785  0.7977
  494SOL    HW211192   3.400   3.140   1.030  0.3083  0.9861 -0.4918
  495SOL     OW11193   2.866   5.673   2.799 -0.1286  0.4113  0.1525
  495SOL    HW111194   2.929   5.638   2.868 -0.5256  1.9210  1.2951
  495SOL    HW211195   2.919   5.713   2.724  0.2989 -1.0683 -0.3612
  496SOL     OW11196   3.627   7.901   2.388 -0.0579  0.2867 -0.0530
  496SOL    HW111197   3.637   7.984   2.333 -0.1143  0.0813 -0.3782
  496SOL    HW211198   3.710   7.886   2.442 -0.3473  0.9639  0.5805
  497SOL     OW11199   2.916   8.433   2.648 -0.1932 -0.5753 -0.0469
  497SOL    HW111200   2.841   8.455   2.710 -0.1867  0.2345 -0.3198
  497SOL    HW211201   2.881   8.384   2.568 -0.3604 -0.6164  0.0535
  498SOL     OW11202   3.480   0.035   2.170  0.5691 -0.4533  0.3599
  498SOL    HW111203   3.473   0.013   2.073  0.4691 -0.5937  0.3981
  498SOL    HW211204   3.444   0.127   2.186  0.7559 -0.3604  0.2361
  499SOL     OW11205   4.195   2.259   1.118 -0.3902  0.3362 -0.1588
  499SOL    HW111206   4.161   2.190   1.181  0.4488  1.2831  1.3475
  499SOL    HW211207   4.127   2.332   1.107 -1.0380 -0.4220 -1.3082
  500SOL     OW11208   3.078   2.005   2.477 -0.0680 -0.2665 -0.1675
  500SOL    HW111209   3.019   1.945   2.423 -0.7740 -0.5166  0.8640
  500SOL    HW211210   3.166   1.960   2.492 -0.1089 -0.4765 -0.5375
  501SOL     OW11211   3.172   4.779   1.092 -0.4863  0.4370  0.3179
  501SOL    HW111212   3.235   4.701   1.087 -1.6097 -0.5727  1.6382
  501SOL    HW211213   3.078   4.746   1.092 -1.0501  1.9425 -1.6265
  502SOL     OW11214   3.458   3.426   2.682  0.2208 -0.2539 -0.7385
  502SOL    HW111215   3.476   3.413   2.780  1.8426  1.4966 -0.7823
  502SOL    HW211216   3.360   3.444   2.668 -0.0181 -0.4955  0.5535
  503SOL     OW11217   3.267   2.332   1.753  0.1126  0.1160 -0.3245
  503SOL    HW111218   3.301   2.338   1.847 -0.5857 -1.2820  0.0329
  503SOL    HW211219   3.312   2.401   1.697  0.4653  1.0271  1.0596
  504SOL     OW11220   4.224   3.869   2.047  0.5569 -0.0851  0.0463
  504SOL    HW111221   4.194   3.848   2.141 -0.8507 -0.6628 -0.5186
  504SOL    HW211222   4.191   3.798   1.985 -1.2739  1.9545 -1.3827
  505SOL     OW11223   2.768   9.467   2.077 -0.0465  0.2557  0.5901
  505SOL    HW111224   2.805   9.556   2.053 -1.7618  0.8680  0.1313
  505SOL    HW211225   2.843   9.403   2.095  1.2672  0.9442 -2.1360
  506SOL     OW11226   2.824   4.426   2.741  0.0271 -0.6010 -0.2585
  506SOL    HW111227   2.907   4.481   2.742 -1.3721  1.5413  0.8637
  506SOL    HW211228   2.837   4.345   2.799  0.8961  0.3705  0.9182
  507SOL     OW11229   3.251   8.703   0.099  0.8498 -0.0229  0.5222
  507SOL    HW111230   3.215   8.658   0.018 -0.4633  0.1515  1.0045
  507SOL    HW211231   3.251   8.639   0.176 -0.5309  0.6188  1.0766
  508SOL     OW11232   3.311   4.550   1.457 -0.7342 -0.3642 -0.0165
  508SOL    HW111233   3.353   4.638   1.436 -1.0818  0.1350  1.2867
  508SOL    HW211234   3.220   4.546   1.418 -1.1260  0.2911  0.8061
  509SOL     OW11235   2.943   5.650   2.529 -0.1545 -0.2569 -0.2721
  509SOL    HW111236   2.935   5.602   2.441  1.9272  0.3643 -0.8373
  509SOL    HW211237   2.872   5.719   2.536 -0.2728 -0.2290 -1.5436
  510SOL     OW11238   3.052   3.630   0.988  0.0053 -0.6912 -0.1227
  510SOL    HW111239   3.145   3.630   0.951  0.4453  0.1525  0.9433
  510SOL    HW211240   3.056   3.627   1.088 -1.1388 -1.7202 -0.1033
  511SOL     OW11241   4.416   1.508   1.690 -0.7736  0.0704 -0.2845
  511SOL    HW111242   4.362   1.484   1.609 -0.6372 -0.0892 -0.3286
  511SOL    HW211243   4.498   1.557   1.661 -0.7533  0.0622 -0.2399
  512SOL     OW11244   4.048   3.963   0.543 -0.2895 -0.7287 -0.1075
  512SOL    HW111245   3.981   3.901   0.501  1.1708 -0.9140 -2.2717
  512SOL    HW211246   4.110   3.911   0.601 -1.4959 -0.6765  1.2531
  513SOL     OW11247   3.119   0.545   1.638 -0.0982 -0.0809  0.0034
  513SOL    HW111248   3.055   0.570   1.710  1.1477  0.5327  0.8998
  513SOL    HW211249   3.071   0.543   1.550 -1.2526  0.7992  0.6060
  514SOL     OW11250   3.851   3.196   2.440  0.1326  0.8265  0.7524
  514SOL    HW111251   3.778   3.131   2.422 -0.8124  2.1247 -0.1683
  514SOL    HW211252   3.938   3.147   2.449 -0.5745 -0.5550  0.1104
  515SOL     OW11253   4.193   8.872   0.656  0.5980  0.0803  0.2356
  515SOL    HW111254   4.169   8.927   0.576  0.3507  1.1985  1.0601
  515SOL    HW211255   4.291   8.853   0.655  0.5301 -0.2489 -0.5355
  516SOL     OW11256   2.722   7.996   2.379  0.4668  0.3766 -0.8607
  516SOL    HW111257   2.632   7.955   2.372  0.1369  1.0508 -0.6224
  516SOL    HW211258   2.750   8.031   2.290  0.1349  0.9110 -0.7553
  517SOL     OW11259   3.677   0.129   2.453  0.2600  0.2937 -0.0692
  517SOL    HW111260   3.713   0.125   2.360 -2.0932 -2.1077 -0.9370
  517SOL    HW211261   3.623   0.047   2.472 -1.7751  2.0864  2.3741
  518SOL     OW11262   3.118   0.904   1.642 -0.6820 -0.4034 -0.2979
  518SOL    HW111263   3.095   0.823   1.697 -0.2884  0.4921  1.2131
  518SOL    HW211264   3.201   0.946   1.678 -1.7059  1.5208 -0.1395
  519SOL     OW11265   3.490   3.494   0.491 -0.4484  0.6593 -0.3198
  519SOL    HW111266   3.445   3.406   0.480 -0.2171  0.5596 -0.5002
  519SOL    HW211267   3.422   3.566   0.506 -0.6147  0.4032  0.1274
  520SOL     OW11268   2.404   7.889   1.839  0.4590  0.5598 -0.0031
  520SOL    HW111269   2.430   7.862   1.746  0.0601  0.7708 -0.1758
  520SOL    HW211270   2.457   7.835   1.905  0.8918  0.5554 -0.3517
  521SOL     OW11271   4.049   8.841   2.330 -0.6369 -0.1197  0.0187
  521SOL    HW111272   3.994   8.772   2.376 -3.4580  1.6787 -0.5634
  521SOL    HW211273   4.142   8.840   2.368 -1.5306 -2.0052  2.2758
  522SOL     OW11274   3.651   9.849   0.614  0.6654  0.0020 -0.1461
  522SOL    HW111275   3.696   9.925   0.660 -1.2309  0.7817  0.4632
  522SOL    HW211276   3.585   9.807   0.676 -1.4706  0.6656 -1.9103
  523SOL     OW11277   2.601   3.576   2.656 -0.4063  0.5849 -0.2940
  523SOL    HW111278   2.545   3.527   2.590 -1.7981  1.7286  0.0210
  523SOL    HW211279   2.688   3.528   2.668 -0.2159  0.2447 -2.7853
  524SOL     OW11280   4.161   1.030   2.136 -0.1794  0.1757 -0.2876
  524SOL    HW111281   4.144   1.126   2.111 -2.8634  0.0890  0.9856
  524SOL    HW211282   4.173   1.024   2.235 -0.6087 -0.8672 -0.2945
  525SOL     OW11283   2.658   5.931   1.751  0.3379  0.2910 -0.2694
  525SOL    HW111284   2.649   5.916   1.849 -0.1322  2.2058  0.0025
  525SOL    HW211285   2.731   5.873   1.715  0.5301 -0.4098  1.2131
  526SOL     OW11286   3.109   8.586   2.735  0.0567  0.4374  0.2719
  526SOL    HW111287   3.096   8.679   2.698 -0.0023  0.6116  0.7234
  526SOL    HW211288   3.042   8.525   2.693  0.2927  0.5364 -0.2512
  527SOL     OW11289   4.095   1.784   1.861  0.0302 -0.0996 -0.2330
  527SOL    HW111290   4.133   1.726   1.934  0.9337  1.0801  0.2400
  527SOL    HW211291   4.135   1.757   1.774  1.7979  0.9767  0.2258
  528SOL     OW11292   2.721   5.799   1.076 -0.1413  0.2123 -0.0394
  528SOL    HW111293   2.625   5.792   1.050  0.1755  1.1604 -1.5579
  528SOL    HW211294   2.771   5.847   1.004  1.0752  1.6447  1.7238
  529SOL     OW11295   2.884   3.899   1.520  0.3995 -0.6034  0.2088
  529SOL    HW111296   2.917   3.966   1.587 -2.3322  1.2045 -0.1976
  529SOL    HW211297   2.849   3.819   1.569 -2.7888  1.2538  1.0944
  530SOL     OW11298   2.783   3.674   1.873  0.2524  0.2822  0.1957
  530SOL    HW111299   2.842   3.620   1.812  4.1413  2.1278  2.1542
  530SOL    HW211300   2.799   3.645   1.967 -2.6229  0.3376  0.7452
  531SOL     OW11301   3.136   7.735   0.766  0.0695  0.4254 -0.2848
  531SOL    HW111302   3.176   7.644   0.784 -1.0118 -0.4424 -2.1769
  531SOL    HW211303   3.204   7.793   0.722  0.6371  0.4027  0.5548
  532SOL     OW11304   2.483   9.002   0.797 -0.1147 -0.1275 -0.1208
  532SOL    HW111305   2.540   9.079   0.827  0.2752  0.0816 -1.3739
  532SOL    HW211306   2.433   9.029   0.715 -1.2530 -0.6570  0.3871
  533SOL     OW11307   4.591   3.685   1.480 -0.2838 -0.5212 -0.0128
  533SOL    HW111308   4.554   3.633   1.403  0.1755 -0.0452 -0.5680
  533SOL    HW211309   4.521   3.748   1.515  0.1232  0.6961 -1.3462
  534SOL     OW11310   3.173   0.058   2.673 -0.3069 -0.3928  0.1094
  534SOL    HW111311   3.243  -0.007   2.644  0.9570  0.9847  0.0068
  534SOL    HW211312   3.181   0.074   2.772 -1.3366 -1.2300  0.3386
  535SOL     OW11313   4.682   2.281   0.742 -0.0409  0.0183  0.3464
  535SOL    HW111314   4.665   2.228   0.659  1.1895 -2.0419  1.3865
  535SOL    HW211315   4.633   2.368   0.736 -1.8661 -1.0925 -1.5238
  536SOL     OW11316   2.755   8.176   2.163 -0.1177 -0.8894  0.0556
  536SOL    HW111317   2.765   8.274   2.178 -2.3592 -0.9435  2.3166
  536SOL    HW211318   2.668   8.159   2.116  0.8147 -1.7237 -1.3926
  537SOL     OW11319   3.932   3.759   0.405 -0.0876 -0.0260  0.4028
  537SOL    HW111320   3.946   3.802   0.315  2.5410 -0.1443  0.7086
  537SOL    HW211321   3.959   3.663   0.400  1.5252  0.3383  1.6693
  538SOL     OW11322   2.118   6.599   0.199 -0.0122  0.0882  0.0704
  538SOL    HW111323   2.204   6.636   0.233  0.3333 -0.2159 -0.4814
  538SOL    HW211324   2.092   6.647   0.116 -0.6436  0.5376  0.5178
  539SOL     OW11325   2.894   3.656   0.082 -0.2397  0.6577  0.0924
  539SOL    HW111326   2.865   3.617   0.170  1.5628 -0.7612  0.0745
  539SOL    HW211327   2.859   3.749   0.075 -0.2259  0.8781  2.4185
  540SOL     OW11328   3.314   4.243   1.869 -0.2773 -0.0723 -0.4030
  540SOL    HW111329   3.389   4.179   1.881  0.9851  1.3214 -0.7282
  540SOL    HW211330   3.316   4.311   1.942 -1.5157 -0.2818 -0.1502
  541SOL     OW11331   3.387   0.044   1.380 -0.4336  0.1699  0.2945
  541SOL    HW111332   3.345  -0.046   1.389  1.1738 -0.3794  2.5762
  541SOL    HW211333   3.362   0.101   1.459  1.3265  0.5476  0.5983
  542SOL     OW11334   3.434   4.122   1.625 -0.3822 -0.5193  0.1266
  542SOL    HW111335   3.487   4.094   1.705  2.9031  0.4910 -1.5859
  542SOL    HW211336   3.449   4.056   1.551  0.3266  0.9566 -1.0786
  543SOL     OW11337   3.556   8.303   0.238  0.2478  0.0041  0.0367
  543SOL    HW111338   3.502   8.307   0.155 -0.2070 -0.1276  0.3244
  543SOL    HW211339   3.594   8.211   0.249 -1.0515 -0.4534  0.8242
  544SOL     OW11340   3.666   4.856   2.303  0.1356 -0.5815  0.4515
  544SOL    HW111341   3.706   4.790   2.240 -0.4644  0.3369 -0.9187
  544SOL    HW211342   3.647   4.811   2.391  0.3331 -2.0558 -0.2450
  545SOL     OW11343   2.862   6.968   2.114 -0.2826 -0.0329  0.5055
  545SOL    HW111344   2.941   6.985   2.173 -1.0316  1.7654  1.0380
  545SOL    HW211345   2.807   6.894   2.152  0.6917 -0.7229  0.5797
  546SOL     OW11346   4.340   1.724   0.524 -0.4754 -0.1874 -0.0751
  546SOL    HW111347   4.348   1.817   0.561 -0.8665 -0.6910  1.3269
  546SOL    HW211348   4.331   1.659   0.600  1.8127 -1.5868 -0.9300
  547SOL     OW11349   3.454   1.335   1.791  0.3922  0.2736  0.2710
  547SOL    HW111350   3.516   1.346   1.869 -0.9587 -0.0226  1.4086
  547SOL    HW211351   3.506   1.337   1.706  1.8001  1.4142  1.1422
  548SOL     OW11352   3.100   0.235   0.265  0.3738  0.4132  0.3075
  548SOL    HW111353   3.171   0.196   0.207  0.0258  0.0395  0.1317
  548SOL    HW211354   3.047   0.302   0.213 -1.1923 -1.3467 -0.3922
  549SOL     OW11355   3.157   8.828   2.619 -0.0034  0.4555  0.2519
  549SOL    HW111356   3.086   8.886   2.580 -0.9700 -0.6324  0.3722
  549SOL    HW211357   3.221   8.800   2.547 -0.7177 -0.0288 -0.1954
  550SOL     OW11358   3.363   4.487   1.716  0.1664 -0.1517 -0.6618
  550SOL    HW111359   3.362   4.398   1.763  0.8101  0.0443 -0.2717
  550SOL    HW211360   3.354   4.472   1.617 -1.5711 -0.5457 -0.4594
  551SOL     OW11361   4.150   1.808   2.384 -0.6934 -0.3996 -0.4517
  551SOL    HW111362   4.127   1.757   2.301  0.9391 -0.3456 -0.9646
  551SOL    HW211363   4.209   1.753   2.442 -0.1573  0.3211 -0.2978
  552SOL     OW11364   3.100   0.472   0.090 -0.1111  0.1732 -0.1064
  552SOL    HW111365   3.155   0.555   0.099  0.9774 -0.5289 -0.2165
  552SOL    HW211366   3.126   0.424   0.006 -0.7995 -0.2316 -0.0889
  553SOL     OW11367   3.395   7.637   0.183 -0.4036  0.1957 -0.6103
  553SOL    HW111368   3.471   7.601   0.129 -0.5535  1.1182 -1.4546
  553SOL    HW211369   3.315   7.579   0.171 -0.1792 -0.1012 -0.6701
  554SOL     OW11370   3.816   8.675   2.761 -0.2435  0.2369  0.0053
  554SOL    HW111371   3.733   8.682   2.817 -0.2951 -0.7364  0.0734
  554SOL    HW211372   3.809   8.594   2.703 -0.0147  1.0215 -1.1237
  555SOL     OW11373   3.416   8.207   1.091  0.4997 -0.5155  0.1754
  555SOL    HW111374   3.491   8.264   1.057  2.1584 -1.8693  1.4748
  555SOL    HW211375   3.447   8.156   1.171 -1.3538 -2.2756 -0.1973
  556SOL     OW11376   4.004   2.279   2.019  0.1124 -0.1838  0.0185
  556SOL    HW111377   4.059   2.197   2.030 -0.2168 -0.2793  1.0119
  556SOL    HW211378   3.912   2.254   1.987  0.3910 -0.0894 -0.8810
  557SOL     OW11379   4.162   1.635   1.600  0.5994 -0.2443 -0.5074
  557SOL    HW111380   4.101   1.697   1.550 -1.4098  1.2217  3.4971
  557SOL    HW211381   4.122   1.544   1.602 -0.0952  0.0546 -0.3412
  558SOL     OW11382   3.627   3.577   1.200 -0.7367 -0.0317 -0.1811
  558SOL    HW111383   3.619   3.665   1.152  2.0075 -0.7407 -2.0287
  558SOL    HW211384   3.694   3.586   1.274 -2.3038  0.0809  1.2480
  559SOL     OW11385   2.990   3.213   1.736 -0.1658  0.0567 -0.4002
  559SOL    HW111386   3.018   3.271   1.660  1.5662 -0.8952 -0.5356
  559SOL    HW211387   3.004   3.117   1.711  0.6322 -0.2600  1.1878
  560SOL     OW11388   2.638   8.034   2.785  0.8540  0.1980 -0.1439
  560SOL    HW111389   2.695   7.988   2.853 -1.0021 -3.3385 -0.8820
  560SOL    HW211390   2.570   8.090   2.831  0.8493 -0.6355  0.8822
  561SOL     OW11391   3.159   1.187   2.044 -0.4060  0.3173 -0.1644
  561SOL    HW111392   3.065   1.160   2.025 -0.1460 -0.1715 -0.8012
  561SOL    HW211393   3.163   1.285   2.063 -0.8428  0.6286 -1.5875
  562SOL     OW11394   2.540   6.832   0.950 -0.0842 -0.6434  0.6730
  562SOL    HW111395   2.562   6.735   0.960  1.0380 -0.5106 -0.4409
  562SOL    HW211396   2.583   6.868   0.867 -2.1004  0.3370  0.0193
  563SOL     OW11397   3.302   8.653   0.621  0.8101 -0.6435 -0.0508
  563SOL    HW111398   3.339   8.606   0.541 -0.2565 -2.7021  0.6198
  563SOL    HW211399   3.332   8.605   0.704 -0.0438  0.0513  0.6643
  564SOL     OW11400   2.293   9.101   2.327 -0.8691 -0.2289  0.4196
  564SOL    HW111401   2.390   9.091   2.348 -0.9950  1.3843  1.8845
  564SOL    HW211402   2.281   9.166   2.252 -0.7737 -0.9533 -0.2196
  565SOL     OW11403   4.055   2.048   1.473  0.7508 -0.8730 -0.5923
  565SOL    HW111404   4.151   2.023   1.462  2.1652  3.1375  1.5689
  565SOL    HW211405   4.035   2.063   1.570 -2.2436 -2.1038 -0.9533
  566SOL     OW11406   2.916   3.969   0.279 -0.1498  0.2653 -0.1839
  566SOL    HW111407   2.847   3.924   0.335 -1.0637 -0.7059 -2.0372
  566SOL    HW211408   2.989   3.904   0.258  0.2662  0.6703  0.0124
  567SOL     OW11409   3.224   4.945   2.313 -0.5283 -0.5732 -0.5732
  567SOL    HW111410   3.291   4.877   2.344 -0.9950 -0.0828  1.6352
  567SOL    HW211411   3.141   4.898   2.281  0.1472 -1.1145 -1.5509
  568SOL     OW11412   2.802   4.992   0.170 -0.2230  0.3345 -0.3626
  568SOL    HW111413   2.775   5.013   0.076 -1.6086  0.0641 -0.0438
  568SOL    HW211414   2.721   4.995   0.229  0.2029 -1.9959  0.3799
  569SOL     OW11415   3.835   0.960   2.371 -0.3783 -0.4605  0.5883
  569SOL    HW111416   3.915   1.015   2.347 -0.1912 -0.2793  1.6045
  569SOL    HW211417   3.803   0.986   2.462  0.0279 -2.3595  1.2997
  570SOL     OW11418   3.118   3.629   1.479  0.2217  0.9735 -0.5347
  570SOL    HW111419   3.172   3.707   1.510 -0.6921  1.7931 -1.0121
  570SOL    HW211420   3.135   3.614   1.381 -1.3066  1.9534 -0.9548
  571SOL     OW11421   2.862   4.800   1.325  0.0343  0.4466  0.0224
  571SOL    HW111422   2.875   4.776   1.228  0.5160  0.3894  0.0958
  571SOL    HW211423   2.808   4.884   1.332 -2.5728 -1.1597 -0.2049
  572SOL     OW11424   2.725   9.311   1.855 -0.0817 -0.3670  0.2752
  572SOL    HW111425   2.711   9.215   1.879 -0.4633 -0.4940 -0.4272
  572SOL    HW211426   2.723   9.367   1.938 -2.7939 -0.6237  0.4282
  573SOL     OW11427   2.729   9.311   1.160 -0.2269  0.4734  0.1272
  573SOL    HW111428   2.730   9.394   1.103  1.4287 -0.6040 -1.4672
  573SOL    HW211429   2.813   9.308   1.214 -0.3033 -0.1350  0.2105
  574SOL     OW11430   3.990   3.539   2.201 -0.5050 -0.1930 -0.0259
  574SOL    HW111431   4.016   3.588   2.117  0.5977  2.2819  1.7040
  574SOL    HW211432   3.890   3.535   2.207 -0.6235  1.7819 -0.2791
  575SOL     OW11433   2.942   9.137   0.777  0.1977 -0.7593  0.3569
  575SOL    HW111434   2.958   9.231   0.807 -0.1498 -0.6076  0.0861
  575SOL    HW211435   3.003   9.116   0.701  0.9540 -1.0823  1.0472
  576SOL     OW11436   3.518   3.956   1.410 -0.6191  0.0781  0.0477
  576SOL    HW111437   3.505   4.018   1.332 -0.0736 -1.1607 -1.0395
  576SOL    HW211438   3.606   3.910   1.401 -0.8661 -0.5914  1.0501
  577SOL     OW11439   3.953   1.959   2.212 -0.1012  0.2401  0.3434
  577SOL    HW111440   3.885   1.915   2.153  0.6019 -0.8120  0.3083
  577SOL    HW211441   3.932   1.938   2.307 -0.0299  0.2146  0.3529
  578SOL     OW11442   3.457   1.359   1.057  0.2723 -0.4917 -0.6552
  578SOL    HW111443   3.421   1.274   1.097  0.3022 -0.0925  0.2319
  578SOL    HW211444   3.555   1.365   1.076  0.2137 -0.1174 -0.4653
  579SOL     OW11445   3.064   4.206   0.424  0.2296 -0.0066 -0.3753
  579SOL    HW111446   3.029   4.127   0.374 -3.4214 -0.0782  2.0783
  579SOL    HW211447   3.110   4.174   0.507 -2.0814  0.3861  1.1106
  580SOL     OW11448   4.597   1.866   0.541  0.2146 -0.5174  0.2616
  580SOL    HW111449   4.659   1.793   0.567 -1.3471 -1.7816  0.5058
  580SOL    HW211450   4.527   1.831   0.479 -1.3552  0.4295  1.4314
  581SOL     OW11451   2.863   8.256   2.463  0.0857  1.0348 -0.4457
  581SOL    HW111452   2.827   8.163   2.451  2.0843  0.1899 -0.0031
  581SOL    HW211453   2.850   8.308   2.378  1.0128 -0.3687 -1.4656
  582SOL     OW11454   4.195   2.931   2.749  0.2419  0.0427  0.0914
  582SOL    HW111455   4.268   2.940   2.817  1.8714  2.1766 -1.8506
  582SOL    HW211456   4.166   3.022   2.719 -1.2659 -0.8375 -1.2227
  583SOL     OW11457   3.404   3.473   1.328 -0.3087  0.3460  0.0202
  583SOL    HW111458   3.317   3.519   1.307  0.9115  2.4069 -0.6499
  583SOL    HW211459   3.471   3.494   1.257  1.1813 -0.0104  1.2870
  584SOL     OW11460   3.897   3.643   2.796  0.3823 -0.1818 -0.5122
  584SOL    HW111461   3.819   3.635   2.734  1.0007 -3.3551 -1.0036
  584SOL    HW211462   3.982   3.647   2.742  0.7371  0.1347  0.0720
  585SOL     OW11463   3.259   2.063   1.702 -0.0435  0.2390  0.4593
  585SOL    HW111464   3.271   2.160   1.725  0.2654  0.4617 -0.5990
  585SOL    HW211465   3.279   2.050   1.605  1.2280 -1.1232  0.9031
  586SOL     OW11466   3.902   3.375   2.713 -0.1493  0.1767  0.3969
  586SOL    HW111467   3.896   3.470   2.744  2.4010  0.7857 -0.8619
  586SOL    HW211468   3.836   3.360   2.640 -0.5647  0.9812  0.6011
  587SOL     OW11469   3.042   4.777   0.445  0.7711  0.0225 -0.1281
  587SOL    HW111470   2.989   4.805   0.364  1.6554 -0.3969 -0.8624
  587SOL    HW211471   3.087   4.857   0.485 -0.0795  0.3143  0.2557
  588SOL     OW11472   2.502   6.541   1.939  0.0889  0.6580  0.3880
  588SOL    HW111473   2.550   6.505   1.859  0.8343 -1.1870  1.6045
  588SOL    HW211474   2.457   6.627   1.916  0.4522  0.2578 -1.9370
  589SOL     OW11475   2.360   6.151   2.706 -0.5180 -0.1037  0.3492
  589SOL    HW111476   2.411   6.222   2.755 -3.9175  0.8933  2.6057
  589SOL    HW211477   2.322   6.086   2.772 -1.7307 -1.1165 -1.3126
  590SOL     OW11478   3.157   8.426   0.092 -0.2486  0.4477 -0.1759
  590SOL    HW111479   3.255   8.410   0.100 -0.1887  0.5805 -0.6706
  590SOL    HW211480   3.136   8.462   0.002 -0.8806 -0.5112 -0.4238
  591SOL     OW11481   2.660   9.198   0.850 -0.5077 -0.1271  0.0046
  591SOL    HW111482   2.757   9.202   0.824 -0.3026 -0.4563  0.7396
  591SOL    HW211483   2.639   9.275   0.911 -0.5633 -0.4281  0.3618
  592SOL     OW11484   2.844   5.372   1.261 -0.0064  0.0433  0.3916
  592SOL    HW111485   2.883   5.282   1.243 -1.4325 -0.4961 -0.0189
  592SOL    HW211486   2.862   5.432   1.183  0.5692 -0.0033  0.4846
  593SOL     OW11487   4.051   2.489   1.212 -0.0769  0.0591  0.7385
  593SOL    HW111488   4.071   2.560   1.145  1.6015  0.3290  1.4992
  593SOL    HW211489   3.963   2.508   1.256 -0.1444  1.0745  0.1686
  594SOL     OW11490   2.877   9.013   2.846  0.3220  0.1742  0.4786
  594SOL    HW111491   2.891   8.918   2.819 -1.6522  0.1174 -0.4423
  594SOL    HW211492   2.905   9.026   2.941  1.4357 -1.1123  0.3252
  595SOL     OW11493   4.184   2.587   2.648 -0.1140 -0.7257 -0.1825
  595SOL    HW111494   4.280   2.589   2.677 -0.8987 -1.6486  2.6198
  595SOL    HW211495   4.150   2.681   2.642  0.9038 -0.3951 -1.0633
  596SOL     OW11496   3.495   0.735   0.601 -0.2040 -0.0148  0.5228
  596SOL    HW111497   3.594   0.727   0.612  0.0739 -0.2916 -1.9278
  596SOL    HW211498   3.449   0.704   0.685  1.7978  1.0725  2.0444
  597SOL     OW11499   3.064   1.875   1.716  0.1021 -0.2909  0.3507
  597SOL    HW111500   3.115   1.958   1.695  0.2083 -0.3751  0.2715
  597SOL    HW211501   3.100   1.834   1.800 -1.2963  0.8462  1.5406
  598SOL     OW11502   3.234   0.583   0.929 -0.1909 -0.6109 -0.0335
  598SOL    HW111503   3.230   0.608   0.833 -0.1133 -3.0778 -0.7053
  598SOL    HW211504   3.201   0.490   0.941  0.8686 -0.7421  2.1627
  599SOL     OW11505   2.744   3.808   0.408 -0.3480 -0.0816 -0.3930
  599SOL    HW111506   2.657   3.791   0.362 -1.0509  1.1080  0.4692
  599SOL    HW211507   2.746   3.759   0.495  0.6990 -1.7654 -1.3291
  600SOL     OW11508   3.323   2.707   0.700 -0.0160 -0.2421  0.1057
  600SOL    HW111509   3.398   2.757   0.658  0.0560 -1.9460 -1.8730
  600SOL    HW211510   3.237   2.732   0.656 -0.2933 -0.1105  0.7116
  601SOL     OW11511   3.203   4.122   2.856  0.0450 -0.3618 -0.8382
  601SOL    HW111512   3.253   4.159   2.778 -0.7850 -1.7835 -2.0803
  601SOL    HW211513   3.113   4.164   2.861  0.4915  0.5162  0.0189
  602SOL     OW11514   3.072   8.517   1.059 -0.1980  0.2477  0.4936
  602SOL    HW111515   3.031   8.569   0.984  2.4157  2.5301  0.5549
  602SOL    HW211516   3.094   8.424   1.028 -1.5063  0.3414 -0.7543
  603SOL     OW11517   3.164   3.534   1.229  0.1691  0.4736  0.5096
  603SOL    HW111518   3.098   3.463   1.249  1.4475 -0.4937  1.3580
  603SOL    HW211519   3.215   3.510   1.147 -0.3572  1.1124 -0.0177
  604SOL     OW11520   2.821   4.639   0.821 -0.3668 -0.0876  0.1388
  604SOL    HW111521   2.782   4.728   0.797  0.0349  0.0134 -0.1480
  604SOL    HW211522   2.859   4.596   0.739 -1.6955 -1.0993  0.0341
  605SOL     OW11523   2.564   5.374   1.302 -0.5894 -0.2177 -0.5887
  605SOL    HW111524   2.659   5.350   1.284 -0.3174 -1.9612  2.8824
  605SOL    HW211525   2.560   5.465   1.342 -0.0947 -1.2535  1.8721
  606SOL     OW11526   3.270   3.193   1.306 -0.6047  0.5561  0.2247
  606SOL    HW111527   3.325   3.194   1.389  1.7112 -1.9162 -1.2006
  606SOL    HW211528   3.329   3.177   1.227 -2.8762  1.8868 -1.8258
  607SOL     OW11529   3.226   3.107   0.712  0.1770 -0.4415 -0.4005
  607SOL    HW111530   3.202   3.026   0.658  0.7743 -0.0209 -1.3203
  607SOL    HW211531   3.155   3.176   0.702  1.1088  0.2957 -2.0509
  608SOL     OW11532   3.624   2.424   2.438 -0.5014 -0.3571 -0.0118
  608SOL    HW111533   3.631   2.500   2.502 -0.2224 -0.0689 -0.3835
  608SOL    HW211534   3.565   2.450   2.362  1.9102  0.5346 -1.6250
  609SOL     OW11535   4.508   1.861   0.832 -0.4798  0.9491 -0.1998
  609SOL    HW111536   4.422   1.907   0.809  0.0982  1.6694 -1.0048
  609SOL    HW211537   4.561   1.846   0.748 -0.1082 -0.0670  0.2146
  610SOL     OW11538   2.936   8.782   0.394  0.2443 -0.2157  0.4524
  610SOL    HW111539   2.946   8.865   0.339 -3.2882 -0.0489 -0.0844
  610SOL    HW211540   2.929   8.702   0.333 -0.6836 -0.3812  0.7678
  611SOL     OW11541   3.519   1.416   0.791 -0.0258  0.1276 -0.5812
  611SOL    HW111542   3.603   1.469   0.787 -0.1215  0.2544 -0.8858
  611SOL    HW211543   3.489   1.408   0.886 -0.4418  1.3022 -0.6079
  612SOL     OW11544   3.199   1.523   1.530  0.0073  0.3101  0.1045
  612SOL    HW111545   3.249   1.563   1.453  0.9817 -1.0409  0.0080
  612SOL    HW211546   3.123   1.469   1.495 -0.4909  0.9693  0.1684
  613SOL     OW11547   4.209   0.476   0.850  0.5011  0.0701  0.1079
  613SOL    HW111548   4.119   0.509   0.819  0.5220  0.8143  0.8132
  613SOL    HW211549   4.245   0.411   0.784 -0.3395  0.1428 -0.4347
  614SOL     OW11550   2.894   3.442   0.852  0.1762 -0.2701 -0.6719
  614SOL    HW111551   2.943   3.499   0.917 -1.5234  1.7793 -1.1149
  614SOL    HW211552   2.881   3.350   0.890  0.7040  0.3920  1.1281
  615SOL     OW11553   4.168   3.337   1.804  0.1570 -0.4374 -0.1139
  615SOL    HW111554   4.078   3.361   1.769  0.3009  0.0750 -0.1504
  615SOL    HW211555   4.195   3.248   1.768 -0.4674 -0.7365  0.1590
  616SOL     OW11556   3.088   8.109   0.617  0.4417 -1.0704 -1.0910
  616SOL    HW111557   3.147   8.183   0.648 -0.8024 -0.2847 -0.5701
  616SOL    HW211558   3.062   8.126   0.521  0.4730 -1.0452 -1.0952
  617SOL     OW11559   3.640   3.839   2.055 -0.0871 -0.6004 -0.2991
  617SOL    HW111560   3.671   3.753   2.015  0.6320  0.0803 -1.2115
  617SOL    HW211561   3.691   3.858   2.139  1.0578 -0.1307 -1.1008
  618SOL     OW11562   4.514   3.123   1.768  0.2073 -0.2189  0.9029
  618SOL    HW111563   4.501   3.042   1.825  4.8128 -1.6320  0.1311
  618SOL    HW211564   4.547   3.199   1.825  0.4973 -0.3056  0.8511
  619SOL     OW11565   4.598   2.083   0.954  0.6499  0.3532 -0.6386
  619SOL    HW111566   4.548   2.003   0.920  1.1133  0.7531 -2.2546
  619SOL    HW211567   4.651   2.124   0.880  0.0279  2.4685  0.0673
  620SOL     OW11568   4.460   3.505   1.285  0.0054  0.2441  0.3041
  620SOL    HW111569   4.528   3.433   1.270 -1.3457 -1.3469  1.5825
  620SOL    HW211570   4.416   3.528   1.198 -0.5945 -1.5470  0.1207
  621SOL     OW11571   3.234   7.660   2.161 -0.2663 -0.1094  0.6087
  621SOL    HW111572   3.163   7.601   2.198 -0.2666 -0.1575  0.5299
  621SOL    HW211573   3.297   7.686   2.235 -0.0953 -0.4471  0.5807
  622SOL     OW11574   3.068   7.545   2.542  0.0770  0.0085  0.3447
  622SOL    HW111575   3.035   7.480   2.610 -1.7934 -0.8368 -1.3230
  622SOL    HW211576   3.167   7.532   2.529  0.0787 -1.1583  1.4247
  623SOL     OW11577   2.923   8.365   0.249  0.2548  0.2521  0.1197
  623SOL    HW111578   2.982   8.284   0.241 -0.8700 -0.5398 -0.2142
  623SOL    HW211579   2.975   8.446   0.221  1.0982 -0.4797 -0.4638
  624SOL     OW11580   3.550   0.500   2.170  0.5724 -0.1981 -0.5652
  624SOL    HW111581   3.549   0.463   2.262  1.6786  0.3871 -0.3087
  624SOL    HW211582   3.584   0.594   2.171  1.8000 -0.6080 -1.7060
  625SOL     OW11583   3.507   3.340   2.047 -0.1647 -0.6014  0.2425
  625SOL    HW111584   3.473   3.254   2.085 -0.4988 -0.2313  0.7896
  625SOL    HW211585   3.446   3.370   1.974  1.1458 -1.9448 -1.4582
  626SOL     OW11586   3.395   0.822   1.318 -0.1416  0.0746  0.2548
  626SOL    HW111587   3.425   0.744   1.373 -0.5859 -0.0701  0.2913
  626SOL    HW211588   3.344   0.789   1.239  0.2866  0.2944 -0.1142
  627SOL     OW11589   3.006   0.177   1.402 -0.1155  0.6890 -0.5142
  627SOL    HW111590   3.089   0.144   1.448  0.2112  1.2902 -0.6756
  627SOL    HW211591   3.013   0.159   1.304  0.2129  1.5515 -0.6503
  628SOL     OW11592   4.331   2.286   2.102  0.1668  0.0756  0.1619
  628SOL    HW111593   4.278   2.369   2.085  1.4058  1.2826  1.9639
  628SOL    HW211594   4.274   2.206   2.085 -1.8991  1.3393  0.9429
  629SOL     OW11595   2.330   6.000   1.046  0.6091 -0.1151 -0.5043
  629SOL    HW111596   2.369   5.923   1.097  1.3267  0.2735 -0.4512
  629SOL    HW211597   2.249   5.970   0.997 -0.4280 -0.3731  1.3003
  630SOL     OW11598   4.040   1.852   0.738  0.3613  0.2528 -0.5517
  630SOL    HW111599   3.959   1.820   0.788  0.6002  1.1113  0.4097
  630SOL    HW211600   4.052   1.798   0.655 -0.5093 -0.6678 -0.0852
  631SOL     OW11601   3.039   1.617   1.243  0.1995  0.4136  0.3242
  631SOL    HW111602   2.990   1.629   1.156  0.4702 -0.2471  0.0793
  631SOL    HW211603   2.995   1.546   1.297  0.5439  0.2244  0.3571
  632SOL     OW11604   4.347   4.062   0.953  0.1911  0.2585  0.5154
  632SOL    HW111605   4.286   4.141   0.948  0.9754  0.9835  2.0743
  632SOL    HW211606   4.441   4.093   0.940  0.4256 -0.5584  0.2700
  633SOL     OW11607   3.454   0.805   2.013  0.1928 -0.1446 -0.2157
  633SOL    HW111608   3.418   0.846   1.930  0.7554  0.5068 -0.1384
  633SOL    HW211609   3.532   0.858   2.046 -0.2094 -0.2164  0.8922
  634SOL     OW11610   3.664   3.363   1.018 -0.1635 -0.5278  0.1583
  634SOL    HW111611   3.745   3.378   0.962 -1.0195  0.5041 -0.8202
  634SOL    HW211612   3.642   3.445   1.070 -1.3093 -0.3614 -0.5540
  635SOL     OW11613   3.261   4.416   2.123  0.3593 -0.4403  0.3209
  635SOL    HW111614   3.360   4.422   2.108 -0.1052  1.1390 -2.2820
  635SOL    HW211615   3.227   4.505   2.153 -0.2866 -0.9873  1.2222
  636SOL     OW11616   3.775   8.449   2.599 -0.3111  0.6344  0.7303
  636SOL    HW111617   3.695   8.418   2.548  1.6338  0.7191 -2.4860
  636SOL    HW211618   3.842   8.375   2.606  0.7197  1.5150  0.4808
  637SOL     OW11619   3.154   7.095   1.087  0.1370 -0.5188 -0.0452
  637SOL    HW111620   3.084   7.092   1.158  1.0484 -0.6857  0.8563
  637SOL    HW211621   3.234   7.043   1.117 -0.1045 -1.9859 -1.8903
  638SOL     OW11622   2.647   5.366   2.364 -0.3777  0.4783 -0.5275
  638SOL    HW111623   2.594   5.335   2.285 -0.3540  0.8208 -0.6810
  638SOL    HW211624   2.595   5.435   2.414  0.0909  1.1326 -0.9255
  639SOL     OW11625   3.129   8.377   0.672  0.0058  0.6180 -0.0020
  639SOL    HW111626   3.203   8.437   0.703  0.0025  0.8860 -0.4978
  639SOL    HW211627   3.065   8.430   0.616  2.0071 -0.6361 -3.6338
  640SOL     OW11628   3.798   8.160   1.252  0.3389 -0.4235 -0.4471
  640SOL    HW111629   3.848   8.096   1.310  0.4995 -0.1988 -0.3396
  640SOL    HW211630   3.817   8.139   1.156 -2.3001 -2.7588 -0.5502
  641SOL     OW11631   3.745   3.438   2.299  0.5878 -0.0865 -0.4655
  641SOL    HW111632   3.729   3.437   2.200 -1.9973  0.9757 -0.0921
  641SOL    HW211633   3.782   3.349   2.328  0.6698 -0.6563 -2.2518
  642SOL     OW11634   3.974   3.805   0.139 -0.1736 -0.2258 -0.0239
  642SOL    HW111635   4.061   3.826   0.095  0.1967  0.1545  0.8928
  642SOL    HW211636   3.925   3.736   0.085  1.9959 -2.6456  1.0468
  643SOL     OW11637   3.897   3.365   0.853  0.6804  0.1309  0.4096
  643SOL    HW111638   3.937   3.284   0.811 -1.7405 -1.9302  1.9187
  643SOL    HW211639   3.832   3.407   0.789  0.1119 -0.5556  0.5335
  644SOL     OW11640   3.023   4.383   0.232  0.1607  0.4776  1.1053
  644SOL    HW111641   3.043   4.481   0.240 -1.0354  0.6412  2.5598
  644SOL    HW211642   3.051   4.337   0.316 -0.4763 -0.1893  0.9560
  645SOL     OW11643   3.991   2.560   2.319 -0.3212 -0.3300  0.2009
  645SOL    HW111644   4.019   2.653   2.341 -5.2050  1.0563  1.1949
  645SOL    HW211645   3.998   2.503   2.401 -1.0272  0.1936  0.6338
  646SOL     OW11646   3.477   1.670   1.126  0.0404 -0.1768  0.1318
  646SOL    HW111647   3.478   1.754   1.071 -4.0324  0.2370  0.5150
  646SOL    HW211648   3.445   1.594   1.070  0.8978 -0.8654  0.5676
  647SOL     OW11649   4.060   2.831   2.437 -0.2312 -0.2666  0.1062
  647SOL    HW111650   4.036   2.881   2.354 -0.2634 -0.0542  0.2420
  647SOL    HW211651   3.990   2.848   2.507  0.2211  0.2082  0.4446
  648SOL     OW11652   3.273   5.249   0.281 -0.8888 -0.5955  0.0857
  648SOL    HW111653   3.239   5.181   0.217  0.7591 -1.3119 -0.0561
  648SOL    HW211654   3.278   5.338   0.235 -1.2608 -0.7639 -0.2843
  649SOL     OW11655   3.034   8.162   1.326  0.1103  0.3164 -0.1334
  649SOL    HW111656   3.101   8.203   1.264  1.2362  1.0778  1.5426
  649SOL    HW211657   2.954   8.220   1.332 -0.1319  0.0928 -1.0884
  650SOL     OW11658   3.448   0.476   2.427 -0.3163 -0.4461  0.1229
  650SOL    HW111659   3.473   0.440   2.517 -0.2609 -1.3448 -0.2429
  650SOL    HW211660   3.359   0.522   2.433 -0.6830 -1.1901  0.4806
  651SOL     OW11661   3.551   7.628   0.439 -0.0852 -0.0520  0.2674
  651SOL    HW111662   3.611   7.703   0.465  1.9487 -0.8986 -1.8740
  651SOL    HW211663   3.472   7.664   0.388 -0.1490  0.8005  0.9521
  652SOL     OW11664   3.654   9.149   0.331 -0.1286 -0.8756  0.2929
  652SOL    HW111665   3.567   9.106   0.356 -0.9885 -0.9563 -2.7027
  652SOL    HW211666   3.668   9.142   0.233  3.2110 -0.6981  0.7021
  653SOL     OW11667   3.250   0.719   2.186 -0.7853 -0.1275  0.0990
  653SOL    HW111668   3.314   0.781   2.142  0.7796 -1.5524  0.3094
  653SOL    HW211669   3.226   0.754   2.277 -0.0148  0.2290  0.1682
  654SOL     OW11670   2.583   5.606   2.526 -0.1839 -0.4387  0.4553
  654SOL    HW111671   2.531   5.682   2.566 -0.2840 -0.4999  0.4412
  654SOL    HW211672   2.621   5.549   2.599  2.0842  1.0823  0.5363
  655SOL     OW11673   2.670   8.314   0.199 -0.4532  0.2757 -0.1155
  655SOL    HW111674   2.765   8.305   0.228 -0.1670 -1.8392 -1.6067
  655SOL    HW211675   2.611   8.262   0.261 -0.5070  0.5799  0.0903
  656SOL     OW11676   3.023   4.708   2.193 -0.4608 -0.0348  0.3317
  656SOL    HW111677   2.973   4.778   2.244 -1.0673 -0.7467  0.7202
  656SOL    HW211678   3.064   4.749   2.111 -0.4425  0.8651  0.7899
  657SOL     OW11679   2.572   5.045   0.300  0.4376 -0.7292 -0.0113
  657SOL    HW111680   2.553   5.112   0.372  2.1768 -0.7463  0.4993
  657SOL    HW211681   2.527   4.959   0.321  0.8443 -0.6973  1.0156
  658SOL     OW11682   3.821   2.582   2.787  0.3836 -0.4089 -0.0829
  658SOL    HW111683   3.742   2.605   2.730  1.0277 -0.8054 -1.1546
  658SOL    HW211684   3.828   2.482   2.796  1.5948 -0.4474 -1.2175
  659SOL     OW11685   3.339   0.447   1.261 -0.5673 -0.5077 -0.3799
  659SOL    HW111686   3.340   0.492   1.350 -2.9937  0.2218 -0.6635
  659SOL    HW211687   3.406   0.490   1.201  1.8583 -1.7269  1.4137
  660SOL     OW11688   3.993   0.814   2.078 -0.1214  0.3140  0.3855
  660SOL    HW111689   4.048   0.897   2.080  2.3178 -1.1936 -1.6175
  660SOL    HW211690   3.911   0.830   2.023  1.5646  0.6898 -2.0885
  661SOL     OW11691   3.302   2.031   1.115  0.1430 -0.2608  0.1202
  661SOL    HW111692   3.202   2.025   1.110  0.0786 -2.2096  2.5445
  661SOL    HW211693   3.328   2.069   1.204  1.5743 -1.6387  0.3178
  662SOL     OW11694   2.689   5.904   0.702  0.0631  0.4141  0.0529
  662SOL    HW111695   2.590   5.899   0.691  0.2104  0.6286 -1.5039
  662SOL    HW211696   2.712   5.978   0.765 -0.6414  2.4488 -2.0184
  663SOL     OW11697   2.593   6.099   0.939  0.0427  0.0789 -0.4864
  663SOL    HW111698   2.629   6.158   1.012 -0.6367 -0.0202 -0.0644
  663SOL    HW211699   2.517   6.046   0.975  1.6524 -2.2553 -0.4143
  664SOL     OW11700   3.412   9.548   2.020 -0.8094 -0.4586 -0.0099
  664SOL    HW111701   3.482   9.574   2.087 -1.5825 -1.3449  1.1681
  664SOL    HW211702   3.450   9.557   1.928  0.9571 -1.1553  0.6138
  665SOL     OW11703   4.000   0.833   1.555  0.3526 -0.5508 -0.0899
  665SOL    HW111704   3.919   0.796   1.509  0.3676  0.1022 -0.6413
  665SOL    HW211705   4.009   0.790   1.645  0.1937 -1.6527 -0.5976
  666SOL     OW11706   3.057   2.909   0.433 -0.1743  0.3076  0.1462
  666SOL    HW111707   3.019   2.992   0.393 -1.0620 -0.3216 -0.3276
  666SOL    HW211708   3.142   2.885   0.387 -1.1223 -0.3428 -1.3147
  667SOL     OW11709   3.549   8.987   1.982  0.1124 -0.7444 -0.4465
  667SOL    HW111710   3.649   8.984   1.986  0.3437  0.4312 -3.9683
  667SOL    HW211711   3.516   9.066   2.034  0.9932 -1.1459  0.7479
  668SOL     OW11712   3.816   2.227   1.456  0.4938 -0.2612 -0.3104
  668SOL    HW111713   3.897   2.176   1.485  0.8744  1.3691  1.6389
  668SOL    HW211714   3.735   2.170   1.466  0.9289 -0.5636  1.6709
  669SOL     OW11715   2.708   9.770   2.198 -0.5585  0.4928 -0.0391
  669SOL    HW111716   2.726   9.857   2.244 -1.3113 -0.0809  1.3410
  669SOL    HW211717   2.728   9.694   2.260 -1.3565 -0.2931 -0.7367
  670SOL     OW11718   3.110   2.524   0.348 -0.1407 -0.1302 -0.5854
  670SOL    HW111719   3.131   2.528   0.251 -0.1193 -0.1416 -0.5810
  670SOL    HW211720   3.066   2.610   0.376 -0.9164 -0.4543 -0.7859
  671SOL     OW11721   3.791   2.719   0.331 -1.0015  0.2546 -0.6500
  671SOL    HW111722   3.810   2.810   0.295  1.4363  0.6722  1.5927
  671SOL    HW211723   3.837   2.651   0.274  2.0809  0.8510  1.0241
  672SOL     OW11724   2.809   6.116   0.226 -0.0244  0.3919  0.0604
  672SOL    HW111725   2.887   6.134   0.285 -0.2104 -0.8333  0.6883
  672SOL    HW211726   2.841   6.089   0.135  0.3159 -1.3532  0.6807
  673SOL     OW11727   3.680   0.850   2.180 -0.2282  0.0521  0.7058
  673SOL    HW111728   3.714   0.879   2.091  0.4173  0.2680  1.0197
  673SOL    HW211729   3.743   0.880   2.251 -1.5520  1.3158  1.3840
  674SOL     OW11730   2.994   2.405   1.799 -0.2748 -0.4757 -0.4220
  674SOL    HW111731   3.087   2.393   1.765  0.1267  0.9037  0.1612
  674SOL    HW211732   2.962   2.498   1.778 -1.6548 -1.0458 -0.9422
  675SOL     OW11733   3.476   0.417   0.957  0.2189  0.2189 -0.2074
  675SOL    HW111734   3.383   0.454   0.967  0.2709  0.5536 -0.9369
  675SOL    HW211735   3.491   0.347   1.026  0.1041  1.5288  1.1793
  676SOL     OW11736   3.372   0.989   2.839 -0.1361  0.0218  0.2418
  676SOL    HW111737   3.377   0.895   2.806 -0.0390 -0.2561  1.0486
  676SOL    HW211738   3.402   1.051   2.766 -0.8271 -0.5188 -0.5137
  677SOL     OW11739   3.397   2.863   1.560  0.2765 -0.4575  0.6945
  677SOL    HW111740   3.351   2.949   1.578  1.9061  0.3710  0.9963
  677SOL    HW211741   3.459   2.874   1.482  0.7291 -1.2540  0.9339
  678SOL     OW11742   2.599   7.626   1.268 -0.2204  0.1811  0.0457
  678SOL    HW111743   2.681   7.578   1.238 -0.4732  0.4317 -1.0489
  678SOL    HW211744   2.550   7.571   1.336  0.1081 -0.5801 -0.3435
  679SOL     OW11745   3.306   4.141   2.506  0.0928 -0.1065  0.6433
  679SOL    HW111746   3.302   4.096   2.417  0.3333 -0.3031  0.7300
  679SOL    HW211747   3.402   4.160   2.530  0.0504 -0.3182  0.9901
  680SOL     OW11748   3.629   1.260   1.573  0.1248  0.5776 -0.3560
  680SOL    HW111749   3.572   1.254   1.492 -0.5878  0.9934  0.1122
  680SOL    HW211750   3.690   1.181   1.578 -0.4379  0.1214 -0.8260
  681SOL     OW11751   3.852   1.298   2.218  0.4099 -0.2149 -0.1533
  681SOL    HW111752   3.758   1.321   2.243  0.2819  0.3725 -1.1226
  681SOL    HW211753   3.852   1.255   2.127  0.9293 -1.5787  0.4788
  682SOL     OW11754   2.936   4.648   1.069  0.3561 -0.0538 -0.1675
  682SOL    HW111755   2.966   4.556   1.092  1.1644  0.3513  0.3983
  682SOL    HW211756   2.879   4.645   0.986  1.2057 -0.9312 -0.7197
  683SOL     OW11757   3.202   2.886   2.696 -0.1935 -0.3746  0.2412
  683SOL    HW111758   3.172   2.798   2.657 -1.4852  0.2319 -0.1530
  683SOL    HW211759   3.144   2.959   2.660  0.0645  0.4771  1.5568
  684SOL     OW11760   3.426   8.088   1.344 -0.3070 -0.3211  0.3310
  684SOL    HW111761   3.414   8.164   1.408  1.3810 -1.2127  1.7878
  684SOL    HW211762   3.340   8.038   1.335 -0.8770  0.5119  1.0140
  685SOL     OW11763   3.093   5.249   2.280  0.3190  0.1553  0.0047
  685SOL    HW111764   3.155   5.187   2.329 -0.4451  0.3686  1.2715
  685SOL    HW211765   3.017   5.196   2.242 -0.6487  0.3858  1.5985
  686SOL     OW11766   2.701   9.881   1.929 -0.2301 -0.6807  0.1682
  686SOL    HW111767   2.638   9.956   1.907  0.4997 -0.0406  0.2113
  686SOL    HW211768   2.697   9.862   2.027 -0.6418 -0.8972  0.1063
  687SOL     OW11769   3.120   7.161   1.793  0.5404 -1.1015 -0.2473
  687SOL    HW111770   3.178   7.147   1.873 -0.3046  0.7897  0.7383
  687SOL    HW211771   3.067   7.078   1.774 -0.8735 -0.8818  2.5134
  688SOL     OW11772   3.192   0.768   0.117 -0.0220  0.5750  0.1300
  688SOL    HW111773   3.128   0.808   0.051 -0.8951 -0.8911  0.0528
  688SOL    HW211774   3.208   0.832   0.191 -0.9020  1.3110 -0.3125
  689SOL     OW11775   2.769   4.530   2.466  0.5013  0.7320  0.5649
  689SOL    HW111776   2.792   4.471   2.543 -1.1943  1.3299  1.5483
  689SOL    HW211777   2.797   4.624   2.487  2.9945  0.3679 -0.9042
  690SOL     OW11778   2.311   7.144   1.297 -0.3042  0.6836  0.0407
  690SOL    HW111779   2.328   7.118   1.202  0.4341  2.2361 -0.2740
  690SOL    HW211780   2.213   7.153   1.312 -0.4755 -0.5345 -0.3004
  691SOL     OW11781   2.809   8.645   0.599  0.1150  0.0238 -0.2497
  691SOL    HW111782   2.831   8.699   0.517 -0.3884  0.1524 -0.3036
  691SOL    HW211783   2.741   8.694   0.654 -1.0853 -1.0058 -0.7983
  692SOL     OW11784   3.655   2.205   0.874  0.1390 -0.0205  0.0277
  692SOL    HW111785   3.712   2.200   0.955  0.5039 -0.4557 -0.2573
  692SOL    HW211786   3.686   2.282   0.816  0.0090  0.1610  0.1981
  693SOL     OW11787   2.925   4.192   0.052  0.4783  0.9952 -0.0656
  693SOL    HW111788   2.962   4.270   0.102 -1.2067  1.9821 -0.3236
  693SOL    HW211789   2.908   4.116   0.116  3.0187  0.4647  0.0307
  694SOL     OW11790   2.895   5.490   0.544  0.1989  0.6775 -0.6080
  694SOL    HW111791   2.954   5.446   0.476 -0.0348  1.2287 -1.1751
  694SOL    HW211792   2.808   5.514   0.501  1.5022  4.6244 -1.2092
  695SOL     OW11793   3.187   0.965   0.799  0.0622 -0.0475  0.0535
  695SOL    HW111794   3.167   1.010   0.712 -1.4343  0.8109  0.8265
  695SOL    HW211795   3.145   1.017   0.873  0.1187 -1.5685  1.1601
  696SOL     OW11796   4.528   3.798   0.764 -0.4123 -0.4651  0.1428
  696SOL    HW111797   4.502   3.872   0.701  3.5472  2.2759  1.4711
  696SOL    HW211798   4.547   3.715   0.712 -1.3898  0.5090 -1.8273
  697SOL     OW11799   3.018   9.732   1.631 -0.0895  0.6884 -0.0538
  697SOL    HW111800   3.033   9.635   1.613 -0.6851  0.4865  0.5239
  697SOL    HW211801   3.103   9.773   1.664  0.2724  0.4579 -0.6935
  698SOL     OW11802   3.393   1.560   1.967 -0.2574 -0.0769 -0.5489
  698SOL    HW111803   3.316   1.500   1.945 -0.1646  0.0355 -1.1664
  698SOL    HW211804   3.419   1.613   1.887  0.3584  0.0071 -0.2999
  699SOL     OW11805   2.872   2.125   1.865 -0.0278  0.8690 -0.3069
  699SOL    HW111806   2.901   2.072   1.786 -0.8673  1.7756 -1.2370
  699SOL    HW211807   2.892   2.221   1.850  0.5955  0.9407  0.9550
  700SOL     OW11808   2.376   4.004   0.337  0.6117  0.0878  0.3979
  700SOL    HW111809   2.319   4.084   0.321  0.0528 -0.0249  1.7301
  700SOL    HW211810   2.400   3.962   0.250 -2.8151 -0.9001 -0.1251
  701SOL     OW11811   3.324   3.435   1.872 -0.3156 -0.2568 -0.9279
  701SOL    HW111812   3.336   3.421   1.774 -0.2622  1.8984 -1.2503
  701SOL    HW211813   3.252   3.502   1.887  1.0803  0.9474  0.4447
  702SOL     OW11814   2.869   0.360   0.092  0.3738 -0.4441  0.3252
  702SOL    HW111815   2.954   0.412   0.090  0.7953 -1.1571 -1.8106
  702SOL    HW211816   2.802   0.404   0.031  0.2942 -1.6557 -0.4671
  703SOL     OW11817   4.107   1.716   0.371 -0.2583 -0.4888 -0.6576
  703SOL    HW111818   4.193   1.727   0.420 -0.3996 -0.3120 -0.4464
  703SOL    HW211819   4.038   1.677   0.433 -0.4927 -0.0787 -0.6608
  704SOL     OW11820   3.927   8.198   2.824  0.2268 -0.4662 -0.0122
  704SOL    HW111821   3.970   8.205   2.734 -0.7010  2.0813 -0.3065
  704SOL    HW211822   3.829   8.182   2.813  0.3769 -1.8346  0.5803
  705SOL     OW11823   3.393   1.633   0.046 -0.4613  0.1987  0.3855
  705SOL    HW111824   3.462   1.618  -0.025  0.2326  0.1227  1.0658
  705SOL    HW211825   3.346   1.720   0.030  0.1200  0.4754  0.1762
  706SOL     OW11826   2.943   2.238   2.486 -0.3614 -0.1556  0.9756
  706SOL    HW111827   3.007   2.161   2.485  1.5614  1.3525  2.7489
  706SOL    HW211828   2.853   2.206   2.515  0.7751 -1.5258  3.1081
  707SOL     OW11829   4.032   8.453   2.800 -0.1967  0.2450  0.0039
  707SOL    HW111830   3.981   8.539   2.804 -0.4382  0.0358  1.9744
  707SOL    HW211831   3.979   8.380   2.843 -0.5560 -1.2224 -2.7819
  708SOL     OW11832   2.931   8.814   1.979  0.3562  0.1020 -0.1128
  708SOL    HW111833   2.896   8.733   1.932 -1.7822  2.0532 -2.0483
  708SOL    HW211834   2.855   8.874   2.003  1.8095  1.0543  2.2749
  709SOL     OW11835   3.106   8.426   1.974  0.1240 -0.2266 -0.2883
  709SOL    HW111836   3.108   8.327   1.989 -1.6959 -0.3556 -0.7648
  709SOL    HW211837   3.046   8.447   1.897  2.1351  1.1070 -1.5432
  710SOL     OW11838   3.931   0.144   0.860 -0.4097  0.1516 -0.2897
  710SOL    HW111839   3.937   0.110   0.954 -1.0778 -3.2941 -1.4113
  710SOL    HW211840   4.022   0.141   0.818 -0.5143 -0.5048 -0.4693
  711SOL     OW11841   3.004   2.874   0.913  0.7949  0.1728  0.2122
  711SOL    HW111842   3.045   2.830   0.993  0.9687 -1.4269 -0.7454
  711SOL    HW211843   3.007   2.812   0.835 -0.0882  1.4270 -0.8469
  712SOL     OW11844   2.692   7.864   0.637 -0.4243  0.0137  0.0444
  712SOL    HW111845   2.780   7.820   0.622 -0.6038 -0.6545  0.8543
  712SOL    HW211846   2.630   7.799   0.682 -1.2447  0.5576 -0.2819
  713SOL     OW11847   3.787   4.460   0.105  0.2893 -0.0811  0.4728
  713SOL    HW111848   3.803   4.400   0.025 -0.4290 -0.5145  0.6499
  713SOL    HW211849   3.779   4.555   0.074 -1.0557 -0.3688 -0.1071
  714SOL     OW11850   3.218   8.843   1.356 -0.1084 -0.2208  0.0700
  714SOL    HW111851   3.269   8.832   1.270 -0.0300 -0.0628  0.0953
  714SOL    HW211852   3.273   8.811   1.432  0.6353  1.4949  0.2913
  715SOL     OW11853   2.525   9.489   1.324  0.0193  0.2052 -0.4237
  715SOL    HW111854   2.566   9.466   1.413 -2.9114 -0.8485  0.7325
  715SOL    HW211855   2.542   9.414   1.260 -1.5132 -1.0439  0.5725
  716SOL     OW11856   2.698   9.584   2.360  0.4479  0.8383 -0.5362
  716SOL    HW111857   2.643   9.533   2.293  2.0897 -2.0037  0.1924
  716SOL    HW211858   2.654   9.580   2.450  1.7810 -1.4838  0.0594
  717SOL     OW11859   2.898   4.948   1.860 -0.2818 -0.1135  0.4047
  717SOL    HW111860   2.915   4.980   1.954  1.9650  1.9075 -0.6483
  717SOL    HW211861   2.799   4.948   1.843 -0.6125  1.3200  2.1463
  718SOL     OW11862   2.225   6.480   2.297 -0.2183 -0.1295  0.1599
  718SOL    HW111863   2.240   6.385   2.324 -2.9877 -0.4005  0.8706
  718SOL    HW211864   2.207   6.484   2.198  0.7227 -0.2244 -0.0219
  719SOL     OW11865   3.795   1.225   1.952 -0.3624  0.4657  0.6114
  719SOL    HW111866   3.809   1.303   1.892 -0.4714  1.0928  1.3819
  719SOL    HW211867   3.697   1.202   1.955 -0.0277 -1.5020 -1.8046
  720SOL     OW11868   3.477   7.886   0.156 -0.3998 -0.0872  0.0726
  720SOL    HW111869   3.412   7.930   0.093 -0.0453 -0.6743 -0.7169
  720SOL    HW211870   3.441   7.797   0.182 -1.0262  0.5722  1.5205
  721SOL     OW11871   2.168   6.291   0.325 -0.2216 -0.2698 -0.5972
  721SOL    HW111872   2.087   6.235   0.306  0.2467 -0.8270 -0.9654
  721SOL    HW211873   2.142   6.387   0.325 -0.4596 -0.3028 -2.9838
  722SOL     OW11874   2.456   8.262   0.369  0.2403  0.2974 -0.0357
  722SOL    HW111875   2.481   8.357   0.384  0.8355  0.0686  0.4562
  722SOL    HW211876   2.474   8.209   0.452 -0.3066 -0.1996 -0.2258
  723SOL     OW11877   3.993   0.813   1.028  0.2787 -0.1472 -0.1922
  723SOL    HW111878   4.032   0.899   0.998  0.8037 -0.2027  0.3393
  723SOL    HW211879   4.003   0.745   0.955  1.1265 -0.1527 -0.0675
  724SOL     OW11880   2.958   4.442   0.660 -0.3253  0.0465  0.5435
  724SOL    HW111881   2.970   4.386   0.742  0.4194 -0.9792 -0.2506
  724SOL    HW211882   2.943   4.382   0.581 -0.8615  1.0217 -0.0962
  725SOL     OW11883   2.775   3.127   0.900 -0.0972 -0.2925 -0.4117
  725SOL    HW111884   2.790   3.069   0.820 -0.6553 -0.3987 -0.4427
  725SOL    HW211885   2.861   3.139   0.949 -0.2581 -2.4749  0.4968
  726SOL     OW11886   3.989   4.398   0.359 -0.0494  0.6235 -0.2360
  726SOL    HW111887   3.980   4.488   0.402 -0.5652 -0.2774  1.5889
  726SOL    HW211888   3.975   4.407   0.261  1.0506  2.7191 -0.2506
  727SOL     OW11889   4.063   3.483   1.323 -0.0492  0.3646 -0.0829
  727SOL    HW111890   4.091   3.501   1.229 -0.4284 -0.1341 -0.2954
  727SOL    HW211891   4.127   3.418   1.365  1.1613  1.9775  0.5939
  728SOL     OW11892   3.516   8.516   2.233  0.0692  0.2896  0.2742
  728SOL    HW111893   3.495   8.516   2.135  2.3221 -0.1251 -0.2319
  728SOL    HW211894   3.431   8.511   2.285 -1.1554  0.4876 -1.6548
  729SOL     OW11895   3.231   4.741   0.075 -0.4956  0.0333 -0.0714
  729SOL    HW111896   3.245   4.770   0.170 -1.6513  2.7603 -0.6806
  729SOL    HW211897   3.133   4.735   0.057 -0.3490 -4.6645  0.0487
  730SOL     OW11898   3.960   8.099   1.014  0.0546 -0.1140 -0.4585
  730SOL    HW111899   4.053   8.137   1.015 -0.3688  0.9695  3.0192
  730SOL    HW211900   3.962   8.007   1.054 -0.2153 -0.5352 -1.4060
  731SOL     OW11901   2.322   5.575   0.356  0.4001 -0.0959  0.2043
  731SOL    HW111902   2.278   5.621   0.278  2.9443  0.2726 -1.0653
  731SOL    HW211903   2.380   5.641   0.405  0.7537 -0.9320  0.9238
  732SOL     OW11904   2.459   7.798   1.572 -0.7407  0.2094 -0.5470
  732SOL    HW111905   2.544   7.822   1.524  0.0818 -0.5232  0.5067
  732SOL    HW211906   2.393   7.760   1.508  0.6518 -1.5555 -0.9574
  733SOL     OW11907   3.708   1.412   0.510  0.2566  0.1835  0.0124
  733SOL    HW111908   3.691   1.508   0.531  0.7743  0.4498 -0.7622
  733SOL    HW211909   3.631   1.357   0.542 -0.4001  0.9507 -0.2317
  734SOL     OW11910   4.241   1.390   1.200 -0.3136 -0.7132  0.5904
  734SOL    HW111911   4.317   1.359   1.142 -2.8012  1.2729 -4.0081
  734SOL    HW211912   4.168   1.322   1.197 -0.6037 -0.4298  1.1839
  735SOL     OW11913   3.463   4.595   0.011  0.2531 -0.0734 -0.4184
  735SOL    HW111914   3.506   4.554   0.091  0.4918 -1.1193 -1.0685
  735SOL    HW211915   3.376   4.637   0.037  0.9016  0.6523  0.6039
  736SOL     OW11916   2.932   6.820   2.388 -0.3452 -0.3957 -0.3618
  736SOL    HW111917   2.836   6.823   2.359  0.0222 -0.0847 -1.5394
  736SOL    HW211918   2.952   6.730   2.427 -0.8202 -0.8344 -1.1218
  737SOL     OW11919   2.987   1.092   1.247  0.1912  0.1531 -0.8853
  737SOL    HW111920   2.974   0.995   1.226  0.1158 -0.3606  1.3628
  737SOL    HW211921   3.060   1.101   1.315  0.9321  1.7654 -1.8868
  738SOL     OW11922   3.002   0.074   1.836  0.1690 -0.0002  0.0473
  738SOL    HW111923   3.052   0.149   1.880 -0.5796  0.7914 -0.4514
  738SOL    HW211924   2.909   0.071   1.872  0.7753 -1.9952  1.5935
  739SOL     OW11925   3.134   8.256   1.031 -0.0279 -0.0737 -0.7577
  739SOL    HW111926   3.099   8.189   0.965 -0.9160 -1.5805  1.2128
  739SOL    HW211927   3.227   8.231   1.058 -0.0364 -0.0231 -0.6804
  740SOL     OW11928   3.402   2.834   1.965 -0.0865 -0.5223  0.8575
  740SOL    HW111929   3.362   2.793   2.047 -2.5605 -0.4690 -0.2630
  740SOL    HW211930   3.329   2.865   1.905  1.7124  0.9019 -0.6519
  741SOL     OW11931   2.697   0.509   1.939 -0.7139 -0.2539  0.5355
  741SOL    HW111932   2.700   0.409   1.935 -2.2793 -0.3001 -0.1439
  741SOL    HW211933   2.601   0.539   1.935 -0.1408  1.3534 -2.1641
  742SOL     OW11934   3.445   0.958   2.295  0.0363  0.1978  0.4808
  742SOL    HW111935   3.434   0.971   2.394  0.1136  2.4625  0.2300
  742SOL    HW211936   3.533   0.914   2.277  0.0757 -0.1248  1.4193
  743SOL     OW11937   3.073   2.160   2.218  0.8396 -0.9388  0.7156
  743SOL    HW111938   3.155   2.115   2.252  0.4172 -1.4881  1.0140
  743SOL    HW211939   3.062   2.249   2.262  1.4865 -0.6923  0.3828
  744SOL     OW11940   2.558   6.222   1.185  0.4796  0.3537  0.3442
  744SOL    HW111941   2.464   6.238   1.157  0.6909  0.6617 -0.1982
  744SOL    HW211942   2.608   6.309   1.183  0.9204  0.0951  0.0925
  745SOL     OW11943   3.189   0.563   2.481 -0.0214  0.3090 -0.4703
  745SOL    HW111944   3.121   0.603   2.420 -1.6051 -0.4583  0.7457
  745SOL    HW211945   3.224   0.634   2.543 -1.0851  0.3093  0.1298
  746SOL     OW11946   2.680   5.532   0.415  0.7083  0.0224  0.0093
  746SOL    HW111947   2.618   5.475   0.362 -1.1637  0.2938  1.8625
  746SOL    HW211948   2.645   5.626   0.418  1.6348  0.3628  0.3765
  747SOL     OW11949   3.719   9.612   0.476 -0.3950 -0.0563  0.5618
  747SOL    HW111950   3.681   9.649   0.391 -0.6283 -0.5257  0.4567
  747SOL    HW211951   3.729   9.685   0.543 -1.0314  0.1589  0.4256
  748SOL     OW11952   3.606   4.845   0.740  0.2450 -0.4022 -0.9126
  748SOL    HW111953   3.552   4.870   0.660  0.9445 -0.6224 -1.4507
  748SOL    HW211954   3.703   4.847   0.717  0.4854  0.2422  0.1215
  749SOL     OW11955   3.262   3.166   1.603 -0.6263  0.2475  0.2651
  749SOL    HW111956   3.195   3.240   1.600 -1.7468 -0.7702 -0.6986
  749SOL    HW211957   3.339   3.192   1.661 -0.8944  2.2425 -0.2504
  750SOL     OW11958   2.585   5.307   1.917 -0.0580 -0.3688 -0.0609
  750SOL    HW111959   2.540   5.385   1.873 -0.3964 -0.2752  0.4349
  750SOL    HW211960   2.682   5.326   1.928  0.0323 -0.4092 -0.7982
  751SOL     OW11961   3.201   9.224   2.838 -0.4834  0.5449 -0.3710
  751SOL    HW111962   3.214   9.285   2.759 -2.4775 -0.5612 -1.6193
  751SOL    HW211963   3.235   9.132   2.814 -1.9707 -0.0335 -0.3303
  752SOL     OW11964   3.381   3.024   2.433 -0.1645 -0.3079  0.1923
  752SOL    HW111965   3.305   2.986   2.485  1.5017 -1.2556  2.0021
  752SOL    HW211966   3.391   3.121   2.452 -0.6570 -0.2756  0.2684
  753SOL     OW11967   3.614   4.084   2.371 -0.4431 -0.3634  0.4450
  753SOL    HW111968   3.604   4.146   2.449  0.5232  2.5314 -1.6643
  753SOL    HW211969   3.526   4.077   2.324 -0.5290 -0.5662  0.6308
  754SOL     OW11970   2.949   9.861   1.148  0.2357 -0.1554 -0.0206
  754SOL    HW111971   2.859   9.855   1.104  0.1602 -0.1703  0.1360
  754SOL    HW211972   2.941   9.832   1.243  0.6476 -1.2623 -0.3260
  755SOL     OW11973   3.730   3.124   1.385 -0.2617 -0.8006  0.0634
  755SOL    HW111974   3.804   3.076   1.431  0.0311 -0.1817  0.2432
  755SOL    HW211975   3.753   3.221   1.375 -0.7128 -0.7516 -0.5718
  756SOL     OW11976   4.288   3.114   2.173 -0.6336  0.5226 -0.1459
  756SOL    HW111977   4.318   3.049   2.103 -2.8208 -0.2358 -0.4318
  756SOL    HW211978   4.310   3.207   2.145  0.7771  0.0419 -0.6575
  757SOL     OW11979   3.751   3.007   2.727  0.3004 -0.2422 -0.1067
  757SOL    HW111980   3.777   3.080   2.664 -0.8771 -0.4003 -0.7852
  757SOL    HW211981   3.798   2.923   2.701 -1.7081 -0.8242 -2.0544
  758SOL     OW11982   5.084   2.847   0.925  0.3052 -0.2240 -0.4097
  758SOL    HW111983   5.009   2.795   0.885  1.9529 -3.0496  0.0283
  758SOL    HW211984   5.065   2.865   1.022 -0.5304  0.5498 -0.7072
  759SOL     OW11985   4.220   8.208   1.007  0.2566 -0.2549 -0.0402
  759SOL    HW111986   4.225   8.307   1.020 -1.1594  0.1219 -2.1515
  759SOL    HW211987   4.283   8.181   0.933  1.2219 -1.0639  1.0467
  760SOL     OW11988   2.540   5.015   1.935 -0.5966 -0.4438  0.4214
  760SOL    HW111989   2.540   5.112   1.957 -1.1374 -0.3370 -0.0331
  760SOL    HW211990   2.531   4.961   2.019  0.4493 -0.1244  0.7431
  761SOL     OW11991   3.106   4.515   2.744 -0.2938  0.2739  0.0889
  761SOL    HW111992   3.164   4.519   2.824 -0.8016 -1.3974  0.5715
  761SOL    HW211993   3.160   4.488   2.664 -0.1503  0.0652  0.2582
  762SOL     OW11994   2.967   1.375   1.433  0.2138 -0.1187 -0.0364
  762SOL    HW111995   2.953   1.340   1.526 -2.8447  3.0955  0.8520
  762SOL    HW211996   2.944   1.305   1.366 -3.6907 -0.5632  1.6454
  763SOL     OW11997   4.136   4.263   0.899  0.0514  0.0512  0.3216
  763SOL    HW111998   4.180   4.261   0.810  1.2839 -0.4217  0.9329
  763SOL    HW211999   4.149   4.353   0.941 -0.6389  0.3164 -0.0202
  764SOL     OW12000   4.456   4.314   0.860 -0.0359 -0.0654 -0.0764
  764SOL    HW112001   4.428   4.333   0.954  0.7202 -1.9633  0.5473
  764SOL    HW212002   4.552   4.287   0.858  0.1287  0.5717 -1.4841
  765SOL     OW12003   3.988   2.559   0.832 -0.6012  0.3224  0.3314
  765SOL    HW112004   3.927   2.486   0.863 -0.2870  0.7849  2.1097
  765SOL    HW212005   4.057   2.521   0.770 -1.7947 -0.4656 -0.5241
  766SOL     OW12006   3.190   4.939   2.609 -0.1015  0.5097  0.4403
  766SOL    HW112007   3.221   4.948   2.514  0.0969  2.0594  0.6470
  766SOL    HW212008   3.267   4.949   2.671 -0.0772 -1.4408  0.7432
  767SOL     OW12009   2.670   7.974   0.229 -0.4886 -0.2647 -0.8446
  767SOL    HW112010   2.573   7.999   0.224 -0.7411 -1.0137  0.1125
  767SOL    HW212011   2.680   7.877   0.205 -0.0332 -0.3073 -0.4825
  768SOL     OW12012   3.344   1.255   1.485  0.1933  0.0403  0.1533
  768SOL    HW112013   3.279   1.307   1.540  0.0438  0.9819 -0.8853
  768SOL    HW212014   3.310   1.163   1.470 -1.5630  0.9291 -1.4943
  769SOL     OW12015   4.268   4.267   0.677 -0.0825 -0.7671 -0.2882
  769SOL    HW112016   4.291   4.204   0.603 -0.0316 -0.2642 -0.7023
  769SOL    HW212017   4.351   4.290   0.728  0.1622  0.1544 -1.0809
  770SOL     OW12018   3.603   2.837   2.168 -0.2476  0.1192 -0.3476
  770SOL    HW112019   3.666   2.764   2.140  0.3246  0.8548 -1.0112
  770SOL    HW212020   3.532   2.847   2.098 -0.9779 -0.5632  0.2950
  771SOL     OW12021   3.749   1.770   2.083 -0.0723  0.9167  0.1248
  771SOL    HW112022   3.661   1.815   2.094  0.5760  2.0602  0.7507
  771SOL    HW212023   3.775   1.770   1.986 -1.5002 -0.8916 -0.2884
  772SOL     OW12024   2.845   9.002   2.346  0.0596  0.3899  0.0278
  772SOL    HW112025   2.776   9.073   2.332 -0.9642 -1.0667 -2.7078
  772SOL    HW212026   2.931   9.029   2.304 -0.0509  0.4203 -0.1782
  773SOL     OW12027   3.509   2.730   1.051 -0.1416  0.0699  0.5476
  773SOL    HW112028   3.558   2.673   1.118  1.7250  0.5616 -0.3473
  773SOL    HW212029   3.569   2.804   1.021 -1.7068  1.0977 -0.1063
  774SOL     OW12030   3.276   4.401   2.568 -0.2589 -0.1436  0.1499
  774SOL    HW112031   3.244   4.452   2.488  0.4795  0.7220  0.3997
  774SOL    HW212032   3.295   4.307   2.541  0.7180  0.3346 -0.8787
  775SOL     OW12033   4.011   1.093   1.667 -1.2270 -0.2020  0.8672
  775SOL    HW112034   3.981   1.044   1.749 -1.2244  0.2416  1.1353
  775SOL    HW212035   4.046   1.027   1.600  1.7904 -0.3395  2.4892
  776SOL     OW12036   2.486   9.415   2.229  0.0428 -0.1117  0.0553
  776SOL    HW112037   2.408   9.365   2.192  0.8116 -0.3570 -1.2528
  776SOL    HW212038   2.540   9.454   2.155 -0.9740  3.4104  1.0833
  777SOL     OW12039   3.650   3.025   2.366 -0.0382 -0.4516  0.6596
  777SOL    HW112040   3.631   2.969   2.285 -1.0664  0.5994  0.1535
  777SOL    HW212041   3.567   3.030   2.422  0.6313 -1.0620  1.7240
  778SOL     OW12042   2.903   9.734   1.363  0.6524  0.3939 -0.0530
  778SOL    HW112043   2.902   9.634   1.364 -0.1530  0.3455 -2.3288
  778SOL    HW212044   2.961   9.767   1.437 -0.0200 -1.7285  1.4979
  779SOL     OW12045   2.620   8.307   1.757  0.0885  0.4026  0.1339
  779SOL    HW112046   2.531   8.268   1.730  0.1446 -0.2236  0.8254
  779SOL    HW212047   2.652   8.369   1.686 -1.1431  1.0164  0.0979
  780SOL     OW12048   2.822   7.740   2.406  0.4236  0.2208 -0.1322
  780SOL    HW112049   2.789   7.795   2.329  1.0966  1.6666  0.5963
  780SOL    HW212050   2.922   7.741   2.407  0.4219  0.0967  0.6746
  781SOL     OW12051   2.933   0.000   2.583  0.4237  0.0646 -0.0267
  781SOL    HW112052   2.891   0.034   2.667  0.0384  0.9693 -0.5731
  781SOL    HW212053   3.030  -0.019   2.598  0.7947  2.0125  0.1299
  782SOL     OW12054   4.584   3.536   0.385  0.0102 -0.3650 -0.1402
  782SOL    HW112055   4.569   3.626   0.343  0.4070 -0.1614  0.1520
  782SOL    HW212056   4.629   3.476   0.320  0.0958 -0.2320 -0.2030
  783SOL     OW12057   2.906   4.350   2.308 -0.0602  0.3132 -0.3639
  783SOL    HW112058   2.910   4.383   2.214 -2.9818 -1.8501 -1.3162
  783SOL    HW212059   2.840   4.405   2.360 -0.1862  0.0306 -0.2229
  784SOL     OW12060   3.477   4.050   2.786  0.2479  0.4811  1.1098
  784SOL    HW112061   3.515   3.961   2.811 -0.9463  0.0247  1.3349
  784SOL    HW212062   3.415   4.081   2.858  1.3879  1.9347  1.4739
  785SOL     OW12063   4.054   8.721   0.081 -0.2434  0.3845 -0.2914
  785SOL    HW112064   3.975   8.734   0.021 -0.5782 -1.8294 -0.3491
  785SOL    HW212065   4.138   8.725   0.026 -0.3293  1.8756 -0.3531
  786SOL     OW12066   4.670   3.132   1.522 -0.8807  0.1596  0.6774
  786SOL    HW112067   4.727   3.212   1.508 -1.2950  0.3646  0.1101
  786SOL    HW212068   4.623   3.138   1.610 -2.4240  1.5041 -0.1991
  787SOL     OW12069   3.367   2.310   2.027  0.4888  0.4457  0.5353
  787SOL    HW112070   3.464   2.290   2.035  0.2815 -0.9983 -0.3831
  787SOL    HW212071   3.331   2.337   2.116  1.5694  0.2403  1.0419
  788SOL     OW12072   3.161   5.507   2.529  0.8650  0.3808 -1.0148
  788SOL    HW112073   3.093   5.581   2.536 -0.1783 -0.6839  0.3520
  788SOL    HW212074   3.114   5.421   2.511  1.8564 -0.3524 -0.0998
  789SOL     OW12075   2.723   8.604   1.910 -0.2196 -0.2246  0.9651
  789SOL    HW112076   2.654   8.539   1.942 -1.7725 -0.2102 -2.2529
  789SOL    HW212077   2.796   8.554   1.863 -1.5399  0.3174 -1.7344
  790SOL     OW12078   3.549   3.185   1.667  0.0165  0.3918 -0.2798
  790SOL    HW112079   3.588   3.206   1.757 -1.2544 -1.8274  0.8278
  790SOL    HW212080   3.611   3.124   1.618 -0.1690  0.0888 -0.1391
  791SOL     OW12081   3.289   1.677   1.326  0.7170  0.2539  0.1931
  791SOL    HW112082   3.361   1.677   1.257  0.9167 -0.4652  0.3929
  791SOL    HW212083   3.200   1.669   1.280  0.9221 -1.6086  0.0652
  792SOL     OW12084   3.226   3.906   1.492 -0.0780 -0.0689 -0.5012
  792SOL    HW112085   3.316   3.912   1.450  0.3910  0.1580  0.5310
  792SOL    HW212086   3.177   3.992   1.479  0.5131  0.4057  0.4320
  793SOL     OW12087   2.454   6.712   2.828 -0.4925 -0.2315  0.1925
  793SOL    HW112088   2.552   6.689   2.831 -0.6778 -1.2833 -1.2213
  793SOL    HW212089   2.405   6.640   2.779 -1.9665  0.3567  0.8022
  794SOL     OW12090   3.927   3.466   0.444 -0.0159 -0.0580  0.3847
  794SOL    HW112091   3.948   3.375   0.407  1.5910  0.7938 -0.8606
  794SOL    HW212092   3.838   3.496   0.411  0.2497 -0.4204 -0.6771
  795SOL     OW12093   4.550   2.536   0.698 -0.0199  0.5584 -1.0133
  795SOL    HW112094   4.475   2.561   0.759  0.4278  1.0933 -0.6886
  795SOL    HW212095   4.547   2.593   0.616  0.2336  0.8065 -0.8495
  796SOL     OW12096   3.916   4.206   0.560  0.6536  0.1933  0.2609
  796SOL    HW112097   3.921   4.288   0.502 -0.4418 -0.0323 -0.1692
  796SOL    HW212098   3.997   4.149   0.545  1.1625  0.9372  0.1652
  797SOL     OW12099   4.333   0.782   1.205  0.3072 -0.0587  0.0972
  797SOL    HW112100   4.319   0.683   1.197 -0.2078 -0.2763  2.9022
  797SOL    HW212101   4.384   0.816   1.126  1.3955 -2.7439 -0.4004
  798SOL     OW12102   3.643   7.931   1.682 -0.2351  0.0523  0.3423
  798SOL    HW112103   3.581   7.890   1.748  0.6143 -1.8542 -0.0148
  798SOL    HW212104   3.618   7.903   1.589  1.6064 -1.4383  0.2468
  799SOL     OW12105   2.969   9.747   0.407 -0.0674 -0.4833  0.3331
  799SOL    HW112106   2.966   9.723   0.504  1.6317 -1.8953  0.0533
  799SOL    HW212107   3.044   9.810   0.390 -1.5620  1.3041  0.2459
  800SOL     OW12108   2.758   5.838   2.514 -0.1897 -0.0315 -0.2440
  800SOL    HW112109   2.699   5.915   2.536  0.1630 -0.1596  1.1773
  800SOL    HW212110   2.703   5.763   2.477 -0.4322  1.1573 -2.3253
  801SOL     OW12111   3.723   1.685   2.454 -0.4982  0.5168  0.3854
  801SOL    HW112112   3.643   1.732   2.417 -1.0069  0.9243  1.9989
  801SOL    HW212113   3.803   1.744   2.445 -1.0479  1.5193  1.9956
  802SOL     OW12114   3.061   4.176   1.356  0.0109 -0.0780  0.4585
  802SOL    HW112115   2.968   4.139   1.353  1.2653 -3.4135  0.0966
  802SOL    HW212116   3.091   4.199   1.263  0.5801 -1.9414  0.1383
  803SOL     OW12117   3.659   8.647   0.734 -0.1089 -0.2707 -0.6903
  803SOL    HW112118   3.661   8.638   0.834  0.8219 -1.2341 -0.7912
  803SOL    HW212119   3.670   8.557   0.692 -2.9619 -0.2101 -1.6661
  804SOL     OW12120   3.736   4.254   0.797  0.5380 -0.6610  0.3357
  804SOL    HW112121   3.667   4.326   0.787  1.3693  0.3463  1.6376
  804SOL    HW212122   3.789   4.247   0.713  2.5372  2.4939  1.2202
  805SOL     OW12123   2.838   8.084   1.764 -0.0775  0.7320  0.2556
  805SOL    HW112124   2.765   8.152   1.752  0.8402  1.8389  0.8662
  805SOL    HW212125   2.887   8.103   1.849  0.0933 -0.7954  0.5051
  806SOL     OW12126   2.842   8.022   0.436 -0.0538  0.0231  0.4834
  806SOL    HW112127   2.768   8.017   0.369  0.3964  0.8956 -0.0905
  806SOL    HW212128   2.804   8.015   0.528 -0.8723  0.6826  0.1973
  807SOL     OW12129   2.784   6.700   2.010 -0.1029  0.3835 -0.0396
  807SOL    HW112130   2.771   6.603   2.027 -0.3449  0.4876  0.3856
  807SOL    HW212131   2.840   6.713   1.929 -2.0739 -0.0767 -1.5009
  808SOL     OW12132   3.143   9.105   1.332 -0.0411 -0.0147  0.1494
  808SOL    HW112133   3.150   9.010   1.362  2.0646 -0.2608 -1.0405
  808SOL    HW212134   3.125   9.107   1.234  0.6517  0.8177  0.0397
  809SOL     OW12135   3.447   8.226   1.844 -0.3727 -0.3069 -0.4133
  809SOL    HW112136   3.351   8.250   1.828 -1.2269 -1.8437  2.2105
  809SOL    HW212137   3.484   8.181   1.763 -1.8133  0.4075 -1.4935
  810SOL     OW12138   3.752   2.563   1.802  0.4772  0.3803 -0.3362
  810SOL    HW112139   3.840   2.604   1.828 -0.6155  1.8676  1.0900
  810SOL    HW212140   3.681   2.633   1.804 -0.6476 -0.6937 -2.0555
  811SOL     OW12141   2.169   6.766   1.094  0.2584  0.1556 -0.2640
  811SOL    HW112142   2.203   6.859   1.084 -0.3618  0.5710  1.3662
  811SOL    HW212143   2.177   6.718   1.007  5.5794 -0.0070  0.1731
  812SOL     OW12144   3.360   2.720   2.387 -0.2158 -0.0209 -0.1887
  812SOL    HW112145   3.326   2.689   2.476  0.6877 -0.5136  0.0023
  812SOL    HW212146   3.404   2.809   2.397 -1.1918  0.4907 -0.3844
  813SOL     OW12147   2.210   5.915   0.419  0.0361  0.0084  0.6876
  813SOL    HW112148   2.140   5.889   0.486 -1.1330  1.1303 -0.0747
  813SOL    HW212149   2.270   5.984   0.458 -0.3327  0.2905  0.7601
  814SOL     OW12150   3.210   9.191   1.984  0.1603 -0.0453  0.5236
  814SOL    HW112151   3.132   9.225   2.036  0.6690 -0.5196  1.6035
  814SOL    HW212152   3.295   9.216   2.030  0.6678  0.6541 -0.7543
  815SOL     OW12153   3.023   3.875   0.858 -0.6052 -0.0603 -0.1138
  815SOL    HW112154   2.999   3.785   0.895  0.4394 -0.2112  0.2215
  815SOL    HW212155   3.046   3.866   0.761 -0.5888 -0.1477 -0.1020
  816SOL     OW12156   4.665   3.321   1.244 -0.1258 -0.1547  0.7315
  816SOL    HW112157   4.683   3.229   1.210 -1.1490 -0.4752  1.0468
  816SOL    HW212158   4.720   3.338   1.326  0.2577 -0.3906  0.5231
  817SOL     OW12159   3.158   0.362   2.684  0.3655  0.3044 -0.3715
  817SOL    HW112160   3.136   0.264   2.683 -0.6990  0.5338  0.0307
  817SOL    HW212161   3.149   0.399   2.592  0.1520  0.1630 -0.4077
  818SOL     OW12162   2.650   9.664   0.691 -0.3965  0.0553 -0.4537
  818SOL    HW112163   2.569   9.609   0.668  0.1527 -0.9877  0.0510
  818SOL    HW212164   2.667   9.731   0.619 -1.1096 -0.4044 -1.0567
  819SOL     OW12165   3.186   5.069   1.196  0.0890 -0.2350 -0.1582
  819SOL    HW112166   3.184   4.985   1.141 -3.2976 -1.1806  1.2979
  819SOL    HW212167   3.231   5.049   1.284 -0.2251 -0.3726 -0.0294
  820SOL     OW12168   4.427   2.642   0.944 -0.0042 -0.2008 -0.1380
  820SOL    HW112169   4.510   2.663   0.996  0.2021 -0.7046 -0.2594
  820SOL    HW212170   4.396   2.549   0.967 -2.4100  1.1477  2.4424
  821SOL     OW12171   2.448   6.159   0.710 -0.0768 -0.3155 -0.3562
  821SOL    HW112172   2.515   6.178   0.782  0.3730  0.9423 -1.0887
  821SOL    HW212173   2.482   6.192   0.623 -1.6614  0.3552 -0.7431
  822SOL     OW12174   3.071   5.122   0.118  0.4635 -0.2793  0.1187
  822SOL    HW112175   3.082   5.192   0.048 -0.7442 -0.0041  0.2003
  822SOL    HW212176   2.974   5.103   0.132  0.6543  0.0952  2.1296
  823SOL     OW12177   3.601   3.059   1.922  1.2801 -0.3689  0.1352
  823SOL    HW112178   3.631   3.116   1.998  1.7627 -0.4739  0.0215
  823SOL    HW212179   3.511   3.021   1.943  0.2354  1.7086 -0.4559
  824SOL     OW12180   2.604   5.652   1.384  0.2519  0.0049 -0.0786
  824SOL    HW112181   2.681   5.701   1.342  0.4556 -0.4824 -0.2826
  824SOL    HW212182   2.631   5.618   1.474  0.8589 -1.6432 -0.8514
  825SOL     OW12183   2.396   5.838   1.238 -0.2057 -0.0622  0.2896
  825SOL    HW112184   2.428   5.916   1.292 -0.0700 -0.4862  0.8279
  825SOL    HW212185   2.409   5.754   1.290  1.4088 -0.6547 -1.0421
  826SOL     OW12186   3.560   0.437   0.464  0.2384  0.1842  0.0717
  826SOL    HW112187   3.467   0.459   0.437  0.2741 -0.5600 -0.6571
  826SOL    HW212188   3.559   0.379   0.545  0.1109  1.4800  1.0162
  827SOL     OW12189   3.203   3.950   0.235  0.0778  0.4860 -0.3213
  827SOL    HW112190   3.212   4.027   0.171 -0.3928  1.0899  0.3331
  827SOL    HW212191   3.261   3.967   0.315 -0.9675  0.7418  0.3860
  828SOL     OW12192   3.817   2.184   1.075 -0.0342 -0.2453  0.5282
  828SOL    HW112193   3.904   2.231   1.064 -0.6891  0.6976 -0.8585
  828SOL    HW212194   3.828   2.106   1.137  1.3560  0.9765  1.8674
  829SOL     OW12195   3.054   2.460   2.352  0.1129  0.1049 -0.1713
  829SOL    HW112196   3.014   2.469   2.261 -0.4130  3.6420  0.3429
  829SOL    HW212197   3.002   2.393   2.405 -2.3717  1.3183 -1.0060
  830SOL     OW12198   2.883   3.552   2.146  0.0205  0.4732 -0.0090
  830SOL    HW112199   2.973   3.593   2.152 -0.8829  2.8439 -1.7992
  830SOL    HW212200   2.890   3.461   2.105  1.4499  1.1142 -1.2134
  831SOL     OW12201   3.218   1.007   1.409 -0.0106  0.1016  0.2628
  831SOL    HW112202   3.279   0.931   1.387 -0.4414 -0.0407 -0.4409
  831SOL    HW212203   3.162   0.984   1.488  0.1453 -0.1480  0.3003
  832SOL     OW12204   3.734   4.925   2.769  0.3421 -0.2916 -0.2920
  832SOL    HW112205   3.763   4.953   2.678  0.2888 -0.5688 -0.3946
  832SOL    HW212206   3.746   5.001   2.833  2.0901 -0.6636 -0.1524
  833SOL     OW12207   4.536   3.808   0.287 -0.1941  0.6158 -0.1041
  833SOL    HW112208   4.605   3.839   0.353 -0.8471  0.4864  0.6417
  833SOL    HW212209   4.445   3.820   0.326 -0.4989 -1.4724 -0.1286
  834SOL     OW12210   4.376   3.788   1.625 -0.2376 -0.7820 -0.1273
  834SOL    HW112211   4.289   3.793   1.576 -1.6190 -0.9400  2.2581
  834SOL    HW212212   4.382   3.862   1.691  0.3640 -2.1609  1.4123
  835SOL     OW12213   3.211   0.331   0.571 -0.1497 -0.6002  0.1521
  835SOL    HW112214   3.171   0.292   0.489 -2.4180 -1.2091  1.5118
  835SOL    HW212215   3.239   0.258   0.633  2.2355 -0.1666 -0.3472
  836SOL     OW12216   3.333   4.776   0.328 -0.1856  0.1463  0.0262
  836SOL    HW112217   3.260   4.785   0.396 -0.8306 -2.2568 -0.3166
  836SOL    HW212218   3.353   4.679   0.313  1.0912  0.7049 -2.0187
  837SOL     OW12219   4.467   4.138   2.635  0.2172 -0.7953  1.1813
  837SOL    HW112220   4.465   4.065   2.704  0.9223  0.4458  2.5517
  837SOL    HW212221   4.416   4.217   2.669  1.4982  0.2385  0.7698
  838SOL     OW12222   3.940   8.288   1.593  0.0256  0.2936 -0.0575
  838SOL    HW112223   3.858   8.337   1.564  0.0211  1.5138  1.9199
  838SOL    HW212224   3.918   8.232   1.673  0.2343 -2.3144 -1.7769
  839SOL     OW12225   2.499   5.673   0.928 -0.5740  0.6364  0.3501
  839SOL    HW112226   2.476   5.608   0.856 -1.5765  0.6307  0.6686
  839SOL    HW212227   2.476   5.634   1.017  0.7538  0.6027  0.6849
  840SOL     OW12228   2.659   9.041   1.901 -0.0714 -0.0729 -0.3527
  840SOL    HW112229   2.622   8.984   1.974 -0.7419  0.8966  0.0596
  840SOL    HW212230   2.681   8.983   1.822 -2.8121 -0.6113 -0.7539
  841SOL     OW12231   3.076   1.185   0.595 -0.4402 -0.4501 -0.4164
  841SOL    HW112232   2.990   1.200   0.546 -0.0234 -1.1424 -1.3745
  841SOL    HW212233   3.148   1.239   0.552 -0.8528  1.9871  1.8213
  842SOL     OW12234   4.660   1.432   0.952 -0.0217  0.3631 -0.3779
  842SOL    HW112235   4.620   1.523   0.960  0.0103  0.4321 -0.9761
  842SOL    HW212236   4.742   1.436   0.895  0.9465  0.2561  0.9921
  843SOL     OW12237   2.891   5.761   1.673 -0.1504 -0.5647 -0.3047
  843SOL    HW112238   2.906   5.705   1.755  2.0389 -0.2532 -0.4434
  843SOL    HW212239   2.914   5.707   1.592  1.3856  0.3225 -0.4744
  844SOL     OW12240   4.044   0.716   1.797 -0.3333  0.1934 -0.2926
  844SOL    HW112241   4.063   0.787   1.865  0.6956 -0.5875  0.2375
  844SOL    HW212242   4.057   0.626   1.838  2.2233 -0.2841 -2.0689
  845SOL     OW12243   2.885   8.729   2.282  0.2410  0.6507 -0.0914
  845SOL    HW112244   2.950   8.721   2.206 -0.1447  1.2716 -0.4866
  845SOL    HW212245   2.869   8.825   2.303 -2.8545  0.6204 -1.9995
  846SOL     OW12246   2.843   3.789   2.277  0.2220 -0.1077  0.1515
  846SOL    HW112247   2.765   3.847   2.254  0.0671 -0.8923 -1.2799
  846SOL    HW212248   2.833   3.700   2.234  1.1252 -0.7563  1.2684
  847SOL     OW12249   2.926   8.485   1.779 -0.4885 -0.7692 -0.9827
  847SOL    HW112250   2.905   8.404   1.723  1.0524 -1.2214 -0.9182
  847SOL    HW212251   2.964   8.557   1.720  0.3845 -0.9584 -0.6543
  848SOL     OW12252   3.300   1.087   1.814 -0.4572  0.2240 -0.1235
  848SOL    HW112253   3.355   1.168   1.797 -1.8747  1.2287 -0.0748
  848SOL    HW212254   3.247   1.100   1.899 -1.5940 -0.2379 -0.7464
  849SOL     OW12255   3.190   4.872   2.025  0.4371 -0.0956  0.2097
  849SOL    HW112256   3.198   4.851   1.927  0.1302  0.1116  0.1394
  849SOL    HW212257   3.267   4.931   2.052  0.9459 -0.7816  0.2681
  850SOL     OW12258   2.479   3.718   0.386  0.0344  0.4105 -0.3830
  850SOL    HW112259   2.436   3.797   0.431 -0.9130 -0.0533 -0.4613
  850SOL    HW212260   2.445   3.710   0.293 -1.1368 -1.0512  0.1453
  851SOL     OW12261   3.898   8.631   2.425  0.0672  0.5470 -0.3436
  851SOL    HW112262   3.851   8.571   2.489  1.6489  1.7697  2.0590
  851SOL    HW212263   3.850   8.632   2.338 -0.5627 -3.3625 -0.1231
  852SOL     OW12264   3.808   0.937   1.906 -0.2345  0.3426  0.4468
  852SOL    HW112265   3.723   0.919   1.857 -1.1593  2.6959  1.1157
  852SOL    HW212266   3.825   1.036   1.907  1.8098 -0.0058  1.4677
  853SOL     OW12267   4.706   3.066   1.104  0.0016 -0.1600  0.4641
  853SOL    HW112268   4.802   3.096   1.101  0.5498 -1.7054  1.5187
  853SOL    HW212269   4.668   3.067   1.012  1.4921 -0.9414 -0.1806
  854SOL     OW12270   3.979   9.499   1.982 -0.2774 -0.4865 -0.2643
  854SOL    HW112271   4.032   9.577   2.015 -0.4472 -0.7446  0.6192
  854SOL    HW212272   4.033   9.415   1.992 -0.6908 -0.6932  0.2361
  855SOL     OW12273   3.414   2.254   0.992 -0.3942 -0.8028  0.0625
  855SOL    HW112274   3.373   2.166   1.018 -0.0991 -1.7198 -2.3608
  855SOL    HW212275   3.503   2.237   0.949  0.0082  0.7420  0.2840
  856SOL     OW12276   4.090   3.557   1.028 -0.7278  0.3836 -0.8803
  856SOL    HW112277   4.017   3.500   0.989 -1.2855 -0.6040  1.5297
  856SOL    HW212278   4.067   3.654   1.014 -1.3336  0.0567 -2.2221
  857SOL     OW12279   4.630   2.779   1.068  0.1926  0.4202 -0.3279
  857SOL    HW112280   4.688   2.743   0.995  1.3467 -0.2743  0.9097
  857SOL    HW212281   4.650   2.876   1.081  1.7088 -0.0217  0.6785
  858SOL     OW12282   3.354   2.433   2.302  0.1371 -0.0103  0.3601
  858SOL    HW112283   3.265   2.424   2.348 -0.2085  0.0438 -0.2853
  858SOL    HW212284   3.379   2.529   2.299  0.2175 -0.0247  0.5373
  859SOL     OW12285   4.019   2.990   2.236 -0.6745  0.6751  0.1153
  859SOL    HW112286   4.089   3.057   2.214 -1.1239  1.0838 -0.0802
  859SOL    HW212287   3.932   3.017   2.194 -0.1760 -1.5648 -2.4864
  860SOL     OW12288   2.766   5.155   2.440 -0.6197  0.2318 -0.1409
  860SOL    HW112289   2.833   5.190   2.506 -1.3678 -0.0450  0.7795
  860SOL    HW212290   2.720   5.232   2.396 -1.2520  0.4298  0.8410
  861SOL     OW12291   4.014   2.398   2.538  0.1133 -0.9355  0.4560
  861SOL    HW112292   4.056   2.336   2.472 -0.4938 -3.1971  2.1183
  861SOL    HW212293   4.079   2.470   2.563  1.1001 -1.3221 -0.9096
  862SOL     OW12294   2.588   6.419   1.700  0.4232  0.6785  0.2830
  862SOL    HW112295   2.558   6.324   1.700  2.2658  0.0717 -1.2126
  862SOL    HW212296   2.555   6.464   1.616  1.7807  0.6187 -0.2872
  863SOL     OW12297   4.222   3.821   1.051  0.4731  0.0908 -0.0583
  863SOL    HW112298   4.244   3.907   1.005 -0.3832 -0.2935 -1.2335
  863SOL    HW212299   4.302   3.761   1.052  0.5475  0.1669 -0.9427
  864SOL     OW12300   2.476   5.277   2.161  0.0991 -0.5266  0.2880
  864SOL    HW112301   2.514   5.272   2.069  2.9659  1.5077  1.3095
  864SOL    HW212302   2.486   5.188   2.206 -1.0355 -1.4421 -1.2186
  865SOL     OW12303   2.353   6.129   0.190  0.0689  0.4068  0.3420
  865SOL    HW112304   2.318   6.037   0.172  0.5394 -0.2448  2.6466
  865SOL    HW212305   2.280   6.185   0.230 -0.0555  0.9045 -0.5467
  866SOL     OW12306   2.267   6.257   1.138 -0.2416 -0.1114 -0.8393
  866SOL    HW112307   2.291   6.166   1.103  1.7241  0.6031 -1.4030
  866SOL    HW212308   2.217   6.247   1.224 -0.7932 -1.7484 -1.3359
  867SOL     OW12309   2.658   5.027   1.683 -0.2498 -0.4789 -0.2412
  867SOL    HW112310   2.606   5.004   1.601 -0.8952  2.9329 -0.8505
  867SOL    HW212311   2.600   5.016   1.764 -0.3900 -1.4200 -0.4687
  868SOL     OW12312   2.561   5.028   2.265  0.5010  0.1967 -0.2982
  868SOL    HW112313   2.589   5.044   2.359  0.3036  0.5126 -0.2928
  868SOL    HW212314   2.539   4.931   2.253 -2.9913  0.7766  0.9312
  869SOL     OW12315   3.949   4.006   0.873 -0.0753  0.3979  0.3311
  869SOL    HW112316   3.958   3.947   0.793 -0.3089  0.6838  0.0931
  869SOL    HW212317   3.973   4.100   0.848 -0.5065  0.5560  0.5047
  870SOL     OW12318   3.723   0.844   1.097 -0.6406 -0.2749 -0.1142
  870SOL    HW112319   3.819   0.816   1.085 -0.6335 -0.2928 -0.0153
  870SOL    HW212320   3.684   0.869   1.008 -0.5384 -0.2491 -0.1519
  871SOL     OW12321   3.356   0.471   0.289 -0.2426 -0.3949  0.0302
  871SOL    HW112322   3.281   0.405   0.301 -1.6216  1.2867  0.8461
  871SOL    HW212323   3.324   0.562   0.314  0.9314  1.0134 -3.3286
  872SOL     OW12324   3.391   4.017   2.235  0.1456 -0.3478  0.0692
  872SOL    HW112325   3.398   3.917   2.246  0.9575 -0.2034  0.8894
  872SOL    HW212326   3.315   4.038   2.174  0.7319 -1.5259 -1.0971
  873SOL     OW12327   2.182   8.035   1.765  0.8635  0.6126  0.3472
  873SOL    HW112328   2.111   8.013   1.832 -1.2192 -2.4810 -2.7255
  873SOL    HW212329   2.248   7.961   1.760  1.8956  1.5311  0.0531
  874SOL     OW12330   3.431   9.920   1.926  0.0246 -0.1943  0.6554
  874SOL    HW112331   3.420   9.996   1.862  0.5199 -0.0940  0.6920
  874SOL    HW212332   3.344   9.872   1.934 -0.3273  0.4358  0.7161
  875SOL     OW12333   2.422   6.447   2.550  0.3573 -0.0690  0.0156
  875SOL    HW112334   2.386   6.534   2.518 -1.0109 -0.1019  1.3989
  875SOL    HW212335   2.521   6.443   2.534  0.3368  1.5101 -0.5227
  876SOL     OW12336   2.945   9.299   1.702  0.5880 -0.6999  0.1981
  876SOL    HW112337   2.935   9.208   1.663 -0.9652 -0.2845 -0.4213
  876SOL    HW212338   2.869   9.317   1.765  2.1102 -0.6888  2.0533
  877SOL     OW12339   3.421   3.947   0.470  0.3876  0.4386  0.3880
  877SOL    HW112340   3.476   3.880   0.418  0.1568  1.2633 -0.9435
  877SOL    HW212341   3.472   3.975   0.551  2.5121  2.0916 -1.4458
  878SOL     OW12342   4.378   3.278   2.575  0.1310  0.0936  0.0942
  878SOL    HW112343   4.326   3.208   2.525  1.8221 -0.5368 -0.8404
  878SOL    HW212344   4.382   3.362   2.520 -0.4569  0.3657  0.4629
  879SOL     OW12345   3.337   8.178   2.669 -0.0885 -0.0656  0.0952
  879SOL    HW112346   3.284   8.214   2.592  2.4111 -0.3356 -1.8174
  879SOL    HW212347   3.278   8.124   2.729 -1.8856 -0.5733 -2.1020
  880SOL     OW12348   3.509   4.547   2.606  0.1740  0.3992  0.9297
  880SOL    HW112349   3.510   4.577   2.701 -0.2565 -1.7321  1.6490
  880SOL    HW212350   3.435   4.481   2.593  0.5953  0.2214 -0.7537
  881SOL     OW12351   3.697   3.552   0.334  0.1656 -0.1565 -0.6392
  881SOL    HW112352   3.615   3.514   0.378  1.5364 -1.7206  0.6712
  881SOL    HW212353   3.723   3.494   0.257 -0.6674  1.0470 -1.8321
  882SOL     OW12354   2.913   8.841   1.306 -0.2492  0.2336  0.6406
  882SOL    HW112355   2.859   8.886   1.234 -0.1280 -0.2291  0.2551
  882SOL    HW212356   3.010   8.863   1.293 -0.3516  1.1939  1.4247
  883SOL     OW12357   3.368   2.031   0.638 -0.3275  0.0901  0.2682
  883SOL    HW112358   3.368   2.095   0.561  0.7634 -0.3640 -0.1188
  883SOL    HW212359   3.347   2.080   0.722  1.9220  1.2314  0.2010
  884SOL     OW12360   3.540   3.430   1.562  0.3799 -0.2921 -0.0690
  884SOL    HW112361   3.475   3.445   1.487 -1.5241  0.0817  1.5987
  884SOL    HW212362   3.543   3.332   1.584  0.7704 -0.3741 -0.4846
  885SOL     OW12363   3.258   1.143   2.327  0.1126  0.4195 -0.1201
  885SOL    HW112364   3.342   1.095   2.302 -0.6502 -0.7894 -0.3530
  885SOL    HW212365   3.218   1.185   2.245 -0.6105 -0.7339 -0.3524
  886SOL     OW12366   3.609   4.678   0.936 -0.1202  0.4282  0.0047
  886SOL    HW112367   3.631   4.719   1.024 -1.2798  0.4484  0.2837
  886SOL    HW212368   3.614   4.748   0.864  2.6493  0.0408 -0.2544
  887SOL     OW12369   3.962   3.019   1.495  0.4955 -0.5160  0.3373
  887SOL    HW112370   3.927   3.001   1.587  0.1181  0.4713  0.3983
  887SOL    HW212371   4.051   3.063   1.500 -0.1797  0.9175  0.2872
  888SOL     OW12372   2.378   5.444   0.799 -0.2645 -0.6519  0.6790
  888SOL    HW112373   2.453   5.380   0.783  0.1046 -0.5079  1.8165
  888SOL    HW212374   2.352   5.442   0.895  0.6928  1.9031  1.0431
  889SOL     OW12375   3.318   7.645   1.062 -0.4090  0.3305  0.0098
  889SOL    HW112376   3.297   7.600   0.975 -1.4504  1.3391 -0.2674
  889SOL    HW212377   3.407   7.691   1.054  0.2374 -0.8900  0.0045
  890SOL     OW12378   3.254   4.122   0.988  0.6761 -0.3577  0.2499
  890SOL    HW112379   3.156   4.108   0.999  0.5447  0.5086  0.2069
  890SOL    HW212380   3.301   4.034   0.996 -0.1846 -0.9187 -0.6577
  891SOL     OW12381   5.003   4.110   0.852  0.4247  0.2277 -0.1672
  891SOL    HW112382   5.038   4.016   0.859  0.2341  0.0906 -0.9585
  891SOL    HW212383   4.966   4.138   0.940 -0.2074 -0.7200 -0.1187
  892SOL     OW12384   2.880   3.514   2.701 -1.1213 -0.2477 -0.0082
  892SOL    HW112385   2.937   3.565   2.637  1.2550 -2.9012 -0.1203
  892SOL    HW212386   2.886   3.555   2.792 -0.0747  0.2421 -0.2978
  893SOL     OW12387   3.376   3.107   2.121  0.3465  0.6574  0.0479
  893SOL    HW112388   3.290   3.155   2.106  0.2460  1.0321  1.7795
  893SOL    HW212389   3.367   3.045   2.199  1.2220 -0.3538 -0.6297
  894SOL     OW12390   3.367   2.245   0.445 -0.0558  0.4649 -0.3459
  894SOL    HW112391   3.333   2.322   0.498 -2.3796  0.0156 -1.1219
  894SOL    HW212392   3.433   2.277   0.377  1.4342  1.3036  1.4272
  895SOL     OW12393   3.340   3.275   0.505 -0.7847  0.0374  0.5001
  895SOL    HW112394   3.298   3.217   0.575 -0.5631 -0.5551  0.1486
  895SOL    HW212395   3.314   3.241   0.415  0.8802 -0.6524  0.2726
  896SOL     OW12396   3.839   3.134   1.098 -0.8489 -0.0086 -0.9201
  896SOL    HW112397   3.844   3.113   1.195  0.5730 -1.4191 -1.2853
  896SOL    HW212398   3.813   3.230   1.086  0.2491  0.5318  0.8484
  897SOL     OW12399   3.483   9.061   1.138 -0.3321  0.4045  0.2415
  897SOL    HW112400   3.575   9.069   1.177 -0.2891  0.4449  0.1312
  897SOL    HW212401   3.428   9.139   1.168 -0.3953  0.2641  0.4877
  898SOL     OW12402   3.437   1.643   1.699 -0.4305  0.0406  0.0962
  898SOL    HW112403   3.530   1.665   1.671 -0.5471 -1.0427 -1.1967
  898SOL    HW212404   3.381   1.626   1.618 -1.3069 -1.0766  0.9202
  899SOL     OW12405   3.030   2.931   2.359 -0.5280 -0.3786  0.0413
  899SOL    HW112406   3.081   2.853   2.320 -0.2206 -0.3354  0.3539
  899SOL    HW212407   3.055   3.014   2.309 -0.0676 -0.3089  0.3878
  900SOL     OW12408   4.026   3.709   1.663 -0.1007  0.2054  0.2539
  900SOL    HW112409   3.948   3.673   1.612  0.6885 -1.4997  0.2113
  900SOL    HW212410   4.058   3.793   1.619 -0.6104 -0.2158 -0.9574
  901SOL     OW12411   3.133   8.975   1.856  0.1781 -0.2907 -0.4757
  901SOL    HW112412   3.060   8.923   1.901 -0.1371 -0.5789 -1.3200
  901SOL    HW212413   3.145   9.063   1.902 -0.5358 -0.3417 -0.1943
  902SOL     OW12414   3.820   4.234   1.062 -0.3517 -0.3282  0.8073
  902SOL    HW112415   3.776   4.238   0.972  1.0217  3.1934  0.2056
  902SOL    HW212416   3.880   4.154   1.066 -0.1939 -0.3593 -1.5226
  903SOL     OW12417   3.359   8.126   2.088  0.0861 -0.2496 -0.5070
  903SOL    HW112418   3.343   8.045   2.032  1.3871 -0.1083 -1.0892
  903SOL    HW212419   3.393   8.200   2.031  1.0748  0.0085  0.3975
  904SOL     OW12420   3.152   8.290   2.497  0.0530  0.0031  0.1403
  904SOL    HW112421   3.070   8.284   2.553  0.7430 -3.1878  0.8932
  904SOL    HW212422   3.144   8.230   2.418  2.5124 -2.1424  1.4255
  905SOL     OW12423   3.918   1.942   2.496  0.3580  1.1686 -0.6860
  905SOL    HW112424   3.918   1.950   2.596 -0.0216 -1.6193 -0.4272
  905SOL    HW212425   4.006   1.905   2.466  0.2222  1.3598 -1.3242
  906SOL     OW12426   3.357   4.721   2.376 -0.0678  0.5950 -0.0511
  906SOL    HW112427   3.423   4.695   2.447 -0.7540 -0.3569  0.2396
  906SOL    HW212428   3.286   4.652   2.369 -1.4982  2.0022  0.1882
  907SOL     OW12429   2.502   6.039   1.389 -0.3221 -0.2206  0.2570
  907SOL    HW112430   2.584   6.008   1.436  0.2882  0.7202 -0.1817
  907SOL    HW212431   2.526   6.106   1.319 -1.2469 -1.3106 -1.1516
  908SOL     OW12432   3.303   7.927   0.672 -0.1666 -0.0619  0.1548
  908SOL    HW112433   3.392   7.960   0.641  0.1218 -1.0505 -0.0877
  908SOL    HW212434   3.231   7.980   0.628  0.2845  0.1797 -0.3002
  909SOL     OW12435   3.233   0.024   1.698  0.3481 -0.1416  0.0256
  909SOL    HW112436   3.143   0.051   1.733  0.3363 -0.6465  0.3941
  909SOL    HW212437   3.294   0.104   1.698 -0.1512  0.2443 -0.4026
  910SOL     OW12438   2.493   0.064   1.858 -0.8761 -0.6402 -0.1168
  910SOL    HW112439   2.502   0.065   1.758 -1.6735 -0.4084 -0.1899
  910SOL    HW212440   2.405   0.022   1.882  0.8062 -3.9811  0.5875
  911SOL     OW12441   3.580   8.339   2.450  0.5001 -0.5874 -0.1208
  911SOL    HW112442   3.535   8.251   2.461 -1.6641  0.6527  1.4268
  911SOL    HW212443   3.581   8.364   2.353  0.3296 -1.9074 -0.4715
  912SOL     OW12444   5.058   3.301   1.063  0.2644  0.3470  0.1429
  912SOL    HW112445   5.084   3.210   1.097  0.7351  0.2175 -0.5486
  912SOL    HW212446   5.053   3.365   1.139 -2.0327 -0.7016  0.9129
  913SOL     OW12447   4.131   9.037   2.819  0.4689  0.0155 -0.3719
  913SOL    HW112448   4.097   9.106   2.883  1.6605  0.6044 -0.3587
  913SOL    HW212449   4.054   8.985   2.782 -0.2793  0.1258  1.0189
  914SOL     OW12450   2.889   1.235   1.654 -0.3337 -0.1243 -0.5582
  914SOL    HW112451   2.815   1.172   1.677  0.1274 -0.0164  1.3146
  914SOL    HW212452   2.891   1.310   1.720  0.2171  0.9234 -1.7459
  915SOL     OW12453   3.582   8.580   0.254 -0.5207  0.1050 -0.6056
  915SOL    HW112454   3.582   8.484   0.230 -2.3808 -0.3110  0.8862
  915SOL    HW212455   3.676   8.612   0.268  0.1518 -1.2444 -1.9932
  916SOL     OW12456   3.724   2.690   1.530  0.0495  0.4549 -0.1337
  916SOL    HW112457   3.679   2.764   1.481  0.4534  0.8991  0.1588
  916SOL    HW212458   3.724   2.711   1.628 -2.3374 -1.2550  0.2689
  917SOL     OW12459   4.219   3.783   0.667  0.2904  0.5257 -0.5726
  917SOL    HW112460   4.286   3.779   0.741  1.6173 -1.9126 -1.8450
  917SOL    HW212461   4.159   3.704   0.673  0.8518 -0.0723 -2.4793
  918SOL     OW12462   4.298   3.242   0.427 -0.1837 -0.2588 -0.1408
  918SOL    HW112463   4.268   3.149   0.404 -0.4325  0.2542 -2.0046
  918SOL    HW212464   4.398   3.246   0.425 -0.1880 -0.3194 -0.8326
  919SOL     OW12465   3.289   0.250   2.218  0.3358 -0.4874  0.1997
  919SOL    HW112466   3.298   0.341   2.179  1.9296 -0.4717  0.5576
  919SOL    HW212467   3.294   0.255   2.318 -0.6823 -0.8541  0.2781
  920SOL     OW12468   4.024   1.408   0.364  0.1614 -0.1070 -0.1920
  920SOL    HW112469   4.031   1.308   0.368  0.8661 -0.1150 -1.4271
  920SOL    HW212470   3.992   1.443   0.453 -2.9582 -1.6569 -0.6196
  921SOL     OW12471   4.321   1.281   2.820 -0.2917 -0.3823 -0.0979
  921SOL    HW112472   4.325   1.181   2.828 -0.4920 -0.3708  0.1574
  921SOL    HW212473   4.287   1.320   2.906  0.5460 -0.0391  0.0852
  922SOL     OW12474   3.146   4.203   2.239 -0.1251  0.4267 -0.2171
  922SOL    HW112475   3.208   4.272   2.202 -1.1169  1.8181  0.6942
  922SOL    HW212476   3.057   4.243   2.256 -0.8549 -1.1933 -0.0883
  923SOL     OW12477   3.913   3.170   2.055 -0.4421 -0.0732 -0.6253
  923SOL    HW112478   3.934   3.260   2.092 -1.1229 -0.1668  0.0156
  923SOL    HW212479   3.936   3.167   1.957 -0.0380  0.6598 -0.5508
  924SOL     OW12480   3.469   4.997   1.693  0.2101  0.0535 -0.3921
  924SOL    HW112481   3.433   4.920   1.746 -0.5469 -0.5473 -1.7469
  924SOL    HW212482   3.556   4.970   1.652  0.2569  0.1389 -0.3480
  925SOL     OW12483   3.559   4.238   2.610 -0.1065 -0.3731 -0.4522
  925SOL    HW112484   3.628   4.298   2.650 -0.1086 -0.3006 -0.5598
  925SOL    HW212485   3.516   4.184   2.683 -1.3349  1.0145 -0.1155
  926SOL     OW12486   2.819   0.327   1.656  0.0666 -0.2124 -0.2035
  926SOL    HW112487   2.796   0.420   1.626  0.5021  0.6488  2.0032
  926SOL    HW212488   2.909   0.303   1.620 -0.6849 -0.3741 -2.0161
  927SOL     OW12489   3.928   3.939   1.151 -0.6015  0.2893 -0.5956
  927SOL    HW112490   3.955   3.938   1.055 -0.6840 -1.3529 -0.6257
  927SOL    HW212491   4.007   3.914   1.208 -0.3586  1.9616 -0.1668
  928SOL     OW12492   3.779   3.624   1.482 -0.4429 -0.2889  0.2276
  928SOL    HW112493   3.789   3.723   1.478  0.0221 -0.1656  3.2810
  928SOL    HW212494   3.684   3.600   1.500 -0.8110 -0.4606 -1.9025
  929SOL     OW12495   4.023   2.155   0.776 -0.1755 -0.3662  1.3691
  929SOL    HW112496   4.022   2.082   0.708  0.6754  2.9427 -2.3341
  929SOL    HW212497   4.078   2.126   0.854 -0.5549 -3.9670  0.3974
  930SOL     OW12498   2.817   8.445   2.226  0.2493 -0.2852  0.9316
  930SOL    HW112499   2.888   8.482   2.287  2.2117 -0.1831 -1.3630
  930SOL    HW212500   2.777   8.519   2.172  1.2590 -0.8782 -0.6719
  931SOL     OW12501   2.819   7.459   2.356 -0.6389  0.6346  0.0720
  931SOL    HW112502   2.735   7.425   2.314 -0.7562 -0.4639  1.1512
  931SOL    HW212503   2.812   7.558   2.369  0.1035  1.3072 -4.0400
  932SOL     OW12504   2.625   5.216   0.773  0.6318  0.4353 -0.1447
  932SOL    HW112505   2.699   5.277   0.800  0.5740  0.0544  0.9090
  932SOL    HW212506   2.663   5.127   0.745  0.5035 -0.2324  1.7351
  933SOL     OW12507   2.984   1.897   1.425 -0.1943  0.0777 -0.3744
  933SOL    HW112508   2.986   1.899   1.525 -1.3710 -0.8778 -0.3154
  933SOL    HW212509   3.011   1.805   1.394 -0.7942  0.0793 -0.9008
  934SOL     OW12510   3.816   2.479   1.375 -0.7960  0.4657  0.2575
  934SOL    HW112511   3.810   2.384   1.406 -0.2063  0.6760  1.0097
  934SOL    HW212512   3.762   2.537   1.436 -1.9145  0.4951 -0.7369
  935SOL     OW12513   3.117   3.172   2.314 -0.5460 -0.3140  0.5341
  935SOL    HW112514   3.068   3.222   2.385 -0.9954  0.9566 -0.6558
  935SOL    HW212515   3.216   3.179   2.330 -0.6559 -0.2929  1.2032
  936SOL     OW12516   4.808   3.353   1.482  0.3543  0.1547 -0.6840
  936SOL    HW112517   4.815   3.328   1.579 -0.5948 -2.6465 -1.2762
  936SOL    HW212518   4.821   3.452   1.472  2.6462  0.2211  2.0407
  937SOL     OW12519   3.122   9.035   1.056 -0.7887 -0.3267 -0.1882
  937SOL    HW112520   3.152   8.946   1.023 -2.2912 -0.6897 -0.6213
  937SOL    HW212521   3.051   9.071   0.996  0.3033  1.4984 -0.4276
  938SOL     OW12522   3.969   4.162   2.657  0.0029 -0.4289  0.6936
  938SOL    HW112523   4.026   4.130   2.732  0.9882  0.3390  0.2855
  938SOL    HW212524   4.027   4.191   2.581 -0.9562 -0.3761 -0.0328
  939SOL     OW12525   3.676   8.565   1.002 -0.2895  0.2995 -0.0047
  939SOL    HW112526   3.730   8.481   1.002 -0.6179  0.0625 -2.7627
  939SOL    HW212527   3.586   8.547   1.043 -0.4198 -0.7550 -0.7325
  940SOL     OW12528   4.398   2.297   0.052  0.7917  0.0972  0.2312
  940SOL    HW112529   4.316   2.351   0.069  0.8278 -0.1742  1.3115
  940SOL    HW212530   4.373   2.215   0.000  0.3811  0.0100  0.5636
  941SOL     OW12531   2.829   8.182   0.779 -0.1249  0.3105  0.9718
  941SOL    HW112532   2.902   8.119   0.806 -0.9951 -1.2232 -0.1189
  941SOL    HW212533   2.867   8.255   0.722  0.6585 -0.1614  0.8772
  942SOL     OW12534   4.382   2.389   0.994 -0.1997  0.0813  0.6190
  942SOL    HW112535   4.472   2.370   1.034 -0.7431 -1.1121  1.2852
  942SOL    HW212536   4.311   2.344   1.048 -1.1012 -0.0524 -0.6598
  943SOL     OW12537   3.837   1.884   1.833 -0.0273 -0.0490 -0.8086
  943SOL    HW112538   3.844   1.980   1.805 -1.4120  0.1738 -0.4187
  943SOL    HW212539   3.929   1.846   1.844  0.5669  1.7229  0.7047
  944SOL     OW12540   3.743   1.800   0.844  0.4868 -0.2568  0.0715
  944SOL    HW112541   3.705   1.711   0.817 -1.1365  0.6371 -0.6338
  944SOL    HW212542   3.671   1.858   0.881  1.7537  0.3899  1.6042
  945SOL     OW12543   3.350   8.475   0.408 -0.0184  0.0772  0.4607
  945SOL    HW112544   3.291   8.394   0.404  0.1539 -0.1535  2.2123
  945SOL    HW212545   3.435   8.455   0.359 -0.4494 -0.3963 -0.1104
  946SOL     OW12546   3.139   1.724   2.140  0.3899 -0.7108 -0.4091
  946SOL    HW112547   3.220   1.718   2.082 -0.3657  1.2882 -1.7168
  946SOL    HW212548   3.081   1.799   2.109 -1.0374 -0.8978  1.6944
  947SOL     OW12549   3.311   4.781   1.771 -0.7056  0.0608 -0.0848
  947SOL    HW112550   3.224   4.794   1.725 -1.9858 -3.3514  1.1713
  947SOL    HW212551   3.340   4.685   1.761  1.7416  0.5951  1.4213
  948SOL     OW12552   4.726   3.872   0.474  0.0814 -0.3387  0.5126
  948SOL    HW112553   4.734   3.937   0.550  1.3770  0.3008 -0.1488
  948SOL    HW212554   4.807   3.813   0.472  1.3113  1.3255 -1.8596
  949SOL     OW12555   3.040   3.294   1.292 -0.1066  0.5391 -0.0734
  949SOL    HW112556   3.127   3.245   1.297  0.1725  1.1023  0.5467
  949SOL    HW212557   2.971   3.234   1.250  0.5444  0.0553 -0.4697
  950SOL     OW12558   2.856   3.498   0.314 -0.4025  0.0948 -0.0649
  950SOL    HW112559   2.951   3.493   0.345 -0.0712  2.7729 -0.4983
  950SOL    HW212560   2.797   3.518   0.392 -0.3327  0.5513 -0.1248
  951SOL     OW12561   3.295   1.369   0.146 -0.6634  0.5851  0.3990
  951SOL    HW112562   3.326   1.459   0.116 -0.0093  0.3520  0.3648
  951SOL    HW212563   3.292   1.308   0.066  3.2816 -0.6797  1.0879
  952SOL     OW12564   3.794   1.546   0.254  0.2979 -0.5057  0.4557
  952SOL    HW112565   3.818   1.478   0.323  1.2277 -2.0392 -1.3414
  952SOL    HW212566   3.877   1.579   0.209 -0.4144 -0.7538 -1.0671
  953SOL     OW12567   3.206   2.958   0.101  0.3328  0.2579 -0.4263
  953SOL    HW112568   3.263   2.893   0.151  1.2741  0.2140 -1.5315
  953SOL    HW212569   3.212   2.940   0.003 -2.0024 -0.0771 -0.5492
  954SOL     OW12570   3.017   9.370   0.118  0.2276  0.3852 -0.2694
  954SOL    HW112571   2.927   9.363   0.074  0.7153  2.9506 -1.7988
  954SOL    HW212572   3.081   9.307   0.075 -0.3741 -0.1089 -0.4391
  955SOL     OW12573   3.778   2.192   1.820  0.1419  0.0813  0.2834
  955SOL    HW112574   3.745   2.281   1.850  1.0758  0.3023  0.6562
  955SOL    HW212575   3.710   2.150   1.759  1.1737  2.5114 -2.6349
  956SOL     OW12576   3.723   9.537   1.889  0.1407 -0.0679 -0.9191
  956SOL    HW112577   3.815   9.531   1.928 -1.3546 -0.5079  2.6791
  956SOL    HW212578   3.691   9.632   1.894 -0.4137 -0.2898 -0.1890
  957SOL     OW12579   3.354   8.779   2.457 -0.2056  0.2163  0.2505
  957SOL    HW112580   3.400   8.728   2.383 -2.7200 -1.4122 -0.2313
  957SOL    HW212581   3.354   8.877   2.434 -0.3161 -0.1897 -1.5654
  958SOL     OW12582   3.014   3.286   0.654 -0.4525  0.2081  0.2118
  958SOL    HW112583   2.964   3.348   0.716 -0.5515  0.7087 -0.3692
  958SOL    HW212584   2.949   3.243   0.591 -0.3354 -0.2293  0.3876
  959SOL     OW12585   3.070   3.937   2.184 -0.2270  0.6735  0.4060
  959SOL    HW112586   2.991   3.922   2.244 -0.3033  2.0510  0.6538
  959SOL    HW212587   3.109   4.027   2.201 -1.0238  1.6440 -2.4728
  960SOL     OW12588   3.240   3.023   1.845 -0.7836 -0.7478 -0.0652
  960SOL    HW112589   3.240   3.089   1.919 -2.6120 -1.9005  0.9857
  960SOL    HW212590   3.227   3.071   1.758  0.9024  0.5538  0.3633
  961SOL     OW12591   2.845   5.039   2.135 -0.0965  0.5685  0.2227
  961SOL    HW112592   2.746   5.026   2.135 -0.2868  1.9389 -0.2782
  961SOL    HW212593   2.883   5.012   2.223 -1.0077  0.6950  0.6512
  962SOL     OW12594   3.264   3.843   2.555  0.6081 -0.5955 -0.6388
  962SOL    HW112595   3.295   3.930   2.592 -0.3701  0.4845 -2.3451
  962SOL    HW212596   3.307   3.827   2.466  0.1445 -1.4681 -0.7126
  963SOL     OW12597   3.986   9.066   1.240 -0.4735 -0.3204  0.2511
  963SOL    HW112598   4.049   9.136   1.206 -2.4489  0.9131 -0.9085
  963SOL    HW212599   4.018   8.976   1.209  1.1130  0.2054  0.2904
  964SOL     OW12600   3.189   2.601   2.554  0.1078  0.5088  0.3357
  964SOL    HW112601   3.233   2.531   2.610 -1.0431 -0.5203 -0.0158
  964SOL    HW212602   3.133   2.557   2.484 -2.4453  1.7326  1.5175
  965SOL     OW12603   2.437   7.469   0.955  0.7388  0.2200  0.2294
  965SOL    HW112604   2.427   7.564   0.986 -4.6506 -0.4326  1.0476
  965SOL    HW212605   2.492   7.419   1.022  3.1714  2.5601  0.0874
  966SOL     OW12606   3.973   8.640   1.305 -0.2591  0.2462  0.5974
  966SOL    HW112607   4.049   8.610   1.363  0.4901  0.5113 -0.2480
  966SOL    HW212608   3.928   8.560   1.266  1.2075  0.1495 -0.9676
  967SOL     OW12609   3.212   4.859   1.417 -0.4805 -0.0673 -0.5129
  967SOL    HW112610   3.127   4.809   1.403 -0.2984 -0.3774 -0.5158
  967SOL    HW212611   3.194   4.942   1.470 -0.9101  0.2801 -1.1964
  968SOL     OW12612   2.292   9.302   2.103  0.3170  0.4240 -0.3332
  968SOL    HW112613   2.308   9.232   2.033  1.6573  0.0266  0.3606
  968SOL    HW212614   2.227   9.370   2.067 -2.4516 -2.1085 -0.3789
  969SOL     OW12615   2.632   9.430   1.566 -0.1142 -0.5228 -0.1972
  969SOL    HW112616   2.644   9.355   1.631 -1.0918  1.0427  1.8541
  969SOL    HW212617   2.637   9.517   1.615  1.7511  0.8086 -2.6425
  970SOL     OW12618   3.071   9.574   2.237 -0.4391 -0.4886 -0.3540
  970SOL    HW112619   3.130   9.647   2.271 -0.8793 -0.9122  1.4068
  970SOL    HW212620   3.067   9.577   2.137  0.7157  0.9657 -0.3691
  971SOL     OW12621   2.359   8.219   1.690 -0.8418 -0.0858  0.5215
  971SOL    HW112622   2.315   8.140   1.731 -0.7556  0.6386  2.0791
  971SOL    HW212623   2.290   8.280   1.652 -0.8539 -1.3314 -1.5103
  972SOL     OW12624   4.219   2.505   0.119 -0.7706  0.4662  0.0049
  972SOL    HW112625   4.154   2.525   0.046  1.3486 -0.5818 -2.2435
  972SOL    HW212626   4.264   2.589   0.148 -0.7636  0.7217 -0.7381
  973SOL     OW12627   3.414   8.742   1.555 -0.0166 -0.1313 -0.3303
  973SOL    HW112628   3.507   8.752   1.520  0.1367 -1.8508 -0.4239
  973SOL    HW212629   3.400   8.805   1.631  0.7230  1.2192 -1.2942
  974SOL     OW12630   3.188   0.314   1.034  0.2272  0.7284  0.3545
  974SOL    HW112631   3.257   0.347   1.098  1.2974 -0.0040 -0.4160
  974SOL    HW212632   3.170   0.217   1.050  0.6041  0.5073 -0.5526
  975SOL     OW12633   4.087   4.143   0.258 -0.3161  0.2978 -0.6460
  975SOL    HW112634   4.037   4.069   0.303  1.8877 -0.6968  0.2771
  975SOL    HW212635   4.081   4.226   0.314  1.5513 -0.6519  1.0184
  976SOL     OW12636   3.429   8.531   1.983 -0.2050 -0.3830 -0.1912
  976SOL    HW112637   3.396   8.623   2.003 -0.1076 -0.5602  0.7860
  976SOL    HW212638   3.360   8.481   1.930  0.1788  0.5992 -1.6590
  977SOL     OW12639   3.784   0.633   1.351 -0.5935  0.0832 -0.1889
  977SOL    HW112640   3.883   0.628   1.335 -0.5351  0.8864 -0.0471
  977SOL    HW212641   3.737   0.635   1.263 -0.3191  3.3648 -0.2898
  978SOL     OW12642   4.320   2.590   1.866 -0.3601  0.1279 -0.3028
  978SOL    HW112643   4.247   2.611   1.931  0.4777 -1.4369  1.1688
  978SOL    HW212644   4.282   2.542   1.787 -1.1013  0.4481 -0.1438
  979SOL     OW12645   3.403   9.343   1.170  0.5257 -0.1209 -0.0648
  979SOL    HW112646   3.409   9.334   1.071 -0.8797 -1.7664 -0.0307
  979SOL    HW212647   3.323   9.397   1.195  0.4121 -0.3901  0.1756
  980SOL     OW12648   3.768   8.674   1.447 -0.0973 -0.4540 -0.4372
  980SOL    HW112649   3.852   8.672   1.393  0.0655 -2.2883 -0.1200
  980SOL    HW212650   3.732   8.768   1.449  1.2764  0.1055 -1.5788
  981SOL     OW12651   2.364   6.435   0.965 -0.1276  0.2675  0.7604
  981SOL    HW112652   2.308   6.409   0.887 -0.6588  0.3643  1.1058
  981SOL    HW212653   2.335   6.384   1.046 -1.1508  1.9023  1.4319
  982SOL     OW12654   2.823   5.777   0.466  0.0263  0.8302 -0.3763
  982SOL    HW112655   2.776   5.815   0.545 -1.2836  0.9491 -1.1963
  982SOL    HW212656   2.854   5.684   0.487 -1.6538  0.2831 -0.2119
  983SOL     OW12657   3.588   1.031   1.425 -0.1514  0.2660  0.2640
  983SOL    HW112658   3.601   0.935   1.403 -1.6331  0.5756 -2.1769
  983SOL    HW212659   3.490   1.049   1.436 -0.2097  2.2092 -2.9920
  984SOL     OW12660   2.694   9.230   2.290  0.0288 -0.2781  0.0075
  984SOL    HW112661   2.628   9.304   2.271  0.3019  0.4435  1.7816
  984SOL    HW212662   2.779   9.249   2.241 -0.5169 -0.3671 -0.9935
  985SOL     OW12663   3.249   0.095   0.097 -0.0410  0.2116 -0.3830
  985SOL    HW112664   3.247  -0.005   0.091  0.7885  0.1775 -0.1188
  985SOL    HW212665   3.342   0.128   0.082 -0.3166  0.9514 -0.5094
  986SOL     OW12666   3.547   1.232   2.317  0.2754  0.1681  0.1498
  986SOL    HW112667   3.575   1.309   2.373 -0.3990  0.3484  0.2401
  986SOL    HW212668   3.531   1.152   2.375 -0.5394  0.3871  0.2359
  987SOL     OW12669   3.003   9.432   1.008 -0.5620 -0.3389  0.1260
  987SOL    HW112670   3.041   9.398   0.922 -0.7159 -0.3792  0.0735
  987SOL    HW212671   2.905   9.449   0.997 -0.3185  0.9788 -0.1097
  988SOL     OW12672   2.512   4.770   2.223  0.3485 -0.3145 -0.0744
  988SOL    HW112673   2.585   4.702   2.223  1.0929  0.4869  0.6446
  988SOL    HW212674   2.436   4.736   2.279 -0.1462 -1.4570 -1.3907
  989SOL     OW12675   2.222   6.308   0.732  0.3430  0.5394 -0.4657
  989SOL    HW112676   2.306   6.270   0.693  1.4568  3.9104 -1.5260
  989SOL    HW212677   2.182   6.373   0.667 -2.6512 -0.3850  0.3968
  990SOL     OW12678   3.336   3.703   0.205 -0.1076 -0.3083 -0.1590
  990SOL    HW112679   3.286   3.788   0.218  0.4714  0.2681 -1.6666
  990SOL    HW212680   3.272   3.629   0.183 -0.3544  0.2729 -1.3750
  991SOL     OW12681   3.150   8.869   0.556  0.6891  0.7064  0.5431
  991SOL    HW112682   3.198   8.787   0.589 -0.6856 -0.5917 -0.5648
  991SOL    HW212683   3.074   8.841   0.498  1.3017  2.8388 -1.3741
  992SOL     OW12684   3.362   5.123   0.675 -0.3239  0.4082  0.5566
  992SOL    HW112685   3.317   5.063   0.741 -0.0190 -0.4521 -0.0082
  992SOL    HW212686   3.420   5.188   0.723  1.0415 -1.1586  1.0827
  993SOL     OW12687   4.263   2.167   0.496  0.0855 -0.6574 -0.4464
  993SOL    HW112688   4.236   2.214   0.412  1.5033  2.3920  0.7426
  993SOL    HW212689   4.362   2.154   0.497  0.3808  1.4071  1.7293
  994SOL     OW12690   3.724   3.459   0.648 -0.2231  0.0993 -0.1024
  994SOL    HW112691   3.634   3.484   0.612  1.2001  1.6578 -2.7464
  994SOL    HW212692   3.781   3.425   0.574  1.7191  0.0740  1.3628
  995SOL     OW12693   3.101   3.368   1.540  0.2101 -0.6577 -0.2981
  995SOL    HW112694   3.130   3.463   1.532 -1.3022 -0.0844  0.7282
  995SOL    HW212695   3.064   3.336   1.453 -0.6144  0.1763 -0.2679
  996SOL     OW12696   3.400   8.587   2.672  0.1666  0.5528 -0.0390
  996SOL    HW112697   3.445   8.610   2.586  1.5938 -1.4263  0.1485
  996SOL    HW212698   3.307   8.554   2.654 -0.0722  1.5650 -0.6854
  997SOL     OW12699   3.442   9.236   2.628  0.2479 -0.6973 -0.1081
  997SOL    HW112700   3.436   9.167   2.700 -3.2318 -0.6776 -0.2740
  997SOL    HW212701   3.354   9.283   2.620  2.2529  3.1117 -0.6842
  998SOL     OW12702   2.910   9.462   1.422  0.1433  0.3869  0.3254
  998SOL    HW112703   2.834   9.417   1.468  1.1546 -1.3308  0.3763
  998SOL    HW212704   2.996   9.417   1.447  0.7994 -0.1402 -2.6280
  999SOL     OW12705   2.883   5.283   1.956  0.5044  0.5917 -0.1320
  999SOL    HW112706   2.899   5.193   1.997 -0.3683  0.3957 -0.1962
  999SOL    HW212707   2.954   5.346   1.985  0.5214  0.1649  0.7897
 1000SOL     OW12708   2.247   6.680   0.850 -0.5835 -0.3719 -0.0872
 1000SOL    HW112709   2.236   6.617   0.772 -0.0701 -1.0397  0.3687
 1000SOL    HW212710   2.312   6.640   0.915  0.3422  0.9821 -0.1562
 1001SOL     OW12711   4.556   3.513   0.651 -0.1677 -0.3036 -0.2921
 1001SOL    HW112712   4.558   3.514   0.552  0.9067 -0.8870 -0.2810
 1001SOL    HW212713   4.477   3.461   0.683 -1.4503  1.2589 -0.8265
 1002SOL     OW12714   3.254   9.832   0.081 -0.4783  0.0003 -0.1159
 1002SOL    HW112715   3.184   9.786   0.135 -1.6156  1.9908  0.1524
 1002SOL    HW212716   3.264   9.787  -0.007 -0.2268 -1.8847  0.8563
 1003SOL     OW12717   2.944   8.556   1.290  0.8980  0.3973  0.1015
 1003SOL    HW112718   2.939   8.653   1.315 -0.5080  0.4208 -0.2101
 1003SOL    HW212719   3.008   8.544   1.214  1.5807  0.9807  0.5742
 1004SOL     OW12720   2.832   7.825   2.659  0.3161 -0.1832 -0.3221
 1004SOL    HW112721   2.812   7.793   2.566 -2.2925  0.2045  0.0549
 1004SOL    HW212722   2.774   7.904   2.680  1.8827  0.6060  1.1451
 1005SOL     OW12723   4.382   3.575   1.008  0.0012  0.2726 -0.0071
 1005SOL    HW112724   4.440   3.519   0.949 -0.3093  1.3773 -1.3956
 1005SOL    HW212725   4.286   3.554   0.990 -0.0798 -0.9692  1.7092
 1006SOL     OW12726   2.369   5.437   1.094  0.0029 -0.0885 -0.2752
 1006SOL    HW112727   2.298   5.420   1.162  0.6075  0.2341  0.4332
 1006SOL    HW212728   2.448   5.379   1.112 -0.3760 -1.0271 -1.5322
 1007SOL     OW12729   3.049   8.579   1.552  0.4923 -0.1152  0.0698
 1007SOL    HW112730   3.136   8.629   1.556  0.2695  0.2466  0.3653
 1007SOL    HW212731   3.022   8.568   1.456 -0.7456  2.5490  0.0782
 1008SOL     OW12732   3.486   1.880   0.923  0.4096 -0.0208 -0.2947
 1008SOL    HW112733   3.421   1.927   0.984  1.5525  1.8173 -0.4726
 1008SOL    HW212734   3.454   1.888   0.829 -0.1161 -0.8003 -0.1843
 1009SOL     OW12735   2.940   9.012   1.639  0.3668  0.0371 -0.7023
 1009SOL    HW112736   2.862   8.959   1.672  0.4341 -0.1170 -0.7864
 1009SOL    HW212737   3.015   9.006   1.705  0.7204 -0.7824 -1.1611
 1010SOL     OW12738   3.204   1.416   1.787  0.5178  0.0154 -0.6944
 1010SOL    HW112739   3.187   1.471   1.705  1.5702 -0.1522 -1.0365
 1010SOL    HW212740   3.293   1.371   1.779  0.4442 -0.3326  0.3616
 1011SOL     OW12741   3.803   0.115   2.186 -0.1967  0.4687  0.1665
 1011SOL    HW112742   3.788   0.189   2.120 -0.0203 -0.2648 -0.7092
 1011SOL    HW212743   3.765   0.030   2.149  1.8975 -0.4274  0.0193
 1012SOL     OW12744   2.746   9.775   1.672 -0.6246 -0.1220  0.1760
 1012SOL    HW112745   2.734   9.805   1.767 -1.5952  1.8348 -0.5207
 1012SOL    HW212746   2.843   9.779   1.648 -0.8248  4.1963 -0.3572
 1013SOL     OW12747   4.248   9.192   2.449 -0.0999  0.3388 -0.3077
 1013SOL    HW112748   4.243   9.285   2.483  0.9290  0.3048 -0.0255
 1013SOL    HW212749   4.166   9.170   2.397  0.1278  1.7635 -1.2901
 1014SOL     OW12750   3.784   2.641   2.103  0.2972  0.5240  0.5891
 1014SOL    HW112751   3.884   2.653   2.100  0.1548  1.5589 -0.4059
 1014SOL    HW212752   3.762   2.544   2.107  1.3304  0.2433 -0.3869
 1015SOL     OW12753   2.708   8.440   1.528  0.0870  0.2002 -0.7666
 1015SOL    HW112754   2.732   8.387   1.447 -1.5186 -0.8981 -0.5542
 1015SOL    HW212755   2.701   8.537   1.505  0.9474  0.0557 -1.6357
 1016SOL     OW12756   3.011   7.439   1.830 -0.0717  0.6267 -0.1988
 1016SOL    HW112757   2.995   7.508   1.759 -1.2357  0.4656 -0.1074
 1016SOL    HW212758   3.038   7.353   1.786  0.2245  0.8133 -0.3847
 1017SOL     OW12759   2.822   5.081   2.781 -0.2194  0.0224  0.3232
 1017SOL    HW112760   2.893   5.019   2.747 -0.8781 -0.3587 -0.3854
 1017SOL    HW212761   2.824   5.166   2.729  1.0085  0.8093  1.6256
 1018SOL     OW12762   2.427   5.893   0.702  0.2592 -0.1993 -0.5270
 1018SOL    HW112763   2.398   5.987   0.715  0.8783  0.1886 -1.8351
 1018SOL    HW212764   2.403   5.838   0.782 -0.0139  1.0902  0.2731
 1019SOL     OW12765   2.737   0.216   1.877  0.4060 -0.1153 -0.2947
 1019SOL    HW112766   2.644   0.180   1.869  1.0894 -2.5035  1.9456
 1019SOL    HW212767   2.765   0.256   1.789 -2.1158 -0.8172 -1.4542
 1020SOL     OW12768   2.646   6.519   0.114  0.0912  0.2595 -0.0988
 1020SOL    HW112769   2.673   6.587   0.183  0.4827 -2.2312  2.3243
 1020SOL    HW212770   2.622   6.434   0.160 -1.8815 -0.7999 -2.9626
 1021SOL     OW12771   3.214   1.303   0.858 -0.4070 -0.1567  0.3552
 1021SOL    HW112772   3.182   1.273   0.768 -0.2957 -1.0211  0.5946
 1021SOL    HW212773   3.267   1.387   0.848  0.1722 -0.6076 -0.4762
 1022SOL     OW12774   2.714   8.823   1.739 -0.6595  0.3855 -0.7335
 1022SOL    HW112775   2.692   8.788   1.648 -3.1749  0.6253 -0.2646
 1022SOL    HW212776   2.707   8.748   1.805 -0.3859  0.5376 -0.5369
 1023SOL     OW12777   3.494   0.966   0.471 -0.2780  0.4332  0.1639
 1023SOL    HW112778   3.502   0.890   0.536 -2.0352  0.3238  0.2999
 1023SOL    HW212779   3.517   0.933   0.379 -0.9845 -0.2697  0.2272
 1024SOL     OW12780   3.875   0.372   2.347 -0.6517 -0.5566  0.8461
 1024SOL    HW112781   3.804   0.332   2.404 -1.7368  0.5618  0.3086
 1024SOL    HW212782   3.922   0.299   2.296 -1.7425 -1.2555  0.8285
 1025SOL     OW12783   4.039   1.347   1.474  0.1855  0.0870  0.1691
 1025SOL    HW112784   4.042   1.297   1.388 -2.7733 -0.4225  0.3138
 1025SOL    HW212785   4.077   1.291   1.547  0.9556 -0.2117 -0.4602
 1026SOL     OW12786   2.717   8.743   1.488 -0.4179  0.4809  0.3167
 1026SOL    HW112787   2.793   8.755   1.424 -1.3323 -1.4933 -1.2085
 1026SOL    HW212788   2.644   8.807   1.464 -0.8478 -0.4019 -0.7880
 1027SOL     OW12789   3.046   2.753   0.659 -0.1163  0.8058  0.3215
 1027SOL    HW112790   2.983   2.678   0.641  2.3725 -1.1384 -0.6067
 1027SOL    HW212791   3.037   2.821   0.586  0.4949 -0.6005 -1.1008
 1028SOL     OW12792   2.535   7.526   1.675 -0.0258  0.1750 -0.2845
 1028SOL    HW112793   2.519   7.624   1.662 -0.0594  0.3801  1.2023
 1028SOL    HW212794   2.585   7.512   1.761  0.5630 -1.0644 -0.8244
 1029SOL     OW12795   3.282   8.802   2.035  0.4976 -0.3183  0.4610
 1029SOL    HW112796   3.231   8.860   1.971  1.0123 -2.3925 -1.8714
 1029SOL    HW212797   3.351   8.857   2.081 -1.0127  1.5810  0.5373
 1030SOL     OW12798   2.691   4.573   2.221 -0.2804 -0.1164  0.2537
 1030SOL    HW112799   2.752   4.529   2.155  0.0826  1.5329 -0.5485
 1030SOL    HW212800   2.715   4.544   2.314  1.2152 -0.1031 -0.1233
 1031SOL     OW12801   2.907   7.656   0.965  0.6720 -0.3803 -0.1047
 1031SOL    HW112802   2.864   7.709   1.038  0.3222 -1.3213  0.3770
 1031SOL    HW212803   2.971   7.715   0.915  0.0036  0.6031  0.1669
  10.00000  10.00000   2.86000
