chitosan Film  in water:acetic acid 2%
27904
    1CHTO  H203    1   5.989   6.535   2.651
    1CHTO   O82    2   6.048   6.498   2.588
    1CHTO  C123    3   6.165   6.446   2.654
    1CHTO  H227    4   6.201   6.522   2.726
    1CHTO   O77    5   6.115   6.329   2.725
    1CHTO  C118    6   6.213   6.269   2.811
    1CHTO  H222    7   6.253   6.344   2.880
    1CHTO  C125    8   6.136   6.160   2.895
    1CHTO   O84    9   6.216   6.111   3.003
    1CHTO  H205   10   6.228   6.178   3.067
    1CHTO  C114   11   6.326   6.210   2.725
    1CHTO  H218   12   6.285   6.132   2.661
    1CHTO  C116   13   6.389   6.319   2.632
    1CHTO  H220   14   6.451   6.388   2.694
    1CHTO   O79   15   6.482   6.255   2.542
    1CHTO  H201   16   6.527   6.319   2.491
    1CHTO  C120   17   6.279   6.402   2.554
    1CHTO  H224   18   6.236   6.334   2.477
    1CHTO   N21   19   6.338   6.518   2.482
    1CHTO  H211   20   6.280   6.541   2.395
    1CHTO  H212   21   6.346   6.604   2.547
    1CHTO   O75   22   6.421   6.155   2.817
    1CHTO  C112   23   6.470   6.001   2.785
    1CHTO  H216   24   6.458   5.981   2.677
    1CHTO   O73   25   6.390   5.913   2.865
    1CHTO  C113   26   6.423   5.774   2.853
    1CHTO  H217   27   6.416   5.745   2.746
    1CHTO  C124   28   6.319   5.690   2.929
    1CHTO   O83   29   6.311   5.720   3.069
    1CHTO  H204   30   6.391   5.693   3.111
    1CHTO  C109   31   6.568   5.747   2.904
    1CHTO  H213   32   6.569   5.773   3.011
    1CHTO  C110   33   6.668   5.838   2.826
    1CHTO  H214   34   6.674   5.800   2.724
    1CHTO   O78   35   6.798   5.824   2.886
    1CHTO  H200   36   6.862   5.870   2.836
    1CHTO  C111   37   6.623   5.987   2.824
    1CHTO  H215   38   6.634   6.028   2.926
    1CHTO   N19   39   6.706   6.072   2.735
    1CHTO  H207   40   6.674   6.174   2.740
    1CHTO  H208   41   6.699   6.036   2.633
    1CHTO   O74   42   6.601   5.606   2.888
    1CHTO  C115   43   6.692   5.547   3.008
    1CHTO  H219   44   6.745   5.626   3.061
    1CHTO   O76   45   6.605   5.479   3.116
    1CHTO  C122   46   6.552   5.352   3.075
    1CHTO  H226   47   6.499   5.367   2.981
    1CHTO  C126   48   6.443   5.307   3.179
    1CHTO   O85   49   6.492   5.301   3.313
    1CHTO  H206   50   6.423   5.274   3.370
    1CHTO  C121   51   6.666   5.245   3.056
    1CHTO  H225   52   6.677   5.187   3.151
    1CHTO   O81   53   6.624   5.152   2.956
    1CHTO  H202   54   6.549   5.104   2.984
    1CHTO  C119   55   6.805   5.310   3.022
    1CHTO  H223   56   6.845   5.336   3.120
    1CHTO  C117   57   6.797   5.447   2.943
    1CHTO  H221   58   6.766   5.439   2.839
    1CHTO   N20   59   6.933   5.510   2.937
    1CHTO  H209   60   6.929   5.601   2.879
    1CHTO  H210   61   7.003   5.442   2.892
    1CHTO   O80   62   6.918   5.201   2.969
    1CHTO  C103   63   6.906   5.131   2.818
    1CHTO  H190   64   6.844   5.041   2.822
    1CHTO  C101   65   6.857   5.220   2.695
    1CHTO  H188   66   6.909   5.316   2.698
    1CHTO   O68   67   6.704   5.245   2.705
    1CHTO  H168   68   6.685   5.293   2.784
    1CHTO   C99   69   6.890   5.149   2.554
    1CHTO  H186   70   6.830   5.056   2.546
    1CHTO   N17   71   6.857   5.234   2.434
    1CHTO  H174   72   6.754   5.265   2.438
    1CHTO  H175   73   6.877   5.178   2.344
    1CHTO   C97   74   7.038   5.104   2.552
    1CHTO  H184   75   7.102   5.193   2.555
    1CHTO   O64   76   7.063   5.017   2.664
    1CHTO  C104   77   7.054   5.083   2.791
    1CHTO  H191   78   7.121   5.169   2.795
    1CHTO  C108   79   7.102   4.986   2.900
    1CHTO   O71   80   7.238   4.944   2.878
    1CHTO  H171   81   7.242   4.889   2.802
    1CHTO   O62   82   7.068   5.020   2.439
    1CHTO   C91   83   7.189   5.052   2.367
    1CHTO  H178   84   7.201   5.160   2.369
    1CHTO   C92   85   7.165   5.012   2.218
    1CHTO  H179   86   7.063   5.040   2.187
    1CHTO   O66   87   7.253   5.092   2.137
    1CHTO  H166   88   7.233   5.080   2.046
    1CHTO   C93   89   7.195   4.861   2.188
    1CHTO  H180   90   7.198   4.852   2.078
    1CHTO   N16   91   7.088   4.766   2.230
    1CHTO  H172   92   7.050   4.711   2.145
    1CHTO  H173   93   7.008   4.819   2.280
    1CHTO   C94   94   7.337   4.819   2.245
    1CHTO  H181   95   7.330   4.733   2.312
    1CHTO   O61   96   7.401   4.924   2.321
    1CHTO   C95   97   7.319   4.981   2.424
    1CHTO  H182   98   7.289   4.901   2.493
    1CHTO  C106   99   7.407   5.080   2.509
    1CHTO   O69  100   7.514   5.012   2.575
    1CHTO  H169  101   7.576   4.981   2.512
    1CHTO   O63  102   7.429   4.786   2.124
    1CHTO   C96  103   7.535   4.680   2.159
    1CHTO  H183  104   7.531   4.660   2.266
    1CHTO   C98  105   7.681   4.722   2.124
    1CHTO  H185  106   7.696   4.829   2.143
    1CHTO   O67  107   7.770   4.654   2.214
    1CHTO  H167  108   7.758   4.684   2.302
    1CHTO  C102  109   7.725   4.683   1.975
    1CHTO  H189  110   7.833   4.703   1.970
    1CHTO   N18  111   7.666   4.766   1.866
    1CHTO  H176  112   7.744   4.815   1.809
    1CHTO  H177  113   7.599   4.841   1.907
    1CHTO  C105  114   7.701   4.531   1.953
    1CHTO  H192  115   7.670   4.511   1.851
    1CHTO   O65  116   7.606   4.468   2.041
    1CHTO  C100  117   7.493   4.547   2.082
    1CHTO  H187  118   7.438   4.575   1.991
    1CHTO  C107  119   7.398   4.458   2.167
    1CHTO   O70  120   7.462   4.408   2.285
    1CHTO  H170  121   7.527   4.344   2.262
    1CHTO   O57  122   7.843   4.469   1.973
    1CHTO   C85  123   7.863   4.329   1.948
    1CHTO  H157  124   7.789   4.299   1.871
    1CHTO   C83  125   7.826   4.248   2.076
    1CHTO  H155  126   7.721   4.263   2.097
    1CHTO   O56  127   7.898   4.300   2.190
    1CHTO  H135  128   7.990   4.286   2.180
    1CHTO   C81  129   7.850   4.097   2.049
    1CHTO  H153  130   7.791   4.069   1.961
    1CHTO   N14  131   7.798   4.009   2.157
    1CHTO  H141  132   7.714   3.952   2.123
    1CHTO  H142  133   7.769   4.066   2.243
    1CHTO   C79  134   8.002   4.072   2.017
    1CHTO  H151  135   8.013   3.966   1.991
    1CHTO   O52  136   8.041   4.149   1.899
    1CHTO   C86  137   8.011   4.292   1.903
    1CHTO  H158  138   8.086   4.334   1.974
    1CHTO   C90  139   8.046   4.352   1.765
    1CHTO   O60  140   8.031   4.494   1.760
    1CHTO  H138  141   8.055   4.525   1.675
    1CHTO   O50  142   8.090   4.103   2.125
    1CHTO   C73  143   8.214   4.068   2.189
    1CHTO  H145  144   8.288   4.036   2.115
    1CHTO   C74  145   8.192   3.951   2.291
    1CHTO  H146  146   8.151   3.866   2.234
    1CHTO   O54  147   8.321   3.908   2.339
    1CHTO  H133  148   8.362   3.976   2.390
    1CHTO   C75  149   8.093   3.999   2.404
    1CHTO  H147  150   7.995   4.019   2.358
    1CHTO   N13  151   8.066   3.896   2.507
    1CHTO  H139  152   8.157   3.870   2.558
    1CHTO  H140  153   7.995   3.935   2.580
    1CHTO   C76  154   8.143   4.138   2.468
    1CHTO  H148  155   8.233   4.117   2.526
    1CHTO   O49  156   8.174   4.237   2.364
    1CHTO   C77  157   8.268   4.191   2.266
    1CHTO  H149  158   8.361   4.164   2.315
    1CHTO   C88  159   8.305   4.305   2.170
    1CHTO   O58  160   8.374   4.414   2.241
    1CHTO  H136  161   8.396   4.482   2.180
    1CHTO   O51  162   8.024   4.203   2.556
    1CHTO   C78  163   8.063   4.338   2.631
    1CHTO  H150  164   8.136   4.398   2.572
    1CHTO   C80  165   8.124   4.308   2.770
    1CHTO  H152  166   8.053   4.241   2.825
    1CHTO   O55  167   8.246   4.236   2.748
    1CHTO  H134  168   8.282   4.208   2.830
    1CHTO   C84  169   8.147   4.440   2.853
    1CHTO  H156  170   8.223   4.499   2.801
    1CHTO   N15  171   8.201   4.413   2.991
    1CHTO  H143  172   8.130   4.355   3.048
    1CHTO  H144  173   8.219   4.505   3.042
    1CHTO   C87  174   8.016   4.523   2.858
    1CHTO  H159  175   7.941   4.469   2.914
    1CHTO   O53  176   7.967   4.547   2.712
    1CHTO   C82  177   7.935   4.424   2.646
    1CHTO  H154  178   7.860   4.369   2.703
    1CHTO   C89  179   7.874   4.454   2.507
    1CHTO   O59  180   7.750   4.525   2.518
    1CHTO  H137  181   7.685   4.469   2.555
    1CHTO   O45  182   8.044   4.669   2.931
    1CHTO   C67  183   7.942   4.771   2.926
    1CHTO  H124  184   7.945   4.817   2.826
    1CHTO   C65  185   7.797   4.719   2.954
    1CHTO  H122  186   7.808   4.618   2.995
    1CHTO   O44  187   7.730   4.709   2.826
    1CHTO  H102  188   7.709   4.794   2.794
    1CHTO   C63  189   7.722   4.798   3.067
    1CHTO  H120  190   7.770   4.775   3.163
    1CHTO   N11  191   7.581   4.756   3.095
    1CHTO  H108  192   7.545   4.804   3.183
    1CHTO  H109  193   7.519   4.782   3.012
    1CHTO   C61  194   7.742   4.953   3.046
    1CHTO  H118  195   7.702   5.000   3.137
    1CHTO   O40  196   7.881   4.992   3.035
    1CHTO   C68  197   7.983   4.887   3.026
    1CHTO  H125  198   7.999   4.845   3.127
    1CHTO   C72  199   8.116   4.954   2.983
    1CHTO   O48  200   8.163   5.052   3.076
    1CHTO  H105  201   8.190   5.010   3.156
    1CHTO   O38  202   7.675   5.005   2.929
    1CHTO   C55  203   7.643   5.146   2.940
    1CHTO  H112  204   7.698   5.191   3.024
    1CHTO   C56  205   7.487   5.165   2.955
    1CHTO  H113  206   7.439   5.126   2.864
    1CHTO   O42  207   7.437   5.086   3.065
    1CHTO  H100  208   7.477   5.113   3.145
    1CHTO   C57  209   7.454   5.319   2.974
    1CHTO  H114  210   7.496   5.348   3.070
    1CHTO   N10  211   7.309   5.348   2.979
    1CHTO  H106  212   7.287   5.447   2.942
    1CHTO  H107  213   7.273   5.339   3.080
    1CHTO   C58  214   7.524   5.402   2.862
    1CHTO  H115  215   7.469   5.390   2.766
    1CHTO   O37  216   7.662   5.365   2.843
    1CHTO   C59  217   7.687   5.227   2.815
    1CHTO  H116  218   7.632   5.196   2.726
    1CHTO   C70  219   7.838   5.214   2.787
    1CHTO   O46  220   7.873   5.086   2.732
    1CHTO  H103  221   7.966   5.084   2.716
    1CHTO   O39  222   7.532   5.556   2.908
    1CHTO   C60  223   7.477   5.652   2.815
    1CHTO  H117  224   7.453   5.604   2.720
    1CHTO   C62  225   7.347   5.714   2.874
    1CHTO  H119  226   7.275   5.630   2.888
    1CHTO   O43  227   7.375   5.772   3.004
    1CHTO  H101  228   7.397   5.705   3.065
    1CHTO   C66  229   7.284   5.820   2.771
    1CHTO  H123  230   7.266   5.769   2.676
    1CHTO   N12  231   7.153   5.873   2.816
    1CHTO  H110  232   7.076   5.848   2.744
    1CHTO  H111  233   7.127   5.836   2.914
    1CHTO   C69  234   7.387   5.933   2.745
    1CHTO  H126  235   7.409   5.987   2.839
    1CHTO   O41  236   7.520   5.868   2.691
    1CHTO   C64  237   7.581   5.764   2.785
    1CHTO  H121  238   7.611   5.813   2.880
    1CHTO   C71  239   7.709   5.710   2.716
    1CHTO   O47  240   7.789   5.629   2.803
    1CHTO  H104  241   7.864   5.598   2.757
    1CHTO   O34  242   7.336   6.038   2.636
    1CHTO   C49  243   7.277   6.176   2.594
    1CHTO   H91  244   7.260   6.171   2.487
    1CHTO   C47  245   7.380   6.287   2.626
    1CHTO   H89  246   7.340   6.381   2.582
    1CHTO   O33  247   7.503   6.255   2.558
    1CHTO   H70  248   7.566   6.323   2.570
    1CHTO   C45  249   7.395   6.302   2.785
    1CHTO   H87  250   7.422   6.203   2.826
    1CHTO    N8  251   7.502   6.397   2.823
    1CHTO   H75  252   7.476   6.497   2.792
    1CHTO   H76  253   7.517   6.395   2.930
    1CHTO   C43  254   7.252   6.337   2.850
    1CHTO   H85  255   7.266   6.334   2.958
    1CHTO   O29  256   7.153   6.241   2.806
    1CHTO   C50  257   7.143   6.207   2.666
    1CHTO   H92  258   7.082   6.116   2.659
    1CHTO   C54  259   7.059   6.310   2.586
    1CHTO   O36  260   6.926   6.323   2.637
    1CHTO   H72  261   6.928   6.364   2.722
    1CHTO   O27  262   7.207   6.470   2.819
    1CHTO   C37  263   7.211   6.614   2.816
    1CHTO   H79  264   7.309   6.649   2.781
    1CHTO   C38  265   7.104   6.668   2.718
    1CHTO   H80  266   7.006   6.625   2.745
    1CHTO   O31  267   7.139   6.623   2.586
    1CHTO   H68  268   7.071   6.644   2.525
    1CHTO   C39  269   7.094   6.826   2.720
    1CHTO   H81  270   7.182   6.861   2.665
    1CHTO    N7  271   6.974   6.877   2.645
    1CHTO   H73  272   6.907   6.930   2.711
    1CHTO   H74  273   7.005   6.941   2.564
    1CHTO   C40  274   7.102   6.888   2.866
    1CHTO   H82  275   7.003   6.887   2.912
    1CHTO   O26  276   7.199   6.820   2.948
    1CHTO   C41  277   7.183   6.675   2.956
    1CHTO   H83  278   7.080   6.651   2.987
    1CHTO   C52  279   7.278   6.623   3.068
    1CHTO   O35  280   7.420   6.658   3.045
    1CHTO   H71  281   7.472   6.626   3.116
    1CHTO   O28  282   7.145   7.026   2.866
    1CHTO   C42  283   7.274   7.074   2.814
    1CHTO   H84  284   7.312   6.994   2.750
    1CHTO   C44  285   7.387   7.103   2.919
    1CHTO   H86  286   7.353   7.181   2.986
    1CHTO   O32  287   7.410   6.985   2.999
    1CHTO   H69  288   7.440   6.915   2.945
    1CHTO   C48  289   7.522   7.151   2.849
    1CHTO   H90  290   7.566   7.065   2.800
    1CHTO    N9  291   7.626   7.197   2.948
    1CHTO   H77  292   7.588   7.280   3.007
    1CHTO   H78  293   7.655   7.116   3.012
    1CHTO   C51  294   7.494   7.260   2.739
    1CHTO   H93  295   7.471   7.355   2.788
    1CHTO   O30  296   7.385   7.216   2.655
    1CHTO   C46  297   7.261   7.202   2.724
    1CHTO   H88  298   7.244   7.289   2.786
    1CHTO   C53  299   7.152   7.194   2.615
    1CHTO   O72  300   7.022   7.215   2.672
    1CHTO  H199  301   6.958   7.211   2.604
    1CHTO   O22  302   7.608   7.276   2.652
    1CHTO   C31  303   7.601   7.341   2.520
    1CHTO   H59  304   7.493   7.357   2.498
    1CHTO   C29  305   7.668   7.480   2.515
    1CHTO   H57  306   7.774   7.467   2.544
    1CHTO   O21  307   7.608   7.564   2.616
    1CHTO   H37  308   7.627   7.531   2.702
    1CHTO   C27  309   7.660   7.545   2.371
    1CHTO   H55  310   7.555   7.569   2.350
    1CHTO    N5  311   7.741   7.669   2.360
    1CHTO   H43  312   7.845   7.647   2.377
    1CHTO   H44  313   7.706   7.742   2.431
    1CHTO   C25  314   7.704   7.440   2.263
    1CHTO   H53  315   7.812   7.420   2.271
    1CHTO   O17  316   7.632   7.314   2.280
    1CHTO   C32  317   7.655   7.250   2.406
    1CHTO   H60  318   7.762   7.234   2.421
    1CHTO   C36  319   7.583   7.113   2.397
    1CHTO   O25  320   7.616   7.028   2.508
    1CHTO   H40  321   7.571   6.946   2.500
    1CHTO   O15  322   7.672   7.491   2.118
    1CHTO   C19  323   7.673   7.425   1.988
    1CHTO   H47  324   7.641   7.505   1.918
    1CHTO   C20  325   7.813   7.372   1.943
    1CHTO   H48  326   7.849   7.292   2.010
    1CHTO   O19  327   7.906   7.482   1.951
    1CHTO   H35  328   7.883   7.550   1.891
    1CHTO   C21  329   7.806   7.314   1.795
    1CHTO   H49  330   7.789   7.397   1.727
    1CHTO    N4  331   7.934   7.251   1.753
    1CHTO   H41  332   7.926   7.216   1.651
    1CHTO   H42  333   7.957   7.167   1.817
    1CHTO   C22  334   7.685   7.218   1.778
    1CHTO   H50  335   7.708   7.120   1.821
    1CHTO   O14  336   7.564   7.269   1.836
    1CHTO   C23  337   7.570   7.310   1.973
    1CHTO   H51  338   7.598   7.222   2.033
    1CHTO   C34  339   7.429   7.354   2.016
    1CHTO   O23  340   7.338   7.244   2.014
    1CHTO   H38  341   7.253   7.273   2.042
    1CHTO   O16  342   7.649   7.209   1.639
    1CHTO   C24  343   7.622   7.062   1.579
    1CHTO   H52  344   7.651   6.984   1.649
    1CHTO   C26  345   7.705   7.050   1.449
    1CHTO   H54  346   7.686   7.141   1.387
    1CHTO   O20  347   7.844   7.049   1.484
    1CHTO   H36  348   7.871   7.133   1.517
    1CHTO   C30  349   7.666   6.925   1.364
    1CHTO   H58  350   7.699   6.834   1.416
    1CHTO    N6  351   7.734   6.924   1.231
    1CHTO   H45  352   7.796   7.011   1.218
    1CHTO   H46  353   7.795   6.835   1.220
    1CHTO   C33  354   7.511   6.913   1.350
    1CHTO   H61  355   7.472   6.997   1.290
    1CHTO   O18  356   7.451   6.920   1.481
    1CHTO   C28  357   7.470   7.044   1.549
    1CHTO   H56  358   7.436   7.128   1.488
    1CHTO   C35  359   7.388   7.040   1.680
    1CHTO   O24  360   7.248   7.021   1.656
    1CHTO   H39  361   7.212   7.097   1.616
    1CHTO    O9  362   7.472   6.793   1.280
    1CHTO   C13  363   7.317   6.791   1.230
    1CHTO   H26  364   7.284   6.895   1.210
    1CHTO   C11  365   7.227   6.722   1.342
    1CHTO   H24  366   7.217   6.792   1.426
    1CHTO    O8  367   7.293   6.603   1.389
    1CHTO    H3  368   7.246   6.566   1.461
    1CHTO    C9  369   7.086   6.692   1.282
    1CHTO   H22  370   7.051   6.788   1.241
    1CHTO    N2  371   6.986   6.656   1.386
    1CHTO   H10  372   6.937   6.563   1.361
    1CHTO   H11  373   6.913   6.735   1.397
    1CHTO    C7  374   7.100   6.589   1.162
    1CHTO   H20  375   7.028   6.628   1.086
    1CHTO    O4  376   7.233   6.588   1.105
    1CHTO   C14  377   7.302   6.714   1.091
    1CHTO   H27  378   7.243   6.778   1.021
    1CHTO   C18  379   7.438   6.686   1.023
    1CHTO   O13  380   7.420   6.631   0.892
    1CHTO    H7  381   7.504   6.615   0.853
    1CHTO    O2  382   7.056   6.427   1.202
    1CHTO    C1  383   7.120   6.325   1.123
    1CHTO   H14  384   7.225   6.354   1.104
    1CHTO    C2  385   7.051   6.294   0.985
    1CHTO   H15  386   6.948   6.263   1.007
    1CHTO    O6  387   7.049   6.416   0.907
    1CHTO    H1  388   7.000   6.403   0.828
    1CHTO    C3  389   7.131   6.178   0.908
    1CHTO   H16  390   7.230   6.217   0.881
    1CHTO    N1  391   7.062   6.137   0.780
    1CHTO    H8  392   7.033   6.033   0.784
    1CHTO    H9  393   7.128   6.153   0.696
    1CHTO    C4  394   7.158   6.056   1.005
    1CHTO   H17  395   7.066   5.999   1.018
    1CHTO    O1  396   7.210   6.097   1.133
    1CHTO    C5  397   7.129   6.192   1.205
    1CHTO   H18  398   7.028   6.153   1.219
    1CHTO   C16  399   7.194   6.215   1.344
    1CHTO   O11  400   7.193   6.096   1.423
    1CHTO    H5  401   7.105   6.075   1.448
    1CHTO    O3  402   7.260   5.971   0.948
    1CHTO    C6  403   7.272   5.837   1.008
    1CHTO   H19  404   7.225   5.831   1.107
    1CHTO    C8  405   7.207   5.729   0.916
    1CHTO   H21  406   7.256   5.733   0.818
    1CHTO    O7  407   7.068   5.760   0.902
    1CHTO    H2  408   7.057   5.839   0.852
    1CHTO   C12  409   7.231   5.585   0.978
    1CHTO   H25  410   7.175   5.584   1.074
    1CHTO    N3  411   7.172   5.477   0.892
    1CHTO   H12  412   7.099   5.421   0.948
    1CHTO   H13  413   7.249   5.412   0.853
    1CHTO   C15  414   7.384   5.565   1.009
    1CHTO   H28  415   7.442   5.554   0.918
    1CHTO   O10  416   7.409   5.447   1.099
    1CHTO    H4  417   7.382   5.368   1.056
    1CHTO    O5  418   7.436   5.673   1.088
    1CHTO   C10  419   7.423   5.802   1.028
    1CHTO   H23  420   7.473   5.801   0.931
    1CHTO   C17  421   7.495   5.905   1.116
    1CHTO   O12  422   7.637   5.885   1.114
    1CHTO    H6  423   7.659   5.806   1.159
    2CHTO  H203  424   6.552   3.813   0.254
    2CHTO   O82  425   6.466   3.777   0.244
    2CHTO  C123  426   6.389   3.854   0.151
    2CHTO  H227  427   6.442   3.854   0.054
    2CHTO   O77  428   6.264   3.781   0.140
    2CHTO  C118  429   6.180   3.829   0.034
    2CHTO  H222  430   6.235   3.825   3.375
    2CHTO  C125  431   6.055   3.735   0.024
    2CHTO   O84  432   6.093   3.600   3.431
    2CHTO  H205  433   6.126   3.595   3.343
    2CHTO  C114  434   6.135   3.974   0.061
    2CHTO  H218  435   6.067   3.973   0.146
    2CHTO  C116  436   6.255   4.067   0.097
    2CHTO  H220  437   6.308   4.093   0.004
    2CHTO   O79  438   6.204   4.191   0.149
    2CHTO  H201  439   6.158   4.238   0.082
    2CHTO  C120  440   6.357   4.000   0.199
    2CHTO  H224  441   6.306   3.997   0.298
    2CHTO   N21  442   6.480   4.083   0.215
    2CHTO  H211  443   6.522   4.068   0.313
    2CHTO  H212  444   6.553   4.058   0.139
    2CHTO   O75  445   6.066   4.013   3.378
    2CHTO  C112  446   5.937   4.113   3.398
    2CHTO  H216  447   5.959   4.184   0.043
    2CHTO   O73  448   5.823   4.031   3.428
    2CHTO  C113  449   5.698   4.101   0.005
    2CHTO  H217  450   5.709   4.176   0.087
    2CHTO  C124  451   5.590   4.001   0.049
    2CHTO   O83  452   5.567   3.895   3.392
    2CHTO  H204  453   5.530   3.930   3.313
    2CHTO  C109  454   5.660   4.174   3.310
    2CHTO  H213  455   5.646   4.097   3.233
    2CHTO  C110  456   5.776   4.270   3.269
    2CHTO  H214  457   5.781   4.351   3.342
    2CHTO   O78  458   5.744   4.331   3.142
    2CHTO  H200  459   5.738   4.265   3.075
    2CHTO  C111  460   5.912   4.194   3.264
    2CHTO  H215  461   5.908   4.121   3.182
    2CHTO   N19  462   6.028   4.283   3.237
    2CHTO  H207  463   6.119   4.225   3.232
    2CHTO  H208  464   6.014   4.334   3.143
    2CHTO   O74  465   5.534   4.247   3.328
    2CHTO  C115  466   5.440   4.247   3.196
    2CHTO  H219  467   5.499   4.248   3.104
    2CHTO   O76  468   5.356   4.115   3.186
    2CHTO  C122  469   5.249   4.110   3.281
    2CHTO  H226  470   5.293   4.119   3.381
    2CHTO  C126  471   5.182   3.968   3.276
    2CHTO   O85  472   5.272   3.863   3.314
    2CHTO  H206  473   5.294   3.871   3.404
    2CHTO  C121  474   5.143   4.225   3.257
    2CHTO  H225  475   5.053   4.183   3.207
    2CHTO   O81  476   5.101   4.277   3.385
    2CHTO  H202  477   5.056   4.210   3.433
    2CHTO  C119  478   5.198   4.342   3.169
    2CHTO  H223  479   5.195   4.305   3.066
    2CHTO  C117  480   5.348   4.376   3.204
    2CHTO  H221  481   5.364   4.416   3.304
    2CHTO   N20  482   5.402   4.482   3.112
    2CHTO  H209  483   5.340   4.570   3.117
    2CHTO  H210  484   5.503   4.507   3.140
    2CHTO   O80  485   5.090   4.468   3.162
    2CHTO  C103  486   5.065   4.546   3.024
    2CHTO  H190  487   5.159   4.562   2.970
    2CHTO  C101  488   4.961   4.483   2.924
    2CHTO  H188  489   4.869   4.461   2.979
    2CHTO   O68  490   5.019   4.349   2.868
    2CHTO  H168  491   5.096   4.366   2.817
    2CHTO   C99  492   4.926   4.588   2.807
    2CHTO  H186  493   5.019   4.611   2.751
    2CHTO   N17  494   4.826   4.538   2.707
    2CHTO  H174  495   4.730   4.522   2.755
    2CHTO  H175  496   4.818   4.607   2.625
    2CHTO   C97  497   4.880   4.723   2.871
    2CHTO  H184  498   4.785   4.706   2.924
    2CHTO   O64  499   4.983   4.773   2.958
    2CHTO  C104  500   5.015   4.688   3.070
    2CHTO  H191  501   4.928   4.676   3.136
    2CHTO  C108  502   5.122   4.758   3.153
    2CHTO   O71  503   5.073   4.879   3.212
    2CHTO  H171  504   5.140   4.917   3.266
    2CHTO   O62  505   4.870   4.832   2.776
    2CHTO   C91  506   4.738   4.884   2.748
    2CHTO  H178  507   4.668   4.800   2.749
    2CHTO   C92  508   4.741   4.938   2.600
    2CHTO  H179  509   4.800   4.870   2.536
    2CHTO   O66  510   4.606   4.931   2.549
    2CHTO  H166  511   4.606   4.951   2.457
    2CHTO   C93  512   4.790   5.087   2.588
    2CHTO  H180  513   4.769   5.118   2.484
    2CHTO   N16  514   4.937   5.104   2.602
    2CHTO  H172  515   4.963   5.208   2.589
    2CHTO  H173  516   4.969   5.068   2.698
    2CHTO   C94  517   4.708   5.181   2.686
    2CHTO  H181  518   4.773   5.244   2.748
    2CHTO   O61  519   4.624   5.108   2.777
    2CHTO   C95  520   4.686   4.998   2.847
    2CHTO  H182  521   4.770   5.036   2.905
    2CHTO  C106  522   4.579   4.945   2.949
    2CHTO   O69  523   4.635   4.855   3.045
    2CHTO  H169  524   4.695   4.901   3.101
    2CHTO   O63  525   4.612   5.271   2.600
    2CHTO   C96  526   4.674   5.409   2.555
    2CHTO  H183  527   4.782   5.396   2.544
    2CHTO   C98  528   4.648   5.526   2.654
    2CHTO  H185  529   4.541   5.529   2.679
    2CHTO   O67  530   4.716   5.495   2.777
    2CHTO  H167  531   4.675   5.422   2.820
    2CHTO  C102  532   4.696   5.668   2.596
    2CHTO  H189  533   4.806   5.662   2.590
    2CHTO   N18  534   4.667   5.784   2.684
    2CHTO  H176  535   4.560   5.792   2.700
    2CHTO  H177  536   4.717   5.773   2.779
    2CHTO  C105  537   4.639   5.685   2.452
    2CHTO  H192  538   4.531   5.696   2.458
    2CHTO   O65  539   4.671   5.572   2.368
    2CHTO  C100  540   4.616   5.447   2.414
    2CHTO  H187  541   4.506   5.457   2.422
    2CHTO  C107  542   4.646   5.338   2.308
    2CHTO   O70  543   4.585   5.370   2.182
    2CHTO  H170  544   4.629   5.442   2.142
    2CHTO   O57  545   4.705   5.817   2.389
    2CHTO   C85  546   4.658   5.867   2.263
    2CHTO  H157  547   4.564   5.813   2.240
    2CHTO   C83  548   4.757   5.823   2.150
    2CHTO  H155  549   4.744   5.716   2.134
    2CHTO   O56  550   4.893   5.840   2.195
    2CHTO  H135  551   4.953   5.805   2.132
    2CHTO   C81  552   4.724   5.898   2.018
    2CHTO  H153  553   4.619   5.878   1.994
    2CHTO   N14  554   4.799   5.846   1.901
    2CHTO  H141  555   4.851   5.925   1.851
    2CHTO  H142  556   4.732   5.799   1.831
    2CHTO   C79  557   4.740   6.053   2.041
    2CHTO  H151  558   4.717   6.102   1.946
    2CHTO   O52  559   4.639   6.097   2.137
    2CHTO   C86  560   4.636   6.025   2.265
    2CHTO  H158  561   4.715   6.076   2.325
    2CHTO   C90  562   4.502   6.060   2.332
    2CHTO   O60  563   4.491   6.006   2.464
    2CHTO  H138  564   4.408   6.029   2.501
    2CHTO   O50  565   4.871   6.094   2.083
    2CHTO   C73  566   4.984   6.182   2.072
    2CHTO  H145  567   4.951   6.284   2.045
    2CHTO   C74  568   5.083   6.132   1.962
    2CHTO  H146  569   5.027   6.128   1.867
    2CHTO   O54  570   5.186   6.232   1.945
    2CHTO  H133  571   5.244   6.207   1.875
    2CHTO   C75  572   5.139   5.990   2.004
    2CHTO  H147  573   5.055   5.919   2.004
    2CHTO   N13  574   5.236   5.931   1.908
    2CHTO  H139  575   5.189   5.918   1.812
    2CHTO  H140  576   5.321   5.997   1.897
    2CHTO   C76  577   5.197   5.993   2.153
    2CHTO  H148  578   5.294   6.044   2.152
    2CHTO   O49  579   5.107   6.059   2.247
    2CHTO   C77  580   5.059   6.189   2.208
    2CHTO  H149  581   5.143   6.258   2.199
    2CHTO   C88  582   4.970   6.246   2.319
    2CHTO   O58  583   5.048   6.271   2.444
    2CHTO  H136  584   5.111   6.339   2.430
    2CHTO   O51  585   5.207   5.844   2.208
    2CHTO   C78  586   5.305   5.824   2.327
    2CHTO  H150  587   5.343   5.922   2.365
    2CHTO   C80  588   5.425   5.739   2.280
    2CHTO  H152  589   5.386   5.650   2.225
    2CHTO   O55  590   5.500   5.819   2.186
    2CHTO  H134  591   5.452   5.831   2.106
    2CHTO   C84  592   5.517   5.690   2.400
    2CHTO  H156  593   5.566   5.778   2.442
    2CHTO   N15  594   5.625   5.596   2.353
    2CHTO  H143  595   5.616   5.500   2.400
    2CHTO  H144  596   5.721   5.637   2.376
    2CHTO   C87  597   5.428   5.628   2.510
    2CHTO  H159  598   5.381   5.536   2.474
    2CHTO   O53  599   5.321   5.730   2.550
    2CHTO   C82  600   5.230   5.755   2.442
    2CHTO  H154  601   5.186   5.661   2.408
    2CHTO   C89  602   5.114   5.843   2.494
    2CHTO   O59  603   5.039   5.776   2.597
    2CHTO  H137  604   4.992   5.705   2.560
    2CHTO   O45  605   5.513   5.593   2.646
    2CHTO   C67  606   5.431   5.537   2.751
    2CHTO  H124  607   5.326   5.550   2.725
    2CHTO   C65  608   5.460   5.384   2.771
    2CHTO  H122  609   5.563   5.368   2.738
    2CHTO   O44  610   5.372   5.315   2.681
    2CHTO  H102  611   5.284   5.318   2.713
    2CHTO   C63  612   5.459   5.341   2.923
    2CHTO  H120  613   5.552   5.374   2.969
    2CHTO   N11  614   5.462   5.194   2.951
    2CHTO  H108  615   5.543   5.148   2.897
    2CHTO  H109  616   5.474   5.176   3.055
    2CHTO   C61  617   5.344   5.418   2.997
    2CHTO  H118  618   5.350   5.390   3.104
    2CHTO   O40  619   5.361   5.563   2.990
    2CHTO   C68  620   5.451   5.616   2.887
    2CHTO  H125  621   5.556   5.606   2.922
    2CHTO   C72  622   5.423   5.767   2.869
    2CHTO   O48  623   5.454   5.844   2.986
    2CHTO  H105  624   5.547   5.844   3.000
    2CHTO   O38  625   5.214   5.384   2.944
    2CHTO   C55  626   5.102   5.395   3.034
    2CHTO  H112  627   5.130   5.453   3.124
    2CHTO   C56  628   5.047   5.251   3.072
    2CHTO  H113  629   5.031   5.196   2.977
    2CHTO   O42  630   5.149   5.178   3.144
    2CHTO  H100  631   5.222   5.162   3.088
    2CHTO   C57  632   4.913   5.261   3.154
    2CHTO  H114  633   4.938   5.303   3.251
    2CHTO   N10  634   4.847   5.130   3.180
    2CHTO  H106  635   4.868   5.061   3.099
    2CHTO  H107  636   4.885   5.087   3.272
    2CHTO   C58  637   4.813   5.357   3.083
    2CHTO  H115  638   4.781   5.311   2.987
    2CHTO   O37  639   4.876   5.484   3.057
    2CHTO   C59  640   4.987   5.475   2.966
    2CHTO  H116  641   4.956   5.426   2.874
    2CHTO   C70  642   5.032   5.617   2.928
    2CHTO   O46  643   5.082   5.694   3.039
    2CHTO  H103  644   5.012   5.714   3.098
    2CHTO   O39  645   4.679   5.387   3.180
    2CHTO   C60  646   4.572   5.457   3.114
    2CHTO  H117  647   4.614   5.544   3.063
    2CHTO   C62  648   4.499   5.368   3.009
    2CHTO  H119  649   4.577   5.333   2.937
    2CHTO   O43  650   4.444   5.252   3.074
    2CHTO  H101  651   4.406   5.194   3.011
    2CHTO   C66  652   4.391   5.455   2.929
    2CHTO  H123  653   4.442   5.540   2.884
    2CHTO   N12  654   4.326   5.382   2.818
    2CHTO  H110  655   4.344   5.431   2.724
    2CHTO  H111  656   4.359   5.279   2.815
    2CHTO   C69  657   4.287   5.515   3.028
    2CHTO  H126  658   4.222   5.435   3.069
    2CHTO   O41  659   4.360   5.588   3.147
    2CHTO   C64  660   4.468   5.511   3.217
    2CHTO  H121  661   4.423   5.426   3.272
    2CHTO   C71  662   4.527   5.609   3.321
    2CHTO   O47  663   4.624   5.549   3.408
    2CHTO  H104  664   4.581   5.487   0.028
    2CHTO   O34  665   4.194   5.621   2.951
    2CHTO   C49  666   4.177   5.773   2.978
    2CHTO   H91  667   4.144   5.783   3.082
    2CHTO   C47  668   4.067   5.827   2.883
    2CHTO   H89  669   4.045   5.931   2.917
    2CHTO   O33  670   3.948   5.748   2.900
    2CHTO   H70  671   3.912   5.761   2.986
    2CHTO   C45  672   4.123   5.829   2.732
    2CHTO   H87  673   4.156   5.727   2.706
    2CHTO    N8  674   4.020   5.871   2.633
    2CHTO   H75  675   3.935   5.805   2.639
    2CHTO   H76  676   3.989   5.972   2.654
    2CHTO   C43  677   4.255   5.920   2.725
    2CHTO   H85  678   4.293   5.912   2.623
    2CHTO   O29  679   4.352   5.874   2.822
    2CHTO   C50  680   4.309   5.852   2.958
    2CHTO   H92  681   4.389   5.794   3.006
    2CHTO   C54  682   4.308   5.984   3.040
    2CHTO   O36  683   4.439   6.042   3.045
    2CHTO   H72  684   4.436   6.121   3.095
    2CHTO   O27  685   4.226   6.060   2.746
    2CHTO   C37  686   4.237   6.195   2.698
    2CHTO   H79  687   4.260   6.194   2.590
    2CHTO   C38  688   4.101   6.270   2.716
    2CHTO   H80  689   4.066   6.251   2.819
    2CHTO   O31  690   4.007   6.212   2.624
    2CHTO   H68  691   3.984   6.125   2.650
    2CHTO   C39  692   4.115   6.426   2.694
    2CHTO   H81  693   4.138   6.441   2.588
    2CHTO    N7  694   3.988   6.502   2.724
    2CHTO   H73  695   3.953   6.552   2.635
    2CHTO   H74  696   3.912   6.436   2.763
    2CHTO   C40  697   4.237   6.481   2.777
    2CHTO   H82  698   4.215   6.468   2.883
    2CHTO   O26  699   4.355   6.409   2.737
    2CHTO   C41  700   4.352   6.268   2.773
    2CHTO   H83  701   4.336   6.258   2.882
    2CHTO   C52  702   4.489   6.206   2.738
    2CHTO   O35  703   4.595   6.266   2.810
    2CHTO   H71  704   4.676   6.226   2.786
    2CHTO   O28  705   4.266   6.620   2.753
    2CHTO   C42  706   4.331   6.701   2.856
    2CHTO   H84  707   4.355   6.794   2.804
    2CHTO   C44  708   4.468   6.647   2.911
    2CHTO   H86  709   4.452   6.546   2.950
    2CHTO   O32  710   4.557   6.638   2.798
    2CHTO   H69  711   4.529   6.571   2.739
    2CHTO   C48  712   4.528   6.736   3.027
    2CHTO   H90  713   4.552   6.834   2.986
    2CHTO    N9  714   4.657   6.681   3.082
    2CHTO   H77  715   4.737   6.753   3.068
    2CHTO   H78  716   4.683   6.587   3.036
    2CHTO   C51  717   4.418   6.754   3.138
    2CHTO   H93  718   4.389   6.654   3.173
    2CHTO   O30  719   4.308   6.824   3.080
    2CHTO   C46  720   4.235   6.738   2.974
    2CHTO   H88  721   4.199   6.647   3.021
    2CHTO   C53  722   4.115   6.821   2.922
    2CHTO   O72  723   4.020   6.845   3.027
    2CHTO  H199  724   4.056   6.905   3.089
    2CHTO   O22  725   4.464   6.834   3.249
    2CHTO   C31  726   4.391   6.862   3.375
    2CHTO   H59  727   4.469   6.885   0.014
    2CHTO   C29  728   4.299   6.986   3.367
    2CHTO   H57  729   4.218   6.965   3.296
    2CHTO   O21  730   4.376   7.095   3.312
    2CHTO   H37  731   4.444   7.122   3.371
    2CHTO   C27  732   4.237   7.022   0.072
    2CHTO   H55  733   4.319   7.048   0.140
    2CHTO    N5  734   4.141   7.136   0.067
    2CHTO   H43  735   4.045   7.109   0.108
    2CHTO   H44  736   4.129   7.172   3.403
    2CHTO   C25  737   4.170   6.893   0.134
    2CHTO   H53  738   4.078   6.869   0.078
    2CHTO   O17  739   4.258   6.777   0.127
    2CHTO   C32  740   4.308   6.743   3.434
    2CHTO   H60  741   4.225   6.721   3.367
    2CHTO   C36  742   4.394   6.615   0.014
    2CHTO   O25  743   4.316   6.504   0.060
    2CHTO   H40  744   4.256   6.478   3.430
    2CHTO   O15  745   4.136   6.916   0.284
    2CHTO   C19  746   4.046   6.899   0.397
    2CHTO   H47  747   3.963   6.967   0.376
    2CHTO   C20  748   3.990   6.755   0.415
    2CHTO   H48  749   4.070   6.681   0.431
    2CHTO   O19  750   3.923   6.722   0.291
    2CHTO   H35  751   3.894   6.633   0.293
    2CHTO   C21  752   3.890   6.747   0.538
    2CHTO   H49  753   3.803   6.809   0.516
    2CHTO    N4  754   3.839   6.610   0.562
    2CHTO   H41  755   3.770   6.610   0.645
    2CHTO   H42  756   3.921   6.543   0.585
    2CHTO   C22  757   3.957   6.809   0.664
    2CHTO   H50  758   4.037   6.743   0.698
    2CHTO   O14  759   4.010   6.940   0.636
    2CHTO   C23  760   4.109   6.946   0.531
    2CHTO   H51  761   4.194   6.883   0.561
    2CHTO   C34  762   4.159   7.091   0.523
    2CHTO   O23  763   4.230   7.129   0.641
    2CHTO   H38  764   4.311   7.083   0.647
    2CHTO   O16  765   3.861   6.835   0.768
    2CHTO   C24  766   3.912   6.801   0.920
    2CHTO   H52  767   4.020   6.784   0.923
    2CHTO   C26  768   3.838   6.674   0.965
    2CHTO   H54  769   3.730   6.685   0.940
    2CHTO   O20  770   3.890   6.563   0.889
    2CHTO   H36  771   3.864   6.570   0.800
    2CHTO   C30  772   3.850   6.647   1.119
    2CHTO   H58  773   3.953   6.618   1.144
    2CHTO    N6  774   3.763   6.534   1.162
    2CHTO   H45  775   3.777   6.516   1.268
    2CHTO   H46  776   3.660   6.557   1.143
    2CHTO   C33  777   3.821   6.778   1.198
    2CHTO   H61  778   3.717   6.809   1.180
    2CHTO   O18  779   3.908   6.882   1.149
    2CHTO   C28  780   3.882   6.922   1.013
    2CHTO   H56  781   3.778   6.952   1.000
    2CHTO   C35  782   3.976   7.042   0.985
    2CHTO   O24  783   3.944   7.110   0.863
    2CHTO   H39  784   4.003   7.183   0.852
    2CHTO    O9  785   3.834   6.762   1.340
    2CHTO   C13  786   3.739   6.860   1.428
    2CHTO   H26  787   3.638   6.859   1.382
    2CHTO   C11  788   3.801   7.007   1.430
    2CHTO   H24  789   3.777   7.055   1.334
    2CHTO    O8  790   3.945   7.000   1.442
    2CHTO    H3  791   3.982   7.086   1.434
    2CHTO    C9  792   3.736   7.086   1.547
    2CHTO   H22  793   3.627   7.073   1.533
    2CHTO    N2  794   3.758   7.233   1.538
    2CHTO   H10  795   3.664   7.284   1.521
    2CHTO   H11  796   3.804   7.269   1.628
    2CHTO    C7  797   3.777   7.017   1.683
    2CHTO   H20  798   3.691   7.038   1.750
    2CHTO    O4  799   3.797   6.875   1.673
    2CHTO   C14  800   3.718   6.804   1.576
    2CHTO   H27  801   3.611   6.815   1.603
    2CHTO   C18  802   3.752   6.653   1.588
    2CHTO   O13  803   3.724   6.601   1.718
    2CHTO    H7  804   3.631   6.600   1.733
    2CHTO    O2  805   3.912   7.080   1.747
    2CHTO    C1  806   3.923   7.053   1.888
    2CHTO   H14  807   3.853   6.973   1.917
    2CHTO    C2  808   3.893   7.181   1.976
    2CHTO   H15  809   3.953   7.263   1.934
    2CHTO    O6  810   3.753   7.214   1.963
    2CHTO    H1  811   3.735   7.243   1.876
    2CHTO    C3  812   3.932   7.157   2.130
    2CHTO   H16  813   3.861   7.085   2.174
    2CHTO    N1  814   3.921   7.283   2.210
    2CHTO    H8  815   3.990   7.357   2.171
    2CHTO    H9  816   3.944   7.264   2.313
    2CHTO    C4  817   4.074   7.089   2.141
    2CHTO   H17  818   4.151   7.162   2.111
    2CHTO    O1  819   4.082   6.972   2.058
    2CHTO    C5  820   4.066   6.998   1.918
    2CHTO   H18  821   4.138   7.074   1.886
    2CHTO   C16  822   4.095   6.866   1.842
    2CHTO   O11  823   4.007   6.760   1.880
    2CHTO    H5  824   4.024   6.735   1.969
    2CHTO    O3  825   4.100   7.044   2.276
    2CHTO    C6  826   4.238   7.001   2.304
    2CHTO   H19  827   4.295   6.979   2.214
    2CHTO    C8  828   4.315   7.112   2.384
    2CHTO   H21  829   4.256   7.137   2.473
    2CHTO    O7  830   4.326   7.227   2.298
    2CHTO    H2  831   4.242   7.267   2.286
    2CHTO   C12  832   4.457   7.058   2.430
    2CHTO   H25  833   4.516   7.043   2.337
    2CHTO    N3  834   4.530   7.161   2.512
    2CHTO   H12  835   4.628   7.123   2.539
    2CHTO   H13  836   4.473   7.185   2.601
    2CHTO   C15  837   4.441   6.920   2.503
    2CHTO   H28  838   4.391   6.930   2.599
    2CHTO   O10  839   4.577   6.846   2.523
    2CHTO    H4  840   4.622   6.838   2.441
    2CHTO    O5  841   4.368   6.827   2.420
    2CHTO   C10  842   4.234   6.870   2.389
    2CHTO   H23  843   4.180   6.888   2.482
    2CHTO   C17  844   4.163   6.756   2.314
    2CHTO   O12  845   4.147   6.641   2.398
    2CHTO    H6  846   4.084   6.659   2.466
    3CHTO  H203  847   5.983   1.881   1.630
    3CHTO   O82  848   6.056   1.940   1.624
    3CHTO  C123  849   6.174   1.868   1.585
    3CHTO  H227  850   6.156   1.820   1.488
    3CHTO   O77  851   6.273   1.973   1.573
    3CHTO  C118  852   6.399   1.928   1.523
    3CHTO  H222  853   6.385   1.873   1.429
    3CHTO  C125  854   6.489   2.054   1.495
    3CHTO   O84  855   6.432   2.136   1.393
    3CHTO  H205  856   6.486   2.211   1.379
    3CHTO  C114  857   6.465   1.834   1.626
    3CHTO  H218  858   6.484   1.891   1.718
    3CHTO  C116  859   6.369   1.715   1.664
    3CHTO  H220  860   6.369   1.642   1.580
    3CHTO   O79  861   6.421   1.646   1.779
    3CHTO  H201  862   6.502   1.603   1.757
    3CHTO  C120  863   6.221   1.764   1.694
    3CHTO  H224  864   6.223   1.813   1.793
    3CHTO   N21  865   6.128   1.648   1.704
    3CHTO  H211  866   6.028   1.676   1.674
    3CHTO  H212  867   6.127   1.609   1.805
    3CHTO   O75  868   6.590   1.799   1.564
    3CHTO  C112  869   6.677   1.678   1.628
    3CHTO  H216  870   6.611   1.591   1.640
    3CHTO   O73  871   6.730   1.723   1.755
    3CHTO  C113  872   6.826   1.638   1.822
    3CHTO  H217  873   6.785   1.617   1.923
    3CHTO  C124  874   6.958   1.713   1.845
    3CHTO   O83  875   6.947   1.814   1.946
    3CHTO  H204  876   6.891   1.884   1.915
    3CHTO  C109  877   6.849   1.501   1.753
    3CHTO  H213  878   6.933   1.452   1.805
    3CHTO  C110  879   6.876   1.517   1.600
    3CHTO  H214  880   6.851   1.422   1.552
    3CHTO   O78  881   7.017   1.536   1.575
    3CHTO  H200  882   7.035   1.533   1.483
    3CHTO  C111  883   6.797   1.635   1.535
    3CHTO  H215  884   6.864   1.723   1.529
    3CHTO   N19  885   6.753   1.606   1.396
    3CHTO  H207  886   6.689   1.519   1.395
    3CHTO  H208  887   6.839   1.588   1.333
    3CHTO   O74  888   6.728   1.422   1.776
    3CHTO  C115  889   6.745   1.271   1.770
    3CHTO  H219  890   6.840   1.243   1.722
    3CHTO   O76  891   6.752   1.208   1.913
    3CHTO  C122  892   6.630   1.227   1.986
    3CHTO  H226  893   6.617   1.335   2.001
    3CHTO  C126  894   6.647   1.167   2.130
    3CHTO   O85  895   6.748   1.233   2.206
    3CHTO  H206  896   6.756   1.192   2.290
    3CHTO  C121  897   6.504   1.167   1.911
    3CHTO  H225  898   6.462   1.084   1.973
    3CHTO   O81  899   6.402   1.267   1.900
    3CHTO  H202  900   6.432   1.339   1.848
    3CHTO  C119  901   6.541   1.110   1.770
    3CHTO  H223  902   6.606   1.024   1.789
    3CHTO  C117  903   6.623   1.215   1.685
    3CHTO  H221  904   6.565   1.302   1.655
    3CHTO   N20  905   6.670   1.155   1.555
    3CHTO  H209  906   6.585   1.122   1.498
    3CHTO  H210  907   6.736   1.071   1.575
    3CHTO   O80  908   6.419   1.042   1.696
    3CHTO  C103  909   6.349   0.921   1.759
    3CHTO  H190  910   6.403   0.884   1.846
    3CHTO  C101  911   6.198   0.946   1.797
    3CHTO  H188  912   6.152   1.007   1.719
    3CHTO   O68  913   6.194   1.028   1.929
    3CHTO  H168  914   6.105   1.054   1.947
    3CHTO   C99  915   6.114   0.810   1.809
    3CHTO  H186  916   6.149   0.754   1.898
    3CHTO   N17  917   5.967   0.834   1.827
    3CHTO  H174  918   5.925   0.880   1.739
    3CHTO  H175  919   5.917   0.740   1.849
    3CHTO   C97  920   6.143   0.719   1.687
    3CHTO  H184  921   6.107   0.771   1.597
    3CHTO   O64  922   6.284   0.693   1.681
    3CHTO  C104  923   6.361   0.810   1.647
    3CHTO  H191  924   6.328   0.852   1.552
    3CHTO  C108  925   6.507   0.769   1.626
    3CHTO   O71  926   6.521   0.683   1.512
    3CHTO  H171  927   6.612   0.661   1.501
    3CHTO   O62  928   6.082   0.588   1.698
    3CHTO   C91  929   6.056   0.520   1.573
    3CHTO  H178  930   6.123   0.560   1.497
    3CHTO   C92  931   5.910   0.547   1.524
    3CHTO  H179  932   5.840   0.520   1.605
    3CHTO   O66  933   5.894   0.688   1.504
    3CHTO  H166  934   5.805   0.709   1.484
    3CHTO   C93  935   5.875   0.469   1.390
    3CHTO  H180  936   5.929   0.520   1.309
    3CHTO   N16  937   5.730   0.479   1.354
    3CHTO  H172  938   5.683   0.382   1.353
    3CHTO  H173  939   5.718   0.528   1.259
    3CHTO   C94  940   5.923   0.320   1.396
    3CHTO  H181  941   5.859   0.259   1.461
    3CHTO   O61  942   6.057   0.308   1.447
    3CHTO   C95  943   6.076   0.365   1.577
    3CHTO  H182  944   6.005   0.321   1.647
    3CHTO  C106  945   6.220   0.327   1.628
    3CHTO   O69  946   6.232   0.185   1.645
    3CHTO  H169  947   6.319   0.164   1.674
    3CHTO   O63  948   5.925   0.259   1.246
    3CHTO   C96  949   5.935   0.106   1.244
    3CHTO  H183  950   5.919   0.070   1.346
    3CHTO   C98  951   6.070   0.049   1.193
    3CHTO  H185  952   6.088   0.086   1.091
    3CHTO   O67  953   6.178   0.099   1.273
    3CHTO  H167  954   6.187   0.192   1.260
    3CHTO  C102  955   6.073   9.888   1.196
    3CHTO  H189  956   6.112   9.861   1.296
    3CHTO   N18  957   6.166   9.825   1.099
    3CHTO  H176  958   6.137   9.851   0.999
    3CHTO  H177  959   6.164   9.717   1.111
    3CHTO  C105  960   5.928   9.831   1.188
    3CHTO  H192  961   5.929   9.731   1.146
    3CHTO   O65  962   5.840   9.913   1.109
    3CHTO  C100  963   5.818   0.049   1.153
    3CHTO  H187  964   5.814   0.111   1.063
    3CHTO  C107  965   5.681   0.060   1.224
    3CHTO   O70  966   5.573   0.029   1.135
    3CHTO  H170  967   5.564   0.097   1.070
    3CHTO   O57  968   5.881   9.824   1.339
    3CHTO   C85  969   5.874   9.699   1.410
    3CHTO  H157  970   5.957   9.637   1.372
    3CHTO   C83  971   5.742   9.624   1.370
    3CHTO  H155  972   5.753   9.592   1.265
    3CHTO   O56  973   5.631   9.715   1.373
    3CHTO  H135  974   5.554   9.673   1.341
    3CHTO   C81  975   5.724   9.498   1.459
    3CHTO  H153  976   5.811   9.433   1.444
    3CHTO   N14  977   5.609   9.413   1.418
    3CHTO  H141  978   5.608   9.323   1.475
    3CHTO  H142  979   5.517   9.466   1.434
    3CHTO   C79  980   5.719   9.540   1.610
    3CHTO  H151  981   5.711   9.448   1.669
    3CHTO   O52  982   5.846   9.602   1.647
    3CHTO   C86  983   5.882   9.719   1.567
    3CHTO  H158  984   5.813   9.798   1.602
    3CHTO   C90  985   6.024   9.765   1.610
    3CHTO   O60  986   6.056   9.895   1.558
    3CHTO  H138  987   6.143   9.918   1.584
    3CHTO   O50  988   5.610   9.626   1.645
    3CHTO   C73  989   5.510   9.685   1.729
    3CHTO  H145  990   5.435   9.609   1.757
    3CHTO   C74  991   5.437   9.801   1.654
    3CHTO  H146  992   5.396   9.758   1.561
    3CHTO   O54  993   5.323   9.840   1.733
    3CHTO  H133  994   5.259   9.771   1.735
    3CHTO   C75  995   5.538   9.919   1.626
    3CHTO  H147  996   5.616   9.882   1.558
    3CHTO   N13  997   5.477   0.035   1.558
    3CHTO  H139  998   5.482   0.124   1.619
    3CHTO  H140  999   5.528   0.055   1.464
    3CHTO   C76 1000   5.613   9.960   1.762
    3CHTO  H148 1001   5.540   0.008   1.828
    3CHTO   O49 1002   5.670   9.843   1.830
    3CHTO   C77 1003   5.574   9.742   1.860
    3CHTO  H149 1004   5.495   9.783   1.923
    3CHTO   C88 1005   5.643   9.634   1.945
    3CHTO   O58 1006   5.547   9.532   1.993
    3CHTO  H136 1007   5.487   9.571   2.055
    3CHTO   O51 1008   5.740   0.053   1.731
    3CHTO   C78 1009   5.774   0.143   1.853
    3CHTO  H150 1010   5.723   0.106   1.944
    3CHTO   C80 1011   5.727   0.288   1.827
    3CHTO  H152 1012   5.776   0.325   1.734
    3CHTO   O55 1013   5.585   0.284   1.806
    3CHTO  H134 1014   5.540   0.257   1.884
    3CHTO   C84 1015   5.765   0.382   1.948
    3CHTO  H156 1016   5.711   0.348   2.036
    3CHTO   N15 1017   5.725   0.526   1.926
    3CHTO  H143 1018   5.772   0.564   1.838
    3CHTO  H144 1019   5.619   0.532   1.915
    3CHTO   C87 1020   5.916   0.370   1.979
    3CHTO  H159 1021   5.975   0.416   1.900
    3CHTO   O53 1022   5.956   0.222   1.995
    3CHTO   C82 1023   5.925   0.140   1.881
    3CHTO  H154 1024   5.981   0.174   1.794
    3CHTO   C89 1025   5.971   9.995   1.911
    3CHTO   O59 1026   6.114   9.987   1.923
    3CHTO  H137 1027   6.142   0.031   2.001
    3CHTO   O45 1028   5.950   0.439   2.124
    3CHTO   C67 1029   6.050   0.543   2.121
    3CHTO  H124 1030   6.050   0.592   2.024
    3CHTO   C65 1031   6.021   0.649   2.232
    3CHTO  H122 1032   5.913   0.649   2.247
    3CHTO   O44 1033   6.062   0.778   2.184
    3CHTO  H102 1034   6.036   0.845   2.245
    3CHTO   C63 1035   6.086   0.604   2.367
    3CHTO  H120 1036   6.058   0.501   2.386
    3CHTO   N11 1037   6.037   0.673   2.491
    3CHTO  H108 1038   5.930   0.666   2.497
    3CHTO  H109 1039   6.065   0.776   2.490
    3CHTO   C61 1040   6.242   0.606   2.348
    3CHTO  H118 1041   6.284   0.537   2.424
    3CHTO   O40 1042   6.286   0.557   2.218
    3CHTO   C68 1043   6.194   0.477   2.139
    3CHTO  H125 1044   6.184   0.378   2.188
    3CHTO   C72 1045   6.261   0.452   2.001
    3CHTO   O48 1046   6.386   0.382   2.011
    3CHTO  H105 1047   6.450   0.438   2.051
    3CHTO   O38 1048   6.301   0.738   2.359
    3CHTO   C55 1049   6.441   0.740   2.393
    3CHTO  H112 1050   6.485   0.641   2.378
    3CHTO   C56 1051   6.460   0.791   2.541
    3CHTO  H113 1052   6.408   0.888   2.550
    3CHTO   O42 1053   6.393   0.701   2.631
    3CHTO  H100 1054   6.395   0.735   2.719
    3CHTO   C57 1055   6.613   0.806   2.577
    3CHTO  H114 1056   6.653   0.704   2.583
    3CHTO   N10 1057   6.638   0.870   2.708
    3CHTO  H106 1058   6.731   0.834   2.750
    3CHTO  H107 1059   6.558   0.848   2.777
    3CHTO   C58 1060   6.689   0.882   2.464
    3CHTO  H115 1061   6.661   0.990   2.467
    3CHTO   O37 1062   6.658   0.828   2.334
    3CHTO   C59 1063   6.520   0.834   2.298
    3CHTO  H116 1064   6.484   0.937   2.307
    3CHTO   C70 1065   6.506   0.795   2.150
    3CHTO   O46 1066   6.558   0.664   2.120
    3CHTO  H103 1067   6.549   0.647   2.029
    3CHTO   O39 1068   6.854   0.864   2.486
    3CHTO   C60 1069   6.935   0.909   2.375
    3CHTO  H117 1070   6.875   0.914   2.284
    3CHTO   C62 1071   6.990   1.052   2.401
    3CHTO  H119 1072   6.902   1.117   2.419
    3CHTO   O43 1073   7.072   1.053   2.521
    3CHTO  H101 1074   7.019   1.036   2.596
    3CHTO   C66 1075   7.068   1.101   2.270
    3CHTO  H123 1076   6.999   1.097   2.186
    3CHTO   N12 1077   7.111   1.243   2.280
    3CHTO  H110 1078   7.180   1.255   2.362
    3CHTO  H111 1079   7.157   1.274   2.187
    3CHTO   C69 1080   7.185   1.004   2.238
    3CHTO  H126 1081   7.263   1.012   2.317
    3CHTO   O41 1082   7.133   0.855   2.231
    3CHTO   C64 1083   7.050   0.809   2.348
    3CHTO  H121 1084   7.114   0.800   2.438
    3CHTO   C71 1085   6.998   0.667   2.311
    3CHTO   O47 1086   6.937   0.602   2.423
    3CHTO  H104 1087   6.908   0.516   2.398
    3CHTO   O34 1088   7.250   1.039   2.102
    3CHTO   C49 1089   7.272   1.006   1.955
    3CHTO   H91 1090   7.347   1.077   1.919
    3CHTO   C47 1091   7.141   1.025   1.875
    3CHTO   H89 1092   7.170   1.023   1.768
    3CHTO   O33 1093   7.087   1.155   1.906
    3CHTO   H70 1094   7.144   1.223   1.873
    3CHTO   C45 1095   7.038   0.905   1.906
    3CHTO   H87 1096   7.019   0.902   2.014
    3CHTO    N8 1097   6.908   0.921   1.836
    3CHTO   H75 1098   6.841   0.841   1.864
    3CHTO   H76 1099   6.863   1.016   1.863
    3CHTO   C43 1100   7.109   0.766   1.869
    3CHTO   H85 1101   7.038   0.688   1.894
    3CHTO   O29 1102   7.231   0.753   1.944
    3CHTO   C50 1103   7.327   0.861   1.938
    3CHTO   H92 1104   7.396   0.844   2.022
    3CHTO   C54 1105   7.419   0.850   1.814
    3CHTO   O36 1106   7.494   0.728   1.816
    3CHTO   H72 1107   7.556   0.729   1.886
    3CHTO   O27 1108   7.134   0.753   1.727
    3CHTO   C37 1109   7.158   0.656   1.624
    3CHTO   H79 1110   7.256   0.673   1.578
    3CHTO   C38 1111   7.159   0.512   1.684
    3CHTO   H80 1112   7.071   0.501   1.749
    3CHTO   O31 1113   7.278   0.503   1.766
    3CHTO   H68 1114   7.278   0.423   1.813
    3CHTO   C39 1115   7.158   0.400   1.574
    3CHTO   H81 1116   7.255   0.402   1.524
    3CHTO    N7 1117   7.143   0.261   1.632
    3CHTO   H73 1118   7.136   0.265   1.740
    3CHTO   H74 1119   7.056   0.211   1.592
    3CHTO   C40 1120   7.049   0.430   1.464
    3CHTO   H82 1121   6.950   0.417   1.508
    3CHTO   O26 1122   7.067   0.564   1.413
    3CHTO   C41 1123   7.048   0.666   1.516
    3CHTO   H83 1124   6.949   0.652   1.563
    3CHTO   C52 1125   7.049   0.806   1.450
    3CHTO   O35 1126   6.930   0.831   1.372
    3CHTO   H71 1127   6.856   0.839   1.429
    3CHTO   O28 1128   7.061   0.336   1.355
    3CHTO   C42 1129   6.975   0.325   1.237
    3CHTO   H84 1130   7.001   0.227   1.197
    3CHTO   C44 1131   7.005   0.427   1.123
    3CHTO   H86 1132   6.985   0.528   1.159
    3CHTO   O32 1133   7.145   0.415   1.093
    3CHTO   H69 1134   7.197   0.449   1.163
    3CHTO   C48 1135   6.915   0.401   0.996
    3CHTO   H90 1136   6.937   0.301   0.958
    3CHTO    N9 1137   6.944   0.495   0.882
    3CHTO   H77 1138   7.047   0.483   0.850
    3CHTO   H78 1139   6.926   0.597   0.912
    3CHTO   C51 1140   6.764   0.405   1.040
    3CHTO   H93 1141   6.740   0.504   1.078
    3CHTO   O30 1142   6.744   0.303   1.139
    3CHTO   C46 1143   6.821   0.321   1.268
    3CHTO   H88 1144   6.790   0.415   1.316
    3CHTO   C53 1145   6.779   0.200   1.355
    3CHTO   O72 1146   6.825   0.206   1.490
    3CHTO  H199 1147   6.781   0.276   1.535
    3CHTO   O22 1148   6.674   0.368   0.933
    3CHTO   C31 1149   6.531   0.406   0.929
    3CHTO   H59 1150   6.485   0.339   0.852
    3CHTO   C29 1151   6.452   0.384   1.060
    3CHTO   H57 1152   6.500   0.445   1.138
    3CHTO   O21 1153   6.465   0.246   1.100
    3CHTO   H37 1154   6.555   0.226   1.120
    3CHTO   C27 1155   6.300   0.426   1.048
    3CHTO   H55 1156   6.249   0.352   0.985
    3CHTO    N5 1157   6.232   0.429   1.179
    3CHTO   H43 1158   6.126   0.446   1.166
    3CHTO   H44 1159   6.274   0.506   1.242
    3CHTO   C25 1160   6.284   0.563   0.973
    3CHTO   H53 1161   6.313   0.646   1.040
    3CHTO   O17 1162   6.368   0.571   0.855
    3CHTO   C32 1163   6.508   0.551   0.878
    3CHTO   H60 1164   6.544   0.621   0.953
    3CHTO   C36 1165   6.582   0.578   0.745
    3CHTO   O25 1166   6.569   0.716   0.706
    3CHTO   H40 1167   6.616   0.730   0.626
    3CHTO   O15 1168   6.134   0.582   0.927
    3CHTO   C19 1169   6.037   0.686   0.895
    3CHTO   H47 1170   5.981   0.643   0.811
    3CHTO   C20 1171   5.937   0.715   1.011
    3CHTO   H48 1172   5.990   0.735   1.106
    3CHTO   O19 1173   5.860   0.595   1.031
    3CHTO   H35 1174   5.914   0.527   1.067
    3CHTO   C21 1175   5.843   0.839   0.982
    3CHTO   H49 1176   5.775   0.813   0.900
    3CHTO    N4 1177   5.758   0.876   1.099
    3CHTO   H41 1178   5.821   0.900   1.184
    3CHTO   H42 1179   5.694   0.793   1.125
    3CHTO   C22 1180   5.931   0.957   0.933
    3CHTO   H50 1181   6.002   0.980   1.012
    3CHTO   O14 1182   6.003   0.916   0.815
    3CHTO   C23 1183   6.103   0.816   0.842
    3CHTO   H51 1184   6.175   0.859   0.914
    3CHTO   C34 1185   6.179   0.790   0.711
    3CHTO   O23 1186   6.261   0.900   0.673
    3CHTO   H38 1187   6.207   0.973   0.647
    3CHTO   O16 1188   5.856   1.075   0.897
    3CHTO   C24 1189   5.952   1.201   0.851
    3CHTO   H52 1190   6.044   1.167   0.803
    3CHTO   C26 1191   5.987   1.288   0.972
    3CHTO   H54 1192   5.893   1.326   1.018
    3CHTO   O20 1193   6.055   1.207   1.069
    3CHTO   H36 1194   6.070   1.255   1.148
    3CHTO   C30 1195   6.076   1.409   0.930
    3CHTO   H58 1196   6.177   1.372   0.906
    3CHTO    N6 1197   6.096   1.504   1.043
    3CHTO   H45 1198   6.001   1.545   1.074
    3CHTO   H46 1199   6.162   1.585   1.013
    3CHTO   C33 1200   6.027   1.481   0.799
    3CHTO   H61 1201   5.948   1.554   0.823
    3CHTO   O18 1202   5.974   1.388   0.703
    3CHTO   C28 1203   5.878   1.291   0.749
    3CHTO   H56 1204   5.794   1.340   0.798
    3CHTO   C35 1205   5.827   1.210   0.627
    3CHTO   O24 1206   5.713   1.128   0.656
    3CHTO   H39 1207   5.639   1.182   0.675
    3CHTO    O9 1208   6.136   1.556   0.744
    3CHTO   C13 1209   6.136   1.720   0.762
    3CHTO   H26 1210   6.076   1.745   0.851
    3CHTO   C11 1211   6.078   1.788   0.630
    3CHTO   H24 1212   5.969   1.791   0.639
    3CHTO    O8 1213   6.112   1.707   0.515
    3CHTO    H3 1214   6.071   1.742   0.438
    3CHTO    C9 1215   6.133   1.933   0.617
    3CHTO   H22 1216   6.108   1.982   0.713
    3CHTO    N2 1217   6.064   2.014   0.514
    3CHTO   H10 1218   6.134   2.058   0.446
    3CHTO   H11 1219   6.003   2.091   0.561
    3CHTO    C7 1220   6.291   1.928   0.604
    3CHTO   H20 1221   6.325   2.021   0.655
    3CHTO    O4 1222   6.349   1.816   0.673
    3CHTO   C14 1223   6.284   1.772   0.792
    3CHTO   H27 1224   6.278   1.857   0.864
    3CHTO   C18 1225   6.375   1.665   0.858
    3CHTO   O13 1226   6.503   1.720   0.894
    3CHTO    H7 1227   6.551   1.741   0.817
    3CHTO    O2 1228   6.347   1.925   0.448
    3CHTO    C1 1229   6.460   2.012   0.423
    3CHTO   H14 1230   6.474   2.082   0.508
    3CHTO    C2 1231   6.440   2.097   0.291
    3CHTO   H15 1232   6.412   2.024   0.212
    3CHTO    O6 1233   6.330   2.188   0.311
    3CHTO    H1 1234   6.350   2.249   0.379
    3CHTO    C3 1235   6.574   2.176   0.248
    3CHTO   H16 1236   6.590   2.257   0.320
    3CHTO    N1 1237   6.562   2.238   0.112
    3CHTO    H8 1238   6.465   2.219   0.068
    3CHTO    H9 1239   6.578   2.345   0.119
    3CHTO    C4 1240   6.701   2.083   0.260
    3CHTO   H17 1241   6.699   2.010   0.179
    3CHTO    O1 1242   6.702   2.016   0.387
    3CHTO    C5 1243   6.591   1.928   0.410
    3CHTO   H18 1244   6.580   1.861   0.325
    3CHTO   C16 1245   6.628   1.845   0.535
    3CHTO   O11 1246   6.638   1.926   0.652
    3CHTO    H5 1247   6.663   1.872   0.725
    3CHTO    O3 1248   6.823   2.159   0.255
    3CHTO    C6 1249   6.948   2.082   0.262
    3CHTO   H19 1250   6.932   1.979   0.294
    3CHTO    C8 1251   7.018   2.078   0.123
    3CHTO   H21 1252   7.025   2.180   0.084
    3CHTO    O7 1253   6.934   2.000   0.036
    3CHTO    H2 1254   6.969   1.999   3.386
    3CHTO   C12 1255   7.164   2.017   0.134
    3CHTO   H25 1256   7.152   1.910   0.162
    3CHTO    N3 1257   7.237   2.019   0.003
    3CHTO   H12 1258   7.183   1.960   3.367
    3CHTO   H13 1259   7.247   2.121   3.405
    3CHTO   C15 1260   7.243   2.089   0.250
    3CHTO   H28 1261   7.263   2.194   0.225
    3CHTO   O10 1262   7.375   2.018   0.287
    3CHTO    H4 1263   7.435   2.023   0.215
    3CHTO    O5 1264   7.169   2.081   0.373
    3CHTO   C10 1265   7.042   2.147   0.369
    3CHTO   H23 1266   7.056   2.252   0.345
    3CHTO   C17 1267   6.981   2.141   0.510
    3CHTO   O12 1268   7.059   2.215   0.605
    3CHTO    H6 1269   7.050   2.307   0.588
    4CHTO  H203 1270   6.669   7.302   2.365
    4CHTO   O82 1271   6.762   7.315   2.361
    4CHTO  C123 1272   6.794   7.452   2.389
    4CHTO  H227 1273   6.755   7.478   2.489
    4CHTO   O77 1274   6.940   7.453   2.390
    4CHTO  C118 1275   6.999   7.580   2.422
    4CHTO  H222 1276   6.960   7.613   2.520
    4CHTO  C125 1277   7.155   7.561   2.434
    4CHTO   O84 1278   7.215   7.515   2.312
    4CHTO  H205 1279   7.208   7.582   2.246
    4CHTO  C114 1280   6.960   7.683   2.314
    4CHTO  H218 1281   6.997   7.648   2.218
    4CHTO  C116 1282   6.805   7.695   2.302
    4CHTO  H220 1283   6.765   7.740   2.396
    4CHTO   O79 1284   6.775   7.786   2.196
    4CHTO  H201 1285   6.682   7.802   2.191
    4CHTO  C120 1286   6.740   7.552   2.279
    4CHTO  H224 1287   6.773   7.519   2.178
    4CHTO   N21 1288   6.591   7.558   2.275
    4CHTO  H211 1289   6.554   7.636   2.340
    4CHTO  H212 1290   6.548   7.463   2.303
    4CHTO   O75 1291   7.026   7.805   2.353
    4CHTO  C112 1292   7.078   7.891   2.224
    4CHTO  H216 1293   6.995   7.903   2.153
    4CHTO   O73 1294   7.188   7.820   2.165
    4CHTO  C113 1295   7.233   7.877   2.042
    4CHTO  H217 1296   7.147   7.883   1.971
    4CHTO  C124 1297   7.335   7.782   1.979
    4CHTO   O83 1298   7.448   7.753   2.063
    4CHTO  H204 1299   7.500   7.831   2.073
    4CHTO  C109 1300   7.288   8.021   2.063
    4CHTO  H213 1301   7.381   8.012   2.120
    4CHTO  C110 1302   7.185   8.109   2.142
    4CHTO  H214 1303   7.103   8.135   2.074
    4CHTO   O78 1304   7.248   8.232   2.182
    4CHTO  H200 1305   7.269   8.284   2.106
    4CHTO  C111 1306   7.128   8.034   2.267
    4CHTO  H215 1307   7.209   8.022   2.340
    4CHTO   N19 1308   7.019   8.109   2.336
    4CHTO  H207 1309   6.936   8.123   2.269
    4CHTO  H208 1310   6.988   8.054   2.424
    4CHTO   O74 1311   7.318   8.079   1.932
    4CHTO  C115 1312   7.428   8.195   1.930
    4CHTO  H219 1313   7.402   8.276   1.999
    4CHTO   O76 1314   7.566   8.144   1.978
    4CHTO  C122 1315   7.621   8.036   1.900
    4CHTO  H226 1316   7.581   7.944   1.941
    4CHTO  C126 1317   7.775   8.032   1.926
    4CHTO   O85 1318   7.842   8.155   1.898
    4CHTO  H206 1319   7.933   8.146   1.916
    4CHTO  C121 1320   7.588   8.044   1.745
    4CHTO  H225 1321   7.677   8.009   1.688
    4CHTO   O81 1322   7.481   7.954   1.711
    4CHTO  H202 1323   7.471   7.949   1.618
    4CHTO  C119 1324   7.556   8.191   1.702
    4CHTO  H223 1325   7.645   8.248   1.728
    4CHTO  C117 1326   7.433   8.251   1.782
    4CHTO  H221 1327   7.336   8.225   1.741
    4CHTO   N20 1328   7.436   8.400   1.780
    4CHTO  H209 1329   7.439   8.435   1.677
    4CHTO  H210 1330   7.349   8.440   1.830
    4CHTO   O80 1331   7.549   8.211   1.547
    4CHTO  C103 1332   7.679   8.256   1.468
    4CHTO  H190 1333   7.718   8.350   1.508
    4CHTO  C101 1334   7.796   8.151   1.460
    4CHTO  H188 1335   7.753   8.053   1.436
    4CHTO   O68 1336   7.864   8.142   1.598
    4CHTO  H168 1337   7.927   8.073   1.598
    4CHTO   C99 1338   7.904   8.189   1.348
    4CHTO  H186 1339   7.959   8.279   1.382
    4CHTO   N17 1340   8.007   8.082   1.325
    4CHTO  H174 1341   8.053   8.055   1.419
    4CHTO  H175 1342   8.081   8.116   1.254
    4CHTO   C97 1343   7.834   8.230   1.215
    4CHTO  H184 1344   7.791   8.140   1.167
    4CHTO   O64 1345   7.734   8.331   1.239
    4CHTO  C104 1346   7.626   8.288   1.322
    4CHTO  H191 1347   7.578   8.199   1.282
    4CHTO  C108 1348   7.518   8.397   1.325
    4CHTO   O71 1349   7.459   8.418   1.196
    4CHTO  H171 1350   7.408   8.343   1.172
    4CHTO   O62 1351   7.929   8.294   1.127
    4CHTO   C91 1352   7.897   8.307   0.988
    4CHTO  H178 1353   7.789   8.294   0.974
    4CHTO   C92 1354   7.967   8.192   0.909
    4CHTO  H179 1355   8.068   8.178   0.951
    4CHTO   O66 1356   7.898   8.069   0.939
    4CHTO  H166 1357   7.942   7.996   0.900
    4CHTO   C93 1358   7.975   8.215   0.752
    4CHTO  H180 1359   7.874   8.201   0.712
    4CHTO   N16 1360   8.062   8.117   0.682
    4CHTO  H172 1361   8.104   8.045   0.752
    4CHTO  H173 1362   8.006   8.066   0.605
    4CHTO   C94 1363   8.021   8.362   0.722
    4CHTO  H181 1364   8.121   8.382   0.763
    4CHTO   O61 1365   7.931   8.453   0.787
    4CHTO   C95 1366   7.937   8.449   0.930
    4CHTO  H182 1367   8.039   8.471   0.962
    4CHTO  C106 1368   7.847   8.563   0.989
    4CHTO   O69 1369   7.710   8.548   0.951
    4CHTO  H169 1370   7.659   8.618   0.988
    4CHTO   O63 1371   8.022   8.398   0.559
    4CHTO   C96 1372   7.880   8.406   0.489
    4CHTO  H183 1373   7.804   8.371   0.559
    4CHTO   C98 1374   7.870   8.319   0.360
    4CHTO  H185 1375   7.946   8.354   0.288
    4CHTO   O67 1376   7.905   8.183   0.390
    4CHTO  H167 1377   7.845   8.146   0.451
    4CHTO  C102 1378   7.723   8.327   0.295
    4CHTO  H189 1379   7.661   8.261   0.358
    4CHTO   N18 1380   7.713   8.271   0.158
    4CHTO  H176 1381   7.682   8.347   0.087
    4CHTO  H177 1382   7.642   8.189   0.156
    4CHTO  C105 1383   7.667   8.472   0.308
    4CHTO  H192 1384   7.617   8.501   0.215
    4CHTO   O65 1385   7.766   8.573   0.334
    4CHTO  C100 1386   7.849   8.557   0.451
    4CHTO  H187 1387   7.946   8.604   0.428
    4CHTO  C107 1388   7.789   8.636   0.570
    4CHTO   O70 1389   7.782   8.776   0.542
    4CHTO  H170 1390   7.719   8.793   0.475
    4CHTO   O57 1391   7.558   8.462   0.422
    4CHTO   C85 1392   7.431   8.527   0.406
    4CHTO  H157 1393   7.434   8.580   0.308
    4CHTO   C83 1394   7.417   8.641   0.513
    4CHTO  H155 1395   7.489   8.720   0.488
    4CHTO   O56 1396   7.455   8.592   0.643
    4CHTO  H135 1397   7.545   8.566   0.644
    4CHTO   C81 1398   7.274   8.700   0.508
    4CHTO  H153 1399   7.256   8.738   0.407
    4CHTO   N14 1400   7.255   8.821   0.593
    4CHTO  H141 1401   7.341   8.838   0.655
    4CHTO  H142 1402   7.169   8.811   0.656
    4CHTO   C79 1403   7.169   8.586   0.536
    4CHTO  H151 1404   7.069   8.631   0.529
    4CHTO   O52 1405   7.177   8.486   0.430
    4CHTO   C86 1406   7.310   8.426   0.415
    4CHTO  H158 1407   7.319   8.361   0.504
    4CHTO   C90 1408   7.311   8.330   0.293
    4CHTO   O60 1409   7.290   8.400   0.170
    4CHTO  H138 1410   7.201   8.432   0.167
    4CHTO   O50 1411   7.182   8.524   0.665
    4CHTO   C73 1412   7.140   8.454   0.783
    4CHTO  H145 1413   7.074   8.518   0.843
    4CHTO   C74 1414   7.264   8.416   0.870
    4CHTO  H146 1415   7.319   8.509   0.892
    4CHTO   O54 1416   7.216   8.366   0.996
    4CHTO  H133 1417   7.288   8.348   1.054
    4CHTO   C75 1418   7.354   8.311   0.793
    4CHTO  H147 1419   7.393   8.359   0.702
    4CHTO   N13 1420   7.475   8.268   0.867
    4CHTO  H139 1421   7.447   8.223   0.961
    4CHTO  H140 1422   7.538   8.354   0.888
    4CHTO   C76 1423   7.265   8.187   0.747
    4CHTO  H148 1424   7.235   8.131   0.835
    4CHTO   O49 1425   7.146   8.232   0.674
    4CHTO   C77 1426   7.062   8.324   0.746
    4CHTO  H149 1427   7.026   8.277   0.837
    4CHTO   C88 1428   6.938   8.350   0.659
    4CHTO   O58 1429   6.843   8.443   0.726
    4CHTO  H136 1430   6.805   8.401   0.801
    4CHTO   O51 1431   7.342   8.098   0.635
    4CHTO   C78 1432   7.390   7.943   0.670
    4CHTO  H150 1433   7.365   7.877   0.583
    4CHTO   C80 1434   7.325   7.883   0.797
    4CHTO  H152 1435   7.347   7.950   0.883
    4CHTO   O55 1436   7.183   7.880   0.775
    4CHTO  H134 1437   7.160   7.822   0.705
    4CHTO   C84 1438   7.382   7.738   0.828
    4CHTO  H156 1439   7.350   7.672   0.748
    4CHTO   N15 1440   7.326   7.681   0.956
    4CHTO  H143 1441   7.403   7.662   1.028
    4CHTO  H144 1442   7.273   7.590   0.937
    4CHTO   C87 1443   7.537   7.740   0.828
    4CHTO  H159 1444   7.573   7.798   0.914
    4CHTO   O53 1445   7.586   7.804   0.696
    4CHTO   C82 1446   7.543   7.940   0.683
    4CHTO  H154 1447   7.576   7.999   0.768
    4CHTO   C89 1448   7.609   8.002   0.557
    4CHTO   O59 1449   7.752   7.999   0.568
    4CHTO  H137 1450   7.790   8.035   0.491
    4CHTO   O45 1451   7.600   7.583   0.843
    4CHTO   C67 1452   7.698   7.545   0.744
    4CHTO  H124 1453   7.755   7.632   0.711
    4CHTO   C65 1454   7.796   7.440   0.803
    4CHTO  H122 1455   7.830   7.481   0.898
    4CHTO   O44 1456   7.910   7.425   0.716
    4CHTO  H102 1457   7.974   7.370   0.757
    4CHTO   C63 1458   7.718   7.309   0.837
    4CHTO  H120 1459   7.635   7.334   0.903
    4CHTO   N11 1460   7.793   7.210   0.921
    4CHTO  H108 1461   7.727   7.131   0.952
    4CHTO  H109 1462   7.874   7.169   0.865
    4CHTO   C61 1463   7.653   7.249   0.705
    4CHTO  H118 1464   7.579   7.176   0.742
    4CHTO   O40 1465   7.578   7.349   0.630
    4CHTO   C68 1466   7.623   7.488   0.616
    4CHTO  H125 1467   7.531   7.549   0.603
    4CHTO   C72 1468   7.706   7.505   0.486
    4CHTO   O48 1469   7.738   7.641   0.455
    4CHTO  H105 1470   7.660   7.687   0.432
    4CHTO   O38 1471   7.746   7.184   0.615
    4CHTO   C55 1472   7.695   7.064   0.552
    4CHTO  H112 1473   7.585   7.061   0.558
    4CHTO   C56 1474   7.761   6.935   0.619
    4CHTO  H113 1475   7.870   6.946   0.611
    4CHTO   O42 1476   7.730   6.931   0.760
    4CHTO  H100 1477   7.637   6.925   0.773
    4CHTO   C57 1478   7.712   6.802   0.548
    4CHTO  H114 1479   7.607   6.790   0.575
    4CHTO   N10 1480   7.783   6.680   0.593
    4CHTO  H106 1481   7.732   6.637   0.678
    4CHTO  H107 1482   7.885   6.703   0.621
    4CHTO   C58 1483   7.722   6.816   0.393
    4CHTO  H115 1484   7.828   6.807   0.361
    4CHTO   O37 1485   7.668   6.940   0.345
    4CHTO   C59 1486   7.728   7.058   0.400
    4CHTO  H116 1487   7.835   7.057   0.383
    4CHTO   C70 1488   7.669   7.180   0.328
    4CHTO   O46 1489   7.698   7.183   0.188
    4CHTO  H103 1490   7.790   7.197   0.174
    4CHTO   O39 1491   7.630   6.701   0.324
    4CHTO   C60 1492   7.680   6.643   0.202
    4CHTO  H117 1493   7.723   6.721   0.140
    4CHTO   C62 1494   7.791   6.536   0.229
    4CHTO  H119 1495   7.880   6.592   0.268
    4CHTO   O43 1496   7.747   6.444   0.332
    4CHTO  H101 1497   7.740   6.489   0.414
    4CHTO   C66 1498   7.831   6.461   0.092
    4CHTO  H123 1499   7.864   6.536   0.020
    4CHTO   N12 1500   7.946   6.368   0.109
    4CHTO  H110 1501   7.921   6.291   0.180
    4CHTO  H111 1502   7.974   6.326   0.014
    4CHTO   C69 1503   7.704   6.392   0.036
    4CHTO  H126 1504   7.661   6.325   0.113
    4CHTO   O41 1505   7.604   6.503   0.001
    4CHTO   C64 1506   7.560   6.582   0.124
    4CHTO  H121 1507   7.504   6.515   0.192
    4CHTO   C71 1508   7.464   6.694   0.078
    4CHTO   O47 1509   7.345   6.640   0.020
    4CHTO  H104 1510   7.365   6.600   3.374
    4CHTO   O34 1511   7.731   6.306   3.342
    4CHTO   C49 1512   7.649   6.215   3.244
    4CHTO   H91 1513   7.594   6.282   3.177
    4CHTO   C47 1514   7.549   6.128   3.324
    4CHTO   H89 1515   7.487   6.073   3.249
    4CHTO   O33 1516   7.462   6.215   3.400
    4CHTO   H70 1517   7.406   6.264   3.342
    4CHTO   C45 1518   7.632   6.024   3.415
    4CHTO   H87 1519   7.701   6.082   0.041
    4CHTO    N8 1520   7.545   5.943   0.067
    4CHTO   H75 1521   7.485   6.009   0.130
    4CHTO   H76 1522   7.479   5.881   0.008
    4CHTO   C43 1523   7.726   5.934   3.320
    4CHTO   H85 1524   7.788   5.875   3.388
    4CHTO   O29 1525   7.806   6.017   3.234
    4CHTO   C50 1526   7.742   6.124   3.161
    4CHTO   H92 1527   7.823   6.189   3.123
    4CHTO   C54 1528   7.673   6.074   3.031
    4CHTO   O36 1529   7.769   6.020   2.939
    4CHTO   H72 1530   7.725   5.991   2.861
    4CHTO   O27 1531   7.653   5.838   3.241
    4CHTO   C37 1532   7.676   5.705   3.192
    4CHTO   H79 1533   7.629   5.693   3.094
    4CHTO   C38 1534   7.829   5.675   3.172
    4CHTO   H80 1535   7.882   5.707   3.263
    4CHTO   O31 1536   7.874   5.756   3.061
    4CHTO   H68 1537   7.874   5.847   3.085
    4CHTO   C39 1538   7.858   5.522   3.147
    4CHTO   H81 1539   7.813   5.495   3.051
    4CHTO    N7 1540   8.004   5.489   3.139
    4CHTO   H73 1541   8.054   5.518   3.231
    4CHTO   H74 1542   8.049   5.540   3.055
    4CHTO   C40 1543   7.785   5.437   3.258
    4CHTO   H82 1544   7.827   5.465   3.355
    4CHTO   O26 1545   7.645   5.466   3.250
    4CHTO   C41 1546   7.612   5.602   3.290
    4CHTO   H83 1547   7.649   5.621   3.392
    4CHTO   C52 1548   7.458   5.615   3.292
    4CHTO   O35 1549   7.395   5.518   3.385
    4CHTO   H71 1550   7.302   5.529   3.383
    4CHTO   O28 1551   7.797   5.294   3.243
    4CHTO   C42 1552   7.772   5.205   3.357
    4CHTO   H84 1553   7.778   5.105   3.313
    4CHTO   C44 1554   7.630   5.215   3.421
    4CHTO   H86 1555   7.614   5.318   0.017
    4CHTO   O32 1556   7.536   5.186   3.317
    4CHTO   H69 1557   7.448   5.199   3.347
    4CHTO   C48 1558   7.613   5.121   0.110
    4CHTO   H90 1559   7.620   5.017   0.077
    4CHTO    N9 1560   7.476   5.135   0.173
    4CHTO   H77 1561   7.462   5.236   0.207
    4CHTO   H78 1562   7.467   5.066   0.256
    4CHTO   C51 1563   7.730   5.150   0.211
    4CHTO   H93 1564   7.724   5.256   0.238
    4CHTO   O30 1565   7.854   5.118   0.147
    4CHTO   C46 1566   7.884   5.213   0.029
    4CHTO   H88 1567   7.889   5.314   0.068
    4CHTO   C53 1568   8.023   5.174   3.409
    4CHTO   O72 1569   8.027   5.037   3.365
    4CHTO  H199 1570   8.113   5.018   3.332
    4CHTO   O22 1571   7.726   5.066   0.328
    4CHTO   C31 1572   7.763   5.122   0.460
    4CHTO   H59 1573   7.846   5.194   0.441
    4CHTO   C29 1574   7.650   5.199   0.532
    4CHTO   H57 1575   7.565   5.130   0.544
    4CHTO   O21 1576   7.605   5.306   0.447
    4CHTO   H37 1577   7.527   5.345   0.482
    4CHTO   C27 1578   7.694   5.252   0.674
    4CHTO   H55 1579   7.771   5.329   0.660
    4CHTO    N5 1580   7.582   5.311   0.752
    4CHTO   H43 1581   7.488   5.298   0.701
    4CHTO   H44 1582   7.600   5.416   0.769
    4CHTO   C25 1583   7.764   5.137   0.755
    4CHTO   H53 1584   7.690   5.061   0.783
    4CHTO   O17 1585   7.868   5.073   0.676
    4CHTO   C32 1586   7.821   5.013   0.555
    4CHTO   H60 1587   7.743   4.940   0.577
    4CHTO   C36 1588   7.939   4.938   0.488
    4CHTO   O25 1589   7.985   4.829   0.569
    4CHTO   H40 1590   7.920   4.760   0.570
    4CHTO   O15 1591   7.830   5.192   0.879
    4CHTO   C19 1592   7.892   5.176   1.009
    4CHTO   H47 1593   7.817   5.118   1.067
    4CHTO   C20 1594   8.027   5.098   1.009
    4CHTO   H48 1595   8.102   5.147   0.946
    4CHTO   O19 1596   8.001   4.968   0.953
    4CHTO   H35 1597   7.981   4.975   0.861
    4CHTO   C21 1598   8.087   5.084   1.155
    4CHTO   H49 1599   8.024   5.015   1.212
    4CHTO    N4 1600   8.224   5.025   1.156
    4CHTO   H41 1601   8.292   5.089   1.101
    4CHTO   H42 1602   8.259   5.015   1.258
    4CHTO   C22 1603   8.081   5.220   1.231
    4CHTO   H50 1604   8.158   5.287   1.191
    4CHTO   O14 1605   7.951   5.281   1.218
    4CHTO   C23 1606   7.911   5.310   1.084
    4CHTO   H51 1607   7.990   5.371   1.038
    4CHTO   C34 1608   7.785   5.397   1.087
    4CHTO   O23 1609   7.678   5.333   1.157
    4CHTO   H38 1610   7.602   5.389   1.156
    4CHTO   O16 1611   8.100   5.201   1.373
    4CHTO   C24 1612   8.082   5.336   1.463
    4CHTO   H52 1613   8.039   5.418   1.405
    4CHTO   C26 1614   8.218   5.379   1.520
    4CHTO   H54 1615   8.261   5.295   1.578
    4CHTO   O20 1616   8.308   5.406   1.410
    4CHTO   H36 1617   8.277   5.479   1.359
    4CHTO   C30 1618   8.202   5.502   1.615
    4CHTO   H58 1619   8.176   5.591   1.555
    4CHTO    N6 1620   8.330   5.536   1.683
    4CHTO   H45 1621   8.362   5.454   1.745
    4CHTO   H46 1622   8.317   5.624   1.744
    4CHTO   C33 1623   8.085   5.483   1.717
    4CHTO   H61 1624   8.116   5.413   1.796
    4CHTO   O18 1625   7.968   5.430   1.652
    4CHTO   C28 1626   7.985   5.307   1.580
    4CHTO   H56 1627   8.028   5.231   1.644
    4CHTO   C35 1628   7.846   5.258   1.533
    4CHTO   O24 1629   7.776   5.353   1.453
    4CHTO   H39 1630   7.693   5.317   1.427
    4CHTO    O9 1631   8.056   5.607   1.784
    4CHTO   C13 1632   7.942   5.599   1.904
    4CHTO   H26 1633   7.966   5.511   1.968
    4CHTO   C11 1634   7.793   5.590   1.844
    4CHTO   H24 1635   7.767   5.483   1.835
    4CHTO    O8 1636   7.788   5.648   1.712
    4CHTO    H3 1637   7.842   5.599   1.653
    4CHTO    C9 1638   7.694   5.660   1.941
    4CHTO   H22 1639   7.711   5.613   2.039
    4CHTO    N2 1640   7.551   5.633   1.914
    4CHTO   H10 1641   7.538   5.581   1.820
    4CHTO   H11 1642   7.494   5.725   1.913
    4CHTO    C7 1643   7.733   5.813   1.950
    4CHTO   H20 1644   7.690   5.845   2.047
    4CHTO    O4 1645   7.876   5.835   1.952
    4CHTO   C14 1646   7.958   5.726   1.999
    4CHTO   H27 1647   7.924   5.698   2.101
    4CHTO   C18 1648   8.105   5.773   2.011
    4CHTO   O13 1649   8.118   5.877   2.109
    4CHTO    H7 1650   8.075   5.955   2.079
    4CHTO    O2 1651   7.667   5.905   1.823
    4CHTO    C1 1652   7.652   6.047   1.844
    4CHTO   H14 1653   7.608   6.089   1.751
    4CHTO    C2 1654   7.787   6.125   1.873
    4CHTO   H15 1655   7.837   6.073   1.957
    4CHTO    O6 1656   7.869   6.116   1.755
    4CHTO    H1 1657   7.954   6.154   1.772
    4CHTO    C3 1658   7.759   6.277   1.915
    4CHTO   H16 1659   7.714   6.330   1.830
    4CHTO    N1 1660   7.885   6.350   1.952
    4CHTO    H8 1661   7.933   6.300   2.035
    4CHTO    H9 1662   7.952   6.353   1.868
    4CHTO    C4 1663   7.650   6.278   2.028
    4CHTO   H17 1664   7.690   6.227   2.116
    4CHTO    O1 1665   7.531   6.214   1.981
    4CHTO    C5 1666   7.546   6.073   1.955
    4CHTO   H18 1667   7.580   6.024   2.047
    4CHTO   C16 1668   7.408   6.015   1.915
    4CHTO   O11 1669   7.314   6.026   2.023
    4CHTO    H5 1670   7.232   5.991   1.996
    4CHTO    O3 1671   7.607   6.412   2.063
    4CHTO    C6 1672   7.582   6.435   2.206
    4CHTO   H19 1673   7.583   6.343   2.265
    4CHTO    C8 1674   7.690   6.531   2.264
    4CHTO   H21 1675   7.696   6.618   2.199
    4CHTO    O7 1676   7.815   6.460   2.262
    4CHTO    H2 1677   7.885   6.517   2.287
    4CHTO   C12 1678   7.652   6.578   2.410
    4CHTO   H25 1679   7.660   6.489   2.476
    4CHTO    N3 1680   7.751   6.679   2.462
    4CHTO   H12 1681   7.723   6.710   2.562
    4CHTO   H13 1682   7.850   6.637   2.462
    4CHTO   C15 1683   7.504   6.629   2.413
    4CHTO   H28 1684   7.492   6.722   2.357
    4CHTO   O10 1685   7.449   6.650   2.557
    4CHTO    H4 1686   7.461   6.572   2.608
    4CHTO    O5 1687   7.415   6.529   2.361
    4CHTO   C10 1688   7.440   6.497   2.223
    4CHTO   H23 1689   7.433   6.588   2.164
    4CHTO   C17 1690   7.328   6.404   2.174
    4CHTO   O12 1691   7.321   6.281   2.248
    4CHTO    H6 1692   7.293   6.298   2.336
    5CHTO  H203 1693   7.985   3.055   1.610
    5CHTO   O82 1694   8.060   3.002   1.629
    5CHTO  C123 1695   8.041   2.925   1.749
    5CHTO  H227 1696   8.130   2.862   1.764
    5CHTO   O77 1697   8.035   3.027   1.854
    5CHTO  C118 1698   8.014   2.976   1.987
    5CHTO  H222 1699   8.093   2.904   2.012
    5CHTO  C125 1700   8.021   3.097   2.088
    5CHTO   O84 1701   8.151   3.156   2.089
    5CHTO  H205 1702   8.213   3.097   2.128
    5CHTO  C114 1703   7.877   2.906   1.992
    5CHTO  H218 1704   7.800   2.978   1.961
    5CHTO  C116 1705   7.873   2.788   1.891
    5CHTO  H220 1706   7.946   2.710   1.923
    5CHTO   O79 1707   7.743   2.728   1.897
    5CHTO  H201 1708   7.739   2.652   1.842
    5CHTO  C120 1709   7.909   2.839   1.746
    5CHTO  H224 1710   7.823   2.903   1.713
    5CHTO   N21 1711   7.917   2.727   1.649
    5CHTO  H211 1712   7.891   2.761   1.550
    5CHTO  H212 1713   8.016   2.683   1.649
    5CHTO   O75 1714   7.857   2.866   2.129
    5CHTO  C112 1715   7.702   2.891   2.179
    5CHTO  H216 1716   7.633   2.842   2.108
    5CHTO   O73 1717   7.681   3.033   2.185
    5CHTO  C113 1718   7.545   3.068   2.215
    5CHTO  H217 1719   7.478   3.016   2.144
    5CHTO  C124 1720   7.531   3.218   2.190
    5CHTO   O83 1721   7.395   3.263   2.195
    5CHTO  H204 1722   7.363   3.256   2.283
    5CHTO  C109 1723   7.513   3.025   2.361
    5CHTO  H213 1724   7.578   3.084   2.427
    5CHTO  C110 1725   7.540   2.873   2.379
    5CHTO  H214 1726   7.461   2.818   2.327
    5CHTO   O78 1727   7.527   2.840   2.519
    5CHTO  H200 1728   7.438   2.850   2.547
    5CHTO  C111 1729   7.679   2.831   2.324
    5CHTO  H215 1730   7.757   2.872   2.390
    5CHTO   N19 1731   7.699   2.683   2.321
    5CHTO  H207 1732   7.626   2.637   2.257
    5CHTO  H208 1733   7.799   2.660   2.287
    5CHTO   O74 1734   7.373   3.054   2.394
    5CHTO  C115 1735   7.350   3.154   2.520
    5CHTO  H219 1736   7.395   3.114   2.611
    5CHTO   O76 1737   7.420   3.294   2.496
    5CHTO  C122 1738   7.392   3.395   2.593
    5CHTO  H226 1739   7.437   3.488   2.557
    5CHTO  C126 1740   7.464   3.363   2.729
    5CHTO   O85 1741   7.606   3.353   2.712
    5CHTO  H206 1742   7.646   3.333   2.795
    5CHTO  C121 1743   7.238   3.419   2.611
    5CHTO  H225 1744   7.223   3.488   2.697
    5CHTO   O81 1745   7.188   3.487   2.494
    5CHTO  H202 1746   7.227   3.572   2.487
    5CHTO  C119 1747   7.160   3.287   2.639
    5CHTO  H223 1748   7.196   3.256   2.738
    5CHTO  C117 1749   7.195   3.168   2.541
    5CHTO  H221 1750   7.157   3.178   2.439
    5CHTO   N20 1751   7.135   3.040   2.592
    5CHTO  H209 1752   7.060   3.004   2.524
    5CHTO  H210 1753   7.211   2.965   2.608
    5CHTO   O80 1754   7.002   3.311   2.670
    5CHTO  C103 1755   6.903   3.376   2.556
    5CHTO  H190 1756   6.934   3.479   2.532
    5CHTO  C101 1757   6.885   3.296   2.420
    5CHTO  H188 1758   6.880   3.189   2.444
    5CHTO   O68 1759   7.005   3.319   2.333
    5CHTO  H168 1760   7.010   3.410   2.308
    5CHTO   C99 1761   6.751   3.336   2.341
    5CHTO  H186 1762   6.762   3.440   2.303
    5CHTO   N17 1763   6.723   3.249   2.222
    5CHTO  H174 1764   6.637   3.288   2.168
    5CHTO  H175 1765   6.706   3.147   2.253
    5CHTO   C97 1766   6.632   3.340   2.439
    5CHTO  H184 1767   6.613   3.238   2.476
    5CHTO   O64 1768   6.661   3.431   2.547
    5CHTO  C104 1769   6.766   3.386   2.633
    5CHTO  H191 1770   6.743   3.288   2.677
    5CHTO  C108 1771   6.778   3.484   2.751
    5CHTO   O71 1772   6.660   3.481   2.831
    5CHTO  H171 1773   6.588   3.519   2.784
    5CHTO   O62 1774   6.513   3.396   2.380
    5CHTO   C91 1775   6.390   3.353   2.442
    5CHTO  H178 1776   6.412   3.325   2.546
    5CHTO   C92 1777   6.340   3.224   2.369
    5CHTO  H179 1778   6.425   3.165   2.331
    5CHTO   O66 1779   6.276   3.139   2.466
    5CHTO  H166 1780   6.338   3.107   2.528
    5CHTO   C93 1781   6.234   3.251   2.256
    5CHTO  H180 1782   6.196   3.153   2.225
    5CHTO   N16 1783   6.293   3.308   2.132
    5CHTO  H172 1784   6.216   3.322   2.058
    5CHTO  H173 1785   6.342   3.402   2.154
    5CHTO   C94 1786   6.114   3.338   2.313
    5CHTO  H181 1787   6.080   3.413   2.242
    5CHTO   O61 1788   6.146   3.407   2.436
    5CHTO   C95 1789   6.278   3.464   2.444
    5CHTO  H182 1790   6.293   3.531   2.359
    5CHTO  C106 1791   6.291   3.552   2.573
    5CHTO   O69 1792   6.205   3.666   2.570
    5CHTO  H169 1793   6.234   3.726   2.505
    5CHTO   O63 1794   5.995   3.243   2.350
    5CHTO   C96 1795   5.919   3.178   2.227
    5CHTO  H183 1796   5.990   3.166   2.145
    5CHTO   C98 1797   5.797   3.258   2.174
    5CHTO  H185 1798   5.730   3.283   2.258
    5CHTO   O67 1799   5.846   3.384   2.125
    5CHTO  H167 1800   5.775   3.439   2.099
    5CHTO  C102 1801   5.717   3.178   2.059
    5CHTO  H189 1802   5.782   3.180   1.970
    5CHTO   N18 1803   5.590   3.242   2.017
    5CHTO  H176 1804   5.522   3.248   2.101
    5CHTO  H177 1805   5.544   3.185   1.937
    5CHTO  C105 1806   5.697   3.029   2.100
    5CHTO  H192 1807   5.619   3.023   2.177
    5CHTO   O65 1808   5.816   2.968   2.153
    5CHTO  C100 1809   5.869   3.035   2.268
    5CHTO  H187 1810   5.789   3.045   2.343
    5CHTO  C107 1811   5.979   2.947   2.332
    5CHTO   O70 1812   6.090   2.922   2.244
    5CHTO  H170 1813   6.137   3.002   2.230
    5CHTO   O57 1814   5.651   2.947   1.965
    5CHTO   C85 1815   5.583   2.821   1.978
    5CHTO  H157 1816   5.506   2.835   2.057
    5CHTO   C83 1817   5.681   2.712   2.033
    5CHTO  H155 1818   5.714   2.743   2.132
    5CHTO   O56 1819   5.799   2.710   1.949
    5CHTO  H135 1820   5.863   2.653   1.986
    5CHTO   C81 1821   5.607   2.576   2.045
    5CHTO  H153 1822   5.521   2.590   2.110
    5CHTO   N14 1823   5.688   2.472   2.114
    5CHTO  H141 1824   5.718   2.508   2.211
    5CHTO  H142 1825   5.775   2.449   2.057
    5CHTO   C79 1826   5.555   2.531   1.903
    5CHTO  H151 1827   5.497   2.440   1.919
    5CHTO   O52 1828   5.464   2.632   1.850
    5CHTO   C86 1829   5.519   2.768   1.842
    5CHTO  H158 1830   5.594   2.763   1.761
    5CHTO   C90 1831   5.407   2.862   1.791
    5CHTO   O60 1832   5.454   2.993   1.761
    5CHTO  H138 1833   5.511   2.990   1.687
    5CHTO   O50 1834   5.659   2.501   1.808
    5CHTO   C73 1835   5.677   2.427   1.687
    5CHTO  H145 1836   5.597   2.452   1.615
    5CHTO   C74 1837   5.674   2.273   1.712
    5CHTO  H146 1838   5.576   2.249   1.757
    5CHTO   O54 1839   5.677   2.205   1.585
    5CHTO  H133 1840   5.598   2.222   1.537
    5CHTO   C75 1841   5.793   2.233   1.807
    5CHTO  H147 1842   5.777   2.281   1.905
    5CHTO   N13 1843   5.803   2.089   1.837
    5CHTO  H139 1844   5.712   2.055   1.887
    5CHTO  H140 1845   5.814   2.033   1.746
    5CHTO   C76 1846   5.932   2.292   1.751
    5CHTO  H148 1847   5.961   2.235   1.662
    5CHTO   O49 1848   5.920   2.434   1.717
    5CHTO   C77 1849   5.815   2.464   1.624
    5CHTO  H149 1850   5.829   2.407   1.532
    5CHTO   C88 1851   5.824   2.612   1.585
    5CHTO   O58 1852   5.721   2.649   1.483
    5CHTO  H136 1853   5.741   2.606   1.402
    5CHTO   O51 1854   6.045   2.283   1.870
    5CHTO   C78 1855   6.174   2.377   1.855
    5CHTO  H150 1856   6.158   2.456   1.778
    5CHTO   C80 1857   6.297   2.293   1.816
    5CHTO  H152 1858   6.304   2.207   1.885
    5CHTO   O55 1859   6.271   2.242   1.684
    5CHTO  H134 1860   6.339   2.183   1.658
    5CHTO   C84 1861   6.431   2.377   1.821
    5CHTO  H156 1862   6.427   2.450   1.741
    5CHTO   N15 1863   6.553   2.292   1.798
    5CHTO  H143 1864   6.546   2.245   1.702
    5CHTO  H144 1865   6.641   2.353   1.801
    5CHTO   C87 1866   6.441   2.454   1.955
    5CHTO  H159 1867   6.454   2.382   2.037
    5CHTO   O53 1868   6.311   2.535   1.978
    5CHTO   C82 1869   6.198   2.448   1.989
    5CHTO  H154 1870   6.213   2.375   2.069
    5CHTO   C89 1871   6.073   2.531   2.027
    5CHTO   O59 1872   6.085   2.590   2.157
    5CHTO  H137 1873   6.151   2.657   2.155
    5CHTO   O45 1874   6.567   2.559   1.956
    5CHTO   C67 1875   6.596   2.612   2.087
    5CHTO  H124 1876   6.502   2.637   2.136
    5CHTO   C65 1877   6.672   2.508   2.177
    5CHTO  H122 1878   6.724   2.440   2.108
    5CHTO   O44 1879   6.571   2.434   2.249
    5CHTO  H102 1880   6.610   2.362   2.294
    5CHTO   C63 1881   6.788   2.573   2.263
    5CHTO  H120 1882   6.872   2.594   2.197
    5CHTO   N11 1883   6.851   2.483   2.366
    5CHTO  H108 1884   6.952   2.460   2.339
    5CHTO  H109 1885   6.849   2.529   2.462
    5CHTO   C61 1886   6.738   2.712   2.317
    5CHTO  H118 1887   6.823   2.757   2.371
    5CHTO   O40 1888   6.704   2.804   2.209
    5CHTO   C68 1889   6.676   2.747   2.077
    5CHTO  H125 1890   6.772   2.730   2.024
    5CHTO   C72 1891   6.598   2.853   1.995
    5CHTO   O48 1892   6.673   2.973   1.974
    5CHTO  H105 1893   6.746   2.956   1.917
    5CHTO   O38 1894   6.627   2.695   2.407
    5CHTO   C55 1895   6.556   2.810   2.457
    5CHTO  H112 1896   6.539   2.882   2.376
    5CHTO   C56 1897   6.634   2.876   2.579
    5CHTO  H113 1898   6.669   2.793   2.643
    5CHTO   O42 1899   6.753   2.942   2.532
    5CHTO  H100 1900   6.731   3.012   2.473
    5CHTO   C57 1901   6.543   2.975   2.664
    5CHTO  H114 1902   6.525   3.063   2.603
    5CHTO   N10 1903   6.607   3.019   2.790
    5CHTO  H106 1904   6.714   3.024   2.779
    5CHTO  H107 1905   6.570   3.117   2.818
    5CHTO   C58 1906   6.406   2.906   2.692
    5CHTO  H115 1907   6.424   2.814   2.752
    5CHTO   O37 1908   6.347   2.871   2.566
    5CHTO   C59 1909   6.415   2.763   2.502
    5CHTO  H116 1910   6.423   2.677   2.570
    5CHTO   C70 1911   6.332   2.718   2.381
    5CHTO   O46 1912   6.204   2.667   2.421
    5CHTO  H103 1913   6.156   2.642   2.344
    5CHTO   O39 1914   6.301   3.005   2.777
    5CHTO   C60 1915   6.162   3.000   2.741
    5CHTO  H117 1916   6.152   3.024   2.636
    5CHTO   C62 1917   6.095   2.860   2.762
    5CHTO  H119 1918   6.153   2.788   2.700
    5CHTO   O43 1919   6.106   2.818   2.899
    5CHTO  H101 1920   6.058   2.876   2.955
    5CHTO   C66 1921   5.945   2.869   2.706
    5CHTO  H123 1922   5.948   2.908   2.605
    5CHTO   N12 1923   5.879   2.737   2.695
    5CHTO  H110 1924   5.875   2.690   2.793
    5CHTO  H111 1925   5.931   2.675   2.624
    5CHTO   C69 1926   5.866   2.972   2.791
    5CHTO  H126 1927   5.860   2.938   2.897
    5CHTO   O41 1928   5.940   3.110   2.783
    5CHTO   C64 1929   6.085   3.109   2.820
    5CHTO  H121 1930   6.094   3.090   2.929
    5CHTO   C71 1931   6.144   3.249   2.790
    5CHTO   O47 1932   6.080   3.349   2.869
    5CHTO  H104 1933   6.117   3.433   2.849
    5CHTO   O34 1934   5.718   2.993   2.736
    5CHTO   C49 1935   5.624   3.122   2.732
    5CHTO   H91 1936   5.523   3.083   2.733
    5CHTO   C47 1937   5.646   3.200   2.600
    5CHTO   H89 1938   5.589   3.143   2.523
    5CHTO   O33 1939   5.785   3.201   2.562
    5CHTO   H70 1940   5.794   3.235   2.475
    5CHTO   C45 1941   5.596   3.354   2.610
    5CHTO   H87 1942   5.682   3.415   2.642
    5CHTO    N8 1943   5.551   3.404   2.478
    5CHTO   H75 1944   5.526   3.509   2.486
    5CHTO   H76 1945   5.629   3.391   2.405
    5CHTO   C43 1946   5.489   3.371   2.728
    5CHTO   H85 1947   5.459   3.476   2.729
    5CHTO   O29 1948   5.549   3.333   2.854
    5CHTO   C50 1949   5.640   3.220   2.853
    5CHTO   H92 1950   5.743   3.258   2.854
    5CHTO   C54 1951   5.626   3.145   2.987
    5CHTO   O36 1952   5.666   3.226   3.098
    5CHTO   H72 1953   5.604   3.294   3.112
    5CHTO   O27 1954   5.370   3.294   2.705
    5CHTO   C37 1955   5.232   3.308   2.740
    5CHTO   H79 1956   5.222   3.370   2.831
    5CHTO   C38 1957   5.153   3.380   2.626
    5CHTO   H80 1958   5.174   3.329   2.531
    5CHTO   O31 1959   5.203   3.515   2.618
    5CHTO   H68 1960   5.165   3.559   2.544
    5CHTO   C39 1961   4.997   3.378   2.653
    5CHTO   H81 1962   4.977   3.440   2.740
    5CHTO    N7 1963   4.917   3.436   2.539
    5CHTO   H73 1964   4.812   3.435   2.563
    5CHTO   H74 1965   4.935   3.379   2.449
    5CHTO   C40 1966   4.949   3.231   2.689
    5CHTO   H82 1967   4.959   3.169   2.599
    5CHTO   O26 1968   5.029   3.181   2.797
    5CHTO   C41 1969   5.171   3.168   2.768
    5CHTO   H83 1970   5.185   3.103   2.681
    5CHTO   C52 1971   5.239   3.100   2.890
    5CHTO   O35 1972   5.182   2.966   2.920
    5CHTO   H71 1973   5.093   2.975   2.949
    5CHTO   O28 1974   4.809   3.225   2.725
    5CHTO   C42 1975   4.755   3.209   2.861
    5CHTO   H84 1976   4.648   3.224   2.847
    5CHTO   C44 1977   4.801   3.316   2.967
    5CHTO   H86 1978   4.910   3.319   2.969
    5CHTO   O32 1979   4.754   3.444   2.920
    5CHTO   H69 1980   4.801   3.470   2.843
    5CHTO   C48 1981   4.750   3.283   3.113
    5CHTO   H90 1982   4.641   3.292   3.116
    5CHTO    N9 1983   4.802   3.381   3.214
    5CHTO   H77 1984   4.766   3.355   3.313
    5CHTO   H78 1985   4.771   3.481   3.188
    5CHTO   C51 1986   4.790   3.135   3.146
    5CHTO   H93 1987   4.899   3.127   3.134
    5CHTO   O30 1988   4.720   3.051   3.054
    5CHTO   C46 1989   4.773   3.063   2.915
    5CHTO   H88 1990   4.879   3.036   2.917
    5CHTO   C53 1991   4.697   2.962   2.826
    5CHTO   O72 1992   4.726   2.827   2.864
    5CHTO  H199 1993   4.689   2.808   2.948
    5CHTO   O22 1994   4.751   3.088   3.277
    5CHTO   C31 1995   4.833   2.985   3.344
    5CHTO   H59 1996   4.772   2.949   3.430
    5CHTO   C29 1997   4.865   2.861   3.257
    5CHTO   H57 1998   4.906   2.898   3.161
    5CHTO   O21 1999   4.740   2.797   3.225
    5CHTO   H37 2000   4.703   2.757   3.301
    5CHTO   C27 2001   4.970   2.762   3.321
    5CHTO   H55 2002   4.924   2.715   3.409
    5CHTO    N5 2003   5.011   2.655   3.227
    5CHTO   H43 2004   4.984   2.558   3.266
    5CHTO   H44 2005   5.118   2.658   3.207
    5CHTO   C25 2006   5.091   2.846   3.373
    5CHTO   H53 2007   5.135   2.899   3.287
    5CHTO   O17 2008   5.045   2.945   0.032
    5CHTO   C32 2009   4.962   3.046   3.408
    5CHTO   H60 2010   5.020   3.096   3.329
    5CHTO   C36 2011   4.928   3.154   0.077
    5CHTO   O25 2012   4.861   3.099   0.191
    5CHTO   H40 2013   4.840   3.168   0.252
    5CHTO   O15 2014   5.204   2.756   0.006
    5CHTO   C19 2015   5.343   2.785   0.039
    5CHTO   H47 2016   5.339   2.891   0.067
    5CHTO   C20 2017   5.397   2.702   0.160
    5CHTO   H48 2018   5.384   2.594   0.145
    5CHTO   O19 2019   5.316   2.739   0.274
    5CHTO   H35 2020   5.229   2.705   0.265
    5CHTO   C21 2021   5.551   2.729   0.187
    5CHTO   H49 2022   5.564   2.833   0.216
    5CHTO    N4 2023   5.606   2.648   0.299
    5CHTO   H41 2024   5.552   2.669   0.390
    5CHTO   H42 2025   5.710   2.671   0.313
    5CHTO   C22 2026   5.628   2.708   0.054
    5CHTO   H50 2027   5.613   2.604   0.022
    5CHTO   O14 2028   5.576   2.798   3.391
    5CHTO   C23 2029   5.440   2.776   3.353
    5CHTO   H51 2030   5.434   2.677   3.303
    5CHTO   C34 2031   5.405   2.883   3.248
    5CHTO   O23 2032   5.484   2.873   3.130
    5CHTO   H38 2033   5.460   2.795   3.083
    5CHTO   O16 2034   5.768   2.740   0.063
    5CHTO   C24 2035   5.861   2.648   3.401
    5CHTO   H52 2036   5.801   2.595   3.326
    5CHTO   C26 2037   5.938   2.545   0.050
    5CHTO   H54 2038   5.994   2.600   0.129
    5CHTO   O20 2039   5.841   2.460   0.114
    5CHTO   H36 2040   5.884   2.403   0.175
    5CHTO   C30 2041   6.040   2.465   3.401
    5CHTO   H58 2042   5.986   2.402   3.328
    5CHTO    N6 2043   6.121   2.371   0.047
    5CHTO   H45 2044   6.056   2.300   0.096
    5CHTO   H46 2045   6.176   2.426   0.122
    5CHTO   C33 2046   6.129   2.563   3.317
    5CHTO   H61 2047   6.192   2.623   3.385
    5CHTO   O18 2048   6.044   2.652   3.242
    5CHTO   C28 2049   5.961   2.737   3.324
    5CHTO   H56 2050   6.022   2.792   3.396
    5CHTO   C35 2051   5.886   2.839   3.235
    5CHTO   O24 2052   5.974   2.928   3.167
    5CHTO   H39 2053   5.924   2.987   3.114
    5CHTO    O9 2054   6.220   2.491   3.231
    5CHTO   C13 2055   6.308   2.579   3.134
    5CHTO   H26 2056   6.240   2.652   3.085
    5CHTO   C11 2057   6.378   2.484   3.028
    5CHTO   H24 2058   6.299   2.430   2.974
    5CHTO    O8 2059   6.461   2.385   3.091
    5CHTO    H3 2060   6.409   2.329   3.145
    5CHTO    C9 2061   6.451   2.576   2.926
    5CHTO   H22 2062   6.372   2.640   2.883
    5CHTO    N2 2063   6.506   2.502   2.810
    5CHTO   H10 2064   6.544   2.572   2.737
    5CHTO   H11 2065   6.429   2.440   2.766
    5CHTO    C7 2066   6.555   2.670   2.999
    5CHTO   H20 2067   6.576   2.748   2.922
    5CHTO    O4 2068   6.501   2.737   3.115
    5CHTO   C14 2069   6.417   2.667   3.210
    5CHTO   H27 2070   6.362   2.745   3.267
    5CHTO   C18 2071   6.507   2.592   3.311
    5CHTO   O13 2072   6.434   2.537   3.422
    5CHTO    H7 2073   6.400   2.607   0.038
    5CHTO    O2 2074   6.698   2.596   3.041
    5CHTO    C1 2075   6.812   2.678   3.009
    5CHTO   H14 2076   6.780   2.783   2.991
    5CHTO    C2 2077   6.893   2.628   2.883
    5CHTO   H15 2078   6.921   2.523   2.903
    5CHTO    O6 2079   6.807   2.633   2.768
    5CHTO    H1 2080   6.850   2.595   2.694
    5CHTO    C3 2081   7.025   2.717   2.861
    5CHTO   H16 2082   6.994   2.820   2.835
    5CHTO    N1 2083   7.110   2.667   2.748
    5CHTO    H8 2084   7.144   2.567   2.769
    5CHTO    H9 2085   7.195   2.732   2.733
    5CHTO    C4 2086   7.105   2.729   2.995
    5CHTO   H17 2087   7.152   2.633   3.017
    5CHTO    O1 2088   7.020   2.770   3.104
    5CHTO    C5 2089   6.908   2.684   3.132
    5CHTO   H18 2090   6.944   2.583   3.151
    5CHTO   C16 2091   6.840   2.738   3.260
    5CHTO   O11 2092   6.788   2.871   3.242
    5CHTO    H5 2093   6.746   2.899   3.321
    5CHTO    O3 2094   7.205   2.834   2.989
    5CHTO    C6 2095   7.325   2.811   3.069
    5CHTO   H19 2096   7.318   2.723   3.132
    5CHTO    C8 2097   7.448   2.789   2.975
    5CHTO   H21 2098   7.454   2.873   2.905
    5CHTO    O7 2099   7.425   2.667   2.902
    5CHTO    H2 2100   7.354   2.678   2.841
    5CHTO   C12 2101   7.582   2.782   3.059
    5CHTO   H25 2102   7.576   2.689   3.121
    5CHTO    N3 2103   7.702   2.767   2.970
    5CHTO   H12 2104   7.695   2.676   2.913
    5CHTO   H13 2105   7.792   2.766   3.030
    5CHTO   C15 2106   7.591   2.906   3.155
    5CHTO   H28 2107   7.605   2.999   3.100
    5CHTO   O10 2108   7.703   2.891   3.262
    5CHTO    H4 2109   7.693   2.811   3.309
    5CHTO    O5 2110   7.473   2.915   3.237
    5CHTO   C10 2111   7.351   2.932   3.163
    5CHTO   H23 2112   7.358   3.024   3.105
    5CHTO   C17 2113   7.238   2.952   3.265
    5CHTO   O12 2114   7.220   2.838   3.350
    5CHTO    H6 2115   7.186   2.766   3.301
    6CHTO  H203 2116   7.123   4.288   0.368
    6CHTO   O82 2117   7.043   4.295   0.319
    6CHTO  C123 2118   6.976   4.418   0.352
    6CHTO  H227 2119   7.043   4.502   0.328
    6CHTO   O77 2120   6.862   4.418   0.261
    6CHTO  C118 2121   6.778   4.534   0.271
    6CHTO  H222 2122   6.838   4.626   0.257
    6CHTO  C125 2123   6.670   4.527   0.156
    6CHTO   O84 2124   6.731   4.542   0.028
    6CHTO  H205 2125   6.762   4.630   0.017
    6CHTO  C114 2126   6.712   4.537   0.410
    6CHTO  H218 2127   6.655   4.444   0.423
    6CHTO  C116 2128   6.822   4.540   0.521
    6CHTO  H220 2129   6.874   4.639   0.517
    6CHTO   O79 2130   6.757   4.533   0.650
    6CHTO  H201 2131   6.820   4.543   0.718
    6CHTO  C120 2132   6.927   4.423   0.502
    6CHTO  H224 2133   6.873   4.328   0.526
    6CHTO   N21 2134   7.041   4.434   0.596
    6CHTO  H211 2135   7.062   4.538   0.619
    6CHTO  H212 2136   7.020   4.380   0.687
    6CHTO   O75 2137   6.624   4.651   0.408
    6CHTO  C112 2138   6.486   4.634   0.501
    6CHTO  H216 2139   6.514   4.632   0.607
    6CHTO   O73 2140   6.420   4.513   0.461
    6CHTO  C113 2141   6.307   4.478   0.542
    6CHTO  H217 2142   6.341   4.467   0.647
    6CHTO  C124 2143   6.254   4.341   0.496
    6CHTO   O83 2144   6.355   4.240   0.493
    6CHTO  H204 2145   6.318   4.159   0.465
    6CHTO  C109 2146   6.197   4.587   0.530
    6CHTO  H213 2147   6.165   4.588   0.424
    6CHTO  C110 2148   6.257   4.727   0.563
    6CHTO  H214 2149   6.284   4.730   0.669
    6CHTO   O78 2150   6.156   4.827   0.540
    6CHTO  H200 2151   6.087   4.819   0.603
    6CHTO  C111 2152   6.384   4.753   0.477
    6CHTO  H215 2153   6.355   4.750   0.371
    6CHTO   N19 2154   6.448   4.885   0.500
    6CHTO  H207 2155   6.550   4.874   0.537
    6CHTO  H208 2156   6.391   4.945   0.569
    6CHTO   O74 2157   6.078   4.559   0.612
    6CHTO  C115 2158   6.095   4.519   0.771
    6CHTO  H219 2159   6.181   4.453   0.788
    6CHTO   O76 2160   6.124   4.646   0.861
    6CHTO  C122 2161   6.022   4.747   0.851
    6CHTO  H226 2162   6.040   4.802   0.758
    6CHTO  C126 2163   6.046   4.850   0.967
    6CHTO   O85 2164   5.961   4.965   0.957
    6CHTO  H206 2165   5.981   5.024   1.027
    6CHTO  C121 2166   5.875   4.688   0.852
    6CHTO  H225 2167   5.812   4.750   0.919
    6CHTO   O81 2168   5.818   4.697   0.721
    6CHTO  H202 2169   5.726   4.677   0.724
    6CHTO  C119 2170   5.872   4.541   0.904
    6CHTO  H223 2171   5.913   4.544   1.005
    6CHTO  C117 2172   5.962   4.446   0.814
    6CHTO  H221 2173   5.915   4.418   0.720
    6CHTO   N20 2174   5.988   4.316   0.883
    6CHTO  H209 2175   5.895   4.267   0.908
    6CHTO  H210 2176   6.046   4.332   0.973
    6CHTO   O80 2177   5.726   4.487   0.930
    6CHTO  C103 2178   5.664   4.489   1.074
    6CHTO  H190 2179   5.736   4.451   1.147
    6CHTO  C101 2180   5.605   4.625   1.128
    6CHTO  H188 2181   5.536   4.665   1.053
    6CHTO   O68 2182   5.718   4.726   1.147
    6CHTO  H168 2183   5.682   4.810   1.172
    6CHTO   C99 2184   5.523   4.599   1.263
    6CHTO  H186 2185   5.591   4.553   1.338
    6CHTO   N17 2186   5.463   4.721   1.326
    6CHTO  H174 2187   5.415   4.695   1.419
    6CHTO  H175 2188   5.539   4.796   1.341
    6CHTO   C97 2189   5.414   4.492   1.233
    6CHTO  H184 2190   5.349   4.534   1.156
    6CHTO   O64 2191   5.478   4.370   1.190
    6CHTO  C104 2192   5.547   4.382   1.065
    6CHTO  H191 2193   5.477   4.414   0.988
    6CHTO  C108 2194   5.598   4.244   1.022
    6CHTO   O71 2195   5.692   4.189   1.114
    6CHTO  H171 2196   5.722   4.105   1.083
    6CHTO   O62 2197   5.341   4.445   1.349
    6CHTO   C91 2198   5.197   4.445   1.354
    6CHTO  H178 2199   5.170   4.536   1.408
    6CHTO   C92 2200   5.154   4.325   1.446
    6CHTO  H179 2201   5.211   4.328   1.539
    6CHTO   O66 2202   5.017   4.344   1.486
    6CHTO  H166 2203   4.960   4.347   1.412
    6CHTO   C93 2204   5.165   4.185   1.373
    6CHTO  H180 2205   5.091   4.117   1.419
    6CHTO   N16 2206   5.296   4.119   1.394
    6CHTO  H172 2207   5.299   4.024   1.344
    6CHTO  H173 2208   5.314   4.106   1.500
    6CHTO   C94 2209   5.131   4.200   1.220
    6CHTO  H181 2210   5.221   4.219   1.160
    6CHTO   O61 2211   5.044   4.312   1.199
    6CHTO   C95 2212   5.111   4.437   1.217
    6CHTO  H182 2213   5.174   4.455   1.130
    6CHTO  C106 2214   5.004   4.552   1.214
    6CHTO   O69 2215   4.939   4.559   1.087
    6CHTO  H169 2216   4.999   4.590   1.022
    6CHTO   O63 2217   5.059   4.074   1.168
    6CHTO   C96 2218   5.150   3.990   1.073
    6CHTO  H183 2219   5.253   4.001   1.106
    6CHTO   C98 2220   5.143   4.026   0.922
    6CHTO  H185 2221   5.040   4.012   0.887
    6CHTO   O67 2222   5.171   4.166   0.904
    6CHTO  H167 2223   5.158   4.191   0.814
    6CHTO  C102 2224   5.246   3.938   0.835
    6CHTO  H189 2225   5.339   3.998   0.831
    6CHTO   N18 2226   5.208   3.917   0.693
    6CHTO  H176 2227   5.114   3.966   0.671
    6CHTO  H177 2228   5.285   3.955   0.627
    6CHTO  C105 2229   5.282   3.805   0.908
    6CHTO  H192 2230   5.308   3.728   0.835
    6CHTO   O65 2231   5.177   3.751   0.991
    6CHTO  C100 2232   5.111   3.838   1.086
    6CHTO  H187 2233   5.003   3.831   1.066
    6CHTO  C107 2234   5.134   3.787   1.230
    6CHTO   O70 2235   5.061   3.666   1.252
    6CHTO  H170 2236   5.076   3.636   1.339
    6CHTO   O57 2237   5.416   3.843   0.992
    6CHTO   C85 2238   5.516   3.742   1.014
    6CHTO  H157 2239   5.494   3.660   0.942
    6CHTO   C83 2240   5.499   3.679   1.156
    6CHTO  H155 2241   5.399   3.636   1.162
    6CHTO   O56 2242   5.505   3.784   1.255
    6CHTO  H135 2243   5.486   3.748   1.340
    6CHTO   C81 2244   5.604   3.566   1.174
    6CHTO  H153 2245   5.587   3.493   1.095
    6CHTO   N14 2246   5.586   3.488   1.299
    6CHTO  H141 2247   5.552   3.389   1.278
    6CHTO  H142 2248   5.516   3.536   1.365
    6CHTO   C79 2249   5.751   3.622   1.157
    6CHTO  H151 2250   5.818   3.536   1.154
    6CHTO   O52 2251   5.765   3.691   1.029
    6CHTO   C86 2252   5.664   3.794   1.001
    6CHTO  H158 2253   5.685   3.874   1.075
    6CHTO   C90 2254   5.688   3.857   0.862
    6CHTO   O60 2255   5.813   3.927   0.859
    6CHTO  H138 2256   5.826   3.964   0.774
    6CHTO   O50 2257   5.794   3.710   1.263
    6CHTO   C73 2258   5.851   3.730   1.393
    6CHTO  H145 2259   5.846   3.637   1.451
    6CHTO   C74 2260   5.772   3.841   1.468
    6CHTO  H146 2261   5.668   3.807   1.476
    6CHTO   O54 2262   5.823   3.851   1.603
    6CHTO  H133 2263   5.803   3.773   1.651
    6CHTO   C75 2264   5.784   3.976   1.386
    6CHTO  H147 2265   5.739   3.960   1.287
    6CHTO   N13 2266   5.708   4.088   1.446
    6CHTO  H139 2267   5.603   4.063   1.451
    6CHTO  H140 2268   5.743   4.107   1.546
    6CHTO   C76 2269   5.939   4.011   1.363
    6CHTO  H148 2270   5.983   4.036   1.460
    6CHTO   O49 2271   6.011   3.896   1.306
    6CHTO   C77 2272   6.000   3.774   1.380
    6CHTO  H149 2273   6.041   3.788   1.480
    6CHTO   C88 2274   6.086   3.665   1.315
    6CHTO   O58 2275   6.230   3.704   1.315
    6CHTO  H136 2276   6.281   3.636   1.274
    6CHTO   O51 2277   5.958   4.128   1.251
    6CHTO   C78 2278   6.047   4.249   1.303
    6CHTO  H150 2279   6.075   4.235   1.409
    6CHTO   C80 2280   5.968   4.381   1.290
    6CHTO  H152 2281   5.938   4.394   1.183
    6CHTO   O55 2282   5.849   4.368   1.369
    6CHTO  H134 2283   5.793   4.442   1.357
    6CHTO   C84 2284   6.054   4.505   1.335
    6CHTO  H156 2285   6.077   4.493   1.441
    6CHTO   N15 2286   5.981   4.636   1.322
    6CHTO  H143 2287   6.043   4.716   1.356
    6CHTO  H144 2288   5.892   4.634   1.382
    6CHTO   C87 2289   6.186   4.505   1.256
    6CHTO  H159 2290   6.165   4.521   1.150
    6CHTO   O53 2291   6.257   4.367   1.276
    6CHTO   C82 2292   6.179   4.259   1.223
    6CHTO  H154 2293   6.159   4.276   1.117
    6CHTO   C89 2294   6.265   4.131   1.233
    6CHTO   O59 2295   6.215   4.028   1.147
    6CHTO  H137 2296   6.271   3.952   1.155
    6CHTO   O45 2297   6.285   4.619   1.309
    6CHTO   C67 2298   6.408   4.632   1.236
    6CHTO  H124 2299   6.461   4.536   1.239
    6CHTO   C65 2300   6.387   4.674   1.086
    6CHTO  H122 2301   6.283   4.709   1.079
    6CHTO   O44 2302   6.402   4.556   1.006
    6CHTO  H102 2303   6.334   4.494   1.026
    6CHTO   C63 2304   6.473   4.800   1.044
    6CHTO  H120 2305   6.434   4.887   1.096
    6CHTO   N11 2306   6.461   4.844   0.901
    6CHTO  H108 2307   6.409   4.771   0.843
    6CHTO  H109 2308   6.558   4.862   0.859
    6CHTO   C61 2309   6.621   4.780   1.096
    6CHTO  H118 2310   6.671   4.877   1.082
    6CHTO   O40 2311   6.627   4.750   1.239
    6CHTO   C68 2312   6.502   4.733   1.312
    6CHTO  H125 2313   6.452   4.832   1.321
    6CHTO   C72 2314   6.534   4.685   1.455
    6CHTO   O48 2315   6.609   4.780   1.531
    6CHTO  H105 2316   6.695   4.789   1.495
    6CHTO   O38 2317   6.690   4.677   1.023
    6CHTO   C55 2318   6.829   4.657   1.057
    6CHTO  H112 2319   6.847   4.684   1.162
    6CHTO   C56 2320   6.925   4.737   0.959
    6CHTO  H113 2321   6.902   4.703   0.857
    6CHTO   O42 2322   6.895   4.878   0.964
    6CHTO  H100 2323   6.910   4.912   1.050
    6CHTO   C57 2324   7.076   4.708   0.994
    6CHTO  H114 2325   7.096   4.757   1.090
    6CHTO   N10 2326   7.172   4.767   0.896
    6CHTO  H106 2327   7.130   4.768   0.797
    6CHTO  H107 2328   7.265   4.711   0.894
    6CHTO   C58 2329   7.100   4.555   1.011
    6CHTO  H115 2330   7.102   4.507   0.910
    6CHTO   O37 2331   7.001   4.491   1.093
    6CHTO   C59 2332   6.866   4.507   1.047
    6CHTO  H116 2333   6.857   4.472   0.944
    6CHTO   C70 2334   6.773   4.419   1.133
    6CHTO   O46 2335   6.773   4.451   1.272
    6CHTO  H103 2336   6.735   4.536   1.285
    6CHTO   O39 2337   7.236   4.531   1.088
    6CHTO   C60 2338   7.299   4.406   1.055
    6CHTO  H117 2339   7.226   4.339   1.011
    6CHTO   C62 2340   7.413   4.428   0.951
    6CHTO  H119 2341   7.364   4.470   0.860
    6CHTO   O43 2342   7.507   4.525   1.001
    6CHTO  H101 2343   7.572   4.543   0.936
    6CHTO   C66 2344   7.480   4.286   0.915
    6CHTO  H123 2345   7.402   4.219   0.881
    6CHTO   N12 2346   7.577   4.297   0.803
    6CHTO  H110 2347   7.617   4.200   0.780
    6CHTO  H111 2348   7.655   4.367   0.829
    6CHTO   C69 2349   7.540   4.226   1.045
    6CHTO  H126 2350   7.617   4.294   1.087
    6CHTO   O41 2351   7.424   4.208   1.149
    6CHTO   C64 2352   7.352   4.338   1.184
    6CHTO  H121 2353   7.421   4.407   1.236
    6CHTO   C71 2354   7.234   4.306   1.279
    6CHTO   O47 2355   7.278   4.240   1.398
    6CHTO  H104 2356   7.204   4.222   1.453
    6CHTO   O34 2357   7.604   4.089   1.024
    6CHTO   C49 2358   7.702   3.987   0.973
    6CHTO   H91 2359   7.654   3.936   0.889
    6CHTO   C47 2360   7.731   3.887   1.087
    6CHTO   H89 2361   7.790   3.805   1.038
    6CHTO   O33 2362   7.609   3.830   1.137
    6CHTO   H70 2363   7.567   3.780   1.071
    6CHTO   C45 2364   7.815   3.955   1.208
    6CHTO   H87 2365   7.744   3.985   1.286
    6CHTO    N8 2366   7.910   3.856   1.265
    6CHTO   H75 2367   7.881   3.830   1.366
    6CHTO   H76 2368   7.917   3.767   1.205
    6CHTO   C43 2369   7.882   4.094   1.159
    6CHTO   H85 2370   7.800   4.166   1.159
    6CHTO   O29 2371   7.937   4.077   1.027
    6CHTO   C50 2372   7.838   4.049   0.926
    6CHTO   H92 2373   7.816   4.144   0.875
    6CHTO   C54 2374   7.901   3.963   0.814
    6CHTO   O36 2375   8.011   4.029   0.751
    6CHTO   H72 2376   8.047   3.973   0.684
    6CHTO   O27 2377   7.977   4.151   1.251
    6CHTO   C37 2378   8.055   4.271   1.248
    6CHTO   H79 2379   8.131   4.265   1.168
    6CHTO   C38 2380   7.968   4.397   1.219
    6CHTO   H80 2381   7.883   4.397   1.289
    6CHTO   O31 2382   7.918   4.386   1.085
    6CHTO   H68 2383   7.857   4.455   1.067
    6CHTO   C39 2384   8.050   4.531   1.238
    6CHTO   H81 2385   8.125   4.535   1.158
    6CHTO    N7 2386   7.966   4.655   1.224
    6CHTO   H73 2387   7.922   4.659   1.126
    6CHTO   H74 2388   7.888   4.655   1.299
    6CHTO   C40 2389   8.129   4.530   1.375
    6CHTO   H82 2390   8.060   4.541   1.458
    6CHTO   O26 2391   8.207   4.410   1.385
    6CHTO   C41 2392   8.128   4.287   1.384
    6CHTO   H83 2393   8.053   4.291   1.465
    6CHTO   C52 2394   8.223   4.169   1.413
    6CHTO   O35 2395   8.286   4.177   1.546
    6CHTO   H71 2396   8.344   4.105   1.559
    6CHTO   O28 2397   8.227   4.637   1.380
    6CHTO   C42 2398   8.278   4.690   1.507
    6CHTO   H84 2399   8.355   4.761   1.475
    6CHTO   C44 2400   8.351   4.588   1.601
    6CHTO   H86 2401   8.281   4.508   1.626
    6CHTO   O32 2402   8.459   4.531   1.526
    6CHTO   H69 2403   8.501   4.463   1.575
    6CHTO   C48 2404   8.401   4.654   1.737
    6CHTO   H90 2405   8.482   4.723   1.713
    6CHTO    N9 2406   8.459   4.553   1.832
    6CHTO   H77 2407   8.494   4.603   1.921
    6CHTO   H78 2408   8.385   4.479   1.857
    6CHTO   C51 2409   8.283   4.737   1.801
    6CHTO   H93 2410   8.204   4.666   1.827
    6CHTO   O30 2411   8.238   4.833   1.705
    6CHTO   C46 2412   8.172   4.770   1.587
    6CHTO   H88 2413   8.094   4.703   1.622
    6CHTO   C53 2414   8.110   4.884   1.504
    6CHTO   O72 2415   8.005   4.950   1.576
    6CHTO  H199 2416   7.931   4.893   1.585
    6CHTO   O22 2417   8.323   4.813   1.917
    6CHTO   C31 2418   8.225   4.884   2.003
    6CHTO   H59 2419   8.282   4.913   2.094
    6CHTO   C29 2420   8.168   5.014   1.942
    6CHTO   H57 2421   8.117   4.986   1.848
    6CHTO   O21 2422   8.279   5.098   1.905
    6CHTO   H37 2423   8.323   5.130   1.981
    6CHTO   C27 2424   8.065   5.086   2.037
    6CHTO   H55 2425   8.119   5.124   2.125
    6CHTO    N5 2426   7.999   5.201   1.970
    6CHTO   H43 2427   7.943   5.167   1.884
    6CHTO   H44 2428   8.072   5.274   1.940
    6CHTO   C25 2429   7.959   4.983   2.089
    6CHTO   H53 2430   7.895   4.950   2.006
    6CHTO   O17 2431   8.024   4.865   2.145
    6CHTO   C32 2432   8.108   4.793   2.053
    6CHTO   H60 2433   8.049   4.761   1.967
    6CHTO   C36 2434   8.162   4.668   2.126
    6CHTO   O25 2435   8.057   4.577   2.161
    6CHTO   H40 2436   8.021   4.538   2.084
    6CHTO   O15 2437   7.868   5.044   2.203
    6CHTO   C19 2438   7.807   5.154   2.277
    6CHTO   H47 2439   7.751   5.103   2.357
    6CHTO   C20 2440   7.911   5.251   2.341
    6CHTO   H48 2441   7.977   5.297   2.265
    6CHTO   O19 2442   7.994   5.173   2.428
    6CHTO   H35 2443   7.944   5.138   2.499
    6CHTO   C21 2444   7.841   5.369   2.420
    6CHTO   H49 2445   7.795   5.328   2.510
    6CHTO    N4 2446   7.937   5.473   2.468
    6CHTO   H41 2447   8.009   5.428   2.534
    6CHTO   H42 2448   7.989   5.516   2.384
    6CHTO   C22 2449   7.726   5.431   2.336
    6CHTO   H50 2450   7.769   5.489   2.254
    6CHTO   O14 2451   7.639   5.328   2.284
    6CHTO   C23 2452   7.703   5.236   2.195
    6CHTO   H51 2453   7.750   5.293   2.114
    6CHTO   C34 2454   7.591   5.149   2.135
    6CHTO   O23 2455   7.638   5.072   2.025
    6CHTO   H38 2456   7.568   5.019   1.991
    6CHTO   O16 2457   7.640   5.512   2.418
    6CHTO   C24 2458   7.541   5.605   2.336
    6CHTO   H52 2459   7.539   5.578   2.230
    6CHTO   C26 2460   7.585   5.752   2.352
    6CHTO   H54 2461   7.599   5.773   2.460
    6CHTO   O20 2462   7.713   5.769   2.288
    6CHTO   H36 2463   7.779   5.722   2.335
    6CHTO   C30 2464   7.478   5.852   2.297
    6CHTO   H58 2465   7.473   5.845   2.187
    6CHTO    N6 2466   7.514   5.993   2.329
    6CHTO   H45 2467   7.518   6.007   2.436
    6CHTO   H46 2468   7.440   6.060   2.287
    6CHTO   C33 2469   7.336   5.814   2.351
    6CHTO   H61 2470   7.334   5.827   2.460
    6CHTO   O18 2471   7.312   5.675   2.321
    6CHTO   C28 2472   7.398   5.585   2.391
    6CHTO   H56 2473   7.397   5.606   2.498
    6CHTO   C35 2474   7.344   5.441   2.371
    6CHTO   O24 2475   7.336   5.400   2.234
    6CHTO   H39 2476   7.269   5.450   2.190
    6CHTO    O9 2477   7.230   5.897   2.300
    6CHTO   C13 2478   7.095   5.900   2.397
    6CHTO   H26 2479   7.122   5.957   2.488
    6CHTO   C11 2480   7.043   5.754   2.431
    6CHTO   H24 2481   7.121   5.704   2.491
    6CHTO    O8 2482   7.025   5.676   2.311
    6CHTO    H3 2483   7.004   5.588   2.333
    6CHTO    C9 2484   6.915   5.767   2.518
    6CHTO   H22 2485   6.946   5.825   2.606
    6CHTO    N2 2486   6.869   5.637   2.574
    6CHTO   H10 2487   6.950   5.589   2.627
    6CHTO   H11 2488   6.834   5.573   2.494
    6CHTO    C7 2489   6.805   5.848   2.441
    6CHTO   H20 2490   6.728   5.866   2.519
    6CHTO    O4 2491   6.854   5.976   2.395
    6CHTO   C14 2492   6.981   5.985   2.327
    6CHTO   H27 2493   7.011   6.092   2.332
    6CHTO   C18 2494   6.966   5.950   2.176
    6CHTO   O13 2495   6.873   6.036   2.110
    6CHTO    H7 2496   6.865   6.011   2.020
    6CHTO    O2 2497   6.737   5.767   2.315
    6CHTO    C1 2498   6.593   5.776   2.303
    6CHTO   H14 2499   6.567   5.741   2.202
    6CHTO    C2 2500   6.528   5.921   2.324
    6CHTO   H15 2501   6.561   5.957   2.422
    6CHTO    O6 2502   6.579   6.008   2.222
    6CHTO    H1 2503   6.552   5.979   2.137
    6CHTO    C3 2504   6.368   5.912   2.322
    6CHTO   H16 2505   6.336   5.879   2.222
    6CHTO    N1 2506   6.301   6.044   2.348
    6CHTO    H8 2507   6.240   6.040   2.437
    6CHTO    H9 2508   6.374   6.123   2.357
    6CHTO    C4 2509   6.320   5.799   2.421
    6CHTO   H17 2510   6.346   5.828   2.523
    6CHTO    O1 2511   6.383   5.674   2.387
    6CHTO    C5 2512   6.526   5.673   2.400
    6CHTO   H18 2513   6.554   5.699   2.502
    6CHTO   C16 2514   6.573   5.529   2.371
    6CHTO   O11 2515   6.526   5.438   2.471
    6CHTO    H5 2516   6.554   5.351   2.451
    6CHTO    O3 2517   6.179   5.773   2.411
    6CHTO    C6 2518   6.119   5.704   2.526
    6CHTO   H19 2519   6.193   5.652   2.587
    6CHTO    C8 2520   6.042   5.805   2.617
    6CHTO   H21 2521   5.974   5.862   2.554
    6CHTO    O7 2522   6.140   5.892   2.675
    6CHTO    H2 2523   6.098   5.960   2.724
    6CHTO   C12 2524   5.958   5.728   2.727
    6CHTO   H25 2525   6.032   5.680   2.795
    6CHTO    N3 2526   5.877   5.823   2.811
    6CHTO   H12 2527   5.943   5.892   2.863
    6CHTO   H13 2528   5.807   5.877   2.749
    6CHTO   C15 2529   5.871   5.616   2.660
    6CHTO   H28 2530   5.792   5.659   2.598
    6CHTO   O10 2531   5.806   5.517   2.763
    6CHTO    H4 2532   5.872   5.481   2.819
    6CHTO    O5 2533   5.954   5.529   2.581
    6CHTO   C10 2534   6.021   5.595   2.473
    6CHTO   H23 2535   5.947   5.641   2.408
    6CHTO   C17 2536   6.095   5.488   2.390
    6CHTO   O12 2537   6.002   5.400   2.326
    6CHTO    H6 2538   6.050   5.336   2.276
    7CHTO  H203 2539   4.921   1.693   2.668
    7CHTO   O82 2540   4.949   1.781   2.680
    7CHTO  C123 2541   5.040   1.819   2.575
    7CHTO  H227 2542   4.988   1.810   2.478
    7CHTO   O77 2543   5.067   1.959   2.604
    7CHTO  C118 2544   5.148   2.024   2.504
    7CHTO  H222 2545   5.099   2.015   2.405
    7CHTO  C125 2546   5.158   2.177   2.540
    7CHTO   O84 2547   5.030   2.240   2.538
    7CHTO  H205 2548   4.997   2.244   2.450
    7CHTO  C114 2549   5.287   1.959   2.499
    7CHTO  H218 2550   5.336   1.974   2.596
    7CHTO  C116 2551   5.277   1.805   2.475
    7CHTO  H220 2552   5.243   1.787   2.370
    7CHTO   O79 2553   5.408   1.747   2.485
    7CHTO  H201 2554   5.406   1.656   2.462
    7CHTO  C120 2555   5.175   1.738   2.576
    7CHTO  H224 2556   5.222   1.744   2.677
    7CHTO   N21 2557   5.154   1.593   2.546
    7CHTO  H211 2558   5.130   1.540   2.636
    7CHTO  H212 2559   5.077   1.581   2.472
    7CHTO   O75 2560   5.358   2.030   2.396
    7CHTO  C112 2561   5.520   2.039   2.420
    7CHTO  H216 2562   5.557   1.940   2.449
    7CHTO   O73 2563   5.543   2.137   2.523
    7CHTO  C113 2564   5.679   2.143   2.567
    7CHTO  H217 2565   5.706   2.046   2.614
    7CHTO  C124 2566   5.689   2.251   2.676
    7CHTO   O83 2567   5.614   2.221   2.794
    7CHTO  H204 2568   5.623   2.291   2.856
    7CHTO  C109 2569   5.778   2.174   2.451
    7CHTO  H213 2570   5.766   2.281   2.427
    7CHTO  C110 2571   5.749   2.088   2.324
    7CHTO  H214 2572   5.784   1.986   2.342
    7CHTO   O78 2573   5.828   2.140   2.215
    7CHTO  H200 2574   5.802   2.227   2.193
    7CHTO  C111 2575   5.597   2.086   2.291
    7CHTO  H215 2576   5.565   2.188   2.266
    7CHTO   N19 2577   5.562   2.000   2.175
    7CHTO  H207 2578   5.614   2.035   2.087
    7CHTO  H208 2579   5.456   2.003   2.157
    7CHTO   O74 2580   5.914   2.150   2.497
    7CHTO  C115 2581   6.012   2.269   2.484
    7CHTO  H219 2582   5.985   2.335   2.401
    7CHTO   O76 2583   6.011   2.362   2.616
    7CHTO  C122 2584   6.057   2.292   2.733
    7CHTO  H226 2585   5.990   2.208   2.751
    7CHTO  C126 2586   6.044   2.385   2.858
    7CHTO   O85 2587   5.908   2.419   2.888
    7CHTO  H206 2588   5.906   2.475   2.963
    7CHTO  C121 2589   6.204   2.239   2.712
    7CHTO  H225 2590   6.270   2.326   2.691
    7CHTO   O81 2591   6.254   2.174   2.830
    7CHTO  H202 2592   6.259   2.235   2.901
    7CHTO  C119 2593   6.207   2.142   2.589
    7CHTO  H223 2594   6.312   2.115   2.575
    7CHTO  C117 2595   6.155   2.208   2.456
    7CHTO  H221 2596   6.139   2.139   2.373
    7CHTO   N20 2597   6.248   2.312   2.401
    7CHTO  H209 2598   6.344   2.268   2.380
    7CHTO  H210 2599   6.260   2.393   2.471
    7CHTO   O80 2600   6.143   2.002   2.619
    7CHTO  C103 2601   6.190   1.874   2.535
    7CHTO  H190 2602   6.183   1.895   2.428
    7CHTO  C101 2603   6.334   1.819   2.568
    7CHTO  H188 2604   6.347   1.817   2.677
    7CHTO   O68 2605   6.441   1.918   2.508
    7CHTO  H168 2606   6.431   2.003   2.547
    7CHTO   C99 2607   6.356   1.671   2.511
    7CHTO  H186 2608   6.355   1.675   2.400
    7CHTO   N17 2609   6.488   1.610   2.550
    7CHTO  H174 2610   6.491   1.595   2.657
    7CHTO  H175 2611   6.503   1.517   2.497
    7CHTO   C97 2612   6.236   1.580   2.550
    7CHTO  H184 2613   6.236   1.565   2.659
    7CHTO   O64 2614   6.115   1.641   2.504
    7CHTO  C104 2615   6.081   1.765   2.568
    7CHTO  H191 2616   6.073   1.754   2.676
    7CHTO  C108 2617   5.943   1.808   2.518
    7CHTO   O71 2618   5.842   1.713   2.552
    7CHTO  H171 2619   5.759   1.742   2.520
    7CHTO   O62 2620   6.238   1.452   2.481
    7CHTO   C91 2621   6.174   1.335   2.537
    7CHTO  H178 2622   6.163   1.266   2.453
    7CHTO   C92 2623   6.029   1.360   2.591
    7CHTO  H179 2624   6.033   1.440   2.667
    7CHTO   O66 2625   5.949   1.412   2.483
    7CHTO  H166 2626   5.979   1.497   2.457
    7CHTO   C93 2627   5.961   1.230   2.648
    7CHTO  H180 2628   5.930   1.170   2.561
    7CHTO   N16 2629   5.836   1.259   2.724
    7CHTO  H172 2630   5.792   1.167   2.759
    7CHTO  H173 2631   5.766   1.311   2.660
    7CHTO   C94 2632   6.060   1.143   2.735
    7CHTO  H181 2633   6.074   1.185   2.836
    7CHTO   O61 2634   6.191   1.133   2.676
    7CHTO   C95 2635   6.255   1.259   2.649
    7CHTO  H182 2636   6.258   1.318   2.740
    7CHTO  C106 2637   6.404   1.231   2.608
    7CHTO   O69 2638   6.414   1.152   2.489
    7CHTO  H169 2639   6.504   1.138   2.468
    7CHTO   O63 2640   6.002   0.994   2.743
    7CHTO   C96 2641   6.034   0.916   2.873
    7CHTO  H183 2642   6.044   0.988   2.955
    7CHTO   C98 2643   6.165   0.832   2.866
    7CHTO  H185 2644   6.169   0.780   2.769
    7CHTO   O67 2645   6.275   0.924   2.865
    7CHTO  H167 2646   6.356   0.878   2.855
    7CHTO  C102 2647   6.179   0.727   2.987
    7CHTO  H189 2648   6.198   0.787   3.077
    7CHTO   N18 2649   6.295   0.634   2.975
    7CHTO  H176 2650   6.387   0.691   2.975
    7CHTO  H177 2651   6.287   0.577   2.884
    7CHTO  C105 2652   6.044   0.651   3.007
    7CHTO  H192 2653   6.026   0.587   2.920
    7CHTO   O65 2654   5.934   0.742   3.021
    7CHTO  C100 2655   5.910   0.823   2.905
    7CHTO  H187 2656   5.893   0.757   2.819
    7CHTO  C107 2657   5.780   0.904   2.927
    7CHTO   O70 2658   5.790   0.994   3.038
    7CHTO  H170 2659   5.709   1.041   3.048
    7CHTO   O57 2660   6.056   0.561   3.143
    7CHTO   C85 2661   6.030   0.420   3.135
    7CHTO  H157 2662   6.073   0.386   3.038
    7CHTO   C83 2663   5.876   0.392   3.125
    7CHTO  H155 2664   5.839   0.437   3.032
    7CHTO   O56 2665   5.808   0.459   3.233
    7CHTO  H135 2666   5.817   0.552   3.225
    7CHTO   C81 2667   5.852   0.239   3.119
    7CHTO  H153 2668   5.909   0.199   3.035
    7CHTO   N14 2669   5.711   0.200   3.090
    7CHTO  H141 2670   5.704   0.154   2.994
    7CHTO  H142 2671   5.647   0.285   3.093
    7CHTO   C79 2672   5.907   0.171   3.250
    7CHTO  H151 2673   5.896   0.063   3.238
    7CHTO   O52 2674   6.050   0.197   3.263
    7CHTO   C86 2675   6.089   0.338   3.257
    7CHTO  H158 2676   6.053   0.380   3.352
    7CHTO   C90 2677   6.244   0.350   3.261
    7CHTO   O60 2678   6.306   0.284   3.151
    7CHTO  H138 2679   6.286   0.329   3.071
    7CHTO   O50 2680   5.839   0.210   3.371
    7CHTO   C73 2681   5.809   0.124   0.046
    7CHTO  H145 2682   5.889   0.048   0.057
    7CHTO   C74 2683   5.674   0.049   0.023
    7CHTO  H146 2684   5.683   9.995   3.364
    7CHTO   O54 2685   5.659   9.950   0.126
    7CHTO  H133 2686   5.580   9.900   0.111
    7CHTO   C75 2687   5.557   0.155   0.020
    7CHTO  H147 2688   5.575   0.224   3.372
    7CHTO   N13 2689   5.423   0.098   3.429
    7CHTO  H139 2690   5.429   9.991   3.415
    7CHTO  H140 2691   5.355   0.117   0.074
    7CHTO   C76 2692   5.560   0.243   0.154
    7CHTO  H148 2693   5.535   0.177   0.238
    7CHTO   O49 2694   5.693   0.301   0.176
    7CHTO   C77 2695   5.800   0.205   0.178
    7CHTO  H149 2696   5.783   0.136   0.261
    7CHTO   C88 2697   5.932   0.275   0.213
    7CHTO   O58 2698   5.955   0.395   0.135
    7CHTO  H136 2699   5.968   0.373   0.045
    7CHTO   O51 2700   5.462   0.369   0.143
    7CHTO   C78 2701   5.426   0.427   0.284
    7CHTO  H150 2702   5.498   0.393   0.361
    7CHTO   C80 2703   5.284   0.380   0.324
    7CHTO  H152 2704   5.213   0.408   0.242
    7CHTO   O55 2705   5.287   0.237   0.335
    7CHTO  H134 2706   5.297   0.198   0.250
    7CHTO   C84 2707   5.236   0.446   0.460
    7CHTO  H156 2708   5.297   0.404   0.540
    7CHTO   N15 2709   5.093   0.413   0.492
    7CHTO  H143 2710   5.029   0.447   0.414
    7CHTO  H144 2711   5.081   0.308   0.503
    7CHTO   C87 2712   5.259   0.599   0.457
    7CHTO  H159 2713   5.189   0.645   0.387
    7CHTO   O53 2714   5.404   0.629   0.414
    7CHTO   C82 2715   5.432   0.582   0.281
    7CHTO  H154 2716   5.359   0.622   0.210
    7CHTO   C89 2717   5.571   0.636   0.241
    7CHTO   O59 2718   5.598   0.616   0.102
    7CHTO  H137 2719   5.683   0.650   0.081
    7CHTO   O45 2720   5.238   0.663   0.605
    7CHTO   C67 2721   5.202   0.803   0.602
    7CHTO  H124 2722   5.259   0.852   0.523
    7CHTO   C65 2723   5.049   0.822   0.574
    7CHTO  H122 2724   5.000   0.729   0.602
    7CHTO   O44 2725   5.035   0.841   0.432
    7CHTO  H102 2726   5.067   0.925   0.407
    7CHTO   C63 2727   4.982   0.932   0.666
    7CHTO  H120 2728   4.972   0.891   0.766
    7CHTO   N11 2729   4.839   0.966   0.635
    7CHTO  H108 2730   4.833   1.016   0.540
    7CHTO  H109 2731   4.780   0.877   0.633
    7CHTO   C61 2732   5.079   1.054   0.676
    7CHTO  H118 2733   5.033   1.127   0.745
    7CHTO   O40 2734   5.208   1.017   0.735
    7CHTO   C68 2735   5.246   0.875   0.736
    7CHTO  H125 2736   5.197   0.826   0.822
    7CHTO   C72 2737   5.398   0.865   0.758
    7CHTO   O48 2738   5.440   0.920   0.884
    7CHTO  H105 2739   5.427   1.012   0.884
    7CHTO   O38 2740   5.102   1.116   0.548
    7CHTO   C55 2741   5.173   1.241   0.547
    7CHTO  H112 2742   5.226   1.255   0.643
    7CHTO   C56 2743   5.075   1.361   0.515
    7CHTO  H113 2744   5.022   1.336   0.422
    7CHTO   O42 2745   4.975   1.369   0.619
    7CHTO  H100 2746   4.911   1.434   0.597
    7CHTO   C57 2747   5.155   1.497   0.500
    7CHTO  H114 2748   5.190   1.523   0.599
    7CHTO   N10 2749   5.071   1.611   0.453
    7CHTO  H106 2750   4.992   1.575   0.388
    7CHTO  H107 2751   5.027   1.662   0.537
    7CHTO   C58 2752   5.278   1.478   0.407
    7CHTO  H115 2753   5.243   1.467   0.302
    7CHTO   O37 2754   5.356   1.364   0.446
    7CHTO   C59 2755   5.285   1.239   0.439
    7CHTO  H116 2756   5.242   1.226   0.339
    7CHTO   C70 2757   5.385   1.126   0.463
    7CHTO   O46 2758   5.485   1.118   0.361
    7CHTO  H103 2759   5.544   1.047   0.380
    7CHTO   O39 2760   5.379   1.606   0.421
    7CHTO   C60 2761   5.491   1.601   0.332
    7CHTO  H117 2762   5.516   1.497   0.309
    7CHTO   C62 2763   5.460   1.672   0.198
    7CHTO  H119 2764   5.371   1.621   0.156
    7CHTO   O43 2765   5.427   1.810   0.222
    7CHTO  H101 2766   5.401   1.852   0.142
    7CHTO   C66 2767   5.584   1.651   0.098
    7CHTO  H123 2768   5.601   1.544   0.086
    7CHTO   N12 2769   5.555   1.702   3.398
    7CHTO  H110 2770   5.472   1.649   3.355
    7CHTO  H111 2771   5.536   1.809   3.401
    7CHTO   C69 2772   5.713   1.712   0.158
    7CHTO  H126 2773   5.706   1.823   0.160
    7CHTO   O41 2774   5.738   1.658   0.306
    7CHTO   C64 2775   5.616   1.663   0.400
    7CHTO  H121 2776   5.593   1.768   0.426
    7CHTO   C71 2777   5.649   1.587   0.531
    7CHTO   O47 2778   5.754   1.652   0.604
    7CHTO  H104 2779   5.835   1.644   0.556
    7CHTO   O34 2780   5.838   1.672   0.070
    7CHTO   C49 2781   5.966   1.741   0.026
    7CHTO   H91 2782   5.937   1.819   3.392
    7CHTO   C47 2783   6.057   1.637   3.393
    7CHTO   H89 2784   6.137   1.699   3.345
    7CHTO   O33 2785   5.985   1.570   3.288
    7CHTO   H70 2786   6.044   1.518   3.237
    7CHTO   C45 2787   6.119   1.529   0.060
    7CHTO   H87 2788   6.061   1.436   0.053
    7CHTO    N8 2789   6.259   1.499   0.019
    7CHTO   H75 2790   6.300   1.422   0.084
    7CHTO   H76 2791   6.260   1.464   3.354
    7CHTO   C43 2792   6.100   1.579   0.213
    7CHTO   H85 2793   5.996   1.559   0.237
    7CHTO   O29 2794   6.132   1.718   0.223
    7CHTO   C50 2795   6.046   1.804   0.146
    7CHTO   H92 2796   5.972   1.846   0.215
    7CHTO   C54 2797   6.126   1.930   0.102
    7CHTO   O36 2798   6.247   1.895   0.033
    7CHTO   H72 2799   6.292   1.974   0.008
    7CHTO   O27 2800   6.175   1.502   0.308
    7CHTO   C37 2801   6.217   1.394   0.393
    7CHTO   H79 2802   6.180   1.409   0.495
    7CHTO   C38 2803   6.162   1.258   0.341
    7CHTO   H80 2804   6.182   1.251   0.233
    7CHTO   O31 2805   6.020   1.260   0.362
    7CHTO   H68 2806   5.980   1.184   0.325
    7CHTO   C39 2807   6.229   1.134   0.414
    7CHTO   H81 2808   6.193   1.134   0.518
    7CHTO    N7 2809   6.189   1.002   0.354
    7CHTO   H73 2810   6.221   0.997   0.251
    7CHTO   H74 2811   6.231   0.921   0.411
    7CHTO   C40 2812   6.385   1.151   0.419
    7CHTO   H82 2813   6.426   1.141   0.318
    7CHTO   O26 2814   6.417   1.279   0.476
    7CHTO   C41 2815   6.372   1.391   0.395
    7CHTO   H83 2816   6.410   1.380   0.293
    7CHTO   C52 2817   6.433   1.520   0.454
    7CHTO   O35 2818   6.582   1.520   0.444
    7CHTO   H71 2819   6.618   1.452   0.498
    7CHTO   O28 2820   6.450   1.055   0.505
    7CHTO   C42 2821   6.594   1.028   0.493
    7CHTO   H84 2822   6.614   0.962   0.578
    7CHTO   C44 2823   6.690   1.151   0.509
    7CHTO   H86 2824   6.669   1.222   0.430
    7CHTO   O32 2825   6.659   1.213   0.636
    7CHTO   H69 2826   6.575   1.253   0.633
    7CHTO   C48 2827   6.842   1.108   0.498
    7CHTO   H90 2828   6.865   1.038   0.578
    7CHTO    N9 2829   6.936   1.224   0.516
    7CHTO   H77 2830   7.038   1.191   0.507
    7CHTO   H78 2831   6.920   1.270   0.612
    7CHTO   C51 2832   6.861   1.035   0.360
    7CHTO   H93 2833   6.831   1.104   0.281
    7CHTO   O30 2834   6.780   0.917   0.361
    7CHTO   C46 2835   6.630   0.948   0.364
    7CHTO   H88 2836   6.605   1.009   0.276
    7CHTO   C53 2837   6.553   0.814   0.357
    7CHTO   O72 2838   6.579   0.746   0.234
    7CHTO  H199 2839   6.667   0.714   0.233
    7CHTO   O22 2840   6.996   0.989   0.337
    7CHTO   C31 2841   7.047   0.963   0.200
    7CHTO   H59 2842   7.154   0.934   0.213
    7CHTO   C29 2843   6.978   0.847   0.127
    7CHTO   H57 2844   6.871   0.872   0.117
    7CHTO   O21 2845   6.986   0.730   0.211
    7CHTO   H37 2846   6.934   0.661   0.175
    7CHTO   C27 2847   7.038   0.821   3.419
    7CHTO   H55 2848   7.141   0.785   3.431
    7CHTO    N5 2849   6.960   0.720   3.343
    7CHTO   H43 2850   6.927   0.758   3.248
    7CHTO   H44 2851   7.020   0.631   3.328
    7CHTO   C25 2852   7.049   0.958   3.341
    7CHTO   H53 2853   6.947   0.993   3.316
    7CHTO   O17 2854   7.114   1.060   3.421
    7CHTO   C32 2855   7.049   1.090   0.108
    7CHTO   H60 2856   6.946   1.120   0.088
    7CHTO   C36 2857   7.123   1.208   0.175
    7CHTO   O25 2858   7.107   1.329   0.099
    7CHTO   H40 2859   7.152   1.322   0.017
    7CHTO   O15 2860   7.130   0.940   3.209
    7CHTO   C19 2861   7.131   1.015   3.084
    7CHTO   H47 2862   7.182   0.948   3.013
    7CHTO   C20 2863   6.989   1.048   3.029
    7CHTO   H48 2864   6.932   1.111   3.099
    7CHTO   O19 2865   6.921   0.922   3.016
    7CHTO   H35 2866   6.831   0.937   2.992
    7CHTO   C21 2867   6.997   1.124   2.890
    7CHTO   H49 2868   7.040   1.056   2.816
    7CHTO    N4 2869   6.863   1.164   2.840
    7CHTO   H41 2870   6.855   1.271   2.830
    7CHTO   H42 2871   6.844   1.118   2.744
    7CHTO   C22 2872   7.095   1.244   2.903
    7CHTO   H50 2873   7.051   1.321   2.967
    7CHTO   O14 2874   7.222   1.202   2.957
    7CHTO   C23 2875   7.216   1.145   3.089
    7CHTO   H51 2876   7.171   1.221   3.156
    7CHTO   C34 2877   7.359   1.117   3.137
    7CHTO   O23 2878   7.435   1.237   3.148
    7CHTO   H38 2879   7.456   1.270   3.063
    7CHTO   O16 2880   7.132   1.297   2.774
    7CHTO   C24 2881   7.091   1.452   2.746
    7CHTO   H52 2882   7.019   1.489   2.819
    7CHTO   C26 2883   7.033   1.465   2.604
    7CHTO   H54 2884   7.112   1.436   2.531
    7CHTO   O20 2885   6.923   1.374   2.588
    7CHTO   H36 2886   6.892   1.375   2.499
    7CHTO   C30 2887   6.989   1.612   2.577
    7CHTO   H58 2888   6.892   1.629   2.627
    7CHTO    N6 2889   6.961   1.637   2.433
    7CHTO   H45 2890   6.881   1.573   2.399
    7CHTO   H46 2891   7.050   1.617   2.374
    7CHTO   C33 2892   7.089   1.716   2.638
    7CHTO   H61 2893   7.109   1.798   2.566
    7CHTO   O18 2894   7.215   1.655   2.671
    7CHTO   C28 2895   7.219   1.541   2.759
    7CHTO   H56 2896   7.306   1.480   2.734
    7CHTO   C35 2897   7.240   1.593   2.904
    7CHTO   O24 2898   7.266   1.491   3.000
    7CHTO   H39 2899   7.190   1.437   3.011
    7CHTO    O9 2900   7.028   1.779   2.752
    7CHTO   C13 2901   6.997   1.937   2.735
    7CHTO   H26 2902   6.942   1.951   2.640
    7CHTO   C11 2903   7.132   2.020   2.737
    7CHTO   H24 2904   7.188   1.995   2.646
    7CHTO    O8 2905   7.213   1.980   2.850
    7CHTO    H3 2906   7.297   2.023   2.846
    7CHTO    C9 2907   7.097   2.171   2.734
    7CHTO   H22 2908   7.034   2.185   2.644
    7CHTO    N2 2909   7.213   2.261   2.713
    7CHTO   H10 2910   7.306   2.206   2.717
    7CHTO   H11 2911   7.204   2.313   2.619
    7CHTO    C7 2912   7.010   2.207   2.860
    7CHTO   H20 2913   6.981   2.314   2.845
    7CHTO    O4 2914   6.890   2.128   2.866
    7CHTO   C14 2915   6.897   1.984   2.849
    7CHTO   H27 2916   6.795   1.953   2.818
    7CHTO   C18 2917   6.925   1.915   2.986
    7CHTO   O13 2918   6.816   1.934   3.077
    7CHTO    H7 2919   6.810   2.024   3.102
    7CHTO    O2 2920   7.093   2.191   3.003
    7CHTO    C1 2921   7.095   2.306   3.089
    7CHTO   H14 2922   7.048   2.393   3.039
    7CHTO    C2 2923   7.243   2.346   3.131
    7CHTO   H15 2924   7.291   2.254   3.167
    7CHTO    O6 2925   7.311   2.393   3.013
    7CHTO    H1 2926   7.402   2.408   3.032
    7CHTO    C3 2927   7.243   2.458   3.247
    7CHTO   H16 2928   7.200   2.551   3.208
    7CHTO    N1 2929   7.382   2.489   3.295
    7CHTO    H8 2930   7.378   2.565   3.372
    7CHTO    H9 2931   7.442   2.524   3.212
    7CHTO    C4 2932   7.147   2.413   3.363
    7CHTO   H17 2933   7.190   2.325   3.412
    7CHTO    O1 2934   7.016   2.384   3.312
    7CHTO    C5 2935   7.010   2.277   3.216
    7CHTO   H18 2936   7.047   2.185   3.262
    7CHTO   C16 2937   6.860   2.258   3.181
    7CHTO   O11 2938   6.786   2.209   3.293
    7CHTO    H5 2939   6.811   2.121   3.312
    7CHTO    O3 2940   7.126   2.520   0.022
    7CHTO    C6 2941   7.110   2.478   0.161
    7CHTO   H19 2942   7.099   2.370   0.172
    7CHTO    C8 2943   7.235   2.522   0.244
    7CHTO   H21 2944   7.255   2.627   0.223
    7CHTO    O7 2945   7.346   2.443   0.198
    7CHTO    H2 2946   7.425   2.471   0.239
    7CHTO   C12 2947   7.211   2.504   0.400
    7CHTO   H25 2948   7.209   2.395   0.419
    7CHTO    N3 2949   7.327   2.560   0.479
    7CHTO   H12 2950   7.295   2.641   0.542
    7CHTO   H13 2951   7.373   2.482   0.537
    7CHTO   C15 2952   7.072   2.565   0.441
    7CHTO   H28 2953   7.072   2.674   0.433
    7CHTO   O10 2954   7.028   2.523   0.582
    7CHTO    H4 2955   6.951   2.571   0.608
    7CHTO    O5 2956   6.967   2.510   0.359
    7CHTO   C10 2957   6.981   2.542   0.220
    7CHTO   H23 2958   6.987   2.651   0.210
    7CHTO   C17 2959   6.855   2.496   0.146
    7CHTO   O12 2960   6.739   2.568   0.190
    7CHTO    H6 2961   6.718   2.544   0.278
    8CHTO  H203 2962   8.297   7.513   1.452
    8CHTO   O82 2963   8.235   7.495   1.384
    8CHTO  C123 2964   8.104   7.475   1.440
    8CHTO  H227 2965   8.112   7.406   1.525
    8CHTO   O77 2966   8.066   7.608   1.487
    8CHTO  C118 2967   7.942   7.611   1.559
    8CHTO  H222 2968   7.946   7.540   1.643
    8CHTO  C125 2969   7.926   7.757   1.616
    8CHTO   O84 2970   7.822   7.766   1.714
    8CHTO  H205 2971   7.738   7.752   1.672
    8CHTO  C114 2972   7.828   7.572   1.463
    8CHTO  H218 2973   7.822   7.647   1.384
    8CHTO  C116 2974   7.853   7.434   1.396
    8CHTO  H220 2975   7.840   7.354   1.472
    8CHTO   O79 2976   7.751   7.412   1.296
    8CHTO  H201 2977   7.761   7.326   1.259
    8CHTO  C120 2978   7.999   7.426   1.334
    8CHTO  H224 2979   7.999   7.493   1.246
    8CHTO   N21 2980   8.029   7.289   1.284
    8CHTO  H211 2981   8.072   7.228   1.363
    8CHTO  H212 2982   8.097   7.295   1.200
    8CHTO   O75 2983   7.709   7.576   1.544
    8CHTO  C112 2984   7.569   7.613   1.465
    8CHTO  H216 2985   7.548   7.535   1.391
    8CHTO   O73 2986   7.587   7.742   1.403
    8CHTO  C113 2987   7.473   7.783   1.325
    8CHTO  H217 2988   7.451   7.704   1.249
    8CHTO  C124 2989   7.507   7.912   1.250
    8CHTO   O83 2990   7.611   7.895   1.152
    8CHTO  H204 2991   7.627   7.977   1.110
    8CHTO  C109 2992   7.350   7.804   1.416
    8CHTO  H213 2993   7.372   7.891   1.479
    8CHTO  C110 2994   7.322   7.678   1.504
    8CHTO  H214 2995   7.276   7.602   1.440
    8CHTO   O78 2996   7.225   7.713   1.604
    8CHTO  H200 2997   7.259   7.780   1.661
    8CHTO  C111 2998   7.451   7.621   1.569
    8CHTO  H215 2999   7.483   7.689   1.650
    8CHTO   N19 3000   7.429   7.489   1.632
    8CHTO  H207 3001   7.394   7.418   1.559
    8CHTO  H208 3002   7.357   7.497   1.712
    8CHTO   O74 3003   7.232   7.833   1.334
    8CHTO  C115 3004   7.134   7.957   1.388
    8CHTO  H219 3005   7.029   7.928   1.388
    8CHTO   O76 3006   7.167   7.997   1.540
    8CHTO  C122 3007   7.101   8.114   1.590
    8CHTO  H226 3008   7.147   8.138   1.686
    8CHTO  C126 3009   6.951   8.082   1.623
    8CHTO   O85 3010   6.940   7.990   1.731
    8CHTO  H206 3011   6.850   7.971   1.748
    8CHTO  C121 3012   7.118   8.237   1.495
    8CHTO  H225 3013   7.054   8.319   1.533
    8CHTO   O81 3014   7.255   8.280   1.502
    8CHTO  H202 3015   7.265   8.363   1.459
    8CHTO  C119 3016   7.079   8.207   1.347
    8CHTO  H223 3017   6.972   8.188   1.347
    8CHTO  C117 3018   7.152   8.079   1.291
    8CHTO  H221 3019   7.260   8.089   1.278
    8CHTO   N20 3020   7.100   8.044   1.154
    8CHTO  H209 3021   7.155   7.961   1.113
    8CHTO  H210 3022   6.995   8.020   1.159
    8CHTO   O80 3023   7.090   8.335   1.251
    8CHTO  C103 3024   7.025   8.469   1.291
    8CHTO  H190 3025   6.955   8.456   1.373
    8CHTO  C101 3026   7.129   8.584   1.327
    8CHTO  H188 3027   7.209   8.581   1.253
    8CHTO   O68 3028   7.190   8.555   1.467
    8CHTO  H168 3029   7.123   8.559   1.533
    8CHTO   C99 3030   7.062   8.729   1.322
    8CHTO  H186 3031   6.987   8.737   1.404
    8CHTO   N17 3032   7.161   8.840   1.343
    8CHTO  H174 3033   7.158   8.912   1.262
    8CHTO  H175 3034   7.144   8.888   1.438
    8CHTO   C97 3035   6.981   8.745   1.190
    8CHTO  H184 3036   7.051   8.745   1.105
    8CHTO   O64 3037   6.883   8.640   1.180
    8CHTO  C104 3038   6.942   8.510   1.163
    8CHTO  H191 3039   7.007   8.507   1.076
    8CHTO  C108 3040   6.831   8.407   1.137
    8CHTO   O71 3041   6.763   8.434   1.014
    8CHTO  H171 3042   6.696   8.369   1.000
    8CHTO   O62 3043   6.898   8.864   1.189
    8CHTO   C91 3044   6.929   8.968   1.094
    8CHTO  H178 3045   7.036   8.964   1.073
    8CHTO   C92 3046   6.901   9.107   1.160
    8CHTO  H179 3047   6.797   9.109   1.195
    8CHTO   O66 3048   6.983   9.118   1.278
    8CHTO  H166 3049   6.962   9.196   1.325
    8CHTO   C93 3050   6.928   9.228   1.061
    8CHTO  H180 3051   7.037   9.235   1.048
    8CHTO   N16 3052   6.885   9.359   1.117
    8CHTO  H172 3053   6.809   9.405   1.057
    8CHTO  H173 3054   6.970   9.425   1.127
    8CHTO   C94 3055   6.863   9.201   0.920
    8CHTO  H181 3056   6.754   9.208   0.924
    8CHTO   O61 3057   6.895   9.069   0.872
    8CHTO   C95 3058   6.850   8.963   0.957
    8CHTO  H182 3059   6.743   8.976   0.977
    8CHTO  C106 3060   6.864   8.827   0.879
    8CHTO   O69 3061   7.000   8.799   0.843
    8CHTO  H169 3062   7.051   8.782   0.920
    8CHTO   O63 3063   6.921   9.306   0.813
    8CHTO   C96 3064   6.847   9.300   0.677
    8CHTO  H183 3065   6.768   9.225   0.683
    8CHTO   C98 3066   6.938   9.265   0.556
    8CHTO  H185 3067   7.024   9.334   0.553
    8CHTO   O67 3068   6.994   9.134   0.581
    8CHTO  H167 3069   7.053   9.137   0.653
    8CHTO  C102 3070   6.858   9.268   0.417
    8CHTO  H189 3071   6.789   9.182   0.421
    8CHTO   N18 3072   6.942   9.247   0.296
    8CHTO  H176 3073   6.880   9.248   0.208
    8CHTO  H177 3074   7.016   9.325   0.289
    8CHTO  C105 3075   6.772   9.397   0.407
    8CHTO  H192 3076   6.836   9.482   0.382
    8CHTO   O65 3077   6.699   9.429   0.527
    8CHTO  C100 3078   6.778   9.438   0.647
    8CHTO  H187 3079   6.856   9.515   0.632
    8CHTO  C107 3080   6.687   9.484   0.764
    8CHTO   O70 3081   6.639   9.617   0.742
    8CHTO  H170 3082   6.583   9.642   0.814
    8CHTO   O57 3083   6.662   9.369   0.287
    8CHTO   C85 3084   6.629   9.472   0.192
    8CHTO  H157 3085   6.723   9.493   0.136
    8CHTO   C83 3086   6.592   9.606   0.263
    8CHTO  H155 3087   6.679   9.640   0.320
    8CHTO   O56 3088   6.487   9.581   0.359
    8CHTO  H135 3089   6.471   9.659   0.410
    8CHTO   C81 3090   6.556   9.714   0.157
    8CHTO  H153 3091   6.641   9.723   0.089
    8CHTO   N14 3092   6.541   9.850   0.215
    8CHTO  H141 3093   6.456   9.853   0.280
    8CHTO  H142 3094   6.527   9.922   0.137
    8CHTO   C79 3095   6.432   9.666   0.073
    8CHTO  H151 3096   6.415   9.740   3.431
    8CHTO   O52 3097   6.462   9.539   0.007
    8CHTO   C86 3098   6.510   9.432   0.095
    8CHTO  H158 3099   6.421   9.402   0.153
    8CHTO   C90 3100   6.550   9.308   0.011
    8CHTO   O60 3101   6.437   9.253   3.378
    8CHTO  H138 3102   6.377   9.215   0.003
    8CHTO   O50 3103   6.311   9.654   0.151
    8CHTO   C73 3104   6.169   9.664   0.137
    8CHTO  H145 3105   6.139   9.645   0.032
    8CHTO   C74 3106   6.118   9.806   0.177
    8CHTO  H146 3107   6.171   9.879   0.114
    8CHTO   O54 3108   5.979   9.816   0.142
    8CHTO  H133 3109   5.928   9.756   0.193
    8CHTO   C75 3110   6.148   9.830   0.331
    8CHTO  H147 3111   6.256   9.826   0.347
    8CHTO   N13 3112   6.105   9.962   0.381
    8CHTO  H139 3113   6.157   0.041   0.327
    8CHTO  H140 3114   5.998   9.975   0.366
    8CHTO   C76 3115   6.084   9.710   0.416
    8CHTO  H148 3116   5.975   9.716   0.406
    8CHTO   O49 3117   6.131   9.581   0.367
    8CHTO   C77 3118   6.100   9.558   0.228
    8CHTO  H149 3119   5.993   9.563   0.214
    8CHTO   C88 3120   6.142   9.414   0.195
    8CHTO   O58 3121   6.117   9.381   0.056
    8CHTO  H136 3122   6.146   9.293   0.040
    8CHTO   O51 3123   6.131   9.715   0.569
    8CHTO   C78 3124   6.055   9.608   0.657
    8CHTO  H150 3125   6.009   9.529   0.593
    8CHTO   C80 3126   5.944   9.676   0.739
    8CHTO  H152 3127   5.989   9.757   0.801
    8CHTO   O55 3128   5.852   9.736   0.646
    8CHTO  H134 3129   5.892   9.809   0.603
    8CHTO   C84 3130   5.872   9.572   0.834
    8CHTO  H156 3131   5.824   9.497   0.771
    8CHTO   N15 3132   5.764   9.634   0.918
    8CHTO  H143 3133   5.804   9.712   0.979
    8CHTO  H144 3134   5.687   9.675   0.855
    8CHTO   C87 3135   5.979   9.501   0.920
    8CHTO  H159 3136   6.025   9.573   0.988
    8CHTO   O53 3137   6.084   9.439   0.827
    8CHTO   C82 3138   6.155   9.537   0.751
    8CHTO  H154 3139   6.204   9.609   0.817
    8CHTO   C89 3140   6.267   9.463   0.674
    8CHTO   O59 3141   6.360   9.554   0.616
    8CHTO  H137 3142   6.426   9.506   0.569
    8CHTO   O45 3143   5.916   9.381   1.008
    8CHTO   C67 3144   6.012   9.311   1.088
    8CHTO  H124 3145   6.103   9.296   1.030
    8CHTO   C65 3146   6.049   9.394   1.217
    8CHTO  H122 3147   5.965   9.461   1.235
    8CHTO   O44 3148   6.166   9.472   1.185
    8CHTO  H102 3149   6.145   9.534   1.118
    8CHTO   C63 3150   6.058   9.304   1.347
    8CHTO  H120 3151   5.956   9.278   1.378
    8CHTO   N11 3152   6.110   9.372   1.471
    8CHTO  H108 3153   6.098   9.307   1.556
    8CHTO  H109 3154   6.056   9.463   1.488
    8CHTO   C61 3155   6.129   9.169   1.312
    8CHTO  H118 3156   6.125   9.107   1.403
    8CHTO   O40 3157   6.057   9.095   1.208
    8CHTO   C68 3158   5.961   9.166   1.124
    8CHTO  H125 3159   5.864   9.171   1.178
    8CHTO   C72 3160   5.939   9.078   0.999
    8CHTO   O48 3161   5.837   9.125   0.911
    8CHTO  H105 3162   5.865   9.205   0.870
    8CHTO   O38 3163   6.266   9.189   1.272
    8CHTO   C55 3164   6.342   9.068   1.250
    8CHTO  H112 3165   6.274   8.985   1.223
    8CHTO   C56 3166   6.431   9.032   1.375
    8CHTO  H113 3167   6.506   9.112   1.387
    8CHTO   O42 3168   6.352   9.030   1.495
    8CHTO  H100 3169   6.320   9.116   1.514
    8CHTO   C57 3170   6.501   8.892   1.349
    8CHTO  H114 3171   6.421   8.818   1.351
    8CHTO   N10 3172   6.597   8.851   1.454
    8CHTO  H106 3173   6.696   8.889   1.434
    8CHTO  H107 3174   6.565   8.886   1.551
    8CHTO   C58 3175   6.568   8.888   1.208
    8CHTO  H115 3176   6.669   8.933   1.215
    8CHTO   O37 3177   6.497   8.955   1.103
    8CHTO   C59 3178   6.439   9.083   1.130
    8CHTO  H116 3179   6.518   9.154   1.153
    8CHTO   C70 3180   6.368   9.131   1.003
    8CHTO   O46 3181   6.270   9.039   0.952
    8CHTO  H103 3182   6.313   8.962   0.920
    8CHTO   O39 3183   6.580   8.726   1.157
    8CHTO   C60 3184   6.455   8.672   1.109
    8CHTO  H117 3185   6.373   8.728   1.154
    8CHTO   C62 3186   6.442   8.687   0.954
    8CHTO  H119 3187   6.459   8.794   0.930
    8CHTO   O43 3188   6.544   8.611   0.887
    8CHTO  H101 3189   6.629   8.646   0.906
    8CHTO   C66 3190   6.292   8.648   0.911
    8CHTO  H123 3191   6.223   8.710   0.968
    8CHTO   N12 3192   6.264   8.676   0.768
    8CHTO  H110 3193   6.278   8.782   0.748
    8CHTO  H111 3194   6.163   8.646   0.744
    8CHTO   C69 3195   6.266   8.500   0.949
    8CHTO  H126 3196   6.331   8.434   0.887
    8CHTO   O41 3197   6.298   8.476   1.104
    8CHTO   C64 3198   6.436   8.523   1.149
    8CHTO  H121 3199   6.515   8.461   1.102
    8CHTO   C71 3200   6.443   8.502   1.303
    8CHTO   O47 3201   6.576   8.516   1.354
    8CHTO  H104 3202   6.629   8.445   1.324
    8CHTO   O34 3203   6.114   8.458   0.922
    8CHTO   C49 3204   5.996   8.458   1.027
    8CHTO   H91 3205   6.028   8.394   1.109
    8CHTO   C47 3206   5.872   8.398   0.958
    8CHTO   H89 3207   5.794   8.386   1.037
    8CHTO   O33 3208   5.905   8.267   0.908
    8CHTO   H70 3209   5.921   8.208   0.979
    8CHTO   C45 3210   5.821   8.499   0.844
    8CHTO   H87 3211   5.906   8.517   0.776
    8CHTO    N8 3212   5.710   8.441   0.765
    8CHTO   H75 3213   5.622   8.429   0.827
    8CHTO   H76 3214   5.687   8.505   0.681
    8CHTO   C43 3215   5.786   8.643   0.908
    8CHTO   H85 3216   5.770   8.709   0.823
    8CHTO   O29 3217   5.894   8.690   0.992
    8CHTO   C50 3218   5.965   8.600   1.080
    8CHTO   H92 3219   6.062   8.648   1.099
    8CHTO   C54 3220   5.904   8.598   1.224
    8CHTO   O36 3221   5.772   8.545   1.230
    8CHTO   H72 3222   5.712   8.603   1.187
    8CHTO   O27 3223   5.662   8.645   0.983
    8CHTO   C37 3224   5.559   8.742   1.008
    8CHTO   H79 3225   5.484   8.700   1.076
    8CHTO   C38 3226   5.616   8.870   1.079
    8CHTO   H80 3227   5.703   8.905   1.022
    8CHTO   O31 3228   5.660   8.829   1.210
    8CHTO   H68 3229   5.704   8.900   1.253
    8CHTO   C39 3230   5.508   8.985   1.089
    8CHTO   H81 3231   5.431   8.951   1.158
    8CHTO    N7 3232   5.562   9.114   1.147
    8CHTO   H73 3233   5.556   9.195   1.076
    8CHTO   H74 3234   5.664   9.101   1.181
    8CHTO   C40 3235   5.439   9.009   0.950
    8CHTO   H82 3236   5.509   9.054   0.880
    8CHTO   O26 3237   5.387   8.884   0.900
    8CHTO   C41 3238   5.488   8.783   0.875
    8CHTO   H83 3239   5.563   8.822   0.804
    8CHTO   C52 3240   5.417   8.664   0.807
    8CHTO   O35 3241   5.307   8.604   0.890
    8CHTO   H71 3242   5.238   8.667   0.901
    8CHTO   O28 3243   5.321   9.091   0.961
    8CHTO   C42 3244   5.269   9.167   0.847
    8CHTO   H84 3245   5.173   9.204   0.883
    8CHTO   C44 3246   5.237   9.087   0.716
    8CHTO   H86 3247   5.330   9.045   0.677
    8CHTO   O32 3248   5.150   8.978   0.754
    8CHTO   H69 3249   5.135   8.922   0.681
    8CHTO   C48 3250   5.172   9.179   0.605
    8CHTO   H90 3251   5.076   9.214   0.642
    8CHTO    N9 3252   5.143   9.103   0.479
    8CHTO   H77 3253   5.075   9.022   0.500
    8CHTO   H78 3254   5.101   9.169   0.405
    8CHTO   C51 3255   5.264   9.305   0.580
    8CHTO   H93 3256   5.359   9.270   0.537
    8CHTO   O30 3257   5.284   9.374   0.704
    8CHTO   C46 3258   5.355   9.291   0.811
    8CHTO   H88 3259   5.452   9.259   0.772
    8CHTO   C53 3260   5.375   9.381   0.934
    8CHTO   O72 3261   5.462   9.491   0.904
    8CHTO  H199 3262   5.549   9.460   0.891
    8CHTO   O22 3263   5.201   9.403   0.495
    8CHTO   C31 3264   5.277   9.490   0.402
    8CHTO   H59 3265   5.208   9.573   0.377
    8CHTO   C29 3266   5.404   9.555   0.464
    8CHTO   H57 3267   5.466   9.474   0.506
    8CHTO   O21 3268   5.362   9.637   0.575
    8CHTO   H37 3269   5.325   9.584   0.643
    8CHTO   C27 3270   5.489   9.634   0.357
    8CHTO   H55 3271   5.428   9.718   0.319
    8CHTO    N5 3272   5.615   9.689   0.412
    8CHTO   H43 3273   5.593   9.755   0.495
    8CHTO   H44 3274   5.668   9.744   0.336
    8CHTO   C25 3275   5.517   9.537   0.238
    8CHTO   H53 3276   5.570   9.449   0.276
    8CHTO   O17 3277   5.391   9.495   0.180
    8CHTO   C32 3278   5.307   9.417   0.266
    8CHTO   H60 3279   5.354   9.321   0.287
    8CHTO   C36 3280   5.178   9.396   0.183
    8CHTO   O25 3281   5.081   9.312   0.246
    8CHTO   H40 3282   5.008   9.300   0.189
    8CHTO   O15 3283   5.603   9.605   0.120
    8CHTO   C19 3284   5.660   9.566   3.429
    8CHTO   H47 3285   5.579   9.511   3.379
    8CHTO   C20 3286   5.699   9.688   3.339
    8CHTO   H48 3287   5.767   9.757   3.392
    8CHTO   O19 3288   5.577   9.760   3.312
    8CHTO   H35 3289   5.545   9.802   3.389
    8CHTO   C21 3290   5.770   9.645   3.204
    8CHTO   H49 3291   5.696   9.594   3.142
    8CHTO    N4 3292   5.819   9.761   3.125
    8CHTO   H41 3293   5.774   9.763   3.027
    8CHTO   H42 3294   5.926   9.759   3.114
    8CHTO   C22 3295   5.881   9.541   3.235
    8CHTO   H50 3296   5.961   9.591   3.291
    8CHTO   O14 3297   5.828   9.432   3.311
    8CHTO   C23 3298   5.780   9.467   0.004
    8CHTO   H51 3299   5.864   9.511   0.060
    8CHTO   C34 3300   5.739   9.337   0.075
    8CHTO   O23 3301   5.850   9.249   0.096
    8CHTO   H38 3302   5.908   9.286   0.159
    8CHTO   O16 3303   5.933   9.481   3.115
    8CHTO   C24 3304   6.076   9.408   3.136
    8CHTO   H52 3305   6.101   9.398   3.242
    8CHTO   C26 3306   6.186   9.490   3.065
    8CHTO   H54 3307   6.154   9.507   2.959
    8CHTO   O20 3308   6.195   9.618   3.130
    8CHTO   H36 3309   6.253   9.674   3.083
    8CHTO   C30 3310   6.323   9.414   3.064
    8CHTO   H58 3311   6.362   9.409   3.167
    8CHTO    N6 3312   6.426   9.486   2.984
    8CHTO   H45 3313   6.510   9.514   3.046
    8CHTO   H46 3314   6.386   9.575   2.937
    8CHTO   C33 3315   6.304   9.267   3.016
    8CHTO   H61 3316   6.273   9.267   2.910
    8CHTO   O18 3317   6.200   9.206   3.094
    8CHTO   C28 3318   6.070   9.265   3.077
    8CHTO   H56 3319   6.043   9.270   2.972
    8CHTO   C35 3320   5.967   9.178   3.152
    8CHTO   O24 3321   5.958   9.046   3.098
    8CHTO   H39 3322   5.896   8.996   3.146
    8CHTO    O9 3323   6.426   9.190   3.021
    8CHTO   C13 3324   6.411   9.040   2.960
    8CHTO   H26 3325   6.337   9.043   2.877
    8CHTO   C11 3326   6.367   8.940   3.075
    8CHTO   H24 3327   6.263   8.964   3.103
    8CHTO    O8 3328   6.448   8.958   3.192
    8CHTO    H3 3329   6.538   8.937   3.174
    8CHTO    C9 3330   6.368   8.796   3.017
    8CHTO   H22 3331   6.303   8.799   2.928
    8CHTO    N2 3332   6.306   8.695   3.105
    8CHTO   H10 3333   6.364   8.683   3.195
    8CHTO   H11 3334   6.297   8.600   3.054
    8CHTO    C7 3335   6.514   8.760   2.971
    8CHTO   H20 3336   6.504   8.659   2.924
    8CHTO    O4 3337   6.561   8.852   2.871
    8CHTO   C14 3338   6.548   8.994   2.892
    8CHTO   H27 3339   6.550   9.039   2.790
    8CHTO   C18 3340   6.673   9.049   2.967
    8CHTO   O13 3341   6.791   9.035   2.887
    8CHTO    H7 3342   6.787   9.092   2.813
    8CHTO    O2 3343   6.623   8.755   3.096
    8CHTO    C1 3344   6.721   8.649   3.094
    8CHTO   H14 3345   6.797   8.675   3.170
    8CHTO    C2 3346   6.795   8.627   2.956
    8CHTO   H15 3347   6.718   8.613   2.879
    8CHTO    O6 3348   6.870   8.747   2.927
    8CHTO    H1 3349   6.909   8.741   2.842
    8CHTO    C3 3350   6.891   8.498   2.962
    8CHTO   H16 3351   6.971   8.517   3.034
    8CHTO    N1 3352   6.955   8.469   2.829
    8CHTO    H8 3353   7.019   8.382   2.838
    8CHTO    H9 3354   7.014   8.554   2.798
    8CHTO    C4 3355   6.810   8.375   3.019
    8CHTO   H17 3356   6.732   8.349   2.947
    8CHTO    O1 3357   6.751   8.407   3.146
    8CHTO    C5 3358   6.657   8.516   3.145
    8CHTO   H18 3359   6.574   8.492   3.079
    8CHTO   C16 3360   6.604   8.535   3.289
    8CHTO   O11 3361   6.521   8.426   3.330
    8CHTO    H5 3362   6.574   8.349   3.341
    8CHTO    O3 3363   6.896   8.262   3.044
    8CHTO    C6 3364   6.837   8.129   3.020
    8CHTO   H19 3365   6.728   8.129   3.033
    8CHTO    C8 3366   6.870   8.079   2.875
    8CHTO   H21 3367   6.976   8.094   2.858
    8CHTO    O7 3368   6.796   8.161   2.783
    8CHTO    H2 3369   6.821   8.141   2.695
    8CHTO   C12 3370   6.836   7.926   2.856
    8CHTO   H25 3371   6.725   7.919   2.856
    8CHTO    N3 3372   6.882   7.874   2.722
    8CHTO   H12 3373   6.930   7.951   2.665
    8CHTO   H13 3374   6.798   7.833   2.667
    8CHTO   C15 3375   6.892   7.842   2.976
    8CHTO   H28 3376   7.001   7.837   2.975
    8CHTO   O10 3377   6.834   7.697   2.982
    8CHTO    H4 3378   6.740   7.699   2.978
    8CHTO    O5 3379   6.847   7.897   3.101
    8CHTO   C10 3380   6.894   8.030   3.126
    8CHTO   H23 3381   7.003   8.030   3.121
    8CHTO   C17 3382   6.856   8.071   3.268
    8CHTO   O12 3383   6.920   7.988   3.366
    8CHTO    H6 3384   6.885   7.901   3.362
    9CHTO  H203 3385   7.550   4.198   0.064
    9CHTO   O82 3386   7.574   4.217   3.412
    9CHTO  C123 3387   7.708   4.174   3.385
    9CHTO  H227 3388   7.774   4.207   0.031
    9CHTO   O77 3389   7.696   4.028   3.387
    9CHTO  C118 3390   7.818   3.956   3.361
    9CHTO  H222 3391   7.896   3.986   3.434
    9CHTO  C125 3392   7.789   3.803   3.378
    9CHTO   O84 3393   7.744   3.772   0.074
    9CHTO  H205 3394   7.658   3.808   0.088
    9CHTO  C114 3395   7.865   3.989   3.218
    9CHTO  H218 3396   7.786   3.962   3.149
    9CHTO  C116 3397   7.889   4.143   3.203
    9CHTO  H220 3398   7.975   4.173   3.267
    9CHTO   O79 3399   7.928   4.170   3.067
    9CHTO  H201 3400   7.858   4.148   3.008
    9CHTO  C120 3401   7.760   4.224   3.245
    9CHTO  H224 3402   7.684   4.203   3.168
    9CHTO   N21 3403   7.783   4.371   3.243
    9CHTO  H211 3404   7.885   4.395   3.269
    9CHTO  H212 3405   7.714   4.422   3.310
    9CHTO   O75 3406   7.983   3.911   3.194
    9CHTO  C112 3407   7.972   3.823   3.053
    9CHTO  H216 3408   7.900   3.873   2.985
    9CHTO   O73 3409   7.928   3.691   3.088
    9CHTO  C113 3410   7.899   3.606   2.976
    9CHTO  H217 3411   7.817   3.652   2.916
    9CHTO  C124 3412   7.846   3.475   3.036
    9CHTO   O83 3413   7.792   3.385   2.939
    9CHTO  H204 3414   7.713   3.421   2.902
    9CHTO  C109 3415   8.025   3.585   2.888
    9CHTO  H213 3416   8.095   3.523   2.947
    9CHTO  C110 3417   8.092   3.722   2.853
    9CHTO  H214 3418   8.029   3.773   2.780
    9CHTO   O78 3419   8.218   3.696   2.786
    9CHTO  H200 3420   8.277   3.651   2.844
    9CHTO  C111 3421   8.110   3.811   2.979
    9CHTO  H215 3422   8.181   3.762   3.047
    9CHTO   N19 3423   8.166   3.946   2.949
    9CHTO  H207 3424   8.177   4.002   3.041
    9CHTO  H208 3425   8.262   3.936   2.902
    9CHTO   O74 3426   7.989   3.512   2.767
    9CHTO  C115 3427   8.097   3.411   2.717
    9CHTO  H219 3428   8.195   3.433   2.762
    9CHTO   O76 3429   8.063   3.260   2.762
    9CHTO  C122 3430   7.947   3.207   2.696
    9CHTO  H226 3431   7.862   3.270   2.720
    9CHTO  C126 3432   7.914   3.065   2.754
    9CHTO   O85 3433   7.884   3.070   2.894
    9CHTO  H206 3434   7.866   2.984   2.925
    9CHTO  C121 3435   7.970   3.205   2.540
    9CHTO  H225 3436   8.063   3.149   2.518
    9CHTO   O81 3437   7.862   3.142   2.471
    9CHTO  H202 3438   7.857   3.051   2.494
    9CHTO  C119 3439   7.987   3.353   2.493
    9CHTO  H223 3440   8.005   3.348   2.386
    9CHTO  C117 3441   8.109   3.428   2.561
    9CHTO  H221 3442   8.111   3.536   2.545
    9CHTO   N20 3443   8.241   3.380   2.510
    9CHTO  H209 3444   8.255   3.275   2.534
    9CHTO  H210 3445   8.321   3.439   2.553
    9CHTO   O80 3446   7.859   3.431   2.499
    9CHTO  C103 3447   7.834   3.550   2.400
    9CHTO  H190 3448   7.909   3.628   2.412
    9CHTO  C101 3449   7.823   3.512   2.246
    9CHTO  H188 3450   7.765   3.420   2.237
    9CHTO   O68 3451   7.968   3.485   2.189
    9CHTO  H168 3452   8.008   3.414   2.236
    9CHTO   C99 3453   7.750   3.626   2.162
    9CHTO  H186 3454   7.813   3.717   2.162
    9CHTO   N17 3455   7.727   3.591   2.018
    9CHTO  H174 3456   7.821   3.566   1.971
    9CHTO  H175 3457   7.658   3.508   2.011
    9CHTO   C97 3458   7.617   3.667   2.232
    9CHTO  H184 3459   7.549   3.581   2.233
    9CHTO   O64 3460   7.648   3.712   2.365
    9CHTO  C104 3461   7.697   3.608   2.451
    9CHTO  H191 3462   7.624   3.527   2.460
    9CHTO  C108 3463   7.713   3.666   2.593
    9CHTO   O71 3464   7.586   3.707   2.646
    9CHTO  H171 3465   7.599   3.742   2.732
    9CHTO   O62 3466   7.555   3.785   2.179
    9CHTO   C91 3467   7.432   3.772   2.104
    9CHTO  H178 3468   7.456   3.717   2.013
    9CHTO   C92 3469   7.389   3.915   2.058
    9CHTO  H179 3470   7.476   3.971   2.021
    9CHTO   O66 3471   7.301   3.901   1.945
    9CHTO  H166 3472   7.281   3.985   1.908
    9CHTO   C93 3473   7.313   3.997   2.170
    9CHTO  H180 3474   7.267   4.083   2.120
    9CHTO   N16 3475   7.400   4.056   2.275
    9CHTO  H172 3476   7.390   4.163   2.277
    9CHTO  H173 3477   7.504   4.028   2.259
    9CHTO   C94 3478   7.197   3.909   2.234
    9CHTO  H181 3479   7.209   3.897   2.342
    9CHTO   O61 3480   7.189   3.776   2.179
    9CHTO   C95 3481   7.311   3.701   2.181
    9CHTO  H182 3482   7.340   3.682   2.285
    9CHTO  C106 3483   7.281   3.562   2.116
    9CHTO   O69 3484   7.181   3.491   2.190
    9CHTO  H169 3485   7.165   3.408   2.149
    9CHTO   O63 3486   7.065   3.975   2.202
    9CHTO   C96 3487   6.970   3.993   2.322
    9CHTO  H183 3488   7.029   4.021   2.410
    9CHTO   C98 3489   6.886   3.866   2.358
    9CHTO  H185 3490   6.842   3.825   2.266
    9CHTO   O67 3491   6.976   3.765   2.407
    9CHTO  H167 3492   7.016   3.792   2.487
    9CHTO  C102 3493   6.769   3.896   2.465
    9CHTO  H189 3494   6.820   3.920   2.560
    9CHTO   N18 3495   6.680   3.781   2.495
    9CHTO  H176 3496   6.629   3.749   2.405
    9CHTO  H177 3497   6.608   3.808   2.571
    9CHTO  C105 3498   6.691   4.022   2.419
    9CHTO  H192 3499   6.636   3.998   2.327
    9CHTO   O65 3500   6.779   4.132   2.394
    9CHTO  C100 3501   6.874   4.113   2.289
    9CHTO  H187 3502   6.820   4.091   2.196
    9CHTO  C107 3503   6.947   4.248   2.272
    9CHTO   O70 3504   7.029   4.250   2.154
    9CHTO  H170 3505   7.071   4.334   2.146
    9CHTO   O57 3506   6.586   4.064   2.538
    9CHTO   C85 3507   6.467   4.139   2.504
    9CHTO  H157 3508   6.417   4.075   2.428
    9CHTO   C83 3509   6.501   4.272   2.430
    9CHTO  H155 3510   6.532   4.246   2.328
    9CHTO   O56 3511   6.614   4.337   2.492
    9CHTO  H135 3512   6.641   4.411   2.441
    9CHTO   C81 3513   6.375   4.362   2.423
    9CHTO  H153 3514   6.292   4.301   2.389
    9CHTO   N14 3515   6.384   4.471   2.322
    9CHTO  H141 3516   6.365   4.567   2.367
    9CHTO  H142 3517   6.481   4.473   2.276
    9CHTO   C79 3518   6.342   4.412   2.569
    9CHTO  H151 3519   6.241   4.452   2.567
    9CHTO   O52 3520   6.343   4.303   2.669
    9CHTO   C86 3521   6.375   4.165   2.631
    9CHTO  H158 3522   6.424   4.126   2.723
    9CHTO   C90 3523   6.244   4.083   2.616
    9CHTO   O60 3524   6.169   4.079   2.738
    9CHTO  H138 3525   6.091   4.028   2.726
    9CHTO   O50 3526   6.432   4.515   2.615
    9CHTO   C73 3527   6.491   4.615   2.699
    9CHTO  H145 3528   6.415   4.659   2.764
    9CHTO   C74 3529   6.553   4.730   2.613
    9CHTO  H146 3530   6.472   4.769   2.548
    9CHTO   O54 3531   6.591   4.838   2.700
    9CHTO  H133 3532   6.515   4.877   2.738
    9CHTO   C75 3533   6.674   4.674   2.529
    9CHTO  H147 3534   6.637   4.595   2.461
    9CHTO   N13 3535   6.738   4.774   2.440
    9CHTO  H139 3536   6.667   4.811   2.369
    9CHTO  H140 3537   6.775   4.857   2.499
    9CHTO   C76 3538   6.779   4.605   2.628
    9CHTO  H148 3539   6.820   4.683   2.693
    9CHTO   O49 3540   6.713   4.504   2.710
    9CHTO   C77 3541   6.603   4.554   2.789
    9CHTO  H149 3542   6.640   4.631   2.856
    9CHTO   C88 3543   6.552   4.441   2.880
    9CHTO   O58 3544   6.658   4.395   2.976
    9CHTO  H136 3545   6.678   4.463   3.036
    9CHTO   O51 3546   6.892   4.525   2.549
    9CHTO   C78 3547   7.020   4.504   2.639
    9CHTO  H150 3548   6.999   4.530   2.746
    9CHTO   C80 3549   7.137   4.591   2.589
    9CHTO  H152 3550   7.156   4.566   2.482
    9CHTO   O55 3551   7.095   4.728   2.596
    9CHTO  H134 3552   7.029   4.746   2.532
    9CHTO   C84 3553   7.269   4.566   2.673
    9CHTO  H156 3554   7.249   4.602   2.774
    9CHTO   N15 3555   7.388   4.642   2.622
    9CHTO  H143 3556   7.363   4.700   2.536
    9CHTO  H144 3557   7.427   4.706   2.698
    9CHTO   C87 3558   7.299   4.414   2.683
    9CHTO  H159 3559   7.336   4.376   2.587
    9CHTO   O53 3560   7.171   4.337   2.727
    9CHTO   C82 3561   7.061   4.356   2.636
    9CHTO  H154 3562   7.090   4.325   2.535
    9CHTO   C89 3563   6.945   4.264   2.679
    9CHTO   O59 3564   6.979   4.126   2.661
    9CHTO  H137 3565   6.984   4.105   2.570
    9CHTO   O45 3566   7.412   4.388   2.796
    9CHTO   C67 3567   7.438   4.250   2.826
    9CHTO  H124 3568   7.349   4.191   2.807
    9CHTO   C65 3569   7.556   4.195   2.738
    9CHTO  H122 3570   7.613   4.283   2.705
    9CHTO   O44 3571   7.497   4.134   2.623
    9CHTO  H102 3572   7.457   4.052   2.647
    9CHTO   C63 3573   7.660   4.110   2.821
    9CHTO  H120 3574   7.718   4.178   2.884
    9CHTO   N11 3575   7.769   4.044   2.742
    9CHTO  H108 3576   7.842   4.003   2.809
    9CHTO  H109 3577   7.728   3.966   2.681
    9CHTO   C61 3578   7.583   4.016   2.920
    9CHTO  H118 3579   7.660   3.969   2.983
    9CHTO   O40 3580   7.496   4.091   3.011
    9CHTO   C68 3581   7.467   4.232   2.981
    9CHTO  H125 3582   7.555   4.294   3.011
    9CHTO   C72 3583   7.349   4.274   3.071
    9CHTO   O48 3584   7.320   4.414   3.067
    9CHTO  H105 3585   7.389   4.462   3.108
    9CHTO   O38 3586   7.508   3.912   2.852
    9CHTO   C55 3587   7.423   3.827   2.931
    9CHTO  H112 3588   7.373   3.887   3.009
    9CHTO   C56 3589   7.501   3.703   2.993
    9CHTO  H113 3590   7.545   3.647   2.909
    9CHTO   O42 3591   7.610   3.749   3.074
    9CHTO  H100 3592   7.663   3.676   3.102
    9CHTO   C57 3593   7.403   3.612   3.077
    9CHTO  H114 3594   7.385   3.667   3.170
    9CHTO   N10 3595   7.463   3.482   3.119
    9CHTO  H106 3596   7.569   3.493   3.135
    9CHTO  H107 3597   7.446   3.407   3.043
    9CHTO   C58 3598   7.266   3.589   3.007
    9CHTO  H115 3599   7.275   3.505   2.934
    9CHTO   O37 3600   7.214   3.705   2.938
    9CHTO   C59 3601   7.307   3.767   2.847
    9CHTO  H116 3602   7.345   3.692   2.777
    9CHTO   C70 3603   7.236   3.874   2.763
    9CHTO   O46 3604   7.137   3.820   2.675
    9CHTO  H103 3605   7.179   3.772   2.606
    9CHTO   O39 3606   7.158   3.554   3.124
    9CHTO   C60 3607   7.041   3.482   3.083
    9CHTO  H117 3608   7.003   3.524   2.990
    9CHTO   C62 3609   7.069   3.330   3.062
    9CHTO  H119 3610   7.144   3.323   2.979
    9CHTO   O43 3611   7.128   3.274   3.182
    9CHTO  H101 3612   7.213   3.311   3.196
    9CHTO   C66 3613   6.934   3.256   3.017
    9CHTO  H123 3614   6.900   3.300   2.924
    9CHTO   N12 3615   6.953   3.111   2.988
    9CHTO  H110 3616   6.989   3.060   3.076
    9CHTO  H111 3617   6.861   3.068   2.952
    9CHTO   C69 3618   6.822   3.280   3.123
    9CHTO  H126 3619   6.847   3.229   3.218
    9CHTO   O41 3620   6.807   3.432   3.147
    9CHTO   C64 3621   6.929   3.500   3.190
    9CHTO  H121 3622   6.964   3.458   3.287
    9CHTO   C71 3623   6.897   3.650   3.213
    9CHTO   O47 3624   6.801   3.667   3.317
    9CHTO  H104 3625   6.782   3.758   3.327
    9CHTO   O34 3626   6.683   3.228   3.071
    9CHTO   C49 3627   6.527   3.228   3.081
    9CHTO   H91 3628   6.490   3.227   2.978
    9CHTO   C47 3629   6.476   3.355   3.152
    9CHTO   H89 3630   6.366   3.354   3.136
    9CHTO   O33 3631   6.529   3.473   3.090
    9CHTO   H70 3632   6.498   3.480   3.002
    9CHTO   C45 3633   6.514   3.355   3.309
    9CHTO   H87 3634   6.604   3.416   3.323
    9CHTO    N8 3635   6.403   3.420   3.384
    9CHTO   H75 3636   6.385   3.520   3.346
    9CHTO   H76 3637   6.428   3.426   0.052
    9CHTO   C43 3638   6.556   3.207   3.358
    9CHTO   H85 3639   6.658   3.195   3.322
    9CHTO   O29 3640   6.467   3.109   3.301
    9CHTO   C50 3641   6.469   3.104   3.157
    9CHTO   H92 3642   6.527   3.016   3.126
    9CHTO   C54 3643   6.326   3.074   3.105
    9CHTO   O36 3644   6.280   2.944   3.140
    9CHTO   H72 3645   6.266   2.938   3.233
    9CHTO   O27 3646   6.567   3.195   0.064
    9CHTO   C37 3647   6.682   3.181   0.150
    9CHTO   H79 3648   6.649   3.170   0.254
    9CHTO   C38 3649   6.764   3.053   0.113
    9CHTO   H80 3650   6.785   3.055   0.005
    9CHTO   O31 3651   6.682   2.939   0.142
    9CHTO   H68 3652   6.609   2.935   0.083
    9CHTO   C39 3653   6.901   3.046   0.192
    9CHTO   H81 3654   6.878   3.029   0.297
    9CHTO    N7 3655   6.989   2.932   0.148
    9CHTO   H73 3656   7.080   2.931   0.207
    9CHTO   H74 3657   6.936   2.839   0.161
    9CHTO   C40 3658   6.978   3.184   0.182
    9CHTO   H82 3659   7.011   3.199   0.079
    9CHTO   O26 3660   6.889   3.288   0.225
    9CHTO   C41 3661   6.773   3.307   0.140
    9CHTO   H83 3662   6.805   3.322   0.036
    9CHTO   C52 3663   6.703   3.436   0.188
    9CHTO   O35 3664   6.789   3.557   0.174
    9CHTO   H71 3665   6.804   3.575   0.083
    9CHTO   O28 3666   7.095   3.191   0.267
    9CHTO   C42 3667   7.160   3.318   0.303
    9CHTO   H84 3668   7.260   3.287   0.333
    9CHTO   C44 3669   7.098   3.390   0.428
    9CHTO   H86 3670   6.990   3.397   0.414
    9CHTO   O32 3671   7.120   3.303   0.541
    9CHTO   H69 3672   7.078   3.338   0.617
    9CHTO   C48 3673   7.153   3.536   0.453
    9CHTO   H90 3674   7.257   3.529   0.486
    9CHTO    N9 3675   7.079   3.605   0.564
    9CHTO   H77 3676   7.118   3.704   0.579
    9CHTO   H78 3677   7.088   3.547   0.656
    9CHTO   C51 3678   7.148   3.615   0.317
    9CHTO   H93 3679   7.044   3.615   0.283
    9CHTO   O30 3680   7.234   3.548   0.226
    9CHTO   C46 3681   7.176   3.416   0.182
    9CHTO   H88 3682   7.079   3.435   0.137
    9CHTO   C53 3683   7.272   3.357   0.075
    9CHTO   O72 3684   7.275   3.440   3.396
    9CHTO  H199 3685   7.194   3.434   3.350
    9CHTO   O22 3686   7.197   3.751   0.327
    9CHTO   C31 3687   7.178   3.853   0.221
    9CHTO   H59 3688   7.199   3.950   0.269
    9CHTO   C29 3689   7.276   3.839   0.102
    9CHTO   H57 3690   7.258   3.742   0.053
    9CHTO   O21 3691   7.410   3.836   0.154
    9CHTO   H37 3692   7.424   3.758   0.205
    9CHTO   C27 3693   7.255   3.955   3.432
    9CHTO   H55 3694   7.281   4.051   0.043
    9CHTO    N5 3695   7.340   3.938   3.311
    9CHTO   H43 3696   7.444   3.936   3.340
    9CHTO   H44 3697   7.314   3.846   3.260
    9CHTO   C25 3698   7.104   3.963   3.393
    9CHTO   H53 3699   7.075   3.871   3.339
    9CHTO   O17 3700   7.020   3.973   0.075
    9CHTO   C32 3701   7.031   3.864   0.167
    9CHTO   H60 3702   7.005   3.770   0.117
    9CHTO   C36 3703   6.930   3.889   0.281
    9CHTO   O25 3704   6.795   3.884   0.233
    9CHTO   H40 3705   6.778   3.958   0.177
    9CHTO   O15 3706   7.072   4.092   3.299
    9CHTO   C19 3707   6.963   4.104   3.202
    9CHTO   H47 3708   6.976   4.206   3.162
    9CHTO   C20 3709   6.977   4.003   3.083
    9CHTO   H48 3710   6.990   3.900   3.119
    9CHTO   O19 3711   7.097   4.038   3.012
    9CHTO   H35 3712   7.173   4.019   3.064
    9CHTO   C21 3713   6.853   4.004   2.985
    9CHTO   H49 3714   6.853   4.099   2.930
    9CHTO    N4 3715   6.856   3.895   2.883
    9CHTO   H41 3716   6.944   3.833   2.895
    9CHTO   H42 3717   6.856   3.937   2.784
    9CHTO   C22 3718   6.722   4.001   3.068
    9CHTO   H50 3719   6.716   3.905   3.120
    9CHTO   O14 3720   6.721   4.108   3.163
    9CHTO   C23 3721   6.821   4.098   3.266
    9CHTO   H51 3722   6.803   4.004   3.321
    9CHTO   C34 3723   6.793   4.216   3.360
    9CHTO   O23 3724   6.872   4.212   0.042
    9CHTO   H38 3725   6.851   4.285   0.096
    9CHTO   O16 3726   6.604   4.023   2.987
    9CHTO   C24 3727   6.473   3.952   3.050
    9CHTO   H52 3728   6.487   3.927   3.155
    9CHTO   C26 3729   6.441   3.824   2.971
    9CHTO   H54 3730   6.427   3.852   2.863
    9CHTO   O20 3731   6.555   3.737   2.981
    9CHTO   H36 3732   6.542   3.661   2.926
    9CHTO   C30 3733   6.310   3.759   3.024
    9CHTO   H58 3734   6.326   3.722   3.127
    9CHTO    N6 3735   6.272   3.640   2.943
    9CHTO   H45 3736   6.350   3.565   2.948
    9CHTO   H46 3737   6.256   3.668   2.840
    9CHTO   C33 3738   6.194   3.864   3.032
    9CHTO   H61 3739   6.164   3.893   2.931
    9CHTO   O18 3740   6.239   3.982   3.102
    9CHTO   C28 3741   6.352   4.048   3.042
    9CHTO   H56 3742   6.331   4.070   2.937
    9CHTO   C35 3743   6.381   4.183   3.112
    9CHTO   O24 3744   6.426   4.171   3.247
    9CHTO   H39 3745   6.510   4.130   3.249
    9CHTO    O9 3746   6.076   3.808   3.094
    9CHTO   C13 3747   5.942   3.784   2.993
    9CHTO   H26 3748   5.972   3.804   2.888
    9CHTO   C11 3749   5.826   3.881   3.040
    9CHTO   H24 3750   5.858   3.984   3.015
    9CHTO    O8 3751   5.812   3.874   3.183
    9CHTO    H3 3752   5.784   3.789   3.209
    9CHTO    C9 3753   5.697   3.847   2.962
    9CHTO   H22 3754   5.725   3.851   2.855
    9CHTO    N2 3755   5.589   3.948   2.977
    9CHTO   H10 3756   5.554   3.950   3.079
    9CHTO   H11 3757   5.508   3.926   2.910
    9CHTO    C7 3758   5.652   3.701   2.997
    9CHTO   H20 3759   5.565   3.682   2.931
    9CHTO    O4 3760   5.755   3.605   2.967
    9CHTO   C14 3761   5.895   3.631   2.996
    9CHTO   H27 3762   5.950   3.580   2.914
    9CHTO   C18 3763   5.933   3.559   3.127
    9CHTO   O13 3764   5.916   3.417   3.118
    9CHTO    H7 3765   5.824   3.397   3.114
    9CHTO    O2 3766   5.605   3.687   3.158
    9CHTO    C1 3767   5.559   3.558   3.200
    9CHTO   H14 3768   5.625   3.479   3.157
    9CHTO    C2 3769   5.408   3.524   3.161
    9CHTO   H15 3770   5.347   3.605   3.202
    9CHTO    O6 3771   5.394   3.521   3.018
    9CHTO    H1 3772   5.408   3.607   2.982
    9CHTO    C3 3773   5.362   3.383   3.225
    9CHTO   H16 3774   5.418   3.302   3.174
    9CHTO    N1 3775   5.216   3.354   3.207
    9CHTO    H8 3776   5.167   3.434   3.154
    9CHTO    H9 3777   5.202   3.261   3.153
    9CHTO    C4 3778   5.405   3.374   3.377
    9CHTO   H17 3779   5.340   3.439   3.436
    9CHTO    O1 3780   5.542   3.412   3.394
    9CHTO    C5 3781   5.571   3.547   3.355
    9CHTO   H18 3782   5.499   3.615   3.400
    9CHTO   C16 3783   5.712   3.581   3.409
    9CHTO   O11 3784   5.717   3.576   0.115
    9CHTO    H5 3785   5.710   3.487   0.144
    9CHTO    O3 3786   5.397   3.238   3.427
    9CHTO    C6 3787   5.426   3.225   0.134
    9CHTO   H19 3788   5.467   3.316   0.178
    9CHTO    C8 3789   5.296   3.190   0.212
    9CHTO   H21 3790   5.252   3.100   0.168
    9CHTO    O7 3791   5.207   3.301   0.195
    9CHTO    H2 3792   5.123   3.282   0.233
    9CHTO   C12 3793   5.328   3.163   0.365
    9CHTO   H25 3794   5.359   3.261   0.407
    9CHTO    N3 3795   5.206   3.118   0.441
    9CHTO   H12 3796   5.119   3.113   0.377
    9CHTO   H13 3797   5.188   3.185   0.524
    9CHTO   C15 3798   5.448   3.063   0.378
    9CHTO   H28 3799   5.419   2.961   0.351
    9CHTO   O10 3800   5.510   3.061   0.522
    9CHTO    H4 3801   5.533   3.149   0.548
    9CHTO    O5 3802   5.560   3.104   0.298
    9CHTO   C10 3803   5.531   3.112   0.157
    9CHTO   H23 3804   5.492   3.016   0.124
    9CHTO   C17 3805   5.664   3.134   0.084
    9CHTO   O12 3806   5.651   3.113   3.380
    9CHTO    H6 3807   5.735   3.127   3.338
   10CHTO  H203 3808   5.848   6.218   2.589
   10CHTO   O82 3809   5.825   6.246   2.675
   10CHTO  C123 3810   5.705   6.325   2.672
   10CHTO  H227 3811   5.714   6.400   2.591
   10CHTO   O77 3812   5.601   6.228   2.640
   10CHTO  C118 3813   5.470   6.284   2.624
   10CHTO  H222 3814   5.473   6.361   2.546
   10CHTO  C125 3815   5.373   6.169   2.578
   10CHTO   O84 3816   5.365   6.062   2.673
   10CHTO  H205 3817   5.305   5.997   2.643
   10CHTO  C114 3818   5.425   6.347   2.757
   10CHTO  H218 3819   5.423   6.270   2.834
   10CHTO  C116 3820   5.527   6.455   2.806
   10CHTO  H220 3821   5.524   6.542   2.736
   10CHTO   O79 3822   5.485   6.505   2.935
   10CHTO  H201 3823   5.405   6.553   2.927
   10CHTO  C120 3824   5.673   6.395   2.810
   10CHTO  H224 3825   5.674   6.319   2.891
   10CHTO   N21 3826   5.776   6.497   2.846
   10CHTO  H211 3827   5.812   6.548   2.758
   10CHTO  H212 3828   5.736   6.568   2.918
   10CHTO   O75 3829   5.292   6.397   2.732
   10CHTO  C112 3830   5.190   6.380   2.860
   10CHTO  H216 3831   5.228   6.442   2.943
   10CHTO   O73 3832   5.186   6.241   2.896
   10CHTO  C113 3833   5.114   6.214   3.017
   10CHTO  H217 3834   5.162   6.271   3.099
   10CHTO  C124 3835   5.132   6.065   3.050
   10CHTO   O83 3836   5.084   5.978   2.947
   10CHTO  H204 3837   4.990   5.984   2.941
   10CHTO  C109 3838   4.964   6.256   3.004
   10CHTO  H213 3839   4.917   6.186   2.934
   10CHTO  C110 3840   4.952   6.402   2.950
   10CHTO  H214 3841   4.980   6.471   3.030
   10CHTO   O78 3842   4.813   6.428   2.920
   10CHTO  H200 3843   4.783   6.371   2.852
   10CHTO  C111 3844   5.043   6.425   2.825
   10CHTO  H215 3845   5.007   6.362   2.743
   10CHTO   N19 3846   5.041   6.566   2.776
   10CHTO  H207 3847   4.940   6.594   2.749
   10CHTO  H208 3848   5.105   6.575   2.689
   10CHTO   O74 3849   4.899   6.243   3.135
   10CHTO  C115 3850   4.747   6.192   3.127
   10CHTO  H219 3851   4.695   6.235   3.042
   10CHTO   O76 3852   4.739   6.040   3.105
   10CHTO  C122 3853   4.798   5.967   3.213
   10CHTO  H226 3854   4.904   5.992   3.216
   10CHTO  C126 3855   4.791   5.816   3.174
   10CHTO   O85 3856   4.860   5.731   3.267
   10CHTO  H206 3857   4.854   5.642   3.239
   10CHTO  C121 3858   4.729   5.998   3.353
   10CHTO  H225 3859   4.679   5.905   3.390
   10CHTO   O81 3860   4.830   6.034   0.011
   10CHTO  H202 3861   4.794   6.039   0.097
   10CHTO  C119 3862   4.621   6.111   3.342
   10CHTO  H223 3863   4.539   6.066   3.285
   10CHTO  C117 3864   4.675   6.236   3.262
   10CHTO  H221 3865   4.749   6.295   3.316
   10CHTO   N20 3866   4.562   6.331   3.234
   10CHTO  H209 3867   4.600   6.419   3.184
   10CHTO  H210 3868   4.515   6.360   3.327
   10CHTO   O80 3869   4.547   6.144   0.047
   10CHTO  C103 3870   4.454   6.036   0.115
   10CHTO  H190 3871   4.431   5.955   0.046
   10CHTO  C101 3872   4.508   5.975   0.250
   10CHTO  H188 3873   4.546   6.057   0.312
   10CHTO   O68 3874   4.628   5.881   0.217
   10CHTO  H168 3875   4.668   5.852   0.296
   10CHTO   C99 3876   4.393   5.899   0.332
   10CHTO  H186 3877   4.361   5.810   0.274
   10CHTO   N17 3878   4.437   5.849   0.466
   10CHTO  H174 3879   4.522   5.784   0.455
   10CHTO  H175 3880   4.461   5.933   0.530
   10CHTO   C97 3881   4.266   5.989   0.343
   10CHTO  H184 3882   4.289   6.076   0.407
   10CHTO   O64 3883   4.225   6.029   0.211
   10CHTO  C104 3884   4.319   6.113   0.142
   10CHTO  H191 3885   4.340   6.204   0.198
   10CHTO  C108 3886   4.254   6.158   0.010
   10CHTO   O71 3887   4.138   6.238   0.033
   10CHTO  H171 3888   4.099   6.262   3.388
   10CHTO   O62 3889   4.148   5.920   0.388
   10CHTO   C91 3890   4.094   5.945   0.520
   10CHTO  H178 3891   4.176   5.972   0.587
   10CHTO   C92 3892   4.038   5.807   0.570
   10CHTO  H179 3893   3.979   5.763   0.488
   10CHTO   O66 3894   4.149   5.718   0.589
   10CHTO  H166 3895   4.119   5.632   0.610
   10CHTO   C93 3896   3.951   5.814   0.703
   10CHTO  H180 3897   4.020   5.825   0.787
   10CHTO   N16 3898   3.876   5.688   0.726
   10CHTO  H172 3899   3.806   5.670   0.646
   10CHTO  H173 3900   3.823   5.693   0.821
   10CHTO   C94 3901   3.854   5.937   0.701
   10CHTO  H181 3902   3.775   5.927   0.625
   10CHTO   O61 3903   3.927   6.055   0.666
   10CHTO   C95 3904   3.978   6.053   0.531
   10CHTO  H182 3905   3.897   6.028   0.463
   10CHTO  C106 3906   4.023   6.200   0.499
   10CHTO   O69 3907   4.051   6.217   0.360
   10CHTO  H169 3908   4.078   6.305   0.344
   10CHTO   O63 3909   3.779   5.963   0.851
   10CHTO   C96 3910   3.872   5.979   0.984
   10CHTO  H183 3911   3.976   5.969   0.955
   10CHTO   C98 3912   3.839   5.873   1.093
   10CHTO  H185 3913   3.731   5.870   1.109
   10CHTO   O67 3914   3.874   5.743   1.042
   10CHTO  H167 3915   3.818   5.719   0.971
   10CHTO  C102 3916   3.913   5.901   1.232
   10CHTO  H189 3917   4.021   5.890   1.212
   10CHTO   N18 3918   3.882   5.804   1.340
   10CHTO  H176 3919   3.936   5.829   1.430
   10CHTO  H177 3920   3.908   5.704   1.309
   10CHTO  C105 3921   3.886   6.048   1.274
   10CHTO  H192 3922   3.779   6.059   1.296
   10CHTO   O65 3923   3.920   6.141   1.169
   10CHTO  C100 3924   3.850   6.122   1.045
   10CHTO  H187 3925   3.742   6.135   1.065
   10CHTO  C107 3926   3.892   6.234   0.946
   10CHTO   O70 3927   4.032   6.231   0.918
   10CHTO  H170 3928   4.053   6.300   0.858
   10CHTO   O57 3929   3.977   6.079   1.411
   10CHTO   C85 3930   3.933   6.174   1.509
   10CHTO  H157 3931   3.868   6.248   1.456
   10CHTO   C83 3932   4.058   6.255   1.560
   10CHTO  H155 3933   4.099   6.310   1.475
   10CHTO   O56 3934   4.161   6.164   1.604
   10CHTO  H135 3935   4.191   6.112   1.532
   10CHTO   C81 3936   4.013   6.357   1.668
   10CHTO  H153 3937   3.935   6.420   1.625
   10CHTO   N14 3938   4.120   6.452   1.706
   10CHTO  H141 3939   4.082   6.525   1.775
   10CHTO  H142 3940   4.157   6.502   1.619
   10CHTO   C79 3941   3.951   6.281   1.792
   10CHTO  H151 3942   3.912   6.357   1.860
   10CHTO   O52 3943   3.837   6.200   1.749
   10CHTO   C86 3944   3.860   6.110   1.635
   10CHTO  H158 3945   3.920   6.028   1.679
   10CHTO   C90 3946   3.724   6.047   1.596
   10CHTO   O60 3947   3.628   6.147   1.557
   10CHTO  H138 3948   3.654   6.186   1.476
   10CHTO   O50 3949   4.045   6.199   1.865
   10CHTO   C73 3950   4.052   6.108   1.976
   10CHTO  H145 3951   4.014   6.010   1.946
   10CHTO   C74 3952   3.969   6.159   2.099
   10CHTO  H146 3953   3.865   6.171   2.065
   10CHTO   O54 3954   3.968   6.054   2.197
   10CHTO  H133 3955   3.915   6.079   2.270
   10CHTO   C75 3956   4.030   6.295   2.151
   10CHTO  H147 3957   4.017   6.371   2.073
   10CHTO   N13 3958   3.960   6.350   2.270
   10CHTO  H139 3959   3.967   6.281   2.353
   10CHTO  H140 3960   4.005   6.444   2.300
   10CHTO   C76 3961   4.188   6.280   2.177
   10CHTO  H148 3962   4.203   6.217   2.264
   10CHTO   O49 3963   4.255   6.220   2.061
   10CHTO   C77 3964   4.201   6.093   2.020
   10CHTO  H149 3965   4.207   6.022   2.103
   10CHTO   C88 3966   4.290   6.035   1.909
   10CHTO   O58 3967   4.245   5.898   1.868
   10CHTO  H136 3968   4.257   5.838   1.940
   10CHTO   O51 3969   4.253   6.429   2.194
   10CHTO   C78 3970   4.410   6.430   2.202
   10CHTO  H150 3971   4.453   6.332   2.170
   10CHTO   C80 3972   4.458   6.460   2.346
   10CHTO  H152 3973   4.418   6.559   2.377
   10CHTO   O55 3974   4.403   6.359   2.431
   10CHTO  H134 3975   4.424   6.377   2.521
   10CHTO   C84 3976   4.617   6.464   2.349
   10CHTO  H156 3977   4.653   6.366   2.318
   10CHTO   N15 3978   4.671   6.489   2.487
   10CHTO  H143 3979   4.735   6.409   2.517
   10CHTO  H144 3980   4.727   6.581   2.491
   10CHTO   C87 3981   4.665   6.569   2.246
   10CHTO  H159 3982   4.634   6.668   2.278
   10CHTO   O53 3983   4.607   6.537   2.108
   10CHTO   C82 3984   4.463   6.537   2.106
   10CHTO  H154 3985   4.426   6.636   2.135
   10CHTO   C89 3986   4.416   6.513   1.960
   10CHTO   O59 3987   4.464   6.388   1.907
   10CHTO  H137 3988   4.432   6.377   1.820
   10CHTO   O45 3989   4.826   6.564   2.222
   10CHTO   C67 3990   4.898   6.678   2.271
   10CHTO  H124 3991   4.873   6.697   2.375
   10CHTO   C65 3992   5.051   6.650   2.260
   10CHTO  H122 3993   5.066   6.549   2.300
   10CHTO   O44 3994   5.124   6.743   2.341
   10CHTO  H102 3995   5.215   6.720   2.342
   10CHTO   C63 3996   5.091   6.644   2.108
   10CHTO  H120 3997   5.025   6.574   2.057
   10CHTO   N11 3998   5.226   6.584   2.079
   10CHTO  H108 3999   5.239   6.572   1.974
   10CHTO  H109 4000   5.303   6.648   2.118
   10CHTO   C61 4001   5.067   6.785   2.043
   10CHTO  H118 4002   5.076   6.769   1.934
   10CHTO   O40 4003   4.932   6.836   2.066
   10CHTO   C68 4004   4.859   6.810   2.191
   10CHTO  H125 4005   4.753   6.799   2.159
   10CHTO   C72 4006   4.863   6.934   2.283
   10CHTO   O48 4007   4.791   7.045   2.229
   10CHTO  H105 4008   4.797   7.118   2.288
   10CHTO   O38 4009   5.162   6.885   2.085
   10CHTO   C55 4010   5.191   6.990   1.991
   10CHTO  H112 4011   5.102   7.012   1.931
   10CHTO   C56 4012   5.317   6.953   1.900
   10CHTO  H113 4013   5.398   6.921   1.968
   10CHTO   O42 4014   5.286   6.839   1.818
   10CHTO  H100 4015   5.362   6.812   1.771
   10CHTO   C57 4016   5.364   7.076   1.812
   10CHTO  H114 4017   5.288   7.090   1.734
   10CHTO   N10 4018   5.493   7.054   1.742
   10CHTO  H106 4019   5.477   7.008   1.646
   10CHTO  H107 4020   5.558   6.990   1.801
   10CHTO   C58 4021   5.371   7.205   1.897
   10CHTO  H115 4022   5.457   7.199   1.968
   10CHTO   O37 4023   5.249   7.225   1.971
   10CHTO   C59 4024   5.224   7.122   2.067
   10CHTO  H116 4025   5.311   7.108   2.131
   10CHTO   C70 4026   5.108   7.167   2.157
   10CHTO   O46 4027   5.139   7.284   2.233
   10CHTO  H103 4028   5.066   7.307   2.287
   10CHTO   O39 4029   5.386   7.334   1.807
   10CHTO   C60 4030   5.429   7.450   1.881
   10CHTO  H117 4031   5.400   7.441   1.986
   10CHTO   C62 4032   5.585   7.465   1.879
   10CHTO  H119 4033   5.626   7.380   1.938
   10CHTO   O43 4034   5.633   7.454   1.743
   10CHTO  H101 4035   5.601   7.525   1.691
   10CHTO   C66 4036   5.627   7.604   1.950
   10CHTO  H123 4037   5.592   7.602   2.053
   10CHTO   N12 4038   5.774   7.624   1.957
   10CHTO  H110 4039   5.796   7.717   2.006
   10CHTO  H111 4040   5.819   7.541   2.010
   10CHTO   C69 4041   5.553   7.721   1.879
   10CHTO  H126 4042   5.582   7.724   1.771
   10CHTO   O41 4043   5.403   7.697   1.893
   10CHTO   C64 4044   5.358   7.576   1.824
   10CHTO  H121 4045   5.381   7.584   1.716
   10CHTO   C71 4046   5.204   7.566   1.838
   10CHTO   O47 4047   5.162   7.557   1.975
   10CHTO  H104 4048   5.068   7.552   1.978
   10CHTO   O34 4049   5.584   7.857   1.940
   10CHTO   C49 4050   5.566   8.004   1.919
   10CHTO   H91 4051   5.600   8.051   2.011
   10CHTO   C47 4052   5.416   8.036   1.899
   10CHTO   H89 4053   5.407   8.147   1.911
   10CHTO   O33 4054   5.341   7.973   2.005
   10CHTO   H70 4055   5.251   8.000   2.001
   10CHTO   C45 4056   5.368   7.993   1.751
   10CHTO   H87 4057   5.389   7.886   1.736
   10CHTO    N8 4058   5.222   8.015   1.730
   10CHTO   H75 4059   5.193   7.977   1.633
   10CHTO   H76 4060   5.199   8.120   1.736
   10CHTO   C43 4061   5.458   8.069   1.644
   10CHTO   H85 4062   5.425   8.036   1.546
   10CHTO   O29 4063   5.597   8.038   1.667
   10CHTO   C50 4064   5.652   8.055   1.799
   10CHTO   H92 4065   5.746   7.998   1.801
   10CHTO   C54 4066   5.700   8.202   1.818
   10CHTO   O36 4067   5.776   8.219   1.938
   10CHTO   H72 4068   5.858   8.173   1.931
   10CHTO   O27 4069   5.436   8.211   1.647
   10CHTO   C37 4070   5.457   8.336   1.581
   10CHTO   H79 4071   5.557   8.377   1.605
   10CHTO   C38 4072   5.450   8.318   1.427
   10CHTO   H80 4073   5.357   8.265   1.403
   10CHTO   O31 4074   5.562   8.237   1.387
   10CHTO   H68 4075   5.551   8.149   1.418
   10CHTO   C39 4076   5.452   8.456   1.351
   10CHTO   H81 4077   5.550   8.502   1.367
   10CHTO    N7 4078   5.433   8.442   1.203
   10CHTO   H73 4079   5.338   8.394   1.182
   10CHTO   H74 4080   5.514   8.385   1.160
   10CHTO   C40 4081   5.345   8.553   1.414
   10CHTO   H82 4082   5.245   8.516   1.391
   10CHTO   O26 4083   5.366   8.565   1.556
   10CHTO   C41 4084   5.349   8.438   1.627
   10CHTO   H83 4085   5.249   8.397   1.605
   10CHTO   C52 4086   5.356   8.464   1.779
   10CHTO   O35 4087   5.487   8.515   1.826
   10CHTO   H71 4088   5.503   8.600   1.789
   10CHTO   O28 4089   5.358   8.688   1.366
   10CHTO   C42 4090   5.240   8.772   1.351
   10CHTO   H84 4091   5.161   8.723   1.409
   10CHTO   C44 4092   5.184   8.783   1.205
   10CHTO   H86 4093   5.264   8.820   1.140
   10CHTO   O32 4094   5.150   8.650   1.161
   10CHTO   H69 4095   5.228   8.598   1.150
   10CHTO   C48 4096   5.061   8.882   1.194
   10CHTO   H90 4097   4.976   8.835   1.243
   10CHTO    N9 4098   5.019   8.904   1.051
   10CHTO   H77 4099   4.934   8.971   1.048
   10CHTO   H78 4100   4.993   8.809   1.005
   10CHTO   C51 4101   5.094   9.017   1.267
   10CHTO   H93 4102   5.174   9.068   1.211
   10CHTO   O30 4103   5.132   8.989   1.402
   10CHTO   C46 4104   5.259   8.914   1.412
   10CHTO   H88 4105   5.336   8.967   1.357
   10CHTO   C53 4106   5.299   8.908   1.562
   10CHTO   O72 4107   5.201   8.841   1.642
   10CHTO  H199 4108   5.122   8.891   1.645
   10CHTO   O22 4109   4.978   9.103   1.278
   10CHTO   C31 4110   4.992   9.249   1.291
   10CHTO   H59 4111   4.892   9.286   1.321
   10CHTO   C29 4112   5.092   9.296   1.400
   10CHTO   H57 4113   5.190   9.252   1.377
   10CHTO   O21 4114   5.050   9.242   1.526
   10CHTO   H37 4115   5.054   9.148   1.525
   10CHTO   C27 4116   5.106   9.453   1.406
   10CHTO   H55 4117   5.011   9.495   1.443
   10CHTO    N5 4118   5.216   9.497   1.497
   10CHTO   H43 4119   5.199   9.456   1.596
   10CHTO   H44 4120   5.219   9.604   1.502
   10CHTO   C25 4121   5.128   9.510   1.261
   10CHTO   H53 4122   5.226   9.478   1.223
   10CHTO   O17 4123   5.025   9.461   1.170
   10CHTO   C32 4124   5.024   9.319   1.155
   10CHTO   H60 4125   5.121   9.284   1.119
   10CHTO   C36 4126   4.917   9.285   1.047
   10CHTO   O25 4127   4.951   9.339   0.919
   10CHTO   H40 4128   4.945   9.433   0.922
   10CHTO   O15 4129   5.119   9.657   1.260
   10CHTO   C19 4130   5.111   9.794   1.215
   10CHTO   H47 4131   5.014   9.798   1.161
   10CHTO   C20 4132   5.109   9.898   1.331
   10CHTO   H48 4133   5.200   9.892   1.393
   10CHTO   O19 4134   4.996   9.865   1.414
   10CHTO   H35 4135   5.012   9.784   1.460
   10CHTO   C21 4136   5.096   0.046   1.277
   10CHTO   H49 4137   4.997   0.058   1.231
   10CHTO    N4 4138   5.107   0.150   1.383
   10CHTO   H41 4139   5.016   0.208   1.388
   10CHTO   H42 4140   5.124   0.104   1.480
   10CHTO   C22 4141   5.200   0.069   1.163
   10CHTO   H50 4142   5.300   0.073   1.206
   10CHTO   O14 4143   5.193   9.965   1.064
   10CHTO   C23 4144   5.220   9.832   1.111
   10CHTO   H51 4145   5.321   9.831   1.156
   10CHTO   C34 4146   5.219   9.738   0.990
   10CHTO   O23 4147   5.325   9.770   0.900
   10CHTO   H38 4148   5.324   9.709   0.828
   10CHTO   O16 4149   5.171   0.188   1.087
   10CHTO   C24 4150   5.298   0.239   1.002
   10CHTO   H52 4151   5.381   0.168   1.005
   10CHTO   C26 4152   5.344   0.373   1.061
   10CHTO   H54 4153   5.257   0.443   1.062
   10CHTO   O20 4154   5.386   0.351   1.197
   10CHTO   H36 4155   5.313   0.330   1.251
   10CHTO   C30 4156   5.457   0.438   0.975
   10CHTO   H58 4157   5.548   0.376   0.984
   10CHTO    N6 4158   5.494   0.574   1.022
   10CHTO   H45 4159   5.435   0.603   1.109
   10CHTO   H46 4160   5.598   0.578   1.048
   10CHTO   C33 4161   5.418   0.438   0.823
   10CHTO   H61 4162   5.335   0.508   0.808
   10CHTO   O18 4163   5.374   0.307   0.782
   10CHTO   C28 4164   5.259   0.256   0.852
   10CHTO   H56 4165   5.175   0.326   0.845
   10CHTO   C35 4166   5.219   0.121   0.790
   10CHTO   O24 4167   5.184   0.131   0.651
   10CHTO   H39 4168   5.158   0.047   0.619
   10CHTO    O9 4169   5.526   0.486   0.739
   10CHTO   C13 4170   5.622   0.377   0.660
   10CHTO   H26 4171   5.556   0.317   0.594
   10CHTO   C11 4172   5.703   0.286   0.762
   10CHTO   H24 4173   5.630   0.225   0.818
   10CHTO    O8 4174   5.773   0.367   0.858
   10CHTO    H3 4175   5.712   0.416   0.911
   10CHTO    C9 4176   5.795   0.192   0.680
   10CHTO   H22 4177   5.728   0.140   0.610
   10CHTO    N2 4178   5.858   0.085   0.760
   10CHTO   H10 4179   5.782   0.029   0.814
   10CHTO   H11 4180   5.913   0.018   0.696
   10CHTO    C7 4181   5.897   0.278   0.597
   10CHTO   H20 4182   5.949   0.204   0.532
   10CHTO    O4 4183   5.829   0.374   0.513
   10CHTO   C14 4184   5.720   0.455   0.562
   10CHTO   H27 4185   5.662   0.483   0.472
   10CHTO   C18 4186   5.778   0.587   0.620
   10CHTO   O13 4187   5.680   0.690   0.634
   10CHTO    H7 4188   5.618   0.666   0.699
   10CHTO    O2 4189   6.010   0.358   0.691
   10CHTO    C1 4190   6.141   0.382   0.635
   10CHTO   H14 4191   6.194   0.451   0.702
   10CHTO    C2 4192   6.143   0.443   0.489
   10CHTO   H15 4193   6.091   0.372   0.424
   10CHTO    O6 4194   6.072   0.568   0.488
   10CHTO    H1 4195   6.114   0.630   0.545
   10CHTO    C3 4196   6.294   0.463   0.437
   10CHTO   H16 4197   6.340   0.543   0.497
   10CHTO    N1 4198   6.299   0.508   0.293
   10CHTO    H8 4199   6.252   0.434   0.230
   10CHTO    H9 4200   6.249   0.603   0.282
   10CHTO    C4 4201   6.380   0.334   0.462
   10CHTO   H17 4202   6.354   0.258   0.389
   10CHTO    O1 4203   6.362   0.283   0.596
   10CHTO    C5 4204   6.227   0.251   0.632
   10CHTO   H18 4205   6.184   0.184   0.557
   10CHTO   C16 4206   6.230   0.178   0.768
   10CHTO   O11 4207   6.299   0.053   0.760
   10CHTO    H5 4208   6.249   9.993   0.708
   10CHTO    O3 4209   6.521   0.366   0.455
   10CHTO    C6 4210   6.610   0.264   0.398
   10CHTO   H19 4211   6.560   0.167   0.385
   10CHTO    C8 4212   6.662   0.312   0.259
   10CHTO   H21 4213   6.701   0.413   0.270
   10CHTO    O7 4214   6.549   0.313   0.169
   10CHTO    H2 4215   6.574   0.349   0.087
   10CHTO   C12 4216   6.778   0.218   0.205
   10CHTO   H25 4217   6.731   0.120   0.180
   10CHTO    N3 4218   6.837   0.270   0.077
   10CHTO   H12 4219   6.878   0.369   0.093
   10CHTO   H13 4220   6.762   0.273   3.437
   10CHTO   C15 4221   6.885   0.194   0.317
   10CHTO   H28 4222   6.943   0.284   0.338
   10CHTO   O10 4223   6.983   0.077   0.283
   10CHTO    H4 4224   7.052   0.073   0.347
   10CHTO    O5 4225   6.823   0.147   0.437
   10CHTO   C10 4226   6.729   0.240   0.494
   10CHTO   H23 4227   6.781   0.334   0.513
   10CHTO   C17 4228   6.684   0.184   0.630
   10CHTO   O12 4229   6.794   0.177   0.721
   10CHTO    H6 4230   6.765   0.142   0.803
   11CHTO  H203 4231   7.353   4.441   0.488
   11CHTO   O82 4232   7.409   4.468   0.417
   11CHTO  C123 4233   7.409   4.611   0.403
   11CHTO  H227 4234   7.478   4.639   0.322
   11CHTO   O77 4235   7.272   4.641   0.364
   11CHTO  C118 4236   7.246   4.780   0.339
   11CHTO  H222 4237   7.316   4.818   0.263
   11CHTO  C125 4238   7.099   4.794   0.285
   11CHTO   O84 4239   7.085   4.732   0.158
   11CHTO  H205 4240   6.996   4.742   0.127
   11CHTO  C114 4241   7.266   4.859   0.470
   11CHTO  H218 4242   7.198   4.818   0.546
   11CHTO  C116 4243   7.412   4.840   0.523
   11CHTO  H220 4244   7.483   4.889   0.452
   11CHTO   O79 4245   7.425   4.911   0.648
   11CHTO  H201 4246   7.369   4.874   0.713
   11CHTO  C120 4247   7.446   4.686   0.537
   11CHTO  H224 4248   7.384   4.647   0.621
   11CHTO   N21 4249   7.589   4.664   0.576
   11CHTO  H211 4250   7.624   4.569   0.539
   11CHTO  H212 4251   7.651   4.743   0.538
   11CHTO   O75 4252   7.233   4.995   0.440
   11CHTO  C112 4253   7.137   5.066   0.554
   11CHTO  H216 4254   7.185   5.055   0.653
   11CHTO   O73 4255   7.010   5.000   0.549
   11CHTO  C113 4256   6.908   5.055   0.634
   11CHTO  H217 4257   6.944   5.051   0.740
   11CHTO  C124 4258   6.782   4.968   0.624
   11CHTO   O83 4259   6.802   4.834   0.669
   11CHTO  H204 4260   6.817   4.833   0.762
   11CHTO  C109 4261   6.879   5.201   0.593
   11CHTO  H213 4262   6.848   5.198   0.487
   11CHTO  C110 4263   7.010   5.283   0.607
   11CHTO  H214 4264   7.040   5.283   0.712
   11CHTO   O78 4265   6.983   5.420   0.571
   11CHTO  H200 4266   6.957   5.426   0.481
   11CHTO  C111 4267   7.122   5.220   0.520
   11CHTO  H215 4268   7.092   5.226   0.414
   11CHTO   N19 4269   7.253   5.290   0.531
   11CHTO  H207 4270   7.286   5.324   0.435
   11CHTO  H208 4271   7.329   5.226   0.575
   11CHTO   O74 4272   6.770   5.257   0.673
   11CHTO  C115 4273   6.647   5.313   0.583
   11CHTO  H219 4274   6.668   5.305   0.476
   11CHTO   O76 4275   6.514   5.228   0.605
   11CHTO  C122 4276   6.469   5.226   0.742
   11CHTO  H226 4277   6.525   5.148   0.793
   11CHTO  C126 4278   6.319   5.178   0.744
   11CHTO   O85 4279   6.231   5.263   0.668
   11CHTO  H206 4280   6.225   5.347   0.709
   11CHTO  C121 4281   6.486   5.365   0.817
   11CHTO  H225 4282   6.397   5.382   0.880
   11CHTO   O81 4283   6.599   5.358   0.905
   11CHTO  H202 4284   6.603   5.435   0.959
   11CHTO  C119 4285   6.498   5.481   0.714
   11CHTO  H223 4286   6.410   5.468   0.650
   11CHTO  C117 4287   6.625   5.466   0.622
   11CHTO  H221 4288   6.719   5.496   0.669
   11CHTO   N20 4289   6.613   5.552   0.500
   11CHTO  H209 4290   6.529   5.520   0.440
   11CHTO  H210 4291   6.704   5.548   0.443
   11CHTO   O80 4292   6.471   5.628   0.772
   11CHTO  C103 4293   6.514   5.665   0.919
   11CHTO  H190 4294   6.498   5.582   0.988
   11CHTO  C101 4295   6.662   5.719   0.937
   11CHTO  H188 4296   6.684   5.788   0.856
   11CHTO   O68 4297   6.762   5.600   0.926
   11CHTO  H168 4298   6.748   5.540   0.997
   11CHTO   C99 4299   6.679   5.799   1.076
   11CHTO  H186 4300   6.661   5.729   1.161
   11CHTO   N17 4301   6.814   5.861   1.096
   11CHTO  H174 4302   6.890   5.784   1.094
   11CHTO  H175 4303   6.832   5.935   1.019
   11CHTO   C97 4304   6.566   5.905   1.084
   11CHTO  H184 4305   6.577   5.973   0.998
   11CHTO   O64 4306   6.439   5.838   1.083
   11CHTO  C104 4307   6.410   5.777   0.956
   11CHTO  H191 4308   6.409   5.853   0.878
   11CHTO  C108 4309   6.268   5.720   0.961
   11CHTO   O71 4310   6.170   5.824   0.974
   11CHTO  H171 4311   6.084   5.786   0.975
   11CHTO   O62 4312   6.564   5.981   1.207
   11CHTO   C91 4313   6.500   6.110   1.199
   11CHTO  H178 4314   6.466   6.126   1.097
   11CHTO   C92 4315   6.607   6.221   1.226
   11CHTO  H179 4316   6.698   6.201   1.168
   11CHTO   O66 4317   6.555   6.345   1.175
   11CHTO  H166 4318   6.621   6.412   1.177
   11CHTO   C93 4319   6.639   6.241   1.380
   11CHTO  H180 4320   6.685   6.341   1.389
   11CHTO   N16 4321   6.740   6.147   1.433
   11CHTO  H172 4322   6.777   6.081   1.355
   11CHTO  H173 4323   6.822   6.201   1.478
   11CHTO   C94 4324   6.506   6.238   1.466
   11CHTO  H181 4325   6.499   6.149   1.528
   11CHTO   O61 4326   6.387   6.239   1.385
   11CHTO   C95 4327   6.377   6.125   1.298
   11CHTO  H182 4328   6.370   6.035   1.359
   11CHTO  C106 4329   6.243   6.133   1.217
   11CHTO   O69 4330   6.130   6.120   1.304
   11CHTO  H169 4331   6.119   6.198   1.355
   11CHTO   O63 4332   6.503   6.366   1.556
   11CHTO   C96 4333   6.530   6.336   1.707
   11CHTO  H183 4334   6.587   6.243   1.715
   11CHTO   C98 4335   6.401   6.320   1.792
   11CHTO  H185 4336   6.332   6.403   1.770
   11CHTO   O67 4337   6.333   6.201   1.746
   11CHTO  H167 4338   6.385   6.125   1.763
   11CHTO  C102 4339   6.431   6.313   1.950
   11CHTO  H189 4340   6.485   6.219   1.966
   11CHTO   N18 4341   6.310   6.305   2.036
   11CHTO  H176 4342   6.339   6.298   2.140
   11CHTO  H177 4343   6.251   6.218   2.009
   11CHTO  C105 4344   6.524   6.431   1.988
   11CHTO  H192 4345   6.471   6.525   1.973
   11CHTO   O65 4346   6.643   6.432   1.907
   11CHTO  C100 4347   6.620   6.451   1.767
   11CHTO  H187 4348   6.569   6.548   1.752
   11CHTO  C107 4349   6.756   6.456   1.694
   11CHTO   O70 4350   6.836   6.565   1.740
   11CHTO  H170 4351   6.917   6.567   1.693
   11CHTO   O57 4352   6.565   6.414   2.147
   11CHTO   C85 4353   6.646   6.505   2.224
   11CHTO  H157 4354   6.617   6.481   2.328
   11CHTO   C83 4355   6.608   6.656   2.205
   11CHTO  H155 4356   6.501   6.666   2.225
   11CHTO   O56 4357   6.630   6.699   2.069
   11CHTO  H135 4358   6.574   6.651   2.011
   11CHTO   C81 4359   6.686   6.739   2.311
   11CHTO  H153 4360   6.661   6.700   2.410
   11CHTO   N14 4361   6.643   6.881   2.317
   11CHTO  H141 4362   6.692   6.930   2.399
   11CHTO  H142 4363   6.669   6.931   2.226
   11CHTO   C79 4364   6.842   6.721   2.289
   11CHTO  H151 4365   6.892   6.767   2.375
   11CHTO   O52 4366   6.880   6.579   2.292
   11CHTO   C86 4367   6.802   6.494   2.202
   11CHTO  H158 4368   6.831   6.525   2.099
   11CHTO   C90 4369   6.848   6.347   2.216
   11CHTO   O60 4370   6.984   6.332   2.174
   11CHTO  H138 4371   7.009   6.242   2.182
   11CHTO   O50 4372   6.894   6.782   2.170
   11CHTO   C73 4373   6.989   6.885   2.140
   11CHTO  H145 4374   6.986   6.963   2.217
   11CHTO   C74 4375   6.956   6.949   2.002
   11CHTO  H146 4376   6.853   6.987   2.007
   11CHTO   O54 4377   7.040   7.064   1.983
   11CHTO  H133 4378   7.019   7.131   2.045
   11CHTO   C75 4379   6.973   6.839   1.889
   11CHTO  H147 4380   6.901   6.758   1.908
   11CHTO   N13 4381   6.941   6.889   1.753
   11CHTO  H139 4382   7.007   6.970   1.726
   11CHTO  H140 4383   6.952   6.810   1.681
   11CHTO   C76 4384   7.120   6.776   1.898
   11CHTO  H148 4385   7.191   6.855   1.875
   11CHTO   O49 4386   7.145   6.725   2.033
   11CHTO   C77 4387   7.135   6.827   2.134
   11CHTO  H149 4388   7.204   6.908   2.111
   11CHTO   C88 4389   7.183   6.769   2.267
   11CHTO   O58 4390   7.193   6.872   2.370
   11CHTO  H136 4391   7.222   6.834   2.451
   11CHTO   O51 4392   7.136   6.650   1.800
   11CHTO   C78 4393   7.279   6.569   1.805
   11CHTO  H150 4394   7.294   6.522   1.904
   11CHTO   C80 4395   7.400   6.661   1.776
   11CHTO  H152 4396   7.375   6.726   1.689
   11CHTO   O55 4397   7.417   6.745   1.892
   11CHTO  H134 4398   7.483   6.810   1.875
   11CHTO   C84 4399   7.533   6.580   1.745
   11CHTO  H156 4400   7.561   6.527   1.835
   11CHTO   N15 4401   7.647   6.670   1.709
   11CHTO  H143 4402   7.735   6.612   1.691
   11CHTO  H144 4403   7.624   6.726   1.621
   11CHTO   C87 4404   7.503   6.476   1.634
   11CHTO  H159 4405   7.471   6.528   1.544
   11CHTO   O53 4406   7.392   6.385   1.686
   11CHTO   C82 4407   7.267   6.455   1.701
   11CHTO  H154 4408   7.237   6.496   1.605
   11CHTO   C89 4409   7.157   6.354   1.743
   11CHTO   O59 4410   7.187   6.287   1.867
   11CHTO  H137 4411   7.183   6.348   1.938
   11CHTO   O45 4412   7.631   6.380   1.600
   11CHTO   C67 4413   7.654   6.364   1.459
   11CHTO  H124 4414   7.558   6.367   1.407
   11CHTO   C65 4415   7.745   6.479   1.402
   11CHTO  H122 4416   7.783   6.534   1.488
   11CHTO   O44 4417   7.661   6.567   1.325
   11CHTO  H102 4418   7.597   6.608   1.380
   11CHTO   C63 4419   7.875   6.426   1.330
   11CHTO  H120 4420   7.938   6.377   1.405
   11CHTO   N11 4421   7.968   6.530   1.276
   11CHTO  H108 4422   7.992   6.601   1.353
   11CHTO  H109 4423   7.921   6.581   1.194
   11CHTO   C61 4424   7.834   6.314   1.227
   11CHTO  H118 4425   7.928   6.266   1.194
   11CHTO   O40 4426   7.752   6.209   1.286
   11CHTO   C68 4427   7.714   6.221   1.427
   11CHTO  H125 4428   7.803   6.203   1.490
   11CHTO   C72 4429   7.611   6.110   1.461
   11CHTO   O48 4430   7.666   5.979   1.452
   11CHTO  H105 4431   7.600   5.916   1.471
   11CHTO   O38 4432   7.765   6.369   1.113
   11CHTO   C55 4433   7.741   6.280   1.002
   11CHTO  H112 4434   7.746   6.175   1.034
   11CHTO   C56 4435   7.844   6.310   0.885
   11CHTO  H113 4436   7.839   6.418   0.864
   11CHTO   O42 4437   7.978   6.283   0.930
   11CHTO  H100 4438   8.003   6.343   0.997
   11CHTO   C57 4439   7.809   6.227   0.754
   11CHTO  H114 4440   7.832   6.123   0.776
   11CHTO   N10 4441   7.890   6.265   0.636
   11CHTO  H106 4442   7.989   6.296   0.667
   11CHTO  H107 4443   7.844   6.346   0.582
   11CHTO   C58 4444   7.657   6.239   0.723
   11CHTO  H115 4445   7.634   6.342   0.688
   11CHTO   O37 4446   7.578   6.208   0.839
   11CHTO   C59 4447   7.597   6.301   0.947
   11CHTO  H116 4448   7.583   6.403   0.912
   11CHTO   C70 4449   7.491   6.270   1.053
   11CHTO   O46 4450   7.483   6.368   1.157
   11CHTO  H103 4451   7.417   6.343   1.218
   11CHTO   O39 4452   7.613   6.129   0.607
   11CHTO   C60 4453   7.476   6.144   0.563
   11CHTO  H117 4454   7.413   6.171   0.648
   11CHTO   C62 4455   7.463   6.257   0.456
   11CHTO  H119 4456   7.500   6.350   0.504
   11CHTO   O43 4457   7.547   6.228   0.343
   11CHTO  H101 4458   7.519   6.150   0.300
   11CHTO   C66 4459   7.308   6.275   0.418
   11CHTO  H123 4460   7.251   6.290   0.509
   11CHTO   N12 4461   7.282   6.395   0.333
   11CHTO  H110 4462   7.374   6.449   0.314
   11CHTO  H111 4463   7.208   6.458   0.378
   11CHTO   C69 4464   7.257   6.144   0.353
   11CHTO  H126 4465   7.315   6.121   0.261
   11CHTO   O41 4466   7.276   6.027   0.458
   11CHTO   C64 4467   7.421   6.009   0.507
   11CHTO  H121 4468   7.486   5.975   0.423
   11CHTO   C71 4469   7.420   5.898   0.615
   11CHTO   O47 4470   7.551   5.857   0.655
   11CHTO  H104 4471   7.594   5.813   0.584
   11CHTO   O34 4472   7.105   6.154   0.314
   11CHTO   C49 4473   6.991   6.061   0.288
   11CHTO   H91 4474   7.032   5.977   0.232
   11CHTO   C47 4475   6.886   6.136   0.203
   11CHTO   H89 4476   6.809   6.060   0.175
   11CHTO   O33 4477   6.949   6.183   0.082
   11CHTO   H70 4478   7.013   6.249   0.101
   11CHTO   C45 4479   6.820   6.253   0.291
   11CHTO   H87 4480   6.901   6.319   0.327
   11CHTO    N8 4481   6.724   6.336   0.214
   11CHTO   H75 4482   6.687   6.417   0.275
   11CHTO   H76 4483   6.772   6.376   0.126
   11CHTO   C43 4484   6.755   6.191   0.425
   11CHTO   H85 4485   6.724   6.276   0.485
   11CHTO   O29 4486   6.851   6.108   0.494
   11CHTO   C50 4487   6.929   6.012   0.420
   11CHTO   H92 4488   7.013   5.983   0.486
   11CHTO   C54 4489   6.853   5.878   0.401
   11CHTO   O36 4490   6.825   5.817   0.528
   11CHTO   H72 4491   6.781   5.736   0.515
   11CHTO   O27 4492   6.634   6.116   0.399
   11CHTO   C37 4493   6.535   6.045   0.475
   11CHTO   H79 4494   6.582   5.961   0.529
   11CHTO   C38 4495   6.468   6.136   0.582
   11CHTO   H80 4496   6.426   6.224   0.531
   11CHTO   O31 4497   6.570   6.178   0.674
   11CHTO   H68 4498   6.535   6.242   0.733
   11CHTO   C39 4499   6.353   6.060   0.658
   11CHTO   H81 4500   6.403   5.984   0.719
   11CHTO    N7 4501   6.272   6.145   0.752
   11CHTO   H73 4502   6.281   6.109   0.853
   11CHTO   H74 4503   6.304   6.249   0.747
   11CHTO   C40 4504   6.257   5.982   0.559
   11CHTO   H82 4505   6.182   6.048   0.515
   11CHTO   O26 4506   6.331   5.909   0.460
   11CHTO   C41 4507   6.425   5.988   0.381
   11CHTO   H83 4508   6.371   6.071   0.332
   11CHTO   C52 4509   6.479   5.895   0.271
   11CHTO   O35 4510   6.559   5.966   0.170
   11CHTO   H71 4511   6.638   5.998   0.208
   11CHTO   O28 4512   6.194   5.874   0.630
   11CHTO   C42 4513   6.056   5.831   0.609
   11CHTO   H84 4514   6.035   5.853   0.504
   11CHTO   C44 4515   5.950   5.911   0.692
   11CHTO   H86 4516   5.983   5.915   0.796
   11CHTO   O32 4517   5.948   6.046   0.643
   11CHTO   H69 4518   6.029   6.090   0.664
   11CHTO   C48 4519   5.806   5.846   0.691
   11CHTO   H90 4520   5.764   5.856   0.590
   11CHTO    N9 4521   5.710   5.917   0.782
   11CHTO   H77 4522   5.701   6.020   0.752
   11CHTO   H78 4523   5.614   5.868   0.779
   11CHTO   C51 4524   5.819   5.694   0.725
   11CHTO   H93 4525   5.867   5.685   0.823
   11CHTO   O30 4526   5.898   5.633   0.622
   11CHTO   C46 4527   6.043   5.676   0.628
   11CHTO   H88 4528   6.084   5.647   0.725
   11CHTO   C53 4529   6.114   5.598   0.515
   11CHTO   O72 4530   6.256   5.619   0.515
   11CHTO  H199 4531   6.295   5.571   0.445
   11CHTO   O22 4532   5.693   5.623   0.722
   11CHTO   C31 4533   5.671   5.510   0.815
   11CHTO   H59 4534   5.771   5.466   0.834
   11CHTO   C29 4535   5.612   5.550   0.952
   11CHTO   H57 4536   5.513   5.596   0.934
   11CHTO   O21 4537   5.695   5.650   1.013
   11CHTO   H37 4538   5.695   5.728   0.961
   11CHTO   C27 4539   5.593   5.424   1.047
   11CHTO   H55 4540   5.693   5.385   1.072
   11CHTO    N5 4541   5.521   5.456   1.173
   11CHTO   H43 4542   5.517   5.369   1.236
   11CHTO   H44 4543   5.572   5.537   1.224
   11CHTO   C25 4544   5.519   5.309   0.969
   11CHTO   H53 4545   5.414   5.337   0.952
   11CHTO   O17 4546   5.581   5.285   0.839
   11CHTO   C32 4547   5.585   5.398   0.751
   11CHTO   H60 4548   5.484   5.436   0.735
   11CHTO   C36 4549   5.643   5.352   0.616
   11CHTO   O25 4550   5.558   5.255   0.553
   11CHTO   H40 4551   5.478   5.295   0.526
   11CHTO   O15 4552   5.525   5.171   1.051
   11CHTO   C19 4553   5.463   5.040   1.036
   11CHTO   H47 4554   5.518   4.976   1.107
   11CHTO   C20 4555   5.312   5.038   1.074
   11CHTO   H48 4556   5.254   5.112   1.017
   11CHTO   O19 4557   5.304   5.077   1.213
   11CHTO   H35 4558   5.214   5.087   1.238
   11CHTO   C21 4559   5.246   4.896   1.053
   11CHTO   H49 4560   5.281   4.829   1.132
   11CHTO    N4 4561   5.098   4.899   1.066
   11CHTO   H41 4562   5.056   4.964   0.990
   11CHTO   H42 4563   5.057   4.800   1.054
   11CHTO   C22 4564   5.289   4.831   0.919
   11CHTO   H50 4565   5.236   4.879   0.836
   11CHTO   O14 4566   5.431   4.842   0.897
   11CHTO   C23 4567   5.481   4.976   0.896
   11CHTO   H51 4568   5.426   5.032   0.818
   11CHTO   C34 4569   5.628   4.971   0.854
   11CHTO   O23 4570   5.641   4.936   0.716
   11CHTO   H38 4571   5.731   4.934   0.692
   11CHTO   O16 4572   5.265   4.689   0.921
   11CHTO   C24 4573   5.223   4.627   0.778
   11CHTO   H52 4574   5.235   4.700   0.698
   11CHTO   C26 4575   5.078   4.579   0.783
   11CHTO   H54 4576   5.068   4.502   0.863
   11CHTO   O20 4577   4.995   4.692   0.817
   11CHTO   H36 4578   4.906   4.664   0.831
   11CHTO   C30 4579   5.035   4.516   0.647
   11CHTO   H58 4580   5.028   4.596   0.572
   11CHTO    N6 4581   4.898   4.456   0.652
   11CHTO   H45 4582   4.900   4.350   0.635
   11CHTO   H46 4583   4.850   4.476   0.747
   11CHTO   C33 4584   5.141   4.413   0.594
   11CHTO   H61 4585   5.128   4.317   0.645
   11CHTO   O18 4586   5.277   4.456   0.615
   11CHTO   C28 4587   5.314   4.508   0.744
   11CHTO   H56 4588   5.302   4.431   0.821
   11CHTO   C35 4589   5.461   4.552   0.737
   11CHTO   O24 4590   5.549   4.441   0.721
   11CHTO   H39 4591   5.552   4.390   0.800
   11CHTO    O9 4592   5.116   4.385   0.454
   11CHTO   C13 4593   5.169   4.508   0.355
   11CHTO   H26 4594   5.216   4.586   0.418
   11CHTO   C11 4595   5.049   4.567   0.269
   11CHTO   H24 4596   4.971   4.601   0.339
   11CHTO    O8 4597   4.993   4.460   0.190
   11CHTO    H3 4598   4.918   4.491   0.144
   11CHTO    C9 4599   5.104   4.691   0.191
   11CHTO   H22 4600   5.111   4.771   0.266
   11CHTO    N2 4601   5.006   4.747   0.094
   11CHTO   H10 4602   4.924   4.679   0.077
   11CHTO   H11 4603   5.055   4.770   3.437
   11CHTO    C7 4604   5.252   4.664   0.139
   11CHTO   H20 4605   5.314   4.706   0.221
   11CHTO    O4 4606   5.278   4.523   0.128
   11CHTO   C14 4607   5.285   4.459   0.257
   11CHTO   H27 4608   5.382   4.486   0.302
   11CHTO   C18 4609   5.286   4.305   0.236
   11CHTO   O13 4610   5.401   4.262   0.164
   11CHTO    H7 4611   5.478   4.273   0.217
   11CHTO    O2 4612   5.295   4.737   3.436
   11CHTO    C1 4613   5.398   4.837   0.014
   11CHTO   H14 4614   5.434   4.841   0.120
   11CHTO    C2 4615   5.350   4.982   3.409
   11CHTO   H15 4616   5.311   4.973   3.307
   11CHTO    O6 4617   5.244   5.022   0.061
   11CHTO    H1 4618   5.276   5.029   0.149
   11CHTO    C3 4619   5.474   5.085   3.411
   11CHTO   H16 4620   5.509   5.096   0.078
   11CHTO    N1 4621   5.434   5.221   3.363
   11CHTO    H8 4622   5.396   5.215   3.262
   11CHTO    H9 4623   5.357   5.262   3.428
   11CHTO    C4 4624   5.595   5.025   3.330
   11CHTO   H17 4625   5.569   5.021   3.225
   11CHTO    O1 4626   5.627   4.894   3.379
   11CHTO    C5 4627   5.523   4.796   3.366
   11CHTO   H18 4628   5.492   4.787   3.262
   11CHTO   C16 4629   5.580   4.659   3.413
   11CHTO   O11 4630   5.686   4.615   3.328
   11CHTO    H5 4631   5.761   4.671   3.338
   11CHTO    O3 4632   5.717   5.101   3.351
   11CHTO    C6 4633   5.800   5.126   3.231
   11CHTO   H19 4634   5.757   5.084   3.140
   11CHTO    C8 4635   5.815   5.280   3.210
   11CHTO   H21 4636   5.851   5.325   3.303
   11CHTO    O7 4637   5.685   5.332   3.179
   11CHTO    H2 4638   5.687   5.425   3.174
   11CHTO   C12 4639   5.919   5.312   3.095
   11CHTO   H25 4640   5.872   5.278   3.000
   11CHTO    N3 4641   5.941   5.460   3.081
   11CHTO   H12 4642   5.982   5.500   3.173
   11CHTO   H13 4643   6.008   5.480   2.998
   11CHTO   C15 4644   6.051   5.231   3.117
   11CHTO   H28 4645   6.108   5.269   3.203
   11CHTO   O10 4646   6.143   5.233   2.992
   11CHTO    H4 4647   6.097   5.202   2.917
   11CHTO    O5 4648   6.024   5.091   3.135
   11CHTO   C10 4649   5.941   5.063   3.249
   11CHTO   H23 4650   5.988   5.104   3.339
   11CHTO   C17 4651   5.934   4.911   3.265
   11CHTO   O12 4652   6.063   4.857   3.299
   11CHTO    H6 4653   6.056   4.764   3.310
   12CHTO  H203 4654   4.445   2.007   0.102
   12CHTO   O82 4655   4.451   1.937   0.165
   12CHTO  C123 4656   4.570   1.860   0.141
   12CHTO  H227 4657   4.658   1.926   0.150
   12CHTO   O77 4658   4.569   1.763   0.250
   12CHTO  C118 4659   4.684   1.678   0.256
   12CHTO  H222 4660   4.776   1.738   0.264
   12CHTO  C125 4661   4.672   1.587   0.383
   12CHTO   O84 4662   4.676   1.665   0.503
   12CHTO  H205 4663   4.666   1.609   0.578
   12CHTO  C114 4664   4.690   1.592   0.128
   12CHTO  H218 4665   4.601   1.529   0.124
   12CHTO  C116 4666   4.689   1.681   3.436
   12CHTO  H220 4667   4.786   1.735   3.429
   12CHTO   O79 4668   4.685   1.595   3.320
   12CHTO  H201 4669   4.604   1.547   3.318
   12CHTO  C120 4670   4.569   1.784   0.003
   12CHTO  H224 4671   4.476   1.724   3.430
   12CHTO   N21 4672   4.574   1.877   3.324
   12CHTO  H211 4673   4.634   1.964   3.347
   12CHTO  H212 4674   4.474   1.907   3.296
   12CHTO   O75 4675   4.808   1.511   0.142
   12CHTO  C112 4676   4.789   1.358   0.085
   12CHTO  H216 4677   4.741   1.362   3.423
   12CHTO   O73 4678   4.709   1.285   0.180
   12CHTO  C113 4679   4.675   1.153   0.137
   12CHTO  H217 4680   4.622   1.160   0.040
   12CHTO  C124 4681   4.575   1.094   0.237
   12CHTO   O83 4682   4.627   1.083   0.370
   12CHTO  H204 4683   4.562   1.045   0.427
   12CHTO  C109 4684   4.802   1.065   0.121
   12CHTO  H213 4685   4.845   1.052   0.221
   12CHTO  C110 4686   4.905   1.136   0.028
   12CHTO  H214 4687   4.867   1.133   3.362
   12CHTO   O78 4688   5.028   1.061   0.031
   12CHTO  H200 4689   5.016   0.978   3.424
   12CHTO  C111 4690   4.928   1.285   0.070
   12CHTO  H215 4691   4.978   1.286   0.168
   12CHTO   N19 4692   5.017   1.360   3.413
   12CHTO  H207 4693   4.972   1.363   3.315
   12CHTO  H208 4694   5.032   1.460   0.013
   12CHTO   O74 4695   4.767   0.934   0.066
   12CHTO  C115 4696   4.787   0.809   0.166
   12CHTO  H219 4697   4.846   0.837   0.254
   12CHTO   O76 4698   4.650   0.757   0.224
   12CHTO  C122 4699   4.560   0.714   0.120
   12CHTO  H226 4700   4.529   0.803   0.064
   12CHTO  C126 4701   4.430   0.657   0.185
   12CHTO   O85 4702   4.355   0.756   0.255
   12CHTO  H206 4703   4.319   0.818   0.195
   12CHTO  C121 4704   4.626   0.609   0.021
   12CHTO  H225 4705   4.563   0.517   0.018
   12CHTO   O81 4706   4.630   0.662   3.324
   12CHTO  H202 4707   4.542   0.677   3.293
   12CHTO  C119 4708   4.770   0.569   0.067
   12CHTO  H223 4709   4.757   0.524   0.166
   12CHTO  C117 4710   4.863   0.695   0.085
   12CHTO  H221 4711   4.892   0.743   3.428
   12CHTO   N20 4712   4.994   0.657   0.149
   12CHTO  H209 4713   4.994   0.553   0.180
   12CHTO  H210 4714   5.016   0.721   0.234
   12CHTO   O80 4715   4.830   0.448   3.420
   12CHTO  C103 4716   4.840   0.304   0.050
   12CHTO  H190 4717   4.896   0.309   0.143
   12CHTO  C101 4718   4.703   0.230   0.076
   12CHTO  H188 4719   4.642   0.235   3.423
   12CHTO   O68 4720   4.626   0.304   0.192
   12CHTO  H168 4721   4.675   0.299   0.272
   12CHTO   C99 4722   4.727   0.075   0.112
   12CHTO  H186 4723   4.782   0.069   0.208
   12CHTO   N17 4724   4.600   9.997   0.129
   12CHTO  H174 4725   4.623   9.897   0.163
   12CHTO  H175 4726   4.545   9.995   0.037
   12CHTO   C97 4727   4.821   0.010   0.006
   12CHTO  H184 4728   4.767   0.006   3.346
   12CHTO   O64 4729   4.943   0.086   3.432
   12CHTO  C104 4730   4.925   0.220   3.384
   12CHTO  H191 4731   4.876   0.221   3.287
   12CHTO  C108 4732   5.063   0.285   3.363
   12CHTO   O71 4733   5.134   0.220   3.256
   12CHTO  H171 4734   5.217   0.263   3.244
   12CHTO   O62 4735   4.864   9.878   0.045
   12CHTO   C91 4736   4.909   9.789   3.378
   12CHTO  H178 4737   4.930   9.847   3.288
   12CHTO   C92 4738   4.795   9.688   3.342
   12CHTO  H179 4739   4.756   9.644   3.435
   12CHTO   O66 4740   4.686   9.765   3.286
   12CHTO  H166 4741   4.612   9.709   3.271
   12CHTO   C93 4742   4.842   9.574   3.242
   12CHTO  H180 4743   4.862   9.623   3.145
   12CHTO   N16 4744   4.737   9.472   3.216
   12CHTO  H172 4745   4.769   9.374   3.247
   12CHTO  H173 4746   4.710   9.471   3.111
   12CHTO   C94 4747   4.975   9.510   3.295
   12CHTO  H181 4748   4.961   9.462   3.393
   12CHTO   O61 4749   5.073   9.613   3.313
   12CHTO   C95 4750   5.040   9.709   3.415
   12CHTO  H182 4751   5.025   9.656   0.073
   12CHTO  C106 4752   5.161   9.806   3.435
   12CHTO   O69 4753   5.278   9.735   0.043
   12CHTO  H169 4754   5.349   9.796   0.053
   12CHTO   O63 4755   5.037   9.401   3.189
   12CHTO   C96 4756   5.167   9.333   3.247
   12CHTO  H183 4757   5.184   9.373   3.347
   12CHTO   C98 4758   5.296   9.358   3.166
   12CHTO  H185 4759   5.283   9.323   3.062
   12CHTO   O67 4760   5.315   9.500   3.157
   12CHTO  H167 4761   5.390   9.520   3.103
   12CHTO  C102 4762   5.423   9.287   3.234
   12CHTO  H189 4763   5.447   9.348   3.323
   12CHTO   N18 4764   5.547   9.290   3.151
   12CHTO  H176 4765   5.530   9.235   3.059
   12CHTO  H177 4766   5.629   9.246   3.206
   12CHTO  C105 4767   5.390   9.144   3.285
   12CHTO  H192 4768   5.402   9.073   3.203
   12CHTO   O65 4769   5.258   9.127   3.340
   12CHTO  C100 4770   5.150   9.177   3.260
   12CHTO  H187 4771   5.155   9.131   3.160
   12CHTO  C107 4772   5.016   9.137   3.326
   12CHTO   O70 4773   4.999   8.995   3.326
   12CHTO  H170 4774   5.061   8.955   3.385
   12CHTO   O57 4775   5.499   9.116   3.401
   12CHTO   C85 4776   5.509   8.986   0.024
   12CHTO  H157 4777   5.462   8.915   3.389
   12CHTO   C83 4778   5.423   8.979   0.154
   12CHTO  H155 4779   5.318   8.994   0.127
   12CHTO   O56 4780   5.459   9.088   0.241
   12CHTO  H135 4781   5.403   9.090   0.316
   12CHTO   C81 4782   5.439   8.838   0.218
   12CHTO  H153 4783   5.408   8.764   0.144
   12CHTO   N14 4784   5.348   8.815   0.333
   12CHTO  H141 4785   5.246   8.833   0.304
   12CHTO  H142 4786   5.357   8.714   0.367
   12CHTO   C79 4787   5.590   8.812   0.253
   12CHTO  H151 4788   5.597   8.710   0.291
   12CHTO   O52 4789   5.670   8.818   0.131
   12CHTO   C86 4790   5.658   8.944   0.058
   12CHTO  H158 4791   5.706   9.019   0.124
   12CHTO   C90 4792   5.744   8.939   3.366
   12CHTO   O60 4793   5.697   8.840   3.273
   12CHTO  H138 4794   5.614   8.866   3.238
   12CHTO   O50 4795   5.646   8.900   0.352
   12CHTO   C73 4796   5.669   8.918   0.492
   12CHTO  H145 4797   5.591   8.865   0.551
   12CHTO   C74 4798   5.663   9.070   0.527
   12CHTO  H146 4799   5.564   9.107   0.494
   12CHTO   O54 4800   5.665   9.083   0.670
   12CHTO  H133 4801   5.657   9.174   0.695
   12CHTO   C75 4802   5.781   9.145   0.453
   12CHTO  H147 4803   5.766   9.136   0.345
   12CHTO   N13 4804   5.786   9.291   0.480
   12CHTO  H139 4805   5.801   9.309   0.585
   12CHTO  H140 4806   5.867   9.336   0.425
   12CHTO   C76 4807   5.921   9.074   0.487
   12CHTO  H148 4808   5.944   9.092   0.593
   12CHTO   O49 4809   5.914   8.930   0.463
   12CHTO   C77 4810   5.809   8.863   0.534
   12CHTO  H149 4811   5.823   8.880   0.641
   12CHTO   C88 4812   5.824   8.711   0.516
   12CHTO   O58 4813   5.838   8.671   0.376
   12CHTO  H136 4814   5.757   8.686   0.330
   12CHTO   O51 4815   6.037   9.127   0.389
   12CHTO   C78 4816   6.178   9.046   0.396
   12CHTO  H150 4817   6.161   8.936   0.407
   12CHTO   C80 4818   6.264   9.095   0.515
   12CHTO  H152 4819   6.265   9.206   0.513
   12CHTO   O55 4820   6.197   9.054   0.635
   12CHTO  H134 4821   6.241   9.088   0.711
   12CHTO   C84 4822   6.412   9.040   0.509
   12CHTO  H156 4823   6.409   8.932   0.522
   12CHTO   N15 4824   6.499   9.096   0.618
   12CHTO  H143 4825   6.501   9.203   0.612
   12CHTO  H144 4826   6.459   9.067   0.714
   12CHTO   C87 4827   6.470   9.070   0.368
   12CHTO  H159 4828   6.472   9.178   0.353
   12CHTO   O53 4829   6.378   9.003   0.264
   12CHTO   C82 4830   6.250   9.066   0.262
   12CHTO  H154 4831   6.263   9.172   0.241
   12CHTO   C89 4832   6.165   9.008   0.146
   12CHTO   O59 4833   6.224   9.035   0.018
   12CHTO  H137 4834   6.304   8.987   0.009
   12CHTO   O45 4835   6.625   9.018   0.351
   12CHTO   C67 4836   6.647   8.889   0.293
   12CHTO  H124 4837   6.572   8.818   0.330
   12CHTO   C65 4838   6.641   8.893   0.136
   12CHTO  H122 4839   6.577   8.977   0.109
   12CHTO   O44 4840   6.582   8.771   0.088
   12CHTO  H102 4841   6.493   8.764   0.116
   12CHTO   C63 4842   6.783   8.926   0.078
   12CHTO  H120 4843   6.821   9.015   0.129
   12CHTO   N11 4844   6.787   8.969   3.371
   12CHTO  H108 4845   6.719   9.050   3.355
   12CHTO  H109 4846   6.886   9.000   3.346
   12CHTO   C61 4847   6.881   8.807   0.117
   12CHTO  H118 4848   6.982   8.851   0.121
   12CHTO   O40 4849   6.855   8.749   0.248
   12CHTO   C68 4850   6.788   8.836   0.344
   12CHTO  H125 4851   6.855   8.923   0.362
   12CHTO   C72 4852   6.776   8.761   0.480
   12CHTO   O48 4853   6.706   8.637   0.470
   12CHTO  H105 4854   6.756   8.576   0.420
   12CHTO   O38 4855   6.874   8.696   0.026
   12CHTO   C55 4856   6.999   8.625   0.005
   12CHTO  H112 4857   7.062   8.634   0.095
   12CHTO   C56 4858   7.071   8.682   3.312
   12CHTO  H113 4859   6.998   8.682   3.230
   12CHTO   O42 4860   7.108   8.819   3.332
   12CHTO  H100 4861   7.169   8.827   3.403
   12CHTO   C57 4862   7.196   8.594   3.273
   12CHTO  H114 4863   7.272   8.610   3.350
   12CHTO   N10 4864   7.256   8.633   3.143
   12CHTO  H106 4865   7.362   8.611   3.142
   12CHTO  H107 4866   7.209   8.582   3.061
   12CHTO   C58 4867   7.157   8.443   3.274
   12CHTO  H115 4868   7.089   8.422   3.189
   12CHTO   O37 4869   7.094   8.405   3.397
   12CHTO   C59 4870   6.971   8.473   3.425
   12CHTO  H116 4871   6.900   8.456   3.344
   12CHTO   C70 4872   6.911   8.416   0.117
   12CHTO   O46 4873   6.875   8.278   0.107
   12CHTO  H103 4874   6.804   8.267   0.048
   12CHTO   O39 4875   7.289   8.354   3.263
   12CHTO   C60 4876   7.272   8.233   3.187
   12CHTO  H117 4877   7.175   8.188   3.210
   12CHTO   C62 4878   7.279   8.261   3.033
   12CHTO  H119 4879   7.194   8.329   3.009
   12CHTO   O43 4880   7.403   8.328   3.002
   12CHTO  H101 4881   7.403   8.414   3.039
   12CHTO   C66 4882   7.261   8.123   2.953
   12CHTO  H123 4883   7.164   8.080   2.980
   12CHTO   N12 4884   7.256   8.142   2.805
   12CHTO  H110 4885   7.347   8.188   2.771
   12CHTO  H111 4886   7.170   8.202   2.779
   12CHTO   C69 4887   7.370   8.022   2.996
   12CHTO  H126 4888   7.470   8.058   2.965
   12CHTO   O41 4889   7.366   8.004   3.152
   12CHTO   C64 4890   7.381   8.131   3.229
   12CHTO  H121 4891   7.481   8.175   3.209
   12CHTO   C71 4892   7.372   8.100   3.380
   12CHTO   O47 4893   7.487   8.028   3.424
   12CHTO  H104 4894   7.486   7.941   3.388
   12CHTO   O34 4895   7.345   7.883   2.933
   12CHTO   C49 4896   7.440   7.772   2.898
   12CHTO   H91 4897   7.488   7.799   2.804
   12CHTO   C47 4898   7.355   7.644   2.881
   12CHTO   H89 4899   7.429   7.566   2.847
   12CHTO   O33 4900   7.257   7.661   2.777
   12CHTO   H70 4901   7.300   7.673   2.694
   12CHTO   C45 4902   7.285   7.602   3.021
   12CHTO   H87 4903   7.189   7.655   3.028
   12CHTO    N8 4904   7.258   7.456   3.017
   12CHTO   H75 4905   7.196   7.432   2.932
   12CHTO   H76 4906   7.208   7.426   3.108
   12CHTO   C43 4907   7.372   7.655   3.147
   12CHTO   H85 4908   7.335   7.756   3.167
   12CHTO   O29 4909   7.512   7.654   3.115
   12CHTO   C50 4910   7.548   7.744   3.008
   12CHTO   H92 4911   7.577   7.840   3.052
   12CHTO   C54 4912   7.680   7.693   2.943
   12CHTO   O36 4913   7.789   7.696   3.036
   12CHTO   H72 4914   7.776   7.632   3.102
   12CHTO   O27 4915   7.347   7.584   3.269
   12CHTO   C37 4916   7.303   7.595   3.406
   12CHTO   H79 4917   7.309   7.497   0.019
   12CHTO   C38 4918   7.394   7.693   0.050
   12CHTO   H80 4919   7.401   7.788   3.430
   12CHTO   O31 4920   7.525   7.634   0.056
   12CHTO   H68 4921   7.586   7.694   0.095
   12CHTO   C39 4922   7.336   7.721   0.194
   12CHTO   H81 4923   7.346   7.629   0.251
   12CHTO    N7 4924   7.414   7.825   0.269
   12CHTO   H73 4925   7.410   7.920   0.217
   12CHTO   H74 4926   7.375   7.837   0.369
   12CHTO   C40 4927   7.182   7.756   0.188
   12CHTO   H82 4928   7.168   7.856   0.145
   12CHTO   O26 4929   7.115   7.654   0.113
   12CHTO   C41 4930   7.157   7.645   3.411
   12CHTO   H83 4931   7.149   7.744   3.362
   12CHTO   C52 4932   7.059   7.549   3.338
   12CHTO   O35 4933   6.920   7.602   3.334
   12CHTO   H71 4934   6.917   7.678   3.279
   12CHTO   O28 4935   7.120   7.755   0.319
   12CHTO   C42 4936   6.979   7.788   0.344
   12CHTO   H84 4937   6.966   7.765   0.449
   12CHTO   C44 4938   6.873   7.701   0.267
   12CHTO   H86 4939   6.888   7.715   0.160
   12CHTO   O32 4940   6.901   7.563   0.300
   12CHTO   H69 4941   6.886   7.547   0.391
   12CHTO   C48 4942   6.724   7.741   0.299
   12CHTO   H90 4943   6.704   7.714   0.403
   12CHTO    N9 4944   6.626   7.661   0.217
   12CHTO   H77 4945   6.644   7.678   0.112
   12CHTO   H78 4946   6.634   7.556   0.240
   12CHTO   C51 4947   6.705   7.896   0.283
   12CHTO   H93 4948   6.718   7.922   0.178
   12CHTO   O30 4949   6.799   7.964   0.367
   12CHTO   C46 4950   6.946   7.940   0.326
   12CHTO   H88 4951   6.959   7.969   0.222
   12CHTO   C53 4952   7.030   8.030   0.419
   12CHTO   O72 4953   7.168   8.033   0.382
   12CHTO  H199 4954   7.215   8.088   0.441
   12CHTO   O22 4955   6.573   7.934   0.328
   12CHTO   C31 4956   6.512   8.068   0.337
   12CHTO   H59 4957   6.403   8.050   0.354
   12CHTO   C29 4958   6.561   8.156   0.454
   12CHTO   H57 4959   6.663   8.192   0.431
   12CHTO   O21 4960   6.572   8.074   0.572
   12CHTO   H37 4961   6.487   8.045   0.599
   12CHTO   C27 4962   6.465   8.280   0.472
   12CHTO   H55 4963   6.365   8.242   0.498
   12CHTO    N5 4964   6.509   8.372   0.579
   12CHTO   H43 4965   6.435   8.450   0.593
   12CHTO   H44 4966   6.604   8.416   0.554
   12CHTO   C25 4967   6.448   8.355   0.334
   12CHTO   H53 4968   6.539   8.414   0.313
   12CHTO   O17 4969   6.427   8.265   0.220
   12CHTO   C32 4970   6.521   8.157   0.209
   12CHTO   H60 4971   6.622   8.196   0.199
   12CHTO   C36 4972   6.487   8.077   0.081
   12CHTO   O25 4973   6.512   8.153   3.399
   12CHTO   H40 4974   6.451   8.223   3.392
   12CHTO   O15 4975   6.324   8.452   0.343
   12CHTO   C19 4976   6.195   8.494   0.289
   12CHTO   H47 4977   6.159   8.568   0.363
   12CHTO   C20 4978   6.203   8.563   0.150
   12CHTO   H48 4979   6.242   8.494   0.073
   12CHTO   O19 4980   6.295   8.672   0.163
   12CHTO   H35 4981   6.310   8.713   0.080
   12CHTO   C21 4982   6.060   8.613   0.105
   12CHTO   H49 4983   6.026   8.690   0.174
   12CHTO    N4 4984   6.060   8.675   3.406
   12CHTO   H41 4985   6.125   8.762   3.406
   12CHTO   H42 4986   6.095   8.605   3.333
   12CHTO   C22 4987   5.957   8.496   0.115
   12CHTO   H50 4988   5.981   8.421   0.039
   12CHTO   O14 4989   5.960   8.434   0.245
   12CHTO   C23 4990   6.088   8.381   0.285
   12CHTO   H51 4991   6.114   8.302   0.213
   12CHTO   C34 4992   6.071   8.311   0.421
   12CHTO   O23 4993   6.026   8.400   0.524
   12CHTO   H38 4994   6.018   8.353   0.605
   12CHTO   O16 4995   5.822   8.545   0.100
   12CHTO   C24 4996   5.722   8.453   0.013
   12CHTO   H52 4997   5.738   8.347   0.030
   12CHTO   C26 4998   5.739   8.485   3.299
   12CHTO   H54 4999   5.738   8.595   3.286
   12CHTO   O20 5000   5.869   8.438   3.256
   12CHTO   H36 5001   5.875   8.345   3.265
   12CHTO   C30 5002   5.626   8.423   3.210
   12CHTO   H58 5003   5.643   8.315   3.203
   12CHTO    N6 5004   5.632   8.475   3.071
   12CHTO   H45 5005   5.617   8.582   3.070
   12CHTO   H46 5006   5.556   8.428   3.010
   12CHTO   C33 5007   5.485   8.442   3.273
   12CHTO   H61 5008   5.455   8.548   3.266
   12CHTO   O18 5009   5.487   8.406   3.413
   12CHTO   C28 5010   5.576   8.484   0.057
   12CHTO   H56 5011   5.556   8.590   0.043
   12CHTO   C35 5012   5.554   8.447   0.205
   12CHTO   O24 5013   5.421   8.475   0.249
   12CHTO   H39 5014   5.411   8.449   0.338
   12CHTO    O9 5015   5.382   8.368   3.202
   12CHTO   C13 5016   5.393   8.203   3.218
   12CHTO   H26 5017   5.461   8.180   3.303
   12CHTO   C11 5018   5.446   8.141   3.082
   12CHTO   H24 5019   5.548   8.178   3.066
   12CHTO    O8 5020   5.365   8.187   2.972
   12CHTO    H3 5021   5.400   8.156   2.891
   12CHTO    C9 5022   5.450   7.987   3.100
   12CHTO   H22 5023   5.514   7.970   3.189
   12CHTO    N2 5024   5.523   7.919   2.991
   12CHTO   H10 5025   5.534   7.814   3.013
   12CHTO   H11 5026   5.621   7.965   2.977
   12CHTO    C7 5027   5.304   7.932   3.133
   12CHTO   H20 5028   5.321   7.872   3.225
   12CHTO    O4 5029   5.209   8.037   3.163
   12CHTO   C14 5030   5.253   8.136   3.257
   12CHTO   H27 5031   5.264   8.086   3.356
   12CHTO   C18 5032   5.139   8.241   3.273
   12CHTO   O13 5033   5.021   8.181   3.328
   12CHTO    H7 5034   4.953   8.245   3.332
   12CHTO    O2 5035   5.239   7.836   3.015
   12CHTO    C1 5036   5.174   7.720   3.067
   12CHTO   H14 5037   5.130   7.743   3.167
   12CHTO    C2 5038   5.270   7.595   3.083
   12CHTO   H15 5039   5.318   7.580   2.985
   12CHTO    O6 5040   5.371   7.625   3.181
   12CHTO    H1 5041   5.434   7.556   3.185
   12CHTO    C3 5042   5.187   7.463   3.123
   12CHTO   H16 5043   5.148   7.476   3.226
   12CHTO    N1 5044   5.273   7.341   3.124
   12CHTO    H8 5045   5.215   7.255   3.155
   12CHTO    H9 5046   5.314   7.323   3.026
   12CHTO    C4 5047   5.060   7.447   3.031
   12CHTO   H17 5048   5.093   7.420   2.930
   12CHTO    O1 5049   4.984   7.569   3.028
   12CHTO    C5 5050   5.055   7.682   2.974
   12CHTO   H18 5051   5.095   7.658   2.876
   12CHTO   C16 5052   4.955   7.800   2.959
   12CHTO   O11 5053   4.854   7.768   2.863
   12CHTO    H5 5054   4.793   7.840   2.857
   12CHTO    O3 5055   4.971   7.347   3.083
   12CHTO    C6 5056   4.869   7.298   2.989
   12CHTO   H19 5057   4.856   7.364   2.904
   12CHTO    C8 5058   4.908   7.157   2.935
   12CHTO   H21 5059   4.931   7.092   3.019
   12CHTO    O7 5060   5.027   7.174   2.854
   12CHTO    H2 5061   5.058   7.090   2.826
   12CHTO   C12 5062   4.789   7.093   2.852
   12CHTO   H25 5063   4.776   7.157   2.762
   12CHTO    N3 5064   4.821   6.954   2.804
   12CHTO   H12 5065   4.817   6.950   2.696
   12CHTO   H13 5066   4.918   6.922   2.839
   12CHTO   C15 5067   4.657   7.100   2.937
   12CHTO   H28 5068   4.663   7.035   3.025
   12CHTO   O10 5069   4.530   7.066   2.856
   12CHTO    H4 5070   4.533   6.976   2.829
   12CHTO    O5 5071   4.631   7.235   2.978
   12CHTO   C10 5072   4.732   7.291   3.063
   12CHTO   H23 5073   4.742   7.227   3.151
   12CHTO   C17 5074   4.684   7.428   3.112
   12CHTO   O12 5075   4.664   7.520   3.004
   12CHTO    H6 5076   4.635   7.603   3.038
   13CHTO  H203 5077   7.794   3.554   1.671
   13CHTO   O82 5078   7.708   3.593   1.669
   13CHTO  C123 5079   7.714   3.723   1.609
   13CHTO  H227 5080   7.751   3.712   1.505
   13CHTO   O77 5081   7.574   3.763   1.607
   13CHTO  C118 5082   7.549   3.888   1.539
   13CHTO  H222 5083   7.586   3.883   1.436
   13CHTO  C125 5084   7.395   3.913   1.538
   13CHTO   O84 5085   7.328   3.809   1.466
   13CHTO  H205 5086   7.235   3.825   1.466
   13CHTO  C114 5087   7.622   4.002   1.614
   13CHTO  H218 5088   7.581   4.009   1.715
   13CHTO  C116 5089   7.774   3.972   1.627
   13CHTO  H220 5090   7.821   3.977   1.526
   13CHTO   O79 5091   7.833   4.077   1.704
   13CHTO  H201 5092   7.926   4.065   1.710
   13CHTO  C120 5093   7.797   3.828   1.690
   13CHTO  H224 5094   7.760   3.834   1.795
   13CHTO   N21 5095   7.941   3.792   1.695
   13CHTO  H211 5096   7.995   3.837   1.613
   13CHTO  H212 5097   7.984   3.823   1.790
   13CHTO   O75 5098   7.594   4.122   1.539
   13CHTO  C112 5099   7.547   4.248   1.632
   13CHTO  H216 5100   7.615   4.257   1.718
   13CHTO   O73 5101   7.412   4.221   1.673
   13CHTO  C113 5102   7.356   4.321   1.758
   13CHTO  H217 5103   7.424   4.339   1.844
   13CHTO  C124 5104   7.225   4.263   1.813
   13CHTO   O83 5105   7.167   4.343   1.916
   13CHTO  H204 5106   7.087   4.305   1.945
   13CHTO  C109 5107   7.337   4.452   1.677
   13CHTO  H213 5108   7.264   4.430   1.597
   13CHTO  C110 5109   7.474   4.497   1.616
   13CHTO  H214 5110   7.534   4.539   1.696
   13CHTO   O78 5111   7.452   4.604   1.522
   13CHTO  H200 5112   7.421   4.680   1.566
   13CHTO  C111 5113   7.551   4.380   1.546
   13CHTO  H215 5114   7.501   4.358   1.451
   13CHTO   N19 5115   7.692   4.414   1.514
   13CHTO  H207 5116   7.746   4.440   1.604
   13CHTO  H208 5117   7.695   4.497   1.445
   13CHTO   O74 5118   7.281   4.556   1.764
   13CHTO  C115 5119   7.200   4.676   1.691
   13CHTO  H219 5120   7.262   4.727   1.617
   13CHTO   O76 5121   7.077   4.622   1.609
   13CHTO  C122 5122   6.982   4.554   1.692
   13CHTO  H226 5123   7.028   4.461   1.725
   13CHTO  C126 5124   6.862   4.512   1.600
   13CHTO   O85 5125   6.768   4.429   1.669
   13CHTO  H206 5126   6.697   4.407   1.611
   13CHTO  C121 5127   6.935   4.641   1.817
   13CHTO  H225 5128   6.825   4.653   1.813
   13CHTO   O81 5129   6.965   4.571   1.938
   13CHTO  H202 5130   7.057   4.560   1.948
   13CHTO  C119 5131   6.999   4.784   1.818
   13CHTO  H223 5132   6.959   4.835   1.731
   13CHTO  C117 5133   7.156   4.777   1.804
   13CHTO  H221 5134   7.208   4.742   1.893
   13CHTO   N20 5135   7.212   4.914   1.780
   13CHTO  H209 5136   7.178   4.952   1.685
   13CHTO  H210 5137   7.320   4.911   1.782
   13CHTO   O80 5138   6.945   4.880   1.942
   13CHTO  C103 5139   6.829   4.991   1.917
   13CHTO  H190 5140   6.822   5.055   2.005
   13CHTO  C101 5141   6.847   5.086   1.792
   13CHTO  H188 5142   6.863   5.025   1.703
   13CHTO   O68 5143   6.973   5.176   1.815
   13CHTO  H168 5144   7.050   5.123   1.821
   13CHTO   C99 5145   6.714   5.173   1.768
   13CHTO  H186 5146   6.696   5.236   1.858
   13CHTO   N17 5147   6.722   5.265   1.650
   13CHTO  H174 5148   6.716   5.368   1.682
   13CHTO  H175 5149   6.646   5.242   1.577
   13CHTO   C97 5150   6.593   5.076   1.760
   13CHTO  H184 5151   6.607   5.010   1.674
   13CHTO   O64 5152   6.583   5.002   1.883
   13CHTO  C104 5153   6.692   4.911   1.908
   13CHTO  H191 5154   6.700   4.834   1.832
   13CHTO  C108 5155   6.657   4.839   2.039
   13CHTO   O71 5156   6.743   4.728   2.068
   13CHTO  H171 5157   6.717   4.689   2.149
   13CHTO   O62 5158   6.466   5.145   1.750
   13CHTO   C91 5159   6.353   5.065   1.710
   13CHTO  H178 5160   6.376   4.959   1.726
   13CHTO   C92 5161   6.327   5.082   1.556
   13CHTO  H179 5162   6.316   5.189   1.535
   13CHTO   O66 5163   6.444   5.040   1.484
   13CHTO  H166 5164   6.461   4.949   1.499
   13CHTO   C93 5165   6.198   5.003   1.509
   13CHTO  H180 5166   6.217   4.896   1.526
   13CHTO   N16 5167   6.165   5.016   1.365
   13CHTO  H172 5168   6.236   5.079   1.315
   13CHTO  H173 5169   6.161   4.919   1.318
   13CHTO   C94 5170   6.077   5.047   1.599
   13CHTO  H181 5171   6.056   5.153   1.590
   13CHTO   O61 5172   6.109   5.021   1.737
   13CHTO   C95 5173   6.219   5.098   1.787
   13CHTO  H182 5174   6.197   5.204   1.777
   13CHTO  C106 5175   6.235   5.069   1.941
   13CHTO   O69 5176   6.119   5.115   2.012
   13CHTO  H169 5177   6.131   5.098   2.104
   13CHTO   O63 5178   5.943   4.961   1.566
   13CHTO   C96 5179   5.813   5.039   1.599
   13CHTO  H183 5180   5.826   5.141   1.564
   13CHTO   C98 5181   5.779   5.045   1.752
   13CHTO  H185 5182   5.863   5.088   1.808
   13CHTO   O67 5183   5.670   5.137   1.770
   13CHTO  H167 5184   5.593   5.107   1.724
   13CHTO  C102 5185   5.736   4.901   1.809
   13CHTO  H189 5186   5.672   4.922   1.896
   13CHTO   N18 5187   5.848   4.819   1.862
   13CHTO  H176 5188   5.895   4.870   1.945
   13CHTO  H177 5189   5.921   4.801   1.784
   13CHTO  C105 5190   5.652   4.823   1.704
   13CHTO  H192 5191   5.715   4.750   1.653
   13CHTO   O65 5192   5.595   4.909   1.602
   13CHTO  C100 5193   5.694   4.971   1.517
   13CHTO  H187 5194   5.735   4.892   1.452
   13CHTO  C107 5195   5.620   5.073   1.426
   13CHTO   O70 5196   5.707   5.127   1.326
   13CHTO  H170 5197   5.772   5.182   1.367
   13CHTO   O57 5198   5.540   4.750   1.790
   13CHTO   C85 5199   5.461   4.642   1.737
   13CHTO  H157 5200   5.453   4.658   1.627
   13CHTO   C83 5201   5.316   4.656   1.793
   13CHTO  H155 5202   5.273   4.748   1.752
   13CHTO   O56 5203   5.322   4.674   1.936
   13CHTO  H135 5204   5.236   4.692   1.970
   13CHTO   C81 5205   5.230   4.535   1.747
   13CHTO  H153 5206   5.232   4.531   1.639
   13CHTO   N14 5207   5.086   4.550   1.780
   13CHTO  H141 5208   5.048   4.641   1.738
   13CHTO  H142 5209   5.072   4.552   1.886
   13CHTO   C79 5210   5.293   4.402   1.802
   13CHTO  H151 5211   5.231   4.319   1.766
   13CHTO   O52 5212   5.426   4.385   1.746
   13CHTO   C86 5213   5.517   4.498   1.771
   13CHTO  H158 5214   5.540   4.490   1.879
   13CHTO   C90 5215   5.651   4.471   1.698
   13CHTO   O60 5216   5.631   4.450   1.558
   13CHTO  H138 5217   5.605   4.531   1.517
   13CHTO   O50 5218   5.301   4.393   1.946
   13CHTO   C73 5219   5.281   4.311   2.062
   13CHTO  H145 5220   5.294   4.205   2.036
   13CHTO   C74 5221   5.138   4.332   2.119
   13CHTO  H146 5222   5.067   4.305   2.039
   13CHTO   O54 5223   5.118   4.237   2.225
   13CHTO  H133 5224   5.030   4.244   2.258
   13CHTO   C75 5225   5.122   4.483   2.163
   13CHTO  H147 5226   5.131   4.547   2.074
   13CHTO   N13 5227   4.989   4.516   2.220
   13CHTO  H139 5228   4.985   4.620   2.246
   13CHTO  H140 5229   4.973   4.457   2.310
   13CHTO   C76 5230   5.242   4.525   2.261
   13CHTO  H148 5231   5.227   4.475   2.357
   13CHTO   O49 5232   5.373   4.487   2.208
   13CHTO   C77 5233   5.386   4.348   2.171
   13CHTO  H149 5234   5.370   4.285   2.258
   13CHTO   C88 5235   5.530   4.321   2.125
   13CHTO   O58 5236   5.627   4.340   2.238
   13CHTO  H136 5237   5.631   4.431   2.261
   13CHTO   O51 5238   5.251   4.683   2.273
   13CHTO   C78 5239   5.333   4.726   2.398
   13CHTO  H150 5240   5.392   4.641   2.440
   13CHTO   C80 5241   5.238   4.779   2.508
   13CHTO  H152 5242   5.182   4.866   2.468
   13CHTO   O55 5243   5.144   4.674   2.538
   13CHTO  H134 5244   5.086   4.661   2.466
   13CHTO   C84 5245   5.320   4.824   2.635
   13CHTO  H156 5246   5.373   4.736   2.674
   13CHTO   N15 5247   5.234   4.876   2.747
   13CHTO  H143 5248   5.248   4.817   2.835
   13CHTO  H144 5249   5.131   4.875   2.720
   13CHTO   C87 5250   5.426   4.929   2.593
   13CHTO  H159 5251   5.375   5.020   2.561
   13CHTO   O53 5252   5.513   4.872   2.473
   13CHTO   C82 5253   5.434   4.836   2.359
   13CHTO  H154 5254   5.382   4.924   2.322
   13CHTO   C89 5255   5.529   4.789   2.245
   13CHTO   O59 5256   5.609   4.677   2.284
   13CHTO  H137 5257   5.555   4.601   2.294
   13CHTO   O45 5258   5.525   4.970   2.720
   13CHTO   C67 5259   5.655   4.909   2.722
   13CHTO  H124 5260   5.647   4.806   2.688
   13CHTO   C65 5261   5.756   4.986   2.630
   13CHTO  H122 5262   5.697   5.060   2.575
   13CHTO   O44 5263   5.812   4.892   2.537
   13CHTO  H102 5264   5.863   4.938   2.472
   13CHTO   C63 5265   5.860   5.069   2.715
   13CHTO  H120 5266   5.805   5.136   2.781
   13CHTO   N11 5267   5.946   5.165   2.638
   13CHTO  H108 5268   6.003   5.224   2.706
   13CHTO  H109 5269   5.885   5.228   2.578
   13CHTO   C61 5270   5.938   4.968   2.807
   13CHTO  H118 5271   5.989   5.028   2.884
   13CHTO   O40 5272   5.850   4.875   2.878
   13CHTO   C68 5273   5.707   4.900   2.873
   13CHTO  H125 5274   5.686   4.995   2.926
   13CHTO   C72 5275   5.638   4.787   2.953
   13CHTO   O48 5276   5.498   4.808   2.971
   13CHTO  H105 5277   5.453   4.799   2.889
   13CHTO   O38 5278   6.032   4.886   2.734
   13CHTO   C55 5279   6.148   4.829   2.799
   13CHTO  H112 5280   6.201   4.773   2.720
   13CHTO   C56 5281   6.111   4.736   2.923
   13CHTO  H113 5282   6.051   4.796   2.993
   13CHTO   O42 5283   6.027   4.629   2.876
   13CHTO  H100 5284   5.997   4.578   2.949
   13CHTO   C57 5285   6.241   4.683   2.996
   13CHTO  H114 5286   6.290   4.613   2.928
   13CHTO   N10 5287   6.212   4.607   3.120
   13CHTO  H106 5288   6.123   4.645   3.169
   13CHTO  H107 5289   6.295   4.612   3.189
   13CHTO   C58 5290   6.336   4.802   3.023
   13CHTO  H115 5291   6.289   4.870   3.098
   13CHTO   O37 5292   6.365   4.875   2.903
   13CHTO   C59 5293   6.250   4.938   2.845
   13CHTO  H116 5294   6.204   5.005   2.918
   13CHTO   C70 5295   6.297   5.023   2.725
   13CHTO   O46 5296   6.382   5.131   2.765
   13CHTO  H103 5297   6.408   5.180   2.689
   13CHTO   O39 5298   6.479   4.750   3.076
   13CHTO   C60 5299   6.547   4.845   3.158
   13CHTO  H117 5300   6.537   4.945   3.114
   13CHTO   C62 5301   6.489   4.849   3.303
   13CHTO  H119 5302   6.383   4.883   3.294
   13CHTO   O43 5303   6.491   4.717   3.360
   13CHTO  H101 5304   6.431   4.661   3.314
   13CHTO   C66 5305   6.571   4.957   3.390
   13CHTO  H123 5306   6.563   5.054   3.341
   13CHTO   N12 5307   6.514   4.976   0.090
   13CHTO  H110 5308   6.516   4.882   0.144
   13CHTO  H111 5309   6.414   5.015   0.083
   13CHTO   C69 5310   6.721   4.919   3.391
   13CHTO  H126 5311   6.737   4.822   0.007
   13CHTO   O41 5312   6.773   4.909   3.245
   13CHTO   C64 5313   6.699   4.812   3.161
   13CHTO  H121 5314   6.712   4.709   3.202
   13CHTO   C71 5315   6.759   4.815   3.019
   13CHTO   O47 5316   6.890   4.756   3.017
   13CHTO  H104 5317   6.883   4.663   3.030
   13CHTO   O34 5318   6.803   5.025   0.024
   13CHTO   C49 5319   6.942   5.075   0.028
   13CHTO   H91 5320   7.008   4.988   0.032
   13CHTO   C47 5321   6.955   5.160   0.155
   13CHTO   H89 5322   7.064   5.187   0.160
   13CHTO   O33 5323   6.923   5.081   0.271
   13CHTO   H70 5324   6.943   5.129   0.349
   13CHTO   C45 5325   6.861   5.292   0.147
   13CHTO   H87 5326   6.762   5.265   0.188
   13CHTO    N8 5327   6.921   5.396   0.235
   13CHTO   H75 5328   6.854   5.417   0.318
   13CHTO   H76 5329   6.939   5.486   0.180
   13CHTO   C43 5330   6.833   5.333   3.430
   13CHTO   H85 5331   6.748   5.272   3.399
   13CHTO   O29 5332   6.950   5.305   3.351
   13CHTO   C50 5333   6.979   5.164   3.341
   13CHTO   H92 5334   6.923   5.126   3.254
   13CHTO   C54 5335   7.127   5.146   3.297
   13CHTO   O36 5336   7.218   5.211   3.386
   13CHTO   H72 5337   7.220   5.167   0.032
   13CHTO   O27 5338   6.787   5.468   3.411
   13CHTO   C37 5339   6.810   5.609   3.423
   13CHTO   H79 5340   6.822   5.636   0.093
   13CHTO   C38 5341   6.941   5.652   3.350
   13CHTO   H80 5342   6.938   5.613   3.247
   13CHTO   O31 5343   7.052   5.591   3.419
   13CHTO   H68 5344   7.132   5.607   3.373
   13CHTO   C39 5345   6.956   5.809   3.347
   13CHTO   H81 5346   6.970   5.844   0.013
   13CHTO    N7 5347   7.074   5.856   3.267
   13CHTO   H73 5348   7.080   5.964   3.269
   13CHTO   H74 5349   7.165   5.814   3.309
   13CHTO   C40 5350   6.821   5.873   3.294
   13CHTO   H82 5351   6.808   5.846   3.190
   13CHTO   O26 5352   6.712   5.829   3.376
   13CHTO   C41 5353   6.689   5.685   3.365
   13CHTO   H83 5354   6.677   5.660   3.259
   13CHTO   C52 5355   6.558   5.648   0.001
   13CHTO   O35 5356   6.439   5.710   3.375
   13CHTO   H71 5357   6.426   5.674   3.289
   13CHTO   O28 5358   6.817   6.017   3.309
   13CHTO   C42 5359   6.766   6.101   3.200
   13CHTO   H84 5360   6.752   6.035   3.115
   13CHTO   C44 5361   6.864   6.213   3.152
   13CHTO   H86 5362   6.884   6.281   3.236
   13CHTO   O32 5363   6.988   6.150   3.114
   13CHTO   H69 5364   7.032   6.116   3.189
   13CHTO   C48 5365   6.803   6.298   3.033
   13CHTO   H90 5366   6.799   6.233   2.946
   13CHTO    N9 5367   6.890   6.414   2.991
   13CHTO   H77 5368   6.980   6.418   3.051
   13CHTO   H78 5369   6.836   6.508   2.998
   13CHTO   C51 5370   6.656   6.343   3.068
   13CHTO   H93 5371   6.662   6.419   3.146
   13CHTO   O30 5372   6.578   6.231   3.110
   13CHTO   C46 5373   6.628   6.165   3.231
   13CHTO   H88 5374   6.639   6.241   3.310
   13CHTO   C53 5375   6.519   6.064   3.275
   13CHTO   O72 5376   6.494   5.964   3.175
   13CHTO  H199 5377   6.569   5.908   3.166
   13CHTO   O22 5378   6.584   6.390   2.953
   13CHTO   C31 5379   6.488   6.502   2.960
   13CHTO   H59 5380   6.413   6.482   2.882
   13CHTO   C29 5381   6.411   6.518   3.093
   13CHTO   H57 5382   6.485   6.529   3.174
   13CHTO   O21 5383   6.340   6.395   3.119
   13CHTO   H37 5384   6.303   6.396   3.205
   13CHTO   C27 5385   6.315   6.644   3.094
   13CHTO   H55 5386   6.233   6.626   3.023
   13CHTO    N5 5387   6.256   6.668   3.229
   13CHTO   H43 5388   6.202   6.580   3.261
   13CHTO   H44 5389   6.189   6.752   3.225
   13CHTO   C25 5390   6.395   6.769   3.043
   13CHTO   H53 5391   6.474   6.795   3.115
   13CHTO   O17 5392   6.457   6.741   2.914
   13CHTO   C32 5393   6.555   6.636   2.919
   13CHTO   H60 5394   6.633   6.660   2.991
   13CHTO   C36 5395   6.619   6.626   2.778
   13CHTO   O25 5396   6.686   6.747   2.742
   13CHTO   H40 5397   6.623   6.815   2.729
   13CHTO   O15 5398   6.307   6.889   3.021
   13CHTO   C19 5399   6.186   6.936   2.956
   13CHTO   H47 5400   6.209   7.041   2.931
   13CHTO   C20 5401   6.147   6.862   2.824
   13CHTO   H48 5402   6.130   6.754   2.841
   13CHTO   O19 5403   6.258   6.875   2.733
   13CHTO   H35 5404   6.272   6.965   2.710
   13CHTO   C21 5405   6.014   6.923   2.761
   13CHTO   H49 5406   6.036   7.023   2.725
   13CHTO    N4 5407   5.966   6.846   2.643
   13CHTO   H41 5408   5.877   6.892   2.603
   13CHTO   H42 5409   5.942   6.745   2.672
   13CHTO   C22 5410   5.905   6.936   2.871
   13CHTO   H50 5411   5.872   6.836   2.900
   13CHTO   O14 5412   5.955   7.006   2.986
   13CHTO   C23 5413   6.064   6.940   3.051
   13CHTO   H51 5414   6.030   6.839   3.079
   13CHTO   C34 5415   6.094   7.015   3.182
   13CHTO   O23 5416   6.140   7.148   3.158
   13CHTO   H38 5417   6.070   7.201   3.125
   13CHTO   O16 5418   5.794   7.018   2.829
   13CHTO   C24 5419   5.659   6.981   2.910
   13CHTO   H52 5420   5.678   6.913   2.993
   13CHTO   C26 5421   5.560   6.915   2.812
   13CHTO   H54 5422   5.545   6.983   2.726
   13CHTO   O20 5423   5.621   6.794   2.763
   13CHTO   H36 5424   5.568   6.756   2.696
   13CHTO   C30 5425   5.423   6.887   2.881
   13CHTO   H58 5426   5.435   6.807   2.955
   13CHTO    N6 5427   5.322   6.838   2.783
   13CHTO   H45 5428   5.229   6.816   2.833
   13CHTO   H46 5429   5.304   6.912   2.707
   13CHTO   C33 5430   5.372   7.013   2.958
   13CHTO   H61 5431   5.342   7.091   2.885
   13CHTO   O18 5432   5.476   7.068   3.041
   13CHTO   C28 5433   5.595   7.108   2.971
   13CHTO   H56 5434   5.571   7.178   2.891
   13CHTO   C35 5435   5.692   7.176   3.071
   13CHTO   O24 5436   5.637   7.292   3.134
   13CHTO   H39 5437   5.567   7.267   3.191
   13CHTO    O9 5438   5.252   6.986   3.035
   13CHTO   C13 5439   5.274   6.889   3.164
   13CHTO   H26 5440   5.383   6.884   3.187
   13CHTO   C11 5441   5.214   6.745   3.135
   13CHTO   H24 5442   5.273   6.700   3.053
   13CHTO    O8 5443   5.078   6.754   3.089
   13CHTO    H3 5444   5.023   6.789   3.157
   13CHTO    C9 5445   5.235   6.660   3.262
   13CHTO   H22 5446   5.343   6.664   3.284
   13CHTO    N2 5447   5.208   6.516   3.242
   13CHTO   H10 5448   5.265   6.478   3.159
   13CHTO   H11 5449   5.231   6.460   3.332
   13CHTO    C7 5450   5.158   6.724   3.383
   13CHTO   H20 5451   5.193   6.666   0.034
   13CHTO    O4 5452   5.195   6.862   3.404
   13CHTO   C14 5453   5.208   6.953   3.293
   13CHTO   H27 5454   5.276   7.033   3.326
   13CHTO   C18 5455   5.071   7.021   3.264
   13CHTO   O13 5456   5.032   7.107   3.371
   13CHTO    H7 5457   5.009   7.055   0.010
   13CHTO    O2 5458   4.994   6.712   3.369
   13CHTO    C1 5459   4.929   6.672   0.055
   13CHTO   H14 5460   4.982   6.719   0.141
   13CHTO    C2 5461   4.924   6.515   0.077
   13CHTO   H15 5462   4.876   6.473   3.424
   13CHTO    O6 5463   5.057   6.464   0.090
   13CHTO    H1 5464   5.056   6.370   0.092
   13CHTO    C3 5465   4.839   6.479   0.208
   13CHTO   H16 5466   4.898   6.509   0.296
   13CHTO    N1 5467   4.815   6.331   0.221
   13CHTO    H8 5468   4.761   6.294   0.135
   13CHTO    H9 5469   4.910   6.280   0.230
   13CHTO    C4 5470   4.704   6.561   0.216
   13CHTO   H17 5471   4.629   6.514   0.152
   13CHTO    O1 5472   4.721   6.700   0.183
   13CHTO    C5 5473   4.784   6.728   0.057
   13CHTO   H18 5474   4.728   6.679   3.414
   13CHTO   C16 5475   4.777   6.882   0.035
   13CHTO   O11 5476   4.845   6.955   0.139
   13CHTO    H5 5477   4.798   6.946   0.219
   13CHTO    O3 5478   4.660   6.566   0.353
   13CHTO    C6 5479   4.518   6.545   0.383
   13CHTO   H19 5480   4.455   6.542   0.295
   13CHTO    C8 5481   4.504   6.410   0.460
   13CHTO   H21 5482   4.584   6.404   0.534
   13CHTO    O7 5483   4.521   6.304   0.364
   13CHTO    H2 5484   4.453   6.305   0.300
   13CHTO   C12 5485   4.365   6.396   0.535
   13CHTO   H25 5486   4.289   6.377   0.456
   13CHTO    N3 5487   4.367   6.276   0.625
   13CHTO   H12 5488   4.443   6.287   0.701
   13CHTO   H13 5489   4.270   6.264   0.671
   13CHTO   C15 5490   4.329   6.529   0.609
   13CHTO   H28 5491   4.394   6.547   0.695
   13CHTO   O10 5492   4.183   6.534   0.654
   13CHTO    H4 5493   4.168   6.468   0.720
   13CHTO    O5 5494   4.335   6.641   0.518
   13CHTO   C10 5495   4.468   6.664   0.470
   13CHTO   H23 5496   4.535   6.679   0.555
   13CHTO   C17 5497   4.469   6.795   0.390
   13CHTO   O12 5498   4.445   6.909   0.473
   13CHTO    H6 5499   4.356   6.908   0.504
   14CHTO  H203 5500   5.734   4.571   2.522
   14CHTO   O82 5501   5.734   4.577   2.616
   14CHTO  C123 5502   5.683   4.456   2.675
   14CHTO  H227 5503   5.690   4.465   2.785
   14CHTO   O77 5504   5.543   4.455   2.634
   14CHTO  C118 5505   5.468   4.343   2.685
   14CHTO  H222 5506   5.477   4.339   2.795
   14CHTO  C125 5507   5.317   4.363   2.647
   14CHTO   O84 5508   5.263   4.475   2.717
   14CHTO  H205 5509   5.173   4.487   2.692
   14CHTO  C114 5510   5.525   4.213   2.625
   14CHTO  H218 5511   5.518   4.220   2.516
   14CHTO  C116 5512   5.675   4.197   2.662
   14CHTO  H220 5513   5.683   4.179   2.772
   14CHTO   O79 5514   5.726   4.078   2.599
   14CHTO  H201 5515   5.725   4.087   2.505
   14CHTO  C120 5516   5.757   4.327   2.623
   14CHTO  H224 5517   5.762   4.328   2.512
   14CHTO   N21 5518   5.898   4.319   2.672
   14CHTO  H211 5519   5.905   4.359   2.772
   14CHTO  H212 5520   5.963   4.374   2.606
   14CHTO   O75 5521   5.441   4.107   2.676
   14CHTO  C112 5522   5.397   3.980   2.569
   14CHTO  H216 5523   5.436   3.885   2.610
   14CHTO   O73 5524   5.450   4.007   2.438
   14CHTO  C113 5525   5.417   3.910   2.338
   14CHTO  H217 5526   5.448   3.809   2.374
   14CHTO  C124 5527   5.499   3.941   2.213
   14CHTO   O83 5528   5.639   3.930   2.237
   14CHTO  H204 5529   5.686   3.950   2.158
   14CHTO  C109 5530   5.263   3.911   2.314
   14CHTO  H213 5531   5.237   4.014   2.282
   14CHTO  C110 5532   5.193   3.876   2.448
   14CHTO  H214 5533   5.217   3.773   2.474
   14CHTO   O78 5534   5.050   3.883   2.428
   14CHTO  H200 5535   5.005   3.853   2.505
   14CHTO  C111 5536   5.239   3.972   2.562
   14CHTO  H215 5537   5.203   4.074   2.539
   14CHTO   N19 5538   5.184   3.937   2.696
   14CHTO  H207 5539   5.214   3.837   2.723
   14CHTO  H208 5540   5.076   3.944   2.695
   14CHTO   O74 5541   5.223   3.817   2.209
   14CHTO  C115 5542   5.197   3.888   2.058
   14CHTO  H219 5543   5.217   3.995   2.060
   14CHTO   O76 5544   5.297   3.829   1.950
   14CHTO  C122 5545   5.280   3.876   1.815
   14CHTO  H226 5546   5.342   3.813   1.751
   14CHTO  C126 5547   5.339   4.022   1.799
   14CHTO   O85 5548   5.479   4.030   1.828
   14CHTO  H206 5549   5.527   3.983   1.763
   14CHTO  C121 5550   5.131   3.868   1.765
   14CHTO  H225 5551   5.124   3.925   1.670
   14CHTO   O81 5552   5.097   3.732   1.736
   14CHTO  H202 5553   5.099   3.680   1.813
   14CHTO  C119 5554   5.032   3.932   1.868
   14CHTO  H223 5555   5.062   4.037   1.876
   14CHTO  C117 5556   5.048   3.868   2.011
   14CHTO  H221 5557   5.030   3.760   2.018
   14CHTO   N20 5558   4.952   3.930   2.108
   14CHTO  H209 5559   4.885   3.856   2.149
   14CHTO  H210 5560   5.003   3.982   2.188
   14CHTO   O80 5561   4.884   3.945   1.810
   14CHTO  C103 5562   4.859   4.035   1.684
   14CHTO  H190 5563   4.953   4.075   1.645
   14CHTO  C101 5564   4.781   3.965   1.567
   14CHTO  H188 5565   4.694   3.914   1.608
   14CHTO   O68 5566   4.874   3.857   1.502
   14CHTO  H168 5567   4.947   3.899   1.461
   14CHTO   C99 5568   4.728   4.073   1.459
   14CHTO  H186 5569   4.816   4.121   1.410
   14CHTO   N17 5570   4.644   4.013   1.351
   14CHTO  H174 5571   4.698   3.933   1.302
   14CHTO  H175 5572   4.616   4.089   1.280
   14CHTO   C97 5573   4.654   4.188   1.533
   14CHTO  H184 5574   4.564   4.144   1.581
   14CHTO   O64 5575   4.743   4.246   1.630
   14CHTO  C104 5576   4.775   4.158   1.738
   14CHTO  H191 5577   4.686   4.121   1.789
   14CHTO  C108 5578   4.854   4.238   1.843
   14CHTO   O71 5579   4.776   4.343   1.900
   14CHTO  H171 5580   4.761   4.410   1.836
   14CHTO   O62 5581   4.616   4.298   1.447
   14CHTO   C91 5582   4.507   4.379   1.496
   14CHTO  H178 5583   4.431   4.311   1.535
   14CHTO   C92 5584   4.438   4.452   1.375
   14CHTO  H179 5585   4.415   4.379   1.295
   14CHTO   O66 5586   4.311   4.501   1.418
   14CHTO  H166 5587   4.321   4.563   1.489
   14CHTO   C93 5588   4.522   4.575   1.320
   14CHTO  H180 5589   4.450   4.645   1.275
   14CHTO   N16 5590   4.614   4.539   1.211
   14CHTO  H172 5591   4.685   4.464   1.244
   14CHTO  H173 5592   4.559   4.503   1.126
   14CHTO   C94 5593   4.597   4.648   1.438
   14CHTO  H181 5594   4.700   4.612   1.450
   14CHTO   O61 5595   4.532   4.622   1.564
   14CHTO   C95 5596   4.546   4.486   1.608
   14CHTO  H182 5597   4.649   4.470   1.639
   14CHTO  C106 5598   4.459   4.470   1.738
   14CHTO   O69 5599   4.476   4.340   1.797
   14CHTO  H169 5600   4.439   4.274   1.741
   14CHTO   O63 5601   4.596   4.806   1.412
   14CHTO   C96 5602   4.718   4.888   1.482
   14CHTO  H183 5603   4.707   4.992   1.452
   14CHTO   C98 5604   4.861   4.842   1.441
   14CHTO  H185 5605   4.871   4.734   1.455
   14CHTO   O67 5606   4.871   4.865   1.300
   14CHTO  H167 5607   4.954   4.834   1.268
   14CHTO  C102 5608   4.976   4.920   1.523
   14CHTO  H189 5609   4.969   5.025   1.491
   14CHTO   N18 5610   5.115   4.877   1.491
   14CHTO  H176 5611   5.136   4.894   1.387
   14CHTO  H177 5612   5.127   4.772   1.514
   14CHTO  C105 5613   4.942   4.911   1.674
   14CHTO  H192 5614   4.949   4.807   1.706
   14CHTO   O65 5615   4.810   4.959   1.702
   14CHTO  C100 5616   4.705   4.883   1.639
   14CHTO  H187 5617   4.712   4.779   1.672
   14CHTO  C107 5618   4.569   4.940   1.685
   14CHTO   O70 5619   4.549   4.915   1.825
   14CHTO  H170 5620   4.466   4.949   1.851
   14CHTO   O57 5621   5.049   5.002   1.756
   14CHTO   C85 5622   5.091   4.958   1.887
   14CHTO  H157 5623   5.112   4.849   1.877
   14CHTO   C83 5624   4.971   4.969   1.988
   14CHTO  H155 5625   4.893   4.900   1.955
   14CHTO   O56 5626   4.913   5.101   1.980
   14CHTO  H135 5627   4.974   5.165   2.011
   14CHTO   C81 5628   5.019   4.928   2.130
   14CHTO  H153 5629   5.054   4.825   2.125
   14CHTO   N14 5630   4.908   4.923   2.229
   14CHTO  H141 5631   4.869   5.021   2.246
   14CHTO  H142 5632   4.943   4.882   2.321
   14CHTO   C79 5633   5.139   5.019   2.176
   14CHTO  H151 5634   5.173   4.980   2.272
   14CHTO   O52 5635   5.249   5.003   2.082
   14CHTO   C86 5636   5.216   5.037   1.944
   14CHTO  H158 5637   5.197   5.146   1.945
   14CHTO   C90 5638   5.345   5.017   1.861
   14CHTO   O60 5639   5.329   5.051   1.723
   14CHTO  H138 5640   5.271   4.990   1.681
   14CHTO   O50 5641   5.108   5.158   2.192
   14CHTO   C73 5642   5.137   5.288   2.247
   14CHTO  H145 5643   5.128   5.285   2.356
   14CHTO   C74 5644   5.034   5.391   2.191
   14CHTO  H146 5645   4.934   5.352   2.214
   14CHTO   O54 5646   5.048   5.513   2.265
   14CHTO  H133 5647   4.983   5.575   2.238
   14CHTO   C75 5648   5.056   5.408   2.035
   14CHTO  H147 5649   5.038   5.311   1.987
   14CHTO   N13 5650   4.961   5.503   1.972
   14CHTO  H139 5651   4.981   5.509   1.866
   14CHTO  H140 5652   4.860   5.468   1.986
   14CHTO   C76 5653   5.209   5.446   2.007
   14CHTO  H148 5654   5.227   5.545   2.050
   14CHTO   O49 5655   5.298   5.347   2.067
   14CHTO   C77 5656   5.282   5.335   2.210
   14CHTO  H149 5657   5.300   5.432   2.256
   14CHTO   C88 5658   5.393   5.243   2.261
   14CHTO   O58 5659   5.391   5.231   2.403
   14CHTO  H136 5660   5.460   5.174   2.431
   14CHTO   O51 5661   5.240   5.442   1.847
   14CHTO   C78 5662   5.395   5.465   1.798
   14CHTO  H150 5663   5.458   5.377   1.823
   14CHTO   C80 5664   5.460   5.591   1.861
   14CHTO  H152 5665   5.387   5.675   1.854
   14CHTO   O55 5666   5.483   5.563   2.001
   14CHTO  H134 5667   5.401   5.556   2.047
   14CHTO   C84 5668   5.596   5.633   1.793
   14CHTO  H156 5669   5.671   5.560   1.821
   14CHTO   N15 5670   5.645   5.767   1.843
   14CHTO  H143 5671   5.738   5.791   1.796
   14CHTO  H144 5672   5.659   5.763   1.948
   14CHTO   C87 5673   5.583   5.633   1.639
   14CHTO  H159 5674   5.518   5.715   1.606
   14CHTO   O53 5675   5.524   5.498   1.593
   14CHTO   C82 5676   5.392   5.477   1.645
   14CHTO  H154 5677   5.326   5.559   1.615
   14CHTO   C89 5678   5.333   5.348   1.582
   14CHTO   O59 5679   5.317   5.361   1.440
   14CHTO  H137 5680   5.401   5.365   1.399
   14CHTO   O45 5681   5.729   5.654   1.564
   14CHTO   C67 5682   5.816   5.539   1.563
   14CHTO  H124 5683   5.766   5.451   1.604
   14CHTO   C65 5684   5.859   5.509   1.416
   14CHTO  H122 5685   5.767   5.513   1.357
   14CHTO   O44 5686   5.915   5.377   1.407
   14CHTO  H102 5687   5.932   5.356   1.318
   14CHTO   C63 5688   5.949   5.627   1.364
   14CHTO  H120 5689   5.895   5.721   1.378
   14CHTO   N11 5690   5.975   5.629   1.217
   14CHTO  H108 5691   6.036   5.545   1.190
   14CHTO  H109 5692   5.882   5.624   1.164
   14CHTO   C61 5693   6.078   5.638   1.454
   14CHTO  H118 5694   6.130   5.730   1.424
   14CHTO   O40 5695   6.041   5.656   1.594
   14CHTO   C68 5696   5.942   5.567   1.656
   14CHTO  H125 5697   5.904   5.620   1.746
   14CHTO   C72 5698   6.010   5.437   1.707
   14CHTO   O48 5699   5.923   5.353   1.784
   14CHTO  H105 5700   5.856   5.318   1.728
   14CHTO   O38 5701   6.168   5.525   1.449
   14CHTO   C55 5702   6.279   5.523   1.356
   14CHTO  H112 5703   6.269   5.605   1.283
   14CHTO   C56 5704   6.280   5.381   1.287
   14CHTO  H113 5705   6.270   5.307   1.367
   14CHTO   O42 5706   6.163   5.365   1.204
   14CHTO  H100 5707   6.086   5.366   1.257
   14CHTO   C57 5708   6.412   5.354   1.205
   14CHTO  H114 5709   6.409   5.419   1.117
   14CHTO   N10 5710   6.423   5.214   1.155
   14CHTO  H106 5711   6.470   5.151   1.228
   14CHTO  H107 5712   6.325   5.174   1.132
   14CHTO   C58 5713   6.536   5.393   1.290
   14CHTO  H115 5714   6.543   5.324   1.378
   14CHTO   O37 5715   6.523   5.528   1.337
   14CHTO   C59 5716   6.415   5.548   1.429
   14CHTO  H116 5717   6.425   5.481   1.515
   14CHTO   C70 5718   6.423   5.693   1.481
   14CHTO   O46 5719   6.546   5.722   1.548
   14CHTO  H103 5720   6.617   5.721   1.487
   14CHTO   O39 5721   6.674   5.389   1.202
   14CHTO   C60 5722   6.783   5.319   1.265
   14CHTO  H117 5723   6.785   5.345   1.371
   14CHTO   C62 5724   6.768   5.164   1.255
   14CHTO  H119 5725   6.675   5.139   1.310
   14CHTO   O43 5726   6.751   5.126   1.116
   14CHTO  H101 5727   6.734   5.034   1.110
   14CHTO   C66 5728   6.893   5.093   1.325
   14CHTO  H123 5729   6.904   5.133   1.426
   14CHTO   N12 5730   6.872   4.947   1.342
   14CHTO  H110 5731   6.860   4.900   1.245
   14CHTO  H111 5732   6.956   4.904   1.396
   14CHTO   C69 5733   7.021   5.129   1.245
   14CHTO  H126 5734   7.009   5.099   1.139
   14CHTO   O41 5735   7.042   5.283   1.255
   14CHTO   C64 5736   6.918   5.368   1.204
   14CHTO  H121 5737   6.912   5.360   1.093
   14CHTO   C71 5738   6.943   5.517   1.239
   14CHTO   O47 5739   6.965   5.537   1.379
   14CHTO  H104 5740   7.047   5.498   1.405
   14CHTO   O34 5741   7.146   5.058   1.301
   14CHTO   C49 5742   7.268   5.011   1.227
   14CHTO   H91 5743   7.235   4.947   1.145
   14CHTO   C47 5744   7.355   4.931   1.326
   14CHTO   H89 5745   7.438   4.889   1.265
   14CHTO   O33 5746   7.280   4.820   1.380
   14CHTO   H70 5747   7.208   4.851   1.431
   14CHTO   C45 5748   7.411   5.026   1.445
   14CHTO   H87 5749   7.340   5.021   1.529
   14CHTO    N8 5750   7.542   4.973   1.490
   14CHTO   H75 5751   7.618   5.050   1.485
   14CHTO   H76 5752   7.534   4.937   1.592
   14CHTO   C43 5753   7.407   5.181   1.399
   14CHTO   H85 5754   7.304   5.213   1.414
   14CHTO   O29 5755   7.447   5.193   1.261
   14CHTO   C50 5756   7.355   5.128   1.170
   14CHTO   H92 5757   7.285   5.206   1.134
   14CHTO   C54 5758   7.430   5.088   1.040
   14CHTO   O36 5759   7.544   5.005   1.066
   14CHTO   H72 5760   7.584   4.982   0.985
   14CHTO   O27 5761   7.484   5.268   1.485
   14CHTO   C37 5762   7.455   5.392   1.551
   14CHTO   H79 5763   7.545   5.429   1.602
   14CHTO   C38 5764   7.412   5.503   1.449
   14CHTO   H80 5765   7.332   5.462   1.385
   14CHTO   O31 5766   7.527   5.533   1.367
   14CHTO   H68 5767   7.546   5.460   1.311
   14CHTO   C39 5768   7.359   5.633   1.522
   14CHTO   H81 5769   7.443   5.677   1.575
   14CHTO    N7 5770   7.306   5.736   1.426
   14CHTO   H73 5771   7.202   5.757   1.445
   14CHTO   H74 5772   7.364   5.827   1.435
   14CHTO   C40 5773   7.252   5.593   1.631
   14CHTO   H82 5774   7.161   5.556   1.583
   14CHTO   O26 5775   7.308   5.496   1.721
   14CHTO   C41 5776   7.344   5.370   1.658
   14CHTO   H83 5777   7.255   5.326   1.610
   14CHTO   C52 5778   7.391   5.274   1.769
   14CHTO   O35 5779   7.286   5.249   1.871
   14CHTO   H71 5780   7.268   5.328   1.918
   14CHTO   O28 5781   7.217   5.704   1.717
   14CHTO   C42 5782   7.092   5.705   1.795
   14CHTO   H84 5783   7.101   5.795   1.856
   14CHTO   C44 5784   7.069   5.587   1.895
   14CHTO   H86 5785   7.065   5.494   1.838
   14CHTO   O32 5786   7.183   5.582   1.983
   14CHTO   H69 5787   7.259   5.554   1.936
   14CHTO   C48 5788   6.934   5.602   1.976
   14CHTO   H90 5789   6.948   5.683   2.047
   14CHTO    N9 5790   6.902   5.481   2.059
   14CHTO   H77 5791   6.981   5.464   2.131
   14CHTO   H78 5792   6.891   5.394   1.995
   14CHTO   C51 5793   6.814   5.641   1.881
   14CHTO   H93 5794   6.783   5.552   1.825
   14CHTO   O30 5795   6.849   5.750   1.795
   14CHTO   C46 5796   6.965   5.722   1.707
   14CHTO   H88 5797   6.947   5.630   1.651
   14CHTO   C53 5798   6.978   5.841   1.608
   14CHTO   O72 5799   6.868   5.841   1.516
   14CHTO  H199 5800   6.789   5.866   1.561
   14CHTO   O22 5801   6.704   5.692   1.959
   14CHTO   C31 5802   6.566   5.687   1.907
   14CHTO   H59 5803   6.574   5.668   1.798
   14CHTO   C29 5804   6.484   5.571   1.969
   14CHTO   H57 5805   6.493   5.580   2.078
   14CHTO   O21 5806   6.547   5.447   1.933
   14CHTO   H37 5807   6.633   5.442   1.971
   14CHTO   C27 5808   6.331   5.574   1.929
   14CHTO   H55 5809   6.323   5.549   1.822
   14CHTO    N5 5810   6.251   5.477   2.007
   14CHTO   H43 5811   6.256   5.500   2.112
   14CHTO   H44 5812   6.287   5.376   1.990
   14CHTO   C25 5813   6.276   5.720   1.946
   14CHTO   H53 5814   6.279   5.747   2.052
   14CHTO   O17 5815   6.358   5.813   1.871
   14CHTO   C32 5816   6.492   5.825   1.921
   14CHTO   H60 5817   6.490   5.853   2.026
   14CHTO   C36 5818   6.558   5.938   1.839
   14CHTO   O25 5819   6.683   5.978   1.895
   14CHTO   H40 5820   6.719   6.047   1.843
   14CHTO   O15 5821   6.130   5.733   1.894
   14CHTO   C19 5822   6.024   5.824   1.936
   14CHTO   H47 5823   5.934   5.780   1.891
   14CHTO   C20 5824   6.004   5.831   2.091
   14CHTO   H48 5825   6.094   5.870   2.142
   14CHTO   O19 5826   5.981   5.696   2.136
   14CHTO   H35 5827   6.060   5.646   2.130
   14CHTO   C21 5828   5.882   5.923   2.129
   14CHTO   H49 5829   5.790   5.875   2.094
   14CHTO    N4 5830   5.866   5.943   2.275
   14CHTO   H41 5831   5.954   5.989   2.317
   14CHTO   H42 5832   5.849   5.848   2.324
   14CHTO   C22 5833   5.893   6.059   2.053
   14CHTO   H50 5834   5.974   6.117   2.097
   14CHTO   O14 5835   5.916   6.041   1.913
   14CHTO   C23 5836   6.036   5.969   1.878
   14CHTO   H51 5837   6.122   6.023   1.920
   14CHTO   C34 5838   6.044   5.972   1.725
   14CHTO   O23 5839   6.170   5.924   1.676
   14CHTO   H38 5840   6.238   5.985   1.699
   14CHTO   O16 5841   5.766   6.128   2.056
   14CHTO   C24 5842   5.755   6.291   2.092
   14CHTO   H52 5843   5.717   6.348   2.007
   14CHTO   C26 5844   5.889   6.355   2.135
   14CHTO   H54 5845   5.935   6.290   2.214
   14CHTO   O20 5846   5.975   6.357   2.020
   14CHTO   H36 5847   6.002   6.270   1.997
   14CHTO   C30 5848   5.870   6.498   2.194
   14CHTO   H58 5849   5.843   6.567   2.114
   14CHTO    N6 5850   5.999   6.550   2.250
   14CHTO   H45 5851   5.990   6.568   2.357
   14CHTO   H46 5852   6.027   6.642   2.201
   14CHTO   C33 5853   5.753   6.501   2.297
   14CHTO   H61 5854   5.781   6.441   2.385
   14CHTO   O18 5855   5.635   6.443   2.239
   14CHTO   C28 5856   5.649   6.304   2.204
   14CHTO   H56 5857   5.680   6.245   2.290
   14CHTO   C35 5858   5.512   6.251   2.154
   14CHTO   O24 5859   5.409   6.262   2.253
   14CHTO   H39 5860   5.426   6.203   2.323
   14CHTO    O9 5861   5.727   6.633   2.348
   14CHTO   C13 5862   5.664   6.738   2.240
   14CHTO   H26 5863   5.651   6.685   2.143
   14CHTO   C11 5864   5.764   6.860   2.227
   14CHTO   H24 5865   5.857   6.823   2.180
   14CHTO    O8 5866   5.799   6.910   2.358
   14CHTO    H3 5867   5.845   6.844   2.407
   14CHTO    C9 5868   5.700   6.966   2.134
   14CHTO   H22 5869   5.677   6.913   2.041
   14CHTO    N2 5870   5.792   7.075   2.094
   14CHTO   H10 5871   5.820   7.133   2.181
   14CHTO   H11 5872   5.880   7.034   2.046
   14CHTO    C7 5873   5.566   7.015   2.199
   14CHTO   H20 5874   5.524   7.084   2.124
   14CHTO    O4 5875   5.474   6.906   2.218
   14CHTO   C14 5876   5.517   6.784   2.282
   14CHTO   H27 5877   5.447   6.705   2.247
   14CHTO   C18 5878   5.495   6.799   2.435
   14CHTO   O13 5879   5.495   6.671   2.501
   14CHTO    H7 5880   5.480   6.684   2.592
   14CHTO    O2 5881   5.586   7.094   2.340
   14CHTO    C1 5882   5.482   7.191   2.365
   14CHTO   H14 5883   5.386   7.153   2.325
   14CHTO    C2 5884   5.513   7.331   2.297
   14CHTO   H15 5885   5.535   7.310   2.191
   14CHTO    O6 5886   5.397   7.416   2.304
   14CHTO    H1 5887   5.411   7.494   2.255
   14CHTO    C3 5888   5.636   7.406   2.370
   14CHTO   H16 5889   5.606   7.510   2.391
   14CHTO    N1 5890   5.758   7.415   2.284
   14CHTO    H8 5891   5.837   7.467   2.337
   14CHTO    H9 5892   5.735   7.468   2.193
   14CHTO    C4 5893   5.667   7.342   2.510
   14CHTO   H17 5894   5.725   7.250   2.496
   14CHTO    O1 5895   5.545   7.312   2.579
   14CHTO    C5 5896   5.466   7.206   2.521
   14CHTO   H18 5897   5.501   7.113   2.566
   14CHTO   C16 5898   5.319   7.230   2.564
   14CHTO   O11 5899   5.234   7.120   2.528
   14CHTO    H5 5900   5.224   7.118   2.435
   14CHTO    O3 5901   5.740   7.435   2.593
   14CHTO    C6 5902   5.813   7.379   2.706
   14CHTO   H19 5903   5.766   7.288   2.746
   14CHTO    C8 5904   5.960   7.345   2.666
   14CHTO   H21 5905   6.001   7.430   2.611
   14CHTO    O7 5906   5.955   7.230   2.578
   14CHTO    H2 5907   6.041   7.212   2.544
   14CHTO   C12 5908   6.052   7.319   2.792
   14CHTO   H25 5909   6.016   7.224   2.838
   14CHTO    N3 5910   6.195   7.297   2.751
   14CHTO   H12 5911   6.229   7.200   2.784
   14CHTO   H13 5912   6.258   7.375   2.790
   14CHTO   C15 5913   6.031   7.435   2.896
   14CHTO   H28 5914   6.068   7.530   2.857
   14CHTO   O10 5915   6.096   7.408   3.030
   14CHTO    H4 5916   6.189   7.403   3.021
   14CHTO    O5 5917   5.892   7.446   2.931
   14CHTO   C10 5918   5.810   7.485   2.820
   14CHTO   H23 5919   5.847   7.580   2.780
   14CHTO   C17 5920   5.667   7.508   2.869
   14CHTO   O12 5921   5.662   7.613   2.966
   14CHTO    H6 5922   5.574   7.625   2.995
   15CHTO  H203 5923   6.118   4.629   1.961
   15CHTO   O82 5924   6.184   4.634   1.895
   15CHTO  C123 5925   6.227   4.502   1.856
   15CHTO  H227 5926   6.248   4.444   1.947
   15CHTO   O77 5927   6.111   4.447   1.788
   15CHTO  C118 5928   6.126   4.311   1.743
   15CHTO  H222 5929   6.152   4.246   1.828
   15CHTO  C125 5930   5.988   4.265   1.684
   15CHTO   O84 5931   5.886   4.261   1.784
   15CHTO  H205 5932   5.904   4.192   1.845
   15CHTO  C114 5933   6.238   4.305   1.638
   15CHTO  H218 5934   6.212   4.371   1.555
   15CHTO  C116 5935   6.372   4.361   1.695
   15CHTO  H220 5936   6.412   4.292   1.773
   15CHTO   O79 5937   6.470   4.364   1.589
   15CHTO  H201 5938   6.492   4.277   1.563
   15CHTO  C120 5939   6.351   4.505   1.759
   15CHTO  H224 5940   6.330   4.574   1.674
   15CHTO   N21 5941   6.474   4.555   1.827
   15CHTO  H211 5942   6.562   4.518   1.777
   15CHTO  H212 5943   6.475   4.525   1.930
   15CHTO   O75 5944   6.235   4.169   1.589
   15CHTO  C112 5945   6.357   4.065   1.619
   15CHTO  H216 5946   6.400   4.086   1.717
   15CHTO   O73 5947   6.453   4.083   1.514
   15CHTO  C113 5948   6.567   3.996   1.519
   15CHTO  H217 5949   6.618   4.010   1.617
   15CHTO  C124 5950   6.665   4.040   1.410
   15CHTO   O83 5951   6.612   4.030   1.277
   15CHTO  H204 5952   6.599   3.940   1.254
   15CHTO  C109 5953   6.520   3.848   1.505
   15CHTO  H213 5954   6.470   3.840   1.407
   15CHTO  C110 5955   6.419   3.816   1.619
   15CHTO  H214 5956   6.471   3.819   1.715
   15CHTO   O78 5957   6.372   3.681   1.600
   15CHTO  H200 5958   6.318   3.655   1.672
   15CHTO  C111 5959   6.301   3.918   1.617
   15CHTO  H215 5960   6.245   3.905   1.523
   15CHTO   N19 5961   6.204   3.899   1.728
   15CHTO  H207 5962   6.232   3.817   1.792
   15CHTO  H208 5963   6.105   3.881   1.688
   15CHTO   O74 5964   6.634   3.756   1.509
   15CHTO  C115 5965   6.652   3.674   1.368
   15CHTO  H219 5966   6.559   3.672   1.310
   15CHTO   O76 5967   6.758   3.743   1.275
   15CHTO  C122 5968   6.784   3.681   1.148
   15CHTO  H226 5969   6.881   3.720   1.116
   15CHTO  C126 5970   6.681   3.730   1.039
   15CHTO   O85 5971   6.544   3.706   1.069
   15CHTO  H206 5972   6.527   3.614   1.071
   15CHTO  C121 5973   6.796   3.523   1.153
   15CHTO  H225 5974   6.782   3.485   1.050
   15CHTO   O81 5975   6.929   3.488   1.194
   15CHTO  H202 5976   6.992   3.518   1.131
   15CHTO  C119 5977   6.692   3.455   1.246
   15CHTO  H223 5978   6.595   3.477   1.201
   15CHTO  C117 5979   6.694   3.523   1.389
   15CHTO  H221 5980   6.791   3.527   1.439
   15CHTO   N20 5981   6.603   3.454   1.486
   15CHTO  H209 5982   6.608   3.503   1.582
   15CHTO  H210 5983   6.502   3.455   1.449
   15CHTO   O80 5984   6.697   3.290   1.234
   15CHTO  C103 5985   6.557   3.199   1.249
   15CHTO  H190 5986   6.536   3.182   1.354
   15CHTO  C101 5987   6.425   3.249   1.178
   15CHTO  H188 5988   6.446   3.270   1.073
   15CHTO   O68 5989   6.375   3.380   1.246
   15CHTO  H168 5990   6.301   3.414   1.199
   15CHTO   C99 5991   6.312   3.135   1.185
   15CHTO  H186 5992   6.288   3.116   1.291
   15CHTO   N17 5993   6.182   3.171   1.120
   15CHTO  H174 5994   6.109   3.094   1.138
   15CHTO  H175 5995   6.148   3.267   1.156
   15CHTO   C97 5996   6.368   3.000   1.130
   15CHTO  H184 5997   6.383   3.011   1.022
   15CHTO   O64 5998   6.490   2.964   1.198
   15CHTO  C104 5999   6.598   3.059   1.187
   15CHTO  H191 6000   6.626   3.073   1.083
   15CHTO  C108 6001   6.721   3.002   1.258
   15CHTO   O71 6002   6.771   2.885   1.193
   15CHTO  H171 6003   6.710   2.814   1.202
   15CHTO   O62 6004   6.279   2.890   1.160
   15CHTO   C91 6005   6.274   2.782   1.064
   15CHTO  H178 6006   6.343   2.804   0.983
   15CHTO   C92 6007   6.131   2.778   1.000
   15CHTO  H179 6008   6.098   2.880   0.973
   15CHTO   O66 6009   6.142   2.707   0.875
   15CHTO  H166 6010   6.061   2.713   0.827
   15CHTO   C93 6011   6.023   2.703   1.089
   15CHTO  H180 6012   5.939   2.679   1.022
   15CHTO   N16 6013   5.964   2.789   1.194
   15CHTO  H172 6014   6.041   2.825   1.261
   15CHTO  H173 6015   5.911   2.872   1.149
   15CHTO   C94 6016   6.081   2.568   1.148
   15CHTO  H181 6017   6.089   2.571   1.257
   15CHTO   O61 6018   6.213   2.539   1.098
   15CHTO   C95 6019   6.311   2.641   1.127
   15CHTO  H182 6020   6.320   2.651   1.235
   15CHTO  C106 6021   6.450   2.589   1.076
   15CHTO   O69 6022   6.554   2.679   1.114
   15CHTO  H169 6023   6.636   2.646   1.083
   15CHTO   O63 6024   5.984   2.450   1.106
   15CHTO   C96 6025   5.981   2.324   1.206
   15CHTO  H183 6026   6.001   2.360   1.307
   15CHTO   C98 6027   6.085   2.213   1.172
   15CHTO  H185 6028   6.082   2.193   1.064
   15CHTO   O67 6029   6.216   2.266   1.199
   15CHTO  H167 6030   6.282   2.205   1.172
   15CHTO  C102 6031   6.061   2.075   1.254
   15CHTO  H189 6032   6.091   2.097   1.358
   15CHTO   N18 6033   6.147   1.962   1.210
   15CHTO  H176 6034   6.128   1.875   1.271
   15CHTO  H177 6035   6.251   1.990   1.219
   15CHTO  C105 6036   5.910   2.038   1.253
   15CHTO  H192 6037   5.882   2.009   1.151
   15CHTO   O65 6038   5.828   2.149   1.293
   15CHTO  C100 6039   5.836   2.262   1.205
   15CHTO  H187 6040   5.813   2.229   1.102
   15CHTO  C107 6041   5.730   2.367   1.245
   15CHTO   O70 6042   5.597   2.316   1.228
   15CHTO  H170 6043   5.580   2.250   1.293
   15CHTO   O57 6044   5.889   1.909   1.358
   15CHTO   C85 6045   5.760   1.845   1.364
   15CHTO  H157 6046   5.686   1.919   1.328
   15CHTO   C83 6047   5.723   1.817   1.514
   15CHTO  H155 6048   5.721   1.913   1.566
   15CHTO   O56 6049   5.827   1.738   1.576
   15CHTO  H135 6050   5.907   1.787   1.578
   15CHTO   C81 6051   5.582   1.753   1.521
   15CHTO  H153 6052   5.512   1.820   1.473
   15CHTO   N14 6053   5.531   1.740   1.660
   15CHTO  H141 6054   5.446   1.803   1.675
   15CHTO  H142 6055   5.505   1.639   1.683
   15CHTO   C79 6056   5.580   1.617   1.441
   15CHTO  H151 6057   5.477   1.582   1.438
   15CHTO   O52 6058   5.618   1.642   1.301
   15CHTO   C86 6059   5.748   1.708   1.285
   15CHTO  H158 6060   5.822   1.633   1.322
   15CHTO   C90 6061   5.778   1.726   1.135
   15CHTO   O60 6062   5.774   1.601   1.065
   15CHTO  H138 6063   5.793   1.616   0.974
   15CHTO   O50 6064   5.662   1.512   1.496
   15CHTO   C73 6065   5.626   1.376   1.526
   15CHTO  H145 6066   5.516   1.365   1.525
   15CHTO   C74 6067   5.678   1.337   1.669
   15CHTO  H146 6068   5.638   1.412   1.740
   15CHTO   O54 6069   5.617   1.211   1.705
   15CHTO  H133 6070   5.642   1.188   1.792
   15CHTO   C75 6071   5.836   1.333   1.669
   15CHTO  H147 6072   5.873   1.434   1.645
   15CHTO   N13 6073   5.895   1.298   1.801
   15CHTO  H139 6074   5.863   1.199   1.831
   15CHTO  H140 6075   6.003   1.300   1.794
   15CHTO   C76 6076   5.886   1.235   1.553
   15CHTO  H148 6077   5.848   1.135   1.576
   15CHTO   O49 6078   5.831   1.280   1.425
   15CHTO   C77 6079   5.687   1.277   1.421
   15CHTO  H149 6080   5.652   1.176   1.443
   15CHTO   C88 6081   5.639   1.308   1.279
   15CHTO   O58 6082   5.687   1.206   1.182
   15CHTO  H136 6083   5.781   1.212   1.174
   15CHTO   O51 6084   6.050   1.237   1.538
   15CHTO   C78 6085   6.106   1.166   1.404
   15CHTO  H150 6086   6.047   1.199   1.316
   15CHTO   C80 6087   6.100   1.012   1.413
   15CHTO  H152 6088   6.151   0.981   1.506
   15CHTO   O55 6089   5.962   0.972   1.424
   15CHTO  H134 6090   5.914   0.996   1.346
   15CHTO   C84 6091   6.169   0.942   1.289
   15CHTO  H156 6092   6.106   0.960   1.203
   15CHTO   N15 6093   6.178   0.793   1.305
   15CHTO  H143 6094   6.223   0.749   1.218
   15CHTO  H144 6095   6.238   0.768   1.390
   15CHTO   C87 6096   6.308   1.003   1.260
   15CHTO  H159 6097   6.381   0.972   1.336
   15CHTO   O53 6098   6.298   1.158   1.257
   15CHTO   C82 6099   6.251   1.212   1.382
   15CHTO  H154 6100   6.315   1.178   1.464
   15CHTO   C89 6101   6.261   1.366   1.378
   15CHTO   O59 6102   6.397   1.409   1.365
   15CHTO  H137 6103   6.399   1.503   1.360
   15CHTO   O45 6104   6.360   0.953   1.114
   15CHTO   C67 6105   6.489   1.002   1.077
   15CHTO  H124 6106   6.507   1.097   1.126
   15CHTO   C65 6107   6.603   0.902   1.118
   15CHTO  H122 6108   6.558   0.802   1.116
   15CHTO   O44 6109   6.639   0.934   1.253
   15CHTO  H102 6110   6.687   1.014   1.256
   15CHTO   C63 6111   6.720   0.894   1.010
   15CHTO  H120 6112   6.686   0.832   0.928
   15CHTO   N11 6113   6.844   0.822   1.052
   15CHTO  H108 6114   6.819   0.725   1.091
   15CHTO  H109 6115   6.895   0.878   1.128
   15CHTO   C61 6116   6.745   1.037   0.950
   15CHTO  H118 6117   6.820   1.025   0.870
   15CHTO   O40 6118   6.625   1.092   0.887
   15CHTO   C68 6119   6.496   1.033   0.922
   15CHTO  H125 6120   6.482   0.939   0.864
   15CHTO   C72 6121   6.383   1.130   0.877
   15CHTO   O48 6122   6.388   1.256   0.944
   15CHTO  H105 6123   6.319   1.311   0.912
   15CHTO   O38 6124   6.791   1.132   1.048
   15CHTO   C55 6125   6.867   1.244   0.998
   15CHTO  H112 6126   6.851   1.255   0.889
   15CHTO   C56 6127   7.020   1.226   1.034
   15CHTO  H113 6128   7.025   1.206   1.143
   15CHTO   O42 6129   7.071   1.109   0.968
   15CHTO  H100 6130   7.159   1.092   0.996
   15CHTO   C57 6131   7.104   1.356   0.998
   15CHTO  H114 6132   7.108   1.360   0.889
   15CHTO   N10 6133   7.244   1.351   1.045
   15CHTO  H106 6134   7.252   1.390   1.146
   15CHTO  H107 6135   7.282   1.250   1.043
   15CHTO   C58 6136   7.032   1.484   1.049
   15CHTO  H115 6137   7.038   1.487   1.161
   15CHTO   O37 6138   6.893   1.486   1.009
   15CHTO   C59 6139   6.816   1.377   1.061
   15CHTO  H116 6140   6.824   1.373   1.170
   15CHTO   C70 6141   6.669   1.401   1.025
   15CHTO   O46 6142   6.614   1.515   1.092
   15CHTO  H103 6143   6.525   1.526   1.067
   15CHTO   O39 6144   7.101   1.618   0.985
   15CHTO   C60 6145   7.047   1.744   1.029
   15CHTO  H117 6146   6.938   1.739   1.026
   15CHTO   C62 6147   7.089   1.780   1.174
   15CHTO  H119 6148   7.049   1.699   1.240
   15CHTO   O43 6149   7.233   1.779   1.184
   15CHTO  H101 6150   7.259   1.794   1.273
   15CHTO   C66 6151   7.022   1.920   1.216
   15CHTO  H123 6152   6.914   1.911   1.204
   15CHTO   N12 6153   7.044   1.953   1.360
   15CHTO  H110 6154   6.999   1.877   1.422
   15CHTO  H111 6155   7.149   1.962   1.380
   15CHTO   C69 6156   7.071   2.032   1.121
   15CHTO  H126 6157   7.181   2.046   1.133
   15CHTO   O41 6158   7.039   1.993   0.973
   15CHTO   C64 6159   7.089   1.856   0.929
   15CHTO  H121 6160   7.200   1.858   0.923
   15CHTO   C71 6161   7.035   1.828   0.787
   15CHTO   O47 6162   6.892   1.830   0.783
   15CHTO  H104 6163   6.863   1.812   0.695
   15CHTO   O34 6164   7.000   2.170   1.151
   15CHTO   C49 6165   6.883   2.270   1.130
   15CHTO   H91 6166   6.896   2.347   1.206
   15CHTO   C47 6167   6.748   2.198   1.152
   15CHTO   H89 6168   6.670   2.277   1.153
   15CHTO   O33 6169   6.751   2.136   1.282
   15CHTO   H70 6170   6.668   2.099   1.302
   15CHTO   C45 6171   6.721   2.095   1.032
   15CHTO   H87 6172   6.805   2.025   1.027
   15CHTO    N8 6173   6.597   2.015   1.053
   15CHTO   H75 6174   6.586   1.943   0.973
   15CHTO   H76 6175   6.602   1.964   1.147
   15CHTO   C43 6176   6.723   2.174   0.892
   15CHTO   H85 6177   6.715   2.098   0.814
   15CHTO   O29 6178   6.845   2.250   0.880
   15CHTO   C50 6179   6.887   2.335   0.989
   15CHTO   H92 6180   6.991   2.362   0.969
   15CHTO   C54 6181   6.813   2.471   0.982
   15CHTO   O36 6182   6.856   2.563   1.083
   15CHTO   H72 6183   6.830   2.532   1.167
   15CHTO   O27 6184   6.608   2.260   0.873
   15CHTO   C37 6185   6.505   2.266   0.773
   15CHTO   H79 6186   6.503   2.172   0.715
   15CHTO   C38 6187   6.365   2.283   0.839
   15CHTO   H80 6188   6.369   2.368   0.908
   15CHTO   O31 6189   6.336   2.164   0.914
   15CHTO   H68 6190   6.394   2.157   0.988
   15CHTO   C39 6191   6.250   2.308   0.733
   15CHTO   H81 6192   6.235   2.214   0.680
   15CHTO    N7 6193   6.118   2.344   0.796
   15CHTO   H73 6194   6.044   2.359   0.719
   15CHTO   H74 6195   6.087   2.266   0.863
   15CHTO   C40 6196   6.292   2.415   0.625
   15CHTO   H82 6197   6.286   2.517   0.664
   15CHTO   O26 6198   6.424   2.386   0.574
   15CHTO   C41 6199   6.529   2.384   0.674
   15CHTO   H83 6200   6.529   2.479   0.730
   15CHTO   C52 6201   6.664   2.372   0.600
   15CHTO   O35 6202   6.692   2.491   0.514
   15CHTO   H71 6203   6.629   2.496   0.445
   15CHTO   O28 6204   6.208   2.403   0.508
   15CHTO   C42 6205   6.178   2.514   0.417
   15CHTO   H84 6206   6.138   2.464   0.329
   15CHTO   C44 6207   6.299   2.599   0.366
   15CHTO   H86 6208   6.345   2.649   0.452
   15CHTO   O32 6209   6.395   2.509   0.309
   15CHTO   H69 6210   6.360   2.466   0.233
   15CHTO   C48 6211   6.254   2.710   0.262
   15CHTO   H90 6212   6.224   2.659   0.170
   15CHTO    N9 6213   6.368   2.800   0.222
   15CHTO   H77 6214   6.446   2.742   0.176
   15CHTO   H78 6215   6.406   2.852   0.309
   15CHTO   C51 6216   6.130   2.792   0.314
   15CHTO   H93 6217   6.164   2.860   0.393
   15CHTO   O30 6218   6.026   2.705   0.360
   15CHTO   C46 6219   6.067   2.609   0.470
   15CHTO   H88 6220   6.104   2.666   0.555
   15CHTO   C53 6221   5.940   2.529   0.511
   15CHTO   O72 6222   5.843   2.616   0.570
   15CHTO  H199 6223   5.767   2.566   0.594
   15CHTO   O22 6224   6.066   2.865   0.207
   15CHTO   C31 6225   6.014   3.003   0.219
   15CHTO   H59 6226   5.938   3.013   0.139
   15CHTO   C29 6227   5.942   3.033   0.353
   15CHTO   H57 6228   6.009   3.003   0.435
   15CHTO   O21 6229   5.827   2.947   0.362
   15CHTO   H37 6230   5.853   2.857   0.367
   15CHTO   C27 6231   5.907   3.186   0.371
   15CHTO   H55 6232   5.834   3.214   0.293
   15CHTO    N5 6233   5.848   3.216   0.504
   15CHTO   H43 6234   5.759   3.158   0.519
   15CHTO   H44 6235   5.824   3.322   0.510
   15CHTO   C25 6236   6.037   3.269   0.345
   15CHTO   H53 6237   6.115   3.234   0.414
   15CHTO   O17 6238   6.080   3.244   0.209
   15CHTO   C32 6239   6.124   3.109   0.185
   15CHTO   H60 6240   6.213   3.089   0.245
   15CHTO   C36 6241   6.162   3.107   0.035
   15CHTO   O25 6242   6.216   2.981   3.429
   15CHTO   H40 6243   6.149   2.915   3.432
   15CHTO   O15 6244   6.018   3.428   0.365
   15CHTO   C19 6245   6.092   3.553   0.381
   15CHTO   H47 6246   6.104   3.590   0.278
   15CHTO   C20 6247   6.013   3.660   0.464
   15CHTO   H48 6248   5.985   3.622   0.563
   15CHTO   O19 6249   5.892   3.688   0.392
   15CHTO   H35 6250   5.910   3.728   0.309
   15CHTO   C21 6251   6.098   3.793   0.487
   15CHTO   H49 6252   6.112   3.842   0.390
   15CHTO    N4 6253   6.029   3.891   0.575
   15CHTO   H41 6254   5.935   3.921   0.531
   15CHTO   H42 6255   6.010   3.846   0.672
   15CHTO   C22 6256   6.239   3.756   0.540
   15CHTO   H50 6257   6.228   3.712   0.640
   15CHTO   O14 6258   6.302   3.662   0.452
   15CHTO   C23 6259   6.236   3.535   0.438
   15CHTO   H51 6260   6.235   3.488   0.536
   15CHTO   C34 6261   6.323   3.449   0.345
   15CHTO   O23 6262   6.449   3.417   0.406
   15CHTO   H38 6263   6.435   3.357   0.477
   15CHTO   O16 6264   6.329   3.868   0.541
   15CHTO   C24 6265   6.429   3.876   0.672
   15CHTO   H52 6266   6.414   3.792   0.740
   15CHTO   C26 6267   6.402   4.009   0.746
   15CHTO   H54 6268   6.398   4.090   0.671
   15CHTO   O20 6269   6.271   3.999   0.805
   15CHTO   H36 6270   6.246   4.082   0.843
   15CHTO   C30 6271   6.511   4.045   0.851
   15CHTO   H58 6272   6.503   3.977   0.937
   15CHTO    N6 6273   6.491   4.183   0.905
   15CHTO   H45 6274   6.480   4.180   1.012
   15CHTO   H46 6275   6.573   4.248   0.879
   15CHTO   C33 6276   6.654   4.024   0.792
   15CHTO   H61 6277   6.675   4.099   0.714
   15CHTO   O18 6278   6.664   3.893   0.733
   15CHTO   C28 6279   6.576   3.868   0.623
   15CHTO   H56 6280   6.591   3.942   0.544
   15CHTO   C35 6281   6.606   3.727   0.567
   15CHTO   O24 6282   6.739   3.716   0.515
   15CHTO   H39 6283   6.753   3.629   0.483
   15CHTO    O9 6284   6.756   4.044   0.893
   15CHTO   C13 6285   6.905   4.099   0.842
   15CHTO   H26 6286   6.892   4.204   0.807
   15CHTO   C11 6287   6.964   4.006   0.729
   15CHTO   H24 6288   6.907   4.025   0.636
   15CHTO    O8 6289   6.946   3.867   0.763
   15CHTO    H3 6290   6.854   3.847   0.766
   15CHTO    C9 6291   7.113   4.045   0.705
   15CHTO   H22 6292   7.112   4.153   0.687
   15CHTO    N2 6293   7.172   3.987   0.583
   15CHTO   H10 6294   7.271   4.028   0.566
   15CHTO   H11 6295   7.178   3.880   0.591
   15CHTO    C7 6296   7.194   4.017   0.836
   15CHTO   H20 6297   7.299   4.046   0.813
   15CHTO    O4 6298   7.145   4.101   0.943
   15CHTO   C14 6299   7.003   4.111   0.969
   15CHTO   H27 6300   6.989   4.212   1.011
   15CHTO   C18 6301   6.964   4.011   1.081
   15CHTO   O13 6302   7.026   4.045   1.205
   15CHTO    H7 6303   7.001   3.983   1.271
   15CHTO    O2 6304   7.190   3.861   0.884
   15CHTO    C1 6305   7.316   3.801   0.920
   15CHTO   H14 6306   7.381   3.877   0.968
   15CHTO    C2 6307   7.394   3.737   0.797
   15CHTO   H15 6308   7.318   3.680   0.740
   15CHTO    O6 6309   7.445   3.843   0.714
   15CHTO    H1 6310   7.507   3.894   0.761
   15CHTO    C3 6311   7.513   3.639   0.843
   15CHTO   H16 6312   7.595   3.700   0.884
   15CHTO    N1 6313   7.569   3.561   0.728
   15CHTO    H8 6314   7.492   3.500   0.684
   15CHTO    H9 6315   7.610   3.628   0.654
   15CHTO    C4 6316   7.466   3.546   0.961
   15CHTO   H17 6317   7.395   3.473   0.923
   15CHTO    O1 6318   7.407   3.623   1.067
   15CHTO    C5 6319   7.287   3.692   1.028
   15CHTO   H18 6320   7.216   3.620   0.985
   15CHTO   C16 6321   7.225   3.754   1.155
   15CHTO   O11 6322   7.181   3.654   1.247
   15CHTO    H5 6323   7.106   3.610   1.213
   15CHTO    O3 6324   7.579   3.480   1.023
   15CHTO    C6 6325   7.549   3.353   1.091
   15CHTO   H19 6326   7.444   3.345   1.120
   15CHTO    C8 6327   7.583   3.233   0.996
   15CHTO   H21 6328   7.684   3.248   0.957
   15CHTO    O7 6329   7.488   3.236   0.888
   15CHTO    H2 6330   7.509   3.170   0.825
   15CHTO   C12 6331   7.579   3.095   1.075
   15CHTO   H25 6332   7.473   3.078   1.102
   15CHTO    N3 6333   7.621   2.981   0.987
   15CHTO   H12 6334   7.614   2.888   1.042
   15CHTO   H13 6335   7.722   2.996   0.951
   15CHTO   C15 6336   7.664   3.108   1.206
   15CHTO   H28 6337   7.771   3.121   1.185
   15CHTO   O10 6338   7.646   2.990   1.302
   15CHTO    H4 6339   7.680   2.912   1.263
   15CHTO    O5 6340   7.616   3.217   1.285
   15CHTO   C10 6341   7.632   3.345   1.223
   15CHTO   H23 6342   7.738   3.361   1.202
   15CHTO   C17 6343   7.589   3.449   1.328
   15CHTO   O12 6344   7.626   3.582   1.290
   15CHTO    H6 6345   7.600   3.642   1.358
   16CHTO  H203 6346   5.320   3.244   0.782
   16CHTO   O82 6347   5.395   3.193   0.807
   16CHTO  C123 6348   5.501   3.278   0.853
   16CHTO  H227 6349   5.464   3.337   0.939
   16CHTO   O77 6350   5.602   3.184   0.899
   16CHTO  C118 6351   5.717   3.245   0.960
   16CHTO  H222 6352   5.684   3.306   1.045
   16CHTO  C125 6353   5.809   3.129   1.014
   16CHTO   O84 6354   5.855   3.042   0.910
   16CHTO  H205 6355   5.783   2.993   0.876
   16CHTO  C114 6356   5.789   3.334   0.857
   16CHTO  H218 6357   5.822   3.271   0.774
   16CHTO  C116 6358   5.692   3.440   0.796
   16CHTO  H220 6359   5.665   3.514   0.875
   16CHTO   O79 6360   5.761   3.515   0.695
   16CHTO  H201 6361   5.786   3.459   0.623
   16CHTO  C120 6362   5.560   3.372   0.741
   16CHTO  H224 6363   5.590   3.311   0.653
   16CHTO   N21 6364   5.461   3.472   0.693
   16CHTO  H211 6365   5.400   3.430   0.615
   16CHTO  H212 6366   5.399   3.507   0.775
   16CHTO   O75 6367   5.902   3.390   0.925
   16CHTO  C112 6368   6.037   3.397   0.828
   16CHTO  H216 6369   6.011   3.448   0.734
   16CHTO   O73 6370   6.081   3.262   0.805
   16CHTO  C113 6371   6.191   3.252   0.714
   16CHTO  H217 6372   6.165   3.306   0.621
   16CHTO  C124 6373   6.209   3.105   0.676
   16CHTO   O83 6374   6.240   3.020   0.787
   16CHTO  H204 6375   6.250   2.931   0.757
   16CHTO  C109 6376   6.318   3.317   0.778
   16CHTO  H213 6377   6.346   3.255   0.865
   16CHTO  C110 6378   6.287   3.463   0.824
   16CHTO  H214 6379   6.285   3.527   0.736
   16CHTO   O78 6380   6.395   3.510   0.906
   16CHTO  H200 6381   6.473   3.519   0.854
   16CHTO  C111 6382   6.152   3.477   0.901
   16CHTO  H215 6383   6.164   3.433   1.001
   16CHTO   N19 6384   6.109   3.618   0.921
   16CHTO  H207 6385   6.100   3.640   1.027
   16CHTO  H208 6386   6.178   3.687   0.875
   16CHTO   O74 6387   6.430   3.322   0.684
   16CHTO  C115 6388   6.534   3.194   0.687
   16CHTO  H219 6389   6.501   3.116   0.756
   16CHTO   O76 6390   6.542   3.124   0.544
   16CHTO  C122 6391   6.644   3.025   0.524
   16CHTO  H226 6392   6.657   3.016   0.416
   16CHTO  C126 6393   6.594   2.882   0.571
   16CHTO   O85 6394   6.558   2.873   0.710
   16CHTO  H206 6395   6.483   2.928   0.726
   16CHTO  C121 6396   6.785   3.064   0.584
   16CHTO  H225 6397   6.850   2.974   0.584
   16CHTO   O81 6398   6.848   3.162   0.500
   16CHTO  H202 6399   6.866   3.125   0.415
   16CHTO  C119 6400   6.775   3.119   0.728
   16CHTO  H223 6401   6.732   3.039   0.789
   16CHTO  C117 6402   6.677   3.241   0.735
   16CHTO  H221 6403   6.701   3.327   0.671
   16CHTO   N20 6404   6.671   3.297   0.874
   16CHTO  H209 6405   6.571   3.295   0.914
   16CHTO  H210 6406   6.711   3.397   0.876
   16CHTO   O80 6407   6.921   3.136   0.797
   16CHTO  C103 6408   6.971   3.025   0.899
   16CHTO  H190 6409   6.894   3.005   0.974
   16CHTO  C101 6410   7.016   2.889   0.835
   16CHTO  H188 6411   7.084   2.909   0.753
   16CHTO   O68 6412   6.891   2.816   0.778
   16CHTO  H168 6413   6.917   2.739   0.732
   16CHTO   C99 6414   7.091   2.795   0.942
   16CHTO  H186 6415   7.014   2.757   1.012
   16CHTO   N17 6416   7.154   2.674   0.879
   16CHTO  H174 6417   7.258   2.664   0.907
   16CHTO  H175 6418   7.098   2.585   0.904
   16CHTO   C97 6419   7.192   2.874   1.031
   16CHTO  H184 6420   7.285   2.890   0.974
   16CHTO   O64 6421   7.136   2.999   1.078
   16CHTO  C104 6422   7.094   3.088   0.974
   16CHTO  H191 6423   7.174   3.107   0.902
   16CHTO  C108 6424   7.059   3.225   1.035
   16CHTO   O71 6425   7.176   3.292   1.084
   16CHTO  H171 6426   7.209   3.247   1.159
   16CHTO   O62 6427   7.221   2.793   1.147
   16CHTO   C91 6428   7.303   2.841   1.254
   16CHTO  H178 6429   7.378   2.908   1.211
   16CHTO   C92 6430   7.380   2.718   1.313
   16CHTO  H179 6431   7.438   2.669   1.233
   16CHTO   O66 6432   7.479   2.767   1.406
   16CHTO  H166 6433   7.534   2.697   1.435
   16CHTO   C93 6434   7.284   2.618   1.389
   16CHTO  H180 6435   7.344   2.570   1.468
   16CHTO   N16 6436   7.236   2.507   1.304
   16CHTO  H172 6437   7.182   2.546   1.219
   16CHTO  H173 6438   7.319   2.447   1.270
   16CHTO   C94 6439   7.164   2.696   1.456
   16CHTO  H181 6440   7.078   2.703   1.390
   16CHTO   O61 6441   7.202   2.832   1.487
   16CHTO   C95 6442   7.221   2.914   1.370
   16CHTO  H182 6443   7.123   2.943   1.332
   16CHTO  C106 6444   7.291   3.047   1.416
   16CHTO   O69 6445   7.303   3.141   1.309
   16CHTO  H169 6446   7.344   3.219   1.341
   16CHTO   O63 6447   7.124   2.622   1.591
   16CHTO   C96 6448   6.965   2.598   1.612
   16CHTO  H183 6449   6.954   2.537   1.701
   16CHTO   C98 6450   6.891   2.525   1.495
   16CHTO  H185 6451   6.910   2.577   1.400
   16CHTO   O67 6452   6.950   2.395   1.481
   16CHTO  H167 6453   6.935   2.343   1.558
   16CHTO  C102 6454   6.733   2.516   1.521
   16CHTO  H189 6455   6.720   2.449   1.608
   16CHTO   N18 6456   6.655   2.455   1.411
   16CHTO  H176 6457   6.691   2.355   1.392
   16CHTO  H177 6458   6.550   2.451   1.437
   16CHTO  C105 6459   6.680   2.657   1.560
   16CHTO  H192 6460   6.689   2.723   1.474
   16CHTO   O65 6461   6.755   2.715   1.669
   16CHTO  C100 6462   6.894   2.735   1.640
   16CHTO  H187 6463   6.903   2.800   1.551
   16CHTO  C107 6464   6.959   2.809   1.759
   16CHTO   O70 6465   6.902   2.939   1.774
   16CHTO  H170 6466   6.943   2.983   1.846
   16CHTO   O57 6467   6.522   2.642   1.606
   16CHTO   C85 6468   6.428   2.729   1.542
   16CHTO  H157 6469   6.467   2.745   1.438
   16CHTO   C83 6470   6.430   2.869   1.609
   16CHTO  H155 6471   6.533   2.906   1.611
   16CHTO   O56 6472   6.389   2.858   1.747
   16CHTO  H135 6473   6.451   2.806   1.796
   16CHTO   C81 6474   6.344   2.966   1.524
   16CHTO  H153 6475   6.387   2.971   1.425
   16CHTO   N14 6476   6.352   3.107   1.573
   16CHTO  H141 6477   6.299   3.171   1.507
   16CHTO  H142 6478   6.454   3.138   1.578
   16CHTO   C79 6479   6.195   2.912   1.510
   16CHTO  H151 6480   6.148   2.969   1.430
   16CHTO   O52 6481   6.191   2.771   1.468
   16CHTO   C86 6482   6.279   2.680   1.542
   16CHTO  H158 6483   6.237   2.677   1.645
   16CHTO   C90 6484   6.269   2.536   1.488
   16CHTO   O60 6485   6.138   2.482   1.505
   16CHTO  H138 6486   6.135   2.395   1.471
   16CHTO   O50 6487   6.117   2.931   1.629
   16CHTO   C73 6488   5.986   2.928   1.687
   16CHTO  H145 6489   5.962   2.827   1.722
   16CHTO   C74 6490   5.877   2.972   1.583
   16CHTO  H146 6491   5.887   2.905   1.496
   16CHTO   O54 6492   5.747   2.946   1.640
   16CHTO  H133 6493   5.734   2.854   1.650
   16CHTO   C75 6494   5.898   3.123   1.544
   16CHTO  H147 6495   5.999   3.134   1.500
   16CHTO   N13 6496   5.804   3.172   1.441
   16CHTO  H139 6497   5.815   3.115   1.350
   16CHTO  H140 6498   5.702   3.161   1.475
   16CHTO   C76 6499   5.894   3.210   1.677
   16CHTO  H148 6500   5.796   3.197   1.722
   16CHTO   O49 6501   5.997   3.163   1.770
   16CHTO   C77 6502   5.983   3.025   1.810
   16CHTO  H149 6503   5.889   3.011   1.864
   16CHTO   C88 6504   6.095   2.995   1.911
   16CHTO   O58 6505   6.089   2.858   1.958
   16CHTO  H136 6506   6.013   2.846   2.012
   16CHTO   O51 6507   5.929   3.364   1.650
   16CHTO   C78 6508   5.898   3.450   1.776
   16CHTO  H150 6509   5.889   3.386   1.867
   16CHTO   C80 6510   5.765   3.528   1.758
   16CHTO  H152 6511   5.775   3.593   1.668
   16CHTO   O55 6512   5.662   3.431   1.732
   16CHTO  H134 6513   5.582   3.474   1.711
   16CHTO   C84 6514   5.734   3.616   1.885
   16CHTO  H156 6515   5.716   3.549   1.969
   16CHTO   N15 6516   5.609   3.698   1.868
   16CHTO  H143 6517   5.525   3.634   1.850
   16CHTO  H144 6518   5.591   3.755   1.957
   16CHTO   C87 6519   5.855   3.705   1.919
   16CHTO  H159 6520   5.868   3.783   1.844
   16CHTO   O53 6521   5.984   3.617   1.927
   16CHTO   C82 6522   6.012   3.550   1.803
   16CHTO  H154 6523   6.021   3.623   1.721
   16CHTO   C89 6524   6.150   3.481   1.817
   16CHTO   O59 6525   6.200   3.432   1.692
   16CHTO  H137 6526   6.222   3.504   1.636
   16CHTO   O45 6527   5.836   3.778   2.066
   16CHTO   C67 6528   5.948   3.859   2.104
   16CHTO  H124 6529   6.037   3.823   2.053
   16CHTO   C65 6530   5.925   4.010   2.064
   16CHTO  H122 6531   5.819   4.031   2.079
   16CHTO   O44 6532   5.955   4.018   1.923
   16CHTO  H102 6533   5.892   3.970   1.874
   16CHTO   C63 6534   6.001   4.110   2.160
   16CHTO  H120 6535   5.941   4.124   2.250
   16CHTO   N11 6536   6.015   4.252   2.114
   16CHTO  H108 6537   6.081   4.256   2.029
   16CHTO  H109 6538   5.919   4.291   2.086
   16CHTO   C61 6539   6.135   4.042   2.207
   16CHTO  H118 6540   6.187   4.113   2.274
   16CHTO   O40 6541   6.108   3.921   2.285
   16CHTO   C68 6542   5.982   3.850   2.258
   16CHTO  H125 6543   5.901   3.897   2.319
   16CHTO   C72 6544   5.997   3.705   2.308
   16CHTO   O48 6545   5.874   3.632   2.310
   16CHTO  H105 6546   5.816   3.668   2.374
   16CHTO   O38 6547   6.219   4.008   2.094
   16CHTO   C55 6548   6.361   4.001   2.114
   16CHTO  H112 6549   6.386   4.011   2.221
   16CHTO   C56 6550   6.430   4.114   2.027
   16CHTO  H113 6551   6.389   4.105   1.925
   16CHTO   O42 6552   6.390   4.243   2.075
   16CHTO  H100 6553   6.298   4.256   2.062
   16CHTO   C57 6554   6.587   4.097   2.025
   16CHTO  H114 6555   6.622   4.117   2.126
   16CHTO   N10 6556   6.657   4.193   1.934
   16CHTO  H106 6557   6.595   4.217   1.849
   16CHTO  H107 6558   6.751   4.153   1.900
   16CHTO   C58 6559   6.622   3.951   1.987
   16CHTO  H115 6560   6.587   3.930   1.883
   16CHTO   O37 6561   6.558   3.860   2.078
   16CHTO   C59 6562   6.415   3.861   2.069
   16CHTO  H116 6563   6.384   3.839   1.967
   16CHTO   C70 6564   6.361   3.748   2.158
   16CHTO   O46 6565   6.393   3.763   2.297
   16CHTO  H103 6566   6.485   3.756   2.309
   16CHTO   O39 6567   6.781   3.918   2.000
   16CHTO   C60 6568   6.831   3.835   1.893
   16CHTO  H117 6569   6.748   3.780   1.848
   16CHTO   C62 6570   6.897   3.922   1.782
   16CHTO  H119 6571   6.816   3.989   1.743
   16CHTO   O43 6572   7.000   4.003   1.840
   16CHTO  H101 6573   7.036   4.061   1.776
   16CHTO   C66 6574   6.948   3.827   1.663
   16CHTO  H123 6575   6.864   3.768   1.627
   16CHTO   N12 6576   6.997   3.905   1.546
   16CHTO  H110 6577   7.030   3.837   1.468
   16CHTO  H111 6578   6.919   3.970   1.510
   16CHTO   C69 6579   7.054   3.729   1.718
   16CHTO  H126 6580   7.142   3.785   1.758
   16CHTO   O41 6581   6.989   3.645   1.833
   16CHTO   C64 6582   6.931   3.730   1.947
   16CHTO  H121 6583   7.014   3.783   1.999
   16CHTO   C71 6584   6.865   3.635   2.051
   16CHTO   O47 6585   6.758   3.557   1.994
   16CHTO  H104 6586   6.794   3.495   1.933
   16CHTO   O34 6587   7.107   3.628   1.604
   16CHTO   C49 6588   7.218   3.518   1.605
   16CHTO   H91 6589   7.300   3.555   1.543
   16CHTO   C47 6590   7.159   3.389   1.542
   16CHTO   H89 6591   7.242   3.316   1.536
   16CHTO   O33 6592   7.114   3.420   1.409
   16CHTO   H70 6593   7.085   3.342   1.366
   16CHTO   C45 6594   7.042   3.334   1.639
   16CHTO   H87 6595   6.969   3.415   1.653
   16CHTO    N8 6596   6.971   3.217   1.581
   16CHTO   H75 6597   6.889   3.189   1.645
   16CHTO   H76 6598   6.933   3.242   1.483
   16CHTO   C43 6599   7.103   3.306   1.785
   16CHTO   H85 6600   7.016   3.284   1.848
   16CHTO   O29 6601   7.176   3.420   1.834
   16CHTO   C50 6602   7.270   3.487   1.747
   16CHTO   H92 6603   7.295   3.583   1.794
   16CHTO   C54 6604   7.408   3.414   1.742
   16CHTO   O36 6605   7.467   3.402   1.872
   16CHTO   H72 6606   7.491   3.487   1.903
   16CHTO   O27 6607   7.187   3.189   1.791
   16CHTO   C37 6608   7.242   3.114   1.902
   16CHTO   H79 6609   7.318   3.174   1.953
   16CHTO   C38 6610   7.132   3.081   2.008
   16CHTO   H80 6611   7.042   3.047   1.955
   16CHTO   O31 6612   7.098   3.203   2.077
   16CHTO   H68 6613   7.172   3.236   2.124
   16CHTO   C39 6614   7.175   2.969   2.111
   16CHTO   H81 6615   7.250   3.014   2.177
   16CHTO    N7 6616   7.062   2.923   2.200
   16CHTO   H73 6617   7.041   2.818   2.186
   16CHTO   H74 6618   6.973   2.982   2.183
   16CHTO   C40 6619   7.244   2.849   2.037
   16CHTO   H82 6620   7.169   2.795   1.979
   16CHTO   O26 6621   7.351   2.897   1.955
   16CHTO   C41 6622   7.309   2.985   1.847
   16CHTO   H83 6623   7.238   2.932   1.782
   16CHTO   C52 6624   7.435   3.016   1.762
   16CHTO   O35 6625   7.546   3.078   1.841
   16CHTO   H71 6626   7.619   3.094   1.785
   16CHTO   O28 6627   7.313   2.759   2.125
   16CHTO   C42 6628   7.321   2.615   2.098
   16CHTO   H84 6629   7.416   2.586   2.144
   16CHTO   C44 6630   7.332   2.572   1.947
   16CHTO   H86 6631   7.249   2.616   1.892
   16CHTO   O32 6632   7.455   2.628   1.896
   16CHTO   H69 6633   7.448   2.721   1.891
   16CHTO   C48 6634   7.326   2.416   1.925
   16CHTO   H90 6635   7.416   2.372   1.967
   16CHTO    N9 6636   7.326   2.378   1.779
   16CHTO   H77 6637   7.417   2.413   1.732
   16CHTO   H78 6638   7.240   2.421   1.730
   16CHTO   C51 6639   7.202   2.358   2.002
   16CHTO   H93 6640   7.111   2.404   1.962
   16CHTO   O30 6641   7.219   2.388   2.141
   16CHTO   C46 6642   7.209   2.536   2.173
   16CHTO   H88 6643   7.111   2.572   2.143
   16CHTO   C53 6644   7.225   2.545   2.327
   16CHTO   O72 6645   7.204   2.677   2.378
   16CHTO  H199 6646   7.114   2.702   2.367
   16CHTO   O22 6647   7.193   2.214   1.995
   16CHTO   C31 6648   7.069   2.139   2.022
   16CHTO   H59 6649   7.094   2.032   2.006
   16CHTO   C29 6650   7.015   2.152   2.166
   16CHTO   H57 6651   6.988   2.258   2.183
   16CHTO   O21 6652   7.122   2.120   2.257
   16CHTO   H37 6653   7.096   2.138   2.345
   16CHTO   C27 6654   6.886   2.062   2.189
   16CHTO   H55 6655   6.916   1.957   2.179
   16CHTO    N5 6656   6.826   2.082   2.324
   16CHTO   H43 6657   6.899   2.062   2.400
   16CHTO   H44 6658   6.742   2.015   2.336
   16CHTO   C25 6659   6.781   2.090   2.075
   16CHTO   H53 6660   6.738   2.190   2.088
   16CHTO   O17 6661   6.842   2.082   1.943
   16CHTO   C32 6662   6.954   2.170   1.921
   16CHTO   H60 6663   6.922   2.274   1.934
   16CHTO   C36 6664   7.000   2.150   1.774
   16CHTO   O25 6665   6.896   2.183   1.681
   16CHTO   H40 6666   6.828   2.118   1.686
   16CHTO   O15 6667   6.670   1.984   2.076
   16CHTO   C19 6668   6.544   1.935   2.129
   16CHTO   H47 6669   6.555   1.945   2.238
   16CHTO   C20 6670   6.420   2.019   2.085
   16CHTO   H48 6671   6.411   2.023   1.975
   16CHTO   O19 6672   6.442   2.153   2.132
   16CHTO   H35 6673   6.443   2.156   2.226
   16CHTO   C21 6674   6.285   1.960   2.143
   16CHTO   H49 6675   6.287   1.970   2.251
   16CHTO    N4 6676   6.164   2.031   2.095
   16CHTO   H41 6677   6.190   2.112   2.028
   16CHTO   H42 6678   6.109   2.071   2.178
   16CHTO   C22 6679   6.279   1.807   2.113
   16CHTO   H50 6680   6.269   1.792   2.005
   16CHTO   O14 6681   6.398   1.742   2.160
   16CHTO   C23 6682   6.521   1.785   2.100
   16CHTO   H51 6683   6.515   1.764   1.992
   16CHTO   C34 6684   6.635   1.700   2.159
   16CHTO   O23 6685   6.620   1.562   2.126
   16CHTO   H38 6686   6.690   1.513   2.164
   16CHTO   O16 6687   6.175   1.741   2.186
   16CHTO   C24 6688   6.082   1.639   2.100
   16CHTO   H52 6689   6.123   1.621   2.001
   16CHTO   C26 6690   5.943   1.705   2.086
   16CHTO   H54 6691   5.917   1.755   2.183
   16CHTO   O20 6692   5.952   1.808   1.986
   16CHTO   H36 6693   5.971   1.771   1.902
   16CHTO   C30 6694   5.829   1.603   2.053
   16CHTO   H58 6695   5.843   1.563   1.951
   16CHTO    N6 6696   5.694   1.666   2.055
   16CHTO   H45 6697   5.690   1.746   1.982
   16CHTO   H46 6698   5.619   1.593   2.032
   16CHTO   C33 6699   5.841   1.482   2.151
   16CHTO   H61 6700   5.836   1.517   2.255
   16CHTO   O18 6701   5.969   1.423   2.127
   16CHTO   C28 6702   6.079   1.502   2.174
   16CHTO   H56 6703   6.071   1.519   2.281
   16CHTO   C35 6704   6.206   1.418   2.145
   16CHTO   O24 6705   6.326   1.472   2.203
   16CHTO   H39 6706   6.321   1.467   2.296
   16CHTO    O9 6707   5.734   1.386   2.137
   16CHTO   C13 6708   5.751   1.251   2.223
   16CHTO   H26 6709   5.854   1.247   2.265
   16CHTO   C11 6710   5.725   1.130   2.123
   16CHTO   H24 6711   5.808   1.127   2.051
   16CHTO    O8 6712   5.604   1.153   2.049
   16CHTO    H3 6713   5.530   1.156   2.107
   16CHTO    C9 6714   5.725   0.997   2.205
   16CHTO   H22 6715   5.824   0.992   2.253
   16CHTO    N2 6716   5.721   0.877   2.118
   16CHTO   H10 6717   5.625   0.871   2.068
   16CHTO   H11 6718   5.738   0.788   2.178
   16CHTO    C7 6719   5.615   1.004   2.320
   16CHTO   H20 6720   5.673   0.979   2.412
   16CHTO    O4 6721   5.557   1.135   2.334
   16CHTO   C14 6722   5.652   1.242   2.349
   16CHTO   H27 6723   5.713   1.222   2.440
   16CHTO   C18 6724   5.570   1.370   2.377
   16CHTO   O13 6725   5.653   1.477   2.423
   16CHTO    H7 6726   5.600   1.552   2.441
   16CHTO    O2 6727   5.491   0.894   2.304
   16CHTO    C1 6728   5.430   0.846   2.425
   16CHTO   H14 6729   5.339   0.788   2.397
   16CHTO    C2 6730   5.387   0.958   2.529
   16CHTO   H15 6731   5.477   1.016   2.553
   16CHTO    O6 6732   5.291   1.043   2.464
   16CHTO    H1 6733   5.270   1.116   2.519
   16CHTO    C3 6734   5.327   0.892   2.662
   16CHTO   H16 6735   5.231   0.844   2.638
   16CHTO    N1 6736   5.299   0.995   2.767
   16CHTO    H8 6737   5.258   0.948   2.856
   16CHTO    H9 6738   5.229   1.068   2.730
   16CHTO    C4 6739   5.420   0.775   2.714
   16CHTO   H17 6740   5.510   0.819   2.759
   16CHTO    O1 6741   5.456   0.685   2.608
   16CHTO    C5 6742   5.524   0.744   2.497
   16CHTO   H18 6743   5.612   0.798   2.532
   16CHTO   C16 6744   5.570   0.631   2.402
   16CHTO   O11 6745   5.667   0.547   2.465
   16CHTO    H5 6746   5.695   0.480   2.405
   16CHTO    O3 6747   5.350   0.690   2.807
   16CHTO    C6 6748   5.416   0.661   2.935
   16CHTO   H19 6749   5.505   0.721   2.952
   16CHTO    C8 6750   5.316   0.688   3.052
   16CHTO   H21 6751   5.224   0.632   3.032
   16CHTO    O7 6752   5.289   0.829   3.052
   16CHTO    H2 6753   5.222   0.849   3.115
   16CHTO   C12 6754   5.376   0.640   3.191
   16CHTO   H25 6755   5.462   0.707   3.213
   16CHTO    N3 6756   5.277   0.656   3.302
   16CHTO   H12 6757   5.249   0.760   3.311
   16CHTO   H13 6758   5.320   0.621   3.395
   16CHTO   C15 6759   5.430   0.493   3.177
   16CHTO   H28 6760   5.349   0.421   3.167
   16CHTO   O10 6761   5.518   0.453   3.294
   16CHTO    H4 6762   5.537   0.362   3.291
   16CHTO    O5 6763   5.521   0.482   3.067
   16CHTO   C10 6764   5.461   0.512   2.940
   16CHTO   H23 6765   5.375   0.447   2.926
   16CHTO   C17 6766   5.562   0.474   2.830
   16CHTO   O12 6767   5.683   0.550   2.838
   16CHTO    H6 6768   5.742   0.524   2.770
   17CHTO  H203 6769   5.786   4.011   0.225
   17CHTO   O82 6770   5.838   4.011   0.303
   17CHTO  C123 6771   5.831   4.139   0.369
   17CHTO  H227 6772   5.889   4.134   0.463
   17CHTO   O77 6773   5.897   4.229   0.276
   17CHTO  C118 6774   5.918   4.362   0.326
   17CHTO  H222 6775   5.975   4.357   0.420
   17CHTO  C125 6776   6.004   4.439   0.219
   17CHTO   O84 6777   5.934   4.456   0.094
   17CHTO  H205 6778   5.921   4.373   0.053
   17CHTO  C114 6779   5.782   4.430   0.355
   17CHTO  H218 6780   5.731   4.447   0.260
   17CHTO  C116 6781   5.691   4.341   0.444
   17CHTO  H220 6782   5.728   4.345   0.549
   17CHTO   O79 6783   5.559   4.400   0.444
   17CHTO  H201 6784   5.560   4.481   0.490
   17CHTO  C120 6785   5.685   4.190   0.395
   17CHTO  H224 6786   5.628   4.190   0.300
   17CHTO   N21 6787   5.610   4.103   0.490
   17CHTO  H211 6788   5.531   4.159   0.538
   17CHTO  H212 6789   5.677   4.062   0.564
   17CHTO   O75 6790   5.813   4.556   0.419
   17CHTO  C112 6791   5.812   4.689   0.323
   17CHTO  H216 6792   5.773   4.662   0.223
   17CHTO   O73 6793   5.947   4.737   0.316
   17CHTO  C113 6794   5.965   4.847   0.227
   17CHTO  H217 6795   5.924   4.821   0.127
   17CHTO  C124 6796   6.115   4.876   0.210
   17CHTO   O83 6797   6.185   4.766   0.150
   17CHTO  H204 6798   6.276   4.787   0.143
   17CHTO  C109 6799   5.889   4.970   0.283
   17CHTO  H213 6800   5.934   4.993   0.381
   17CHTO  C110 6801   5.737   4.934   0.301
   17CHTO  H214 6802   5.693   4.921   0.201
   17CHTO   O78 6803   5.669   5.044   0.363
   17CHTO  H200 6804   5.671   5.119   0.307
   17CHTO  C111 6805   5.721   4.803   0.384
   17CHTO  H215 6806   5.755   4.822   0.486
   17CHTO   N19 6807   5.580   4.756   0.394
   17CHTO  H207 6808   5.520   4.831   0.445
   17CHTO  H208 6809   5.539   4.739   0.296
   17CHTO   O74 6810   5.907   5.084   0.194
   17CHTO  C115 6811   5.914   5.222   0.270
   17CHTO  H219 6812   5.854   5.220   0.362
   17CHTO   O76 6813   6.062   5.254   0.319
   17CHTO  C122 6814   6.150   5.288   0.212
   17CHTO  H226 6815   6.159   5.200   0.148
   17CHTO  C126 6816   6.293   5.310   0.273
   17CHTO   O85 6817   6.393   5.337   0.174
   17CHTO  H206 6818   6.475   5.352   0.215
   17CHTO  C121 6819   6.099   5.414   0.130
   17CHTO  H225 6820   6.167   5.500   0.151
   17CHTO   O81 6821   6.109   5.384   3.427
   17CHTO  H202 6822   6.096   5.461   3.376
   17CHTO  C119 6823   5.953   5.455   0.167
   17CHTO  H223 6824   5.959   5.494   0.269
   17CHTO  C117 6825   5.857   5.331   0.170
   17CHTO  H221 6826   5.847   5.279   0.075
   17CHTO   N20 6827   5.718   5.370   0.208
   17CHTO  H209 6828   5.717   5.413   0.307
   17CHTO  H210 6829   5.678   5.440   0.136
   17CHTO   O80 6830   5.901   5.583   0.087
   17CHTO  C103 6831   5.976   5.713   0.097
   17CHTO  H190 6832   6.060   5.704   0.167
   17CHTO  C101 6833   6.029   5.770   3.398
   17CHTO  H188 6834   5.945   5.780   3.329
   17CHTO   O68 6835   6.133   5.671   3.337
   17CHTO  H168 6836   6.208   5.664   3.392
   17CHTO   C99 6837   6.093   5.915   3.420
   17CHTO  H186 6838   6.184   5.905   0.046
   17CHTO   N17 6839   6.135   5.982   3.293
   17CHTO  H174 6840   6.201   5.917   3.238
   17CHTO  H175 6841   6.183   6.076   3.314
   17CHTO   C97 6842   5.996   6.007   0.065
   17CHTO  H184 6843   5.914   6.038   3.436
   17CHTO   O64 6844   5.948   5.940   0.184
   17CHTO  C104 6845   5.877   5.818   0.159
   17CHTO  H191 6846   5.794   5.835   0.089
   17CHTO  C108 6847   5.813   5.769   0.289
   17CHTO   O71 6848   5.709   5.858   0.334
   17CHTO  H171 6849   5.746   5.939   0.362
   17CHTO   O62 6850   6.067   6.123   0.113
   17CHTO   C91 6851   5.989   6.231   0.167
   17CHTO  H178 6852   5.888   6.223   0.128
   17CHTO   C92 6853   6.047   6.365   0.113
   17CHTO  H179 6854   6.049   6.362   0.002
   17CHTO   O66 6855   5.956   6.471   0.145
   17CHTO  H166 6856   5.875   6.460   0.099
   17CHTO   C93 6857   6.189   6.400   0.174
   17CHTO  H180 6858   6.196   6.510   0.179
   17CHTO   N16 6859   6.302   6.357   0.088
   17CHTO  H172 6860   6.294   6.405   3.428
   17CHTO  H173 6861   6.395   6.383   0.135
   17CHTO   C94 6862   6.203   6.341   0.320
   17CHTO  H181 6863   6.242   6.239   0.319
   17CHTO   O61 6864   6.075   6.330   0.385
   17CHTO   C95 6865   5.987   6.232   0.327
   17CHTO  H182 6866   6.015   6.134   0.364
   17CHTO  C106 6867   5.842   6.260   0.382
   17CHTO   O69 6868   5.751   6.158   0.342
   17CHTO  H169 6869   5.665   6.177   0.376
   17CHTO   O63 6870   6.306   6.434   0.404
   17CHTO   C96 6871   6.250   6.549   0.501
   17CHTO  H183 6872   6.191   6.501   0.579
   17CHTO   C98 6873   6.163   6.661   0.435
   17CHTO  H185 6874   6.211   6.694   0.341
   17CHTO   O67 6875   6.037   6.604   0.395
   17CHTO  H167 6876   6.049   6.540   0.329
   17CHTO  C102 6877   6.137   6.787   0.531
   17CHTO  H189 6878   6.066   6.752   0.608
   17CHTO   N18 6879   6.071   6.903   0.466
   17CHTO  H176 6880   6.130   6.937   0.382
   17CHTO  H177 6881   5.973   6.874   0.431
   17CHTO  C105 6882   6.268   6.829   0.603
   17CHTO  H192 6883   6.335   6.876   0.532
   17CHTO   O65 6884   6.335   6.717   0.663
   17CHTO  C100 6885   6.375   6.617   0.569
   17CHTO  H187 6886   6.436   6.664   0.490
   17CHTO  C107 6887   6.467   6.515   0.642
   17CHTO   O70 6888   6.404   6.458   0.758
   17CHTO  H170 6889   6.334   6.402   0.731
   17CHTO   O57 6890   6.227   6.934   0.720
   17CHTO   C85 6891   6.327   7.019   0.777
   17CHTO  H157 6892   6.391   7.054   0.693
   17CHTO   C83 6893   6.422   6.936   0.871
   17CHTO  H155 6894   6.477   6.864   0.809
   17CHTO   O56 6895   6.343   6.859   0.964
   17CHTO  H135 6896   6.291   6.797   0.918
   17CHTO   C81 6897   6.525   7.031   0.938
   17CHTO  H153 6898   6.579   7.084   0.859
   17CHTO   N14 6899   6.631   6.961   1.015
   17CHTO  H141 6900   6.726   6.972   0.968
   17CHTO  H142 6901   6.609   6.856   1.024
   17CHTO   C79 6902   6.448   7.139   1.024
   17CHTO  H151 6903   6.524   7.206   1.065
   17CHTO   O52 6904   6.362   7.219   0.936
   17CHTO   C86 6905   6.266   7.140   0.858
   17CHTO  H158 6906   6.193   7.104   0.934
   17CHTO   C90 6907   6.187   7.233   0.763
   17CHTO   O60 6908   6.110   7.330   0.835
   17CHTO  H138 6909   6.039   7.287   0.879
   17CHTO   O50 6910   6.371   7.085   1.132
   17CHTO   C73 6911   6.338   7.116   1.269
   17CHTO  H145 6912   6.349   7.224   1.287
   17CHTO   C74 6913   6.432   7.039   1.366
   17CHTO  H146 6914   6.535   7.069   1.342
   17CHTO   O54 6915   6.405   7.084   1.500
   17CHTO  H133 6916   6.464   7.042   1.560
   17CHTO   C75 6917   6.410   6.884   1.344
   17CHTO  H147 6918   6.438   6.858   1.241
   17CHTO   N13 6919   6.495   6.798   1.431
   17CHTO  H139 6920   6.599   6.819   1.411
   17CHTO  H140 6921   6.476   6.694   1.409
   17CHTO   C76 6922   6.254   6.848   1.360
   17CHTO  H148 6923   6.226   6.861   1.465
   17CHTO   O49 6924   6.170   6.935   1.276
   17CHTO   C77 6925   6.190   7.076   1.297
   17CHTO  H149 6926   6.165   7.102   1.400
   17CHTO   C88 6927   6.092   7.155   1.209
   17CHTO   O58 6928   5.955   7.129   1.246
   17CHTO  H136 6929   5.897   7.177   1.190
   17CHTO   O51 6930   6.225   6.702   1.304
   17CHTO   C78 6931   6.095   6.639   1.364
   17CHTO  H150 6932   6.029   6.718   1.407
   17CHTO   C80 6933   6.132   6.539   1.475
   17CHTO  H152 6934   6.205   6.465   1.434
   17CHTO   O55 6935   6.196   6.613   1.580
   17CHTO  H134 6936   6.228   6.555   1.647
   17CHTO   C84 6937   6.004   6.461   1.527
   17CHTO  H156 6938   5.937   6.535   1.572
   17CHTO   N15 6939   6.036   6.361   1.634
   17CHTO  H143 6940   6.103   6.287   1.595
   17CHTO  H144 6941   5.946   6.313   1.667
   17CHTO   C87 6942   5.931   6.398   1.405
   17CHTO  H159 6943   5.996   6.324   1.359
   17CHTO   O53 6944   5.898   6.510   1.305
   17CHTO   C82 6945   6.017   6.570   1.251
   17CHTO  H154 6946   6.078   6.495   1.202
   17CHTO   C89 6947   5.977   6.674   1.143
   17CHTO   O59 6948   5.909   6.611   1.033
   17CHTO  H137 6949   5.887   6.676   0.969
   17CHTO   O45 6950   5.789   6.329   1.447
   17CHTO   C67 6951   5.792   6.185   1.442
   17CHTO  H124 6952   5.893   6.148   1.462
   17CHTO   C65 6953   5.695   6.127   1.549
   17CHTO  H122 6954   5.716   6.182   1.641
   17CHTO   O44 6955   5.724   5.988   1.571
   17CHTO  H102 6956   5.674   5.955   1.644
   17CHTO   C63 6957   5.547   6.162   1.509
   17CHTO  H120 6958   5.540   6.269   1.493
   17CHTO   N11 6959   5.444   6.139   1.616
   17CHTO  H108 6960   5.408   6.232   1.655
   17CHTO  H109 6961   5.484   6.079   1.696
   17CHTO   C61 6962   5.514   6.094   1.371
   17CHTO  H118 6963   5.416   6.135   1.341
   17CHTO   O40 6964   5.609   6.134   1.268
   17CHTO   C68 6965   5.754   6.135   1.297
   17CHTO  H125 6966   5.799   6.207   1.226
   17CHTO   C72 6967   5.816   5.996   1.265
   17CHTO   O48 6968   5.822   5.970   1.124
   17CHTO  H105 6969   5.860   5.886   1.109
   17CHTO   O38 6970   5.508   5.950   1.376
   17CHTO   C55 6971   5.412   5.877   1.295
   17CHTO  H112 6972   5.441   5.771   1.306
   17CHTO   C56 6973   5.411   5.922   1.142
   17CHTO  H113 6974   5.394   6.030   1.138
   17CHTO   O42 6975   5.541   5.898   1.085
   17CHTO  H100 6976   5.605   5.953   1.126
   17CHTO   C57 6977   5.299   5.846   1.060
   17CHTO  H114 6978   5.329   5.741   1.053
   17CHTO   N10 6979   5.285   5.896   0.920
   17CHTO  H106 6980   5.249   5.817   0.856
   17CHTO  H107 6981   5.216   5.980   0.916
   17CHTO   C58 6982   5.164   5.854   1.136
   17CHTO  H115 6983   5.129   5.960   1.137
   17CHTO   O37 6984   5.179   5.808   1.271
   17CHTO   C59 6985   5.268   5.886   1.352
   17CHTO  H116 6986   5.233   5.989   1.356
   17CHTO   C70 6987   5.262   5.828   1.495
   17CHTO   O46 6988   5.133   5.841   1.555
   17CHTO  H103 6989   5.071   5.785   1.511
   17CHTO   O39 6990   5.053   5.755   1.068
   17CHTO   C60 6991   4.923   5.815   1.054
   17CHTO  H117 6992   4.919   5.912   1.104
   17CHTO   C62 6993   4.889   5.837   0.903
   17CHTO  H119 6994   4.970   5.902   0.863
   17CHTO   O43 6995   4.894   5.710   0.834
   17CHTO  H101 6996   4.827   5.653   0.867
   17CHTO   C66 6997   4.748   5.911   0.890
   17CHTO  H123 6998   4.752   6.004   0.946
   17CHTO   N12 6999   4.717   5.950   0.750
   17CHTO  H110 7000   4.712   5.862   0.687
   17CHTO  H111 7001   4.624   6.005   0.747
   17CHTO   C69 7002   4.637   5.825   0.956
   17CHTO  H126 7003   4.623   5.731   0.899
   17CHTO   O41 7004   4.676   5.791   1.104
   17CHTO   C64 7005   4.814   5.726   1.119
   17CHTO  H121 7006   4.813   5.626   1.070
   17CHTO   C71 7007   4.843   5.705   1.269
   17CHTO   O47 7008   4.742   5.624   1.330
   17CHTO  H104 7009   4.661   5.672   1.335
   17CHTO   O34 7010   4.505   5.901   0.959
   17CHTO   C49 7011   4.361   5.878   0.972
   17CHTO   H91 7012   4.325   5.846   0.874
   17CHTO   C47 7013   4.296   6.012   1.013
   17CHTO   H89 7014   4.187   5.992   1.014
   17CHTO   O33 7015   4.322   6.112   0.912
   17CHTO   H70 7016   4.414   6.129   0.906
   17CHTO   C45 7017   4.348   6.059   1.159
   17CHTO   H87 7018   4.447   6.105   1.147
   17CHTO    N8 7019   4.255   6.162   1.212
   17CHTO   H75 7020   4.158   6.118   1.230
   17CHTO   H76 7021   4.294   6.204   1.303
   17CHTO   C43 7022   4.373   5.930   1.254
   17CHTO   H85 7023   4.479   5.907   1.243
   17CHTO   O29 7024   4.290   5.821   1.210
   17CHTO   C50 7025   4.324   5.771   1.080
   17CHTO   H92 7026   4.410   5.702   1.090
   17CHTO   C54 7027   4.210   5.679   1.030
   17CHTO   O36 7028   4.194   5.564   1.114
   17CHTO   H72 7029   4.268   5.507   1.105
   17CHTO   O27 7030   4.356   5.954   1.396
   17CHTO   C37 7031   4.361   5.869   1.512
   17CHTO   H79 7032   4.358   5.932   1.603
   17CHTO   C38 7033   4.234   5.777   1.520
   17CHTO   H80 7034   4.204   5.751   1.417
   17CHTO   O31 7035   4.127   5.855   1.577
   17CHTO   H68 7036   4.101   5.923   1.518
   17CHTO   C39 7037   4.255   5.643   1.600
   17CHTO   H81 7038   4.259   5.667   1.706
   17CHTO    N7 7039   4.140   5.546   1.582
   17CHTO   H73 7040   4.049   5.591   1.617
   17CHTO   H74 7041   4.130   5.520   1.477
   17CHTO   C40 7042   4.393   5.580   1.559
   17CHTO   H82 7043   4.391   5.565   1.451
   17CHTO   O26 7044   4.494   5.674   1.599
   17CHTO   C41 7045   4.496   5.791   1.511
   17CHTO   H83 7046   4.520   5.758   1.409
   17CHTO   C52 7047   4.609   5.886   1.558
   17CHTO   O35 7048   4.739   5.823   1.559
   17CHTO   H71 7049   4.803   5.885   1.587
   17CHTO   O28 7050   4.422   5.453   1.622
   17CHTO   C42 7051   4.526   5.362   1.571
   17CHTO   H84 7052   4.506   5.269   1.624
   17CHTO   C44 7053   4.673   5.402   1.607
   17CHTO   H86 7054   4.693   5.502   1.568
   17CHTO   O32 7055   4.681   5.406   1.751
   17CHTO   H69 7056   4.631   5.478   1.784
   17CHTO   C48 7057   4.781   5.302   1.545
   17CHTO   H90 7058   4.769   5.205   1.593
   17CHTO    N9 7059   4.922   5.346   1.575
   17CHTO   H77 7060   4.991   5.276   1.531
   17CHTO   H78 7061   4.937   5.352   1.681
   17CHTO   C51 7062   4.753   5.286   1.391
   17CHTO   H93 7063   4.764   5.383   1.344
   17CHTO   O30 7064   4.621   5.233   1.375
   17CHTO   C46 7065   4.514   5.331   1.417
   17CHTO   H88 7066   4.529   5.423   1.361
   17CHTO   C53 7067   4.377   5.270   1.380
   17CHTO   O72 7068   4.355   5.142   1.441
   17CHTO  H199 7069   4.344   5.152   1.534
   17CHTO   O22 7070   4.840   5.190   1.328
   17CHTO   C31 7071   4.862   5.185   1.182
   17CHTO   H59 7072   4.933   5.102   1.165
   17CHTO   C29 7073   4.736   5.154   1.098
   17CHTO   H57 7074   4.665   5.237   1.111
   17CHTO   O21 7075   4.673   5.036   1.152
   17CHTO   H37 7076   4.728   4.961   1.140
   17CHTO   C27 7077   4.771   5.139   0.944
   17CHTO   H55 7078   4.836   5.052   0.931
   17CHTO    N5 7079   4.650   5.119   0.859
   17CHTO   H43 7080   4.679   5.102   0.757
   17CHTO   H44 7081   4.586   5.206   0.866
   17CHTO   C25 7082   4.853   5.264   0.896
   17CHTO   H53 7083   4.788   5.353   0.896
   17CHTO   O17 7084   4.966   5.291   0.985
   17CHTO   C32 7085   4.931   5.312   1.123
   17CHTO   H60 7086   4.863   5.397   1.131
   17CHTO   C36 7087   5.062   5.346   1.199
   17CHTO   O25 7088   5.120   5.469   1.153
   17CHTO   H40 7089   5.066   5.541   1.177
   17CHTO   O15 7090   4.912   5.240   0.748
   17CHTO   C19 7091   4.958   5.333   0.645
   17CHTO   H47 7092   4.984   5.266   0.561
   17CHTO   C20 7093   4.848   5.433   0.598
   17CHTO   H48 7094   4.808   5.492   0.682
   17CHTO   O19 7095   4.741   5.352   0.546
   17CHTO   H35 7096   4.668   5.406   0.523
   17CHTO   C21 7097   4.904   5.533   0.489
   17CHTO   H49 7098   4.932   5.475   0.401
   17CHTO    N4 7099   4.802   5.632   0.444
   17CHTO   H41 7100   4.771   5.693   0.527
   17CHTO   H42 7101   4.844   5.696   0.367
   17CHTO   C22 7102   5.033   5.598   0.544
   17CHTO   H50 7103   5.006   5.655   0.633
   17CHTO   O14 7104   5.129   5.498   0.579
   17CHTO   C23 7105   5.090   5.407   0.683
   17CHTO   H51 7106   5.079   5.466   0.776
   17CHTO   C34 7107   5.209   5.311   0.699
   17CHTO   O23 7108   5.192   5.219   0.806
   17CHTO   H38 7109   5.266   5.162   0.812
   17CHTO   O16 7110   5.102   5.682   0.449
   17CHTO   C24 7111   5.163   5.817   0.522
   17CHTO   H52 7112   5.153   5.813   0.631
   17CHTO   C26 7113   5.090   5.941   0.470
   17CHTO   H54 7114   5.108   5.950   0.360
   17CHTO   O20 7115   4.949   5.926   0.492
   17CHTO   H36 7116   4.914   5.858   0.437
   17CHTO   C30 7117   5.145   6.070   0.539
   17CHTO   H58 7118   5.113   6.070   0.644
   17CHTO    N6 7119   5.086   6.193   0.479
   17CHTO   H45 7120   4.979   6.192   0.489
   17CHTO   H46 7121   5.125   6.281   0.530
   17CHTO   C33 7122   5.301   6.075   0.541
   17CHTO   H61 7123   5.339   6.110   0.444
   17CHTO   O18 7124   5.361   5.947   0.569
   17CHTO   C28 7125   5.314   5.834   0.492
   17CHTO   H56 7126   5.328   5.853   0.386
   17CHTO   C35 7127   5.396   5.709   0.530
   17CHTO   O24 7128   5.386   5.673   0.668
   17CHTO   H39 7129   5.437   5.596   0.685
   17CHTO    O9 7130   5.343   6.174   0.638
   17CHTO   C13 7131   5.482   6.244   0.614
   17CHTO   H26 7132   5.542   6.182   0.543
   17CHTO   C11 7133   5.556   6.261   0.753
   17CHTO   H24 7134   5.579   6.161   0.791
   17CHTO    O8 7135   5.469   6.323   0.851
   17CHTO    H3 7136   5.394   6.270   0.866
   17CHTO    C9 7137   5.688   6.338   0.728
   17CHTO   H22 7138   5.742   6.279   0.652
   17CHTO    N2 7139   5.779   6.340   0.845
   17CHTO   H10 7140   5.873   6.387   0.818
   17CHTO   H11 7141   5.797   6.239   0.880
   17CHTO    C7 7142   5.656   6.480   0.670
   17CHTO   H20 7143   5.755   6.523   0.645
   17CHTO    O4 7144   5.577   6.472   0.549
   17CHTO   C14 7145   5.462   6.385   0.542
   17CHTO   H27 7146   5.445   6.365   0.435
   17CHTO   C18 7147   5.336   6.460   0.594
   17CHTO   O13 7148   5.299   6.567   0.506
   17CHTO    H7 7149   5.364   6.635   0.509
   17CHTO    O2 7150   5.580   6.576   0.780
   17CHTO    C1 7151   5.556   6.715   0.748
   17CHTO   H14 7152   5.478   6.720   0.669
   17CHTO    C2 7153   5.683   6.797   0.700
   17CHTO   H15 7154   5.765   6.769   0.768
   17CHTO    O6 7155   5.717   6.757   0.565
   17CHTO    H1 7156   5.797   6.798   0.539
   17CHTO    C3 7157   5.658   6.956   0.706
   17CHTO   H16 7158   5.587   6.984   0.627
   17CHTO    N1 7159   5.784   7.035   0.680
   17CHTO    H8 7160   5.772   7.098   0.593
   17CHTO    H9 7161   5.869   6.970   0.667
   17CHTO    C4 7162   5.590   6.995   0.841
   17CHTO   H17 7163   5.659   6.975   0.923
   17CHTO    O1 7164   5.469   6.919   0.857
   17CHTO    C5 7165   5.493   6.779   0.876
   17CHTO   H18 7166   5.564   6.764   0.958
   17CHTO   C16 7167   5.359   6.712   0.913
   17CHTO   O11 7168   5.307   6.764   1.037
   17CHTO    H5 7169   5.226   6.721   1.057
   17CHTO    O3 7170   5.547   7.134   0.845
   17CHTO    C6 7171   5.545   7.204   0.975
   17CHTO   H19 7172   5.491   7.298   0.964
   17CHTO    C8 7173   5.470   7.125   1.088
   17CHTO   H21 7174   5.515   7.026   1.097
   17CHTO    O7 7175   5.332   7.114   1.048
   17CHTO    H2 7176   5.324   7.056   0.975
   17CHTO   C12 7177   5.484   7.198   1.228
   17CHTO   H25 7178   5.431   7.295   1.218
   17CHTO    N3 7179   5.418   7.122   1.339
   17CHTO   H12 7180   5.371   7.032   1.303
   17CHTO   H13 7181   5.345   7.184   1.389
   17CHTO   C15 7182   5.636   7.227   1.254
   17CHTO   H28 7183   5.693   7.135   1.265
   17CHTO   O10 7184   5.662   7.316   1.378
   17CHTO    H4 7185   5.754   7.322   1.395
   17CHTO    O5 7186   5.691   7.306   1.148
   17CHTO   C10 7187   5.690   7.240   1.020
   17CHTO   H23 7188   5.750   7.150   1.028
   17CHTO   C17 7189   5.762   7.332   0.919
   17CHTO   O12 7190   5.699   7.459   0.905
   17CHTO    H6 7191   5.746   7.511   0.843
   18CHTO  H203 7192   6.896   7.775   1.923
   18CHTO   O82 7193   6.965   7.711   1.931
   18CHTO  C123 7194   6.939   7.598   1.847
   18CHTO  H227 7195   6.834   7.567   1.861
   18CHTO   O77 7196   6.957   7.650   1.712
   18CHTO  C118 7197   6.916   7.558   1.610
   18CHTO  H222 7198   6.811   7.531   1.625
   18CHTO  C125 7199   6.930   7.629   1.470
   18CHTO   O84 7200   6.838   7.738   1.457
   18CHTO  H205 7201   6.750   7.706   1.453
   18CHTO  C114 7202   7.004   7.432   1.613
   18CHTO  H218 7203   7.105   7.458   1.582
   18CHTO  C116 7204   7.015   7.369   1.756
   18CHTO  H220 7205   6.921   7.314   1.778
   18CHTO   O79 7206   7.119   7.271   1.756
   18CHTO  H201 7207   7.095   7.198   1.702
   18CHTO  C120 7208   7.038   7.478   1.869
   18CHTO  H224 7209   7.143   7.513   1.858
   18CHTO   N21 7210   7.025   7.420   2.006
   18CHTO  H211 7211   7.087   7.476   2.075
   18CHTO  H212 7212   7.053   7.316   2.006
   18CHTO   O75 7213   6.942   7.345   1.516
   18CHTO  C112 7214   7.040   7.246   1.432
   18CHTO  H216 7215   7.090   7.177   1.502
   18CHTO   O73 7216   7.134   7.328   1.361
   18CHTO  C113 7217   7.225   7.256   1.276
   18CHTO  H217 7218   7.279   7.180   1.337
   18CHTO  C124 7219   7.329   7.356   1.225
   18CHTO   O83 7220   7.440   7.295   1.157
   18CHTO  H204 7221   7.491   7.245   1.218
   18CHTO  C109 7222   7.144   7.187   1.163
   18CHTO  H213 7223   7.090   7.267   1.110
   18CHTO  C110 7224   7.042   7.088   1.228
   18CHTO  H214 7225   7.098   7.010   1.279
   18CHTO   O78 7226   6.964   7.025   1.125
   18CHTO  H200 7227   6.914   7.089   1.077
   18CHTO  C111 7228   6.952   7.163   1.330
   18CHTO  H215 7229   6.890   7.236   1.275
   18CHTO   N19 7230   6.858   7.075   1.405
   18CHTO  H207 7231   6.869   6.972   1.374
   18CHTO  H208 7232   6.756   7.107   1.389
   18CHTO   O74 7233   7.233   7.119   1.069
   18CHTO  C115 7234   7.175   7.094   0.915
   18CHTO  H219 7235   7.129   6.995   0.905
   18CHTO   O76 7236   7.056   7.198   0.878
   18CHTO  C122 7237   7.105   7.327   0.839
   18CHTO  H226 7238   7.159   7.370   0.924
   18CHTO  C126 7239   6.982   7.421   0.815
   18CHTO   O85 7240   7.020   7.555   0.783
   18CHTO  H206 7241   7.059   7.596   0.858
   18CHTO  C121 7242   7.199   7.320   0.712
   18CHTO  H225 7243   7.142   7.356   0.623
   18CHTO   O81 7244   7.310   7.409   0.731
   18CHTO  H202 7245   7.280   7.498   0.737
   18CHTO  C119 7246   7.250   7.176   0.683
   18CHTO  H223 7247   7.164   7.121   0.645
   18CHTO  C117 7248   7.297   7.107   0.816
   18CHTO  H221 7249   7.374   7.160   0.871
   18CHTO   N20 7250   7.356   6.972   0.788
   18CHTO  H209 7251   7.392   6.927   0.880
   18CHTO  H210 7252   7.282   6.907   0.743
   18CHTO   O80 7253   7.352   7.172   0.555
   18CHTO  C103 7254   7.303   7.111   0.416
   18CHTO  H190 7255   7.387   7.111   0.346
   18CHTO  C101 7256   7.245   6.965   0.419
   18CHTO  H188 7257   7.164   6.960   0.492
   18CHTO   O68 7258   7.359   6.867   0.463
   18CHTO  H168 7259   7.386   6.886   0.551
   18CHTO   C99 7260   7.187   6.926   0.275
   18CHTO  H186 7261   7.272   6.922   0.203
   18CHTO   N17 7262   7.122   6.791   0.272
   18CHTO  H174 7263   7.190   6.716   0.310
   18CHTO  H175 7264   7.092   6.767   0.170
   18CHTO   C97 7265   7.092   7.037   0.222
   18CHTO  H184 7266   6.997   7.034   0.277
   18CHTO   O64 7267   7.153   7.167   0.228
   18CHTO  C104 7268   7.195   7.210   0.358
   18CHTO  H191 7269   7.110   7.214   0.427
   18CHTO  C108 7270   7.247   7.354   0.348
   18CHTO   O71 7271   7.360   7.365   0.260
   18CHTO  H171 7272   7.389   7.454   0.257
   18CHTO   O62 7273   7.072   7.024   0.079
   18CHTO   C91 7274   6.938   7.010   0.029
   18CHTO  H178 7275   6.876   6.963   0.105
   18CHTO   C92 7276   6.945   6.909   3.346
   18CHTO  H179 7277   7.024   6.943   3.276
   18CHTO   O66 7278   6.990   6.782   3.397
   18CHTO  H166 7279   7.005   6.722   3.326
   18CHTO   C93 7280   6.807   6.893   3.270
   18CHTO  H180 7281   6.738   6.839   3.337
   18CHTO   N16 7282   6.817   6.811   3.147
   18CHTO  H172 7283   6.888   6.855   3.078
   18CHTO  H173 7284   6.848   6.710   3.172
   18CHTO   C94 7285   6.746   7.034   3.238
   18CHTO  H181 7286   6.806   7.090   3.165
   18CHTO   O61 7287   6.741   7.115   3.357
   18CHTO   C95 7288   6.869   7.143   3.414
   18CHTO  H182 7289   6.932   7.189   3.338
   18CHTO  C106 7290   6.850   7.251   0.090
   18CHTO   O69 7291   6.760   7.206   0.193
   18CHTO  H169 7292   6.800   7.135   0.241
   18CHTO   O63 7293   6.592   7.018   3.185
   18CHTO   C96 7294   6.541   7.134   3.086
   18CHTO  H183 7295   6.440   7.107   3.055
   18CHTO   C98 7296   6.625   7.154   2.957
   18CHTO  H185 7297   6.731   7.172   2.983
   18CHTO   O67 7298   6.623   7.030   2.885
   18CHTO  H167 7299   6.679   7.034   2.810
   18CHTO  C102 7300   6.569   7.275   2.866
   18CHTO  H189 7301   6.473   7.240   2.826
   18CHTO   N18 7302   6.653   7.308   2.748
   18CHTO  H176 7303   6.607   7.388   2.691
   18CHTO  H177 7304   6.663   7.221   2.685
   18CHTO  C105 7305   6.542   7.400   2.955
   18CHTO  H192 7306   6.637   7.445   2.984
   18CHTO   O65 7307   6.469   7.369   3.076
   18CHTO  C100 7308   6.531   7.271   3.161
   18CHTO  H187 7309   6.632   7.306   3.187
   18CHTO  C107 7310   6.449   7.259   3.291
   18CHTO   O70 7311   6.459   7.379   3.369
   18CHTO  H170 7312   6.407   7.370   0.010
   18CHTO   O57 7313   6.452   7.505   2.865
   18CHTO   C85 7314   6.476   7.645   2.880
   18CHTO  H157 7315   6.585   7.659   2.865
   18CHTO   C83 7316   6.447   7.692   3.026
   18CHTO  H155 7317   6.511   7.635   3.093
   18CHTO   O56 7318   6.311   7.659   3.062
   18CHTO  H135 7319   6.299   7.565   3.061
   18CHTO   C81 7320   6.482   7.842   3.039
   18CHTO  H153 7321   6.586   7.855   3.011
   18CHTO   N14 7322   6.479   7.890   3.180
   18CHTO  H141 7323   6.437   7.817   3.245
   18CHTO  H142 7324   6.422   7.981   3.188
   18CHTO   C79 7325   6.393   7.928   2.940
   18CHTO  H151 7326   6.432   8.030   2.943
   18CHTO   O52 7327   6.410   7.881   2.802
   18CHTO   C86 7328   6.392   7.737   2.782
   18CHTO  H158 7329   6.283   7.721   2.796
   18CHTO   C90 7330   6.421   7.700   2.634
   18CHTO   O60 7331   6.555   7.733   2.596
   18CHTO  H138 7332   6.566   7.827   2.593
   18CHTO   O50 7333   6.254   7.932   2.976
   18CHTO   C73 7334   6.139   8.014   2.949
   18CHTO  H145 7335   6.114   8.009   2.842
   18CHTO   C74 7336   6.165   8.163   2.988
   18CHTO  H146 7337   6.253   8.196   2.931
   18CHTO   O54 7338   6.054   8.241   2.941
   18CHTO  H133 7339   6.069   8.332   2.957
   18CHTO   C75 7340   6.189   8.172   3.144
   18CHTO  H147 7341   6.280   8.116   3.168
   18CHTO   N13 7342   6.215   8.310   3.193
   18CHTO  H139 7343   6.131   8.374   3.169
   18CHTO  H140 7344   6.304   8.350   3.146
   18CHTO   C76 7345   6.068   8.102   3.223
   18CHTO  H148 7346   5.978   8.163   3.208
   18CHTO   O49 7347   6.045   7.966   3.173
   18CHTO   C77 7348   6.018   7.960   3.031
   18CHTO  H149 7349   5.930   8.020   3.008
   18CHTO   C88 7350   5.981   7.816   2.995
   18CHTO   O58 7351   5.942   7.806   2.853
   18CHTO  H136 7352   5.918   7.718   2.833
   18CHTO   O51 7353   6.108   8.087   3.379
   18CHTO   C78 7354   6.007   8.003   0.033
   18CHTO  H150 7355   5.968   7.914   3.415
   18CHTO   C80 7356   5.887   8.089   0.079
   18CHTO  H152 7357   5.926   8.188   0.114
   18CHTO   O55 7358   5.804   8.115   3.401
   18CHTO  H134 7359   5.767   8.035   3.368
   18CHTO   C84 7360   5.804   8.022   0.197
   18CHTO  H156 7361   5.747   7.940   0.154
   18CHTO   N15 7362   5.703   8.114   0.259
   18CHTO  H143 7363   5.704   8.210   0.212
   18CHTO  H144 7364   5.604   8.072   0.250
   18CHTO   C87 7365   5.898   7.964   0.305
   18CHTO  H159 7366   5.948   8.046   0.358
   18CHTO   O53 7367   5.998   7.877   0.240
   18CHTO   C82 7368   6.086   7.950   0.154
   18CHTO  H154 7369   6.134   8.033   0.208
   18CHTO   C89 7370   6.199   7.856   0.108
   18CHTO   O59 7371   6.279   7.812   0.219
   18CHTO  H137 7372   6.229   7.754   0.273
   18CHTO   O45 7373   5.819   7.868   0.412
   18CHTO   C67 7374   5.877   7.874   0.544
   18CHTO  H124 7375   5.965   7.938   0.542
   18CHTO   C65 7376   5.773   7.936   0.645
   18CHTO  H122 7377   5.675   7.902   0.611
   18CHTO   O44 7378   5.782   8.078   0.628
   18CHTO  H102 7379   5.714   8.121   0.676
   18CHTO   C63 7380   5.788   7.878   0.791
   18CHTO  H120 7381   5.739   7.780   0.795
   18CHTO   N11 7382   5.716   7.951   0.900
   18CHTO  H108 7383   5.613   7.964   0.873
   18CHTO  H109 7384   5.722   7.897   0.992
   18CHTO   C61 7385   5.941   7.851   0.819
   18CHTO  H118 7386   5.948   7.807   0.920
   18CHTO   O40 7387   5.997   7.754   0.726
   18CHTO   C68 7388   5.928   7.734   0.598
   18CHTO  H125 7389   5.843   7.665   0.613
   18CHTO   C72 7390   6.028   7.663   0.503
   18CHTO   O48 7391   5.968   7.618   0.381
   18CHTO  H105 7392   5.908   7.548   0.399
   18CHTO   O38 7393   6.017   7.974   0.813
   18CHTO   C55 7394   6.147   7.974   0.874
   18CHTO  H112 7395   6.187   7.872   0.880
   18CHTO   C56 7396   6.139   8.042   1.017
   18CHTO  H113 7397   6.088   8.139   1.004
   18CHTO   O42 7398   6.053   7.962   1.101
   18CHTO  H100 7399   6.040   8.005   1.183
   18CHTO   C57 7400   6.282   8.063   1.080
   18CHTO  H114 7401   6.323   7.964   1.102
   18CHTO   N10 7402   6.278   8.139   1.208
   18CHTO  H106 7403   6.197   8.211   1.207
   18CHTO  H107 7404   6.372   8.191   1.225
   18CHTO   C58 7405   6.374   8.132   0.976
   18CHTO  H115 7406   6.337   8.235   0.957
   18CHTO   O37 7407   6.375   8.061   0.850
   18CHTO   C59 7408   6.246   8.055   0.786
   18CHTO  H116 7409   6.209   8.156   0.770
   18CHTO   C70 7410   6.261   7.990   0.647
   18CHTO   O46 7411   6.320   7.860   0.649
   18CHTO  H103 7412   6.261   7.799   0.691
   18CHTO   O39 7413   6.536   8.143   1.032
   18CHTO   C60 7414   6.609   8.020   1.019
   18CHTO  H117 7415   6.539   7.937   1.012
   18CHTO   C62 7416   6.697   8.019   0.890
   18CHTO  H119 7417   6.631   8.054   0.808
   18CHTO   O43 7418   6.805   8.114   0.902
   18CHTO  H101 7419   6.855   8.116   0.822
   18CHTO   C66 7420   6.742   7.869   0.861
   18CHTO  H123 7421   6.653   7.811   0.842
   18CHTO   N12 7422   6.822   7.852   0.736
   18CHTO  H110 7423   6.835   7.947   0.685
   18CHTO  H111 7424   6.776   7.779   0.671
   18CHTO   C69 7425   6.814   7.803   0.983
   18CHTO  H126 7426   6.924   7.821   0.978
   18CHTO   O41 7427   6.761   7.855   1.130
   18CHTO   C64 7428   6.700   7.992   1.141
   18CHTO  H121 7429   6.780   8.069   1.145
   18CHTO   C71 7430   6.621   8.001   1.274
   18CHTO   O47 7431   6.708   7.996   1.387
   18CHTO  H104 7432   6.759   8.075   1.392
   18CHTO   O34 7433   6.790   7.646   0.975
   18CHTO   C49 7434   6.700   7.527   1.039
   18CHTO   H91 7435   6.761   7.437   1.034
   18CHTO   C47 7436   6.571   7.506   0.957
   18CHTO   H89 7437   6.527   7.411   0.994
   18CHTO   O33 7438   6.608   7.486   0.819
   18CHTO   H70 7439   6.642   7.566   0.783
   18CHTO   C45 7440   6.466   7.626   0.979
   18CHTO   H87 7441   6.512   7.717   0.940
   18CHTO    N8 7442   6.340   7.602   0.903
   18CHTO   H75 7443   6.254   7.613   0.967
   18CHTO   H76 7444   6.333   7.671   0.820
   18CHTO   C43 7445   6.443   7.660   1.135
   18CHTO   H85 7446   6.396   7.758   1.134
   18CHTO   O29 7447   6.568   7.662   1.207
   18CHTO   C50 7448   6.663   7.556   1.186
   18CHTO   H92 7449   6.756   7.587   1.236
   18CHTO   C54 7450   6.625   7.426   1.262
   18CHTO   O36 7451   6.622   7.446   1.404
   18CHTO   H72 7452   6.709   7.460   1.436
   18CHTO   O27 7453   6.351   7.573   1.204
   18CHTO   C37 7454   6.256   7.610   1.307
   18CHTO   H79 7455   6.233   7.522   1.368
   18CHTO   C38 7456   6.315   7.718   1.404
   18CHTO   H80 7457   6.362   7.798   1.344
   18CHTO   O31 7458   6.417   7.655   1.483
   18CHTO   H68 7459   6.491   7.633   1.429
   18CHTO   C39 7460   6.206   7.785   1.497
   18CHTO   H81 7461   6.175   7.710   1.570
   18CHTO    N7 7462   6.259   7.904   1.574
   18CHTO   H73 7463   6.182   7.945   1.637
   18CHTO   H74 7464   6.344   7.873   1.634
   18CHTO   C40 7465   6.078   7.824   1.414
   18CHTO   H82 7466   6.102   7.906   1.346
   18CHTO   O26 7467   6.032   7.708   1.342
   18CHTO   C41 7468   6.125   7.661   1.241
   18CHTO   H83 7469   6.149   7.742   1.171
   18CHTO   C52 7470   6.054   7.549   1.161
   18CHTO   O35 7471   5.933   7.599   1.090
   18CHTO   H71 7472   5.958   7.659   1.023
   18CHTO   O28 7473   5.971   7.871   1.500
   18CHTO   C42 7474   5.828   7.873   1.469
   18CHTO   H84 7475   5.787   7.933   1.550
   18CHTO   C44 7476   5.756   7.735   1.476
   18CHTO   H86 7477   5.795   7.670   1.397
   18CHTO   O32 7478   5.790   7.679   1.604
   18CHTO   H69 7479   5.755   7.592   1.612
   18CHTO   C48 7480   5.600   7.749   1.454
   18CHTO   H90 7481   5.559   7.807   1.537
   18CHTO    N9 7482   5.531   7.615   1.461
   18CHTO   H77 7483   5.568   7.551   1.383
   18CHTO   H78 7484   5.424   7.629   1.452
   18CHTO   C51 7485   5.571   7.825   1.319
   18CHTO   H93 7486   5.608   7.764   1.237
   18CHTO   O30 7487   5.634   7.954   1.322
   18CHTO   C46 7488   5.792   7.945   1.336
   18CHTO   H88 7489   5.831   7.888   1.251
   18CHTO   C53 7490   5.849   8.089   1.334
   18CHTO   O72 7491   5.821   8.153   1.209
   18CHTO  H199 7492   5.857   8.240   1.210
   18CHTO   O22 7493   5.429   7.851   1.305
   18CHTO   C31 7494   5.354   7.867   1.178
   18CHTO   H59 7495   5.248   7.847   1.204
   18CHTO   C29 7496   5.360   8.010   1.120
   18CHTO   H57 7497   5.465   8.034   1.097
   18CHTO   O21 7498   5.318   8.101   1.223
   18CHTO   H37 7499   5.227   8.088   1.244
   18CHTO   C27 7500   5.272   8.024   0.988
   18CHTO   H55 7501   5.166   8.012   1.016
   18CHTO    N5 7502   5.288   8.157   0.923
   18CHTO   H43 7503   5.389   8.169   0.888
   18CHTO   H44 7504   5.218   8.166   0.841
   18CHTO   C25 7505   5.306   7.908   0.889
   18CHTO   H53 7506   5.407   7.922   0.848
   18CHTO   O17 7507   5.300   7.779   0.956
   18CHTO   C32 7508   5.390   7.764   1.067
   18CHTO   H60 7509   5.493   7.782   1.034
   18CHTO   C36 7510   5.378   7.618   1.115
   18CHTO   O25 7511   5.420   7.527   1.013
   18CHTO   H40 7512   5.416   7.439   1.046
   18CHTO   O15 7513   5.201   7.902   0.769
   18CHTO   C19 7514   5.211   7.858   0.630
   18CHTO   H47 7515   5.108   7.828   0.605
   18CHTO   C20 7516   5.255   7.971   0.532
   18CHTO   H48 7517   5.351   8.017   0.562
   18CHTO   O19 7518   5.154   8.073   0.540
   18CHTO   H35 7519   5.179   8.148   0.489
   18CHTO   C21 7520   5.272   7.917   0.384
   18CHTO   H49 7521   5.175   7.883   0.348
   18CHTO    N4 7522   5.318   8.022   0.288
   18CHTO   H41 7523   5.326   7.981   0.189
   18CHTO   H42 7524   5.415   8.060   0.318
   18CHTO   C22 7525   5.366   7.794   0.389
   18CHTO   H50 7526   5.463   7.826   0.430
   18CHTO   O14 7527   5.308   7.694   0.473
   18CHTO   C23 7528   5.299   7.730   0.612
   18CHTO   H51 7529   5.402   7.746   0.649
   18CHTO   C34 7530   5.240   7.610   0.686
   18CHTO   O23 7531   5.328   7.498   0.683
   18CHTO   H38 7532   5.291   7.426   0.730
   18CHTO   O16 7533   5.383   7.726   0.263
   18CHTO   C24 7534   5.538   7.703   0.219
   18CHTO   H52 7535   5.606   7.771   0.271
   18CHTO   C26 7536   5.550   7.727   0.067
   18CHTO   H54 7537   5.477   7.659   0.015
   18CHTO   O20 7538   5.512   7.863   0.037
   18CHTO   H36 7539   5.420   7.875   0.053
   18CHTO   C30 7540   5.693   7.694   0.014
   18CHTO   H58 7541   5.765   7.769   0.049
   18CHTO    N6 7542   5.701   7.700   3.302
   18CHTO   H45 7543   5.676   7.799   3.267
   18CHTO   H46 7544   5.633   7.629   3.258
   18CHTO   C33 7545   5.746   7.558   0.070
   18CHTO   H61 7546   5.695   7.475   0.018
   18CHTO   O18 7547   5.720   7.546   0.210
   18CHTO   C28 7548   5.584   7.559   0.252
   18CHTO   H56 7549   5.520   7.488   0.198
   18CHTO   C35 7550   5.578   7.527   0.403
   18CHTO   O24 7551   5.613   7.392   0.432
   18CHTO   H39 7552   5.608   7.377   0.525
   18CHTO    O9 7553   5.886   7.543   0.041
   18CHTO   C13 7554   5.932   7.398   3.433
   18CHTO   H26 7555   5.880   7.374   3.338
   18CHTO   C11 7556   5.900   7.290   0.110
   18CHTO   H24 7557   5.791   7.271   0.108
   18CHTO    O8 7558   5.933   7.341   0.240
   18CHTO    H3 7559   6.025   7.360   0.246
   18CHTO    C9 7560   5.976   7.160   0.074
   18CHTO   H22 7561   5.951   7.139   3.405
   18CHTO    N2 7562   5.927   7.041   0.148
   18CHTO   H10 7563   5.881   6.971   0.080
   18CHTO   H11 7564   6.008   6.994   0.202
   18CHTO    C7 7565   6.132   7.189   0.082
   18CHTO   H20 7566   6.174   7.129   3.436
   18CHTO    O4 7567   6.166   7.328   0.062
   18CHTO   C14 7568   6.088   7.395   3.397
   18CHTO   H27 7569   6.101   7.340   3.302
   18CHTO   C18 7570   6.150   7.535   3.376
   18CHTO   O13 7571   6.085   7.606   3.270
   18CHTO    H7 7572   6.124   7.691   3.260
   18CHTO    O2 7573   6.200   7.140   0.223
   18CHTO    C1 7574   6.342   7.115   0.220
   18CHTO   H14 7575   6.391   7.189   0.153
   18CHTO    C2 7576   6.378   6.968   0.169
   18CHTO   H15 7577   6.314   6.899   0.226
   18CHTO    O6 7578   6.348   6.958   0.029
   18CHTO    H1 7579   6.255   6.963   0.016
   18CHTO    C3 7580   6.533   6.933   0.197
   18CHTO   H16 7581   6.597   6.998   0.135
   18CHTO    N1 7582   6.565   6.791   0.161
   18CHTO    H8 7583   6.670   6.771   0.180
   18CHTO    H9 7584   6.544   6.774   0.056
   18CHTO    C4 7585   6.568   6.967   0.347
   18CHTO   H17 7586   6.509   6.902   0.412
   18CHTO    O1 7587   6.537   7.105   0.373
   18CHTO    C5 7588   6.398   7.140   0.363
   18CHTO   H18 7589   6.340   7.081   0.435
   18CHTO   C16 7590   6.390   7.290   0.405
   18CHTO   O11 7591   6.255   7.337   0.418
   18CHTO    H5 7592   6.215   7.297   0.493
   18CHTO    O3 7593   6.709   6.955   0.376
   18CHTO    C6 7594   6.740   6.903   0.511
   18CHTO   H19 7595   6.652   6.898   0.576
   18CHTO    C8 7596   6.798   6.759   0.499
   18CHTO   H21 7597   6.883   6.762   0.430
   18CHTO    O7 7598   6.695   6.674   0.444
   18CHTO    H2 7599   6.680   6.695   0.354
   18CHTO   C12 7600   6.849   6.705   0.639
   18CHTO   H25 7601   6.757   6.691   0.701
   18CHTO    N3 7602   6.914   6.570   0.625
   18CHTO   H12 7603   6.862   6.497   0.686
   18CHTO   H13 7604   7.018   6.574   0.653
   18CHTO   C15 7605   6.940   6.813   0.708
   18CHTO   H28 7606   7.037   6.822   0.657
   18CHTO   O10 7607   6.964   6.783   0.859
   18CHTO    H4 7608   6.882   6.771   0.904
   18CHTO    O5 7609   6.875   6.941   0.712
   18CHTO   C10 7610   6.844   6.995   0.582
   18CHTO   H23 7611   6.936   7.002   0.524
   18CHTO   C17 7612   6.793   7.137   0.607
   18CHTO   O12 7613   6.792   7.215   0.487
   18CHTO    H6 7614   6.760   7.301   0.505
   19CHTO  H203 7615   6.959   8.630   1.624
   19CHTO   O82 7616   6.888   8.574   1.601
   19CHTO  C123 7617   6.820   8.528   1.719
   19CHTO  H227 7618   6.783   8.616   1.775
   19CHTO   O77 7619   6.708   8.453   1.664
   19CHTO  C118 7620   6.617   8.401   1.763
   19CHTO  H222 7621   6.579   8.484   1.824
   19CHTO  C125 7622   6.496   8.333   1.689
   19CHTO   O84 7623   6.537   8.223   1.605
   19CHTO  H205 7624   6.588   8.256   1.533
   19CHTO  C114 7625   6.692   8.301   1.854
   19CHTO  H218 7626   6.729   8.219   1.793
   19CHTO  C116 7627   6.818   8.366   1.920
   19CHTO  H220 7628   6.785   8.442   1.995
   19CHTO   O79 7629   6.888   8.264   1.992
   19CHTO  H201 7630   6.838   8.236   2.066
   19CHTO  C120 7631   6.909   8.435   1.810
   19CHTO  H224 7632   6.951   8.353   1.749
   19CHTO   N21 7633   7.024   8.507   1.869
   19CHTO  H211 7634   6.997   8.609   1.894
   19CHTO  H212 7635   7.061   8.456   1.957
   19CHTO   O75 7636   6.593   8.256   1.948
   19CHTO  C112 7637   6.599   8.094   1.986
   19CHTO  H216 7638   6.683   8.076   2.055
   19CHTO   O73 7639   6.615   8.021   1.863
   19CHTO  C113 7640   6.621   7.879   1.879
   19CHTO  H217 7641   6.701   7.854   1.952
   19CHTO  C124 7642   6.663   7.816   1.745
   19CHTO   O83 7643   6.581   7.854   1.634
   19CHTO  H204 7644   6.495   7.818   1.644
   19CHTO  C109 7645   6.485   7.826   1.931
   19CHTO  H213 7646   6.409   7.853   1.856
   19CHTO  C110 7647   6.452   7.896   2.067
   19CHTO  H214 7648   6.522   7.859   2.142
   19CHTO   O78 7649   6.321   7.855   2.109
   19CHTO  H200 7650   6.256   7.884   2.048
   19CHTO  C111 7651   6.463   8.051   2.055
   19CHTO  H215 7652   6.381   8.087   1.991
   19CHTO   N19 7653   6.448   8.121   2.185
   19CHTO  H207 7654   6.455   8.228   2.171
   19CHTO  H208 7655   6.353   8.097   2.230
   19CHTO   O74 7656   6.487   7.680   1.947
   19CHTO  C115 7657   6.410   7.601   1.830
   19CHTO  H219 7658   6.368   7.669   1.756
   19CHTO   O76 7659   6.511   7.508   1.745
   19CHTO  C122 7660   6.559   7.393   1.816
   19CHTO  H226 7661   6.633   7.427   1.889
   19CHTO  C126 7662   6.638   7.304   1.713
   19CHTO   O85 7663   6.698   7.189   1.774
   19CHTO  H206 7664   6.741   7.138   1.708
   19CHTO  C121 7665   6.444   7.309   1.885
   19CHTO  H225 7666   6.448   7.205   1.849
   19CHTO   O81 7667   6.464   7.304   2.027
   19CHTO  H202 7668   6.545   7.261   2.047
   19CHTO  C119 7669   6.303   7.367   1.852
   19CHTO  H223 7670   6.296   7.366   1.743
   19CHTO  C117 7671   6.293   7.517   1.897
   19CHTO  H221 7672   6.304   7.534   2.005
   19CHTO   N20 7673   6.159   7.576   1.863
   19CHTO  H209 7674   6.081   7.518   1.910
   19CHTO  H210 7675   6.154   7.679   1.897
   19CHTO   O80 7676   6.187   7.270   1.891
   19CHTO  C103 7677   6.173   7.134   1.817
   19CHTO  H190 7678   6.244   7.128   1.734
   19CHTO  C101 7679   6.192   7.005   1.907
   19CHTO  H188 7680   6.130   7.015   1.996
   19CHTO   O68 7681   6.341   6.994   1.951
   19CHTO  H168 7682   6.364   7.068   2.004
   19CHTO   C99 7683   6.144   6.874   1.828
   19CHTO  H186 7684   6.208   6.859   1.738
   19CHTO   N17 7685   6.152   6.747   1.909
   19CHTO  H174 7686   6.087   6.754   1.995
   19CHTO  H175 7687   6.254   6.729   1.938
   19CHTO   C97 7688   6.000   6.898   1.774
   19CHTO  H184 7689   5.934   6.913   1.861
   19CHTO   O64 7690   6.001   7.013   1.687
   19CHTO  C104 7691   6.028   7.137   1.755
   19CHTO  H191 7692   5.956   7.156   1.834
   19CHTO  C108 7693   6.013   7.252   1.654
   19CHTO   O71 7694   5.879   7.261   1.605
   19CHTO  H171 7695   5.860   7.188   1.549
   19CHTO   O62 7696   5.950   6.793   1.689
   19CHTO   C91 7697   5.806   6.785   1.684
   19CHTO  H178 7698   5.763   6.877   1.725
   19CHTO   C92 7699   5.756   6.668   1.775
   19CHTO  H179 7700   5.810   6.576   1.748
   19CHTO   O66 7701   5.795   6.698   1.910
   19CHTO  H166 7702   5.888   6.695   1.919
   19CHTO   C93 7703   5.600   6.646   1.766
   19CHTO  H180 7704   5.552   6.732   1.816
   19CHTO   N16 7705   5.554   6.525   1.838
   19CHTO  H172 7706   5.508   6.453   1.772
   19CHTO  H173 7707   5.485   6.552   1.917
   19CHTO   C94 7708   5.554   6.645   1.615
   19CHTO  H181 7709   5.592   6.557   1.562
   19CHTO   O61 7710   5.603   6.761   1.547
   19CHTO   C95 7711   5.746   6.769   1.539
   19CHTO  H182 7712   5.785   6.678   1.493
   19CHTO  C106 7713   5.786   6.889   1.447
   19CHTO   O69 7714   5.738   6.870   1.313
   19CHTO  H169 7715   5.645   6.876   1.311
   19CHTO   O63 7716   5.395   6.650   1.607
   19CHTO   C96 7717   5.339   6.658   1.465
   19CHTO  H183 7718   5.392   6.737   1.412
   19CHTO   C98 7719   5.187   6.694   1.463
   19CHTO  H185 7720   5.167   6.782   1.526
   19CHTO   O67 7721   5.153   6.734   1.329
   19CHTO  H167 7722   5.064   6.765   1.325
   19CHTO  C102 7723   5.094   6.570   1.505
   19CHTO  H189 7724   4.992   6.598   1.475
   19CHTO   N18 7725   5.085   6.546   1.652
   19CHTO  H176 7726   5.124   6.448   1.678
   19CHTO  H177 7727   4.983   6.553   1.685
   19CHTO  C105 7728   5.136   6.443   1.424
   19CHTO  H192 7729   5.162   6.361   1.492
   19CHTO   O65 7730   5.246   6.462   1.334
   19CHTO  C100 7731   5.365   6.519   1.391
   19CHTO  H187 7732   5.404   6.447   1.464
   19CHTO  C107 7733   5.472   6.535   1.279
   19CHTO   O70 7734   5.509   6.409   1.222
   19CHTO  H170 7735   5.556   6.358   1.286
   19CHTO   O57 7736   5.002   6.405   1.346
   19CHTO   C85 7737   4.994   6.304   1.244
   19CHTO  H157 7738   5.047   6.214   1.284
   19CHTO   C83 7739   5.074   6.349   1.117
   19CHTO  H155 7740   5.180   6.347   1.141
   19CHTO   O56 7741   5.040   6.486   1.087
   19CHTO  H135 7742   5.094   6.518   1.017
   19CHTO   C81 7743   5.049   6.250   0.999
   19CHTO  H153 7744   5.079   6.150   1.032
   19CHTO   N14 7745   5.133   6.277   0.880
   19CHTO  H141 7746   5.188   6.368   0.891
   19CHTO  H142 7747   5.202   6.197   0.864
   19CHTO   C79 7748   4.896   6.245   0.965
   19CHTO  H151 7749   4.884   6.172   0.885
   19CHTO   O52 7750   4.824   6.194   1.082
   19CHTO   C86 7751   4.843   6.270   1.205
   19CHTO  H158 7752   4.785   6.363   1.188
   19CHTO   C90 7753   4.770   6.194   1.318
   19CHTO   O60 7754   4.762   6.271   1.439
   19CHTO  H138 7755   4.716   6.223   1.504
   19CHTO   O50 7756   4.841   6.370   0.923
   19CHTO   C73 7757   4.761   6.442   0.828
   19CHTO  H145 7758   4.689   6.374   0.780
   19CHTO   C74 7759   4.850   6.506   0.718
   19CHTO  H146 7760   4.905   6.425   0.668
   19CHTO   O54 7761   4.765   6.564   0.618
   19CHTO  H133 7762   4.714   6.635   0.654
   19CHTO   C75 7763   4.948   6.611   0.785
   19CHTO  H147 7764   5.015   6.557   0.853
   19CHTO   N13 7765   5.038   6.678   0.689
   19CHTO  H139 7766   5.103   6.747   0.741
   19CHTO  H140 7767   4.980   6.735   0.617
   19CHTO   C76 7768   4.864   6.715   0.873
   19CHTO  H148 7769   4.807   6.779   0.806
   19CHTO   O49 7770   4.772   6.647   0.965
   19CHTO   C77 7771   4.682   6.554   0.902
   19CHTO  H149 7772   4.618   6.606   0.831
   19CHTO   C88 7773   4.588   6.498   1.010
   19CHTO   O58 7774   4.485   6.409   0.951
   19CHTO  H136 7775   4.429   6.377   1.019
   19CHTO   O51 7776   4.963   6.797   0.970
   19CHTO   C78 7777   4.919   6.946   0.988
   19CHTO  H150 7778   4.817   6.963   0.949
   19CHTO   C80 7779   5.018   7.039   0.914
   19CHTO  H152 7780   5.121   7.017   0.949
   19CHTO   O55 7781   5.011   7.004   0.774
   19CHTO  H134 7782   5.076   7.052   0.726
   19CHTO   C84 7783   4.984   7.191   0.937
   19CHTO  H156 7784   4.886   7.210   0.893
   19CHTO   N15 7785   5.080   7.285   0.869
   19CHTO  H143 7786   5.132   7.346   0.941
   19CHTO  H144 7787   5.152   7.232   0.810
   19CHTO   C87 7788   4.972   7.219   1.089
   19CHTO  H159 7789   5.071   7.211   1.136
   19CHTO   O53 7790   4.873   7.117   1.152
   19CHTO   C82 7791   4.917   6.981   1.138
   19CHTO  H154 7792   5.015   6.967   1.184
   19CHTO   C89 7793   4.817   6.894   1.218
   19CHTO   O59 7794   4.862   6.759   1.234
   19CHTO  H137 7795   4.799   6.710   1.283
   19CHTO   O45 7796   4.911   7.367   1.117
   19CHTO   C67 7797   4.919   7.406   1.255
   19CHTO  H124 7798   4.927   7.316   1.317
   19CHTO   C65 7799   5.045   7.496   1.282
   19CHTO  H122 7800   5.062   7.552   1.189
   19CHTO   O44 7801   5.155   7.406   1.303
   19CHTO  H102 7802   5.236   7.454   1.304
   19CHTO   C63 7803   5.018   7.607   1.392
   19CHTO  H120 7804   4.963   7.689   1.345
   19CHTO   N11 7805   5.139   7.680   1.443
   19CHTO  H108 7806   5.109   7.762   1.505
   19CHTO  H109 7807   5.200   7.613   1.499
   19CHTO   C61 7808   4.924   7.549   1.502
   19CHTO  H118 7809   4.905   7.631   1.574
   19CHTO   O40 7810   4.794   7.513   1.446
   19CHTO   C68 7811   4.787   7.478   1.304
   19CHTO  H125 7812   4.771   7.571   1.245
   19CHTO   C72 7813   4.662   7.388   1.282
   19CHTO   O48 7814   4.539   7.457   1.310
   19CHTO  H105 7815   4.533   7.475   1.401
   19CHTO   O38 7816   4.986   7.438   1.573
   19CHTO   C55 7817   4.903   7.346   1.647
   19CHTO  H112 7818   4.815   7.318   1.587
   19CHTO   C56 7819   4.862   7.404   1.789
   19CHTO  H113 7820   4.955   7.431   1.841
   19CHTO   O42 7821   4.787   7.526   1.773
   19CHTO  H100 7822   4.841   7.592   1.734
   19CHTO   C57 7823   4.780   7.298   1.872
   19CHTO  H114 7824   4.683   7.288   1.823
   19CHTO   N10 7825   4.756   7.339   2.013
   19CHTO  H106 7826   4.663   7.296   2.048
   19CHTO  H107 7827   4.748   7.447   2.020
   19CHTO   C58 7828   4.850   7.159   1.869
   19CHTO  H115 7829   4.940   7.162   1.934
   19CHTO   O37 7830   4.893   7.121   1.737
   19CHTO   C59 7831   4.980   7.213   1.670
   19CHTO  H116 7832   5.070   7.230   1.730
   19CHTO   C70 7833   5.023   7.150   1.537
   19CHTO   O46 7834   5.099   7.030   1.553
   19CHTO  H103 7835   5.184   7.051   1.588
   19CHTO   O39 7836   4.744   7.038   1.924
   19CHTO   C60 7837   4.653   6.991   1.824
   19CHTO  H117 7838   4.643   7.067   1.746
   19CHTO   C62 7839   4.706   6.861   1.757
   19CHTO  H119 7840   4.808   6.884   1.719
   19CHTO   O43 7841   4.719   6.756   1.855
   19CHTO  H101 7842   4.635   6.734   1.890
   19CHTO   C66 7843   4.612   6.824   1.632
   19CHTO  H123 7844   4.612   6.908   1.563
   19CHTO   N12 7845   4.662   6.708   1.554
   19CHTO  H110 7846   4.667   6.620   1.617
   19CHTO  H111 7847   4.599   6.691   1.468
   19CHTO   C69 7848   4.466   6.804   1.681
   19CHTO  H126 7849   4.459   6.713   1.745
   19CHTO   O41 7850   4.419   6.930   1.766
   19CHTO   C64 7851   4.510   6.965   1.880
   19CHTO  H121 7852   4.513   6.882   1.954
   19CHTO   C71 7853   4.449   7.090   1.950
   19CHTO   O47 7854   4.509   7.113   2.078
   19CHTO  H104 7855   4.598   7.142   2.067
   19CHTO   O34 7856   4.367   6.787   1.560
   19CHTO   C49 7857   4.288   6.891   1.474
   19CHTO   H91 7858   4.215   6.936   1.541
   19CHTO   C47 7859   4.217   6.816   1.360
   19CHTO   H89 7860   4.154   6.891   1.306
   19CHTO   O33 7861   4.130   6.718   1.419
   19CHTO   H70 7862   4.081   6.673   1.352
   19CHTO   C45 7863   4.328   6.755   1.261
   19CHTO   H87 7864   4.394   6.691   1.321
   19CHTO    N8 7865   4.266   6.672   1.155
   19CHTO   H75 7866   4.208   6.734   1.088
   19CHTO   H76 7867   4.343   6.620   1.099
   19CHTO   C43 7868   4.425   6.872   1.204
   19CHTO   H85 7869   4.508   6.820   1.156
   19CHTO   O29 7870   4.471   6.958   1.311
   19CHTO   C50 7871   4.380   7.001   1.415
   19CHTO   H92 7872   4.441   7.041   1.497
   19CHTO   C54 7873   4.300   7.127   1.368
   19CHTO   O36 7874   4.219   7.182   1.473
   19CHTO   H72 7875   4.274   7.218   1.540
   19CHTO   O27 7876   4.366   6.952   1.100
   19CHTO   C37 7877   4.399   7.024   0.978
   19CHTO   H79 7878   4.306   7.055   0.929
   19CHTO   C38 7879   4.480   7.153   1.006
   19CHTO   H80 7880   4.567   7.127   1.068
   19CHTO   O31 7881   4.395   7.242   1.080
   19CHTO   H68 7882   4.443   7.317   1.108
   19CHTO   C39 7883   4.530   7.223   0.872
   19CHTO   H81 7884   4.442   7.260   0.820
   19CHTO    N7 7885   4.619   7.341   0.897
   19CHTO   H73 7886   4.718   7.326   0.855
   19CHTO   H74 7887   4.627   7.363   1.002
   19CHTO   C40 7888   4.598   7.117   0.775
   19CHTO   H82 7889   4.694   7.086   0.817
   19CHTO   O26 7890   4.509   7.006   0.757
   19CHTO   C41 7891   4.479   6.933   0.880
   19CHTO   H83 7892   4.573   6.902   0.928
   19CHTO   C52 7893   4.403   6.805   0.841
   19CHTO   O35 7894   4.271   6.829   0.789
   19CHTO   H71 7895   4.216   6.864   0.857
   19CHTO   O28 7896   4.618   7.167   0.641
   19CHTO   C42 7897   4.752   7.196   0.588
   19CHTO   H84 7898   4.818   7.199   0.675
   19CHTO   C44 7899   4.770   7.333   0.515
   19CHTO   H86 7900   4.714   7.331   0.422
   19CHTO   O32 7901   4.713   7.437   0.597
   19CHTO   H69 7902   4.759   7.444   0.679
   19CHTO   C48 7903   4.923   7.362   0.482
   19CHTO   H90 7904   4.973   7.378   0.577
   19CHTO    N9 7905   4.944   7.489   0.403
   19CHTO   H77 7906   4.849   7.538   0.383
   19CHTO   H78 7907   5.010   7.556   0.456
   19CHTO   C51 7908   4.993   7.239   0.412
   19CHTO   H93 7909   4.963   7.237   0.307
   19CHTO   O30 7910   4.961   7.115   0.478
   19CHTO   C46 7911   4.810   7.088   0.492
   19CHTO   H88 7912   4.763   7.098   0.394
   19CHTO   C53 7913   4.790   6.944   0.543
   19CHTO   O72 7914   4.836   6.848   0.447
   19CHTO  H199 7915   4.779   6.848   0.372
   19CHTO   O22 7916   5.136   7.252   0.423
   19CHTO   C31 7917   5.230   7.171   0.344
   19CHTO   H59 7918   5.173   7.083   0.306
   19CHTO   C29 7919   5.289   7.243   0.221
   19CHTO   H57 7920   5.342   7.333   0.258
   19CHTO   O21 7921   5.181   7.290   0.139
   19CHTO   H37 7922   5.135   7.218   0.100
   19CHTO   C27 7923   5.391   7.152   0.141
   19CHTO   H55 7924   5.335   7.069   0.095
   19CHTO    N5 7925   5.462   7.226   0.033
   19CHTO   H43 7926   5.525   7.159   3.414
   19CHTO   H44 7927   5.390   7.273   3.404
   19CHTO   C25 7928   5.495   7.085   0.239
   19CHTO   H53 7929   5.563   7.162   0.278
   19CHTO   O17 7930   5.427   7.023   0.353
   19CHTO   C32 7931   5.346   7.113   0.430
   19CHTO   H60 7932   5.408   7.195   0.466
   19CHTO   C36 7933   5.295   7.037   0.555
   19CHTO   O25 7934   5.217   6.922   0.520
   19CHTO   H40 7935   5.187   6.879   0.598
   19CHTO   O15 7936   5.582   6.969   0.162
   19CHTO   C19 7937   5.564   6.852   0.076
   19CHTO   H47 7938   5.462   6.864   0.035
   19CHTO   C20 7939   5.666   6.841   3.395
   19CHTO   H48 7940   5.769   6.833   3.432
   19CHTO   O19 7941   5.655   6.962   3.319
   19CHTO   H35 7942   5.690   7.035   3.368
   19CHTO   C21 7943   5.637   6.715   3.303
   19CHTO   H49 7944   5.544   6.733   3.248
   19CHTO    N4 7945   5.742   6.694   3.199
   19CHTO   H41 7946   5.717   6.608   3.139
   19CHTO   H42 7947   5.749   6.781   3.136
   19CHTO   C22 7948   5.615   6.588   3.389
   19CHTO   H50 7949   5.711   6.553   3.429
   19CHTO   O14 7950   5.523   6.612   0.061
   19CHTO   C23 7951   5.564   6.716   0.152
   19CHTO   H51 7952   5.664   6.690   0.189
   19CHTO   C34 7953   5.470   6.714   0.273
   19CHTO   O23 7954   5.334   6.742   0.238
   19CHTO   H38 7955   5.281   6.740   0.315
   19CHTO   O16 7956   5.550   6.484   3.313
   19CHTO   C24 7957   5.592   6.332   3.350
   19CHTO   H52 7958   5.666   6.329   3.430
   19CHTO   C26 7959   5.649   6.266   3.223
   19CHTO   H54 7960   5.577   6.282   3.139
   19CHTO   O20 7961   5.772   6.332   3.190
   19CHTO   H36 7962   5.755   6.420   3.160
   19CHTO   C30 7963   5.670   6.112   3.242
   19CHTO   H58 7964   5.751   6.094   3.314
   19CHTO    N6 7965   5.712   6.046   3.115
   19CHTO   H45 7966   5.637   6.061   3.039
   19CHTO   H46 7967   5.806   6.087   3.082
   19CHTO   C33 7968   5.542   6.046   3.303
   19CHTO   H61 7969   5.459   6.052   3.231
   19CHTO   O18 7970   5.504   6.117   3.422
   19CHTO   C28 7971   5.467   6.254   3.400
   19CHTO   H56 7972   5.388   6.261   3.326
   19CHTO   C35 7973   5.413   6.310   0.098
   19CHTO   O24 7974   5.509   6.308   0.203
   19CHTO   H39 7975   5.529   6.219   0.226
   19CHTO    O9 7976   5.560   5.905   3.330
   19CHTO   C13 7977   5.420   5.816   3.323
   19CHTO   H26 7978   5.374   5.834   3.224
   19CHTO   C11 7979   5.323   5.857   0.005
   19CHTO   H24 7980   5.289   5.961   3.423
   19CHTO    O8 7981   5.395   5.856   0.130
   19CHTO    H3 7982   5.340   5.887   0.199
   19CHTO    C9 7983   5.200   5.762   0.001
   19CHTO   H22 7984   5.157   5.773   3.337
   19CHTO    N2 7985   5.090   5.807   0.091
   19CHTO   H10 7986   5.120   5.797   0.194
   19CHTO   H11 7987   5.001   5.749   0.072
   19CHTO    C7 7988   5.247   5.611   0.018
   19CHTO   H20 7989   5.198   5.559   3.369
   19CHTO    O4 7990   5.390   5.595   0.007
   19CHTO   C14 7991   5.449   5.658   3.329
   19CHTO   H27 7992   5.405   5.611   3.238
   19CHTO   C18 7993   5.600   5.623   3.330
   19CHTO   O13 7994   5.663   5.661   3.207
   19CHTO    H7 7995   5.753   5.638   3.210
   19CHTO    O2 7996   5.198   5.539   0.159
   19CHTO    C1 7997   5.136   5.410   0.143
   19CHTO   H14 7998   5.186   5.355   0.060
   19CHTO    C2 7999   4.980   5.418   0.113
   19CHTO   H15 8000   4.938   5.486   0.189
   19CHTO    O6 8001   4.961   5.476   3.420
   19CHTO    H1 8002   4.870   5.490   3.404
   19CHTO    C3 8003   4.911   5.273   0.125
   19CHTO   H16 8004   4.949   5.208   0.044
   19CHTO    N1 8005   4.762   5.280   0.110
   19CHTO    H8 8006   4.720   5.344   0.187
   19CHTO    H9 8007   4.737   5.319   0.013
   19CHTO    C4 8008   4.955   5.205   0.260
   19CHTO   H17 8009   4.916   5.263   0.343
   19CHTO    O1 8010   5.098   5.199   0.265
   19CHTO    C5 8011   5.162   5.327   0.273
   19CHTO   H18 8012   5.123   5.382   0.358
   19CHTO   C16 8013   5.312   5.299   0.298
   19CHTO   O11 8014   5.385   5.417   0.333
   19CHTO    H5 8015   5.358   5.447   0.417
   19CHTO    O3 8016   4.912   5.067   0.270
   19CHTO    C6 8017   4.854   5.026   0.400
   19CHTO   H19 8018   4.843   5.109   0.470
   19CHTO    C8 8019   4.711   4.966   0.378
   19CHTO   H21 8020   4.719   4.886   0.304
   19CHTO    O7 8021   4.626   5.071   0.328
   19CHTO    H2 8022   4.652   5.094   0.241
   19CHTO   C12 8023   4.654   4.905   0.513
   19CHTO   H25 8024   4.637   4.992   0.581
   19CHTO    N3 8025   4.521   4.838   0.493
   19CHTO   H12 8026   4.450   4.910   0.455
   19CHTO   H13 8027   4.487   4.797   0.586
   19CHTO   C15 8028   4.761   4.811   0.579
   19CHTO   H28 8029   4.775   4.719   0.523
   19CHTO   O10 8030   4.726   4.777   0.726
   19CHTO    H4 8031   4.648   4.726   0.729
   19CHTO    O5 8032   4.887   4.879   0.594
   19CHTO   C10 8033   4.944   4.921   0.469
   19CHTO   H23 8034   4.954   4.833   0.405
   19CHTO   C17 8035   5.086   4.974   0.497
   19CHTO   O12 8036   5.176   4.869   0.534
   19CHTO    H6 8037   5.153   4.836   0.619
   20CHTO  H203 8038   5.524   0.402   1.623
   20CHTO   O82 8039   5.435   0.426   1.606
   20CHTO  C123 8040   5.403   0.550   1.672
   20CHTO  H227 8041   5.442   0.545   1.776
   20CHTO   O77 8042   5.478   0.649   1.595
   20CHTO  C118 8043   5.459   0.785   1.637
   20CHTO  H222 8044   5.485   0.795   1.744
   20CHTO  C125 8045   5.554   0.878   1.553
   20CHTO   O84 8046   5.690   0.864   1.596
   20CHTO  H205 8047   5.745   0.919   1.544
   20CHTO  C114 8048   5.312   0.823   1.617
   20CHTO  H218 8049   5.285   0.807   1.512
   20CHTO  C116 8050   5.220   0.731   1.703
   20CHTO  H220 8051   5.241   0.750   1.811
   20CHTO   O79 8052   5.083   0.769   1.680
   20CHTO  H201 8053   5.026   0.720   1.736
   20CHTO  C120 8054   5.248   0.579   1.669
   20CHTO  H224 8055   5.209   0.563   1.567
   20CHTO   N21 8056   5.172   0.487   1.759
   20CHTO  H211 8057   5.159   0.531   1.857
   20CHTO  H212 8058   5.221   0.391   1.766
   20CHTO   O75 8059   5.303   0.962   1.652
   20CHTO  C112 8060   5.217   1.053   1.546
   20CHTO  H216 8061   5.113   1.015   1.544
   20CHTO   O73 8062   5.280   1.042   1.417
   20CHTO  C113 8063   5.210   1.112   1.313
   20CHTO  H217 8064   5.104   1.079   1.311
   20CHTO  C124 8065   5.275   1.069   1.181
   20CHTO   O83 8066   5.195   1.101   1.066
   20CHTO  H204 8067   5.117   1.049   1.065
   20CHTO  C109 8068   5.218   1.265   1.341
   20CHTO  H213 8069   5.325   1.292   1.342
   20CHTO  C110 8070   5.155   1.294   1.482
   20CHTO  H214 8071   5.047   1.275   1.475
   20CHTO   O78 8072   5.173   1.433   1.514
   20CHTO  H200 8073   5.122   1.487   1.456
   20CHTO  C111 8074   5.217   1.203   1.592
   20CHTO  H215 8075   5.322   1.233   1.607
   20CHTO   N19 8076   5.151   1.216   1.725
   20CHTO  H207 8077   5.046   1.190   1.717
   20CHTO  H208 8078   5.160   1.317   1.761
   20CHTO   O74 8079   5.150   1.343   1.238
   20CHTO  C115 8080   5.251   1.435   1.138
   20CHTO  H219 8081   5.354   1.435   1.174
   20CHTO   O76 8082   5.258   1.376   0.992
   20CHTO  C122 8083   5.331   1.452   0.895
   20CHTO  H226 8084   5.311   1.407   0.798
   20CHTO  C126 8085   5.486   1.438   0.918
   20CHTO   O85 8086   5.531   1.303   0.903
   20CHTO  H206 8087   5.497   1.250   0.973
   20CHTO  C121 8088   5.286   1.603   0.890
   20CHTO  H225 8089   5.360   1.657   0.828
   20CHTO   O81 8090   5.157   1.611   0.827
   20CHTO  H202 8091   5.136   1.700   0.807
   20CHTO  C119 8092   5.280   1.670   1.031
   20CHTO  H223 8093   5.384   1.678   1.065
   20CHTO  C117 8094   5.199   1.584   1.135
   20CHTO  H221 8095   5.092   1.575   1.116
   20CHTO   N20 8096   5.210   1.645   1.271
   20CHTO  H209 8097   5.173   1.747   1.268
   20CHTO  H210 8098   5.153   1.587   1.342
   20CHTO   O80 8099   5.234   1.830   1.026
   20CHTO  C103 8100   5.329   1.943   0.956
   20CHTO  H190 8101   5.304   2.040   0.997
   20CHTO  C101 8102   5.484   1.926   0.969
   20CHTO  H188 8103   5.513   1.827   0.933
   20CHTO   O68 8104   5.521   1.937   1.119
   20CHTO  H168 8105   5.613   1.921   1.131
   20CHTO   C99 8106   5.560   2.037   0.881
   20CHTO  H186 8107   5.539   2.137   0.924
   20CHTO   N17 8108   5.710   2.021   0.880
   20CHTO  H174 8109   5.755   2.104   0.828
   20CHTO  H175 8110   5.746   2.014   0.981
   20CHTO   C97 8111   5.503   2.041   0.736
   20CHTO  H184 8112   5.535   1.950   0.683
   20CHTO   O64 8113   5.359   2.053   0.737
   20CHTO  C104 8114   5.290   1.946   0.804
   20CHTO  H191 8115   5.315   1.851   0.758
   20CHTO  C108 8116   5.138   1.963   0.787
   20CHTO   O71 8117   5.097   1.931   0.654
   20CHTO  H171 8118   5.004   1.941   0.646
   20CHTO   O62 8119   5.550   2.158   0.666
   20CHTO   C91 8120   5.539   2.163   0.522
   20CHTO  H178 8121   5.461   2.093   0.491
   20CHTO   C92 8122   5.672   2.116   0.454
   20CHTO  H179 8123   5.755   2.176   0.495
   20CHTO   O66 8124   5.698   1.981   0.494
   20CHTO  H166 8125   5.782   1.953   0.461
   20CHTO   C93 8126   5.665   2.130   0.296
   20CHTO  H180 8127   5.592   2.057   0.259
   20CHTO   N16 8128   5.793   2.098   0.228
   20CHTO  H172 8129   5.872   2.163   0.264
   20CHTO  H173 8130   5.820   1.995   0.246
   20CHTO   C94 8131   5.617   2.274   0.257
   20CHTO  H181 8132   5.686   2.351   0.292
   20CHTO   O61 8133   5.492   2.303   0.323
   20CHTO   C95 8134   5.503   2.306   0.466
   20CHTO  H182 8135   5.582   2.376   0.494
   20CHTO  C106 8136   5.371   2.362   0.528
   20CHTO   O69 8137   5.345   2.496   0.486
   20CHTO  H169 8138   5.267   2.527   0.527
   20CHTO   O63 8139   5.597   2.291   0.094
   20CHTO   C96 8140   5.475   2.218   0.032
   20CHTO  H183 8141   5.429   2.157   0.109
   20CHTO   C98 8142   5.513   2.125   3.348
   20CHTO  H185 8143   5.590   2.052   3.379
   20CHTO   O67 8144   5.397   2.047   3.316
   20CHTO  H167 8145   5.418   1.983   3.250
   20CHTO  C102 8146   5.558   2.208   3.218
   20CHTO  H189 8147   5.536   2.143   3.132
   20CHTO   N18 8148   5.703   2.238   3.210
   20CHTO  H176 8149   5.759   2.147   3.208
   20CHTO  H177 8150   5.733   2.298   3.295
   20CHTO  C105 8151   5.471   2.337   3.204
   20CHTO  H192 8152   5.527   2.424   3.241
   20CHTO   O65 8153   5.348   2.331   3.280
   20CHTO  C100 8154   5.373   2.331   3.422
   20CHTO  H187 8155   5.415   2.429   0.011
   20CHTO  C107 8156   5.238   2.318   0.061
   20CHTO   O70 8157   5.154   2.432   0.038
   20CHTO  H170 8158   5.191   2.507   0.080
   20CHTO   O57 8159   5.442   2.354   3.046
   20CHTO   C85 8160   5.397   2.482   2.998
   20CHTO  H157 8161   5.349   2.533   3.085
   20CHTO   C83 8162   5.283   2.462   2.893
   20CHTO  H155 8163   5.202   2.406   2.941
   20CHTO   O56 8164   5.331   2.381   2.785
   20CHTO  H135 8165   5.261   2.361   2.726
   20CHTO   C81 8166   5.229   2.602   2.851
   20CHTO  H153 8167   5.194   2.653   2.941
   20CHTO   N14 8168   5.107   2.592   2.766
   20CHTO  H141 8169   5.067   2.690   2.748
   20CHTO  H142 8170   5.131   2.547   2.672
   20CHTO   C79 8171   5.344   2.688   2.787
   20CHTO  H151 8172   5.305   2.789   2.774
   20CHTO   O52 8173   5.458   2.699   2.879
   20CHTO   C86 8174   5.509   2.572   2.931
   20CHTO  H158 8175   5.555   2.521   2.844
   20CHTO   C90 8176   5.624   2.597   3.032
   20CHTO   O60 8177   5.731   2.672   2.975
   20CHTO  H138 8178   5.774   2.622   2.908
   20CHTO   O50 8179   5.388   2.643   2.658
   20CHTO   C73 8180   5.481   2.679   2.554
   20CHTO  H145 8181   5.583   2.652   2.586
   20CHTO   C74 8182   5.477   2.832   2.524
   20CHTO  H146 8183   5.497   2.884   2.619
   20CHTO   O54 8184   5.587   2.864   2.436
   20CHTO  H133 8185   5.576   2.821   2.353
   20CHTO   C75 8186   5.335   2.871   2.465
   20CHTO  H147 8187   5.259   2.850   2.541
   20CHTO   N13 8188   5.321   3.015   2.432
   20CHTO  H139 8189   5.337   3.075   2.521
   20CHTO  H140 8190   5.221   3.035   2.395
   20CHTO   C76 8191   5.303   2.779   2.339
   20CHTO  H148 8192   5.375   2.803   2.260
   20CHTO   O49 8193   5.317   2.638   2.374
   20CHTO   C77 8194   5.446   2.600   2.424
   20CHTO  H149 8195   5.524   2.620   2.350
   20CHTO   C88 8196   5.446   2.449   2.448
   20CHTO   O58 8197   5.410   2.374   2.323
   20CHTO  H136 8198   5.479   2.384   2.260
   20CHTO   O51 8199   5.145   2.799   2.286
   20CHTO   C78 8200   5.036   2.693   2.349
   20CHTO  H150 8201   5.075   2.646   2.442
   20CHTO   C80 8202   5.005   2.582   2.246
   20CHTO  H152 8203   4.971   2.630   2.152
   20CHTO   O55 8204   5.128   2.512   2.219
   20CHTO  H134 8205   5.187   2.566   2.171
   20CHTO   C84 8206   4.893   2.483   2.297
   20CHTO  H156 8207   4.933   2.432   2.385
   20CHTO   N15 8208   4.857   2.378   2.196
   20CHTO  H143 8209   4.873   2.280   2.237
   20CHTO  H144 8210   4.755   2.386   2.164
   20CHTO   C87 8211   4.769   2.564   2.343
   20CHTO  H159 8212   4.720   2.609   2.257
   20CHTO   O53 8213   4.814   2.676   2.444
   20CHTO   C82 8214   4.907   2.768   2.385
   20CHTO  H154 8215   4.863   2.814   2.296
   20CHTO   C89 8216   4.936   2.882   2.485
   20CHTO   O59 8217   4.818   2.961   2.507
   20CHTO  H137 8218   4.837   3.029   2.568
   20CHTO   O45 8219   4.660   2.462   2.416
   20CHTO   C67 8220   4.613   2.496   2.547
   20CHTO  H124 8221   4.698   2.528   2.608
   20CHTO   C65 8222   4.507   2.612   2.542
   20CHTO  H122 8223   4.485   2.629   2.437
   20CHTO   O44 8224   4.568   2.730   2.597
   20CHTO  H102 8225   4.640   2.757   2.544
   20CHTO   C63 8226   4.369   2.570   2.606
   20CHTO  H120 8227   4.325   2.491   2.545
   20CHTO   N11 8228   4.260   2.673   2.602
   20CHTO  H108 8229   4.299   2.768   2.571
   20CHTO  H109 8230   4.214   2.683   2.698
   20CHTO   C61 8231   4.396   2.506   2.748
   20CHTO  H118 8232   4.301   2.462   2.781
   20CHTO   O40 8233   4.493   2.397   2.745
   20CHTO   C68 8234   4.557   2.366   2.617
   20CHTO  H125 8235   4.480   2.320   2.551
   20CHTO   C72 8236   4.667   2.259   2.640
   20CHTO   O48 8237   4.771   2.301   2.729
   20CHTO  H105 8238   4.832   2.232   2.740
   20CHTO   O38 8239   4.445   2.603   2.844
   20CHTO   C55 8240   4.414   2.575   2.982
   20CHTO  H112 8241   4.387   2.469   2.995
   20CHTO   C56 8242   4.297   2.671   3.029
   20CHTO  H113 8243   4.326   2.774   3.001
   20CHTO   O42 8244   4.177   2.643   2.955
   20CHTO  H100 8245   4.148   2.555   2.972
   20CHTO   C57 8246   4.273   2.662   3.185
   20CHTO  H114 8247   4.228   2.565   3.204
   20CHTO   N10 8248   4.178   2.765   3.237
   20CHTO  H106 8249   4.127   2.727   3.324
   20CHTO  H107 8250   4.105   2.789   3.161
   20CHTO   C58 8251   4.408   2.670   3.262
   20CHTO  H115 8252   4.451   2.772   3.250
   20CHTO   O37 8253   4.501   2.574   3.208
   20CHTO   C59 8254   4.538   2.598   3.072
   20CHTO  H116 8255   4.575   2.700   3.061
   20CHTO   C70 8256   4.653   2.501   3.039
   20CHTO   O46 8257   4.718   2.531   2.915
   20CHTO  H103 8258   4.763   2.613   2.921
   20CHTO   O39 8259   4.382   2.640   3.426
   20CHTO   C60 8260   4.471   2.549   0.058
   20CHTO  H117 8261   4.487   2.461   3.433
   20CHTO   C62 8262   4.610   2.614   0.090
   20CHTO  H119 8263   4.657   2.634   3.428
   20CHTO   O43 8264   4.591   2.739   0.158
   20CHTO  H101 8265   4.551   2.725   0.242
   20CHTO   C66 8266   4.701   2.509   0.172
   20CHTO  H123 8267   4.711   2.418   0.113
   20CHTO   N12 8268   4.839   2.558   0.194
   20CHTO  H110 8269   4.888   2.572   0.099
   20CHTO  H111 8270   4.837   2.650   0.251
   20CHTO   C69 8271   4.629   2.470   0.304
   20CHTO  H126 8272   4.614   2.560   0.368
   20CHTO   O41 8273   4.492   2.407   0.269
   20CHTO   C64 8274   4.401   2.501   0.189
   20CHTO  H121 8275   4.377   2.590   0.251
   20CHTO   C71 8276   4.268   2.428   0.159
   20CHTO   O47 8277   4.288   2.307   0.085
   20CHTO  H104 8278   4.205   2.267   0.068
   20CHTO   O34 8279   4.711   2.366   0.385
   20CHTO   C49 8280   4.742   2.253   0.479
   20CHTO   H91 8281   4.691   2.273   0.573
   20CHTO   C47 8282   4.895   2.251   0.501
   20CHTO   H89 8283   4.911   2.173   0.580
   20CHTO   O33 8284   4.941   2.377   0.553
   20CHTO   H70 8285   5.031   2.371   0.578
   20CHTO   C45 8286   4.974   2.213   0.364
   20CHTO   H87 8287   5.000   2.306   0.313
   20CHTO    N8 8288   5.100   2.142   0.399
   20CHTO   H75 8289   5.159   2.203   0.466
   20CHTO   H76 8290   5.156   2.120   0.310
   20CHTO   C43 8291   4.876   2.135   0.262
   20CHTO   H85 8292   4.820   2.213   0.212
   20CHTO   O29 8293   4.791   2.045   0.335
   20CHTO   C50 8294   4.698   2.113   0.423
   20CHTO   H92 8295   4.605   2.129   0.366
   20CHTO   C54 8296   4.654   2.017   0.535
   20CHTO   O36 8297   4.764   1.966   0.611
   20CHTO   H72 8298   4.732   1.908   0.678
   20CHTO   O27 8299   4.947   2.068   0.156
   20CHTO   C37 8300   4.926   2.022   0.022
   20CHTO   H79 8301   4.833   1.965   0.016
   20CHTO   C38 8302   4.915   2.141   3.359
   20CHTO   H80 8303   4.999   2.210   3.377
   20CHTO   O31 8304   4.792   2.211   3.389
   20CHTO   H68 8305   4.786   2.289   3.338
   20CHTO   C39 8306   4.917   2.094   3.208
   20CHTO   H81 8307   4.823   2.043   3.188
   20CHTO    N7 8308   4.928   2.208   3.111
   20CHTO   H73 8309   4.844   2.275   3.124
   20CHTO   H74 8310   4.929   2.170   3.010
   20CHTO   C40 8311   5.032   1.988   3.185
   20CHTO   H82 8312   5.129   2.037   3.188
   20CHTO   O26 8313   5.022   1.883   3.282
   20CHTO   C41 8314   5.044   1.929   3.418
   20CHTO   H83 8315   5.139   1.985   3.424
   20CHTO   C52 8316   5.055   1.806   0.075
   20CHTO   O35 8317   5.165   1.718   0.036
   20CHTO   H71 8318   5.168   1.645   0.094
   20CHTO   O28 8319   5.017   1.922   3.057
   20CHTO   C42 8320   5.118   1.833   2.999
   20CHTO   H84 8321   5.080   1.814   2.899
   20CHTO   C44 8322   5.133   1.692   3.067
   20CHTO   H86 8323   5.167   1.707   3.170
   20CHTO   O32 8324   5.002   1.633   3.069
   20CHTO   H69 8325   5.004   1.552   3.116
   20CHTO   C48 8326   5.240   1.602   2.992
   20CHTO   H90 8327   5.201   1.580   2.892
   20CHTO    N9 8328   5.259   1.469   3.058
   20CHTO   H77 8329   5.295   1.483   3.159
   20CHTO   H78 8330   5.327   1.408   3.001
   20CHTO   C51 8331   5.374   1.682   2.977
   20CHTO   H93 8332   5.414   1.701   3.077
   20CHTO   O30 8333   5.348   1.805   2.907
   20CHTO   C46 8334   5.258   1.898   2.983
   20CHTO   H88 8335   5.302   1.916   3.082
   20CHTO   C53 8336   5.250   2.031   2.905
   20CHTO   O72 8337   5.379   2.094   2.898
   20CHTO  H199 8338   5.404   2.125   2.982
   20CHTO   O22 8339   5.471   1.614   2.895
   20CHTO   C31 8340   5.616   1.644   2.903
   20CHTO   H59 8341   5.664   1.585   2.822
   20CHTO   C29 8342   5.653   1.792   2.880
   20CHTO   H57 8343   5.600   1.852   2.956
   20CHTO   O21 8344   5.600   1.831   2.751
   20CHTO   H37 8345   5.609   1.924   2.740
   20CHTO   C27 8346   5.808   1.819   2.892
   20CHTO   H55 8347   5.859   1.769   2.808
   20CHTO    N5 8348   5.842   1.963   2.887
   20CHTO   H43 8349   5.806   2.006   2.794
   20CHTO   H44 8350   5.798   2.015   2.971
   20CHTO   C25 8351   5.865   1.753   3.022
   20CHTO   H53 8352   5.828   1.807   3.111
   20CHTO   O17 8353   5.823   1.614   3.033
   20CHTO   C32 8354   5.681   1.594   3.036
   20CHTO   H60 8355   5.638   1.649   3.119
   20CHTO   C36 8356   5.655   1.443   3.059
   20CHTO   O25 8357   5.703   1.400   3.187
   20CHTO   H40 8358   5.797   1.402   3.188
   20CHTO   O15 8359   6.018   1.754   3.021
   20CHTO   C19 8360   6.162   1.770   3.016
   20CHTO   H47 8361   6.182   1.796   2.911
   20CHTO   C20 8362   6.217   1.884   3.107
   20CHTO   H48 8363   6.188   1.869   3.213
   20CHTO   O19 8364   6.154   2.006   3.062
   20CHTO   H35 8365   6.177   2.077   3.119
   20CHTO   C21 8366   6.375   1.894   3.100
   20CHTO   H49 8367   6.403   1.922   2.998
   20CHTO    N4 8368   6.431   1.997   3.190
   20CHTO   H41 8369   6.539   2.001   3.180
   20CHTO   H42 8370   6.391   2.094   3.165
   20CHTO   C22 8371   6.434   1.753   3.126
   20CHTO   H50 8372   6.410   1.723   3.228
   20CHTO   O14 8373   6.379   1.659   3.033
   20CHTO   C23 8374   6.238   1.636   3.043
   20CHTO   H51 8375   6.217   1.597   3.144
   20CHTO   C34 8376   6.206   1.527   2.941
   20CHTO   O23 8377   6.070   1.483   2.947
   20CHTO   H38 8378   6.055   1.416   2.883
   20CHTO   O16 8379   6.576   1.747   3.103
   20CHTO   C24 8380   6.643   1.610   3.156
   20CHTO   H52 8381   6.567   1.535   3.180
   20CHTO   C26 8382   6.725   1.640   3.283
   20CHTO   H54 8383   6.772   1.741   3.272
   20CHTO   O20 8384   6.636   1.651   3.395
   20CHTO   H36 8385   6.682   1.682   0.034
   20CHTO   C30 8386   6.835   1.532   3.314
   20CHTO   H58 8387   6.829   1.503   3.420
   20CHTO    N6 8388   6.974   1.583   3.298
   20CHTO   H45 8389   7.027   1.530   3.220
   20CHTO   H46 8390   6.975   1.689   3.274
   20CHTO   C33 8391   6.809   1.402   3.233
   20CHTO   H61 8392   6.890   1.330   3.250
   20CHTO   O18 8393   6.799   1.427   3.091
   20CHTO   C28 8394   6.734   1.548   3.046
   20CHTO   H56 8395   6.811   1.621   3.019
   20CHTO   C35 8396   6.652   1.517   2.919
   20CHTO   O24 8397   6.734   1.483   2.807
   20CHTO   H39 8398   6.774   1.400   2.821
   20CHTO    O9 8399   6.690   1.340   3.285
   20CHTO   C13 8400   6.697   1.182   3.315
   20CHTO   H26 8401   6.803   1.156   3.337
   20CHTO   C11 8402   6.642   1.100   3.190
   20CHTO   H24 8403   6.721   1.095   3.114
   20CHTO    O8 8404   6.530   1.169   3.130
   20CHTO    H3 8405   6.557   1.251   3.095
   20CHTO    C9 8406   6.605   0.958   3.238
   20CHTO   H22 8407   6.693   0.921   3.294
   20CHTO    N2 8408   6.587   0.859   3.129
   20CHTO   H10 8409   6.571   0.761   3.170
   20CHTO   H11 8410   6.675   0.859   3.065
   20CHTO    C7 8411   6.483   0.969   3.339
   20CHTO   H20 8412   6.494   0.881   3.406
   20CHTO    O4 8413   6.486   1.090   3.417
   20CHTO   C14 8414   6.616   1.144   0.011
   20CHTO   H27 8415   6.674   1.067   0.066
   20CHTO   C18 8416   6.598   1.264   0.107
   20CHTO   O13 8417   6.724   1.314   0.154
   20CHTO    H7 8418   6.763   1.251   0.212
   20CHTO    O2 8419   6.335   0.960   3.260
   20CHTO    C1 8420   6.218   0.972   3.343
   20CHTO   H14 8421   6.243   1.029   3.435
   20CHTO    C2 8422   6.155   0.833   3.385
   20CHTO   H15 8423   6.141   0.776   3.292
   20CHTO    O6 8424   6.248   0.763   0.033
   20CHTO    H1 8425   6.325   0.738   3.421
   20CHTO    C3 8426   6.013   0.853   0.022
   20CHTO   H16 8427   6.033   0.895   0.121
   20CHTO    N1 8428   5.943   0.722   0.043
   20CHTO    H8 8429   5.848   0.719   3.428
   20CHTO    H9 8430   5.927   0.705   0.149
   20CHTO    C4 8431   5.923   0.958   3.383
   20CHTO   H17 8432   5.884   0.913   3.292
   20CHTO    O1 8433   5.998   1.077   3.353
   20CHTO    C5 8434   6.111   1.054   3.267
   20CHTO   H18 8435   6.080   0.997   3.179
   20CHTO   C16 8436   6.164   1.192   3.220
   20CHTO   O11 8437   6.066   1.260   3.142
   20CHTO    H5 8438   6.100   1.342   3.112
   20CHTO    O3 8439   5.814   1.001   0.031
   20CHTO    C6 8440   5.716   1.093   3.409
   20CHTO   H19 8441   5.752   1.139   3.316
   20CHTO    C8 8442   5.582   1.019   3.377
   20CHTO   H21 8443   5.549   0.969   0.032
   20CHTO    O7 8444   5.611   0.921   3.276
   20CHTO    H2 8445   5.535   0.869   3.259
   20CHTO   C12 8446   5.472   1.123   3.332
   20CHTO   H25 8447   5.506   1.165   3.235
   20CHTO    N3 8448   5.340   1.057   3.306
   20CHTO   H12 8449   5.350   0.984   3.227
   20CHTO   H13 8450   5.304   1.009   3.396
   20CHTO   C15 8451   5.462   1.240   0.000
   20CHTO   H28 8452   5.420   1.206   0.095
   20CHTO   O10 8453   5.379   1.361   3.385
   20CHTO    H4 8454   5.366   1.423   0.018
   20CHTO    O5 8455   5.591   1.299   0.021
   20CHTO   C10 8456   5.689   1.209   0.072
   20CHTO   H23 8457   5.653   1.167   0.167
   20CHTO   C17 8458   5.816   1.289   0.103
   20CHTO   O12 8459   5.793   1.383   0.209
   20CHTO    H6 8460   5.782   1.338   0.290
   21GLOH   H03 8461   9.291   3.677   2.682
   21GLOH    O1 8462   9.305   3.738   2.760
   21GLOH    C1 8463   9.416   3.684   2.834
   21GLOH   H02 8464   9.496   3.654   2.767
   21GLOH   H08 8465   9.385   3.594   2.887
   21GLOH    C2 8466   9.476   3.782   2.939
   21GLOH   H04 8467   9.514   3.723   3.023
   21GLOH    O2 8468   9.584   3.858   2.881
   21GLOH   H05 8469   9.630   3.910   2.950
   21GLOH    C3 8470   9.367   3.877   2.991
   21GLOH   H06 8471   9.351   3.957   2.918
   21GLOH   H07 8472   9.403   3.924   3.083
   21GLOH    O3 8473   9.244   3.808   3.016
   21GLOH   H01 8474   9.219   3.768   2.929
   22GLOH   H03 8475   2.363   3.631   3.084
   22GLOH    O1 8476   2.391   3.725   3.076
   22GLOH    C1 8477   2.315   3.802   3.170
   22GLOH   H02 8478   2.218   3.830   3.127
   22GLOH   H08 8479   2.367   3.895   3.194
   22GLOH    C2 8480   2.290   3.725   3.301
   22GLOH   H04 8481   2.387   3.698   3.345
   22GLOH    O2 8482   2.217   3.807   3.396
   22GLOH   H05 8483   2.273   3.886   3.419
   22GLOH    C3 8484   2.212   3.595   3.272
   22GLOH   H06 8485   2.112   3.622   3.237
   22GLOH   H07 8486   2.200   3.541   3.365
   22GLOH    O3 8487   2.279   3.512   3.174
   22GLOH   H01 8488   2.232   3.427   3.166
   23GLOH   H03 8489   8.754   5.154   2.746
   23GLOH    O1 8490   8.657   5.169   2.741
   23GLOH    C1 8491   8.629   5.301   2.790
   23GLOH   H02 8492   8.631   5.302   2.899
   23GLOH   H08 8493   8.528   5.332   2.761
   23GLOH    C2 8494   8.729   5.406   2.738
   23GLOH   H04 8495   8.720   5.410   2.628
   23GLOH    O2 8496   8.702   5.538   2.791
   23GLOH   H05 8497   8.691   5.533   2.888
   23GLOH    C3 8498   8.873   5.363   2.773
   23GLOH   H06 8499   8.883   5.361   2.881
   23GLOH   H07 8500   8.942   5.439   2.735
   23GLOH    O3 8501   8.906   5.234   2.718
   23GLOH   H01 8502   8.924   5.245   2.620
   24GLOH   H03 8503   3.436   1.459   0.475
   24GLOH    O1 8504   3.458   1.405   0.394
   24GLOH    C1 8505   3.579   1.331   0.419
   24GLOH   H02 8506   3.573   1.279   0.514
   24GLOH   H08 8507   3.664   1.400   0.426
   24GLOH    C2 8508   3.610   1.227   0.310
   24GLOH   H04 8509   3.622   1.280   0.214
   24GLOH    O2 8510   3.733   1.160   0.342
   24GLOH   H05 8511   3.733   1.066   0.306
   24GLOH    C3 8512   3.492   1.129   0.296
   24GLOH   H06 8513   3.483   1.071   0.388
   24GLOH   H07 8514   3.514   1.058   0.216
   24GLOH    O3 8515   3.370   1.200   0.269
   24GLOH   H01 8516   3.378   1.285   0.319
   25GLOH   H03 8517   2.201   2.158   0.436
   25GLOH    O1 8518   2.278   2.096   0.425
   25GLOH    C1 8519   2.235   1.961   0.455
   25GLOH   H02 8520   2.199   1.956   0.558
   25GLOH   H08 8521   2.320   1.894   0.449
   25GLOH    C2 8522   2.125   1.906   0.363
   25GLOH   H04 8523   2.104   1.804   0.398
   25GLOH    O2 8524   2.002   1.981   0.374
   25GLOH   H05 8525   1.945   1.935   0.441
   25GLOH    C3 8526   2.172   1.895   0.217
   25GLOH   H06 8527   2.218   1.989   0.188
   25GLOH   H07 8528   2.085   1.881   0.153
   25GLOH    O3 8529   2.264   1.786   0.199
   25GLOH   H01 8530   2.213   1.701   0.206
   26GLOH   H03 8531   8.841   6.812   3.378
   26GLOH    O1 8532   8.888   6.895   3.403
   26GLOH    C1 8533   8.809   7.012   3.374
   26GLOH   H02 8534   8.807   7.030   3.267
   26GLOH   H08 8535   8.856   7.100   3.419
   26GLOH    C2 8536   8.664   7.005   3.425
   26GLOH   H04 8537   8.614   7.100   3.399
   26GLOH    O2 8538   8.590   6.897   3.362
   26GLOH   H05 8539   8.593   6.909   3.264
   26GLOH    C3 8540   8.660   6.990   0.141
   26GLOH   H06 8541   8.723   6.905   0.169
   26GLOH   H07 8542   8.559   6.964   0.171
   26GLOH    O3 8543   8.704   7.108   0.210
   26GLOH   H01 8544   8.636   7.125   0.281
   27GLOH   H03 8545   8.308   8.973   2.346
   27GLOH    O1 8546   8.388   8.927   2.384
   27GLOH    C1 8547   8.378   8.930   2.527
   27GLOH   H02 8548   8.463   8.877   2.572
   27GLOH   H08 8549   8.288   8.878   2.561
   27GLOH    C2 8550   8.375   9.074   2.583
   27GLOH   H04 8551   8.458   9.130   2.537
   27GLOH    O2 8552   8.251   9.139   2.551
   27GLOH   H05 8553   8.229   9.126   2.455
   27GLOH    C3 8554   8.398   9.073   2.735
   27GLOH   H06 8555   8.317   9.015   2.781
   27GLOH   H07 8556   8.388   9.174   2.773
   27GLOH    O3 8557   8.526   9.017   2.771
   27GLOH   H01 8558   8.598   9.052   2.715
   28GLOH   H03 8559   8.639   4.041   1.857
   28GLOH    O1 8560   8.729   4.042   1.898
   28GLOH    C1 8561   8.773   4.180   1.902
   28GLOH   H02 8562   8.817   4.200   2.000
   28GLOH   H08 8563   8.689   4.248   1.890
   28GLOH    C2 8564   8.878   4.212   1.794
   28GLOH   H04 8565   8.967   4.150   1.813
   28GLOH    O2 8566   8.827   4.182   1.662
   28GLOH   H05 8567   8.828   4.082   1.650
   28GLOH    C3 8568   8.920   4.360   1.804
   28GLOH   H06 8569   8.835   4.422   1.777
   28GLOH   H07 8570   8.998   4.379   1.731
   28GLOH    O3 8571   8.967   4.394   1.936
   28GLOH   H01 8572   8.999   4.489   1.934
   29GLOH   H03 8573   1.971   5.319   3.342
   29GLOH    O1 8574   2.027   5.334   3.422
   29GLOH    C1 8575   2.139   5.414   3.382
   29GLOH   H02 8576   2.194   5.449   0.033
   29GLOH   H08 8577   2.104   5.504   3.330
   29GLOH    C2 8578   2.237   5.339   3.290
   29GLOH   H04 8579   2.307   5.413   3.246
   29GLOH    O2 8580   2.312   5.240   3.364
   29GLOH   H05 8581   2.393   5.280   3.402
   29GLOH    C3 8582   2.160   5.270   3.176
   29GLOH   H06 8583   2.114   5.180   3.214
   29GLOH   H07 8584   2.233   5.239   3.100
   29GLOH    O3 8585   2.061   5.357   3.118
   29GLOH   H01 8586   2.076   5.366   3.021
   30GLOH   H03 8587   5.144   0.430   2.406
   30GLOH    O1 8588   5.171   0.337   2.383
   30GLOH    C1 8589   5.298   0.342   2.315
   30GLOH   H02 8590   5.344   0.243   2.315
   30GLOH   H08 8591   5.367   0.408   2.369
   30GLOH    C2 8592   5.290   0.390   2.169
   30GLOH   H04 8593   5.222   0.323   2.115
   30GLOH    O2 8594   5.239   0.525   2.158
   30GLOH   H05 8595   5.140   0.518   2.143
   30GLOH    C3 8596   5.428   0.380   2.101
   30GLOH   H06 8597   5.501   0.435   2.161
   30GLOH   H07 8598   5.423   0.430   2.004
   30GLOH    O3 8599   5.470   0.244   2.084
   30GLOH   H01 8600   5.530   0.217   2.158
   31GLOH   H03 8601   3.671   6.307   3.412
   31GLOH    O1 8602   3.761   6.278   0.002
   31GLOH    C1 8603   3.789   6.329   0.134
   31GLOH   H02 8604   3.754   6.432   0.144
   31GLOH   H08 8605   3.897   6.332   0.151
   31GLOH    C2 8606   3.725   6.244   0.246
   31GLOH   H04 8607   3.781   6.261   0.339
   31GLOH    O2 8608   3.587   6.281   0.266
   31GLOH   H05 8609   3.526   6.235   0.202
   31GLOH    C3 8610   3.734   6.094   0.211
   31GLOH   H06 8611   3.650   6.067   0.148
   31GLOH   H07 8612   3.724   6.037   0.304
   31GLOH    O3 8613   3.858   6.061   0.146
   31GLOH   H01 8614   3.864   6.122   0.069
   32GLOH   H03 8615   2.278   2.030   1.293
   32GLOH    O1 8616   2.211   2.050   1.222
   32GLOH    C1 8617   2.177   1.927   1.157
   32GLOH   H02 8618   2.079   1.934   1.109
   32GLOH   H08 8619   2.169   1.847   1.231
   32GLOH    C2 8620   2.279   1.884   1.050
   32GLOH   H04 8621   2.378   1.879   1.098
   32GLOH    O2 8622   2.245   1.753   1.000
   32GLOH   H05 8623   2.274   1.754   0.906
   32GLOH    C3 8624   2.287   1.984   0.934
   32GLOH   H06 8625   2.338   2.074   0.969
   32GLOH   H07 8626   2.186   2.013   0.905
   32GLOH    O3 8627   2.358   1.928   0.821
   32GLOH   H01 8628   2.393   2.002   0.764
   33GLOH   H03 8629   1.540   5.280   2.136
   33GLOH    O1 8630   1.507   5.207   2.077
   33GLOH    C1 8631   1.593   5.197   1.961
   33GLOH   H02 8632   1.674   5.126   1.981
   33GLOH   H08 8633   1.640   5.293   1.939
   33GLOH    C2 8634   1.517   5.149   1.836
   33GLOH   H04 8635   1.591   5.135   1.755
   33GLOH    O2 8636   1.449   5.024   1.862
   33GLOH   H05 8637   1.376   5.043   1.928
   33GLOH    C3 8638   1.418   5.259   1.791
   33GLOH   H06 8639   1.473   5.353   1.783
   33GLOH   H07 8640   1.344   5.273   1.870
   33GLOH    O3 8641   1.353   5.231   1.666
   33GLOH   H01 8642   1.322   5.136   1.666
   34GLOH   H03 8643   4.822   1.788   1.582
   34GLOH    O1 8644   4.861   1.703   1.618
   34GLOH    C1 8645   4.884   1.722   1.760
   34GLOH   H02 8646   4.924   1.631   1.804
   34GLOH   H08 8647   4.791   1.744   1.812
   34GLOH    C2 8648   4.985   1.835   1.790
   34GLOH   H04 8649   4.944   1.929   1.750
   34GLOH    O2 8650   5.002   1.848   1.933
   34GLOH   H05 8651   5.014   1.946   1.953
   34GLOH    C3 8652   5.120   1.807   1.722
   34GLOH   H06 8653   5.160   1.713   1.762
   34GLOH   H07 8654   5.190   1.886   1.750
   34GLOH    O3 8655   5.105   1.800   1.579
   34GLOH   H01 8656   5.025   1.744   1.563
   35GLOH   H03 8657   9.616   1.123   3.360
   35GLOH    O1 8658   9.673   1.055   3.315
   35GLOH    C1 8659   9.630   1.038   3.179
   35GLOH   H02 8660   9.712   0.998   3.119
   35GLOH   H08 8661   9.602   1.134   3.135
   35GLOH    C2 8662   9.510   0.942   3.168
   35GLOH   H04 8663   9.425   0.990   3.218
   35GLOH    O2 8664   9.476   0.919   3.029
   35GLOH   H05 8665   9.552   0.882   2.980
   35GLOH    C3 8666   9.540   0.809   3.240
   35GLOH   H06 8667   9.576   0.832   3.340
   35GLOH   H07 8668   9.621   0.758   3.188
   35GLOH    O3 8669   9.424   0.725   3.249
   35GLOH   H01 8670   9.382   0.722   3.160
   36GLOH   H03 8671   0.747   8.348   1.495
   36GLOH    O1 8672   0.725   8.441   1.467
   36GLOH    C1 8673   0.828   8.528   1.517
   36GLOH   H02 8674   0.816   8.628   1.476
   36GLOH   H08 8675   0.926   8.492   1.484
   36GLOH    C2 8676   0.826   8.536   1.670
   36GLOH   H04 8677   0.841   8.435   1.711
   36GLOH    O2 8678   0.934   8.621   1.717
   36GLOH   H05 8679   1.020   8.574   1.702
   36GLOH    C3 8680   0.688   8.587   1.717
   36GLOH   H06 8681   0.612   8.521   1.676
   36GLOH   H07 8682   0.671   8.685   1.674
   36GLOH    O3 8683   0.675   8.592   1.860
   36GLOH   H01 8684   0.577   8.596   1.879
   37GLOH   H03 8685   4.808   8.270   2.273
   37GLOH    O1 8686   4.807   8.180   2.231
   37GLOH    C1 8687   4.823   8.079   2.333
   37GLOH   H02 8688   4.926   8.081   2.369
   37GLOH   H08 8689   4.806   7.981   2.290
   37GLOH    C2 8690   4.729   8.094   2.455
   37GLOH   H04 8691   4.752   8.189   2.505
   37GLOH    O2 8692   4.590   8.092   2.417
   37GLOH   H05 8693   4.572   8.173   2.362
   37GLOH    C3 8694   4.755   7.980   2.555
   37GLOH   H06 8695   4.734   7.885   2.506
   37GLOH   H07 8696   4.684   7.989   2.638
   37GLOH    O3 8697   4.890   7.981   2.606
   37GLOH   H01 8698   4.898   8.053   2.671
   38GLOH   H03 8699   8.325   4.731   2.752
   38GLOH    O1 8700   8.417   4.710   2.783
   38GLOH    C1 8701   8.511   4.783   2.702
   38GLOH   H02 8702   8.612   4.761   2.736
   38GLOH   H08 8703   8.497   4.890   2.715
   38GLOH    C2 8704   8.501   4.751   2.551
   38GLOH   H04 8705   8.404   4.787   2.515
   38GLOH    O2 8706   8.604   4.821   2.478
   38GLOH   H05 8707   8.578   4.823   2.381
   38GLOH    C3 8708   8.509   4.600   2.525
   38GLOH   H06 8709   8.581   4.557   2.595
   38GLOH   H07 8710   8.550   4.584   2.425
   38GLOH    O3 8711   8.383   4.532   2.537
   38GLOH   H01 8712   8.405   4.435   2.535
   39GLOH   H03 8713   0.909   6.296   2.535
   39GLOH    O1 8714   0.817   6.330   2.517
   39GLOH    C1 8715   0.769   6.269   2.396
   39GLOH   H02 8716   0.660   6.270   2.395
   39GLOH   H08 8717   0.799   6.164   2.391
   39GLOH    C2 8718   0.820   6.340   2.270
   39GLOH   H04 8719   0.930   6.343   2.274
   39GLOH    O2 8720   0.778   6.267   2.153
   39GLOH   H05 8721   0.839   6.291   2.078
   39GLOH    C3 8722   0.767   6.486   2.267
   39GLOH   H06 8723   0.802   6.536   2.358
   39GLOH   H07 8724   0.658   6.483   2.273
   39GLOH    O3 8725   0.809   6.560   2.151
   39GLOH   H01 8726   0.908   6.555   2.146
   40GLOH   H03 8727   1.314   7.911   1.042
   40GLOH    O1 8728   1.336   7.975   1.115
   40GLOH    C1 8729   1.422   8.077   1.059
   40GLOH   H02 8730   1.502   8.031   1.000
   40GLOH   H08 8731   1.471   8.132   1.140
   40GLOH    C2 8732   1.349   8.179   0.970
   40GLOH   H04 8733   1.425   8.241   0.921
   40GLOH    O2 8734   1.271   8.114   0.868
   40GLOH   H05 8735   1.190   8.072   0.912
   40GLOH    C3 8736   1.260   8.273   1.054
   40GLOH   H06 8737   1.199   8.213   1.121
   40GLOH   H07 8738   1.192   8.325   0.987
   40GLOH    O3 8739   1.337   8.369   1.130
   40GLOH   H01 8740   1.381   8.430   1.065
   41GLOH   H03 8741   4.627   9.368   2.416
   41GLOH    O1 8742   4.630   9.358   2.515
   41GLOH    C1 8743   4.699   9.473   2.566
   41GLOH   H02 8744   4.656   9.565   2.525
   41GLOH   H08 8745   4.804   9.471   2.534
   41GLOH    C2 8746   4.696   9.483   2.719
   41GLOH   H04 8747   4.741   9.392   2.761
   41GLOH    O2 8748   4.773   9.599   2.762
   41GLOH   H05 8749   4.766   9.607   2.859
   41GLOH    C3 8750   4.550   9.491   2.767
   41GLOH   H06 8751   4.507   9.586   2.737
   41GLOH   H07 8752   4.548   9.488   2.876
   41GLOH    O3 8753   4.472   9.381   2.715
   41GLOH   H01 8754   4.519   9.352   2.633
   42GLOH   H03 8755   3.740   3.698   1.811
   42GLOH    O1 8756   3.671   3.755   1.767
   42GLOH    C1 8757   3.628   3.689   1.647
   42GLOH   H02 8758   3.652   3.582   1.650
   42GLOH   H08 8759   3.682   3.729   1.561
   42GLOH    C2 8760   3.477   3.706   1.621
   42GLOH   H04 8761   3.459   3.813   1.605
   42GLOH    O2 8762   3.437   3.635   1.501
   42GLOH   H05 8763   3.336   3.635   1.495
   42GLOH    C3 8764   3.394   3.664   1.744
   42GLOH   H06 8765   3.289   3.685   1.723
   42GLOH   H07 8766   3.422   3.729   1.827
   42GLOH    O3 8767   3.409   3.526   1.784
   42GLOH   H01 8768   3.345   3.509   1.857
   43GLOH   H03 8769   3.371   9.123   2.484
   43GLOH    O1 8770   3.442   9.053   2.488
   43GLOH    C1 8771   3.374   8.927   2.497
   43GLOH   H02 8772   3.270   8.938   2.467
   43GLOH   H08 8773   3.373   8.893   2.601
   43GLOH    C2 8774   3.435   8.816   2.411
   43GLOH   H04 8775   3.542   8.805   2.435
   43GLOH    O2 8776   3.367   8.692   2.440
   43GLOH   H05 8777   3.270   8.703   2.420
   43GLOH    C3 8778   3.421   8.845   2.260
   43GLOH   H06 8779   3.315   8.855   2.238
   43GLOH   H07 8780   3.456   8.757   2.206
   43GLOH    O3 8781   3.493   8.961   2.215
   43GLOH   H01 8782   3.546   8.934   2.136
   44GLOH   H03 8783   4.753   3.451   1.484
   44GLOH    O1 8784   4.805   3.527   1.448
   44GLOH    C1 8785   4.758   3.555   1.315
   44GLOH   H02 8786   4.813   3.495   1.242
   44GLOH   H08 8787   4.776   3.660   1.291
   44GLOH    C2 8788   4.607   3.526   1.300
   44GLOH   H04 8789   4.554   3.590   1.372
   44GLOH    O2 8790   4.558   3.557   1.168
   44GLOH   H05 8791   4.597   3.493   1.102
   44GLOH    C3 8792   4.579   3.379   1.335
   44GLOH   H06 8793   4.631   3.315   1.264
   44GLOH   H07 8794   4.472   3.360   1.323
   44GLOH    O3 8795   4.619   3.346   1.470
   44GLOH   H01 8796   4.629   3.247   1.475
   45GLOH   H03 8797   0.780   2.745   2.387
   45GLOH    O1 8798   0.720   2.670   2.362
   45GLOH    C1 8799   0.738   2.566   2.460
   45GLOH   H02 8800   0.816   2.498   2.428
   45GLOH   H08 8801   0.647   2.507   2.470
   45GLOH    C2 8802   0.775   2.622   2.599
   45GLOH   H04 8803   0.689   2.679   2.637
   45GLOH    O2 8804   0.802   2.514   2.691
   45GLOH   H05 8805   0.878   2.459   2.657
   45GLOH    C3 8806   0.895   2.717   2.588
   45GLOH   H06 8807   0.981   2.660   2.552
   45GLOH   H07 8808   0.921   2.753   2.687
   45GLOH    O3 8809   0.869   2.828   2.499
   45GLOH   H01 8810   0.813   2.895   2.548
   46GLOH   H03 8811   3.899   8.811   0.794
   46GLOH    O1 8812   3.926   8.747   0.724
   46GLOH    C1 8813   4.049   8.791   0.663
   46GLOH   H02 8814   4.122   8.817   0.739
   46GLOH   H08 8815   4.031   8.881   0.604
   46GLOH    C2 8816   4.109   8.683   0.571
   46GLOH   H04 8817   4.035   8.662   0.492
   46GLOH    O2 8818   4.231   8.729   0.509
   46GLOH   H05 8819   4.212   8.811   0.455
   46GLOH    C3 8820   4.132   8.552   0.648
   46GLOH   H06 8821   4.160   8.476   0.575
   46GLOH   H07 8822   4.037   8.520   0.691
   46GLOH    O3 8823   4.232   8.559   0.753
   46GLOH   H01 8824   4.226   8.474   0.804
   47GLOH   H03 8825   4.659   4.212   0.807
   47GLOH    O1 8826   4.696   4.152   0.876
   47GLOH    C1 8827   4.650   4.201   1.004
   47GLOH   H02 8828   4.697   4.298   1.026
   47GLOH   H08 8829   4.682   4.134   1.084
   47GLOH    C2 8830   4.497   4.219   1.014
   47GLOH   H04 8831   4.472   4.239   1.119
   47GLOH    O2 8832   4.453   4.331   0.933
   47GLOH   H05 8833   4.491   4.320   0.842
   47GLOH    C3 8834   4.426   4.090   0.971
   47GLOH   H06 8835   4.451   4.068   0.867
   47GLOH   H07 8836   4.318   4.108   0.973
   47GLOH    O3 8837   4.460   3.979   1.055
   47GLOH   H01 8838   4.396   3.980   1.131
   48GLOH   H03 8839   2.509   6.423   0.154
   48GLOH    O1 8840   2.416   6.455   0.142
   48GLOH    C1 8841   2.414   6.599   0.126
   48GLOH   H02 8842   2.490   6.629   0.054
   48GLOH   H08 8843   2.439   6.648   0.220
   48GLOH    C2 8844   2.278   6.653   0.077
   48GLOH   H04 8845   2.253   6.604   3.419
   48GLOH    O2 8846   2.171   6.628   0.172
   48GLOH   H05 8847   2.203   6.648   0.264
   48GLOH    C3 8848   2.288   6.804   0.050
   48GLOH   H06 8849   2.308   6.856   0.144
   48GLOH   H07 8850   2.191   6.840   0.014
   48GLOH    O3 8851   2.390   6.835   3.390
   48GLOH   H01 8852   2.383   6.929   3.365
   49GLOH   H03 8853   3.493   5.863   0.719
   49GLOH    O1 8854   3.493   5.944   0.777
   49GLOH    C1 8855   3.459   6.059   0.697
   49GLOH   H02 8856   3.351   6.063   0.682
   49GLOH   H08 8857   3.504   6.052   0.598
   49GLOH    C2 8858   3.504   6.192   0.760
   49GLOH   H04 8859   3.613   6.192   0.767
   49GLOH    O2 8860   3.462   6.302   0.676
   49GLOH   H05 8861   3.453   6.386   0.730
   49GLOH    C3 8862   3.447   6.208   0.902
   49GLOH   H06 8863   3.339   6.224   0.896
   49GLOH   H07 8864   3.490   6.299   0.945
   49GLOH    O3 8865   3.477   6.094   0.984
   49GLOH   H01 8866   3.488   6.020   0.919
   50GLOH   H03 8867   0.277   3.403   1.277
   50GLOH    O1 8868   0.351   3.409   1.343
   50GLOH    C1 8869   0.391   3.275   1.378
   50GLOH   H02 8870   0.487   3.277   1.431
   50GLOH   H08 8871   0.407   3.215   1.288
   50GLOH    C2 8872   0.288   3.202   1.467
   50GLOH   H04 8873   0.194   3.195   1.411
   50GLOH    O2 8874   0.334   3.068   1.498
   50GLOH   H05 8875   0.343   3.058   1.596
   50GLOH    C3 8876   0.262   3.284   1.595
   50GLOH   H06 8877   0.186   3.231   1.653
   50GLOH   H07 8878   0.217   3.379   1.566
   50GLOH    O3 8879   0.381   3.303   1.672
   50GLOH   H01 8880   0.395   3.219   1.722
   51GLOH   H03 8881   0.896   7.633   1.287
   51GLOH    O1 8882   0.845   7.717   1.274
   51GLOH    C1 8883   0.824   7.785   1.399
   51GLOH   H02 8884   0.741   7.856   1.389
   51GLOH   H08 8885   0.911   7.845   1.425
   51GLOH    C2 8886   0.791   7.691   1.517
   51GLOH   H04 8887   0.707   7.627   1.485
   51GLOH    O2 8888   0.904   7.606   1.549
   51GLOH   H05 8889   0.985   7.664   1.558
   51GLOH    C3 8890   0.746   7.771   1.640
   51GLOH   H06 8891   0.702   7.700   1.711
   51GLOH   H07 8892   0.666   7.839   1.610
   51GLOH    O3 8893   0.853   7.844   1.703
   51GLOH   H01 8894   0.898   7.782   1.766
   52GLOH   H03 8895   6.673   8.680   2.186
   52GLOH    O1 8896   6.716   8.684   2.275
   52GLOH    C1 8897   6.617   8.679   2.379
   52GLOH   H02 8898   6.661   8.640   2.471
   52GLOH   H08 8899   6.537   8.610   2.353
   52GLOH    C2 8900   6.554   8.816   2.411
   52GLOH   H04 8901   6.501   8.806   2.507
   52GLOH    O2 8902   6.656   8.917   2.428
   52GLOH   H05 8903   6.724   8.880   2.490
   52GLOH    C3 8904   6.451   8.855   2.305
   52GLOH   H06 8905   6.499   8.856   2.207
   52GLOH   H07 8906   6.418   8.957   2.325
   52GLOH    O3 8907   6.338   8.766   2.303
   52GLOH   H01 8908   6.353   8.696   2.235
   53GLOH   H03 8909   7.466   0.263   1.817
   53GLOH    O1 8910   7.471   0.330   1.892
   53GLOH    C1 8911   7.446   0.260   2.015
   53GLOH   H02 8912   7.451   0.331   2.098
   53GLOH   H08 8913   7.524   0.187   2.032
   53GLOH    C2 8914   7.308   0.191   2.020
   53GLOH   H04 8915   7.290   0.141   1.924
   53GLOH    O2 8916   7.308   0.093   2.126
   53GLOH   H05 8917   7.377   0.024   2.100
   53GLOH    C3 8918   7.197   0.297   2.041
   53GLOH   H06 8919   7.218   0.381   1.975
   53GLOH   H07 8920   7.205   0.335   2.143
   53GLOH    O3 8921   7.064   0.248   2.016
   53GLOH   H01 8922   7.029   0.202   2.097
   54GLOH   H03 8923   3.263   7.032   0.075
   54GLOH    O1 8924   3.280   6.972   3.434
   54GLOH    C1 8925   3.227   6.841   0.026
   54GLOH   H02 8926   3.245   6.814   0.130
   54GLOH   H08 8927   3.279   6.767   3.402
   54GLOH    C2 8928   3.076   6.827   3.434
   54GLOH   H04 8929   3.050   6.720   3.436
   54GLOH    O2 8930   2.996   6.896   0.096
   54GLOH   H05 8931   3.021   6.866   0.187
   54GLOH    C3 8932   3.042   6.882   3.294
   54GLOH   H06 8933   3.050   6.990   3.296
   54GLOH   H07 8934   2.938   6.858   3.272
   54GLOH    O3 8935   3.128   6.827   3.193
   54GLOH   H01 8936   3.216   6.867   3.204
   55GLOH   H03 8937   4.669   0.277   1.113
   55GLOH    O1 8938   4.675   0.180   1.091
   55GLOH    C1 8939   4.551   0.139   1.030
   55GLOH   H02 8940   4.525   0.207   0.948
   55GLOH   H08 8941   4.470   0.145   1.102
   55GLOH    C2 8942   4.556   9.996   0.972
   55GLOH   H04 8943   4.639   9.992   0.900
   55GLOH    O2 8944   4.581   9.899   1.076
   55GLOH   H05 8945   4.501   9.893   1.135
   55GLOH    C3 8946   4.427   9.965   0.895
   55GLOH   H06 8947   4.434   9.864   0.854
   55GLOH   H07 8948   4.420   0.033   0.811
   55GLOH    O3 8949   4.309   9.977   0.977
   55GLOH   H01 8950   4.326   9.931   1.063
   56GLOH   H03 8951   8.375   4.596   0.388
   56GLOH    O1 8952   8.447   4.560   0.331
   56GLOH    C1 8953   8.457   4.418   0.351
   56GLOH   H02 8954   8.456   4.367   0.255
   56GLOH   H08 8955   8.371   4.380   0.407
   56GLOH    C2 8956   8.585   4.376   0.427
   56GLOH   H04 8957   8.671   4.419   0.374
   56GLOH    O2 8958   8.586   4.425   0.563
   56GLOH   H05 8959   8.619   4.520   0.561
   56GLOH    C3 8960   8.599   4.223   0.425
   56GLOH   H06 8961   8.513   4.180   0.476
   56GLOH   H07 8962   8.687   4.195   0.483
   56GLOH    O3 8963   8.609   4.172   0.291
   56GLOH   H01 8964   8.583   4.076   0.293
   57GLOH   H03 8965   9.209   1.927   2.522
   57GLOH    O1 8966   9.288   1.868   2.512
   57GLOH    C1 8967   9.251   1.750   2.437
   57GLOH   H02 8968   9.232   1.778   2.334
   57GLOH   H08 8969   9.157   1.709   2.476
   57GLOH    C2 8970   9.356   1.637   2.438
   57GLOH   H04 8971   9.448   1.677   2.392
   57GLOH    O2 8972   9.387   1.590   2.571
   57GLOH   H05 8973   9.473   1.633   2.598
   57GLOH    C3 8974   9.309   1.518   2.353
   57GLOH   H06 8975   9.211   1.487   2.391
   57GLOH   H07 8976   9.377   1.435   2.370
   57GLOH    O3 8977   9.300   1.546   2.212
   57GLOH   H01 8978   9.216   1.598   2.194
   58GLOH   H03 8979   9.593   9.749   2.151
   58GLOH    O1 8980   9.538   9.806   2.092
   58GLOH    C1 8981   9.602   9.935   2.078
   58GLOH   H02 8982   9.636   9.948   1.976
   58GLOH   H08 8983   9.691   9.940   2.142
   58GLOH    C2 8984   9.507   0.051   2.113
   58GLOH   H04 8985   9.467   0.035   2.214
   58GLOH    O2 8986   9.575   0.179   2.109
   58GLOH   H05 8987   9.673   0.167   2.123
   58GLOH    C3 8988   9.390   0.050   2.014
   58GLOH   H06 8989   9.427   0.076   1.914
   58GLOH   H07 8990   9.319   0.128   2.042
   58GLOH    O3 8991   9.325   9.922   2.011
   58GLOH   H01 8992   9.396   9.857   2.037
   59GLOH   H03 8993   5.628   9.768   2.528
   59GLOH    O1 8994   5.702   9.823   2.491
   59GLOH    C1 8995   5.647   9.895   2.379
   59GLOH   H02 8996   5.580   9.973   2.415
   59GLOH   H08 8997   5.588   9.829   2.316
   59GLOH    C2 8998   5.757   9.959   2.293
   59GLOH   H04 8999   5.828   0.009   2.359
   59GLOH    O2 9000   5.827   9.857   2.218
   59GLOH   H05 9001   5.924   9.859   2.242
   59GLOH    C3 9002   5.699   0.065   2.198
   59GLOH   H06 9003   5.636   0.014   2.124
   59GLOH   H07 9004   5.782   0.109   2.145
   59GLOH    O3 9005   5.624   0.168   2.264
   59GLOH   H01 9006   5.655   0.179   2.358
   60GLOH   H03 9007   9.429   1.026   1.282
   60GLOH    O1 9008   9.439   0.933   1.249
   60GLOH    C1 9009   9.546   0.869   1.323
   60GLOH   H02 9010   9.530   0.880   1.430
   60GLOH   H08 9011   9.641   0.917   1.299
   60GLOH    C2 9012   9.557   0.719   1.290
   60GLOH   H04 9013   9.563   0.707   1.181
   60GLOH    O2 9014   9.676   0.663   1.351
   60GLOH   H05 9015   9.710   0.592   1.289
   60GLOH    C3 9016   9.431   0.646   1.340
   60GLOH   H06 9017   9.343   0.699   1.303
   60GLOH   H07 9018   9.428   0.652   1.449
   60GLOH    O3 9019   9.425   0.508   1.298
   60GLOH   H01 9020   9.358   0.461   1.354
   61GLOH   H03 9021   0.889   1.125   1.747
   61GLOH    O1 9022   0.927   1.172   1.825
   61GLOH    C1 9023   0.882   1.309   1.820
   61GLOH   H02 9024   0.922   1.357   1.730
   61GLOH   H08 9025   0.921   1.365   1.905
   61GLOH    C2 9026   0.728   1.323   1.819
   61GLOH   H04 9027   0.688   1.259   1.739
   61GLOH    O2 9028   0.673   1.280   1.946
   61GLOH   H05 9029   0.712   1.338   2.017
   61GLOH    C3 9030   0.684   1.468   1.792
   61GLOH   H06 9031   0.699   1.527   1.882
   61GLOH   H07 9032   0.577   1.468   1.771
   61GLOH    O3 9033   0.755   1.528   1.682
   61GLOH   H01 9034   0.834   1.576   1.722
   62GLOH   H03 9035   4.028   0.744   0.160
   62GLOH    O1 9036   4.032   0.654   0.121
   62GLOH    C1 9037   3.933   0.569   0.183
   62GLOH   H02 9038   3.846   0.560   0.118
   62GLOH   H08 9039   3.898   0.613   0.277
   62GLOH    C2 9040   3.988   0.429   0.212
   62GLOH   H04 9041   4.072   0.440   0.283
   62GLOH    O2 9042   3.888   0.344   0.273
   62GLOH   H05 9043   3.798   0.363   0.234
   62GLOH    C3 9044   4.044   0.364   0.084
   62GLOH   H06 9045   3.964   0.354   0.012
   62GLOH   H07 9046   4.080   0.264   0.107
   62GLOH    O3 9047   4.151   0.444   0.031
   62GLOH   H01 9048   4.124   0.538   0.046
   63GLOH   H03 9049   8.108   5.915   2.559
   63GLOH    O1 9050   8.177   5.902   2.491
   63GLOH    C1 9051   8.298   5.969   2.533
   63GLOH   H02 9052   8.335   5.927   2.626
   63GLOH   H08 9053   8.277   6.075   2.552
   63GLOH    C2 9054   8.410   5.961   2.428
   63GLOH   H04 9055   8.378   6.018   2.339
   63GLOH    O2 9056   8.532   6.019   2.479
   63GLOH   H05 9057   8.585   5.950   2.526
   63GLOH    C3 9058   8.434   5.815   2.384
   63GLOH   H06 9059   8.468   5.758   2.471
   63GLOH   H07 9060   8.514   5.814   2.311
   63GLOH    O3 9061   8.314   5.757   2.331
   63GLOH   H01 9062   8.240   5.800   2.381
   64GLOH   H03 9063   8.248   9.586   1.281
   64GLOH    O1 9064   8.179   9.557   1.217
   64GLOH    C1 9065   8.082   9.474   1.284
   64GLOH   H02 9066   8.118   9.372   1.289
   64GLOH   H08 9067   7.989   9.471   1.226
   64GLOH    C2 9068   8.047   9.520   1.427
   64GLOH   H04 9069   7.962   9.459   1.463
   64GLOH    O2 9070   8.160   9.499   1.515
   64GLOH   H05 9071   8.153   9.560   1.594
   64GLOH    C3 9072   8.004   9.668   1.427
   64GLOH   H06 9073   8.091   9.729   1.403
   64GLOH   H07 9074   7.975   9.694   1.529
   64GLOH    O3 9075   7.896   9.696   1.337
   64GLOH   H01 9076   7.888   9.796   1.337
   65GLOH   H03 9077   9.850   9.176   1.833
   65GLOH    O1 9078   9.856   9.166   1.931
   65GLOH    C1 9079   9.931   9.275   1.989
   65GLOH   H02 9080   0.031   9.278   1.946
   65GLOH   H08 9081   9.944   9.258   2.096
   65GLOH    C2 9082   9.868   9.415   1.972
   65GLOH   H04 9083   9.929   9.486   2.029
   65GLOH    O2 9084   9.863   9.458   1.835
   65GLOH   H05 9085   9.955   9.458   1.793
   65GLOH    C3 9086   9.725   9.420   2.029
   65GLOH   H06 9087   9.664   9.347   1.975
   65GLOH   H07 9088   9.683   9.518   2.005
   65GLOH    O3 9089   9.718   9.397   2.171
   65GLOH   H01 9090   9.627   9.362   2.191
   66GLOH   H03 9091   6.348   8.509   2.240
   66GLOH    O1 9092   6.379   8.550   2.154
   66GLOH    C1 9093   6.311   8.476   2.051
   66GLOH   H02 9094   6.220   8.430   2.091
   66GLOH   H08 9095   6.374   8.394   2.015
   66GLOH    C2 9096   6.270   8.561   1.929
   66GLOH   H04 9097   6.363   8.600   1.884
   66GLOH    O2 9098   6.202   8.482   1.830
   66GLOH   H05 9099   6.204   8.534   1.745
   66GLOH    C3 9100   6.184   8.681   1.974
   66GLOH   H06 9101   6.117   8.647   2.053
   66GLOH   H07 9102   6.121   8.713   1.891
   66GLOH    O3 9103   6.266   8.790   2.022
   66GLOH   H01 9104   6.212   8.849   2.080
   67GLOH   H03 9105   4.703   8.530   0.252
   67GLOH    O1 9106   4.651   8.537   0.336
   67GLOH    C1 9107   4.694   8.648   0.417
   67GLOH   H02 9108   4.635   8.650   0.508
   67GLOH   H08 9109   4.672   8.742   0.365
   67GLOH    C2 9110   4.843   8.650   0.458
   67GLOH   H04 9111   4.854   8.733   0.530
   67GLOH    O2 9112   4.885   8.531   0.527
   67GLOH   H05 9113   4.895   8.553   0.623
   67GLOH    C3 9114   4.934   8.686   0.339
   67GLOH   H06 9115   4.913   8.617   0.257
   67GLOH   H07 9116   5.037   8.670   0.368
   67GLOH    O3 9117   4.914   8.822   0.297
   67GLOH   H01 9118   4.853   8.826   0.219
   68GLOH   H03 9119   1.994   6.789   1.329
   68GLOH    O1 9120   1.929   6.852   1.286
   68GLOH    C1 9121   2.002   6.956   1.219
   68GLOH   H02 9122   2.093   6.979   1.275
   68GLOH   H08 9123   1.943   7.048   1.217
   68GLOH    C2 9124   2.042   6.922   1.074
   68GLOH   H04 9125   2.090   6.823   1.076
   68GLOH    O2 9126   1.927   6.917   0.987
   68GLOH   H05 9127   1.927   6.830   0.937
   68GLOH    C3 9128   2.145   7.023   1.022
   68GLOH   H06 9129   2.105   7.124   1.037
   68GLOH   H07 9130   2.155   7.010   0.914
   68GLOH    O3 9131   2.273   7.010   1.086
   68GLOH   H01 9132   2.273   7.063   1.170
   69GLOH   H03 9133   2.577   5.725   1.102
   69GLOH    O1 9134   2.607   5.639   1.063
   69GLOH    C1 9135   2.706   5.577   1.148
   69GLOH   H02 9136   2.727   5.477   1.112
   69GLOH   H08 9137   2.665   5.565   1.249
   69GLOH    C2 9138   2.839   5.655   1.159
   69GLOH   H04 9139   2.862   5.696   1.059
   69GLOH    O2 9140   2.830   5.765   1.252
   69GLOH   H05 9141   2.923   5.795   1.279
   69GLOH    C3 9142   2.954   5.562   1.199
   69GLOH   H06 9143   2.930   5.518   1.296
   69GLOH   H07 9144   3.043   5.623   1.213
   69GLOH    O3 9145   2.980   5.458   1.103
   69GLOH   H01 9146   2.927   5.378   1.130
   70GLOH   H03 9147   4.737   4.465   3.391
   70GLOH    O1 9148   4.680   4.546   3.378
   70GLOH    C1 9149   4.608   4.525   3.255
   70GLOH   H02 9150   4.672   4.549   3.169
   70GLOH   H08 9151   4.522   4.591   3.249
   70GLOH    C2 9152   4.559   4.380   3.241
   70GLOH   H04 9153   4.500   4.356   3.330
   70GLOH    O2 9154   4.477   4.362   3.124
   70GLOH   H05 9155   4.524   4.388   3.042
   70GLOH    C3 9156   4.681   4.285   3.238
   70GLOH   H06 9157   4.741   4.307   3.150
   70GLOH   H07 9158   4.645   4.183   3.228
   70GLOH    O3 9159   4.762   4.298   3.357
   70GLOH   H01 9160   4.749   4.215   3.410
   71GLOH   H03 9161   7.494   0.795   2.254
   71GLOH    O1 9162   7.426   0.756   2.314
   71GLOH    C1 9163   7.422   0.613   2.293
   71GLOH   H02 9164   7.432   0.591   2.186
   71GLOH   H08 9165   7.325   0.574   2.324
   71GLOH    C2 9166   7.531   0.537   2.370
   71GLOH   H04 9167   7.508   0.544   2.477
   71GLOH    O2 9168   7.533   0.398   2.331
   71GLOH   H05 9169   7.621   0.359   2.355
   71GLOH    C3 9170   7.668   0.605   2.348
   71GLOH   H06 9171   7.661   0.709   2.379
   71GLOH   H07 9172   7.690   0.605   2.241
   71GLOH    O3 9173   7.776   0.542   2.420
   71GLOH   H01 9174   7.859   0.594   2.399
   72GLOH   H03 9175   2.932   9.030   0.489
   72GLOH    O1 9176   2.975   9.015   0.401
   72GLOH    C1 9177   2.911   8.901   0.340
   72GLOH   H02 9178   2.959   8.879   0.244
   72GLOH   H08 9179   2.807   8.925   0.318
   72GLOH    C2 9180   2.915   8.773   0.426
   72GLOH   H04 9181   2.879   8.798   0.527
   72GLOH    O2 9182   2.828   8.673   0.368
   72GLOH   H05 9183   2.776   8.630   0.443
   72GLOH    C3 9184   3.058   8.716   0.438
   72GLOH   H06 9185   3.089   8.680   0.340
   72GLOH   H07 9186   3.053   8.628   0.503
   72GLOH    O3 9187   3.156   8.808   0.488
   72GLOH   H01 9188   3.181   8.868   0.413
   73GLOH   H03 9189   9.905   8.750   1.791
   73GLOH    O1 9190   9.935   8.683   1.857
   73GLOH    C1 9191   0.072   8.653   1.823
   73GLOH   H02 9192   0.077   8.571   1.752
   73GLOH   H08 9193   0.127   8.620   1.912
   73GLOH    C2 9194   0.147   8.774   1.764
   73GLOH   H04 9195   0.150   8.854   1.839
   73GLOH    O2 9196   0.282   8.738   1.728
   73GLOH   H05 9197   0.338   8.822   1.722
   73GLOH    C3 9198   0.069   8.827   1.641
   73GLOH   H06 9199   0.075   8.754   1.561
   73GLOH   H07 9200   0.118   8.918   1.605
   73GLOH    O3 9201   9.931   8.854   1.673
   73GLOH   H01 9202   9.885   8.893   1.594
   74GLOH   H03 9203   2.553   5.595   1.903
   74GLOH    O1 9204   2.497   5.565   1.980
   74GLOH    C1 9205   2.484   5.422   1.972
   74GLOH   H02 9206   2.582   5.375   1.981
   74GLOH   H08 9207   2.444   5.393   1.874
   74GLOH    C2 9208   2.391   5.365   2.080
   74GLOH   H04 9209   2.422   5.407   2.177
   74GLOH    O2 9210   2.252   5.399   2.057
   74GLOH   H05 9211   2.245   5.460   1.977
   74GLOH    C3 9212   2.406   5.212   2.088
   74GLOH   H06 9213   2.366   5.169   1.996
   74GLOH   H07 9214   2.343   5.176   2.170
   74GLOH    O3 9215   2.542   5.169   2.109
   74GLOH   H01 9216   2.545   5.074   2.083
   75GLOH   H03 9217   4.859   1.978   1.070
   75GLOH    O1 9218   4.788   1.918   1.033
   75GLOH    C1 9219   4.847   1.790   0.998
   75GLOH   H02 9220   4.911   1.754   1.079
   75GLOH   H08 9221   4.911   1.802   0.910
   75GLOH    C2 9222   4.742   1.681   0.967
   75GLOH   H04 9223   4.676   1.673   1.055
   75GLOH    O2 9224   4.661   1.711   0.851
   75GLOH   H05 9225   4.620   1.801   0.862
   75GLOH    C3 9226   4.811   1.545   0.947
   75GLOH   H06 9227   4.895   1.559   0.878
   75GLOH   H07 9228   4.742   1.478   0.897
   75GLOH    O3 9229   4.858   1.488   1.070
   75GLOH   H01 9230   4.884   1.394   1.054
   76GLOH   H03 9231   8.891   9.775   1.020
   76GLOH    O1 9232   8.867   9.726   0.937
   76GLOH    C1 9233   8.906   9.804   0.821
   76GLOH   H02 9234   8.933   9.906   0.851
   76GLOH   H08 9235   8.822   9.814   0.753
   76GLOH    C2 9236   9.024   9.743   0.744
   76GLOH   H04 9237   9.107   9.729   0.814
   76GLOH    O2 9238   8.991   9.615   0.686
   76GLOH   H05 9239   9.076   9.573   0.656
   76GLOH    C3 9240   9.072   9.838   0.633
   76GLOH   H06 9241   8.988   9.856   0.565
   76GLOH   H07 9242   9.149   9.788   0.574
   76GLOH    O3 9243   9.121   9.962   0.685
   76GLOH   H01 9244   9.188   9.942   0.756
   77GLOH   H03 9245   7.874   8.110   0.017
   77GLOH    O1 9246   7.950   8.053   3.429
   77GLOH    C1 9247   8.050   8.058   0.096
   77GLOH   H02 9248   8.020   7.997   0.181
   77GLOH   H08 9249   8.062   8.160   0.133
   77GLOH    C2 9250   8.186   8.008   0.045
   77GLOH   H04 9251   8.216   8.068   3.395
   77GLOH    O2 9252   8.284   8.024   0.150
   77GLOH   H05 9253   8.373   7.992   0.118
   77GLOH    C3 9254   8.180   7.860   0.003
   77GLOH   H06 9255   8.199   7.797   0.090
   77GLOH   H07 9256   8.262   7.841   3.370
   77GLOH    O3 9257   8.054   7.827   3.379
   77GLOH   H01 9258   8.003   7.911   3.373
   78GLOH   H03 9259   9.923   0.885   3.154
   78GLOH    O1 9260   9.894   0.839   3.235
   78GLOH    C1 9261   9.965   0.894   3.347
   78GLOH   H02 9262   9.932   0.995   3.367
   78GLOH   H08 9263   0.072   0.900   3.325
   78GLOH    C2 9264   9.947   0.809   0.038
   78GLOH   H04 9265   9.986   0.709   0.016
   78GLOH    O2 9266   0.022   0.865   0.148
   78GLOH   H05 9267   0.120   0.843   0.136
   78GLOH    C3 9268   9.797   0.793   0.072
   78GLOH   H06 9269   9.790   0.736   0.164
   78GLOH   H07 9270   9.752   0.731   3.431
   78GLOH    O3 9271   9.725   0.917   0.085
   78GLOH   H01 9272   9.719   0.960   3.432
   79GLOH   H03 9273   1.492   9.897   0.073
   79GLOH    O1 9274   1.588   9.907   0.093
   79GLOH    C1 9275   1.601   0.009   0.193
   79GLOH   H02 9276   1.705   0.042   0.197
   79GLOH   H08 9277   1.577   9.969   0.292
   79GLOH    C2 9278   1.512   0.132   0.165
   79GLOH   H04 9279   1.539   0.172   0.067
   79GLOH    O2 9280   1.373   0.091   0.164
   79GLOH   H05 9281   1.351   0.046   0.250
   79GLOH    C3 9282   1.534   0.242   0.270
   79GLOH   H06 9283   1.490   0.210   0.365
   79GLOH   H07 9284   1.479   0.330   0.238
   79GLOH    O3 9285   1.673   0.275   0.289
   79GLOH   H01 9286   1.711   0.312   0.205
   80GLOH   H03 9287   5.411   8.851   3.050
   80GLOH    O1 9288   5.324   8.843   3.095
   80GLOH    C1 9289   5.219   8.858   2.997
   80GLOH   H02 9290   5.227   8.955   2.948
   80GLOH   H08 9291   5.122   8.856   3.046
   80GLOH    C2 9292   5.222   8.747   2.889
   80GLOH   H04 9293   5.326   8.740   2.855
   80GLOH    O2 9294   5.182   8.617   2.939
   80GLOH   H05 9295   5.173   8.619   3.038
   80GLOH    C3 9296   5.135   8.788   2.769
   80GLOH   H06 9297   5.038   8.822   2.805
   80GLOH   H07 9298   5.116   8.701   2.707
   80GLOH    O3 9299   5.198   8.892   2.691
   80GLOH   H01 9300   5.138   8.918   2.615
   81GLOH   H03 9301   4.636   4.053   0.094
   81GLOH    O1 9302   4.717   4.080   0.044
   81GLOH    C1 9303   4.832   4.019   0.107
   81GLOH   H02 9304   4.905   3.992   0.030
   81GLOH   H08 9305   4.804   3.927   0.158
   81GLOH    C2 9306   4.902   4.112   0.208
   81GLOH   H04 9307   4.951   4.193   0.152
   81GLOH    O2 9308   4.807   4.168   0.300
   81GLOH   H05 9309   4.740   4.220   0.247
   81GLOH    C3 9310   5.011   4.036   0.287
   81GLOH   H06 9311   4.962   3.960   0.348
   81GLOH   H07 9312   5.058   4.106   0.356
   81GLOH    O3 9313   5.110   3.975   0.203
   81GLOH   H01 9314   5.068   3.897   0.158
   82GLOH   H03 9315   9.023   7.226   1.693
   82GLOH    O1 9316   9.016   7.126   1.695
   82GLOH    C1 9317   8.954   7.092   1.821
   82GLOH   H02 9318   8.850   7.125   1.822
   82GLOH   H08 9319   9.004   7.143   1.903
   82GLOH    C2 9320   8.958   6.941   1.849
   82GLOH   H04 9321   9.063   6.907   1.841
   82GLOH    O2 9322   8.909   6.915   1.982
   82GLOH   H05 9323   8.915   6.816   1.999
   82GLOH    C3 9324   8.874   6.866   1.744
   82GLOH   H06 9325   8.900   6.902   1.645
   82GLOH   H07 9326   8.769   6.891   1.760
   82GLOH    O3 9327   8.892   6.724   1.752
   82GLOH   H01 9328   8.990   6.706   1.747
   83GLOH   H03 9329   1.806   0.570   3.175
   83GLOH    O1 9330   1.870   0.571   3.101
   83GLOH    C1 9331   1.832   0.673   3.006
   83GLOH   H02 9332   1.830   0.771   3.053
   83GLOH   H08 9333   1.731   0.654   2.969
   83GLOH    C2 9334   1.926   0.679   2.884
   83GLOH   H04 9335   1.916   0.584   2.828
   83GLOH    O2 9336   1.888   0.789   2.799
   83GLOH   H05 9337   1.905   0.764   2.704
   83GLOH    C3 9338   2.072   0.692   2.930
   83GLOH   H06 9339   2.098   0.604   2.990
   83GLOH   H07 9340   2.080   0.778   2.997
   83GLOH    O3 9341   2.163   0.705   2.820
   83GLOH   H01 9342   2.137   0.786   2.771
   84GLOH   H03 9343   8.393   2.907   1.889
   84GLOH    O1 9344   8.409   2.960   1.806
   84GLOH    C1 9345   8.411   3.101   1.836
   84GLOH   H02 9346   8.513   3.137   1.846
   84GLOH   H08 9347   8.362   3.120   1.932
   84GLOH    C2 9348   8.339   3.186   1.729
   84GLOH   H04 9349   8.231   3.166   1.736
   84GLOH    O2 9350   8.361   3.326   1.754
   84GLOH   H05 9351   8.457   3.348   1.734
   84GLOH    C3 9352   8.386   3.152   1.587
   84GLOH   H06 9353   8.482   3.199   1.570
   84GLOH   H07 9354   8.316   3.198   1.516
   84GLOH    O3 9355   8.393   3.010   1.564
   84GLOH   H01 9356   8.406   2.970   1.654
   85GLOH   H03 9357   0.790   7.035   2.005
   85GLOH    O1 9358   0.753   7.004   2.092
   85GLOH    C1 9359   0.804   7.088   2.198
   85GLOH   H02 9360   0.895   7.044   2.239
   85GLOH   H08 9361   0.732   7.092   2.280
   85GLOH    C2 9362   0.835   7.233   2.154
   85GLOH   H04 9363   0.911   7.228   2.075
   85GLOH    O2 9364   0.718   7.300   2.102
   85GLOH   H05 9365   0.640   7.238   2.101
   85GLOH    C3 9366   0.895   7.314   2.270
   85GLOH   H06 9367   0.824   7.312   2.353
   85GLOH   H07 9368   0.904   7.418   2.239
   85GLOH    O3 9369   1.023   7.264   2.313
   85GLOH   H01 9370   1.041   7.302   2.403
   86GLOH   H03 9371   8.545   3.091   2.632
   86GLOH    O1 9372   8.456   3.045   2.633
   86GLOH    C1 9373   8.370   3.114   2.725
   86GLOH   H02 9374   8.269   3.118   2.685
   86GLOH   H08 9375   8.402   3.217   2.738
   86GLOH    C2 9376   8.364   3.048   2.864
   86GLOH   H04 9377   8.466   3.021   2.896
   86GLOH    O2 9378   8.307   3.141   2.958
   86GLOH   H05 9379   8.323   3.112   3.050
   86GLOH    C3 9380   8.277   2.920   2.863
   86GLOH   H06 9381   8.175   2.949   2.838
   86GLOH   H07 9382   8.275   2.880   2.964
   86GLOH    O3 9383   8.323   2.818   2.771
   86GLOH   H01 9384   8.298   2.730   2.806
   87GLOH   H03 9385   9.287   8.411   0.227
   87GLOH    O1 9386   9.195   8.428   0.262
   87GLOH    C1 9387   9.129   8.300   0.270
   87GLOH   H02 9388   9.046   8.304   0.340
   87GLOH   H08 9389   9.198   8.224   0.307
   87GLOH    C2 9390   9.075   8.255   0.133
   87GLOH   H04 9391   9.157   8.258   0.060
   87GLOH    O2 9392   9.025   8.120   0.142
   87GLOH   H05 9393   9.104   8.058   0.155
   87GLOH    C3 9394   8.965   8.352   0.087
   87GLOH   H06 9395   9.007   8.453   0.084
   87GLOH   H07 9396   8.885   8.353   0.161
   87GLOH    O3 9397   8.913   8.320   3.394
   87GLOH   H01 9398   8.899   8.223   3.391
   88GLOH   H03 9399   3.962   2.831   0.077
   88GLOH    O1 9400   3.937   2.927   0.074
   88GLOH    C1 9401   3.871   2.961   0.197
   88GLOH   H02 9402   3.928   2.923   0.282
   88GLOH   H08 9403   3.773   2.915   0.201
   88GLOH    C2 9404   3.856   3.114   0.212
   88GLOH   H04 9405   3.807   3.152   0.121
   88GLOH    O2 9406   3.772   3.144   0.326
   88GLOH   H05 9407   3.774   3.243   0.342
   88GLOH    C3 9408   3.994   3.181   0.224
   88GLOH   H06 9409   3.980   3.288   0.229
   88GLOH   H07 9410   4.049   3.161   0.132
   88GLOH    O3 9411   4.070   3.134   0.338
   88GLOH   H01 9412   4.078   3.207   0.405
   89GLOH   H03 9413   5.101   9.230   1.978
   89GLOH    O1 9414   5.021   9.283   2.001
   89GLOH    C1 9415   5.053   9.422   1.980
   89GLOH   H02 9416   5.097   9.463   2.071
   89GLOH   H08 9417   4.963   9.479   1.960
   89GLOH    C2 9418   5.151   9.441   1.863
   89GLOH   H04 9419   5.102   9.404   1.772
   89GLOH    O2 9420   5.184   9.581   1.844
   89GLOH   H05 9421   5.204   9.624   1.932
   89GLOH    C3 9422   5.278   9.357   1.886
   89GLOH   H06 9423   5.328   9.394   1.976
   89GLOH   H07 9424   5.347   9.373   1.803
   89GLOH    O3 9425   5.248   9.217   1.900
   89GLOH   H01 9426   5.333   9.166   1.893
   90GLOH   H03 9427   3.731   5.136   3.418
   90GLOH    O1 9428   3.749   5.223   3.374
   90GLOH    C1 9429   3.621   5.291   3.362
   90GLOH   H02 9430   3.542   5.233   3.408
   90GLOH   H08 9431   3.594   5.302   3.257
   90GLOH    C2 9432   3.621   5.432   3.426
   90GLOH   H04 9433   3.681   5.498   3.361
   90GLOH    O2 9434   3.487   5.484   3.434
   90GLOH   H05 9435   3.476   5.542   0.077
   90GLOH    C3 9436   3.687   5.429   0.128
   90GLOH   H06 9437   3.631   5.362   0.193
   90GLOH   H07 9438   3.679   5.529   0.170
   90GLOH    O3 9439   3.825   5.388   0.119
   90GLOH   H01 9440   3.826   5.325   0.043
   91GLOH   H03 9441   7.885   1.993   3.109
   91GLOH    O1 9442   7.923   2.036   3.188
   91GLOH    C1 9443   7.817   2.060   3.283
   91GLOH   H02 9444   7.858   2.112   3.369
   91GLOH   H08 9445   7.777   1.965   3.319
   91GLOH    C2 9446   7.702   2.143   3.224
   91GLOH   H04 9447   7.743   2.240   3.190
   91GLOH    O2 9448   7.642   2.075   3.111
   91GLOH   H05 9449   7.611   2.141   3.047
   91GLOH    C3 9450   7.596   2.170   3.332
   91GLOH   H06 9451   7.552   2.075   3.361
   91GLOH   H07 9452   7.516   2.230   3.288
   91GLOH    O3 9453   7.649   2.236   0.012
   91GLOH   H01 9454   7.645   2.335   0.006
   92GLOH   H03 9455   4.558   0.722   0.737
   92GLOH    O1 9456   4.558   0.680   0.648
   92GLOH    C1 9457   4.528   0.540   0.655
   92GLOH   H02 9458   4.516   0.500   0.554
   92GLOH   H08 9459   4.432   0.526   0.706
   92GLOH    C2 9460   4.633   0.454   0.729
   92GLOH   H04 9461   4.628   0.479   0.836
   92GLOH    O2 9462   4.600   0.315   0.710
   92GLOH   H05 9463   4.679   0.259   0.736
   92GLOH    C3 9464   4.775   0.487   0.679
   92GLOH   H06 9465   4.789   0.595   0.682
   92GLOH   H07 9466   4.782   0.457   0.574
   92GLOH    O3 9467   4.878   0.423   0.757
   92GLOH   H01 9468   4.864   0.325   0.753
   93GLOH   H03 9469   5.555   9.677   2.904
   93GLOH    O1 9470   5.511   9.742   2.846
   93GLOH    C1 9471   5.485   9.862   2.921
   93GLOH   H02 9472   5.577   9.896   2.970
   93GLOH   H08 9473   5.413   9.842   3.000
   93GLOH    C2 9474   5.431   9.979   2.836
   93GLOH   H04 9475   5.336   9.947   2.792
   93GLOH    O2 9476   5.409   0.094   2.919
   93GLOH   H05 9477   5.442   0.173   2.870
   93GLOH    C3 9478   5.528   0.012   2.721
   93GLOH   H06 9479   5.528   9.929   2.651
   93GLOH   H07 9480   5.629   0.019   2.762
   93GLOH    O3 9481   5.495   0.134   2.652
   93GLOH   H01 9482   5.398   0.137   2.630
   94GLOH   H03 9483   4.573   4.624   0.014
   94GLOH    O1 9484   4.497   4.671   0.059
   94GLOH    C1 9485   4.504   4.812   0.028
   94GLOH   H02 9486   4.487   4.829   3.359
   94GLOH   H08 9487   4.603   4.851   0.051
   94GLOH    C2 9488   4.400   4.892   0.109
   94GLOH   H04 9489   4.423   4.879   0.216
   94GLOH    O2 9490   4.408   5.033   0.076
   94GLOH   H05 9491   4.373   5.085   0.155
   94GLOH    C3 9492   4.259   4.838   0.083
   94GLOH   H06 9493   4.234   4.851   3.415
   94GLOH   H07 9494   4.187   4.897   0.141
   94GLOH    O3 9495   4.249   4.699   0.120
   94GLOH   H01 9496   4.339   4.662   0.100
   95GLOH   H03 9497   4.623   8.256   0.651
   95GLOH    O1 9498   4.585   8.202   0.725
   95GLOH    C1 9499   4.668   8.220   0.841
   95GLOH   H02 9500   4.760   8.273   0.815
   95GLOH   H08 9501   4.698   8.122   0.880
   95GLOH    C2 9502   4.596   8.297   0.953
   95GLOH   H04 9503   4.514   8.234   0.989
   95GLOH    O2 9504   4.687   8.321   1.063
   95GLOH   H05 9505   4.656   8.401   1.115
   95GLOH    C3 9506   4.536   8.427   0.898
   95GLOH   H06 9507   4.465   8.401   0.819
   95GLOH   H07 9508   4.615   8.485   0.850
   95GLOH    O3 9509   4.470   8.506   0.998
   95GLOH   H01 9510   4.416   8.446   1.056
   96GLOH   H03 9511   4.351   5.062   3.371
   96GLOH    O1 9512   4.297   5.073   3.288
   96GLOH    C1 9513   4.203   5.180   3.306
   96GLOH   H02 9514   4.246   5.275   3.273
   96GLOH   H08 9515   4.178   5.193   3.412
   96GLOH    C2 9516   4.071   5.158   3.229
   96GLOH   H04 9517   4.024   5.066   3.267
   96GLOH    O2 9518   3.981   5.269   3.249
   96GLOH   H05 9519   3.893   5.238   3.280
   96GLOH    C3 9520   4.102   5.138   3.079
   96GLOH   H06 9521   4.144   5.231   3.039
   96GLOH   H07 9522   4.009   5.120   3.026
   96GLOH    O3 9523   4.194   5.030   3.059
   96GLOH   H01 9524   4.253   5.030   3.138
   97GLOH   H03 9525   3.984   3.703   0.268
   97GLOH    O1 9526   4.060   3.685   0.204
   97GLOH    C1 9527   4.124   3.563   0.246
   97GLOH   H02 9528   4.172   3.514   0.161
   97GLOH   H08 9529   4.050   3.493   0.285
   97GLOH    C2 9530   4.230   3.587   0.355
   97GLOH   H04 9531   4.181   3.631   0.443
   97GLOH    O2 9532   4.290   3.461   0.393
   97GLOH   H05 9533   4.222   3.408   0.444
   97GLOH    C3 9534   4.337   3.686   0.305
   97GLOH   H06 9535   4.396   3.637   0.227
   97GLOH   H07 9536   4.405   3.708   0.387
   97GLOH    O3 9537   4.278   3.806   0.254
   97GLOH   H01 9538   4.192   3.777   0.214
   98GLOH   H03 9539   6.708   9.339   2.655
   98GLOH    O1 9540   6.617   9.380   2.658
   98GLOH    C1 9541   6.522   9.273   2.644
   98GLOH   H02 9542   6.469   9.258   2.738
   98GLOH   H08 9543   6.572   9.179   2.621
   98GLOH    C2 9544   6.417   9.298   2.533
   98GLOH   H04 9545   6.372   9.397   2.550
   98GLOH    O2 9546   6.476   9.294   2.401
   98GLOH   H05 9547   6.559   9.350   2.400
   98GLOH    C3 9548   6.307   9.191   2.543
   98GLOH   H06 9549   6.352   9.093   2.531
   98GLOH   H07 9550   6.238   9.205   2.460
   98GLOH    O3 9551   6.234   9.199   2.667
   98GLOH   H01 9552   6.189   9.111   2.680
   99GLOH   H03 9553   8.312   2.469   1.757
   99GLOH    O1 9554   8.297   2.567   1.757
   99GLOH    C1 9555   8.231   2.597   1.882
   99GLOH   H02 9556   8.144   2.531   1.895
   99GLOH   H08 9557   8.192   2.698   1.881
   99GLOH    C2 9558   8.321   2.582   2.007
   99GLOH   H04 9559   8.258   2.596   2.095
   99GLOH    O2 9560   8.380   2.450   2.014
   99GLOH   H05 9561   8.361   2.409   2.103
   99GLOH    C3 9562   8.429   2.692   2.007
   99GLOH   H06 9563   8.489   2.682   1.917
   99GLOH   H07 9564   8.496   2.674   2.091
   99GLOH    O3 9565   8.372   2.824   2.016
   99GLOH   H01 9566   8.316   2.826   2.099
  100GLOH   H03 9567   8.005   7.734   0.055
  100GLOH    O1 9568   7.983   7.685   0.139
  100GLOH    C1 9569   8.049   7.557   0.134
  100GLOH   H02 9570   8.156   7.569   0.118
  100GLOH   H08 9571   8.011   7.498   0.050
  100GLOH    C2 9572   8.027   7.478   0.265
  100GLOH   H04 9573   7.919   7.467   0.280
  100GLOH    O2 9574   8.087   7.347   0.257
  100GLOH   H05 9575   8.058   7.302   0.172
  100GLOH    C3 9576   8.086   7.556   0.384
  100GLOH   H06 9577   8.195   7.557   0.374
  100GLOH   H07 9578   8.062   7.503   0.476
  100GLOH    O3 9579   8.035   7.690   0.389
  100GLOH   H01 9580   8.003   7.710   0.297
  101GLOH   H03 9581   1.819   4.199   0.559
  101GLOH    O1 9582   1.811   4.207   0.460
  101GLOH    C1 9583   1.877   4.097   0.394
  101GLOH   H02 9584   1.811   4.054   0.319
  101GLOH   H08 9585   1.901   4.017   0.464
  101GLOH    C2 9586   2.006   4.142   0.323
  101GLOH   H04 9587   2.047   4.055   0.270
  101GLOH    O2 9588   1.978   4.247   0.227
  101GLOH   H05 9589   1.937   4.324   0.275
  101GLOH    C3 9590   2.111   4.189   0.425
  101GLOH   H06 9591   2.068   4.268   0.487
  101GLOH   H07 9592   2.195   4.233   0.371
  101GLOH    O3 9593   2.159   4.081   0.507
  101GLOH   H01 9594   2.095   4.062   0.581
  102GLOH   H03 9595   1.466   4.143   0.769
  102GLOH    O1 9596   1.560   4.109   0.774
  102GLOH    C1 9597   1.584   4.083   0.914
  102GLOH   H02 9598   1.537   4.159   0.976
  102GLOH   H08 9599   1.691   4.088   0.935
  102GLOH    C2 9600   1.535   3.944   0.959
  102GLOH   H04 9601   1.436   3.926   0.913
  102GLOH    O2 9602   1.626   3.840   0.916
  102GLOH   H05 9603   1.611   3.824   0.818
  102GLOH    C3 9604   1.516   3.942   1.112
  102GLOH   H06 9605   1.611   3.965   1.159
  102GLOH   H07 9606   1.489   3.841   1.143
  102GLOH    O3 9607   1.415   4.036   1.155
  102GLOH   H01 9608   1.434   4.062   1.249
  103GLOH   H03 9609   2.120   4.607   0.434
  103GLOH    O1 9610   2.056   4.565   0.498
  103GLOH    C1 9611   2.128   4.552   0.623
  103GLOH   H02 9612   2.146   4.650   0.666
  103GLOH   H08 9613   2.227   4.508   0.605
  103GLOH    C2 9614   2.057   4.465   0.728
  103GLOH   H04 9615   2.052   4.362   0.691
  103GLOH    O2 9616   2.133   4.468   0.851
  103GLOH   H05 9617   2.131   4.375   0.889
  103GLOH    C3 9618   1.913   4.515   0.750
  103GLOH   H06 9619   1.862   4.516   0.653
  103GLOH   H07 9620   1.917   4.619   0.784
  103GLOH    O3 9621   1.836   4.437   0.843
  103GLOH   H01 9622   1.745   4.478   0.843
  104GLOH   H03 9623   9.278   4.978   1.071
  104GLOH    O1 9624   9.211   4.952   1.139
  104GLOH    C1 9625   9.248   4.826   1.200
  104GLOH   H02 9626   9.173   4.798   1.274
  104GLOH   H08 9627   9.343   4.837   1.253
  104GLOH    C2 9628   9.261   4.710   1.100
  104GLOH   H04 9629   9.361   4.717   1.055
  104GLOH    O2 9630   9.253   4.584   1.170
  104GLOH   H05 9631   9.159   4.575   1.206
  104GLOH    C3 9632   9.159   4.720   0.985
  104GLOH   H06 9633   9.148   4.622   0.939
  104GLOH   H07 9634   9.201   4.785   0.908
  104GLOH    O3 9635   9.030   4.770   1.027
  104GLOH   H01 9636   9.050   4.851   1.079
  105GLOH   H03 9637   9.533   1.766   0.038
  105GLOH    O1 9638   9.541   1.713   3.392
  105GLOH    C1 9639   9.605   1.588   3.424
  105GLOH   H02 9640   9.545   1.532   0.060
  105GLOH   H08 9641   9.701   1.607   0.035
  105GLOH    C2 9642   9.630   1.499   3.301
  105GLOH   H04 9643   9.702   1.550   3.236
  105GLOH    O2 9644   9.686   1.373   3.343
  105GLOH   H05 9645   9.618   1.319   3.391
  105GLOH    C3 9646   9.500   1.477   3.222
  105GLOH   H06 9647   9.430   1.420   3.283
  105GLOH   H07 9648   9.523   1.417   3.134
  105GLOH    O3 9649   9.443   1.602   3.183
  105GLOH   H01 9650   9.467   1.666   3.254
  106GLOH   H03 9651   0.878   2.724   1.337
  106GLOH    O1 9652   0.805   2.729   1.405
  106GLOH    C1 9653   0.708   2.627   1.374
  106GLOH   H02 9654   0.744   2.530   1.407
  106GLOH   H08 9655   0.693   2.620   1.266
  106GLOH    C2 9656   0.571   2.651   1.441
  106GLOH   H04 9657   0.535   2.751   1.412
  106GLOH    O2 9658   0.476   2.551   1.395
  106GLOH   H05 9659   0.395   2.556   1.454
  106GLOH    C3 9660   0.587   2.647   1.594
  106GLOH   H06 9661   0.672   2.709   1.622
  106GLOH   H07 9662   0.612   2.545   1.623
  106GLOH    O3 9663   0.469   2.692   1.664
  106GLOH   H01 9664   0.389   2.647   1.624
  107GLOH   H03 9665   9.158   8.186   2.065
  107GLOH    O1 9666   9.183   8.177   2.161
  107GLOH    C1 9667   9.205   8.309   2.213
  107GLOH   H02 9668   9.113   8.367   2.210
  107GLOH   H08 9669   9.277   8.362   2.150
  107GLOH    C2 9670   9.258   8.310   2.358
  107GLOH   H04 9671   9.338   8.235   2.367
  107GLOH    O2 9672   9.310   8.440   2.390
  107GLOH   H05 9673   9.387   8.428   2.454
  107GLOH    C3 9674   9.146   8.277   2.459
  107GLOH   H06 9675   9.067   8.351   2.447
  107GLOH   H07 9676   9.186   8.291   2.559
  107GLOH    O3 9677   9.093   8.144   2.446
  107GLOH   H01 9678   9.168   8.081   2.463
  108GLOH   H03 9679   4.925   9.734   0.751
  108GLOH    O1 9680   4.960   9.702   0.663
  108GLOH    C1 9681   4.935   9.560   0.652
  108GLOH   H02 9682   4.850   9.531   0.714
  108GLOH   H08 9683   5.022   9.504   0.688
  108GLOH    C2 9684   4.907   9.518   0.507
  108GLOH   H04 9685   4.993   9.547   0.445
  108GLOH    O2 9686   4.891   9.375   0.499
  108GLOH   H05 9687   4.849   9.350   0.412
  108GLOH    C3 9688   4.784   9.591   0.449
  108GLOH   H06 9689   4.771   9.560   0.346
  108GLOH   H07 9690   4.805   9.698   0.448
  108GLOH    O3 9691   4.662   9.567   0.523
  108GLOH   H01 9692   4.656   9.638   0.594
  109GLOH   H03 9693   3.475   2.798   3.369
  109GLOH    O1 9694   3.515   2.722   3.420
  109GLOH    C1 9695   3.658   2.732   3.401
  109GLOH   H02 9696   3.699   2.633   3.380
  109GLOH   H08 9697   3.705   2.766   0.056
  109GLOH    C2 9698   3.700   2.827   3.287
  109GLOH   H04 9699   3.808   2.847   3.297
  109GLOH    O2 9700   3.676   2.768   3.158
  109GLOH   H05 9701   3.580   2.769   3.139
  109GLOH    C3 9702   3.624   2.960   3.300
  109GLOH   H06 9703   3.653   3.025   3.217
  109GLOH   H07 9704   3.658   3.010   3.391
  109GLOH    O3 9705   3.481   2.943   3.302
  109GLOH   H01 9706   3.441   3.012   3.361
  110GLOH   H03 9707   8.869   2.666   1.259
  110GLOH    O1 9708   8.813   2.745   1.280
  110GLOH    C1 9709   8.792   2.755   1.422
  110GLOH   H02 9710   8.883   2.789   1.472
  110GLOH   H08 9711   8.767   2.657   1.463
  110GLOH    C2 9712   8.677   2.852   1.456
  110GLOH   H04 9713   8.583   2.808   1.419
  110GLOH    O2 9714   8.667   2.869   1.599
  110GLOH   H05 9715   8.646   2.779   1.639
  110GLOH    C3 9716   8.699   2.987   1.385
  110GLOH   H06 9717   8.720   2.968   1.280
  110GLOH   H07 9718   8.787   3.034   1.427
  110GLOH    O3 9719   8.585   3.074   1.395
  110GLOH   H01 9720   8.519   3.036   1.457
  111GLOH   H03 9721   4.409   3.385   2.508
  111GLOH    O1 9722   4.472   3.333   2.452
  111GLOH    C1 9723   4.522   3.224   2.533
  111GLOH   H02 9724   4.561   3.262   2.627
  111GLOH   H08 9725   4.605   3.174   2.482
  111GLOH    C2 9726   4.414   3.118   2.566
  111GLOH   H04 9727   4.457   3.051   2.642
  111GLOH    O2 9728   4.295   3.179   2.622
  111GLOH   H05 9729   4.301   3.277   2.612
  111GLOH    C3 9730   4.381   3.032   2.443
  111GLOH   H06 9731   4.340   3.097   2.365
  111GLOH   H07 9732   4.303   2.962   2.470
  111GLOH    O3 9733   4.496   2.962   2.394
  111GLOH   H01 9734   4.464   2.899   2.323
  112GLOH   H03 9735   2.721   5.368   1.712
  112GLOH    O1 9736   2.662   5.415   1.646
  112GLOH    C1 9737   2.694   5.373   1.513
  112GLOH   H02 9738   2.784   5.312   1.511
  112GLOH   H08 9739   2.714   5.460   1.450
  112GLOH    C2 9740   2.579   5.293   1.448
  112GLOH   H04 9741   2.489   5.356   1.448
  112GLOH    O2 9742   2.613   5.258   1.312
  112GLOH   H05 9743   2.532   5.220   1.269
  112GLOH    C3 9744   2.549   5.167   1.533
  112GLOH   H06 9745   2.530   5.198   1.635
  112GLOH   H07 9746   2.640   5.106   1.536
  112GLOH    O3 9747   2.438   5.089   1.483
  112GLOH   H01 9748   2.384   5.060   1.561
  113GLOH   H03 9749   1.015   0.850   0.226
  113GLOH    O1 9750   1.062   0.938   0.217
  113GLOH    C1 9751   1.095   0.957   0.078
  113GLOH   H02 9752   1.130   0.864   0.034
  113GLOH   H08 9753   1.178   1.027   0.070
  113GLOH    C2 9754   0.979   1.011   3.428
  113GLOH   H04 9755   1.021   1.043   3.332
  113GLOH    O2 9756   0.880   0.909   3.404
  113GLOH   H05 9757   0.905   0.859   3.324
  113GLOH    C3 9758   0.915   1.134   0.059
  113GLOH   H06 9759   0.856   1.099   0.143
  113GLOH   H07 9760   0.846   1.179   3.425
  113GLOH    O3 9761   1.013   1.231   0.102
  113GLOH   H01 9762   0.991   1.322   0.067
  114GLOH   H03 9763   8.094   9.054   2.301
  114GLOH    O1 9764   8.192   9.074   2.305
  114GLOH    C1 9765   8.231   9.108   2.170
  114GLOH   H02 9766   8.147   9.097   2.101
  114GLOH   H08 9767   8.307   9.037   2.136
  114GLOH    C2 9768   8.288   9.250   2.153
  114GLOH   H04 9769   8.299   9.268   2.045
  114GLOH    O2 9770   8.202   9.355   2.204
  114GLOH   H05 9771   8.106   9.327   2.196
  114GLOH    C3 9772   8.428   9.260   2.215
  114GLOH   H06 9773   8.422   9.227   2.319
  114GLOH   H07 9774   8.458   9.365   2.216
  114GLOH    O3 9775   8.524   9.181   2.143
  114GLOH   H01 9776   8.612   9.204   2.184
  115GLOH   H03 9777   9.144   9.969   2.527
  115GLOH    O1 9778   9.206   9.991   2.602
  115GLOH    C1 9779   9.146   0.096   2.680
  115GLOH   H02 9780   9.061   0.057   2.736
  115GLOH   H08 9781   9.108   0.174   2.615
  115GLOH    C2 9782   9.245   0.158   2.780
  115GLOH   H04 9783   9.334   0.192   2.724
  115GLOH    O2 9784   9.185   0.273   2.845
  115GLOH   H05 9785   9.171   0.345   2.777
  115GLOH    C3 9786   9.291   0.054   2.883
  115GLOH   H06 9787   9.340   9.972   2.831
  115GLOH   H07 9788   9.203   0.013   2.933
  115GLOH    O3 9789   9.380   0.113   2.979
  115GLOH   H01 9790   9.345   0.203   2.996
  116GLOH   H03 9791   9.024   6.503   0.369
  116GLOH    O1 9792   9.023   6.558   0.452
  116GLOH    C1 9793   8.971   6.689   0.420
  116GLOH   H02 9794   9.045   6.747   0.365
  116GLOH   H08 9795   8.949   6.744   0.511
  116GLOH    C2 9796   8.842   6.683   0.335
  116GLOH   H04 9797   8.798   6.784   0.333
  116GLOH    O2 9798   8.871   6.641   0.200
  116GLOH   H05 9799   8.932   6.562   0.203
  116GLOH    C3 9800   8.740   6.587   0.398
  116GLOH   H06 9801   8.778   6.486   0.390
  116GLOH   H07 9802   8.648   6.591   0.339
  116GLOH    O3 9803   8.711   6.619   0.535
  116GLOH   H01 9804   8.664   6.542   0.576
  117GLOH   H03 9805   7.626   1.916   3.121
  117GLOH    O1 9806   7.620   1.819   3.135
  117GLOH    C1 9807   7.660   1.746   3.018
  117GLOH   H02 9808   7.764   1.765   2.995
  117GLOH   H08 9809   7.601   1.777   2.932
  117GLOH    C2 9810   7.641   1.594   3.037
  117GLOH   H04 9811   7.533   1.574   3.047
  117GLOH    O2 9812   7.691   1.518   2.924
  117GLOH   H05 9813   7.712   1.430   2.964
  117GLOH    C3 9814   7.710   1.546   3.166
  117GLOH   H06 9815   7.655   1.588   3.251
  117GLOH   H07 9816   7.810   1.588   3.170
  117GLOH    O3 9817   7.714   1.403   3.176
  117GLOH   H01 9818   7.722   1.380   3.272
  118GLOH   H03 9819   3.888   7.562   1.837
  118GLOH    O1 9820   3.974   7.517   1.812
  118GLOH    C1 9821   4.065   7.532   1.923
  118GLOH   H02 9822   4.014   7.511   2.017
  118GLOH   H08 9823   4.101   7.635   1.929
  118GLOH    C2 9824   4.188   7.439   1.913
  118GLOH   H04 9825   4.150   7.337   1.899
  118GLOH    O2 9826   4.271   7.472   1.800
  118GLOH   H05 9827   4.223   7.439   1.719
  118GLOH    C3 9828   4.265   7.438   2.047
  118GLOH   H06 9829   4.358   7.383   2.032
  118GLOH   H07 9830   4.207   7.382   2.119
  118GLOH    O3 9831   4.294   7.569   2.098
  118GLOH   H01 9832   4.288   7.565   2.197
  119GLOH   H03 9833   8.492   6.719   2.161
  119GLOH    O1 9834   8.413   6.698   2.217
  119GLOH    C1 9835   8.378   6.560   2.197
  119GLOH   H02 9836   8.328   6.521   2.285
  119GLOH   H08 9837   8.468   6.499   2.184
  119GLOH    C2 9838   8.286   6.538   2.075
  119GLOH   H04 9839   8.330   6.590   1.989
  119GLOH    O2 9840   8.276   6.397   2.046
  119GLOH   H05 9841   8.283   6.383   1.947
  119GLOH    C3 9842   8.145   6.594   2.100
  119GLOH   H06 9843   8.101   6.540   2.184
  119GLOH   H07 9844   8.084   6.571   2.013
  119GLOH    O3 9845   8.138   6.736   2.126
  119GLOH   H01 9846   8.213   6.783   2.081
  120GLOH   H03 9847   9.559   1.663   0.889
  120GLOH    O1 9848   9.467   1.643   0.921
  120GLOH    C1 9849   9.473   1.607   1.060
  120GLOH   H02 9850   9.385   1.645   1.113
  120GLOH   H08 9851   9.561   1.652   1.108
  120GLOH    C2 9852   9.479   1.454   1.079
  120GLOH   H04 9853   9.568   1.416   1.027
  120GLOH    O2 9854   9.487   1.420   1.219
  120GLOH   H05 9855   9.552   1.482   1.264
  120GLOH    C3 9856   9.354   1.390   1.014
  120GLOH   H06 9857   9.266   1.415   1.074
  120GLOH   H07 9858   9.365   1.282   1.017
  120GLOH    O3 9859   9.337   1.435   0.878
  120GLOH   H01 9860   9.382   1.524   0.876
  121ACOH    H4 9861   7.460   0.743   1.395
  121ACOH    O2 9862   7.394   0.769   1.326
  121ACOH    C2 9863   7.386   0.666   1.240
  121ACOH    O1 9864   7.417   0.550   1.261
  121ACOH    C1 9865   7.313   0.708   1.118
  121ACOH    H1 9866   7.214   0.745   1.145
  121ACOH    H2 9867   7.302   0.626   1.048
  121ACOH    H3 9868   7.368   0.788   1.069
  122ACOH    H4 9869   4.846   7.942   1.878
  122ACOH    O2 9870   4.777   7.999   1.834
  122ACOH    C2 9871   4.799   7.986   1.701
  122ACOH    O1 9872   4.868   7.902   1.647
  122ACOH    C1 9873   4.715   8.079   1.623
  122ACOH    H1 9874   4.665   8.151   1.688
  122ACOH    H2 9875   4.639   8.024   1.568
  122ACOH    H3 9876   4.777   8.134   1.552
  123ACOH    H4 9877   4.923   3.377   1.950
  123ACOH    O2 9878   4.904   3.474   1.937
  123ACOH    C2 9879   4.819   3.483   1.833
  123ACOH    O1 9880   4.780   3.391   1.763
  123ACOH    C1 9881   4.779   3.623   1.806
  123ACOH    H1 9882   4.824   3.691   1.878
  123ACOH    H2 9883   4.671   3.632   1.813
  123ACOH    H3 9884   4.811   3.652   1.706
  124ACOH    H4 9885   6.824   9.878   1.594
  124ACOH    O2 9886   6.733   9.845   1.570
  124ACOH    C2 9887   6.659   9.851   1.683
  124ACOH    O1 9888   6.695   9.892   1.792
  124ACOH    C1 9889   6.521   9.802   1.660
  124ACOH    H1 9890   6.501   9.717   1.725
  124ACOH    H2 9891   6.508   9.772   1.557
  124ACOH    H3 9892   6.450   9.882   1.683
  125ACOH    H4 9893   9.841   3.342   2.308
  125ACOH    O2 9894   9.784   3.311   2.232
  125ACOH    C2 9895   9.813   3.388   2.126
  125ACOH    O1 9896   9.900   3.473   2.118
  125ACOH    C1 9897   9.725   3.353   2.012
  125ACOH    H1 9898   9.622   3.366   2.042
  125ACOH    H2 9899   9.742   3.249   1.985
  125ACOH    H3 9900   9.745   3.416   1.926
  126ACOH    H4 9901   8.563   4.285   0.920
  126ACOH    O2 9902   8.531   4.301   1.012
  126ACOH    C2 9903   8.506   4.433   1.021
  126ACOH    O1 9904   8.539   4.518   0.940
  126ACOH    C1 9905   8.442   4.466   1.150
  126ACOH    H1 9906   8.347   4.414   1.157
  126ACOH    H2 9907   8.423   4.573   1.157
  126ACOH    H3 9908   8.506   4.435   1.233
  127ACOH    H4 9909   5.613   0.176   2.575
  127ACOH    O2 9910   5.683   0.200   2.508
  127ACOH    C2 9911   5.796   0.225   2.578
  127ACOH    O1 9912   5.810   0.215   2.698
  127ACOH    C1 9913   5.906   0.263   2.487
  127ACOH    H1 9914   5.982   0.185   2.488
  127ACOH    H2 9915   5.951   0.355   2.523
  127ACOH    H3 9916   5.871   0.278   2.385
  128ACOH    H4 9917   4.084   5.108   1.222
  128ACOH    O2 9918   4.132   5.021   1.206
  128ACOH    C2 9919   4.230   5.044   1.118
  128ACOH    O1 9920   4.249   5.147   1.054
  128ACOH    C1 9921   4.310   4.922   1.093
  128ACOH    H1 9922   4.416   4.944   1.106
  128ACOH    H2 9923   4.294   4.887   0.991
  128ACOH    H3 9924   4.282   4.843   1.162
  129ACOH    H4 9925   8.196   6.914   1.582
  129ACOH    O2 9926   8.126   6.944   1.647
  129ACOH    C2 9927   8.069   6.832   1.696
  129ACOH    O1 9928   8.090   6.717   1.661
  129ACOH    C1 9929   7.969   6.866   1.800
  129ACOH    H1 9930   7.923   6.776   1.840
  129ACOH    H2 9931   7.893   6.929   1.757
  129ACOH    H3 9932   8.019   6.919   1.881
  130ACOH    H4 9933   4.181   5.492   2.042
  130ACOH    O2 9934   4.246   5.565   2.025
  130ACOH    C2 9935   4.353   5.510   1.965
  130ACOH    O1 9936   4.366   5.395   1.930
  130ACOH    C1 9937   4.458   5.613   1.945
  130ACOH    H1 9938   4.485   5.656   2.040
  130ACOH    H2 9939   4.420   5.692   1.880
  130ACOH    H3 9940   4.546   5.569   1.899
  131ACOH    H4 9941   9.563   4.988   3.353
  131ACOH    O2 9942   9.620   4.909   3.349
  131ACOH    C2 9943   9.546   4.809   3.400
  131ACOH    O1 9944   9.448   4.823   0.034
  131ACOH    C1 9945   9.615   4.678   3.387
  131ACOH    H1 9946   9.543   4.602   3.359
  131ACOH    H2 9947   9.660   4.650   0.045
  131ACOH    H3 9948   9.691   4.683   3.310
  132ACOH    H4 9949   3.100   8.636   2.319
  132ACOH    O2 9950   3.117   8.721   2.369
  132ACOH    C2 9951   2.996   8.773   2.396
  132ACOH    O1 9952   2.889   8.714   2.391
  132ACOH    C1 9953   3.007   8.908   2.456
  132ACOH    H1 9954   3.055   8.975   2.385
  132ACOH    H2 9955   3.067   8.903   2.547
  132ACOH    H3 9956   2.909   8.948   2.480
  133ACOH    H4 9957   3.074   8.424   2.584
  133ACOH    O2 9958   2.996   8.470   2.627
  133ACOH    C2 9959   3.042   8.586   2.677
  133ACOH    O1 9960   3.157   8.626   2.678
  133ACOH    C1 9961   2.932   8.662   2.740
  133ACOH    H1 9962   2.888   8.602   2.820
  133ACOH    H2 9963   2.856   8.683   2.666
  133ACOH    H3 9964   2.968   8.756   2.781
  134ACOH    H4 9965   7.622   9.229   0.261
  134ACOH    O2 9966   7.551   9.164   0.236
  134ACOH    C2 9967   7.594   9.042   0.271
  134ACOH    O1 9968   7.703   9.013   0.316
  134ACOH    C1 9969   7.491   8.939   0.243
  134ACOH    H1 9970   7.465   8.942   0.137
  134ACOH    H2 9971   7.401   8.961   0.301
  134ACOH    H3 9972   7.526   8.840   0.268
  135ACOH    H4 9973   8.493   3.894   2.044
  135ACOH    O2 9974   8.425   3.852   1.985
  135ACOH    C2 9975   8.389   3.943   1.893
  135ACOH    O1 9976   8.459   4.035   1.855
  135ACOH    C1 9977   8.273   3.895   1.814
  135ACOH    H1 9978   8.308   3.854   1.720
  135ACOH    H2 9979   8.206   3.978   1.794
  135ACOH    H3 9980   8.219   3.818   1.869
  136ACOH    H4 9981   7.395   0.738   3.427
  136ACOH    O2 9982   7.382   0.785   0.074
  136ACOH    C2 9983   7.364   0.688   0.166
  136ACOH    O1 9984   7.349   0.569   0.142
  136ACOH    C1 9985   7.349   0.743   0.303
  136ACOH    H1 9986   7.370   0.849   0.306
  136ACOH    H2 9987   7.416   0.691   0.371
  136ACOH    H3 9988   7.247   0.727   0.337
  137ACOH    H4 9989   4.282   4.094   1.501
  137ACOH    O2 9990   4.339   4.026   1.548
  137ACOH    C2 9991   4.322   4.049   1.680
  137ACOH    O1 9992   4.240   4.123   1.731
  137ACOH    C1 9993   4.408   3.959   1.761
  137ACOH    H1 9994   4.392   3.856   1.730
  137ACOH    H2 9995   4.384   3.968   1.866
  137ACOH    H3 9996   4.512   3.984   1.746
  138ACOH    H4 9997   0.977   8.282   2.829
  138ACOH    O2 9998   0.942   8.256   2.743
  138ACOH    C2 9999   0.915   8.369   2.676
  138ACOH    O110000   0.939   8.482   2.715
  138ACOH    C110001   0.859   8.343   2.541
  138ACOH    H110002   0.769   8.402   2.527
  138ACOH    H210003   0.833   8.238   2.531
  138ACOH    H310004   0.932   8.370   2.465
  139ACOH    H410005   4.304   7.607   1.721
  139ACOH    O210006   4.309   7.668   1.643
  139ACOH    C210007   4.435   7.713   1.637
  139ACOH    O110008   4.522   7.695   1.721
  139ACOH    C110009   4.456   7.793   1.514
  139ACOH    H110010   4.430   7.734   1.427
  139ACOH    H210011   4.561   7.822   1.505
  139ACOH    H310012   4.395   7.882   1.517
  140ACOH    H410013   8.062   7.268   0.384
  140ACOH    O210014   8.041   7.212   0.463
  140ACOH    C210015   8.147   7.219   0.545
  140ACOH    O110016   8.248   7.284   0.528
  140ACOH    C110017   8.125   7.133   0.664
  140ACOH    H110018   8.036   7.167   0.717
  140ACOH    H210019   8.210   7.138   0.731
  140ACOH    H310020   8.111   7.030   0.632
  141ACOH    H410021   2.855   4.106   1.599
  141ACOH    O210022   2.934   4.048   1.579
  141ACOH    C210023   3.037   4.132   1.559
  141ACOH    O110024   3.034   4.254   1.557
  141ACOH    C110025   3.160   4.055   1.529
  141ACOH    H110026   3.145   3.993   1.442
  141ACOH    H210027   3.186   3.993   1.614
  141ACOH    H310028   3.243   4.123   1.509
  142ACOH    H410029   8.398   4.322   3.371
  142ACOH    O210030   8.391   4.416   3.349
  142ACOH    C210031   8.307   4.472   0.001
  142ACOH    O110032   8.240   4.412   0.084
  142ACOH    C110033   8.296   4.618   3.415
  142ACOH    H110034   8.261   4.638   3.314
  142ACOH    H210035   8.394   4.664   3.427
  142ACOH    H310036   8.228   4.665   0.049
  143ACOH    H410037   6.479   9.580   2.111
  143ACOH    O210038   6.415   9.540   2.046
  143ACOH    C210039   6.291   9.581   2.079
  143ACOH    O110040   6.261   9.655   2.170
  143ACOH    C110041   6.190   9.527   1.985
  143ACOH    H110042   6.144   9.609   1.930
  143ACOH    H210043   6.113   9.473   2.040
  143ACOH    H310044   6.237   9.459   1.914
  144ACOH    H410045   1.526   0.447   1.569
  144ACOH    O210046   1.620   0.481   1.569
  144ACOH    C210047   1.660   0.479   1.441
  144ACOH    O110048   1.606   0.421   1.349
  144ACOH    C110049   1.782   0.561   1.421
  144ACOH    H110050   1.855   0.505   1.363
  144ACOH    H210051   1.827   0.586   1.517
  144ACOH    H310052   1.757   0.652   1.369
  145ACOH    H410053   7.359   1.138   1.418
  145ACOH    O210054   7.260   1.142   1.428
  145ACOH    C210055   7.232   1.210   1.540
  145ACOH    O110056   7.311   1.268   1.613
  145ACOH    C110057   7.086   1.213   1.562
  145ACOH    H110058   7.037   1.257   1.476
  145ACOH    H210059   7.061   1.270   1.651
  145ACOH    H310060   7.049   1.111   1.574
  146ACOH    H410061   9.404   7.550   0.971
  146ACOH    O210062   9.403   7.545   0.871
  146ACOH    C210063   9.349   7.426   0.839
  146ACOH    O110064   9.326   7.333   0.915
  146ACOH    C110065   9.325   7.417   0.693
  146ACOH    H110066   9.285   7.320   0.665
  146ACOH    H210067   9.418   7.433   0.639
  146ACOH    H310068   9.254   7.494   0.663
  147ACOH    H410069   3.570   6.845   0.055
  147ACOH    O210070   3.574   6.837   0.152
  147ACOH    C210071   3.514   6.721   0.183
  147ACOH    O110072   3.474   6.638   0.104
  147ACOH    C110073   3.503   6.704   0.330
  147ACOH    H110074   3.602   6.703   0.374
  147ACOH    H210075   3.452   6.612   0.355
  147ACOH    H310076   3.447   6.788   0.372
  148ACOH    H410077   5.008   9.776   0.546
  148ACOH    O210078   5.039   9.819   0.462
  148ACOH    C210079   4.987   9.943   0.459
  148ACOH    O110080   4.911   9.994   0.539
  148ACOH    C110081   5.035   0.014   0.338
  148ACOH    H110082   4.995   0.115   0.333
  148ACOH    H210083   5.004   9.959   0.250
  148ACOH    H310084   5.144   0.019   0.340
  149ACOH    H410085   5.239   2.178   1.723
  149ACOH    O210086   5.238   2.211   1.816
  149ACOH    C210087   5.240   2.346   1.807
  149ACOH    O110088   5.263   2.412   1.708
  149ACOH    C110089   5.222   2.405   1.942
  149ACOH    H110090   5.294   2.362   2.011
  149ACOH    H210091   5.121   2.384   1.977
  149ACOH    H310092   5.236   2.512   1.938
  150ACOH    H410093   5.278   8.814   3.234
  150ACOH    O210094   5.250   8.793   3.327
  150ACOH    C210095   5.175   8.682   3.321
  150ACOH    O110096   5.142   8.622   3.220
  150ACOH    C110097   5.130   8.639   0.019
  150ACOH    H110098   5.022   8.641   0.023
  150ACOH    H210099   5.170   8.706   0.095
  150ACOH    H310100   5.165   8.538   0.038
  151ACOH    H410101   7.034   1.552   0.520
  151ACOH    O210102   6.961   1.571   0.454
  151ACOH    C210103   7.002   1.674   0.379
  151ACOH    O110104   7.100   1.744   0.396
  151ACOH    C110105   6.908   1.694   0.266
  151ACOH    H110106   6.900   1.602   0.209
  151ACOH    H210107   6.942   1.774   0.201
  151ACOH    H310108   6.810   1.720   0.306
  152ACOH    H410109   4.451   7.655   0.443
  152ACOH    O210110   4.532   7.654   0.386
  152ACOH    C210111   4.573   7.781   0.371
  152ACOH    O110112   4.527   7.879   0.427
  152ACOH    C110113   4.690   7.790   0.280
  152ACOH    H110114   4.663   7.852   0.195
  152ACOH    H210115   4.718   7.692   0.244
  152ACOH    H310116   4.774   7.835   0.332
  153ACOH    H410117   5.157   3.438   1.366
  153ACOH    O210118   5.219   3.422   1.289
  153ACOH    C210119   5.166   3.324   1.214
  153ACOH    O110120   5.063   3.261   1.235
  153ACOH    C110121   5.251   3.298   1.097
  153ACOH    H110122   5.258   3.388   1.037
  153ACOH    H210123   5.211   3.217   1.036
  153ACOH    H310124   5.351   3.272   1.130
  154ACOH    H410125   7.988   6.750   2.118
  154ACOH    O210126   7.891   6.751   2.094
  154ACOH    C210127   7.841   6.870   2.130
  154ACOH    O110128   7.900   6.959   2.189
  154ACOH    C110129   7.699   6.884   2.089
  154ACOH    H110130   7.689   6.971   2.025
  154ACOH    H210131   7.637   6.898   2.177
  154ACOH    H310132   7.666   6.796   2.035
  155ACOH    H410133   8.052   3.459   1.598
  155ACOH    O210134   8.002   3.437   1.681
  155ACOH    C210135   7.921   3.333   1.653
  155ACOH    O110136   7.910   3.276   1.546
  155ACOH    C110137   7.846   3.291   1.774
  155ACOH    H110138   7.915   3.275   1.856
  155ACOH    H210139   7.792   3.198   1.754
  155ACOH    H310140   7.775   3.367   1.801
  156ACOH    H410141   5.387   0.194   1.973
  156ACOH    O210142   5.319   0.176   1.901
  156ACOH    C210143   5.250   0.069   1.942
  156ACOH    O110144   5.280   9.989   2.028
  156ACOH    C110145   5.131   0.052   1.855
  156ACOH    H110146   5.063   0.135   1.872
  156ACOH    H210147   5.080   9.959   1.878
  156ACOH    H310148   5.161   0.052   1.751
  157ACOH    H410149   4.974   0.802   1.406
  157ACOH    O210150   5.042   0.738   1.371
  157ACOH    C210151   4.986   0.617   1.363
  157ACOH    O110152   4.873   0.585   1.396
  157ACOH    C110153   5.080   0.520   1.301
  157ACOH    H110154   5.165   0.504   1.367
  157ACOH    H210155   5.116   0.559   1.207
  157ACOH    H310156   5.030   0.425   1.283
  158ACOH    H410157   6.212   8.468   2.737
  158ACOH    O210158   6.284   8.445   2.801
  158ACOH    C210159   6.385   8.393   2.729
  158ACOH    O110160   6.388   8.377   2.609
  158ACOH    C110161   6.497   8.355   2.817
  158ACOH    H110162   6.464   8.284   2.892
  158ACOH    H210163   6.534   8.444   2.867
  158ACOH    H310164   6.578   8.311   2.759
  159ACOH    H410165   4.922   9.716   2.658
  159ACOH    O210166   4.975   9.788   2.618
  159ACOH    C210167   5.041   9.736   2.512
  159ACOH    O110168   5.017   9.627   2.462
  159ACOH    C110169   5.130   9.834   2.446
  159ACOH    H110170   5.085   9.869   2.354
  159ACOH    H210171   5.226   9.787   2.423
  159ACOH    H310172   5.149   9.920   2.511
  160ACOH    H410173   0.668   5.071   1.583
  160ACOH    O210174   0.571   5.075   1.604
  160ACOH    C210175   0.531   5.202   1.588
  160ACOH    O110176   0.601   5.298   1.561
  160ACOH    C110177   0.384   5.213   1.607
  160ACOH    H110178   0.351   5.315   1.590
  160ACOH    H210179   0.358   5.185   1.708
  160ACOH    H310180   0.334   5.147   1.537
  161ACOH    H410181   7.941   2.137   1.976
  161ACOH    O210182   7.907   2.230   1.960
  161ACOH    C210183   7.875   2.279   2.082
  161ACOH    O110184   7.865   2.216   2.185
  161ACOH    C110185   7.843   2.424   2.074
  161ACOH    H110186   7.907   2.478   2.143
  161ACOH    H210187   7.739   2.440   2.101
  161ACOH    H310188   7.860   2.462   1.974
  162ACOH    H410189   2.369   6.916   1.024
  162ACOH    O210190   2.445   6.860   0.988
  162ACOH    C210191   2.389   6.774   0.901
  162ACOH    O110192   2.273   6.770   0.864
  162ACOH    C110193   2.493   6.683   0.845
  162ACOH    H110194   2.535   6.623   0.925
  162ACOH    H210195   2.572   6.742   0.799
  162ACOH    H310196   2.450   6.617   0.770
  163ACOH    H410197   4.599   3.477   0.288
  163ACOH    O210198   4.645   3.564   0.272
  163ACOH    C210199   4.664   3.620   0.393
  163ACOH    O110200   4.642   3.568   0.501
  163ACOH    C110201   4.722   3.756   0.378
  163ACOH    H110202   4.816   3.750   0.325
  163ACOH    H210203   4.740   3.800   0.476
  163ACOH    H310204   4.654   3.820   0.323
  164ACOH    H410205   3.547   6.353   1.881
  164ACOH    O210206   3.603   6.280   1.920
  164ACOH    C210207   3.522   6.176   1.942
  164ACOH    O110208   3.405   6.166   1.911
  164ACOH    C110209   3.597   6.065   2.007
  164ACOH    H110210   3.632   6.098   2.104
  164ACOH    H210211   3.683   6.038   1.946
  164ACOH    H310212   3.534   5.978   2.020
  165ACOH    H410213   6.330   8.845   1.742
  165ACOH    O210214   6.242   8.879   1.714
  165ACOH    C210215   6.183   8.785   1.639
  165ACOH    O110216   6.220   8.670   1.624
  165ACOH    C110217   6.052   8.833   1.588
  165ACOH    H110218   6.000   8.755   1.534
  165ACOH    H210219   6.067   8.918   1.523
  165ACOH    H310220   5.990   8.864   1.673
  166ACOH    H410221   6.832   9.908   1.190
  166ACOH    O210222   6.811   9.955   1.104
  166ACOH    C210223   6.678   9.943   1.086
  166ACOH    O110224   6.598   9.889   1.160
  166ACOH    C110225   6.638   0.004   0.957
  166ACOH    H110226   6.530   9.995   0.942
  166ACOH    H210227   6.689   9.953   0.876
  166ACOH    H310228   6.666   0.108   0.956
  167ACOH    H410229   7.540   9.011   0.980
  167ACOH    O210230   7.442   9.025   0.993
  167ACOH    C210231   7.396   9.087   0.882
  167ACOH    O110232   7.460   9.118   0.783
  167ACOH    C110233   7.251   9.116   0.893
  167ACOH    H110234   7.198   9.068   0.811
  167ACOH    H210235   7.235   9.224   0.887
  167ACOH    H310236   7.212   9.081   0.987
  168ACOH    H410237   7.596   8.048   2.284
  168ACOH    O210238   7.546   7.962   2.296
  168ACOH    C210239   7.482   7.969   2.414
  168ACOH    O110240   7.491   8.058   2.497
  168ACOH    C110241   7.407   7.844   2.442
  168ACOH    H110242   7.405   7.781   2.354
  168ACOH    H210243   7.306   7.868   2.472
  168ACOH    H310244   7.456   7.790   2.522
  169ACOH    H410245   7.828   8.644   1.427
  169ACOH    O210246   7.739   8.648   1.383
  169ACOH    C210247   7.731   8.768   1.321
  169ACOH    O110248   7.816   8.855   1.321
  169ACOH    C110249   7.599   8.782   1.255
  169ACOH    H110250   7.520   8.778   1.330
  169ACOH    H210251   7.586   8.701   1.184
  169ACOH    H310252   7.593   8.877   1.202
  170ACOH    H410253   8.255   4.606   2.502
  170ACOH    O210254   8.175   4.651   2.463
  170ACOH    C210255   8.133   4.746   2.548
  170ACOH    O110256   8.183   4.774   2.656
  170ACOH    C110257   8.017   4.819   2.494
  170ACOH    H110258   8.046   4.868   2.401
  170ACOH    H210259   7.983   4.895   2.564
  170ACOH    H310260   7.936   4.750   2.473
  171ACOH    H410261   6.075   7.733   2.518
  171ACOH    O210262   6.098   7.637   2.512
  171ACOH    C210263   6.124   7.610   2.382
  171ACOH    O110264   6.119   7.687   2.289
  171ACOH    C110265   6.165   7.468   2.366
  171ACOH    H110266   6.192   7.448   2.263
  171ACOH    H210267   6.082   7.403   2.395
  171ACOH    H310268   6.250   7.448   2.430
  172ACOH    H410269   7.703   5.809   0.385
  172ACOH    O210270   7.739   5.900   0.395
  172ACOH    C210271   7.843   5.911   0.311
  172ACOH    O110272   7.885   5.828   0.233
  172ACOH    C110273   7.903   6.047   0.321
  172ACOH    H110274   7.825   6.121   0.305
  172ACOH    H210275   7.981   6.060   0.247
  172ACOH    H310276   7.945   6.059   0.420
  173ACOH    H410277   8.690   4.882   1.030
  173ACOH    O210278   8.625   4.881   1.105
  173ACOH    C210279   8.671   4.792   1.195
  173ACOH    O110280   8.757   4.709   1.177
  173ACOH    C110281   8.588   4.794   1.318
  173ACOH    H110282   8.529   4.703   1.324
  173ACOH    H210283   8.521   4.880   1.319
  173ACOH    H310284   8.652   4.799   1.406
  174ACOH    H410285   3.996   5.622   2.425
  174ACOH    O210286   4.058   5.672   2.365
  174ACOH    C210287   4.182   5.627   2.391
  174ACOH    O110288   4.212   5.532   2.461
  174ACOH    C110289   4.282   5.704   2.314
  174ACOH    H110290   4.301   5.798   2.363
  174ACOH    H210291   4.244   5.724   2.214
  174ACOH    H310292   4.375   5.647   2.305
  175ACOH    H410293   8.765   5.036   1.476
  175ACOH    O210294   8.687   5.095   1.492
  175ACOH    C210295   8.627   5.048   1.603
  175ACOH    O110296   8.648   4.941   1.657
  175ACOH    C110297   8.512   5.135   1.639
  175ACOH    H110298   8.455   5.090   1.720
  175ACOH    H210299   8.448   5.149   1.553
  175ACOH    H310300   8.550   5.232   1.671
  176ACOH    H410301   0.614   5.722   2.225
  176ACOH    O210302   0.708   5.743   2.251
  176ACOH    C210303   0.750   5.837   2.164
  176ACOH    O110304   0.716   5.847   2.048
  176ACOH    C110305   0.869   5.907   2.217
  176ACOH    H110306   0.862   6.013   2.193
  176ACOH    H210307   0.959   5.867   2.171
  176ACOH    H310308   0.876   5.896   2.325
  177ACOH    H410309   9.337   0.027   2.547
  177ACOH    O210310   9.423   0.061   2.507
  177ACOH    C210311   9.502   9.953   2.497
  177ACOH    O110312   9.475   9.839   2.528
  177ACOH    C110313   9.636   9.990   2.445
  177ACOH    H110314   9.710   9.979   2.524
  177ACOH    H210315   9.637   0.092   2.407
  177ACOH    H310316   9.663   9.922   2.364
  178ACOH    H410317   4.789   8.701   0.983
  178ACOH    O210318   4.837   8.623   1.022
  178ACOH    C210319   4.895   8.557   0.920
  178ACOH    O110320   4.881   8.579   0.802
  178ACOH    C110321   4.978   8.444   0.969
  178ACOH    H110322   4.940   8.350   0.930
  178ACOH    H210323   4.978   8.439   1.077
  178ACOH    H310324   5.081   8.456   0.935
  179ACOH    H410325   7.379   4.192   0.263
  179ACOH    O210326   7.402   4.124   0.332
  179ACOH    C210327   7.533   4.139   0.360
  179ACOH    O110328   7.612   4.214   0.305
  179ACOH    C110329   7.573   4.046   0.468
  179ACOH    H110330   7.517   4.070   0.558
  179ACOH    H210331   7.679   4.052   0.488
  179ACOH    H310332   7.548   3.944   0.438
  180ACOH    H410333   5.205   7.640   2.269
  180ACOH    O210334   5.277   7.695   2.227
  180ACOH    C210335   5.367   7.719   2.324
  180ACOH    O110336   5.350   7.705   2.444
  180ACOH    C110337   5.485   7.790   2.271
  180ACOH    H110338   5.482   7.792   2.162
  180ACOH    H210339   5.575   7.739   2.302
  180ACOH    H310340   5.487   7.892   2.308
  181ACOH    H410341   5.305   0.652   2.113
  181ACOH    O210342   5.356   0.732   2.080
  181ACOH    C210343   5.266   0.829   2.055
  181ACOH    O110344   5.145   0.821   2.060
  181ACOH    C110345   5.335   0.952   2.008
  181ACOH    H110346   5.400   0.928   1.925
  181ACOH    H210347   5.394   0.993   2.089
  181ACOH    H310348   5.262   1.027   1.976
  182ACOH    H410349   8.299   5.903   1.671
  182ACOH    O210350   8.209   5.863   1.684
  182ACOH    C210351   8.126   5.927   1.601
  182ACOH    O110352   8.150   6.027   1.536
  182ACOH    C110353   7.992   5.864   1.602
  182ACOH    H110354   7.954   5.863   1.704
  182ACOH    H210355   8.000   5.762   1.566
  182ACOH    H310356   7.922   5.920   1.540
  183ACOH    H410357   7.099   9.938   0.594
  183ACOH    O210358   7.001   9.933   0.575
  183ACOH    C210359   6.973   9.805   0.546
  183ACOH    O110360   7.043   9.708   0.570
  183ACOH    C110361   6.840   9.792   0.483
  183ACOH    H110362   6.788   9.888   0.482
  183ACOH    H210363   6.780   9.719   0.536
  183ACOH    H310364   6.854   9.759   0.380
  184ACOH    H410365   8.250   6.769   0.671
  184ACOH    O210366   8.190   6.704   0.720
  184ACOH    C210367   8.159   6.764   0.837
  184ACOH    O110368   8.215   6.859   0.887
  184ACOH    C110369   8.056   6.686   0.911
  184ACOH    H110370   7.981   6.753   0.950
  184ACOH    H210371   8.104   6.633   0.994
  184ACOH    H310372   8.009   6.614   0.845
  185ACOH    H410373   4.958   8.306   1.650
  185ACOH    O210374   4.965   8.318   1.551
  185ACOH    C210375   4.967   8.451   1.529
  185ACOH    O110376   4.977   8.539   1.612
  185ACOH    C110377   4.961   8.477   1.383
  185ACOH    H110378   5.042   8.426   1.334
  185ACOH    H210379   4.968   8.584   1.363
  185ACOH    H310380   4.866   8.440   1.344
  186ACOH    H410381   3.979   1.487   0.470
  186ACOH    O210382   3.916   1.491   0.393
  186ACOH    C210383   3.963   1.407   0.300
  186ACOH    O110384   4.043   1.317   0.318
  186ACOH    C110385   3.894   1.425   0.170
  186ACOH    H110386   3.968   1.447   0.093
  186ACOH    H210387   3.822   1.506   0.175
  186ACOH    H310388   3.842   1.333   0.143
  187ACOH    H410389   2.028   1.620   1.195
  187ACOH    O210390   2.063   1.615   1.288
  187ACOH    C210391   1.980   1.686   1.366
  187ACOH    O110392   1.890   1.759   1.329
  187ACOH    C110393   2.021   1.675   1.508
  187ACOH    H110394   2.008   1.572   1.541
  187ACOH    H210395   1.962   1.740   1.572
  187ACOH    H310396   2.126   1.701   1.517
  188ACOH    H410397   8.208   4.294   0.941
  188ACOH    O210398   8.191   4.393   0.943
  188ACOH    C210399   8.105   4.420   0.843
  188ACOH    O110400   8.059   4.343   0.762
  188ACOH    C110401   8.068   4.564   0.842
  188ACOH    H110402   8.116   4.617   0.923
  188ACOH    H210403   7.960   4.574   0.852
  188ACOH    H310404   8.099   4.608   0.748
  189ACOH    H410405   7.975   5.952   1.252
  189ACOH    O210406   7.894   5.898   1.275
  189ACOH    C210407   7.934   5.770   1.288
  189ACOH    O110408   8.046   5.725   1.270
  189ACOH    C110409   7.821   5.683   1.329
  189ACOH    H110410   7.744   5.686   1.252
  189ACOH    H210411   7.778   5.720   1.422
  189ACOH    H310412   7.854   5.581   1.343
  190ACOH    H410413   1.069   0.846   0.806
  190ACOH    O210414   0.973   0.872   0.818
  190ACOH    C210415   0.974   0.998   0.864
  190ACOH    O110416   1.069   1.074   0.862
  190ACOH    C110417   0.835   1.044   0.891
  190ACOH    H110418   0.773   1.028   0.803
  190ACOH    H210419   0.834   1.150   0.916
  190ACOH    H310420   0.794   0.988   0.974
  191ACOH    H410421   7.282   1.619   2.236
  191ACOH    O210422   7.262   1.535   2.186
  191ACOH    C210423   7.264   1.565   2.055
  191ACOH    O110424   7.289   1.673   2.005
  191ACOH    C110425   7.231   1.445   1.974
  191ACOH    H110426   7.242   1.467   1.868
  191ACOH    H210427   7.129   1.415   1.994
  191ACOH    H310428   7.298   1.364   2.000
  192ACOH    H410429   8.134   3.459   0.670
  192ACOH    O210430   8.062   3.427   0.732
  192ACOH    C210431   8.019   3.533   0.802
  192ACOH    O110432   8.056   3.649   0.788
  192ACOH    C110433   7.914   3.494   0.899
  192ACOH    H110434   7.873   3.582   0.949
  192ACOH    H210435   7.957   3.428   0.974
  192ACOH    H310436   7.834   3.442   0.847
  193ACOH    H410437   5.682   8.668   1.638
  193ACOH    O210438   5.733   8.605   1.580
  193ACOH    C210439   5.811   8.531   1.661
  193ACOH    O110440   5.827   8.546   1.780
  193ACOH    C110441   5.885   8.429   1.582
  193ACOH    H110442   5.948   8.478   1.509
  193ACOH    H210443   5.813   8.366   1.531
  193ACOH    H310444   5.946   8.367   1.648
  194ACOH    H410445   8.573   6.138   2.388
  194ACOH    O210446   8.595   6.208   2.321
  194ACOH    C210447   8.657   6.142   2.221
  194ACOH    O110448   8.726   6.043   2.234
  194ACOH    C110449   8.660   6.226   2.098
  194ACOH    H110450   8.560   6.230   2.056
  194ACOH    H210451   8.727   6.183   2.024
  194ACOH    H310452   8.693   6.326   2.122
  195ACOH    H410453   7.399   2.211   0.703
  195ACOH    O210454   7.408   2.300   0.747
  195ACOH    C210455   7.466   2.278   0.866
  195ACOH    O110456   7.464   2.174   0.931
  195ACOH    C110457   7.517   2.404   0.925
  195ACOH    H110458   7.457   2.431   1.011
  195ACOH    H210459   7.512   2.484   0.852
  195ACOH    H310460   7.620   2.390   0.956
  196ACOH    H410461   6.979   0.364   1.971
  196ACOH    O210462   6.928   0.446   1.945
  196ACOH    C210463   6.813   0.404   1.888
  196ACOH    O110464   6.766   0.292   1.892
  196ACOH    C110465   6.740   0.520   1.832
  196ACOH    H110466   6.796   0.561   1.749
  196ACOH    H210467   6.729   0.597   1.908
  196ACOH    H310468   6.641   0.491   1.798
  197ACOH    H410469   7.650   2.999   0.082
  197ACOH    O210470   7.553   3.012   0.099
  197ACOH    C210471   7.506   2.895   0.144
  197ACOH    O110472   7.551   2.784   0.124
  197ACOH    C110473   7.376   2.918   0.211
  197ACOH    H110474   7.331   2.824   0.242
  197ACOH    H210475   7.308   2.968   0.142
  197ACOH    H310476   7.391   2.981   0.298
  198ACOH    H410477   5.452   7.975   2.659
  198ACOH    O210478   5.527   8.039   2.659
  198ACOH    C210479   5.645   7.974   2.648
  198ACOH    O110480   5.752   8.030   2.641
  198ACOH    C110481   5.638   7.825   2.643
  198ACOH    H110482   5.537   7.788   2.661
  198ACOH    H210483   5.705   7.783   2.718
  198ACOH    H310484   5.670   7.791   2.545
  199ACOH    H410485   7.051   0.809   0.670
  199ACOH    O210486   6.968   0.775   0.626
  199ACOH    C210487   7.001   0.665   0.557
  199ACOH    O110488   7.112   0.618   0.542
  199ACOH    C110489   6.881   0.605   0.494
  199ACOH    H110490   6.909   0.521   0.431
  199ACOH    H210491   6.830   0.679   0.434
  199ACOH    H310492   6.814   0.570   0.572
  200ACOH    H410493   3.476   1.378   2.683
  200ACOH    O210494   3.424   1.459   2.673
  200ACOH    C210495   3.405   1.477   2.541
  200ACOH    O110496   3.431   1.397   2.454
  200ACOH    C110497   3.336   1.606   2.515
  200ACOH    H110498   3.396   1.688   2.554
  200ACOH    H210499   3.239   1.607   2.565
  200ACOH    H310500   3.322   1.621   2.409
  201ACOH    H410501   8.207   5.180   2.636
  201ACOH    O210502   8.177   5.238   2.712
  201ACOH    C210503   8.237   5.357   2.697
  201ACOH    O110504   8.297   5.399   2.599
  201ACOH    C110505   8.212   5.442   2.816
  201ACOH    H110506   8.253   5.393   2.904
  201ACOH    H210507   8.104   5.454   2.828
  201ACOH    H310508   8.258   5.540   2.804
  202ACOH    H410509   4.962   0.529   0.819
  202ACOH    O210510   5.015   0.605   0.857
  202ACOH    C210511   4.956   0.640   0.972
  202ACOH    O110512   4.861   0.586   1.025
  202ACOH    C110513   5.025   0.756   1.033
  202ACOH    H110514   5.017   0.842   0.967
  202ACOH    H210515   5.130   0.733   1.046
  202ACOH    H310516   4.982   0.782   1.129
  203ACOH    H410517   4.572   3.789   2.006
  203ACOH    O210518   4.605   3.882   1.997
  203ACOH    C210519   4.551   3.951   2.099
  203ACOH    O110520   4.483   3.906   2.189
  203ACOH    C110521   4.586   4.095   2.090
  203ACOH    H110522   4.548   4.136   1.997
  203ACOH    H210523   4.694   4.107   2.093
  203ACOH    H310524   4.542   4.150   2.174
  204ACOH    H410525   6.168   8.333   1.822
  204ACOH    O210526   6.152   8.237   1.801
  204ACOH    C210527   6.106   8.178   1.913
  204ACOH    O110528   6.080   8.233   2.018
  204ACOH    C110529   6.086   8.033   1.890
  204ACOH    H110530   6.043   7.987   1.978
  204ACOH    H210531   6.181   7.986   1.868
  204ACOH    H310532   6.018   8.019   1.806
  205ACOH    H410533   6.034   7.824   2.232
  205ACOH    O210534   5.992   7.911   2.208
  205ACOH    C210535   5.876   7.916   2.276
  205ACOH    O110536   5.818   7.823   2.330
  205ACOH    C110537   5.815   8.051   2.263
  205ACOH    H110538   5.884   8.125   2.301
  205ACOH    H210539   5.722   8.057   2.319
  205ACOH    H310540   5.795   8.072   2.158
  206ACOH    H410541   4.738   7.524   2.339
  206ACOH    O210542   4.813   7.485   2.391
  206ACOH    C210543   4.786   7.510   2.521
  206ACOH    O110544   4.690   7.571   2.565
  206ACOH    C110545   4.890   7.455   2.611
  206ACOH    H110546   4.934   7.535   2.670
  206ACOH    H210547   4.969   7.406   2.554
  206ACOH    H310548   4.845   7.382   2.678
  207ACOH    H410549   0.948   5.207   2.155
  207ACOH    O210550   0.917   5.301   2.155
  207ACOH    C210551   1.020   5.377   2.114
  207ACOH    O110552   1.126   5.338   2.069
  207ACOH    C110553   0.987   5.522   2.122
  207ACOH    H110554   0.887   5.536   2.163
  207ACOH    H210555   0.992   5.567   2.024
  207ACOH    H310556   1.059   5.571   2.187
  208ACOH    H410557   1.170   3.024   1.187
  208ACOH    O210558   1.093   2.979   1.140
  208ACOH    C210559   1.013   3.077   1.094
  208ACOH    O110560   1.016   3.195   1.125
  208ACOH    C110561   0.905   3.019   1.012
  208ACOH    H110562   0.947   2.979   0.921
  208ACOH    H210563   0.830   3.093   0.987
  208ACOH    H310564   0.857   2.938   1.067
  209ACOH    H410565   4.594   7.220   0.235
  209ACOH    O210566   4.683   7.223   0.190
  209ACOH    C210567   4.672   7.312   0.090
  209ACOH    O110568   4.568   7.354   0.041
  209ACOH    C110569   4.804   7.339   0.029
  209ACOH    H110570   4.809   7.293   3.368
  209ACOH    H210571   4.884   7.300   0.091
  209ACOH    H310572   4.817   7.447   0.017
  210ACOH    H410573   0.910   8.756   0.663
  210ACOH    O210574   0.930   8.743   0.566
  210ACOH    C210575   0.849   8.646   0.522
  210ACOH    O110576   0.786   8.567   0.590
  210ACOH    C110577   0.863   8.631   0.375
  210ACOH    H110578   0.819   8.717   0.326
  210ACOH    H210579   0.814   8.541   0.340
  210ACOH    H310580   0.968   8.626   0.349
  211ACOH    H410581   4.714   4.014   2.497
  211ACOH    O210582   4.808   4.044   2.515
  211ACOH    C210583   4.811   4.178   2.506
  211ACOH    O110584   4.718   4.254   2.492
  211ACOH    C110585   4.951   4.225   2.521
  211ACOH    H110586   4.986   4.201   2.621
  211ACOH    H210587   4.958   4.332   2.504
  211ACOH    H310588   5.013   4.173   2.448
  212ACOH    H410589   0.251  10.000   0.407
  212ACOH    O210590   0.185   9.992   0.333
  212ACOH    C210591   0.198   9.868   0.282
  212ACOH    O110592   0.236   9.769   0.342
  212ACOH    C110593   0.126   9.857   0.153
  212ACOH    H110594   0.108   9.956   0.112
  212ACOH    H210595   0.030   9.808   0.169
  212ACOH    H310596   0.185   9.800   0.083
  213ACOH    H410597   5.212   1.870   1.500
  213ACOH    O210598   5.282   1.913   1.444
  213ACOH    C210599   5.296   2.040   1.485
  213ACOH    O110600   5.230   2.097   1.570
  213ACOH    C110601   5.402   2.109   1.407
  213ACOH    H110602   5.497   2.058   1.422
  213ACOH    H210603   5.411   2.213   1.438
  213ACOH    H310604   5.377   2.105   1.301
  214ACOH    H410605   1.310   3.145   0.917
  214ACOH    O210606   1.227   3.099   0.887
  214ACOH    C210607   1.183   3.156   0.772
  214ACOH    O110608   1.069   3.146   0.733
  214ACOH    C110609   1.278   3.250   0.707
  214ACOH    H110610   1.267   3.244   0.599
  214ACOH    H210611   1.380   3.226   0.732
  214ACOH    H310612   1.256   3.352   0.739
  215ACOH    H410613   4.578   2.603   0.690
  215ACOH    O210614   4.497   2.625   0.635
  215ACOH    C210615   4.426   2.511   0.622
  215ACOH    O110616   4.450   2.403   0.673
  215ACOH    C110617   4.302   2.534   0.545
  215ACOH    H110618   4.292   2.458   0.467
  215ACOH    H210619   4.302   2.631   0.497
  215ACOH    H310620   4.216   2.527   0.611
  216ACOH    H410621   4.733   2.695   1.959
  216ACOH    O210622   4.810   2.758   1.949
  216ACOH    C210623   4.916   2.684   1.910
  216ACOH    O110624   4.917   2.566   1.882
  216ACOH    C110625   5.039   2.766   1.901
  216ACOH    H110626   5.022   2.866   1.939
  216ACOH    H210627   5.071   2.773   1.797
  216ACOH    H310628   5.118   2.720   1.959
  217ACOH    H410629   5.915   8.079   2.621
  217ACOH    O210630   6.006   8.118   2.615
  217ACOH    C210631   6.089   8.021   2.574
  217ACOH    O110632   6.063   7.903   2.555
  217ACOH    C110633   6.227   8.074   2.559
  217ACOH    H110634   6.259   8.115   2.654
  217ACOH    H210635   6.227   8.152   2.484
  217ACOH    H310636   6.296   7.995   2.529
  218ACOH    H410637   4.902   3.142   1.938
  218ACOH    O210638   4.944   3.218   1.989
  218ACOH    C210639   4.987   3.165   2.105
  218ACOH    O110640   4.969   3.052   2.146
  218ACOH    C110641   5.059   3.267   2.184
  218ACOH    H110642   5.146   3.301   2.129
  218ACOH    H210643   5.092   3.225   2.279
  218ACOH    H310644   4.994   3.351   2.204
  219ACOH    H410645   7.001   8.498   2.236
  219ACOH    O210646   6.921   8.439   2.238
  219ACOH    C210647   6.864   8.452   2.359
  219ACOH    O110648   6.912   8.505   2.458
  219ACOH    C110649   6.742   8.366   2.368
  219ACOH    H110650   6.765   8.277   2.424
  219ACOH    H210651   6.709   8.338   2.268
  219ACOH    H310652   6.662   8.420   2.418
  220ACOH    H410653   4.355   5.287   1.025
  220ACOH    O210654   4.424   5.353   1.004
  220ACOH    C210655   4.403   5.395   0.878
  220ACOH    O110656   4.309   5.367   0.807
  220ACOH    C110657   4.509   5.489   0.833
  220ACOH    H110658   4.585   5.501   0.910
  220ACOH    H210659   4.465   5.586   0.811
  220ACOH    H310660   4.556   5.450   0.743
  221ACOH    H410661   7.851   2.283   1.549
  221ACOH    O210662   7.832   2.323   1.459
  221ACOH    C210663   7.724   2.258   1.412
  221ACOH    O110664   7.649   2.186   1.476
  221ACOH    C110665   7.696   2.296   1.271
  221ACOH    H110666   7.778   2.262   1.209
  221ACOH    H210667   7.687   2.403   1.263
  221ACOH    H310668   7.604   2.250   1.236
  222ACOH    H410669   2.939   8.138   1.431
  222ACOH    O210670   2.944   8.143   1.331
  222ACOH    C210671   2.934   8.018   1.283
  222ACOH    O110672   2.942   7.914   1.345
  222ACOH    C110673   2.925   8.022   1.135
  222ACOH    H110674   2.940   7.923   1.092
  222ACOH    H210675   3.001   8.088   1.097
  222ACOH    H310676   2.828   8.060   1.105
  223ACOH    H410677   4.995   7.900   3.376
  223ACOH    O210678   5.071   7.856   3.417
  223ACOH    C210679   5.046   7.724   3.413
  223ACOH    O110680   4.947   7.672   3.365
  223ACOH    C110681   5.157   7.647   0.037
  223ACOH    H110682   5.162   7.671   0.143
  223ACOH    H210683   5.250   7.676   3.426
  223ACOH    H310684   5.141   7.541   0.024
  224ACOH    H410685   6.626   0.106   2.480
  224ACOH    O210686   6.565   0.174   2.442
  224ACOH    C210687   6.642   0.272   2.391
  224ACOH    O110688   6.763   0.279   2.396
  224ACOH    C110689   6.559   0.376   2.326
  224ACOH    H110690   6.501   0.330   2.246
  224ACOH    H210691   6.621   0.455   2.285
  224ACOH    H310692   6.490   0.418   2.399
  225ACOH    H410693   4.357   0.704   0.962
  225ACOH    O210694   4.418   0.720   1.040
  225ACOH    C210695   4.520   0.796   0.995
  225ACOH    O110696   4.542   0.828   0.880
  225ACOH    C110697   4.611   0.835   1.105
  225ACOH    H110698   4.579   0.791   1.199
  225ACOH    H210699   4.611   0.943   1.116
  225ACOH    H310700   4.712   0.801   1.084
  226ACOH    H410701   5.912   9.136   1.741
  226ACOH    O210702   5.905   9.120   1.643
  226ACOH    C210703   5.780   9.076   1.617
  226ACOH    O110704   5.692   9.055   1.698
  226ACOH    C110705   5.762   9.044   1.474
  226ACOH    H110706   5.850   9.073   1.416
  226ACOH    H210707   5.675   9.097   1.435
  226ACOH    H310708   5.746   8.937   1.462
  227ACOH    H410709   4.373   4.387   0.199
  227ACOH    O210710   4.421   4.454   0.256
  227ACOH    C210711   4.552   4.424   0.247
  227ACOH    O110712   4.601   4.325   0.198
  227ACOH    C110713   4.633   4.522   0.323
  227ACOH    H110714   4.626   4.619   0.276
  227ACOH    H210715   4.738   4.491   0.326
  227ACOH    H310716   4.596   4.529   0.425
  228ACOH    H410717   5.484   3.030   1.240
  228ACOH    O210718   5.470   3.115   1.289
  228ACOH    C210719   5.400   3.085   1.400
  228ACOH    O110720   5.359   2.976   1.433
  228ACOH    C110721   5.375   3.205   1.483
  228ACOH    H110722   5.410   3.295   1.433
  228ACOH    H210723   5.426   3.196   1.578
  228ACOH    H310724   5.268   3.216   1.502
  229ACOH    H410725   6.526   9.731   1.173
  229ACOH    O210726   6.493   9.640   1.158
  229ACOH    C210727   6.539   9.563   1.258
  229ACOH    O110728   6.597   9.602   1.358
  229ACOH    C110729   6.502   9.421   1.239
  229ACOH    H110730   6.459   9.406   1.140
  229ACOH    H210731   6.430   9.392   1.314
  229ACOH    H310732   6.591   9.359   1.249
  230ACOH    H410733   7.538   3.204   0.551
  230ACOH    O210734   7.440   3.189   0.565
  230ACOH    C210735   7.421   3.056   0.573
  230ACOH    O110736   7.505   2.968   0.566
  230ACOH    C110737   7.278   3.025   0.593
  230ACOH    H110738   7.242   3.076   0.682
  230ACOH    H210739   7.263   2.918   0.604
  230ACOH    H310740   7.221   3.060   0.507
  231ACOH    H410741   4.637   2.984   0.380
  231ACOH    O210742   4.710   2.916   0.373
  231ACOH    C210743   4.789   2.930   0.480
  231ACOH    O110744   4.777   3.013   0.569
  231ACOH    C110745   4.899   2.831   0.477
  231ACOH    H110746   4.965   2.843   0.562
  231ACOH    H210747   4.955   2.842   0.385
  231ACOH    H310748   4.856   2.731   0.480
  232ACOH    H410749   4.034   7.486   1.681
  232ACOH    O210750   4.093   7.458   1.604
  232ACOH    C210751   4.076   7.548   1.506
  232ACOH    O110752   3.991   7.635   1.499
  232ACOH    C110753   4.164   7.516   1.390
  232ACOH    H110754   4.241   7.446   1.419
  232ACOH    H210755   4.211   7.607   1.354
  232ACOH    H310756   4.104   7.473   1.310
  233ACOH    H410757   7.551   2.261   2.147
  233ACOH    O210758   7.550   2.332   2.217
  233ACOH    C210759   7.517   2.272   2.333
  233ACOH    O110760   7.470   2.161   2.346
  233ACOH    C110761   7.536   2.365   2.447
  233ACOH    H110762   7.642   2.385   2.459
  233ACOH    H210763   7.499   2.321   2.539
  233ACOH    H310764   7.485   2.458   2.427
  234ACOH    H410765   2.144   2.344   1.469
  234ACOH    O210766   2.166   2.276   1.538
  234ACOH    C210767   2.077   2.177   1.524
  234ACOH    O110768   1.969   2.184   1.469
  234ACOH    C110769   2.114   2.059   1.605
  234ACOH    H110770   2.048   2.050   1.691
  234ACOH    H210771   2.217   2.067   1.640
  234ACOH    H310772   2.105   1.968   1.545
  235ACOH    H410773   5.416   2.678   1.216
  235ACOH    O210774   5.442   2.666   1.119
  235ACOH    C210775   5.492   2.785   1.079
  235ACOH    O110776   5.504   2.887   1.144
  235ACOH    C110777   5.534   2.776   0.937
  235ACOH    H110778   5.447   2.751   0.875
  235ACOH    H210779   5.609   2.698   0.925
  235ACOH    H310780   5.575   2.871   0.903
  236ACOH    H410781   6.571   0.157   2.778
  236ACOH    O210782   6.630   0.230   2.810
  236ACOH    C210783   6.566   0.346   2.786
  236ACOH    O110784   6.453   0.358   2.741
  236ACOH    C110785   6.648   0.462   2.827
  236ACOH    H110786   6.597   0.555   2.802
  236ACOH    H210787   6.743   0.459   2.775
  236ACOH    H310788   6.666   0.458   2.933
  237ACOH    H410789   4.708   9.147   1.483
  237ACOH    O210790   4.713   9.049   1.460
  237ACOH    C210791   4.803   8.993   1.543
  237ACOH    O110792   4.847   9.040   1.647
  237ACOH    C110793   4.827   8.851   1.507
  237ACOH    H110794   4.778   8.786   1.579
  237ACOH    H210795   4.934   8.830   1.508
  237ACOH    H310796   4.787   8.829   1.408
  238ACOH    H410797   7.956   4.554   0.271
  238ACOH    O210798   7.877   4.594   0.226
  238ACOH    C210799   7.918   4.714   0.180
  238ACOH    O110800   8.027   4.765   0.194
  238ACOH    C110801   7.808   4.780   0.104
  238ACOH    H110802   7.774   4.714   0.025
  238ACOH    H210803   7.842   4.873   0.060
  238ACOH    H310804   7.725   4.801   0.172
  239ACOH    H410805   6.623   0.192   1.920
  239ACOH    O210806   6.540   0.142   1.937
  239ACOH    C210807   6.565   0.057   2.039
  239ACOH    O110808   6.666   0.054   2.107
  239ACOH    C110809   6.447   9.972   2.066
  239ACOH    H110810   6.426   9.911   1.978
  239ACOH    H210811   6.360   0.035   2.086
  239ACOH    H310812   6.464   9.907   2.151
  240ACOH    H410813   3.617   6.895   2.019
  240ACOH    O210814   3.697   6.857   2.065
  240ACOH    C210815   3.678   6.724   2.070
  240ACOH    O110816   3.583   6.661   2.027
  240ACOH    C110817   3.793   6.656   2.136
  240ACOH    H110818   3.758   6.603   2.223
  240ACOH    H210819   3.868   6.729   2.167
  240ACOH    H310820   3.838   6.586   2.067
  241ACOH    H410821   3.826   5.807   2.094
  241ACOH    O210822   3.829   5.824   1.997
  241ACOH    C210823   3.849   5.706   1.936
  241ACOH    O110824   3.873   5.599   1.989
  241ACOH    C110825   3.852   5.722   1.789
  241ACOH    H110826   3.953   5.706   1.753
  241ACOH    H210827   3.819   5.822   1.761
  241ACOH    H310828   3.786   5.649   1.743
  242ACOH    H410829   7.460   1.319   0.332
  242ACOH    O210830   7.411   1.407   0.336
  242ACOH    C210831   7.413   1.456   0.211
  242ACOH    O110832   7.453   1.400   0.111
  242ACOH    C110833   7.349   1.590   0.204
  242ACOH    H110834   7.329   1.628   0.304
  242ACOH    H210835   7.255   1.583   0.150
  242ACOH    H310836   7.415   1.660   0.153
  243ACOH    H410837   8.122   5.947   0.671
  243ACOH    O210838   8.042   5.914   0.720
  243ACOH    C210839   8.072   5.919   0.851
  243ACOH    O110840   8.184   5.911   0.899
  243ACOH    C110841   7.951   5.901   0.934
  243ACOH    H110842   7.947   5.979   1.010
  243ACOH    H210843   7.953   5.804   0.983
  243ACOH    H310844   7.861   5.908   0.873
  244ACOH    H410845   5.385   2.527   1.054
  244ACOH    O210846   5.356   2.438   1.024
  244ACOH    C210847   5.261   2.456   0.930
  244ACOH    O110848   5.213   2.562   0.895
  244ACOH    C110849   5.213   2.326   0.877
  244ACOH    H110850   5.217   2.326   0.768
  244ACOH    H210851   5.110   2.310   0.908
  244ACOH    H310852   5.274   2.245   0.914
  245ACOH    H410853   7.391   0.834   2.436
  245ACOH    O210854   7.381   0.895   2.515
  245ACOH    C210855   7.330   0.818   2.614
  245ACOH    O110856   7.312   0.698   2.612
  245ACOH    C110857   7.308   0.901   2.735
  245ACOH    H110858   7.234   0.978   2.714
  245ACOH    H210859   7.401   0.947   2.766
  245ACOH    H310860   7.271   0.839   2.816
  246ACOH    H410861   4.621   7.719   1.046
  246ACOH    O210862   4.715   7.711   1.014
  246ACOH    C210863   4.710   7.704   0.880
  246ACOH    O110864   4.610   7.694   0.811
  246ACOH    C110865   4.847   7.700   0.823
  246ACOH    H110866   4.899   7.792   0.847
  246ACOH    H210867   4.843   7.688   0.715
  246ACOH    H310868   4.901   7.616   0.866
  247ACOH    H410869   7.715   5.514   0.193
  247ACOH    O210870   7.615   5.505   0.191
  247ACOH    C210871   7.565   5.585   0.286
  247ACOH    O110872   7.627   5.652   0.367
  247ACOH    C110873   7.417   5.579   0.286
  247ACOH    H110874   7.380   5.620   0.193
  247ACOH    H210875   7.376   5.635   0.370
  247ACOH    H310876   7.385   5.475   0.294
  248ACOH    H410877   5.070   1.434   1.956
  248ACOH    O210878   5.159   1.475   1.972
  248ACOH    C210879   5.198   1.438   2.095
  248ACOH    O110880   5.152   1.347   2.161
  248ACOH    C110881   5.322   1.508   2.135
  248ACOH    H110882   5.343   1.591   2.067
  248ACOH    H210883   5.405   1.438   2.131
  248ACOH    H310884   5.312   1.546   2.236
  249ACOH    H410885   1.334   3.564   0.456
  249ACOH    O210886   1.239   3.574   0.484
  249ACOH    C210887   1.170   3.475   0.424
  249ACOH    O110888   1.215   3.385   0.356
  249ACOH    C110889   1.026   3.486   0.457
  249ACOH    H110890   1.012   3.481   0.564
  249ACOH    H210891   0.970   3.406   0.410
  249ACOH    H310892   0.988   3.581   0.421
  250ACOH    H410893   7.477   4.493   0.094
  250ACOH    O210894   7.391   4.507   0.047
  250ACOH    C210895   7.310   4.403   0.076
  250ACOH    O110896   7.334   4.311   0.152
  250ACOH    C110897   7.182   4.414   0.004
  250ACOH    H110898   7.201   4.416   3.334
  250ACOH    H210899   7.131   4.505   0.033
  250ACOH    H310900   7.118   4.329   0.027
  251ACOH    H410901   4.931   3.651   0.651
  251ACOH    O210902   4.957   3.639   0.557
  251ACOH    C210903   4.960   3.507   0.532
  251ACOH    O110904   4.947   3.417   0.613
  251ACOH    C110905   4.992   3.480   0.389
  251ACOH    H110906   4.997   3.573   0.333
  251ACOH    H210907   4.915   3.416   0.346
  251ACOH    H310908   5.088   3.430   0.383
  252ACOH    H410909   8.217   6.276   2.122
  252ACOH    O210910   8.164   6.198   2.152
  252ACOH    C210911   8.107   6.232   2.268
  252ACOH    O110912   8.138   6.324   2.342
  252ACOH    C110913   8.003   6.133   2.305
  252ACOH    H110914   7.957   6.158   2.400
  252ACOH    H210915   8.049   6.035   2.313
  252ACOH    H310916   7.927   6.130   2.228
  253ACOH    H410917   3.301   9.291   0.400
  253ACOH    O210918   3.236   9.363   0.422
  253ACOH    C210919   3.308   9.463   0.477
  253ACOH    O110920   3.429   9.474   0.478
  253ACOH    C110921   3.218   9.569   0.529
  253ACOH    H110922   3.150   9.601   0.450
  253ACOH    H210923   3.276   9.654   0.563
  253ACOH    H310924   3.161   9.529   0.613
  254ACOH    H410925   8.194   7.743   1.195
  254ACOH    O210926   8.096   7.741   1.209
  254ACOH    C210927   8.038   7.759   1.089
  254ACOH    O110928   8.093   7.772   0.981
  254ACOH    C110929   7.890   7.757   1.103
  254ACOH    H110930   7.859   7.661   1.143
  254ACOH    H210931   7.841   7.774   1.008
  254ACOH    H310932   7.861   7.835   1.173
  255ACOH    H410933   4.766   3.738   1.016
  255ACOH    O210934   4.814   3.652   1.032
  255ACOH    C210935   4.887   3.626   0.922
  255ACOH    O110936   4.886   3.687   0.817
  255ACOH    C110937   4.971   3.506   0.945
  255ACOH    H110938   4.907   3.420   0.962
  255ACOH    H210939   5.033   3.521   1.032
  255ACOH    H310940   5.035   3.486   0.859
  256ACOH    H410941   3.455   6.133   1.130
  256ACOH    O210942   3.440   6.139   1.228
  256ACOH    C210943   3.407   6.266   1.257
  256ACOH    O110944   3.409   6.361   1.181
  256ACOH    C110945   3.377   6.285   1.401
  256ACOH    H110946   3.282   6.336   1.412
  256ACOH    H210947   3.455   6.346   1.447
  256ACOH    H310948   3.371   6.190   1.453
  257ACOH    H410949   3.335   5.486   1.160
  257ACOH    O210950   3.416   5.533   1.124
  257ACOH    C210951   3.381   5.662   1.108
  257ACOH    O110952   3.269   5.708   1.100
  257ACOH    C110953   3.500   5.745   1.076
  257ACOH    H110954   3.592   5.690   1.096
  257ACOH    H210955   3.499   5.835   1.137
  257ACOH    H310956   3.498   5.774   0.972
  258ACOH    H410957   5.250   3.932   0.248
  258ACOH    O210958   5.339   3.903   0.284
  258ACOH    C210959   5.356   3.773   0.254
  258ACOH    O110960   5.280   3.701   0.193
  258ACOH    C110961   5.484   3.724   0.310
  258ACOH    H110962   5.484   3.738   0.417
  258ACOH    H210963   5.566   3.781   0.267
  258ACOH    H310964   5.498   3.619   0.287
  259ACOH    H410965   4.722   8.200   1.142
  259ACOH    O210966   4.732   8.123   1.206
  259ACOH    C210967   4.833   8.048   1.159
  259ACOH    O110968   4.897   8.068   1.057
  259ACOH    C110969   4.860   7.932   1.247
  259ACOH    H110970   4.963   7.935   1.281
  259ACOH    H210971   4.844   7.840   1.192
  259ACOH    H310972   4.795   7.933   1.334
  260ACOH    H410973   4.510   0.260   0.600
  260ACOH    O210974   4.468   0.220   0.519
  260ACOH    C210975   4.348   0.278   0.502
  260ACOH    O110976   4.287   0.345   0.584
  260ACOH    C110977   4.289   0.244   0.370
  260ACOH    H110978   4.194   0.192   0.384
  260ACOH    H210979   4.356   0.179   0.314
  260ACOH    H310980   4.272   0.334   0.313
  261ACOH    H410981   4.511   0.464   2.741
  261ACOH    O210982   4.517   0.534   2.674
  261ACOH    C210983   4.643   0.581   2.674
  261ACOH    O110984   4.736   0.538   2.739
  261ACOH    C110985   4.656   0.694   2.579
  261ACOH    H110986   4.760   0.728   2.573
  261ACOH    H210987   4.594   0.777   2.611
  261ACOH    H310988   4.624   0.662   2.480
  262ACOH    H410989   4.103   5.083   2.009
  262ACOH    O210990   4.096   5.154   1.938
  262ACOH    C210991   4.161   5.107   1.830
  262ACOH    O110992   4.219   5.000   1.818
  262ACOH    C110993   4.159   5.206   1.720
  262ACOH    H110994   4.115   5.161   1.631
  262ACOH    H210995   4.261   5.238   1.698
  262ACOH    H310996   4.101   5.293   1.748
  263SOL     OW10997   3.787   5.075   0.965
  263SOL    HW110998   3.858   5.010   0.936
  263SOL    HW210999   3.831   5.157   1.003
  264SOL     OW11000   2.859   5.885   0.238
  264SOL    HW111001   2.952   5.849   0.231
  264SOL    HW211002   2.861   5.979   0.273
  265SOL     OW11003   4.590   9.669   1.579
  265SOL    HW111004   4.531   9.696   1.654
  265SOL    HW211005   4.656   9.600   1.610
  266SOL     OW11006   0.376   1.979   1.873
  266SOL    HW111007   0.438   1.907   1.842
  266SOL    HW211008   0.380   2.057   1.810
  267SOL     OW11009   4.444   0.798   1.428
  267SOL    HW111010   4.371   0.833   1.369
  267SOL    HW211011   4.449   0.853   1.511
  268SOL     OW11012   1.079   5.121   1.552
  268SOL    HW111013   1.153   5.061   1.584
  268SOL    HW211014   1.101   5.155   1.460
  269SOL     OW11015   2.498   3.206   0.835
  269SOL    HW111016   2.400   3.208   0.856
  269SOL    HW211017   2.534   3.299   0.839
  270SOL     OW11018   8.949   8.583   1.138
  270SOL    HW111019   8.904   8.532   1.064
  270SOL    HW211020   9.027   8.634   1.100
  271SOL     OW11021   0.343   7.309   1.500
  271SOL    HW111022   0.389   7.356   1.575
  271SOL    HW211023   0.244   7.315   1.512
  272SOL     OW11024   2.560   9.835   1.644
  272SOL    HW111025   2.596   9.754   1.691
  272SOL    HW211026   2.506   9.889   1.708
  273SOL     OW11027   2.263   3.207   0.417
  273SOL    HW111028   2.327   3.166   0.352
  273SOL    HW211029   2.174   3.161   0.409
  274SOL     OW11030   2.564   1.426   1.910
  274SOL    HW111031   2.587   1.396   1.817
  274SOL    HW211032   2.638   1.401   1.972
  275SOL     OW11033   1.248   5.872   0.319
  275SOL    HW111034   1.307   5.911   0.249
  275SOL    HW211035   1.235   5.938   0.393
  276SOL     OW11036   4.110   4.600   2.545
  276SOL    HW111037   4.169   4.575   2.468
  276SOL    HW211038   4.034   4.535   2.550
  277SOL     OW11039   9.066   9.957   2.391
  277SOL    HW111040   9.048   0.040   2.339
  277SOL    HW211041   9.048   9.877   2.334
  278SOL     OW11042   0.381   6.300   0.722
  278SOL    HW111043   0.454   6.238   0.693
  278SOL    HW211044   0.417   6.394   0.726
  279SOL     OW11045   2.323   8.475   0.444
  279SOL    HW111046   2.239   8.523   0.420
  279SOL    HW211047   2.381   8.468   0.363
  280SOL     OW11048   8.954   3.295   0.938
  280SOL    HW111049   9.022   3.234   0.979
  280SOL    HW211050   8.998   3.381   0.913
  281SOL     OW11051   3.673   5.910   2.444
  281SOL    HW111052   3.737   5.883   2.372
  281SOL    HW211053   3.688   5.853   2.525
  282SOL     OW11054   0.755   0.414   2.251
  282SOL    HW111055   0.659   0.406   2.223
  282SOL    HW211056   0.810   0.348   2.200
  283SOL     OW11057   1.243   1.608   0.150
  283SOL    HW111058   1.225   1.661   0.233
  283SOL    HW211059   1.301   1.661   0.088
  284SOL     OW11060   7.629   0.980   1.177
  284SOL    HW111061   7.608   1.016   1.086
  284SOL    HW211062   7.646   0.881   1.171
  285SOL     OW11063   0.715   3.922   1.862
  285SOL    HW111064   0.673   3.910   1.772
  285SOL    HW211065   0.785   3.993   1.857
  286SOL     OW11066   5.299   9.507   2.236
  286SOL    HW111067   5.385   9.460   2.254
  286SOL    HW211068   5.224   9.459   2.281
  287SOL     OW11069   5.056   8.954   2.481
  287SOL    HW111070   5.046   8.875   2.421
  287SOL    HW211071   5.012   9.034   2.439
  288SOL     OW11072   0.317   5.549   0.620
  288SOL    HW111073   0.229   5.585   0.652
  288SOL    HW211074   0.323   5.452   0.641
  289SOL     OW11075   9.788   2.510   1.890
  289SOL    HW111076   9.791   2.411   1.876
  289SOL    HW211077   9.770   2.529   1.987
  290SOL     OW11078   9.918   1.280   1.988
  290SOL    HW111079   9.853   1.346   2.027
  290SOL    HW211080   0.012   1.313   2.004
  291SOL     OW11081   8.168   3.501   1.481
  291SOL    HW111082   8.257   3.459   1.499
  291SOL    HW211083   8.181   3.589   1.436
  292SOL     OW11084   3.293   8.452   1.331
  292SOL    HW111085   3.260   8.401   1.411
  292SOL    HW211086   3.331   8.388   1.265
  293SOL     OW11087   2.161   5.046   0.042
  293SOL    HW111088   2.080   5.084   0.086
  293SOL    HW211089   2.207   5.117   3.426
  294SOL     OW11090   8.164   2.139   0.244
  294SOL    HW111091   8.088   2.200   0.221
  294SOL    HW211092   8.244   2.194   0.270
  295SOL     OW11093   1.564   4.447   1.194
  295SOL    HW111094   1.556   4.417   1.289
  295SOL    HW211095   1.475   4.439   1.149
  296SOL     OW11096   9.295   5.404   2.124
  296SOL    HW111097   9.230   5.441   2.058
  296SOL    HW211098   9.248   5.383   2.210
  297SOL     OW11099   1.489   4.448   0.588
  297SOL    HW111100   1.396   4.440   0.621
  297SOL    HW211101   1.508   4.376   0.521
  298SOL     OW11102   3.261   8.054   0.650
  298SOL    HW111103   3.253   8.099   0.561
  298SOL    HW211104   3.351   8.011   0.658
  299SOL     OW11105   0.888   8.653   2.013
  299SOL    HW111106   0.971   8.601   1.993
  299SOL    HW211107   0.817   8.629   1.947
  300SOL     OW11108   0.218   7.772   0.078
  300SOL    HW111109   0.304   7.725   0.056
  300SOL    HW211110   0.147   7.705   0.098
  301SOL     OW11111   2.989   6.841   2.050
  301SOL    HW111112   2.912   6.858   2.112
  301SOL    HW211113   2.972   6.758   1.997
  302SOL     OW11114   3.329   1.982   2.327
  302SOL    HW111115   3.392   1.990   2.404
  302SOL    HW211116   3.243   1.942   2.358
  303SOL     OW11117   9.824   4.920   0.335
  303SOL    HW111118   9.836   4.917   0.236
  303SOL    HW211119   9.912   4.931   0.380
  304SOL     OW11120   0.981   5.632   0.580
  304SOL    HW111121   0.968   5.679   0.493
  304SOL    HW211122   1.078   5.630   0.603
  305SOL     OW11123   7.729   2.112   0.227
  305SOL    HW111124   7.720   2.013   0.219
  305SOL    HW211125   7.689   2.155   0.146
  306SOL     OW11126   3.762   4.262   1.432
  306SOL    HW111127   3.832   4.325   1.397
  306SOL    HW211128   3.676   4.311   1.443
  307SOL     OW11129   9.864   2.461   0.791
  307SOL    HW111130   9.836   2.550   0.826
  307SOL    HW211131   9.959   2.465   0.760
  308SOL     OW11132   2.552   8.510   1.882
  308SOL    HW111133   2.607   8.491   1.800
  308SOL    HW211134   2.611   8.517   1.962
  309SOL     OW11135   1.333   2.441   0.400
  309SOL    HW111136   1.332   2.489   0.312
  309SOL    HW211137   1.296   2.349   0.389
  310SOL     OW11138   3.382   8.360   0.847
  310SOL    HW111139   3.350   8.371   0.753
  310SOL    HW211140   3.304   8.363   0.910
  311SOL     OW11141   1.032   9.905   1.458
  311SOL    HW111142   0.975   9.918   1.539
  311SOL    HW211143   1.027   9.987   1.400
  312SOL     OW11144   5.172   7.973   2.274
  312SOL    HW111145   5.212   7.905   2.213
  312SOL    HW211146   5.216   8.061   2.259
  313SOL     OW11147   9.021   0.589   2.455
  313SOL    HW111148   8.972   0.675   2.439
  313SOL    HW211149   9.025   0.537   2.370
  314SOL     OW11150   1.374   6.252   0.441
  314SOL    HW111151   1.355   6.262   0.343
  314SOL    HW211152   1.381   6.343   0.482
  315SOL     OW11153   0.611   7.651   1.016
  315SOL    HW111154   0.529   7.709   1.008
  315SOL    HW211155   0.687   7.695   0.967
  316SOL     OW11156   0.445   9.101   0.170
  316SOL    HW111157   0.390   9.026   0.208
  316SOL    HW211158   0.399   9.188   0.187
  317SOL     OW11159   3.209   5.343   2.073
  317SOL    HW111160   3.240   5.373   1.983
  317SOL    HW211161   3.286   5.307   2.125
  318SOL     OW11162   8.991   0.188   1.947
  318SOL    HW111163   9.043   0.263   1.905
  318SOL    HW211164   8.899   0.219   1.970
  319SOL     OW11165   8.486   5.281   0.438
  319SOL    HW111166   8.389   5.266   0.423
  319SOL    HW211167   8.538   5.253   0.358
  320SOL     OW11168   3.425   4.537   2.606
  320SOL    HW111169   3.468   4.625   2.629
  320SOL    HW211170   3.326   4.544   2.620
  321SOL     OW11171   4.957   7.870   1.972
  321SOL    HW111172   4.919   7.824   2.052
  321SOL    HW211173   5.017   7.806   1.923
  322SOL     OW11174   2.388   4.188   2.297
  322SOL    HW111175   2.355   4.242   2.220
  322SOL    HW211176   2.400   4.093   2.268
  323SOL     OW11177   9.783   5.753   0.892
  323SOL    HW111178   9.848   5.741   0.966
  323SOL    HW211179   9.771   5.850   0.872
  324SOL     OW11180   1.268   9.546   2.523
  324SOL    HW111181   1.316   9.459   2.515
  324SOL    HW211182   1.200   9.555   2.451
  325SOL     OW11183   9.738   3.128   0.914
  325SOL    HW111184   9.702   3.216   0.884
  325SOL    HW211185   9.662   3.063   0.922
  326SOL     OW11186   9.665   6.231   1.532
  326SOL    HW111187   9.730   6.158   1.548
  326SOL    HW211188   9.612   6.212   1.449
  327SOL     OW11189   8.809   2.390   2.305
  327SOL    HW111190   8.745   2.367   2.378
  327SOL    HW211191   8.872   2.461   2.337
  328SOL     OW11192   0.080   4.049   2.229
  328SOL    HW111193   0.178   4.066   2.216
  328SOL    HW211194   0.036   4.133   2.263
  329SOL     OW11195   8.192   9.002   0.938
  329SOL    HW111196   8.129   8.959   1.004
  329SOL    HW211197   8.286   8.986   0.968
  330SOL     OW11198   5.996   8.473   2.389
  330SOL    HW111199   5.976   8.558   2.339
  330SOL    HW211200   5.912   8.419   2.398
  331SOL     OW11201   3.404   9.461   0.107
  331SOL    HW111202   3.333   9.526   0.135
  331SOL    HW211203   3.366   9.369   0.102
  332SOL     OW11204   9.379   6.702   2.200
  332SOL    HW111205   9.424   6.668   2.117
  332SOL    HW211206   9.435   6.681   2.280
  333SOL     OW11207   9.886   2.380   2.461
  333SOL    HW111208   9.810   2.331   2.504
  333SOL    HW211209   9.873   2.479   2.475
  334SOL     OW11210   2.481   0.879   2.395
  334SOL    HW111211   2.475   0.792   2.444
  334SOL    HW211212   2.407   0.939   2.424
  335SOL     OW11213   2.373   8.143   1.382
  335SOL    HW111214   2.433   8.066   1.401
  335SOL    HW211215   2.314   8.122   1.304
  336SOL     OW11216   2.286   0.506   0.551
  336SOL    HW111217   2.371   0.530   0.598
  336SOL    HW211218   2.209   0.547   0.600
  337SOL     OW11219   9.189   8.156   0.680
  337SOL    HW111220   9.101   8.147   0.728
  337SOL    HW211221   9.241   8.232   0.719
  338SOL     OW11222   3.177   2.862   1.450
  338SOL    HW111223   3.265   2.909   1.443
  338SOL    HW211224   3.190   2.765   1.431
  339SOL     OW11225   1.954   3.717   1.931
  339SOL    HW111226   2.035   3.672   1.896
  339SOL    HW211227   1.880   3.650   1.942
  340SOL     OW11228   3.064   1.460   0.298
  340SOL    HW111229   3.098   1.423   0.211
  340SOL    HW211230   3.127   1.530   0.332
  341SOL     OW11231   4.634   2.353   0.996
  341SOL    HW111232   4.566   2.288   0.960
  341SOL    HW211233   4.703   2.303   1.049
  342SOL     OW11234   9.017   6.958   1.113
  342SOL    HW111235   8.997   7.044   1.065
  342SOL    HW211236   9.115   6.952   1.133
  343SOL     OW11237   8.835   9.827   1.880
  343SOL    HW111238   8.920   9.848   1.927
  343SOL    HW211239   8.826   9.885   1.799
  344SOL     OW11240   9.092   4.017   1.547
  344SOL    HW111241   9.135   3.971   1.624
  344SOL    HW211242   8.996   3.990   1.542
  345SOL     OW11243   7.569   1.139   2.177
  345SOL    HW111244   7.668   1.147   2.187
  345SOL    HW211245   7.524   1.154   2.265
  346SOL     OW11246   3.258   4.791   0.826
  346SOL    HW111247   3.209   4.875   0.802
  346SOL    HW211248   3.193   4.717   0.839
  347SOL     OW11249   7.756   1.449   2.352
  347SOL    HW111250   7.738   1.457   2.255
  347SOL    HW211251   7.670   1.447   2.403
  348SOL     OW11252   1.717   6.129   1.030
  348SOL    HW111253   1.654   6.187   1.082
  348SOL    HW211254   1.703   6.145   0.932
  349SOL     OW11255   9.106   8.193   1.913
  349SOL    HW111256   9.118   8.256   1.836
  349SOL    HW211257   9.011   8.164   1.917
  350SOL     OW11258   3.486   7.146   1.067
  350SOL    HW111259   3.578   7.185   1.079
  350SOL    HW211260   3.493   7.047   1.057
  351SOL     OW11261   9.608   7.292   2.060
  351SOL    HW111262   9.542   7.298   1.985
  351SOL    HW211263   9.599   7.373   2.118
  352SOL     OW11264   4.415   2.824   2.195
  352SOL    HW111265   4.342   2.758   2.176
  352SOL    HW211266   4.435   2.876   2.112
  353SOL     OW11267   9.854   4.277   0.967
  353SOL    HW111268   9.815   4.365   0.993
  353SOL    HW211269   9.949   4.290   0.938
  354SOL     OW11270   9.341   7.430   1.369
  354SOL    HW111271   9.286   7.349   1.347
  354SOL    HW211272   9.393   7.413   1.453
  355SOL     OW11273   1.543   6.428   0.220
  355SOL    HW111274   1.499   6.513   0.251
  355SOL    HW211275   1.473   6.365   0.187
  356SOL     OW11276   3.341   2.574   0.901
  356SOL    HW111277   3.420   2.619   0.942
  356SOL    HW211278   3.268   2.565   0.969
  357SOL     OW11279   2.830   4.970   2.378
  357SOL    HW111280   2.805   4.885   2.331
  357SOL    HW211281   2.920   5.001   2.345
  358SOL     OW11282   1.884   2.584   1.951
  358SOL    HW111283   1.943   2.582   2.032
  358SOL    HW211284   1.906   2.664   1.895
  359SOL     OW11285   3.774   1.901   2.417
  359SOL    HW111286   3.799   1.928   2.324
  359SOL    HW211287   3.839   1.941   2.482
  360SOL     OW11288   8.997   4.955   0.105
  360SOL    HW111289   9.059   4.890   0.062
  360SOL    HW211290   9.043   5.044   0.113
  361SOL     OW11291   2.897   3.109   0.235
  361SOL    HW111292   2.845   3.081   0.316
  361SOL    HW211293   2.906   3.208   0.234
  362SOL     OW11294   0.446   1.102   2.216
  362SOL    HW111295   0.437   1.097   2.117
  362SOL    HW211296   0.517   1.169   2.240
  363SOL     OW11297   9.504   9.520   0.606
  363SOL    HW111298   9.595   9.552   0.579
  363SOL    HW211299   9.490   9.427   0.573
  364SOL     OW11300   0.895   9.964   1.689
  364SOL    HW111301   0.969   0.015   1.733
  364SOL    HW211302   0.808   0.011   1.705
  365SOL     OW11303   9.531   4.189   0.693
  365SOL    HW111304   9.537   4.154   0.787
  365SOL    HW211305   9.532   4.289   0.695
  366SOL     OW11306   4.462   1.102   2.563
  366SOL    HW111307   4.509   1.098   2.652
  366SOL    HW211308   4.393   1.175   2.565
  367SOL     OW11309   2.683   9.786   1.991
  367SOL    HW111310   2.664   9.730   1.911
  367SOL    HW211311   2.706   9.728   2.069
  368SOL     OW11312   2.128   6.393   2.236
  368SOL    HW111313   2.117   6.456   2.159
  368SOL    HW211314   2.224   6.389   2.263
  369SOL     OW11315   7.871   1.280   0.407
  369SOL    HW111316   7.795   1.242   0.461
  369SOL    HW211317   7.857   1.378   0.394
  370SOL     OW11318   2.203   6.576   2.020
  370SOL    HW111319   2.281   6.612   2.072
  370SOL    HW211320   2.231   6.492   1.973
  371SOL     OW11321   9.514   1.208   0.029
  371SOL    HW111322   9.440   1.140   0.027
  371SOL    HW211323   9.548   1.218   0.122
  372SOL     OW11324   3.542   3.796   2.089
  372SOL    HW111325   3.568   3.836   2.001
  372SOL    HW211326   3.582   3.705   2.098
  373SOL     OW11327   3.652   8.327   1.843
  373SOL    HW111328   3.695   8.399   1.898
  373SOL    HW211329   3.561   8.357   1.814
  374SOL     OW11330   8.807   5.586   1.661
  374SOL    HW111331   8.791   5.655   1.731
  374SOL    HW211332   8.789   5.495   1.698
  375SOL     OW11333   8.971   4.003   2.187
  375SOL    HW111334   8.990   3.940   2.262
  375SOL    HW211335   8.967   3.951   2.101
  376SOL     OW11336   1.775   2.092   2.387
  376SOL    HW111337   1.756   2.012   2.445
  376SOL    HW211338   1.865   2.081   2.344
  377SOL     OW11339   1.153   8.015   1.320
  377SOL    HW111340   1.217   8.049   1.389
  377SOL    HW211341   1.204   7.993   1.237
  378SOL     OW11342   8.589   7.808   0.861
  378SOL    HW111343   8.609   7.735   0.795
  378SOL    HW211344   8.493   7.834   0.854
  379SOL     OW11345   1.008   9.023   1.612
  379SOL    HW111346   1.019   9.108   1.664
  379SOL    HW211347   0.949   8.961   1.663
  380SOL     OW11348   9.461   4.112   0.441
  380SOL    HW111349   9.489   4.139   0.533
  380SOL    HW211350   9.373   4.064   0.446
  381SOL     OW11351   9.085   2.024   1.405
  381SOL    HW111352   9.178   2.001   1.377
  381SOL    HW211353   9.045   1.948   1.457
  382SOL     OW11354   1.667   6.206   0.764
  382SOL    HW111355   1.575   6.201   0.803
  382SOL    HW211356   1.661   6.215   0.665
  383SOL     OW11357   3.162   8.684   1.237
  383SOL    HW111358   3.202   8.594   1.254
  383SOL    HW211359   3.162   8.702   1.138
  384SOL     OW11360   3.749   0.910   0.268
  384SOL    HW111361   3.703   0.874   0.186
  384SOL    HW211362   3.847   0.897   0.259
  385SOL     OW11363   3.514   3.915   0.243
  385SOL    HW111364   3.439   3.980   0.257
  385SOL    HW211365   3.506   3.841   0.310
  386SOL     OW11366   8.462   9.721   1.625
  386SOL    HW111367   8.554   9.687   1.605
  386SOL    HW211368   8.459   9.755   1.718
  387SOL     OW11369   0.120   1.888   1.878
  387SOL    HW111370   0.113   1.834   1.794
  387SOL    HW211371   0.212   1.925   1.887
  388SOL     OW11372   2.296   6.220   1.266
  388SOL    HW111373   2.208   6.212   1.314
  388SOL    HW211374   2.354   6.142   1.290
  389SOL     OW11375   1.707   5.592   2.547
  389SOL    HW111376   1.756   5.611   2.632
  389SOL    HW211377   1.770   5.554   2.480
  390SOL     OW11378   3.659   8.420   2.417
  390SOL    HW111379   3.585   8.447   2.478
  390SOL    HW211380   3.673   8.321   2.425
  391SOL     OW11381   1.618   9.010   2.344
  391SOL    HW111382   1.702   9.065   2.345
  391SOL    HW211383   1.593   8.990   2.250
  392SOL     OW11384   2.558   1.821   1.788
  392SOL    HW111385   2.624   1.760   1.742
  392SOL    HW211386   2.537   1.784   1.878
  393SOL     OW11387   4.112   1.752   0.179
  393SOL    HW111388   4.098   1.758   0.278
  393SOL    HW211389   4.169   1.673   0.159
  394SOL     OW11390   8.915   6.374   1.096
  394SOL    HW111391   8.925   6.465   1.135
  394SOL    HW211392   9.004   6.329   1.093
  395SOL     OW11393   9.882   5.361   2.387
  395SOL    HW111394   9.872   5.389   2.292
  395SOL    HW211395   9.820   5.285   2.406
  396SOL     OW11396   3.744   7.705   1.360
  396SOL    HW111397   3.831   7.688   1.406
  396SOL    HW211398   3.669   7.689   1.425
  397SOL     OW11399   2.229   7.075   0.313
  397SOL    HW111400   2.306   7.017   0.342
  397SOL    HW211401   2.167   7.089   0.390
  398SOL     OW11402   9.061   8.299   1.658
  398SOL    HW111403   9.104   8.376   1.612
  398SOL    HW211404   8.964   8.319   1.672
  399SOL     OW11405   2.847   1.191   1.527
  399SOL    HW111406   2.798   1.106   1.509
  399SOL    HW211407   2.885   1.227   1.441
  400SOL     OW11408   3.095   5.014   2.302
  400SOL    HW111409   3.151   4.933   2.282
  400SOL    HW211410   3.131   5.059   2.384
  401SOL     OW11411   0.276   7.153   1.154
  401SOL    HW111412   0.306   7.246   1.177
  401SOL    HW211413   0.177   7.153   1.138
  402SOL     OW11414   8.886   0.644   0.417
  402SOL    HW111415   8.953   0.644   0.342
  402SOL    HW211416   8.931   0.613   0.501
  403SOL     OW11417   8.304   6.371   1.787
  403SOL    HW111418   8.382   6.432   1.779
  403SOL    HW211419   8.240   6.389   1.711
  404SOL     OW11420   9.275   1.702   0.194
  404SOL    HW111421   9.293   1.610   0.158
  404SOL    HW211422   9.355   1.759   0.181
  405SOL     OW11423   2.246   8.220   1.609
  405SOL    HW111424   2.288   8.193   1.522
  405SOL    HW211425   2.153   8.185   1.615
  406SOL     OW11426   4.489   8.944   2.306
  406SOL    HW111427   4.502   8.856   2.352
  406SOL    HW211428   4.561   9.008   2.335
  407SOL     OW11429   7.836   1.119   2.230
  407SOL    HW111430   7.910   1.187   2.221
  407SOL    HW211431   7.817   1.104   2.327
  408SOL     OW11432   1.325   0.919   0.549
  408SOL    HW111433   1.288   0.963   0.467
  408SOL    HW211434   1.393   0.979   0.591
  409SOL     OW11435   0.732   7.974   2.465
  409SOL    HW111436   0.764   7.882   2.444
  409SOL    HW211437   0.743   8.032   2.384
  410SOL     OW11438   8.371   2.914   1.184
  410SOL    HW111439   8.446   2.848   1.177
  410SOL    HW211440   8.407   3.007   1.173
  411SOL     OW11441   9.269   5.655   2.341
  411SOL    HW111442   9.363   5.623   2.354
  411SOL    HW211443   9.218   5.643   2.426
  412SOL     OW11444   9.950   6.268   0.481
  412SOL    HW111445   0.032   6.314   0.515
  412SOL    HW211446   9.975   6.177   0.447
  413SOL     OW11447   8.790   5.582   0.869
  413SOL    HW111448   8.783   5.603   0.966
  413SOL    HW211449   8.712   5.622   0.820
  414SOL     OW11450   0.464   7.204   2.086
  414SOL    HW111451   0.409   7.260   2.025
  414SOL    HW211452   0.457   7.108   2.059
  415SOL     OW11453   0.584   4.872   1.357
  415SOL    HW111454   0.657   4.807   1.340
  415SOL    HW211455   0.542   4.852   1.445
  416SOL     OW11456   4.469   8.539   2.231
  416SOL    HW111457   4.405   8.563   2.158
  416SOL    HW211458   4.492   8.442   2.225
  417SOL     OW11459   0.309   9.175   1.668
  417SOL    HW111460   0.361   9.260   1.676
  417SOL    HW211461   0.215   9.196   1.642
  418SOL     OW11462   8.529   8.133   1.792
  418SOL    HW111463   8.597   8.064   1.766
  418SOL    HW211464   8.523   8.202   1.720
  419SOL     OW11465   2.452   2.267   1.382
  419SOL    HW111466   2.411   2.176   1.396
  419SOL    HW211467   2.448   2.290   1.285
  420SOL     OW11468   3.355   1.618   1.698
  420SOL    HW111469   3.295   1.697   1.704
  420SOL    HW211470   3.321   1.556   1.627
  421SOL     OW11471   7.725   0.251   0.774
  421SOL    HW111472   7.751   0.157   0.753
  421SOL    HW211473   7.804   0.300   0.813
  422SOL     OW11474   6.944   9.065   2.492
  422SOL    HW111475   6.927   9.002   2.416
  422SOL    HW211476   6.980   9.014   2.570
  423SOL     OW11477   1.422   8.794   1.056
  423SOL    HW111478   1.324   8.813   1.070
  423SOL    HW211479   1.476   8.850   1.119
  424SOL     OW11480   5.245   0.173   2.589
  424SOL    HW111481   5.173   0.182   2.659
  424SOL    HW211482   5.220   0.227   2.509
  425SOL     OW11483   2.817   3.870   1.275
  425SOL    HW111484   2.882   3.888   1.201
  425SOL    HW211485   2.865   3.828   1.352
  426SOL     OW11486   3.838   3.081   1.603
  426SOL    HW111487   3.876   3.110   1.515
  426SOL    HW211488   3.898   3.013   1.644
  427SOL     OW11489   7.493   0.879   0.593
  427SOL    HW111490   7.450   0.794   0.623
  427SOL    HW211491   7.578   0.858   0.545
  428SOL     OW11492   2.139   4.578   2.031
  428SOL    HW111493   2.106   4.541   1.944
  428SOL    HW211494   2.077   4.652   2.060
  429SOL     OW11495   8.955   6.621   1.204
  429SOL    HW111496   8.975   6.621   1.302
  429SOL    HW211497   8.893   6.696   1.183
  430SOL     OW11498   4.961   2.707   0.853
  430SOL    HW111499   4.987   2.803   0.858
  430SOL    HW211500   5.043   2.650   0.857
  431SOL     OW11501   4.182   3.716   1.662
  431SOL    HW111502   4.243   3.723   1.583
  431SOL    HW211503   4.113   3.788   1.657
  432SOL     OW11504   4.945   9.775   2.032
  432SOL    HW111505   4.930   9.869   2.062
  432SOL    HW211506   5.038   9.747   2.055
  433SOL     OW11507   8.578   5.456   0.148
  433SOL    HW111508   8.660   5.513   0.150
  433SOL    HW211509   8.603   5.361   0.167
  434SOL     OW11510   1.704   0.908   2.087
  434SOL    HW111511   1.758   0.846   2.030
  434SOL    HW211512   1.609   0.877   2.088
  435SOL     OW11513   8.401   5.209   2.324
  435SOL    HW111514   8.482   5.193   2.381
  435SOL    HW211515   8.380   5.306   2.321
  436SOL     OW11516   4.266   5.245   2.419
  436SOL    HW111517   4.176   5.243   2.376
  436SOL    HW211518   4.288   5.338   2.448
  437SOL     OW11519   0.609   9.082   1.096
  437SOL    HW111520   0.656   9.112   1.013
  437SOL    HW211521   0.516   9.118   1.095
  438SOL     OW11522   2.505   4.498   1.990
  438SOL    HW111523   2.430   4.445   2.030
  438SOL    HW211524   2.589   4.482   2.041
  439SOL     OW11525   3.340   9.452   2.523
  439SOL    HW111526   3.406   9.490   2.588
  439SOL    HW211527   3.257   9.506   2.524
  440SOL     OW11528   9.453   8.682   2.628
  440SOL    HW111529   9.466   8.745   2.551
  440SOL    HW211530   9.359   8.689   2.661
  441SOL     OW11531   0.232   7.563   1.086
  441SOL    HW111532   0.288   7.640   1.058
  441SOL    HW211533   0.285   7.502   1.145
  442SOL     OW11534   9.872   4.111   0.364
  442SOL    HW111535   9.821   4.156   0.290
  442SOL    HW211536   9.850   4.155   0.451
  443SOL     OW11537   9.667   2.203   2.536
  443SOL    HW111538   9.639   2.216   2.631
  443SOL    HW211539   9.606   2.255   2.475
  444SOL     OW11540   2.751   5.443   0.319
  444SOL    HW111541   2.748   5.541   0.341
  444SOL    HW211542   2.665   5.400   0.346
  445SOL     OW11543   7.670   8.460   2.237
  445SOL    HW111544   7.755   8.510   2.250
  445SOL    HW211545   7.601   8.521   2.197
  446SOL     OW11546   9.043   6.033   2.577
  446SOL    HW111547   8.985   6.115   2.581
  446SOL    HW211548   9.134   6.059   2.544
  447SOL     OW11549   2.761   3.625   1.620
  447SOL    HW111550   2.686   3.684   1.649
  447SOL    HW211551   2.734   3.577   1.536
  448SOL     OW11552   8.546   9.804   1.200
  448SOL    HW111553   8.565   9.901   1.185
  448SOL    HW211554   8.558   9.753   1.115
  449SOL     OW11555   9.594   4.833   2.259
  449SOL    HW111556   9.547   4.766   2.200
  449SOL    HW211557   9.685   4.798   2.282
  450SOL     OW11558   4.020   8.758   1.894
  450SOL    HW111559   4.051   8.853   1.895
  450SOL    HW211560   3.968   8.738   1.977
  451SOL     OW11561   1.806   3.637   2.381
  451SOL    HW111562   1.886   3.657   2.325
  451SOL    HW211563   1.759   3.556   2.345
  452SOL     OW11564   9.330   8.125   1.139
  452SOL    HW111565   9.243   8.167   1.114
  452SOL    HW211566   9.321   8.079   1.227
  453SOL     OW11567   3.540   4.798   2.633
  453SOL    HW111568   3.562   4.823   2.727
  453SOL    HW211569   3.488   4.871   2.590
  454SOL     OW11570   0.731   8.994   2.003
  454SOL    HW111571   0.811   9.052   2.016
  454SOL    HW211572   0.727   8.925   2.075
  455SOL     OW11573   2.397   1.005   1.189
  455SOL    HW111574   2.410   0.949   1.108
  455SOL    HW211575   2.340   0.955   1.255
  456SOL     OW11576   8.965   6.505   0.708
  456SOL    HW111577   8.969   6.535   0.612
  456SOL    HW211578   8.999   6.411   0.714
  457SOL     OW11579   0.879   5.576   1.422
  457SOL    HW111580   0.873   5.544   1.517
  457SOL    HW211581   0.855   5.501   1.360
  458SOL     OW11582   1.187   2.467   1.782
  458SOL    HW111583   1.166   2.447   1.686
  458SOL    HW211584   1.105   2.500   1.828
  459SOL     OW11585   1.122   4.599   1.158
  459SOL    HW111586   1.043   4.590   1.097
  459SOL    HW211587   1.093   4.639   1.245
  460SOL     OW11588   9.996   0.336   0.467
  460SOL    HW111589   9.955   0.266   0.525
  460SOL    HW211590   0.001   0.422   0.518
  461SOL     OW11591   3.800   9.261   2.383
  461SOL    HW111592   3.715   9.307   2.357
  461SOL    HW211593   3.779   9.168   2.415
  462SOL     OW11594   2.230   4.677   0.350
  462SOL    HW111595   2.251   4.663   0.254
  462SOL    HW211596   2.315   4.681   0.402
  463SOL     OW11597   8.479   5.787   1.390
  463SOL    HW111598   8.526   5.871   1.363
  463SOL    HW211599   8.402   5.771   1.329
  464SOL     OW11600   1.713   1.560   1.067
  464SOL    HW111601   1.811   1.576   1.068
  464SOL    HW211602   1.666   1.636   1.113
  465SOL     OW11603   2.614   2.644   2.521
  465SOL    HW111604   2.670   2.630   2.603
  465SOL    HW211605   2.672   2.673   2.446
  466SOL     OW11606   8.528   2.483   0.460
  466SOL    HW111607   8.521   2.548   0.384
  466SOL    HW211608   8.624   2.458   0.474
  467SOL     OW11609   8.719   9.603   1.603
  467SOL    HW111610   8.666   9.519   1.592
  467SOL    HW211611   8.768   9.600   1.690
  468SOL     OW11612   8.709   3.499   1.470
  468SOL    HW111613   8.750   3.573   1.416
  468SOL    HW211614   8.705   3.416   1.414
  469SOL     OW11615   9.556   0.348   1.694
  469SOL    HW111616   9.621   0.406   1.646
  469SOL    HW211617   9.496   0.405   1.751
  470SOL     OW11618   8.761   6.169   1.724
  470SOL    HW111619   8.721   6.094   1.778
  470SOL    HW211620   8.688   6.223   1.682
  471SOL     OW11621   9.375   3.524   1.353
  471SOL    HW111622   9.378   3.599   1.287
  471SOL    HW211623   9.443   3.541   1.425
  472SOL     OW11624   8.537   8.330   1.985
  472SOL    HW111625   8.495   8.299   2.071
  472SOL    HW211626   8.539   8.254   1.920
  473SOL     OW11627   1.155   6.812   2.150
  473SOL    HW111628   1.253   6.798   2.143
  473SOL    HW211629   1.132   6.846   2.241
  474SOL     OW11630   1.511   0.045   0.579
  474SOL    HW111631   1.602   0.039   0.539
  474SOL    HW211632   1.502   0.129   0.632
  475SOL     OW11633   2.309   8.725   1.065
  475SOL    HW111634   2.331   8.675   1.148
  475SOL    HW211635   2.252   8.668   1.006
  476SOL     OW11636   9.719   8.420   1.205
  476SOL    HW111637   9.708   8.518   1.190
  476SOL    HW211638   9.802   8.389   1.158
  477SOL     OW11639   1.211   2.259   1.972
  477SOL    HW111640   1.188   2.331   1.907
  477SOL    HW211641   1.300   2.278   2.013
  478SOL     OW11642   2.955   8.564   0.153
  478SOL    HW111643   2.952   8.464   0.155
  478SOL    HW211644   2.902   8.600   0.230
  479SOL     OW11645   8.102   8.661   1.273
  479SOL    HW111646   8.077   8.749   1.233
  479SOL    HW211647   8.057   8.651   1.362
  480SOL     OW11648   2.825   2.741   1.334
  480SOL    HW111649   2.881   2.773   1.410
  480SOL    HW211650   2.738   2.707   1.369
  481SOL     OW11651   2.448   0.116   1.393
  481SOL    HW111652   2.379   0.045   1.381
  481SOL    HW211653   2.446   0.148   1.488
  482SOL     OW11654   0.941   9.170   0.105
  482SOL    HW111655   1.006   9.236   0.143
  482SOL    HW211656   0.848   9.196   0.133
  483SOL     OW11657   1.245   5.078   2.017
  483SOL    HW111658   1.225   5.176   2.028
  483SOL    HW211659   1.242   5.034   2.106
  484SOL     OW11660   2.205   1.166   2.066
  484SOL    HW111661   2.249   1.077   2.062
  484SOL    HW211662   2.116   1.162   2.021
  485SOL     OW11663   0.081   8.412   1.332
  485SOL    HW111664   0.146   8.348   1.372
  485SOL    HW211665   0.036   8.369   1.254
  486SOL     OW11666   4.298   8.266   0.472
  486SOL    HW111667   4.345   8.348   0.504
  486SOL    HW211668   4.211   8.256   0.522
  487SOL     OW11669   3.335   2.260   1.770
  487SOL    HW111670   3.247   2.307   1.783
  487SOL    HW211671   3.335   2.212   1.682
  488SOL     OW11672   3.671   4.837   0.434
  488SOL    HW111673   3.681   4.932   0.404
  488SOL    HW211674   3.578   4.806   0.417
  489SOL     OW11675   8.696   3.237   1.011
  489SOL    HW111676   8.636   3.281   0.944
  489SOL    HW211677   8.791   3.261   0.991
  490SOL     OW11678   1.078   9.745   2.603
  490SOL    HW111679   1.142   9.668   2.606
  490SOL    HW211680   0.984   9.711   2.612
  491SOL     OW11681   0.358   4.067   2.180
  491SOL    HW111682   0.448   4.059   2.225
  491SOL    HW211683   0.361   4.022   2.091
  492SOL     OW11684   0.150   4.037   1.892
  492SOL    HW111685   0.055   4.068   1.888
  492SOL    HW211686   0.154   3.947   1.935
  493SOL     OW11687   4.262   9.929   1.538
  493SOL    HW111688   4.207   9.941   1.455
  493SOL    HW211689   4.322   0.008   1.549
  494SOL     OW11690   8.851   1.511   0.706
  494SOL    HW111691   8.793   1.552   0.776
  494SOL    HW211692   8.947   1.531   0.726
  495SOL     OW11693   2.557   5.129   0.065
  495SOL    HW111694   2.530   5.078   3.419
  495SOL    HW211695   2.485   5.119   0.134
  496SOL     OW11696   3.396   5.025   1.831
  496SOL    HW111697   3.298   5.038   1.815
  496SOL    HW211698   3.424   4.936   1.794
  497SOL     OW11699   0.590   4.413   0.425
  497SOL    HW111700   0.545   4.323   0.424
  497SOL    HW211701   0.685   4.403   0.397
  498SOL     OW11702   8.980   5.185   0.968
  498SOL    HW111703   8.977   5.119   0.893
  498SOL    HW211704   8.927   5.149   1.045
  499SOL     OW11705   8.510   7.796   0.341
  499SOL    HW111706   8.523   7.819   0.245
  499SOL    HW211707   8.441   7.857   0.381
  500SOL     OW11708   5.932   8.940   2.086
  500SOL    HW111709   6.019   8.950   2.135
  500SOL    HW211710   5.931   9.002   2.007
  501SOL     OW11711   7.766   9.684   1.100
  501SOL    HW111712   7.671   9.670   1.126
  501SOL    HW211713   7.824   9.682   1.181
  502SOL     OW11714   0.292   1.403   0.219
  502SOL    HW111715   0.357   1.403   0.295
  502SOL    HW211716   0.275   1.497   0.190
  503SOL     OW11717   0.404   6.237   2.559
  503SOL    HW111718   0.381   6.291   2.478
  503SOL    HW211719   0.323   6.187   2.589
  504SOL     OW11720   2.883   4.865   0.633
  504SOL    HW111721   2.904   4.777   0.589
  504SOL    HW211722   2.837   4.924   0.567
  505SOL     OW11723   4.250   1.328   1.419
  505SOL    HW111724   4.236   1.233   1.449
  505SOL    HW211725   4.192   1.388   1.474
  506SOL     OW11726   1.060   1.182   0.593
  506SOL    HW111727   1.081   1.160   0.688
  506SOL    HW211728   1.015   1.104   0.550
  507SOL     OW11729   0.101   2.453   2.132
  507SOL    HW111730   0.037   2.377   2.144
  507SOL    HW211731   0.053   2.540   2.146
  508SOL     OW11732   3.064   9.964   1.728
  508SOL    HW111733   2.978   0.010   1.748
  508SOL    HW211734   3.102   0.000   1.643
  509SOL     OW11735   3.770   5.234   0.734
  509SOL    HW111736   3.859   5.278   0.745
  509SOL    HW211737   3.756   5.169   0.808
  510SOL     OW11738   0.001   1.462   2.275
  510SOL    HW111739   0.022   1.373   2.316
  510SOL    HW211740   9.949   1.517   2.340
  511SOL     OW11741   0.688   6.419   1.065
  511SOL    HW111742   0.594   6.454   1.071
  511SOL    HW211743   0.724   6.405   1.157
  512SOL     OW11744   1.144   0.645   2.139
  512SOL    HW111745   1.227   0.605   2.101
  512SOL    HW211746   1.157   0.743   2.153
  513SOL     OW11747   9.372   1.568   1.898
  513SOL    HW111748   9.429   1.500   1.944
  513SOL    HW211749   9.412   1.659   1.910
  514SOL     OW11750   3.585   3.790   0.760
  514SOL    HW111751   3.599   3.785   0.858
  514SOL    HW211752   3.551   3.703   0.726
  515SOL     OW11753   2.910   7.900   0.480
  515SOL    HW111754   2.933   7.893   0.577
  515SOL    HW211755   2.856   7.820   0.453
  516SOL     OW11756   8.870   1.704   2.342
  516SOL    HW111757   8.795   1.639   2.340
  516SOL    HW211758   8.896   1.723   2.437
  517SOL     OW11759   3.015   8.773   1.792
  517SOL    HW111760   3.043   8.868   1.786
  517SOL    HW211761   3.000   8.748   1.887
  518SOL     OW11762   0.785   5.749   2.660
  518SOL    HW111763   0.685   5.757   2.663
  518SOL    HW211764   0.825   5.840   2.654
  519SOL     OW11765   0.380   0.063   0.501
  519SOL    HW111766   0.430   0.096   0.421
  519SOL    HW211767   0.440   0.008   0.558
  520SOL     OW11768   4.468   2.568   1.026
  520SOL    HW111769   4.532   2.491   1.022
  520SOL    HW211770   4.375   2.534   1.043
  521SOL     OW11771   4.284   2.880   1.389
  521SOL    HW111772   4.286   2.917   1.296
  521SOL    HW211773   4.204   2.821   1.399
  522SOL     OW11774   1.570   9.580   0.163
  522SOL    HW111775   1.654   9.634   0.160
  522SOL    HW211776   1.540   9.559   0.070
  523SOL     OW11777   8.787   4.422   2.135
  523SOL    HW111778   8.801   4.355   2.208
  523SOL    HW211779   8.858   4.411   2.065
  524SOL     OW11780   2.375   8.288   0.854
  524SOL    HW111781   2.312   8.221   0.817
  524SOL    HW211782   2.385   8.364   0.790
  525SOL     OW11783   1.061   7.378   2.547
  525SOL    HW111784   0.977   7.367   2.599
  525SOL    HW211785   1.072   7.474   2.521
  526SOL     OW11786   8.222   1.511   0.369
  526SOL    HW111787   8.143   1.495   0.429
  526SOL    HW211788   8.223   1.608   0.342
  527SOL     OW11789   7.753   0.178   1.301
  527SOL    HW111790   7.795   0.268   1.297
  527SOL    HW211791   7.715   0.155   1.211
  528SOL     OW11792   1.433   0.573   0.133
  528SOL    HW111793   1.359   0.560   0.068
  528SOL    HW211794   1.401   0.549   0.225
  529SOL     OW11795   8.901   5.944   1.036
  529SOL    HW111796   8.904   5.996   0.951
  529SOL    HW211797   8.806   5.920   1.057
  530SOL     OW11798   0.962   8.080   1.744
  530SOL    HW111799   0.917   7.992   1.727
  530SOL    HW211800   1.060   8.065   1.759
  531SOL     OW11801   1.018   2.114   0.516
  531SOL    HW111802   0.963   2.031   0.520
  531SOL    HW211803   1.074   2.121   0.599
  532SOL     OW11804   9.587   6.670   0.997
  532SOL    HW111805   9.671   6.720   0.975
  532SOL    HW211806   9.536   6.652   0.913
  533SOL     OW11807   1.413   8.937   2.115
  533SOL    HW111808   1.417   9.028   2.075
  533SOL    HW211809   1.325   8.924   2.161
  534SOL     OW11810   8.673   7.087   1.432
  534SOL    HW111811   8.638   7.013   1.490
  534SOL    HW211812   8.646   7.072   1.338
  535SOL     OW11813   7.443   9.999   2.522
  535SOL    HW111814   7.426   0.027   2.617
  535SOL    HW211815   7.404   0.067   2.460
  536SOL     OW11816   2.864   8.548   1.368
  536SOL    HW111817   2.824   8.601   1.293
  536SOL    HW211818   2.795   8.536   1.440
  537SOL     OW11819   8.699   1.926   0.686
  537SOL    HW111820   8.646   1.870   0.622
  537SOL    HW211821   8.795   1.899   0.681
  538SOL     OW11822   1.962   2.665   0.347
  538SOL    HW111823   2.045   2.674   0.401
  538SOL    HW211824   1.932   2.569   0.347
  539SOL     OW11825   2.616   3.382   0.408
  539SOL    HW111826   2.706   3.355   0.371
  539SOL    HW211827   2.581   3.309   0.466
  540SOL     OW11828   1.661   3.044   0.575
  540SOL    HW111829   1.569   3.021   0.545
  540SOL    HW211830   1.724   2.970   0.551
  541SOL     OW11831   9.242   5.914   1.481
  541SOL    HW111832   9.340   5.922   1.501
  541SOL    HW211833   9.228   5.852   1.405
  542SOL     OW11834   1.353   9.241   0.846
  542SOL    HW111835   1.390   9.154   0.878
  542SOL    HW211836   1.282   9.224   0.777
  543SOL     OW11837   2.519   0.011   2.063
  543SOL    HW111838   2.574   9.928   2.054
  543SOL    HW211839   2.496   0.025   2.159
  544SOL     OW11840   3.242   3.382   1.620
  544SOL    HW111841   3.322   3.411   1.672
  544SOL    HW211842   3.200   3.461   1.577
  545SOL     OW11843   3.741   9.356   1.303
  545SOL    HW111844   3.681   9.289   1.346
  545SOL    HW211845   3.692   9.442   1.292
  546SOL     OW11846   2.059   0.417   0.142
  546SOL    HW111847   2.115   0.482   0.194
  546SOL    HW211848   2.110   0.332   0.131
  547SOL     OW11849   2.223   3.203   0.895
  547SOL    HW111850   2.174   3.280   0.855
  547SOL    HW211851   2.170   3.119   0.882
  548SOL     OW11852   4.041   2.163   0.293
  548SOL    HW111853   3.971   2.222   0.254
  548SOL    HW211854   4.084   2.110   0.221
  549SOL     OW11855   3.668   6.983   0.368
  549SOL    HW111856   3.736   7.054   0.350
  549SOL    HW211857   3.643   6.939   0.282
  550SOL     OW11858   9.515   3.489   1.606
  550SOL    HW111859   9.440   3.431   1.636
  550SOL    HW211860   9.597   3.433   1.592
  551SOL     OW11861   1.375   3.037   0.144
  551SOL    HW111862   1.459   3.088   0.132
  551SOL    HW211863   1.326   3.070   0.224
  552SOL     OW11864   2.844   1.248   0.845
  552SOL    HW111865   2.831   1.174   0.912
  552SOL    HW211866   2.758   1.298   0.835
  553SOL     OW11867   2.110   9.916   1.144
  553SOL    HW111868   2.174   9.841   1.127
  553SOL    HW211869   2.017   9.880   1.150
  554SOL     OW11870   7.006   9.295   2.359
  554SOL    HW111871   6.975   9.382   2.398
  554SOL    HW211872   6.971   9.220   2.414
  555SOL     OW11873   6.919   9.308   1.929
  555SOL    HW111874   7.012   9.344   1.926
  555SOL    HW211875   6.911   9.242   2.003
  556SOL     OW11876   4.252   3.213   0.732
  556SOL    HW111877   4.345   3.179   0.716
  556SOL    HW211878   4.205   3.151   0.796
  557SOL     OW11879   8.521   4.798   2.224
  557SOL    HW111880   8.594   4.755   2.170
  557SOL    HW211881   8.435   4.750   2.209
  558SOL     OW11882   9.857   4.532   0.288
  558SOL    HW111883   9.914   4.511   0.368
  558SOL    HW211884   9.909   4.589   0.225
  559SOL     OW11885   9.075   0.070   0.314
  559SOL    HW111886   9.105   0.108   0.401
  559SOL    HW211887   9.118   9.980   0.300
  560SOL     OW11888   1.587   2.595   2.338
  560SOL    HW111889   1.609   2.545   2.254
  560SOL    HW211890   1.672   2.620   2.385
  561SOL     OW11891   1.237   0.221   1.439
  561SOL    HW111892   1.283   0.145   1.486
  561SOL    HW211893   1.157   0.186   1.391
  562SOL     OW11894   2.860   7.505   0.629
  562SOL    HW111895   2.921   7.546   0.697
  562SOL    HW211896   2.773   7.483   0.671
  563SOL     OW11897   4.675   9.086   0.877
  563SOL    HW111898   4.590   9.138   0.881
  563SOL    HW211899   4.732   9.121   0.802
  564SOL     OW11900   2.551   1.933   2.615
  564SOL    HW111901   2.461   1.889   2.616
  564SOL    HW211902   2.622   1.863   2.625
  565SOL     OW11903   8.917   4.560   2.597
  565SOL    HW111904   8.952   4.476   2.557
  565SOL    HW211905   8.882   4.542   2.689
  566SOL     OW11906   0.908   4.795   0.236
  566SOL    HW111907   0.836   4.741   0.192
  566SOL    HW211908   0.908   4.887   0.197
  567SOL     OW11909   8.893   8.864   2.366
  567SOL    HW111910   8.905   8.782   2.311
  567SOL    HW211911   8.798   8.893   2.362
  568SOL     OW11912   2.450   6.455   1.239
  568SOL    HW111913   2.397   6.370   1.246
  568SOL    HW211914   2.531   6.440   1.183
  569SOL     OW11915   0.705   3.934   0.407
  569SOL    HW111916   0.785   3.922   0.347
  569SOL    HW211917   0.637   3.865   0.385
  570SOL     OW11918   8.504   2.477   0.930
  570SOL    HW111919   8.557   2.417   0.990
  570SOL    HW211920   8.552   2.564   0.919
  571SOL     OW11921   9.210   1.319   1.479
  571SOL    HW111922   9.159   1.396   1.440
  571SOL    HW211923   9.273   1.353   1.549
  572SOL     OW11924   0.966   9.623   1.974
  572SOL    HW111925   0.965   9.679   2.057
  572SOL    HW211926   0.905   9.544   1.987
  573SOL     OW11927   3.564   9.397   2.352
  573SOL    HW111928   3.572   9.464   2.278
  573SOL    HW211929   3.473   9.401   2.392
  574SOL     OW11930   3.146   6.903   1.350
  574SOL    HW111931   3.051   6.930   1.339
  574SOL    HW211932   3.151   6.806   1.373
  575SOL     OW11933   1.987   4.854   1.533
  575SOL    HW111934   1.993   4.905   1.447
  575SOL    HW211935   2.074   4.808   1.551
  576SOL     OW11936   7.965   0.364   0.860
  576SOL    HW111937   8.034   0.293   0.875
  576SOL    HW211938   7.982   0.409   0.772
  577SOL     OW11939   1.092   2.017   1.993
  577SOL    HW111940   1.126   2.111   1.990
  577SOL    HW211941   1.168   1.953   1.982
  578SOL     OW11942   3.689   8.149   2.443
  578SOL    HW111943   3.645   8.090   2.375
  578SOL    HW211944   3.784   8.120   2.456
  579SOL     OW11945   0.629   0.567   0.376
  579SOL    HW111946   0.623   0.599   0.281
  579SOL    HW211947   0.537   0.562   0.415
  580SOL     OW11948   4.646   9.931   1.520
  580SOL    HW111949   4.614   9.837   1.520
  580SOL    HW211950   4.735   9.937   1.566
  581SOL     OW11951   8.016   0.274   1.868
  581SOL    HW111952   7.967   0.272   1.955
  581SOL    HW211953   7.952   0.295   1.794
  582SOL     OW11954   3.233   6.613   1.751
  582SOL    HW111955   3.189   6.603   1.662
  582SOL    HW211956   3.260   6.708   1.765
  583SOL     OW11957   2.409   4.857   2.292
  583SOL    HW111958   2.462   4.901   2.365
  583SOL    HW211959   2.325   4.909   2.276
  584SOL     OW11960   4.949   1.207   2.324
  584SOL    HW111961   4.949   1.113   2.292
  584SOL    HW211962   5.020   1.258   2.275
  585SOL     OW11963   2.623   6.984   1.567
  585SOL    HW111964   2.608   7.083   1.562
  585SOL    HW211965   2.718   6.966   1.590
  586SOL     OW11966   2.994   9.585   1.710
  586SOL    HW111967   2.985   9.677   1.746
  586SOL    HW211968   3.076   9.580   1.651
  587SOL     OW11969   2.898   2.936   1.954
  587SOL    HW111970   2.847   2.946   1.868
  587SOL    HW211971   2.891   3.020   2.007
  588SOL     OW11972   3.711   2.051   0.246
  588SOL    HW111973   3.748   2.139   0.214
  588SOL    HW211974   3.756   1.976   0.197
  589SOL     OW11975   1.643   0.870   0.777
  589SOL    HW111976   1.717   0.902   0.837
  589SOL    HW211977   1.681   0.815   0.703
  590SOL     OW11978   8.436   1.545   0.545
  590SOL    HW111979   8.374   1.518   0.472
  590SOL    HW211980   8.531   1.527   0.517
  591SOL     OW11981   0.584   9.784   1.455
  591SOL    HW111982   0.621   9.710   1.398
  591SOL    HW211983   0.639   9.867   1.441
  592SOL     OW11984   3.778   3.373   1.328
  592SOL    HW111985   3.816   3.466   1.327
  592SOL    HW211986   3.701   3.370   1.391
  593SOL     OW11987   3.353   9.213   1.692
  593SOL    HW111988   3.415   9.139   1.716
  593SOL    HW211989   3.348   9.222   1.593
  594SOL     OW11990   3.750   1.389   0.676
  594SOL    HW111991   3.660   1.361   0.710
  594SOL    HW211992   3.793   1.313   0.628
  595SOL     OW11993   1.224   6.824   0.422
  595SOL    HW111994   1.213   6.814   0.521
  595SOL    HW211995   1.216   6.920   0.397
  596SOL     OW11996   8.302   8.414   0.093
  596SOL    HW111997   8.273   8.504   0.061
  596SOL    HW211998   8.238   8.345   0.060
  597SOL     OW11999   1.474   5.001   0.417
  597SOL    HW112000   1.573   5.002   0.430
  597SOL    HW212001   1.443   4.909   0.395
  598SOL     OW12002   0.427   6.227   0.998
  598SOL    HW112003   0.400   6.236   0.902
  598SOL    HW212004   0.428   6.317   1.041
  599SOL     OW12005   4.153   2.772   0.853
  599SOL    HW112006   4.235   2.784   0.797
  599SOL    HW212007   4.079   2.735   0.795
  600SOL     OW12008   9.995   0.889   0.418
  600SOL    HW112009   9.897   0.896   0.439
  600SOL    HW212010   0.007   0.875   0.320
  601SOL     OW12011   2.864   1.958   0.060
  601SOL    HW112012   2.939   1.901   0.095
  601SOL    HW212013   2.835   1.924   3.407
  602SOL     OW12014   9.379   0.339   2.504
  602SOL    HW112015   9.392   0.240   2.492
  602SOL    HW212016   9.468   0.383   2.516
  603SOL     OW12017   9.105   1.082   1.565
  603SOL    HW112018   9.180   1.024   1.597
  603SOL    HW212019   9.140   1.173   1.542
  604SOL     OW12020   3.090   2.248   2.035
  604SOL    HW112021   3.164   2.248   2.102
  604SOL    HW212022   3.003   2.239   2.082
  605SOL     OW12023   2.318   6.560   2.511
  605SOL    HW112024   2.233   6.531   2.556
  605SOL    HW212025   2.390   6.568   2.579
  606SOL     OW12026   3.920   4.835   1.202
  606SOL    HW112027   3.952   4.770   1.133
  606SOL    HW212028   3.994   4.897   1.227
  607SOL     OW12029   2.733   4.487   2.542
  607SOL    HW112030   2.653   4.487   2.482
  607SOL    HW212031   2.770   4.394   2.549
  608SOL     OW12032   4.751   1.189   1.985
  608SOL    HW112033   4.677   1.137   1.942
  608SOL    HW212034   4.728   1.208   2.080
  609SOL     OW12035   0.700   9.190   0.861
  609SOL    HW112036   0.787   9.195   0.812
  609SOL    HW212037   0.662   9.281   0.871
  610SOL     OW12038   9.359   8.790   0.735
  610SOL    HW112039   9.331   8.862   0.670
  610SOL    HW212040   9.330   8.701   0.700
  611SOL     OW12041   8.823   2.458   1.608
  611SOL    HW112042   8.913   2.500   1.601
  611SOL    HW212043   8.833   2.365   1.643
  612SOL     OW12044   4.487   8.090   1.326
  612SOL    HW112045   4.460   8.173   1.376
  612SOL    HW212046   4.580   8.101   1.292
  613SOL     OW12047   8.011   1.894   0.206
  613SOL    HW112048   7.911   1.893   0.215
  613SOL    HW212049   8.044   1.988   0.213
  614SOL     OW12050   1.822   4.640   2.475
  614SOL    HW112051   1.875   4.677   2.551
  614SOL    HW212052   1.725   4.643   2.497
  615SOL     OW12053   8.350   9.999   2.574
  615SOL    HW112054   8.261   9.952   2.574
  615SOL    HW212055   8.423   9.933   2.559
  616SOL     OW12056   4.683   9.304   1.497
  616SOL    HW112057   4.726   9.366   1.563
  616SOL    HW212058   4.608   9.352   1.452
  617SOL     OW12059   4.379   9.344   2.214
  617SOL    HW112060   4.368   9.354   2.115
  617SOL    HW212061   4.474   9.362   2.240
  618SOL     OW12062   1.535   8.855   1.682
  618SOL    HW112063   1.465   8.838   1.750
  618SOL    HW212064   1.550   8.773   1.627
  619SOL     OW12065   0.264   3.106   2.503
  619SOL    HW112066   0.301   3.198   2.513
  619SOL    HW212067   0.339   3.040   2.502
  620SOL     OW12068   3.235   3.077   0.659
  620SOL    HW112069   3.230   3.128   0.745
  620SOL    HW212070   3.161   3.009   0.656
  621SOL     OW12071   8.726   4.682   2.087
  621SOL    HW112072   8.738   4.584   2.105
  621SOL    HW212073   8.795   4.734   2.138
  622SOL     OW12074   4.891   0.032   2.105
  622SOL    HW112075   4.855   0.071   2.021
  622SOL    HW212076   4.920   0.105   2.167
  623SOL     OW12077   9.227   5.843   2.150
  623SOL    HW112078   9.159   5.816   2.082
  623SOL    HW212079   9.237   5.770   2.218
  624SOL     OW12080   8.780   0.013   2.628
  624SOL    HW112081   8.790   0.056   2.718
  624SOL    HW212082   8.724   0.072   2.569
  625SOL     OW12083   8.916   6.668   2.330
  625SOL    HW112084   8.865   6.745   2.370
  625SOL    HW212085   8.878   6.582   2.364
  626SOL     OW12086   3.312   9.146   0.647
  626SOL    HW112087   3.402   9.168   0.685
  626SOL    HW212088   3.320   9.139   0.547
  627SOL     OW12089   9.732   2.088   0.107
  627SOL    HW112090   9.683   2.174   0.115
  627SOL    HW212091   9.668   2.015   0.085
  628SOL     OW12092   9.809   5.596   0.448
  628SOL    HW112093   9.747   5.559   0.379
  628SOL    HW212094   9.768   5.586   0.539
  629SOL     OW12095   5.009   2.980   1.197
  629SOL    HW112096   5.013   3.079   1.212
  629SOL    HW212097   5.038   2.933   1.281
  630SOL     OW12098   1.198   0.915   2.176
  630SOL    HW112099   1.219   0.940   2.270
  630SOL    HW212100   1.128   0.977   2.140
  631SOL     OW12101   2.963   8.284   0.181
  631SOL    HW112102   2.951   8.254   0.275
  631SOL    HW212103   2.919   8.219   0.119
  632SOL     OW12104   8.238   2.854   1.415
  632SOL    HW112105   8.281   2.915   1.481
  632SOL    HW212106   8.279   2.869   1.324
  633SOL     OW12107   4.245   3.449   0.881
  633SOL    HW112108   4.311   3.519   0.856
  633SOL    HW212109   4.247   3.375   0.814
  634SOL     OW12110   9.063   5.715   0.217
  634SOL    HW112111   9.157   5.727   0.186
  634SOL    HW212112   9.063   5.688   0.313
  635SOL     OW12113   1.238   1.794   0.365
  635SOL    HW112114   1.335   1.804   0.344
  635SOL    HW212115   1.222   1.821   0.460
  636SOL     OW12116   2.369   9.727   1.480
  636SOL    HW112117   2.310   9.798   1.441
  636SOL    HW212118   2.436   9.770   1.540
  637SOL     OW12119   0.622   3.646   1.901
  637SOL    HW112120   0.662   3.734   1.880
  637SOL    HW212121   0.601   3.597   1.816
  638SOL     OW12122   3.770   8.382   1.364
  638SOL    HW112123   3.706   8.422   1.430
  638SOL    HW212124   3.786   8.286   1.386
  639SOL     OW12125   8.152   5.398   0.811
  639SOL    HW112126   8.246   5.432   0.811
  639SOL    HW212127   8.089   5.475   0.800
  640SOL     OW12128   3.300   0.813   0.480
  640SOL    HW112129   3.292   0.821   0.579
  640SOL    HW212130   3.395   0.796   0.455
  641SOL     OW12131   3.193   6.364   1.983
  641SOL    HW112132   3.268   6.307   1.949
  641SOL    HW212133   3.231   6.447   2.025
  642SOL     OW12134   0.626   0.067   1.713
  642SOL    HW112135   0.621   0.128   1.792
  642SOL    HW212136   0.577   9.982   1.733
  643SOL     OW12137   2.245   2.838   0.310
  643SOL    HW112138   2.340   2.820   0.287
  643SOL    HW212139   2.222   2.791   0.395
  644SOL     OW12140   1.629   2.187   1.194
  644SOL    HW112141   1.543   2.141   1.216
  644SOL    HW212142   1.704   2.122   1.200
  645SOL     OW12143   0.086   7.226   2.398
  645SOL    HW112144   0.165   7.274   2.435
  645SOL    HW212145   0.011   7.290   2.384
  646SOL     OW12146   3.697   4.529   1.694
  646SOL    HW112147   3.634   4.487   1.759
  646SOL    HW212148   3.663   4.516   1.601
  647SOL     OW12149   5.735   8.383   2.415
  647SOL    HW112150   5.699   8.469   2.451
  647SOL    HW212151   5.673   8.348   2.345
  648SOL     OW12152   0.653   2.182   1.568
  648SOL    HW112153   0.657   2.109   1.501
  648SOL    HW212154   0.724   2.250   1.549
  649SOL     OW12155   9.733   7.179   2.431
  649SOL    HW112156   9.667   7.219   2.495
  649SOL    HW212157   9.784   7.253   2.386
  650SOL     OW12158   1.524   1.079   0.645
  650SOL    HW112159   1.577   1.008   0.692
  650SOL    HW212160   1.501   1.151   0.711
  651SOL     OW12161   8.373   0.615   1.277
  651SOL    HW112162   8.324   0.698   1.301
  651SOL    HW212163   8.307   0.546   1.245
  652SOL     OW12164   2.933   1.246   1.265
  652SOL    HW112165   2.867   1.318   1.241
  652SOL    HW212166   3.026   1.280   1.247
  653SOL     OW12167   2.752   8.659   1.138
  653SOL    HW112168   2.674   8.613   1.096
  653SOL    HW212169   2.823   8.676   1.070
  654SOL     OW12170   0.156   6.422   0.585
  654SOL    HW112171   0.227   6.376   0.638
  654SOL    HW212172   0.198   6.481   0.516
  655SOL     OW12173   3.855   5.053   1.639
  655SOL    HW112174   3.836   5.099   1.552
  655SOL    HW212175   3.786   5.081   1.707
  656SOL     OW12176   0.264   3.617   1.512
  656SOL    HW112177   0.304   3.540   1.462
  656SOL    HW212178   0.210   3.673   1.450
  657SOL     OW12179   1.132   3.297   1.392
  657SOL    HW112180   1.121   3.388   1.432
  657SOL    HW212181   1.110   3.301   1.295
  658SOL     OW12182   8.760   5.753   1.888
  658SOL    HW112183   8.706   5.711   1.961
  658SOL    HW212184   8.718   5.840   1.862
  659SOL     OW12185   0.471   7.400   0.162
  659SOL    HW112186   0.445   7.474   0.099
  659SOL    HW212187   0.450   7.428   0.255
  660SOL     OW12188   2.989   4.203   0.962
  660SOL    HW112189   2.908   4.256   0.987
  660SOL    HW212190   3.011   4.218   0.866
  661SOL     OW12191   4.394   8.862   0.672
  661SOL    HW112192   4.362   8.859   0.767
  661SOL    HW212193   4.336   8.802   0.616
  662SOL     OW12194   7.756   1.945   0.642
  662SOL    HW112195   7.721   2.023   0.590
  662SOL    HW212196   7.768   1.972   0.738
  663SOL     OW12197   1.755   6.176   1.569
  663SOL    HW112198   1.764   6.224   1.481
  663SOL    HW212199   1.734   6.242   1.641
  664SOL     OW12200   0.328   4.913   1.238
  664SOL    HW112201   0.418   4.888   1.271
  664SOL    HW212202   0.337   4.972   1.157
  665SOL     OW12203   9.874   6.021   0.335
  665SOL    HW112204   9.804   6.039   0.404
  665SOL    HW212205   9.832   6.019   0.244
  666SOL     OW12206   2.848   5.257   1.181
  666SOL    HW112207   2.861   5.177   1.122
  666SOL    HW212208   2.765   5.245   1.236
  667SOL     OW12209   1.549   8.982   1.212
  667SOL    HW112210   1.609   9.026   1.145
  667SOL    HW212211   1.595   8.979   1.301
  668SOL     OW12212   9.699   2.057   1.150
  668SOL    HW112213   9.609   2.094   1.128
  668SOL    HW212214   9.698   2.018   1.242
  669SOL     OW12215   0.361   1.125   1.366
  669SOL    HW112216   0.441   1.094   1.315
  669SOL    HW212217   0.282   1.129   1.305
  670SOL     OW12218   1.459   0.207   2.554
  670SOL    HW112219   1.424   0.192   2.646
  670SOL    HW212220   1.396   0.265   2.503
  671SOL     OW12221   1.854   2.256   2.071
  671SOL    HW112222   1.952   2.245   2.088
  671SOL    HW212223   1.830   2.212   1.984
  672SOL     OW12224   7.916   3.072   0.569
  672SOL    HW112225   7.963   3.099   0.654
  672SOL    HW212226   7.981   3.078   0.493
  673SOL     OW12227   0.231   0.250   2.479
  673SOL    HW112228   0.249   0.155   2.502
  673SOL    HW212229   0.151   0.283   2.530
  674SOL     OW12230   4.983   8.560   2.496
  674SOL    HW112231   5.003   8.631   2.429
  674SOL    HW212232   5.069   8.532   2.540
  675SOL     OW12233   8.409   9.097   1.903
  675SOL    HW112234   8.462   9.105   1.819
  675SOL    HW212235   8.463   9.131   1.980
  676SOL     OW12236   0.022   2.336   1.358
  676SOL    HW112237   0.079   2.343   1.275
  676SOL    HW212238  10.000   2.428   1.390
  677SOL     OW12239   9.930   0.819   2.351
  677SOL    HW112240   9.840   0.793   2.384
  677SOL    HW212241   9.962   0.751   2.285
  678SOL     OW12242   1.254   6.831   1.747
  678SOL    HW112243   1.320   6.774   1.796
  678SOL    HW212244   1.300   6.912   1.710
  679SOL     OW12245   9.400   3.947   1.349
  679SOL    HW112246   9.471   4.010   1.318
  679SOL    HW212247   9.335   3.996   1.407
  680SOL     OW12248   1.458   1.255   0.850
  680SOL    HW112249   1.513   1.277   0.932
  680SOL    HW212250   1.419   1.339   0.813
  681SOL     OW12251   4.345   1.873   1.061
  681SOL    HW112252   4.356   1.776   1.083
  681SOL    HW212253   4.410   1.900   0.991
  682SOL     OW12254   1.430   5.569   0.843
  682SOL    HW112255   1.478   5.652   0.814
  682SOL    HW212256   1.408   5.576   0.941
  683SOL     OW12257   3.173   8.814   0.973
  683SOL    HW112258   3.138   8.903   1.002
  683SOL    HW212259   3.211   8.821   0.881
  684SOL     OW12260   1.054   6.230   2.548
  684SOL    HW112261   1.132   6.277   2.590
  684SOL    HW212262   1.082   6.189   2.461
  685SOL     OW12263   9.847   4.045   1.134
  685SOL    HW112264   9.912   3.974   1.106
  685SOL    HW212265   9.866   4.130   1.084
  686SOL     OW12266   1.653   5.619   0.472
  686SOL    HW112267   1.641   5.532   0.520
  686SOL    HW212268   1.701   5.684   0.531
  687SOL     OW12269   8.521   2.650   0.233
  687SOL    HW112270   8.584   2.710   0.185
  687SOL    HW212271   8.507   2.566   0.180
  688SOL     OW12272   2.844   3.936   2.561
  688SOL    HW112273   2.745   3.947   2.556
  688SOL    HW212274   2.866   3.844   2.594
  689SOL     OW12275   9.517   8.429   2.546
  689SOL    HW112276   9.506   8.517   2.592
  689SOL    HW212277   9.594   8.434   2.482
  690SOL     OW12278   1.998   4.808   2.082
  690SOL    HW112279   1.969   4.849   1.995
  690SOL    HW212280   2.056   4.873   2.132
  691SOL     OW12281   0.929   1.536   1.466
  691SOL    HW112282   0.864   1.505   1.534
  691SOL    HW212283   0.881   1.583   1.392
  692SOL     OW12284   1.062   6.095   2.031
  692SOL    HW112285   1.162   6.095   2.031
  692SOL    HW212286   1.028   6.183   1.998
  693SOL     OW12287   2.362   6.065   2.380
  693SOL    HW112288   2.371   5.975   2.422
  693SOL    HW212289   2.267   6.096   2.387
  694SOL     OW12290   4.015   9.942   0.060
  694SOL    HW112291   3.977   0.008   3.431
  694SOL    HW212292   3.960   9.859   0.059
  695SOL     OW12293   1.024   8.417   0.162
  695SOL    HW112294   1.052   8.332   0.117
  695SOL    HW212295   1.059   8.420   0.255
  696SOL     OW12296   1.558   4.372   1.462
  696SOL    HW112297   1.632   4.322   1.507
  696SOL    HW212298   1.536   4.455   1.515
  697SOL     OW12299   8.324   7.991   0.411
  697SOL    HW112300   8.293   7.999   0.316
  697SOL    HW212301   8.362   8.078   0.441
  698SOL     OW12302   8.071   0.968   1.676
  698SOL    HW112303   8.049   1.045   1.617
  698SOL    HW212304   8.083   1.001   1.770
  699SOL     OW12305   3.710   4.140   2.210
  699SOL    HW112306   3.689   4.223   2.262
  699SOL    HW212307   3.672   4.061   2.257
  700SOL     OW12308   0.669   3.299   1.854
  700SOL    HW112309   0.767   3.308   1.871
  700SOL    HW212310   0.640   3.365   1.785
  701SOL     OW12311   1.394   2.961   2.500
  701SOL    HW112312   1.482   3.008   2.508
  701SOL    HW212313   1.321   3.023   2.529
  702SOL     OW12314   8.290   5.827   1.177
  702SOL    HW112315   8.284   5.832   1.077
  702SOL    HW212316   8.210   5.778   1.212
  703SOL     OW12317   0.259   4.527   1.983
  703SOL    HW112318   0.210   4.522   2.070
  703SOL    HW212319   0.228   4.606   1.931
  704SOL     OW12320   3.435   9.502   1.032
  704SOL    HW112321   3.419   9.566   0.957
  704SOL    HW212322   3.356   9.442   1.043
  705SOL     OW12323   3.556   4.948   1.033
  705SOL    HW112324   3.541   4.879   0.962
  705SOL    HW212325   3.640   4.998   1.013
  706SOL     OW12326   8.185   5.172   0.659
  706SOL    HW112327   8.163   5.253   0.713
  706SOL    HW212328   8.214   5.098   0.719
  707SOL     OW12329   2.221   0.270   1.311
  707SOL    HW112330   2.308   0.224   1.327
  707SOL    HW212331   2.206   0.281   1.213
  708SOL     OW12332   0.880   1.989   2.164
  708SOL    HW112333   0.957   1.997   2.100
  708SOL    HW212334   0.907   2.028   2.252
  709SOL     OW12335   9.253   9.137   0.619
  709SOL    HW112336   9.252   9.047   0.576
  709SOL    HW212337   9.282   9.129   0.714
  710SOL     OW12338   8.998   0.547   0.646
  710SOL    HW112339   8.943   0.611   0.701
  710SOL    HW212340   8.964   0.454   0.660
  711SOL     OW12341   9.237   0.873   0.270
  711SOL    HW112342   9.192   0.785   0.253
  711SOL    HW212343   9.172   0.938   0.307
  712SOL     OW12344   3.083   5.925   2.424
  712SOL    HW112345   3.083   5.852   2.356
  712SOL    HW212346   3.163   5.984   2.409
  713SOL     OW12347   9.868   5.865   2.273
  713SOL    HW112348   9.871   5.965   2.278
  713SOL    HW212349   9.879   5.827   2.365
  714SOL     OW12350   8.610   3.602   0.890
  714SOL    HW112351   8.580   3.510   0.862
  714SOL    HW212352   8.610   3.608   0.989
  715SOL     OW12353   7.552   0.077   0.183
  715SOL    HW112354   7.626   0.114   0.239
  715SOL    HW212355   7.496   0.152   0.147
  716SOL     OW12356   4.911   1.636   2.077
  716SOL    HW112357   4.910   1.550   2.025
  716SOL    HW212358   4.957   1.707   2.024
  717SOL     OW12359   7.351   8.755   1.779
  717SOL    HW112360   7.400   8.690   1.720
  717SOL    HW212361   7.405   8.838   1.788
  718SOL     OW12362   9.286   9.929   1.144
  718SOL    HW112363   9.355   9.999   1.160
  718SOL    HW212364   9.307   9.848   1.200
  719SOL     OW12365   9.856   4.908   0.060
  719SOL    HW112366   9.780   4.914   3.433
  719SOL    HW212367   9.906   4.995   0.062
  720SOL     OW12368   3.008   3.979   1.918
  720SOL    HW112369   3.072   4.047   1.882
  720SOL    HW212370   3.047   3.888   1.903
  721SOL     OW12371   3.686   5.009   0.072
  721SOL    HW112372   3.729   4.920   0.057
  721SOL    HW212373   3.587   4.999   0.069
  722SOL     OW12374   1.348   0.565   1.213
  722SOL    HW112375   1.438   0.604   1.198
  722SOL    HW212376   1.354   0.465   1.208
  723SOL     OW12377   3.314   9.774   2.571
  723SOL    HW112378   3.396   9.748   2.519
  723SOL    HW212379   3.335   9.854   2.628
  724SOL     OW12380   8.693   5.722   2.589
  724SOL    HW112381   8.788   5.748   2.570
  724SOL    HW212382   8.692   5.657   2.666
  725SOL     OW12383   2.679   6.422   1.084
  725SOL    HW112384   2.740   6.502   1.085
  725SOL    HW212385   2.724   6.346   1.038
  726SOL     OW12386   0.945   9.990   2.529
  726SOL    HW112387   1.006   9.927   2.577
  726SOL    HW212388   0.875   9.938   2.480
  727SOL     OW12389   8.663   2.857   0.107
  727SOL    HW112390   8.707   2.854   0.018
  727SOL    HW212391   8.594   2.931   0.108
  728SOL     OW12392   3.055   6.051   0.835
  728SOL    HW112393   3.075   5.973   0.776
  728SOL    HW212394   3.071   6.136   0.785
  729SOL     OW12395   7.877   0.051   1.648
  729SOL    HW112396   7.842   0.143   1.663
  729SOL    HW212397   7.959   0.055   1.591
  730SOL     OW12398   5.559   9.056   2.403
  730SOL    HW112399   5.606   9.016   2.325
  730SOL    HW212400   5.539   9.152   2.385
  731SOL     OW12401   8.670   5.597   2.340
  731SOL    HW112402   8.672   5.638   2.431
  731SOL    HW212403   8.703   5.503   2.345
  732SOL     OW12404   9.343   5.386   0.442
  732SOL    HW112405   9.404   5.422   0.513
  732SOL    HW212406   9.249   5.381   0.478
  733SOL     OW12407   9.755   9.231   2.570
  733SOL    HW112408   9.783   9.240   2.665
  733SOL    HW212409   9.663   9.268   2.558
  734SOL     OW12410   0.968   3.588   2.513
  734SOL    HW112411   0.924   3.548   2.432
  734SOL    HW212412   0.901   3.637   2.567
  735SOL     OW12413   8.264   3.573   1.112
  735SOL    HW112414   8.251   3.623   1.198
  735SOL    HW212415   8.278   3.639   1.037
  736SOL     OW12416   0.766   4.788   1.067
  736SOL    HW112417   0.776   4.752   1.160
  736SOL    HW212418   0.670   4.790   1.042
  737SOL     OW12419   8.481   6.384   0.270
  737SOL    HW112420   8.444   6.477   0.282
  737SOL    HW212421   8.541   6.382   0.191
  738SOL     OW12422   7.815   1.556   0.412
  738SOL    HW112423   7.741   1.618   0.440
  738SOL    HW212424   7.891   1.563   0.477
  739SOL     OW12425   2.447   3.210   2.200
  739SOL    HW112426   2.368   3.167   2.242
  739SOL    HW212427   2.428   3.227   2.103
  740SOL     OW12428   1.918   7.933   2.044
  740SOL    HW112429   2.005   7.886   2.058
  740SOL    HW212430   1.926   8.029   2.071
  741SOL     OW12431   9.545   1.641   2.149
  741SOL    HW112432   9.461   1.590   2.168
  741SOL    HW212433   9.530   1.738   2.169
  742SOL     OW12434   0.402   6.405   1.956
  742SOL    HW112435   0.498   6.418   1.931
  742SOL    HW212436   0.365   6.492   1.991
  743SOL     OW12437   7.857   1.617   2.729
  743SOL    HW112438   7.808   1.689   2.680
  743SOL    HW212439   7.801   1.585   2.806
  744SOL     OW12440   3.541   1.252   1.627
  744SOL    HW112441   3.548   1.351   1.636
  744SOL    HW212442   3.618   1.218   1.573
  745SOL     OW12443   3.671   7.551   0.113
  745SOL    HW112444   3.581   7.530   0.074
  745SOL    HW212445   3.690   7.649   0.102
  746SOL     OW12446   2.817   6.911   2.258
  746SOL    HW112447   2.725   6.877   2.242
  746SOL    HW212448   2.842   6.895   2.354
  747SOL     OW12449   6.458   0.052   2.724
  747SOL    HW112450   6.378   0.107   2.745
  747SOL    HW212451   6.433   9.981   2.658
  748SOL     OW12452   8.834   0.718   0.782
  748SOL    HW112453   8.749   0.731   0.833
  748SOL    HW212454   8.864   0.806   0.744
  749SOL     OW12455   9.777   6.025   0.079
  749SOL    HW112456   9.865   6.057   0.044
  749SOL    HW212457   9.774   5.925   0.075
  750SOL     OW12458   1.842   6.387   2.226
  750SOL    HW112459   1.784   6.368   2.305
  750SOL    HW212460   1.938   6.379   2.253
  751SOL     OW12461   9.068   0.644   1.285
  751SOL    HW112462   9.091   0.698   1.204
  751SOL    HW212463   9.080   0.547   1.264
  752SOL     OW12464   8.707   6.285   1.246
  752SOL    HW112465   8.785   6.311   1.191
  752SOL    HW212466   8.738   6.235   1.327
  753SOL     OW12467   8.823   0.916   0.387
  753SOL    HW112468   8.908   0.967   0.399
  753SOL    HW212469   8.838   0.820   0.412
  754SOL     OW12470   0.008   3.798   2.168
  754SOL    HW112471   0.063   3.776   2.087
  754SOL    HW212472   0.024   3.894   2.194
  755SOL     OW12473   2.047   5.664   0.514
  755SOL    HW112474   2.088   5.591   0.569
  755SOL    HW212475   1.998   5.624   0.437
  756SOL     OW12476   2.269   3.244   1.161
  756SOL    HW112477   2.188   3.292   1.194
  756SOL    HW212478   2.262   3.229   1.062
  757SOL     OW12479   3.534   4.943   1.527
  757SOL    HW112480   3.596   4.931   1.449
  757SOL    HW212481   3.544   4.867   1.590
  758SOL     OW12482   4.361   2.158   1.573
  758SOL    HW112483   4.330   2.074   1.528
  758SOL    HW212484   4.282   2.215   1.593
  759SOL     OW12485   2.244   4.759   1.562
  759SOL    HW112486   2.323   4.780   1.504
  759SOL    HW212487   2.249   4.664   1.593
  760SOL     OW12488   9.531   4.458   2.510
  760SOL    HW112489   9.509   4.555   2.514
  760SOL    HW212490   9.446   4.405   2.512
  761SOL     OW12491   1.460   1.517   1.912
  761SOL    HW112492   1.534   1.451   1.899
  761SOL    HW212493   1.476   1.570   1.995
  762SOL     OW12494   2.646   0.919   2.616
  762SOL    HW112495   2.606   0.924   2.525
  762SOL    HW212496   2.655   1.012   2.654
  763SOL     OW12497   0.864   4.333   1.010
  763SOL    HW112498   0.889   4.424   0.977
  763SOL    HW212499   0.862   4.269   0.933
  764SOL     OW12500   0.841   5.145   2.420
  764SOL    HW112501   0.881   5.111   2.335
  764SOL    HW212502   0.867   5.084   2.495
  765SOL     OW12503   8.151   1.320   2.656
  765SOL    HW112504   8.125   1.328   2.752
  765SOL    HW212505   8.094   1.380   2.601
  766SOL     OW12506   1.002   0.140   1.318
  766SOL    HW112507   1.002   0.123   1.219
  766SOL    HW212508   0.948   0.222   1.337
  767SOL     OW12509   3.192   9.381   2.081
  767SOL    HW112510   3.224   9.463   2.129
  767SOL    HW212511   3.238   9.301   2.119
  768SOL     OW12512   2.564   4.730   1.660
  768SOL    HW112513   2.541   4.750   1.565
  768SOL    HW212514   2.568   4.631   1.674
  769SOL     OW12515   1.365   8.785   1.888
  769SOL    HW112516   1.421   8.702   1.893
  769SOL    HW212517   1.386   8.843   1.967
  770SOL     OW12518   4.138   0.900   0.740
  770SOL    HW112519   4.215   0.884   0.678
  770SOL    HW212520   4.053   0.906   0.687
  771SOL     OW12521   1.405   2.810   0.726
  771SOL    HW112522   1.473   2.863   0.776
  771SOL    HW212523   1.399   2.842   0.632
  772SOL     OW12524   7.049   0.015   2.548
  772SOL    HW112525   7.090   0.103   2.573
  772SOL    HW212526   7.081   9.988   2.458
  773SOL     OW12527   1.603   0.601   2.275
  773SOL    HW112528   1.681   0.607   2.214
  773SOL    HW212529   1.555   0.515   2.259
  774SOL     OW12530   9.456   1.238   0.736
  774SOL    HW112531   9.513   1.194   0.805
  774SOL    HW212532   9.408   1.316   0.777
  775SOL     OW12533   4.014   5.362   0.774
  775SOL    HW112534   4.003   5.391   0.679
  775SOL    HW212535   4.111   5.354   0.795
  776SOL     OW12536   2.611   7.277   1.536
  776SOL    HW112537   2.527   7.272   1.590
  776SOL    HW212538   2.649   7.369   1.542
  777SOL     OW12539   1.638   9.562   1.032
  777SOL    HW112540   1.622   9.581   0.935
  777SOL    HW212541   1.735   9.540   1.046
  778SOL     OW12542   0.273   0.801   0.137
  778SOL    HW112543   0.350   0.861   0.161
  778SOL    HW212544   0.303   0.706   0.138
  779SOL     OW12545   2.889   2.250   1.394
  779SOL    HW112546   2.899   2.335   1.343
  779SOL    HW212547   2.802   2.251   1.444
  780SOL     OW12548   3.168   7.229   2.198
  780SOL    HW112549   3.073   7.201   2.210
  780SOL    HW212550   3.172   7.313   2.144
  781SOL     OW12551   3.461   5.743   1.820
  781SOL    HW112552   3.462   5.747   1.920
  781SOL    HW212553   3.497   5.655   1.790
  782SOL     OW12554   4.706   2.591   0.787
  782SOL    HW112555   4.687   2.527   0.860
  782SOL    HW212556   4.795   2.634   0.802
  783SOL     OW12557   9.303   3.211   0.603
  783SOL    HW112558   9.260   3.156   0.674
  783SOL    HW212559   9.295   3.164   0.515
  784SOL     OW12560   9.146   7.691   1.029
  784SOL    HW112561   9.110   7.779   1.059
  784SOL    HW212562   9.235   7.674   1.072
  785SOL     OW12563   1.430   1.872   1.678
  785SOL    HW112564   1.462   1.779   1.662
  785SOL    HW212565   1.509   1.934   1.679
  786SOL     OW12566   3.411   5.021   2.538
  786SOL    HW112567   3.322   5.066   2.544
  786SOL    HW212568   3.472   5.074   2.479
  787SOL     OW12569   3.297   9.145   2.202
  787SOL    HW112570   3.379   9.088   2.203
  787SOL    HW212571   3.274   9.173   2.296
  788SOL     OW12572   2.868   5.785   1.712
  788SOL    HW112573   2.946   5.723   1.719
  788SOL    HW212574   2.890   5.871   1.757
  789SOL     OW12575   8.640   9.764   2.060
  789SOL    HW112576   8.687   9.692   2.112
  789SOL    HW212577   8.702   9.799   1.990
  790SOL     OW12578   8.253   1.544   0.749
  790SOL    HW112579   8.325   1.540   0.679
  790SOL    HW212580   8.267   1.624   0.807
  791SOL     OW12581   0.320   8.511   1.585
  791SOL    HW112582   0.302   8.603   1.621
  791SOL    HW212583   0.370   8.519   1.499
  792SOL     OW12584   8.545   7.765   2.124
  792SOL    HW112585   8.483   7.690   2.149
  792SOL    HW212586   8.636   7.747   2.162
  793SOL     OW12587   2.251   0.809   0.029
  793SOL    HW112588   2.173   0.769   3.418
  793SOL    HW212589   2.240   0.908   0.035
  794SOL     OW12590   8.801   9.552   1.868
  794SOL    HW112591   8.702   9.535   1.877
  794SOL    HW212592   8.819   9.649   1.886
  795SOL     OW12593   7.813   0.731   1.905
  795SOL    HW112594   7.767   0.643   1.913
  795SOL    HW212595   7.848   0.759   1.995
  796SOL     OW12596   2.692   0.545   0.516
  796SOL    HW112597   2.785   0.560   0.549
  796SOL    HW212598   2.627   0.555   0.591
  797SOL     OW12599   0.188   6.798   1.333
  797SOL    HW112600   0.264   6.798   1.268
  797SOL    HW212601   0.102   6.812   1.284
  798SOL     OW12602   9.871   1.598   1.847
  798SOL    HW112603   9.917   1.539   1.780
  798SOL    HW212604   9.930   1.608   1.927
  799SOL     OW12605   2.544   4.107   1.990
  799SOL    HW112606   2.608   4.041   1.952
  799SOL    HW212607   2.586   4.152   2.069
  800SOL     OW12608   0.064   5.634   0.675
  800SOL    HW112609   0.008   5.672   0.601
  800SOL    HW212610   0.023   5.548   0.707
  801SOL     OW12611   9.049   7.421   1.972
  801SOL    HW112612   9.143   7.453   1.984
  801SOL    HW212613   9.018   7.376   2.057
  802SOL     OW12614   2.278   4.338   1.161
  802SOL    HW112615   2.231   4.400   1.224
  802SOL    HW212616   2.376   4.357   1.161
  803SOL     OW12617   4.360   9.871   1.210
  803SOL    HW112618   4.371   9.785   1.260
  803SOL    HW212619   4.283   9.922   1.248
  804SOL     OW12620   7.971   1.480   2.526
  804SOL    HW112621   7.929   1.528   2.603
  804SOL    HW212622   7.903   1.463   2.455
  805SOL     OW12623   2.560   3.782   0.840
  805SOL    HW112624   2.579   3.772   0.938
  805SOL    HW212625   2.482   3.725   0.815
  806SOL     OW12626   0.976   9.133   2.011
  806SOL    HW112627   1.034   9.053   1.996
  806SOL    HW212628   0.981   9.193   1.932
  807SOL     OW12629   3.694   7.628   1.103
  807SOL    HW112630   3.771   7.650   1.043
  807SOL    HW212631   3.716   7.656   1.197
  808SOL     OW12632   2.367   1.413   0.244
  808SOL    HW112633   2.400   1.473   0.317
  808SOL    HW212634   2.277   1.443   0.214
  809SOL     OW12635   9.672   1.204   0.558
  809SOL    HW112636   9.744   1.266   0.589
  809SOL    HW212637   9.591   1.216   0.616
  810SOL     OW12638   2.164   7.693   1.289
  810SOL    HW112639   2.179   7.643   1.203
  810SOL    HW212640   2.195   7.638   1.366
  811SOL     OW12641   2.590   3.470   0.850
  811SOL    HW112642   2.577   3.497   0.945
  811SOL    HW212643   2.525   3.519   0.792
  812SOL     OW12644   7.955   7.066   2.457
  812SOL    HW112645   8.047   7.031   2.475
  812SOL    HW212646   7.924   7.032   2.368
  813SOL     OW12647   9.788   4.544   1.064
  813SOL    HW112648   9.828   4.496   1.142
  813SOL    HW212649   9.807   4.641   1.071
  814SOL     OW12650   2.922   4.180   0.321
  814SOL    HW112651   2.942   4.121   0.242
  814SOL    HW212652   2.882   4.126   0.394
  815SOL     OW12653   8.171   8.286   1.779
  815SOL    HW112654   8.155   8.324   1.688
  815SOL    HW212655   8.206   8.358   1.839
  816SOL     OW12656   0.248   3.388   0.363
  816SOL    HW112657   0.332   3.421   0.319
  816SOL    HW212658   0.169   3.439   0.328
  817SOL     OW12659   2.299   5.960   1.886
  817SOL    HW112660   2.339   5.892   1.824
  817SOL    HW212661   2.284   6.045   1.836
  818SOL     OW12662   3.259   8.912   0.268
  818SOL    HW112663   3.355   8.892   0.253
  818SOL    HW212664   3.204   8.869   0.196
  819SOL     OW12665   1.125   6.241   0.011
  819SOL    HW112666   1.091   6.199   3.364
  819SOL    HW212667   1.055   6.302   0.049
  820SOL     OW12668   8.648   8.980   2.368
  820SOL    HW112669   8.676   9.019   2.456
  820SOL    HW212670   8.549   8.965   2.368
  821SOL     OW12671   8.292   2.144   0.714
  821SOL    HW112672   8.373   2.202   0.704
  821SOL    HW212673   8.280   2.119   0.810
  822SOL     OW12674   8.257   8.069   2.586
  822SOL    HW112675   8.185   8.015   2.543
  822SOL    HW212676   8.346   8.025   2.570
  823SOL     OW12677   8.699   8.231   1.061
  823SOL    HW112678   8.731   8.232   1.156
  823SOL    HW212679   8.600   8.243   1.059
  824SOL     OW12680   3.915   2.335   2.349
  824SOL    HW112681   3.989   2.309   2.287
  824SOL    HW212682   3.888   2.430   2.332
  825SOL     OW12683   0.031   2.992   1.217
  825SOL    HW112684   0.115   3.032   1.178
  825SOL    HW212685   9.958   3.060   1.214
  826SOL     OW12686   4.000   5.409   0.504
  826SOL    HW112687   4.099   5.424   0.501
  826SOL    HW212688   3.954   5.475   0.445
  827SOL     OW12689   4.147   2.011   0.095
  827SOL    HW112690   4.141   1.915   0.125
  827SOL    HW212691   4.203   2.016   0.012
  828SOL     OW12692   9.066   4.698   2.397
  828SOL    HW112693   9.008   4.743   2.330
  828SOL    HW212694   9.008   4.650   2.464
  829SOL     OW12695   0.461   5.999   2.270
  829SOL    HW112696   0.479   6.081   2.216
  829SOL    HW212697   0.510   6.006   2.358
  830SOL     OW12698   0.615   8.705   2.636
  830SOL    HW112699   0.530   8.662   2.606
  830SOL    HW212700   0.639   8.670   2.727
  831SOL     OW12701   9.510   3.206   2.501
  831SOL    HW112702   9.578   3.136   2.525
  831SOL    HW212703   9.533   3.292   2.547
  832SOL     OW12704   9.376   0.089   0.104
  832SOL    HW112705   9.301   0.084   0.038
  832SOL    HW212706   9.372   0.176   0.152
  833SOL     OW12707   3.380   4.576   0.579
  833SOL    HW112708   3.404   4.655   0.522
  833SOL    HW212709   3.289   4.543   0.554
  834SOL     OW12710   4.285   0.065   1.888
  834SOL    HW112711   4.222   0.109   1.823
  834SOL    HW212712   4.365   0.030   1.838
  835SOL     OW12713   9.249   8.968   1.049
  835SOL    HW112714   9.279   9.030   0.976
  835SOL    HW212715   9.211   9.022   1.124
  836SOL     OW12716   7.514   9.810   0.130
  836SOL    HW112717   7.535   9.905   0.154
  836SOL    HW212718   7.512   9.800   0.030
  837SOL     OW12719   1.084   5.451   0.913
  837SOL    HW112720   1.139   5.431   0.832
  837SOL    HW212721   1.043   5.541   0.905
  838SOL     OW12722   2.517   2.095   1.790
  838SOL    HW112723   2.546   1.999   1.784
  838SOL    HW212724   2.577   2.144   1.853
  839SOL     OW12725   3.234   3.633   0.706
  839SOL    HW112726   3.320   3.595   0.673
  839SOL    HW212727   3.223   3.726   0.671
  840SOL     OW12728   9.375   1.412   1.672
  840SOL    HW112729   9.381   1.460   1.759
  840SOL    HW212730   9.425   1.325   1.678
  841SOL     OW12731   7.959   2.150   2.446
  841SOL    HW112732   7.956   2.053   2.470
  841SOL    HW212733   7.913   2.165   2.359
  842SOL     OW12734   0.717   0.029   1.444
  842SOL    HW112735   0.804   0.076   1.430
  842SOL    HW212736   0.680   0.054   1.534
  843SOL     OW12737   1.112   9.343   0.248
  843SOL    HW112738   1.070   9.416   0.301
  843SOL    HW212739   1.141   9.269   0.308
  844SOL     OW12740   3.370   8.058   0.139
  844SOL    HW112741   3.304   8.133   0.152
  844SOL    HW212742   3.329   7.972   0.169
  845SOL     OW12743   1.672   4.064   1.794
  845SOL    HW112744   1.732   4.029   1.866
  845SOL    HW212745   1.596   4.114   1.836
  846SOL     OW12746   8.507   8.487   0.723
  846SOL    HW112747   8.509   8.387   0.723
  846SOL    HW212748   8.435   8.519   0.784
  847SOL     OW12749   0.618   5.232   0.655
  847SOL    HW112750   0.680   5.310   0.652
  847SOL    HW212751   0.644   5.166   0.584
  848SOL     OW12752   9.246   9.632   2.531
  848SOL    HW112753   9.312   9.604   2.462
  848SOL    HW212754   9.277   9.716   2.576
  849SOL     OW12755   2.968   4.491   1.712
  849SOL    HW112756   2.907   4.539   1.649
  849SOL    HW212757   2.989   4.400   1.675
  850SOL     OW12758   9.784   8.284   1.689
  850SOL    HW112759   9.809   8.340   1.610
  850SOL    HW212760   9.737   8.202   1.658
  851SOL     OW12761   3.988   2.672   0.106
  851SOL    HW112762   3.914   2.630   0.157
  851SOL    HW212763   4.022   2.609   0.037
  852SOL     OW12764   7.845   0.300   2.082
  852SOL    HW112765   7.786   0.361   2.029
  852SOL    HW212766   7.796   0.216   2.104
  853SOL     OW12767   3.279   1.625   0.092
  853SOL    HW112768   3.275   1.622   0.191
  853SOL    HW212769   3.342   1.697   0.063
  854SOL     OW12770   8.603   1.073   0.451
  854SOL    HW112771   8.515   1.028   0.437
  854SOL    HW212772   8.677   1.007   0.433
  855SOL     OW12773   2.419   3.100   1.735
  855SOL    HW112774   2.467   3.041   1.799
  855SOL    HW212775   2.439   3.070   1.641
  856SOL     OW12776   9.722   8.431   2.363
  856SOL    HW112777   9.802   8.489   2.349
  856SOL    HW212778   9.751   8.342   2.399
  857SOL     OW12779   3.266   8.879   0.721
  857SOL    HW112780   3.219   8.841   0.641
  857SOL    HW212781   3.282   8.977   0.707
  858SOL     OW12782   2.617   0.379   1.693
  858SOL    HW112783   2.701   0.416   1.653
  858SOL    HW212784   2.587   0.439   1.768
  859SOL     OW12785   2.537   8.936   2.542
  859SOL    HW112786   2.589   8.977   2.467
  859SOL    HW212787   2.567   8.974   2.629
  860SOL     OW12788   7.409   0.271   1.197
  860SOL    HW112789   7.403   0.370   1.214
  860SOL    HW212790   7.468   0.255   1.118
  861SOL     OW12791   2.179   8.219   0.106
  861SOL    HW112792   2.093   8.178   0.137
  861SOL    HW212793   2.172   8.319   0.111
  862SOL     OW12794   3.420   1.589   1.957
  862SOL    HW112795   3.401   1.599   1.860
  862SOL    HW212796   3.499   1.645   1.982
  863SOL     OW12797   3.298   7.570   0.848
  863SOL    HW112798   3.379   7.629   0.846
  863SOL    HW212799   3.326   7.475   0.866
  864SOL     OW12800   3.717   1.185   2.506
  864SOL    HW112801   3.650   1.251   2.472
  864SOL    HW212802   3.671   1.100   2.528
  865SOL     OW12803   3.187   5.965   1.550
  865SOL    HW112804   3.201   5.950   1.647
  865SOL    HW212805   3.273   5.949   1.501
  866SOL     OW12806   9.130   5.190   0.183
  866SOL    HW112807   9.179   5.274   0.160
  866SOL    HW212808   9.158   5.160   0.274
  867SOL     OW12809   9.493   0.889   0.990
  867SOL    HW112810   9.462   0.891   1.085
  867SOL    HW212811   9.429   0.836   0.935
  868SOL     OW12812   8.210   2.450   0.092
  868SOL    HW112813   8.191   2.467   0.188
  868SOL    HW212814   8.130   2.409   0.049
  869SOL     OW12815   4.754   9.617   1.354
  869SOL    HW112816   4.815   9.549   1.394
  869SOL    HW212817   4.683   9.641   1.420
  870SOL     OW12818   8.322   6.451   0.680
  870SOL    HW112819   8.268   6.535   0.685
  870SOL    HW212820   8.298   6.401   0.596
  871SOL     OW12821   9.916   2.508   0.351
  871SOL    HW112822   0.004   2.470   0.323
  871SOL    HW212823   9.874   2.449   0.420
  872SOL     OW12824   9.724   0.933   0.467
  872SOL    HW112825   9.717   1.021   0.515
  872SOL    HW212826   9.653   0.927   0.397
  873SOL     OW12827   4.553   1.053   1.840
  873SOL    HW112828   4.499   0.988   1.894
  873SOL    HW212829   4.491   1.119   1.797
  874SOL     OW12830   2.880   5.066   1.690
  874SOL    HW112831   2.809   5.004   1.725
  874SOL    HW212832   2.888   5.055   1.591
  875SOL     OW12833   0.952   1.650   1.790
  875SOL    HW112834   1.044   1.627   1.822
  875SOL    HW212835   0.945   1.750   1.779
  876SOL     OW12836   2.170   7.382   2.202
  876SOL    HW112837   2.077   7.385   2.166
  876SOL    HW212838   2.188   7.466   2.253
  877SOL     OW12839   6.836   8.786   2.578
  877SOL    HW112840   6.863   8.694   2.550
  877SOL    HW212841   6.907   8.827   2.635
  878SOL     OW12842   7.818   1.044   0.760
  878SOL    HW112843   7.839   0.951   0.792
  878SOL    HW212844   7.894   1.079   0.707
  879SOL     OW12845   4.938   9.148   2.285
  879SOL    HW112846   4.872   9.178   2.216
  879SOL    HW212847   5.013   9.099   2.240
  880SOL     OW12848   1.380   2.039   2.660
  880SOL    HW112849   1.308   1.972   2.673
  880SOL    HW212850   1.446   2.032   2.735
  881SOL     OW12851   9.646   5.485   0.264
  881SOL    HW112852   9.607   5.394   0.274
  881SOL    HW212853   9.621   5.522   0.174
  882SOL     OW12854   2.797   8.485   0.786
  882SOL    HW112855   2.846   8.400   0.765
  882SOL    HW212856   2.859   8.548   0.832
  883SOL     OW12857   0.798   9.385   2.567
  883SOL    HW112858   0.767   9.374   2.472
  883SOL    HW212859   0.803   9.295   2.610
  884SOL     OW12860   7.680   0.996   1.590
  884SOL    HW112861   7.751   1.003   1.521
  884SOL    HW212862   7.719   1.016   1.680
  885SOL     OW12863   9.540   9.234   1.709
  885SOL    HW112864   9.491   9.249   1.795
  885SOL    HW212865   9.511   9.303   1.642
  886SOL     OW12866   3.857   2.440   1.220
  886SOL    HW112867   3.906   2.387   1.152
  886SOL    HW212868   3.837   2.531   1.184
  887SOL     OW12869   3.019   7.172   1.637
  887SOL    HW112870   2.974   7.200   1.551
  887SOL    HW212871   2.992   7.078   1.659
  888SOL     OW12872   1.044   9.964   0.389
  888SOL    HW112873   1.143   9.970   0.396
  888SOL    HW212874   1.005   0.055   0.374
  889SOL     OW12875   0.384   8.575   2.558
  889SOL    HW112876   0.340   8.638   2.495
  889SOL    HW212877   0.319   8.503   2.584
  890SOL     OW12878   8.299   6.738   2.457
  890SOL    HW112879   8.324   6.727   2.360
  890SOL    HW212880   8.242   6.820   2.468
  891SOL     OW12881   9.451   2.764   1.908
  891SOL    HW112882   9.381   2.826   1.870
  891SOL    HW212883   9.411   2.709   1.981
  892SOL     OW12884   3.144   4.476   0.494
  892SOL    HW112885   3.114   4.462   0.400
  892SOL    HW212886   3.065   4.499   0.551
  893SOL     OW12887   3.780   0.379   0.938
  893SOL    HW112888   3.853   0.314   0.916
  893SOL    HW212889   3.747   0.362   1.031
  894SOL     OW12890   7.025   9.777   1.895
  894SOL    HW112891   6.986   9.726   1.818
  894SOL    HW212892   7.012   9.875   1.879
  895SOL     OW12893   9.698   0.476   0.067
  895SOL    HW112894   9.711   0.392   0.015
  895SOL    HW212895   9.733   0.464   0.160
  896SOL     OW12896   8.772   3.682   1.962
  896SOL    HW112897   8.845   3.740   1.927
  896SOL    HW212898   8.759   3.699   2.060
  897SOL     OW12899   2.084   8.954   1.598
  897SOL    HW112900   2.051   8.951   1.503
  897SOL    HW212901   2.095   9.049   1.626
  898SOL     OW12902   9.516   6.118   1.318
  898SOL    HW112903   9.515   6.041   1.382
  898SOL    HW212904   9.568   6.092   1.236
  899SOL     OW12905   8.543   8.373   1.627
  899SOL    HW112906   8.478   8.442   1.660
  899SOL    HW212907   8.550   8.378   1.528
  900SOL     OW12908   1.244   4.699   1.598
  900SOL    HW112909   1.200   4.631   1.657
  900SOL    HW212910   1.341   4.676   1.586
  901SOL     OW12911   5.366   2.693   1.363
  901SOL    HW112912   5.294   2.650   1.418
  901SOL    HW212913   5.382   2.786   1.396
  902SOL     OW12914   9.589   6.025   0.402
  902SOL    HW112915   9.512   6.033   0.465
  902SOL    HW212916   9.574   6.084   0.323
  903SOL     OW12917   3.683   0.011   1.029
  903SOL    HW112918   3.703   0.039   0.935
  903SOL    HW212919   3.698   9.913   1.039
  904SOL     OW12920   3.548   9.040   0.969
  904SOL    HW112921   3.492   8.990   1.034
  904SOL    HW212922   3.622   9.087   1.017
  905SOL     OW12923   4.298   5.159   0.277
  905SOL    HW112924   4.279   5.114   0.364
  905SOL    HW212925   4.214   5.199   0.240
  906SOL     OW12926   0.155   3.380   1.176
  906SOL    HW112927   0.151   3.283   1.150
  906SOL    HW212928   0.081   3.399   1.241
  907SOL     OW12929   1.809   1.576   0.470
  907SOL    HW112930   1.744   1.527   0.528
  907SOL    HW212931   1.898   1.531   0.473
  908SOL     OW12932   0.708   0.058   0.690
  908SOL    HW112933   0.786   0.021   0.741
  908SOL    HW212934   0.692   0.003   0.608
  909SOL     OW12935   9.939   8.592   2.313
  909SOL    HW112936   0.024   8.544   2.290
  909SOL    HW212937   9.960   8.666   2.378
  910SOL     OW12938   7.408   9.466   0.391
  910SOL    HW112939   7.486   9.521   0.358
  910SOL    HW212940   7.427   9.434   0.484
  911SOL     OW12941   1.973   9.416   2.614
  911SOL    HW112942   2.057   9.363   2.607
  911SOL    HW212943   1.897   9.356   2.638
  912SOL     OW12944   3.119   5.847   0.656
  912SOL    HW112945   3.168   5.890   0.580
  912SOL    HW212946   3.160   5.758   0.676
  913SOL     OW12947   0.656   6.523   2.598
  913SOL    HW112948   0.720   6.450   2.573
  913SOL    HW212949   0.567   6.483   2.619
  914SOL     OW12950   2.705   2.495   0.559
  914SOL    HW112951   2.690   2.442   0.476
  914SOL    HW212952   2.630   2.478   0.623
  915SOL     OW12953   2.515   4.457   1.722
  915SOL    HW112954   2.512   4.358   1.713
  915SOL    HW212955   2.520   4.482   1.819
  916SOL     OW12956   0.115   4.287   0.888
  916SOL    HW112957   0.161   4.371   0.860
  916SOL    HW212958   0.130   4.216   0.819
  917SOL     OW12959   1.851   9.151   0.452
  917SOL    HW112960   1.853   9.236   0.506
  917SOL    HW212961   1.757   9.118   0.446
  918SOL     OW12962   3.353   6.616   2.573
  918SOL    HW112963   3.270   6.565   2.596
  918SOL    HW212964   3.331   6.713   2.563
  919SOL     OW12965   2.714   7.496   2.167
  919SOL    HW112966   2.624   7.526   2.199
  919SOL    HW212967   2.739   7.411   2.213
  920SOL     OW12968   2.880   4.833   1.994
  920SOL    HW112969   2.932   4.915   2.019
  920SOL    HW212970   2.816   4.855   1.921
  921SOL     OW12971   4.390   1.237   1.719
  921SOL    HW112972   4.436   1.320   1.688
  921SOL    HW212973   4.305   1.261   1.766
  922SOL     OW12974   1.808   7.595   0.185
  922SOL    HW112975   1.773   7.537   0.258
  922SOL    HW212976   1.895   7.559   0.151
  923SOL     OW12977   0.891   4.143   1.846
  923SOL    HW112978   0.956   4.148   1.922
  923SOL    HW212979   0.935   4.176   1.762
  924SOL     OW12980   5.005   2.351   1.143
  924SOL    HW112981   4.935   2.416   1.173
  924SOL    HW212982   5.095   2.383   1.173
  925SOL     OW12983   2.477   3.836   2.546
  925SOL    HW112984   2.534   3.755   2.549
  925SOL    HW212985   2.381   3.811   2.562
  926SOL     OW12986   0.582   0.324   1.295
  926SOL    HW112987   0.543   0.292   1.382
  926SOL    HW212988   0.508   0.350   1.233
  927SOL     OW12989   4.180   4.197   1.427
  927SOL    HW112990   4.128   4.245   1.498
  927SOL    HW212991   4.177   4.250   1.342
  928SOL     OW12992   3.924   8.028   1.856
  928SOL    HW112993   3.933   8.124   1.831
  928SOL    HW212994   4.013   7.993   1.886
  929SOL     OW12995   2.671   3.117   1.332
  929SOL    HW112996   2.726   3.164   1.401
  929SOL    HW212997   2.732   3.066   1.270
  930SOL     OW12998   1.203   4.596   0.396
  930SOL    HW112999   1.198   4.583   0.297
  930SOL    HW213000   1.127   4.653   0.426
  931SOL     OW13001   0.111   5.568   1.656
  931SOL    HW113002   0.083   5.656   1.695
  931SOL    HW213003   0.180   5.526   1.715
  932SOL     OW13004   0.431   4.180   0.480
  932SOL    HW113005   0.407   4.094   0.436
  932SOL    HW213006   0.353   4.243   0.476
  933SOL     OW13007   8.967   2.558   1.194
  933SOL    HW113008   9.010   2.470   1.213
  933SOL    HW213009   8.961   2.572   1.095
  934SOL     OW13010   3.150   7.452   2.035
  934SOL    HW113011   3.236   7.463   1.984
  934SOL    HW213012   3.081   7.413   1.975
  935SOL     OW13013   8.685   9.463   2.441
  935SOL    HW113014   8.736   9.512   2.512
  935SOL    HW213015   8.590   9.494   2.441
  936SOL     OW13016   8.610   4.247   0.768
  936SOL    HW113017   8.697   4.196   0.765
  936SOL    HW213018   8.609   4.316   0.696
  937SOL     OW13019   9.108   2.267   1.539
  937SOL    HW113020   9.118   2.199   1.467
  937SOL    HW213021   9.025   2.248   1.592
  938SOL     OW13022   9.454   1.902   2.205
  938SOL    HW113023   9.494   1.915   2.296
  938SOL    HW213024   9.360   1.936   2.205
  939SOL     OW13025   0.676   7.036   2.682
  939SOL    HW113026   0.769   7.051   2.715
  939SOL    HW213027   0.668   6.945   2.643
  940SOL     OW13028   3.195   8.204   0.425
  940SOL    HW113029   3.097   8.185   0.424
  940SOL    HW213030   3.223   8.238   0.335
  941SOL     OW13031   3.516   8.864   0.217
  941SOL    HW113032   3.577   8.941   0.236
  941SOL    HW213033   3.571   8.782   0.199
  942SOL     OW13034   9.237   0.409   0.716
  942SOL    HW113035   9.230   0.333   0.651
  942SOL    HW213036   9.172   0.480   0.691
  943SOL     OW13037   3.726   2.106   0.657
  943SOL    HW113038   3.807   2.071   0.610
  943SOL    HW213039   3.655   2.128   0.590
  944SOL     OW13040   9.792   0.900   1.691
  944SOL    HW113041   9.766   0.858   1.778
  944SOL    HW213042   9.826   0.992   1.708
  945SOL     OW13043   9.320   9.694   1.293
  945SOL    HW113044   9.231   9.656   1.268
  945SOL    HW213045   9.318   9.721   1.389
  946SOL     OW13046   8.170   1.299   0.841
  946SOL    HW113047   8.194   1.237   0.766
  946SOL    HW213048   8.193   1.392   0.815
  947SOL     OW13049   8.678   0.040   0.639
  947SOL    HW113050   8.700   0.113   0.576
  947SOL    HW213051   8.670   9.954   0.589
  948SOL     OW13052   2.795   4.203   2.485
  948SOL    HW113053   2.698   4.185   2.503
  948SOL    HW213054   2.850   4.127   2.518
  949SOL     OW13055   8.555   7.289   1.933
  949SOL    HW113056   8.612   7.357   1.981
  949SOL    HW213057   8.597   7.266   1.846
  950SOL     OW13058   3.858   1.346   1.286
  950SOL    HW113059   3.808   1.300   1.358
  950SOL    HW213060   3.918   1.281   1.239
  951SOL     OW13061   1.642   2.294   0.413
  951SOL    HW113062   1.583   2.227   0.366
  951SOL    HW213063   1.598   2.384   0.412
  952SOL     OW13064   9.599   5.336   1.364
  952SOL    HW113065   9.664   5.412   1.361
  952SOL    HW213066   9.649   5.251   1.377
  953SOL     OW13067   3.998   9.084   0.196
  953SOL    HW113068   3.943   9.061   0.276
  953SOL    HW213069   4.026   8.999   0.150
  954SOL     OW13070   0.453   1.134   1.938
  954SOL    HW113071   0.390   1.180   1.876
  954SOL    HW213072   0.539   1.184   1.942
  955SOL     OW13073   0.422   5.820   0.198
  955SOL    HW113074   0.362   5.787   0.271
  955SOL    HW213075   0.477   5.744   0.163
  956SOL     OW13076   0.357   4.259   2.384
  956SOL    HW113077   0.423   4.330   2.363
  956SOL    HW213078   0.347   4.198   2.305
  957SOL     OW13079   2.680   8.571   0.555
  957SOL    HW113080   2.612   8.639   0.583
  957SOL    HW213081   2.724   8.533   0.636
  958SOL     OW13082   2.666   0.293   0.395
  958SOL    HW113083   2.684   0.381   0.438
  958SOL    HW213084   2.571   0.266   0.414
  959SOL     OW13085   2.098   0.853   2.366
  959SOL    HW113086   2.036   0.912   2.313
  959SOL    HW213087   2.143   0.788   2.305
  960SOL     OW13088   2.972   2.187   0.162
  960SOL    HW113089   2.940   2.192   0.256
  960SOL    HW213090   2.931   2.108   0.117
  961SOL     OW13091   2.583   8.690   0.237
  961SOL    HW113092   2.676   8.686   0.274
  961SOL    HW213093   2.549   8.597   0.222
  962SOL     OW13094   2.445   7.086   0.643
  962SOL    HW113095   2.455   7.175   0.600
  962SOL    HW213096   2.499   7.084   0.728
  963SOL     OW13097   2.376   7.161   1.684
  963SOL    HW113098   2.291   7.172   1.632
  963SOL    HW213099   2.379   7.071   1.727
  964SOL     OW13100   9.936   5.150   0.635
  964SOL    HW113101   9.890   5.070   0.672
  964SOL    HW213102   9.886   5.183   0.554
  965SOL     OW13103   3.819   9.878   1.542
  965SOL    HW113104   3.788   9.923   1.458
  965SOL    HW213105   3.740   9.846   1.593
  966SOL     OW13106   9.373   5.610   1.102
  966SOL    HW113107   9.324   5.574   1.023
  966SOL    HW213108   9.310   5.664   1.158
  967SOL     OW13109   9.780   5.954   1.555
  967SOL    HW113110   9.829   5.918   1.476
  967SOL    HW213111   9.794   5.894   1.634
  968SOL     OW13112   8.580   4.894   0.725
  968SOL    HW113113   8.641   4.876   0.802
  968SOL    HW213114   8.582   4.992   0.703
  969SOL     OW13115   1.201   1.619   1.906
  969SOL    HW113116   1.232   1.713   1.917
  969SOL    HW213117   1.281   1.559   1.898
  970SOL     OW13118   4.002   0.265   2.144
  970SOL    HW113119   4.077   0.323   2.112
  970SOL    HW213120   4.019   0.170   2.119
  971SOL     OW13121   9.569   2.306   0.152
  971SOL    HW113122   9.570   2.313   0.252
  971SOL    HW213123   9.488   2.255   0.123
  972SOL     OW13124   0.630   1.286   2.291
  972SOL    HW113125   0.576   1.351   2.344
  972SOL    HW213126   0.689   1.335   2.227
  973SOL     OW13127   2.119   5.184   1.509
  973SOL    HW113128   2.189   5.203   1.440
  973SOL    HW213129   2.155   5.119   1.577
  974SOL     OW13130   3.793   0.962   1.312
  974SOL    HW113131   3.865   0.893   1.306
  974SOL    HW213132   3.704   0.918   1.311
  975SOL     OW13133   9.020   0.515   1.917
  975SOL    HW113134   9.009   0.479   2.010
  975SOL    HW213135   9.043   0.612   1.922
  976SOL     OW13136   8.410   5.487   0.763
  976SOL    HW113137   8.478   5.425   0.803
  976SOL    HW213138   8.455   5.572   0.735
  977SOL     OW13139   9.021   2.861   1.913
  977SOL    HW113140   8.943   2.798   1.916
  977SOL    HW213141   8.987   2.955   1.906
  978SOL     OW13142   3.568   9.771   0.620
  978SOL    HW113143   3.569   9.739   0.525
  978SOL    HW213144   3.662   9.782   0.652
  979SOL     OW13145   3.845   3.021   0.962
  979SOL    HW113146   3.807   3.069   0.883
  979SOL    HW213147   3.815   2.925   0.961
  980SOL     OW13148   0.774   0.433   1.842
  980SOL    HW113149   0.815   0.468   1.757
  980SOL    HW213150   0.824   0.470   1.920
  981SOL     OW13151   9.855   0.125   1.398
  981SOL    HW113152   9.895   0.100   1.310
  981SOL    HW213153   9.896   0.211   1.430
  982SOL     OW13154   4.263   1.521   0.157
  982SOL    HW113155   4.291   1.509   0.253
  982SOL    HW213156   4.278   1.436   0.107
  983SOL     OW13157   1.521   6.737   1.380
  983SOL    HW113158   1.601   6.708   1.327
  983SOL    HW213159   1.548   6.751   1.475
  984SOL     OW13160   0.344   0.533   0.169
  984SOL    HW113161   0.280   0.461   0.141
  984SOL    HW213162   0.348   0.538   0.269
  985SOL     OW13163   8.336   6.979   1.125
  985SOL    HW113164   8.312   6.906   1.189
  985SOL    HW213165   8.292   6.960   1.036
  986SOL     OW13166   8.688   7.214   0.987
  986SOL    HW113167   8.652   7.300   1.024
  986SOL    HW213168   8.672   7.210   0.889
  987SOL     OW13169   2.070   3.979   1.029
  987SOL    HW113170   2.014   3.915   0.977
  987SOL    HW213171   2.015   4.021   1.102
  988SOL     OW13172   2.144   4.938   2.522
  988SOL    HW113173   2.188   4.856   2.559
  988SOL    HW213174   2.050   4.944   2.555
  989SOL     OW13175   2.460   7.636   2.592
  989SOL    HW113176   2.539   7.577   2.573
  989SOL    HW213177   2.378   7.579   2.600
  990SOL     OW13178   9.272   9.037   0.088
  990SOL    HW113179   9.293   9.023   3.428
  990SOL    HW213180   9.238   8.951   0.127
  991SOL     OW13181   7.493   9.367   1.006
  991SOL    HW113182   7.480   9.312   1.088
  991SOL    HW213183   7.587   9.355   0.973
  992SOL     OW13184   1.160   9.947   2.221
  992SOL    HW113185   1.128   0.037   2.251
  992SOL    HW213186   1.212   9.904   2.294
  993SOL     OW13187   9.600   0.226   0.320
  993SOL    HW113188   9.511   0.259   0.288
  993SOL    HW213189   9.663   0.303   0.328
  994SOL     OW13190   0.518   0.549   1.822
  994SOL    HW113191   0.604   0.498   1.821
  994SOL    HW213192   0.534   0.641   1.859
  995SOL     OW13193   0.892   0.615   2.574
  995SOL    HW113194   0.847   0.681   2.515
  995SOL    HW213195   0.825   0.549   2.608
  996SOL     OW13196   7.816   9.129   1.822
  996SOL    HW113197   7.783   9.223   1.825
  996SOL    HW213198   7.869   9.114   1.739
  997SOL     OW13199   1.306   7.793   0.921
  997SOL    HW113200   1.218   7.749   0.903
  997SOL    HW213201   1.351   7.815   0.834
  998SOL     OW13202   2.262   0.421   2.211
  998SOL    HW113203   2.357   0.397   2.231
  998SOL    HW213204   2.208   0.414   2.295
  999SOL     OW13205   0.715   2.998   2.619
  999SOL    HW113206   0.712   3.093   2.590
  999SOL    HW213207   0.699   2.993   2.718
 1000SOL     OW13208   2.721   2.775   0.826
 1000SOL    HW113209   2.691   2.859   0.870
 1000SOL    HW213210   2.807   2.744   0.867
 1001SOL     OW13211   3.122   2.451   2.314
 1001SOL    HW113212   3.128   2.507   2.232
 1001SOL    HW213213   3.179   2.370   2.304
 1002SOL     OW13214   8.753   1.553   1.619
 1002SOL    HW113215   8.696   1.615   1.563
 1002SOL    HW213216   8.837   1.600   1.645
 1003SOL     OW13217   1.980   0.185   2.345
 1003SOL    HW113218   2.035   0.254   2.392
 1003SOL    HW213219   2.039   0.117   2.304
 1004SOL     OW13220   4.049   9.822   1.687
 1004SOL    HW113221   4.130   9.861   1.644
 1004SOL    HW213222   3.968   9.846   1.634
 1005SOL     OW13223   1.328   1.056   0.995
 1005SOL    HW113224   1.377   1.127   0.945
 1005SOL    HW213225   1.230   1.062   0.975
 1006SOL     OW13226   9.788   5.281   0.447
 1006SOL    HW113227   9.711   5.252   0.392
 1006SOL    HW213228   9.811   5.376   0.425
 1007SOL     OW13229   4.239   2.658   1.700
 1007SOL    HW113230   4.284   2.612   1.623
 1007SOL    HW213231   4.308   2.708   1.753
 1008SOL     OW13232   0.216   3.133   1.059
 1008SOL    HW113233   0.190   3.177   0.974
 1008SOL    HW213234   0.308   3.094   1.050
 1009SOL     OW13235   9.510   9.341   2.546
 1009SOL    HW113236   9.437   9.290   2.499
 1009SOL    HW213237   9.485   9.437   2.549
 1010SOL     OW13238   7.733   8.211   2.577
 1010SOL    HW113239   7.661   8.156   2.533
 1010SOL    HW213240   7.765   8.164   2.659
 1011SOL     OW13241   0.895   4.577   1.908
 1011SOL    HW113242   0.891   4.510   1.981
 1011SOL    HW213243   0.812   4.572   1.852
 1012SOL     OW13244   9.213   0.279   0.964
 1012SOL    HW113245   9.300   0.231   0.952
 1012SOL    HW213246   9.197   0.338   0.884
 1013SOL     OW13247   0.199   3.311   1.929
 1013SOL    HW113248   0.186   3.394   1.874
 1013SOL    HW213249   0.291   3.310   1.968
 1014SOL     OW13250   9.170   3.084   1.312
 1014SOL    HW113251   9.094   3.142   1.342
 1014SOL    HW213252   9.248   3.141   1.288
 1015SOL     OW13253   9.474   4.524   1.316
 1015SOL    HW113254   9.539   4.600   1.319
 1015SOL    HW213255   9.394   4.551   1.262
 1016SOL     OW13256   4.129   0.896   1.972
 1016SOL    HW113257   4.229   0.890   1.979
 1016SOL    HW213258   4.088   0.810   2.001
 1017SOL     OW13259   8.343   6.885   0.035
 1017SOL    HW113260   8.434   6.891   3.431
 1017SOL    HW213261   8.305   6.794   0.019
 1018SOL     OW13262   1.755   3.195   0.348
 1018SOL    HW113263   1.792   3.287   0.362
 1018SOL    HW213264   1.702   3.168   0.428
 1019SOL     OW13265   8.656   0.484   0.450
 1019SOL    HW113266   8.610   0.507   0.536
 1019SOL    HW213267   8.733   0.547   0.436
 1020SOL     OW13268   0.773   7.145   0.170
 1020SOL    HW113269   0.777   7.239   0.137
 1020SOL    HW213270   0.680   7.110   0.161
 1021SOL     OW13271   8.836   0.430   1.725
 1021SOL    HW113272   8.900   0.463   1.794
 1021SOL    HW213273   8.860   0.467   1.636
 1022SOL     OW13274   8.797   4.766   1.831
 1022SOL    HW113275   8.732   4.822   1.780
 1022SOL    HW213276   8.753   4.731   1.914
 1023SOL     OW13277   1.639   2.827   0.309
 1023SOL    HW113278   1.689   2.833   0.222
 1023SOL    HW213279   1.702   2.840   0.385
 1024SOL     OW13280   0.905   3.723   1.401
 1024SOL    HW113281   0.974   3.666   1.447
 1024SOL    HW213282   0.927   3.819   1.415
 1025SOL     OW13283   0.103   4.254   0.289
 1025SOL    HW113284   0.019   4.206   0.312
 1025SOL    HW213285   0.145   4.290   0.373
 1026SOL     OW13286   4.422   8.143   0.265
 1026SOL    HW113287   4.378   8.186   0.344
 1026SOL    HW213288   4.438   8.047   0.285
 1027SOL     OW13289   1.260   4.375   1.967
 1027SOL    HW113290   1.290   4.426   2.048
 1027SOL    HW213291   1.199   4.302   1.995
 1028SOL     OW13292   3.505   7.940   0.705
 1028SOL    HW113293   3.582   7.945   0.641
 1028SOL    HW213294   3.513   7.857   0.760
 1029SOL     OW13295   0.631   4.201   1.322
 1029SOL    HW113296   0.654   4.134   1.252
 1029SOL    HW213297   0.668   4.171   1.410
 1030SOL     OW13298   2.460   0.533   1.340
 1030SOL    HW113299   2.504   0.598   1.278
 1030SOL    HW213300   2.511   0.447   1.341
 1031SOL     OW13301   3.580   9.152   1.389
 1031SOL    HW113302   3.601   9.054   1.388
 1031SOL    HW213303   3.481   9.165   1.397
 1032SOL     OW13304   3.466   5.721   2.089
 1032SOL    HW113305   3.490   5.626   2.109
 1032SOL    HW213306   3.448   5.770   2.174
 1033SOL     OW13307   1.099   8.166   0.085
 1033SOL    HW113308   1.186   8.122   0.063
 1033SOL    HW213309   1.038   8.099   0.130
 1034SOL     OW13310   9.602   3.754   1.359
 1034SOL    HW113311   9.528   3.821   1.363
 1034SOL    HW213312   9.630   3.741   1.264
 1035SOL     OW13313   3.442   7.627   1.251
 1035SOL    HW113314   3.523   7.615   1.193
 1035SOL    HW213315   3.470   7.651   1.344
 1036SOL     OW13316   8.021   1.507   1.797
 1036SOL    HW113317   7.968   1.590   1.781
 1036SOL    HW213318   8.000   1.471   1.888
 1037SOL     OW13319   8.660   5.944   0.729
 1037SOL    HW113320   8.744   5.989   0.758
 1037SOL    HW213321   8.584   5.973   0.788
 1038SOL     OW13322   1.727   8.084   0.809
 1038SOL    HW113323   1.728   8.127   0.899
 1038SOL    HW213324   1.700   7.988   0.818
 1039SOL     OW13325   2.839   6.653   1.084
 1039SOL    HW113326   2.934   6.667   1.111
 1039SOL    HW213327   2.781   6.723   1.125
 1040SOL     OW13328   4.365   1.420   2.157
 1040SOL    HW113329   4.385   1.517   2.146
 1040SOL    HW213330   4.387   1.371   2.072
 1041SOL     OW13331   2.338   5.391   2.455
 1041SOL    HW113332   2.342   5.296   2.485
 1041SOL    HW213333   2.432   5.425   2.440
 1042SOL     OW13334   8.045   3.315   1.296
 1042SOL    HW113335   7.981   3.279   1.364
 1042SOL    HW213336   8.098   3.390   1.337
 1043SOL     OW13337   2.720   0.694   1.468
 1043SOL    HW113338   2.778   0.622   1.506
 1043SOL    HW213339   2.629   0.690   1.511
 1044SOL     OW13340   8.320   3.045   2.407
 1044SOL    HW113341   8.348   3.120   2.347
 1044SOL    HW213342   8.375   3.045   2.490
 1045SOL     OW13343   9.968   7.613   1.044
 1045SOL    HW113344   0.066   7.592   1.049
 1045SOL    HW213345   9.936   7.645   1.133
 1046SOL     OW13346   2.819   6.957   0.429
 1046SOL    HW113347   2.751   6.887   0.407
 1046SOL    HW213348   2.794   7.044   0.386
 1047SOL     OW13349   9.874   9.466   0.280
 1047SOL    HW113350   9.908   9.529   0.211
 1047SOL    HW213351   9.786   9.429   0.252
 1048SOL     OW13352   7.934   9.749   2.193
 1048SOL    HW113353   7.918   9.760   2.291
 1048SOL    HW213354   7.871   9.680   2.157
 1049SOL     OW13355   1.889   8.012   0.598
 1049SOL    HW113356   1.838   8.032   0.682
 1049SOL    HW213357   1.871   8.083   0.530
 1050SOL     OW13358   3.831   3.504   2.306
 1050SOL    HW113359   3.813   3.461   2.394
 1050SOL    HW213360   3.922   3.546   2.307
 1051SOL     OW13361   9.430   9.474   1.160
 1051SOL    HW113362   9.456   9.502   1.067
 1051SOL    HW213363   9.395   9.553   1.210
 1052SOL     OW13364   9.923   5.785   1.353
 1052SOL    HW113365   0.008   5.823   1.390
 1052SOL    HW213366   9.929   5.785   1.253
 1053SOL     OW13367   8.816   5.071   0.523
 1053SOL    HW113368   8.848   5.133   0.451
 1053SOL    HW213369   8.740   5.114   0.572
 1054SOL     OW13370   2.157   0.012   2.214
 1054SOL    HW113371   2.211   9.931   2.191
 1054SOL    HW213372   2.179   0.085   2.150
 1055SOL     OW13373   2.305   1.414   2.001
 1055SOL    HW113374   2.275   1.321   2.023
 1055SOL    HW213375   2.402   1.414   1.977
 1056SOL     OW13376   3.704   8.533   1.126
 1056SOL    HW113377   3.675   8.492   1.039
 1056SOL    HW213378   3.717   8.461   1.194
 1057SOL     OW13379   2.286   2.989   1.264
 1057SOL    HW113380   2.194   2.952   1.276
 1057SOL    HW213381   2.280   3.082   1.228
 1058SOL     OW13382   2.386   8.051   0.109
 1058SOL    HW113383   2.309   8.115   0.109
 1058SOL    HW213384   2.390   8.004   0.021
 1059SOL     OW13385   1.626   9.175   0.046
 1059SOL    HW113386   1.535   9.218   0.052
 1059SOL    HW213387   1.628   9.111   3.406
 1060SOL     OW13388   1.006   5.872   1.867
 1060SOL    HW113389   1.029   5.953   1.921
 1060SOL    HW213390   0.909   5.850   1.881
 1061SOL     OW13391   4.690   1.252   2.243
 1061SOL    HW113392   4.625   1.290   2.309
 1061SOL    HW213393   4.779   1.240   2.286
 1062SOL     OW13394   4.424   2.446   2.138
 1062SOL    HW113395   4.413   2.368   2.199
 1062SOL    HW213396   4.353   2.513   2.156
 1063SOL     OW13397   3.845   2.817   1.913
 1063SOL    HW113398   3.861   2.881   1.988
 1063SOL    HW213399   3.893   2.850   1.831
 1064SOL     OW13400   9.903   5.105   1.189
 1064SOL    HW113401   9.908   5.174   1.117
 1064SOL    HW213402   9.981   5.117   1.251
 1065SOL     OW13403   9.412   2.434   0.851
 1065SOL    HW113404   9.431   2.528   0.824
 1065SOL    HW213405   9.492   2.397   0.900
 1066SOL     OW13406   8.579   9.364   1.609
 1066SOL    HW113407   8.530   9.280   1.631
 1066SOL    HW213408   8.639   9.348   1.530
 1067SOL     OW13409   8.879   3.656   1.647
 1067SOL    HW113410   8.963   3.606   1.670
 1067SOL    HW213411   8.817   3.595   1.597
 1068SOL     OW13412   8.155   0.657   0.479
 1068SOL    HW113413   8.132   0.664   0.382
 1068SOL    HW213414   8.253   0.670   0.491
 1069SOL     OW13415   9.358   2.409   1.238
 1069SOL    HW113416   9.264   2.375   1.233
 1069SOL    HW213417   9.361   2.503   1.204
 1070SOL     OW13418   8.350   6.452   1.264
 1070SOL    HW113419   8.406   6.434   1.183
 1070SOL    HW213420   8.292   6.373   1.283
 1071SOL     OW13421   8.003   0.453   0.598
 1071SOL    HW113422   8.009   0.373   0.538
 1071SOL    HW213423   8.063   0.525   0.563
 1072SOL     OW13424   4.648   9.753   0.693
 1072SOL    HW113425   4.599   9.834   0.661
 1072SOL    HW213426   4.714   9.780   0.763
 1073SOL     OW13427   2.590   9.598   1.373
 1073SOL    HW113428   2.647   9.564   1.448
 1073SOL    HW213429   2.504   9.634   1.411
 1074SOL     OW13430   1.709   0.310   2.481
 1074SOL    HW113431   1.617   0.282   2.509
 1074SOL    HW213432   1.773   0.236   2.501
 1075SOL     OW13433   2.675   9.289   0.184
 1075SOL    HW113434   2.589   9.240   0.198
 1075SOL    HW213435   2.749   9.224   0.168
 1076SOL     OW13436   9.844   8.750   2.108
 1076SOL    HW113437   9.869   8.683   2.179
 1076SOL    HW213438   9.859   8.710   2.018
 1077SOL     OW13439   0.420   0.909   1.000
 1077SOL    HW113440   0.489   0.837   0.997
 1077SOL    HW213441   0.357   0.898   0.923
 1078SOL     OW13442   2.921   4.332   1.243
 1078SOL    HW113443   2.868   4.253   1.212
 1078SOL    HW213444   3.009   4.301   1.280
 1079SOL     OW13445   0.818   1.066   1.234
 1079SOL    HW113446   0.911   1.095   1.211
 1079SOL    HW213447   0.780   1.128   1.303
 1080SOL     OW13448   7.551   1.401   1.713
 1080SOL    HW113449   7.470   1.361   1.672
 1080SOL    HW213450   7.581   1.344   1.790
 1081SOL     OW13451   1.584   4.632   2.032
 1081SOL    HW113452   1.654   4.652   2.100
 1081SOL    HW213453   1.611   4.552   1.979
 1082SOL     OW13454   0.632   7.061   1.710
 1082SOL    HW113455   0.707   7.073   1.774
 1082SOL    HW213456   0.655   7.107   1.624
 1083SOL     OW13457   8.422   8.056   1.503
 1083SOL    HW113458   8.522   8.053   1.507
 1083SOL    HW213459   8.385   7.985   1.563
 1084SOL     OW13460   9.415   7.293   1.863
 1084SOL    HW113461   9.359   7.222   1.819
 1084SOL    HW213462   9.358   7.348   1.923
 1085SOL     OW13463   2.952   3.783   1.501
 1085SOL    HW113464   2.890   3.722   1.552
 1085SOL    HW213465   2.951   3.874   1.542
 1086SOL     OW13466   9.147   2.777   0.997
 1086SOL    HW113467   9.092   2.701   0.962
 1086SOL    HW213468   9.091   2.837   1.054
 1087SOL     OW13469   3.909   3.857   2.371
 1087SOL    HW113470   3.809   3.860   2.366
 1087SOL    HW213471   3.945   3.949   2.355
 1088SOL     OW13472   0.420   8.571   1.888
 1088SOL    HW113473   0.365   8.495   1.920
 1088SOL    HW213474   0.364   8.632   1.831
 1089SOL     OW13475   3.916   1.305   0.879
 1089SOL    HW113476   3.994   1.365   0.893
 1089SOL    HW213477   3.862   1.337   0.800
 1090SOL     OW13478   9.876   9.047   1.231
 1090SOL    HW113479   9.893   8.966   1.176
 1090SOL    HW213480   9.802   9.101   1.190
 1091SOL     OW13481   4.214   0.428   2.079
 1091SOL    HW113482   4.241   0.418   1.983
 1091SOL    HW213483   4.295   0.443   2.136
 1092SOL     OW13484   1.279   4.552   0.130
 1092SOL    HW113485   1.359   4.494   0.141
 1092SOL    HW213486   1.307   4.641   0.095
 1093SOL     OW13487   7.970   0.848   0.554
 1093SOL    HW113488   8.046   0.788   0.527
 1093SOL    HW213489   8.001   0.943   0.553
 1094SOL     OW13490   2.545   6.519   1.875
 1094SOL    HW113491   2.541   6.594   1.808
 1094SOL    HW213492   2.462   6.463   1.866
 1095SOL     OW13493   0.070   5.578   2.396
 1095SOL    HW113494   0.013   5.649   2.439
 1095SOL    HW213495   0.021   5.491   2.398
 1096SOL     OW13496   8.439   8.662   2.355
 1096SOL    HW113497   8.431   8.762   2.360
 1096SOL    HW213498   8.533   8.635   2.376
 1097SOL     OW13499   8.001   1.818   2.207
 1097SOL    HW113500   8.091   1.855   2.229
 1097SOL    HW213501   8.009   1.720   2.189
 1098SOL     OW13502   2.675   8.302   0.437
 1098SOL    HW113503   2.642   8.285   0.344
 1098SOL    HW213504   2.662   8.399   0.459
 1099SOL     OW13505   8.536   7.520   0.383
 1099SOL    HW113506   8.517   7.617   0.368
 1099SOL    HW213507   8.472   7.466   0.329
 1100SOL     OW13508   3.495   3.544   0.655
 1100SOL    HW113509   3.520   3.509   0.746
 1100SOL    HW213510   3.498   3.469   0.589
 1101SOL     OW13511   7.905   0.870   2.139
 1101SOL    HW113512   8.004   0.869   2.123
 1101SOL    HW213513   7.876   0.962   2.164
 1102SOL     OW13514   0.968   2.534   1.920
 1102SOL    HW113515   0.948   2.576   2.009
 1102SOL    HW213516   0.884   2.496   1.882
 1103SOL     OW13517   8.427   2.166   2.445
 1103SOL    HW113518   8.347   2.176   2.503
 1103SOL    HW213519   8.444   2.069   2.427
 1104SOL     OW13520   3.542   7.702   0.864
 1104SOL    HW113521   3.617   7.690   0.799
 1104SOL    HW213522   3.575   7.688   0.957
 1105SOL     OW13523   2.971   9.484   0.136
 1105SOL    HW113524   2.980   9.394   0.180
 1105SOL    HW213525   2.876   9.500   0.111
 1106SOL     OW13526   9.406   0.158   1.447
 1106SOL    HW113527   9.477   0.178   1.515
 1106SOL    HW213528   9.341   0.234   1.445
 1107SOL     OW13529   1.921   3.982   1.558
 1107SOL    HW113530   1.904   3.948   1.465
 1107SOL    HW213531   1.866   3.930   1.623
 1108SOL     OW13532   3.550   3.317   2.020
 1108SOL    HW113533   3.603   3.311   1.936
 1108SOL    HW213534   3.464   3.267   2.009
 1109SOL     OW13535   4.425   2.783   1.863
 1109SOL    HW113536   4.475   2.704   1.898
 1109SOL    HW213537   4.468   2.867   1.897
 1110SOL     OW13538   2.276   1.040   2.462
 1110SOL    HW113539   2.202   0.978   2.437
 1110SOL    HW213540   2.260   1.130   2.421
 1111SOL     OW13541   9.817   3.515   0.449
 1111SOL    HW113542   9.721   3.544   0.444
 1111SOL    HW213543   9.824   3.417   0.433
 1112SOL     OW13544   2.104   9.327   2.243
 1112SOL    HW113545   2.071   9.297   2.153
 1112SOL    HW213546   2.095   9.426   2.250
 1113SOL     OW13547   0.911   5.027   0.816
 1113SOL    HW113548   0.865   5.043   0.903
 1113SOL    HW213549   0.933   5.114   0.773
 1114SOL     OW13550   1.403   7.797   0.658
 1114SOL    HW113551   1.321   7.772   0.608
 1114SOL    HW213552   1.461   7.717   0.669
 1115SOL     OW13553   9.117   3.479   1.433
 1115SOL    HW113554   9.110   3.484   1.532
 1115SOL    HW213555   9.213   3.489   1.405
 1116SOL     OW13556   8.069   5.432   0.364
 1116SOL    HW113557   8.108   5.340   0.362
 1116SOL    HW213558   8.127   5.491   0.420
 1117SOL     OW13559   8.273   6.618   0.009
 1117SOL    HW113560   8.181   6.581   3.428
 1117SOL    HW213561   8.341   6.554   3.410
 1118SOL     OW13562   0.998   1.487   0.065
 1118SOL    HW113563   0.930   1.539   0.117
 1118SOL    HW213564   1.085   1.534   0.067
 1119SOL     OW13565   0.325   6.352   2.321
 1119SOL    HW113566   0.386   6.310   2.254
 1119SOL    HW213567   0.232   6.354   2.286
 1120SOL     OW13568   8.600   4.079   2.383
 1120SOL    HW113569   8.592   4.001   2.446
 1120SOL    HW213570   8.592   4.047   2.289
 1121SOL     OW13571   4.857   2.768   1.102
 1121SOL    HW113572   4.906   2.848   1.137
 1121SOL    HW213573   4.894   2.742   1.013
 1122SOL     OW13574   4.803   3.600   0.055
 1122SOL    HW113575   4.753   3.587   3.406
 1122SOL    HW213576   4.741   3.587   0.132
 1123SOL     OW13577   8.901   6.664   2.062
 1123SOL    HW113578   8.926   6.573   2.028
 1123SOL    HW213579   8.914   6.667   2.161
 1124SOL     OW13580   0.587   3.731   1.106
 1124SOL    HW113581   0.579   3.651   1.166
 1124SOL    HW213582   0.515   3.727   1.036
 1125SOL     OW13583   6.734   9.254   1.476
 1125SOL    HW113584   6.639   9.283   1.488
 1125SOL    HW213585   6.764   9.204   1.557
 1126SOL     OW13586   9.422   9.232   1.278
 1126SOL    HW113587   9.423   9.320   1.232
 1126SOL    HW213588   9.458   9.242   1.371
 1127SOL     OW13589   3.686   4.955   1.287
 1127SOL    HW113590   3.775   4.916   1.261
 1127SOL    HW213591   3.623   4.947   1.210
 1128SOL     OW13592   2.829   9.058   0.615
 1128SOL    HW113593   2.748   9.080   0.560
 1128SOL    HW213594   2.806   8.989   0.683
 1129SOL     OW13595   8.934   0.535   0.966
 1129SOL    HW113596   8.863   0.496   1.025
 1129SOL    HW213597   8.892   0.594   0.897
 1130SOL     OW13598   4.346   1.277   0.842
 1130SOL    HW113599   4.260   1.271   0.791
 1130SOL    HW213600   4.372   1.372   0.852
 1131SOL     OW13601   2.616   3.940   1.470
 1131SOL    HW113602   2.574   4.027   1.445
 1131SOL    HW213603   2.682   3.913   1.400
 1132SOL     OW13604   3.226   0.954   1.337
 1132SOL    HW113605   3.286   0.985   1.410
 1132SOL    HW213606   3.132   0.985   1.355
 1133SOL     OW13607   2.041   8.644   1.983
 1133SOL    HW113608   2.077   8.667   1.893
 1133SOL    HW213609   2.108   8.589   2.033
 1134SOL     OW13610   3.756   7.146   0.623
 1134SOL    HW113611   3.693   7.068   0.627
 1134SOL    HW213612   3.799   7.150   0.533
 1135SOL     OW13613   3.550   5.520   2.625
 1135SOL    HW113614   3.588   5.427   2.627
 1135SOL    HW213615   3.480   5.526   2.554
 1136SOL     OW13616   7.623   9.607   0.291
 1136SOL    HW113617   7.694   9.649   0.347
 1136SOL    HW213618   7.580   9.677   0.233
 1137SOL     OW13619   1.832   2.789   1.156
 1137SOL    HW113620   1.751   2.731   1.150
 1137SOL    HW213621   1.818   2.873   1.104
 1138SOL     OW13622   0.949   8.261   1.951
 1138SOL    HW113623   0.960   8.193   1.878
 1138SOL    HW213624   0.853   8.289   1.957
 1139SOL     OW13625   2.879   2.208   0.419
 1139SOL    HW113626   2.845   2.129   0.470
 1139SOL    HW213627   2.802   2.266   0.392
 1140SOL     OW13628   9.443   4.638   2.115
 1140SOL    HW113629   9.360   4.693   2.103
 1140SOL    HW213630   9.489   4.628   2.027
 1141SOL     OW13631   7.098   9.697   1.088
 1141SOL    HW113632   7.156   9.625   1.050
 1141SOL    HW213633   7.047   9.660   1.166
 1142SOL     OW13634   0.190   7.831   0.796
 1142SOL    HW113635   0.199   7.930   0.787
 1142SOL    HW213636   0.093   7.806   0.795
 1143SOL     OW13637   1.954   8.467   1.146
 1143SOL    HW113638   1.858   8.492   1.133
 1143SOL    HW213639   1.991   8.429   1.061
 1144SOL     OW13640   8.138   9.435   0.259
 1144SOL    HW113641   8.202   9.469   0.327
 1144SOL    HW213642   8.077   9.509   0.230
 1145SOL     OW13643   2.799   5.078   0.188
 1145SOL    HW113644   2.865   5.154   0.182
 1145SOL    HW213645   2.716   5.102   0.139
 1146SOL     OW13646   2.250   3.386   0.638
 1146SOL    HW113647   2.157   3.381   0.673
 1146SOL    HW213648   2.261   3.323   0.561
 1147SOL     OW13649   9.166   6.665   0.814
 1147SOL    HW113650   9.092   6.611   0.776
 1147SOL    HW213651   9.184   6.636   0.908
 1148SOL     OW13652   0.009   1.456   1.650
 1148SOL    HW113653   0.100   1.464   1.692
 1148SOL    HW213654   0.019   1.446   1.551
 1149SOL     OW13655   4.225   8.283   0.107
 1149SOL    HW113656   4.279   8.362   0.078
 1149SOL    HW213657   4.283   8.218   0.156
 1150SOL     OW13658   0.155   0.031   0.692
 1150SOL    HW113659   0.223   0.081   0.638
 1150SOL    HW213660   0.186   9.937   0.705
 1151SOL     OW13661   8.532   9.804   2.517
 1151SOL    HW113662   8.486   9.718   2.496
 1151SOL    HW213663   8.625   9.786   2.549
 1152SOL     OW13664   8.687   2.934   1.918
 1152SOL    HW113665   8.631   2.939   1.835
 1152SOL    HW213666   8.733   2.845   1.921
 1153SOL     OW13667   3.454   3.246   1.256
 1153SOL    HW113668   3.404   3.307   1.195
 1153SOL    HW213669   3.541   3.220   1.214
 1154SOL     OW13670   4.835   0.530   2.344
 1154SOL    HW113671   4.788   0.452   2.386
 1154SOL    HW213672   4.920   0.548   2.392
 1155SOL     OW13673   1.570   4.275   0.392
 1155SOL    HW113674   1.669   4.266   0.400
 1155SOL    HW213675   1.548   4.321   0.306
 1156SOL     OW13676   5.850   9.342   2.089
 1156SOL    HW113677   5.760   9.298   2.084
 1156SOL    HW213678   5.841   9.432   2.131
 1157SOL     OW13679   9.837   8.419   1.457
 1157SOL    HW113680   9.785   8.401   1.373
 1157SOL    HW213681   9.934   8.426   1.434
 1158SOL     OW13682   9.078   5.283   1.449
 1158SOL    HW113683   9.076   5.373   1.492
 1158SOL    HW213684   9.079   5.293   1.349
 1159SOL     OW13685   1.392   0.284   1.210
 1159SOL    HW113686   1.480   0.317   1.245
 1159SOL    HW213687   1.334   0.256   1.287
 1160SOL     OW13688   4.198   1.095   0.247
 1160SOL    HW113689   4.137   1.168   0.278
 1160SOL    HW213690   4.245   1.124   0.163
 1161SOL     OW13691   2.219   1.081   0.055
 1161SOL    HW113692   2.224   1.157   3.427
 1161SOL    HW213693   2.285   1.095   0.128
 1162SOL     OW13694   2.040   1.204   0.437
 1162SOL    HW113695   2.081   1.154   0.514
 1162SOL    HW213696   2.019   1.139   0.363
 1163SOL     OW13697   8.988   8.554   0.573
 1163SOL    HW113698   8.901   8.508   0.591
 1163SOL    HW213699   9.041   8.560   0.658
 1164SOL     OW13700   7.958   2.724   2.573
 1164SOL    HW113701   8.030   2.794   2.575
 1164SOL    HW213702   7.872   2.763   2.606
 1165SOL     OW13703   2.120   5.775   2.273
 1165SOL    HW113704   2.131   5.676   2.272
 1165SOL    HW213705   2.198   5.818   2.228
 1166SOL     OW13706   2.522   1.658   2.294
 1166SOL    HW113707   2.477   1.747   2.293
 1166SOL    HW213708   2.472   1.595   2.353
 1167SOL     OW13709   7.244   9.818   0.212
 1167SOL    HW113710   7.338   9.805   0.179
 1167SOL    HW213711   7.213   9.735   0.258
 1168SOL     OW13712   4.702   2.676   1.650
 1168SOL    HW113713   4.650   2.600   1.689
 1168SOL    HW213714   4.643   2.756   1.639
 1169SOL     OW13715   7.204   9.661   2.056
 1169SOL    HW113716   7.168   9.663   2.149
 1169SOL    HW213717   7.140   9.707   1.995
 1170SOL     OW13718   9.558   4.091   0.960
 1170SOL    HW113719   9.513   4.147   1.029
 1170SOL    HW213720   9.647   4.060   0.994
 1171SOL     OW13721   3.514   0.401   0.854
 1171SOL    HW113722   3.613   0.398   0.867
 1171SOL    HW213723   3.478   0.486   0.892
 1172SOL     OW13724   3.287   3.743   2.187
 1172SOL    HW113725   3.228   3.823   2.183
 1172SOL    HW213726   3.377   3.766   2.148
 1173SOL     OW13727   9.121   7.590   2.229
 1173SOL    HW113728   9.095   7.639   2.313
 1173SOL    HW213729   9.106   7.649   2.150
 1174SOL     OW13730   0.505   3.740   0.349
 1174SOL    HW113731   0.435   3.810   0.336
 1174SOL    HW213732   0.518   3.723   0.446
 1175SOL     OW13733   8.958   3.810   1.037
 1175SOL    HW113734   9.033   3.846   0.981
 1175SOL    HW213735   8.996   3.757   1.113
 1176SOL     OW13736   2.169   0.220   1.745
 1176SOL    HW113737   2.171   0.211   1.845
 1176SOL    HW213738   2.131   0.137   1.705
 1177SOL     OW13739   4.588   2.058   2.336
 1177SOL    HW113740   4.593   1.988   2.408
 1177SOL    HW213741   4.656   2.037   2.265
 1178SOL     OW13742   9.784   6.299   0.920
 1178SOL    HW113743   9.718   6.329   0.990
 1178SOL    HW213744   9.872   6.346   0.936
 1179SOL     OW13745   3.101   2.113   2.566
 1179SOL    HW113746   3.069   2.042   2.503
 1179SOL    HW213747   3.026   2.176   2.585
 1180SOL     OW13748   2.402   0.258   0.493
 1180SOL    HW113749   2.458   0.236   0.573
 1180SOL    HW213750   2.354   0.344   0.509
 1181SOL     OW13751   7.529   9.162   1.467
 1181SOL    HW113752   7.520   9.257   1.496
 1181SOL    HW213753   7.458   9.106   1.511
 1182SOL     OW13754   2.837   3.526   1.131
 1182SOL    HW113755   2.873   3.434   1.142
 1182SOL    HW213756   2.900   3.581   1.075
 1183SOL     OW13757   4.644   3.082   1.450
 1183SOL    HW113758   4.600   3.007   1.499
 1183SOL    HW213759   4.622   3.076   1.352
 1184SOL     OW13760   9.662   9.822   0.436
 1184SOL    HW113761   9.594   9.882   0.480
 1184SOL    HW213762   9.707   9.872   0.363
 1185SOL     OW13763   7.675   1.198   0.581
 1185SOL    HW113764   7.642   1.275   0.635
 1185SOL    HW213765   7.714   1.129   0.641
 1186SOL     OW13766   2.124   0.407   2.449
 1186SOL    HW113767   2.035   0.450   2.435
 1186SOL    HW213768   2.173   0.455   2.521
 1187SOL     OW13769   3.375   4.350   1.741
 1187SOL    HW113770   3.440   4.379   1.812
 1187SOL    HW213771   3.422   4.294   1.673
 1188SOL     OW13772   3.009   2.533   1.596
 1188SOL    HW113773   3.074   2.538   1.520
 1188SOL    HW213774   3.052   2.485   1.673
 1189SOL     OW13775   8.946   6.150   0.459
 1189SOL    HW113776   8.909   6.058   0.474
 1189SOL    HW213777   8.871   6.213   0.436
 1190SOL     OW13778   0.845   1.426   0.973
 1190SOL    HW113779   0.938   1.399   0.997
 1190SOL    HW213780   0.782   1.396   1.045
 1191SOL     OW13781   3.993   0.423   2.371
 1191SOL    HW113782   3.910   0.401   2.423
 1191SOL    HW213783   4.004   0.357   2.297
 1192SOL     OW13784   4.534   3.563   2.304
 1192SOL    HW113785   4.628   3.573   2.271
 1192SOL    HW213786   4.524   3.475   2.349
 1193SOL     OW13787   1.162   6.250   0.928
 1193SOL    HW113788   1.095   6.240   0.854
 1193SOL    HW213789   1.159   6.344   0.962
 1194SOL     OW13790   8.321   1.706   1.839
 1194SOL    HW113791   8.265   1.787   1.823
 1194SOL    HW213792   8.403   1.733   1.890
 1195SOL     OW13793   3.156   4.545   2.537
 1195SOL    HW113794   3.173   4.607   2.460
 1195SOL    HW213795   3.105   4.465   2.505
 1196SOL     OW13796   0.952   3.991   1.420
 1196SOL    HW113797   0.948   4.019   1.324
 1196SOL    HW213798   0.889   4.048   1.473
 1197SOL     OW13799   3.510   8.785   0.828
 1197SOL    HW113800   3.549   8.870   0.865
 1197SOL    HW213801   3.426   8.807   0.779
 1198SOL     OW13802   7.895   0.784   0.808
 1198SOL    HW113803   7.921   0.794   0.712
 1198SOL    HW213804   7.818   0.722   0.815
 1199SOL     OW13805   2.098   6.152   2.375
 1199SOL    HW113806   2.040   6.094   2.319
 1199SOL    HW213807   2.106   6.242   2.332
 1200SOL     OW13808   8.623   2.627   1.695
 1200SOL    HW113809   8.529   2.592   1.698
 1200SOL    HW213810   8.684   2.556   1.660
 1201SOL     OW13811   9.757   1.691   0.276
 1201SOL    HW113812   9.751   1.592   0.290
 1201SOL    HW213813   9.833   1.711   0.214
 1202SOL     OW13814   9.028   7.938   1.101
 1202SOL    HW113815   9.059   8.033   1.099
 1202SOL    HW213816   8.938   7.931   1.059
 1203SOL     OW13817   9.359   8.529   1.126
 1203SOL    HW113818   9.432   8.508   1.061
 1203SOL    HW213819   9.380   8.489   1.215
 1204SOL     OW13820   9.354   2.672   1.153
 1204SOL    HW113821   9.445   2.701   1.125
 1204SOL    HW213822   9.286   2.709   1.088
 1205SOL     OW13823   9.815   3.245   0.355
 1205SOL    HW113824   9.878   3.169   0.370
 1205SOL    HW213825   9.722   3.209   0.347
 1206SOL     OW13826   3.377   3.932   0.999
 1206SOL    HW113827   3.459   3.923   1.055
 1206SOL    HW213828   3.372   4.023   0.959
 1207SOL     OW13829   8.632   6.759   2.077
 1207SOL    HW113830   8.712   6.701   2.058
 1207SOL    HW213831   8.663   6.847   2.113
 1208SOL     OW13832   9.178   6.410   1.459
 1208SOL    HW113833   9.258   6.468   1.442
 1208SOL    HW213834   9.193   6.320   1.418
 1209SOL     OW13835   2.392   3.616   1.119
 1209SOL    HW113836   2.484   3.656   1.120
 1209SOL    HW213837   2.380   3.560   1.201
 1210SOL     OW13838   4.105   2.261   2.170
 1210SOL    HW113839   4.090   2.300   2.079
 1210SOL    HW213840   4.203   2.258   2.189
 1211SOL     OW13841   9.378   4.996   0.939
 1211SOL    HW113842   9.464   4.945   0.937
 1211SOL    HW213843   9.324   4.973   0.858
 1212SOL     OW13844   9.017   5.759   1.984
 1212SOL    HW113845   9.056   5.668   1.973
 1212SOL    HW213846   8.926   5.763   1.943
 1213SOL     OW13847   3.706   2.376   0.702
 1213SOL    HW113848   3.608   2.394   0.709
 1213SOL    HW213849   3.721   2.277   0.694
 1214SOL     OW13850   8.767   5.344   1.777
 1214SOL    HW113851   8.828   5.273   1.743
 1214SOL    HW213852   8.731   5.318   1.866
 1215SOL     OW13853   3.347   0.148   2.076
 1215SOL    HW113854   3.434   0.187   2.048
 1215SOL    HW213855   3.313   0.088   2.003
 1216SOL     OW13856   3.315   0.308   2.507
 1216SOL    HW113857   3.407   0.281   2.532
 1216SOL    HW213858   3.302   0.405   2.526
 1217SOL     OW13859   0.001   0.330   1.201
 1217SOL    HW113860   9.993   0.232   1.182
 1217SOL    HW213861   0.003   0.345   1.299
 1218SOL     OW13862   2.970   1.045   0.654
 1218SOL    HW113863   3.034   1.048   0.577
 1218SOL    HW213864   2.913   1.127   0.653
 1219SOL     OW13865   0.003   5.134   0.091
 1219SOL    HW113866   0.079   5.069   0.095
 1219SOL    HW213867   0.025   5.214   0.146
 1220SOL     OW13868   4.301   9.639   1.974
 1220SOL    HW113869   4.315   9.541   1.960
 1220SOL    HW213870   4.364   9.690   1.915
 1221SOL     OW13871   3.237   9.942   1.160
 1221SOL    HW113872   3.255   9.912   1.066
 1221SOL    HW213873   3.138   9.947   1.174
 1222SOL     OW13874   9.994   2.882   1.714
 1222SOL    HW113875   0.060   2.850   1.782
 1222SOL    HW213876   0.030   2.867   1.622
 1223SOL     OW13877   0.080   4.618   2.563
 1223SOL    HW113878   0.080   4.631   2.662
 1223SOL    HW213879   0.103   4.524   2.541
 1224SOL     OW13880   2.533   7.829   0.574
 1224SOL    HW113881   2.599   7.858   0.643
 1224SOL    HW213882   2.512   7.905   0.513
 1225SOL     OW13883   9.506   6.098   0.771
 1225SOL    HW113884   9.522   6.195   0.750
 1225SOL    HW213885   9.592   6.054   0.796
 1226SOL     OW13886   2.429   8.754   1.467
 1226SOL    HW113887   2.389   8.681   1.412
 1226SOL    HW213888   2.422   8.730   1.564
 1227SOL     OW13889   9.780   0.437   0.326
 1227SOL    HW113890   9.865   0.401   0.365
 1227SOL    HW213891   9.752   0.518   0.379
 1228SOL     OW13892   9.683   3.718   1.100
 1228SOL    HW113893   9.693   3.770   1.015
 1228SOL    HW213894   9.723   3.627   1.089
 1229SOL     OW13895   0.246   4.343   1.616
 1229SOL    HW113896   0.314   4.338   1.689
 1229SOL    HW213897   0.283   4.394   1.538
 1230SOL     OW13898   3.892   0.267   0.521
 1230SOL    HW113899   3.894   0.291   0.424
 1230SOL    HW213900   3.950   0.187   0.537
 1231SOL     OW13901   3.416   0.842   1.733
 1231SOL    HW113902   3.413   0.873   1.828
 1231SOL    HW213903   3.376   0.750   1.726
 1232SOL     OW13904   2.310   9.161   0.555
 1232SOL    HW113905   2.300   9.157   0.654
 1232SOL    HW213906   2.373   9.235   0.531
 1233SOL     OW13907   0.780   2.364   0.235
 1233SOL    HW113908   0.789   2.268   0.208
 1233SOL    HW213909   0.823   2.378   0.324
 1234SOL     OW13910   2.900   3.677   2.640
 1234SOL    HW113911   2.938   3.665   2.732
 1234SOL    HW213912   2.966   3.647   2.572
 1235SOL     OW13913   0.316   2.869   0.276
 1235SOL    HW113914   0.414   2.863   0.256
 1235SOL    HW213915   0.285   2.963   0.262
 1236SOL     OW13916   2.869   2.273   2.583
 1236SOL    HW113917   2.872   2.335   2.504
 1236SOL    HW213918   2.788   2.295   2.638
 1237SOL     OW13919   1.580   2.573   0.415
 1237SOL    HW113920   1.593   2.657   0.364
 1237SOL    HW213921   1.483   2.547   0.415
 1238SOL     OW13922   1.103   3.835   2.457
 1238SOL    HW113923   1.200   3.843   2.483
 1238SOL    HW213924   1.070   3.744   2.482
 1239SOL     OW13925   8.934   4.219   1.204
 1239SOL    HW113926   8.869   4.238   1.277
 1239SOL    HW213927   8.895   4.150   1.142
 1240SOL     OW13928   7.938   1.879   2.477
 1240SOL    HW113929   7.947   1.848   2.382
 1240SOL    HW213930   7.852   1.845   2.515
 1241SOL     OW13931   3.267   1.274   1.718
 1241SOL    HW113932   3.362   1.245   1.709
 1241SOL    HW213933   3.246   1.340   1.646
 1242SOL     OW13934   3.646   1.241   2.175
 1242SOL    HW113935   3.706   1.164   2.199
 1242SOL    HW213936   3.553   1.207   2.161
 1243SOL     OW13937   3.960   5.319   2.583
 1243SOL    HW113938   4.043   5.301   2.637
 1243SOL    HW213939   3.977   5.296   2.487
 1244SOL     OW13940   9.998   2.043   0.852
 1244SOL    HW113941   9.904   2.011   0.837
 1244SOL    HW213942   0.014   2.056   0.950
 1245SOL     OW13943   0.854   3.690   1.131
 1245SOL    HW113944   0.757   3.714   1.121
 1245SOL    HW213945   0.878   3.693   1.228
 1246SOL     OW13946   7.664   2.501   0.060
 1246SOL    HW113947   7.730   2.503   0.135
 1246SOL    HW213948   7.613   2.587   0.057
 1247SOL     OW13949   8.646   0.839   1.774
 1247SOL    HW113950   8.625   0.747   1.742
 1247SOL    HW213951   8.720   0.878   1.718
 1248SOL     OW13952   8.530   6.872   2.518
 1248SOL    HW113953   8.454   6.809   2.501
 1248SOL    HW213954   8.531   6.896   2.615
 1249SOL     OW13955   3.878   1.175   0.564
 1249SOL    HW113956   3.888   1.078   0.587
 1249SOL    HW213957   3.837   1.182   0.473
 1250SOL     OW13958   2.775   7.662   0.420
 1250SOL    HW113959   2.819   7.606   0.489
 1250SOL    HW213960   2.677   7.641   0.416
 1251SOL     OW13961   2.578   9.658   2.593
 1251SOL    HW113962   2.518   9.582   2.570
 1251SOL    HW213963   2.673   9.626   2.596
 1252SOL     OW13964   2.443   0.866   0.679
 1252SOL    HW113965   2.380   0.894   0.607
 1252SOL    HW213966   2.536   0.891   0.653
 1253SOL     OW13967   8.717   6.041   0.285
 1253SOL    HW113968   8.758   5.973   0.346
 1253SOL    HW213969   8.683   6.118   0.339
 1254SOL     OW13970   5.312   7.892   2.653
 1254SOL    HW113971   5.316   7.819   2.585
 1254SOL    HW213972   5.217   7.919   2.668
 1255SOL     OW13973   0.817   9.649   2.622
 1255SOL    HW113974   0.758   9.667   2.700
 1255SOL    HW213975   0.815   9.552   2.600
 1256SOL     OW13976   4.683   9.685   2.013
 1256SOL    HW113977   4.628   9.729   2.084
 1256SOL    HW213978   4.779   9.709   2.026
 1257SOL     OW13979   0.517   5.789   2.624
 1257SOL    HW113980   0.447   5.735   2.578
 1257SOL    HW213981   0.523   5.880   2.582
 1258SOL     OW13982   9.804   2.714   0.889
 1258SOL    HW113983   9.767   2.753   0.805
 1258SOL    HW213984   9.885   2.764   0.918
 1259SOL     OW13985   9.806   4.275   0.571
 1259SOL    HW113986   9.715   4.312   0.588
 1259SOL    HW213987   9.871   4.351   0.561
 1260SOL     OW13988   2.445   9.956   0.188
 1260SOL    HW113989   2.450   9.865   0.149
 1260SOL    HW213990   2.523   0.010   0.157
 1261SOL     OW13991   2.051   4.475   2.420
 1261SOL    HW113992   1.969   4.533   2.429
 1261SOL    HW213993   2.130   4.533   2.398
 1262SOL     OW13994   8.325   8.709   1.108
 1262SOL    HW113995   8.248   8.699   1.171
 1262SOL    HW213996   8.347   8.806   1.098
 1263SOL     OW13997   3.672   7.346   0.779
 1263SOL    HW113998   3.699   7.339   0.875
 1263SOL    HW213999   3.700   7.264   0.730
 1264SOL     OW14000   2.413   1.130   0.246
 1264SOL    HW114001   2.510   1.104   0.244
 1264SOL    HW214002   2.405   1.228   0.259
 1265SOL     OW14003   3.919   9.504   2.309
 1265SOL    HW114004   4.017   9.497   2.325
 1265SOL    HW214005   3.875   9.417   2.333
 1266SOL     OW14006   9.767   0.783   1.947
 1266SOL    HW114007   9.726   0.737   2.026
 1266SOL    HW214008   9.814   0.715   1.891
 1267SOL     OW14009   0.993   2.735   1.231
 1267SOL    HW114010   1.032   2.824   1.205
 1267SOL    HW214011   1.038   2.663   1.178
 1268SOL     OW14012   4.427   7.917   2.058
 1268SOL    HW114013   4.467   7.827   2.038
 1268SOL    HW214014   4.497   7.987   2.050
 1269SOL     OW14015   9.109   1.555   0.779
 1269SOL    HW114016   9.185   1.501   0.815
 1269SOL    HW214017   9.145   1.637   0.734
 1270SOL     OW14018   0.627   3.691   2.288
 1270SOL    HW114019   0.681   3.758   2.238
 1270SOL    HW214020   0.562   3.647   2.226
 1271SOL     OW14021   3.752   9.746   1.057
 1271SOL    HW114022   3.782   9.685   0.984
 1271SOL    HW214023   3.702   9.693   1.126
 1272SOL     OW14024   0.846   7.671   0.387
 1272SOL    HW114025   0.871   7.592   0.443
 1272SOL    HW214026   0.912   7.682   0.312
 1273SOL     OW14027   2.279   4.035   2.049
 1273SOL    HW114028   2.376   4.047   2.029
 1273SOL    HW214029   2.225   4.088   1.984
 1274SOL     OW14030   1.760   4.222   1.588
 1274SOL    HW114031   1.829   4.168   1.541
 1274SOL    HW214032   1.721   4.168   1.663
 1275SOL     OW14033   3.258   7.735   1.077
 1275SOL    HW114034   3.256   7.674   0.997
 1275SOL    HW214035   3.320   7.697   1.146
 1276SOL     OW14036   0.985   5.764   0.339
 1276SOL    HW114037   1.071   5.812   0.322
 1276SOL    HW214038   0.909   5.827   0.330
 1277SOL     OW14039   0.050   7.527   2.555
 1277SOL    HW114040   0.057   7.513   2.654
 1277SOL    HW214041   0.132   7.490   2.511
 1278SOL     OW14042   1.834   5.238   2.286
 1278SOL    HW114043   1.911   5.220   2.225
 1278SOL    HW214044   1.794   5.151   2.316
 1279SOL     OW14045   3.978   8.563   1.323
 1279SOL    HW114046   3.949   8.646   1.370
 1279SOL    HW214047   3.905   8.494   1.330
 1280SOL     OW14048   4.395   2.306   1.251
 1280SOL    HW114049   4.405   2.206   1.258
 1280SOL    HW214050   4.477   2.350   1.288
 1281SOL     OW14051   1.279   9.849   2.440
 1281SOL    HW114052   1.205   9.820   2.500
 1281SOL    HW214053   1.363   9.803   2.467
 1282SOL     OW14054   3.301   3.153   2.579
 1282SOL    HW114055   3.219   3.208   2.560
 1282SOL    HW214056   3.381   3.212   2.583
 1283SOL     OW14057   3.715   7.977   0.526
 1283SOL    HW114058   3.796   7.952   0.581
 1283SOL    HW214059   3.736   8.057   0.470
 1284SOL     OW14060   1.556   2.448   0.000
 1284SOL    HW114061   1.584   2.356   0.028
 1284SOL    HW214062   1.537   2.448   3.339
 1285SOL     OW14063   2.771   3.622   0.131
 1285SOL    HW114064   2.850   3.656   0.080
 1285SOL    HW214065   2.702   3.695   0.137
 1286SOL     OW14066   1.085   7.656   0.805
 1286SOL    HW114067   1.085   7.556   0.811
 1286SOL    HW214068   0.996   7.691   0.833
 1287SOL     OW14069   2.407   8.711   1.742
 1287SOL    HW114070   2.308   8.713   1.752
 1287SOL    HW214071   2.444   8.638   1.800
 1288SOL     OW14072   5.582   8.723   2.093
 1288SOL    HW114073   5.520   8.746   2.017
 1288SOL    HW214074   5.640   8.646   2.065
 1289SOL     OW14075   0.264   2.579   1.543
 1289SOL    HW114076   0.216   2.503   1.587
 1289SOL    HW214077   0.197   2.643   1.505
 1290SOL     OW14078   3.912   2.178   1.665
 1290SOL    HW114079   3.996   2.228   1.646
 1290SOL    HW214080   3.874   2.208   1.753
 1291SOL     OW14081   8.724   3.120   1.690
 1291SOL    HW114082   8.790   3.106   1.763
 1291SOL    HW214083   8.706   3.033   1.644
 1292SOL     OW14084   0.051   3.124   2.074
 1292SOL    HW114085   0.044   3.148   2.171
 1292SOL    HW214086   0.089   3.202   2.023
 1293SOL     OW14087   8.992   7.889   1.619
 1293SOL    HW114088   8.998   7.882   1.519
 1293SOL    HW214089   9.068   7.943   1.654
 1294SOL     OW14090   1.351   6.235   0.166
 1294SOL    HW114091   1.269   6.245   0.110
 1294SOL    HW214092   1.386   6.142   0.158
 1295SOL     OW14093   3.234   5.592   0.668
 1295SOL    HW114094   3.289   5.514   0.637
 1295SOL    HW214095   3.172   5.562   0.741
 1296SOL     OW14096   2.220   5.897   0.794
 1296SOL    HW114097   2.209   5.888   0.695
 1296SOL    HW214098   2.317   5.887   0.817
 1297SOL     OW14099   1.109   8.481   1.962
 1297SOL    HW114100   1.052   8.399   1.960
 1297SOL    HW214101   1.135   8.506   1.868
 1298SOL     OW14102   2.604   9.384   2.126
 1298SOL    HW114103   2.530   9.386   2.194
 1298SOL    HW214104   2.572   9.336   2.044
 1299SOL     OW14105   8.273   9.522   1.987
 1299SOL    HW114106   8.201   9.532   1.918
 1299SOL    HW214107   8.242   9.460   2.059
 1300SOL     OW14108   9.280   3.771   0.118
 1300SOL    HW114109   9.380   3.775   0.115
 1300SOL    HW214110   9.243   3.806   0.033
 1301SOL     OW14111   1.597   2.578   1.369
 1301SOL    HW114112   1.563   2.668   1.395
 1301SOL    HW214113   1.685   2.561   1.414
 1302SOL     OW14114   1.974   7.620   1.929
 1302SOL    HW114115   2.043   7.668   1.983
 1302SOL    HW214116   1.924   7.687   1.873
 1303SOL     OW14117   0.643   7.257   2.517
 1303SOL    HW114118   0.657   7.190   2.591
 1303SOL    HW214119   0.575   7.222   2.453
 1304SOL     OW14120   4.275   1.774   2.312
 1304SOL    HW114121   4.232   1.852   2.267
 1304SOL    HW214122   4.342   1.733   2.250
 1305SOL     OW14123   9.786   1.044   2.063
 1305SOL    HW114124   9.810   0.955   2.024
 1305SOL    HW214125   9.856   1.111   2.039
 1306SOL     OW14126   0.651   4.546   2.572
 1306SOL    HW114127   0.662   4.448   2.590
 1306SOL    HW214128   0.567   4.579   2.615
 1307SOL     OW14129   8.115   2.913   1.096
 1307SOL    HW114130   8.209   2.909   1.130
 1307SOL    HW214131   8.058   2.851   1.151
 1308SOL     OW14132   9.101   7.636   1.663
 1308SOL    HW114133   9.175   7.671   1.719
 1308SOL    HW214134   9.045   7.712   1.630
 1309SOL     OW14135   3.469   8.014   1.987
 1309SOL    HW114136   3.414   7.934   2.013
 1309SOL    HW214137   3.561   7.984   1.962
 1310SOL     OW14138   0.055   8.261   2.380
 1310SOL    HW114139   0.098   8.348   2.356
 1310SOL    HW214140   0.045   8.204   2.299
 1311SOL     OW14141   8.468   1.444   0.242
 1311SOL    HW114142   8.483   1.539   0.212
 1311SOL    HW214143   8.372   1.433   0.269
 1312SOL     OW14144   9.128   8.687   2.080
 1312SOL    HW114145   9.157   8.639   1.997
 1312SOL    HW214146   9.202   8.684   2.147
 1313SOL     OW14147   4.680   3.049   2.219
 1313SOL    HW114148   4.772   3.012   2.224
 1313SOL    HW214149   4.625   3.013   2.295
 1314SOL     OW14150   0.947   4.345   0.586
 1314SOL    HW114151   1.045   4.336   0.568
 1314SOL    HW214152   0.898   4.358   0.500
 1315SOL     OW14153   9.180   6.290   1.109
 1315SOL    HW114154   9.195   6.251   1.199
 1315SOL    HW214155   9.217   6.229   1.039
 1316SOL     OW14156   4.576   8.273   0.081
 1316SOL    HW114157   4.576   8.212   0.002
 1316SOL    HW214158   4.530   8.229   0.158
 1317SOL     OW14159   0.544   4.868   0.337
 1317SOL    HW114160   0.582   4.786   0.296
 1317SOL    HW214161   0.618   4.927   0.371
 1318SOL     OW14162   2.492   0.596   0.707
 1318SOL    HW114163   2.463   0.568   0.799
 1318SOL    HW214164   2.476   0.695   0.696
 1319SOL     OW14165   1.265   0.974   2.436
 1319SOL    HW114166   1.214   0.905   2.486
 1319SOL    HW214167   1.247   1.064   2.475
 1320SOL     OW14168   0.233   8.873   1.332
 1320SOL    HW114169   0.327   8.850   1.359
 1320SOL    HW214170   0.195   8.798   1.278
 1321SOL     OW14171   9.877   7.386   2.305
 1321SOL    HW114172   9.848   7.469   2.353
 1321SOL    HW214173   9.932   7.412   2.225
 1322SOL     OW14174   2.507   9.363   0.554
 1322SOL    HW114175   2.507   9.456   0.518
 1322SOL    HW214176   2.495   9.365   0.653
 1323SOL     OW14177   0.344   8.282   1.000
 1323SOL    HW114178   0.411   8.347   1.036
 1323SOL    HW214179   0.323   8.214   1.070
 1324SOL     OW14180   9.018   0.458   2.204
 1324SOL    HW114181   9.112   0.494   2.198
 1324SOL    HW214182   9.021   0.361   2.228
 1325SOL     OW14183   1.741   8.198   1.054
 1325SOL    HW114184   1.717   8.170   1.147
 1325SOL    HW214185   1.819   8.261   1.057
 1326SOL     OW14186   2.576   4.960   2.491
 1326SOL    HW114187   2.599   4.903   2.571
 1326SOL    HW214188   2.660   4.986   2.444
 1327SOL     OW14189   9.875   4.736   0.586
 1327SOL    HW114190   9.935   4.791   0.529
 1327SOL    HW214191   9.793   4.711   0.533
 1328SOL     OW14192   0.845   4.377   0.334
 1328SOL    HW114193   0.920   4.401   0.271
 1328SOL    HW214194   0.798   4.296   0.300
 1329SOL     OW14195   8.192   0.816   1.330
 1329SOL    HW114196   8.209   0.875   1.251
 1329SOL    HW214197   8.165   0.872   1.408
 1330SOL     OW14198   0.534   5.972   1.617
 1330SOL    HW114199   0.559   6.002   1.709
 1330SOL    HW214200   0.607   5.917   1.578
 1331SOL     OW14201   7.792   9.236   1.405
 1331SOL    HW114202   7.707   9.189   1.430
 1331SOL    HW214203   7.772   9.332   1.386
 1332SOL     OW14204   2.446   3.589   1.812
 1332SOL    HW114205   2.487   3.670   1.770
 1332SOL    HW214206   2.491   3.570   1.900
 1333SOL     OW14207   4.016   4.831   1.683
 1333SOL    HW114208   4.101   4.871   1.718
 1333SOL    HW214209   3.953   4.905   1.658
 1334SOL     OW14210   2.519   7.566   0.098
 1334SOL    HW114211   2.435   7.586   0.150
 1334SOL    HW214212   2.496   7.556   0.001
 1335SOL     OW14213   8.693   2.365   1.384
 1335SOL    HW114214   8.613   2.422   1.368
 1335SOL    HW214215   8.751   2.407   1.455
 1336SOL     OW14216   9.850   6.157   1.275
 1336SOL    HW114217   9.793   6.100   1.216
 1336SOL    HW214218   9.815   6.250   1.277
 1337SOL     OW14219   9.930   3.656   0.891
 1337SOL    HW114220   9.861   3.724   0.865
 1337SOL    HW214221   9.886   3.582   0.941
 1338SOL     OW14222   9.543   8.840   0.128
 1338SOL    HW114223   9.557   8.938   0.114
 1338SOL    HW214224   9.526   8.823   0.225
 1339SOL     OW14225   0.692   8.347   1.960
 1339SOL    HW114226   0.642   8.345   2.046
 1339SOL    HW214227   0.690   8.440   1.922
 1340SOL     OW14228   8.761   2.952   0.997
 1340SOL    HW114229   8.847   2.945   1.048
 1340SOL    HW214230   8.733   3.048   0.994
 1341SOL     OW14231   1.368   4.530   2.173
 1341SOL    HW114232   1.435   4.578   2.116
 1341SOL    HW214233   1.412   4.495   2.255
 1342SOL     OW14234   1.677   7.832   2.163
 1342SOL    HW114235   1.650   7.740   2.135
 1342SOL    HW214236   1.760   7.859   2.114
 1343SOL     OW14237   8.795   1.721   0.310
 1343SOL    HW114238   8.760   1.654   0.375
 1343SOL    HW214239   8.718   1.773   0.272
 1344SOL     OW14240   6.538   9.303   1.827
 1344SOL    HW114241   6.588   9.382   1.863
 1344SOL    HW214242   6.511   9.244   1.903
 1345SOL     OW14243   2.767   7.517   1.503
 1345SOL    HW114244   2.833   7.544   1.433
 1345SOL    HW214245   2.806   7.534   1.593
 1346SOL     OW14246   0.149   6.810   1.006
 1346SOL    HW114247   0.073   6.805   1.072
 1346SOL    HW214248   0.235   6.820   1.055
 1347SOL     OW14249   2.905   4.553   1.972
 1347SOL    HW114250   2.909   4.653   1.982
 1347SOL    HW214251   2.921   4.529   1.876
 1348SOL     OW14252   7.720   0.789   0.466
 1348SOL    HW114253   7.721   0.690   0.476
 1348SOL    HW214254   7.807   0.827   0.495
 1349SOL     OW14255   0.631   6.766   2.153
 1349SOL    HW114256   0.672   6.853   2.126
 1349SOL    HW214257   0.699   6.693   2.148
 1350SOL     OW14258   1.432   5.326   1.177
 1350SOL    HW114259   1.439   5.304   1.275
 1350SOL    HW214260   1.352   5.281   1.139
 1351SOL     OW14261   1.772   6.353   1.350
 1351SOL    HW114262   1.817   6.370   1.263
 1351SOL    HW214263   1.801   6.422   1.417
 1352SOL     OW14264   1.846   8.312   0.688
 1352SOL    HW114265   1.862   8.287   0.592
 1352SOL    HW214266   1.788   8.243   0.731
 1353SOL     OW14267   0.870   2.475   1.016
 1353SOL    HW114268   0.963   2.511   1.027
 1353SOL    HW214269   0.844   2.424   1.098
 1354SOL     OW14270   0.273   2.140   0.473
 1354SOL    HW114271   0.237   2.151   0.566
 1354SOL    HW214272   0.242   2.216   0.416
 1355SOL     OW14273   8.851   5.017   2.415
 1355SOL    HW114274   8.859   4.954   2.492
 1355SOL    HW214275   8.901   5.102   2.435
 1356SOL     OW14276   1.633   6.195   0.496
 1356SOL    HW114277   1.541   6.224   0.471
 1356SOL    HW214278   1.697   6.220   0.423
 1357SOL     OW14279   2.677   4.601   0.930
 1357SOL    HW114280   2.578   4.599   0.914
 1357SOL    HW214281   2.713   4.508   0.930
 1358SOL     OW14282   3.610   0.811   0.059
 1358SOL    HW114283   3.512   0.830   0.052
 1358SOL    HW214284   3.635   0.740   3.430
 1359SOL     OW14285   1.352   2.564   0.156
 1359SOL    HW114286   1.267   2.544   0.108
 1359SOL    HW214287   1.429   2.530   0.101
 1360SOL     OW14288   2.357   9.525   1.827
 1360SOL    HW114289   2.307   9.608   1.851
 1360SOL    HW214290   2.310   9.445   1.864
 1361SOL     OW14291   0.093   4.773   1.138
 1361SOL    HW114292   0.098   4.693   1.198
 1361SOL    HW214293   0.172   4.832   1.154
 1362SOL     OW14294   8.599   1.025   1.463
 1362SOL    HW114295   8.662   0.949   1.445
 1362SOL    HW214296   8.558   1.056   1.377
 1363SOL     OW14297   8.158   9.637   0.967
 1363SOL    HW114298   8.160   9.609   1.063
 1363SOL    HW214299   8.076   9.599   0.924
 1364SOL     OW14300   8.636   3.882   0.050
 1364SOL    HW114301   8.601   3.899   0.142
 1364SOL    HW214302   8.659   3.970   0.006
 1365SOL     OW14303   0.127   2.316   1.102
 1365SOL    HW114304   0.080   2.401   1.079
 1365SOL    HW214305   0.062   2.240   1.096
 1366SOL     OW14306   4.034   3.956   0.995
 1366SOL    HW114307   3.977   3.973   0.915
 1366SOL    HW214308   4.113   3.902   0.969
 1367SOL     OW14309   8.924   3.144   2.155
 1367SOL    HW114310   8.867   3.225   2.171
 1367SOL    HW214311   8.927   3.124   2.057
 1368SOL     OW14312   2.023   0.536   1.823
 1368SOL    HW114313   2.028   0.507   1.728
 1368SOL    HW214314   1.980   0.464   1.878
 1369SOL     OW14315   2.293   7.601   0.245
 1369SOL    HW114316   2.208   7.549   0.236
 1369SOL    HW214317   2.272   7.697   0.259
 1370SOL     OW14318   9.909   6.805   0.102
 1370SOL    HW114319   9.974   6.745   0.148
 1370SOL    HW214320   9.873   6.759   0.021
 1371SOL     OW14321   1.520   0.282   0.714
 1371SOL    HW114322   1.620   0.275   0.715
 1371SOL    HW214323   1.493   0.370   0.752
 1372SOL     OW14324   8.558   8.643   1.235
 1372SOL    HW114325   8.565   8.556   1.284
 1372SOL    HW214326   8.471   8.648   1.186
 1373SOL     OW14327   8.517   0.544   0.678
 1373SOL    HW114328   8.564   0.479   0.738
 1373SOL    HW214329   8.454   0.600   0.732
 1374SOL     OW14330   4.034   4.585   1.539
 1374SOL    HW114331   4.035   4.669   1.592
 1374SOL    HW214332   4.047   4.507   1.601
 1375SOL     OW14333   9.774   2.317   1.214
 1375SOL    HW114334   9.749   2.222   1.195
 1375SOL    HW214335   9.859   2.320   1.267
 1376SOL     OW14336   1.122   4.204   2.634
 1376SOL    HW114337   1.167   4.260   2.563
 1376SOL    HW214338   1.051   4.148   2.592
 1377SOL     OW14339   3.415   4.293   2.427
 1377SOL    HW114340   3.507   4.312   2.392
 1377SOL    HW214341   3.396   4.353   2.504
 1378SOL     OW14342   2.066   0.416   1.576
 1378SOL    HW114343   2.015   0.371   1.503
 1378SOL    HW214344   2.112   0.347   1.631
 1379SOL     OW14345   3.989   1.726   0.804
 1379SOL    HW114346   3.924   1.705   0.730
 1379SOL    HW214347   4.045   1.804   0.777
 1380SOL     OW14348   9.317   0.792   1.890
 1380SOL    HW114349   9.221   0.791   1.917
 1380SOL    HW214350   9.372   0.828   1.966
 1381SOL     OW14351   8.701   8.045   1.487
 1381SOL    HW114352   8.728   8.011   1.577
 1381SOL    HW214353   8.694   7.969   1.423
 1382SOL     OW14354   0.978   3.312   2.559
 1382SOL    HW114355   0.975   3.412   2.562
 1382SOL    HW214356   0.886   3.276   2.574
 1383SOL     OW14357   0.835   7.754   0.867
 1383SOL    HW114358   0.841   7.822   0.940
 1383SOL    HW214359   0.828   7.800   0.778
 1384SOL     OW14360   9.118   4.258   1.421
 1384SOL    HW114361   9.114   4.172   1.472
 1384SOL    HW214362   9.076   4.245   1.332
 1385SOL     OW14363   4.272   7.908   2.287
 1385SOL    HW114364   4.177   7.888   2.266
 1385SOL    HW214365   4.327   7.900   2.204
 1386SOL     OW14366   9.265   0.563   2.197
 1386SOL    HW114367   9.278   0.658   2.226
 1386SOL    HW214368   9.352   0.525   2.165
 1387SOL     OW14369   1.538   0.993   2.468
 1387SOL    HW114370   1.441   0.974   2.454
 1387SOL    HW214371   1.588   0.907   2.477
 1388SOL     OW14372   3.849   4.435   0.908
 1388SOL    HW114373   3.906   4.361   0.942
 1388SOL    HW214374   3.888   4.473   0.825
 1389SOL     OW14375   3.008   4.358   2.395
 1389SOL    HW114376   3.071   4.296   2.348
 1389SOL    HW214377   2.928   4.307   2.427
 1390SOL     OW14378   3.226   7.114   1.171
 1390SOL    HW114379   3.321   7.127   1.141
 1390SOL    HW214380   3.222   7.039   1.237
 1391SOL     OW14381   9.815   9.637   1.362
 1391SOL    HW114382   9.734   9.690   1.336
 1391SOL    HW214383   9.854   9.675   1.446
 1392SOL     OW14384   8.257   3.493   0.572
 1392SOL    HW114385   8.343   3.443   0.565
 1392SOL    HW214386   8.275   3.591   0.566
 1393SOL     OW14387   0.649   4.994   1.964
 1393SOL    HW114388   0.731   4.936   1.972
 1393SOL    HW214389   0.676   5.088   1.943
 1394SOL     OW14390   3.189   4.875   0.304
 1394SOL    HW114391   3.137   4.801   0.263
 1394SOL    HW214392   3.188   4.955   0.243
 1395SOL     OW14393  10.000   0.617   2.163
 1395SOL    HW114394   0.041   0.663   2.084
 1395SOL    HW214395   9.999   0.518   2.147
 1396SOL     OW14396   2.621   1.490   2.605
 1396SOL    HW114397   2.529   1.501   2.567
 1396SOL    HW214398   2.660   1.580   2.624
 1397SOL     OW14399   0.670   0.734   1.991
 1397SOL    HW114400   0.689   0.814   1.936
 1397SOL    HW214401   0.749   0.713   2.049
 1398SOL     OW14402   3.096   0.924   2.228
 1398SOL    HW114403   3.089   0.846   2.165
 1398SOL    HW214404   3.191   0.934   2.259
 1399SOL     OW14405   8.059   1.119   2.488
 1399SOL    HW114406   8.098   1.181   2.556
 1399SOL    HW214407   8.131   1.058   2.454
 1400SOL     OW14408   1.417   9.027   1.503
 1400SOL    HW114409   1.465   8.972   1.571
 1400SOL    HW214410   1.468   9.111   1.484
 1401SOL     OW14411   4.475   0.780   2.226
 1401SOL    HW114412   4.435   0.694   2.257
 1401SOL    HW214413   4.430   0.857   2.272
 1402SOL     OW14414   9.946   1.109   1.435
 1402SOL    HW114415   0.015   1.095   1.506
 1402SOL    HW214416   9.865   1.153   1.475
 1403SOL     OW14417   2.178   5.826   1.394
 1403SOL    HW114418   2.112   5.845   1.467
 1403SOL    HW214419   2.197   5.728   1.390
 1404SOL     OW14420   7.262   0.041   1.228
 1404SOL    HW114421   7.200   0.020   1.152
 1404SOL    HW214422   7.302   0.132   1.214
 1405SOL     OW14423   0.897   1.615   0.508
 1405SOL    HW114424   0.972   1.553   0.486
 1405SOL    HW214425   0.842   1.575   0.581
 1406SOL     OW14426   9.536   4.932   1.458
 1406SOL    HW114427   9.508   4.928   1.554
 1406SOL    HW214428   9.600   5.008   1.446
 1407SOL     OW14429   8.772   0.430   1.160
 1407SOL    HW114430   8.674   0.432   1.142
 1407SOL    HW214431   8.796   0.341   1.200
 1408SOL     OW14432   0.328   3.379   2.504
 1408SOL    HW114433   0.249   3.436   2.528
 1408SOL    HW214434   0.370   3.414   2.421
 1409SOL     OW14435   1.496   6.741   1.043
 1409SOL    HW114436   1.424   6.803   1.073
 1409SOL    HW214437   1.468   6.646   1.060
 1410SOL     OW14438   1.977   6.976   1.685
 1410SOL    HW114439   1.920   7.032   1.745
 1410SOL    HW214440   2.016   6.900   1.738
 1411SOL     OW14441   1.391   9.838   0.729
 1411SOL    HW114442   1.459   9.769   0.755
 1411SOL    HW214443   1.435   9.912   0.678
 1412SOL     OW14444   0.116   2.132   2.187
 1412SOL    HW114445   0.066   2.137   2.100
 1412SOL    HW214446   0.192   2.068   2.177
 1413SOL     OW14447   0.593   0.727   0.702
 1413SOL    HW114448   0.553   0.770   0.622
 1413SOL    HW214449   0.688   0.702   0.683
 1414SOL     OW14450   1.810   9.465   1.967
 1414SOL    HW114451   1.829   9.544   2.026
 1414SOL    HW214452   1.722   9.426   1.992
 1415SOL     OW14453   7.334   9.326   0.162
 1415SOL    HW114454   7.348   9.381   0.244
 1415SOL    HW214455   7.401   9.251   0.160
 1416SOL     OW14456   4.534   2.992   1.991
 1416SOL    HW114457   4.592   3.006   2.072
 1416SOL    HW214458   4.535   3.075   1.935
 1417SOL     OW14459   0.856   9.265   0.470
 1417SOL    HW114460   0.757   9.278   0.466
 1417SOL    HW214461   0.880   9.180   0.422
 1418SOL     OW14462   2.131   3.375   2.400
 1418SOL    HW114463   2.219   3.411   2.370
 1418SOL    HW214464   2.062   3.391   2.328
 1419SOL     OW14465   6.293   0.226   2.402
 1419SOL    HW114466   6.386   0.200   2.426
 1419SOL    HW214467   6.249   0.269   2.481
 1420SOL     OW14468   2.903   6.138   0.336
 1420SOL    HW114469   2.988   6.148   0.386
 1420SOL    HW214470   2.906   6.195   0.253
 1421SOL     OW14471   3.420   4.966   0.061
 1421SOL    HW114472   3.343   5.026   0.083
 1421SOL    HW214473   3.387   4.873   0.051
 1422SOL     OW14474   3.516   7.481   1.906
 1422SOL    HW114475   3.480   7.507   1.817
 1422SOL    HW214476   3.503   7.384   1.921
 1423SOL     OW14477   4.007   9.097   2.217
 1423SOL    HW114478   3.956   9.174   2.257
 1423SOL    HW214479   4.103   9.103   2.245
 1424SOL     OW14480   7.954   9.344   0.466
 1424SOL    HW114481   7.945   9.247   0.490
 1424SOL    HW214482   8.021   9.355   0.393
 1425SOL     OW14483   1.880   2.514   1.509
 1425SOL    HW114484   1.897   2.459   1.591
 1425SOL    HW214485   1.952   2.495   1.441
 1426SOL     OW14486   1.564   5.794   0.770
 1426SOL    HW114487   1.526   5.855   0.700
 1426SOL    HW214488   1.663   5.786   0.757
 1427SOL     OW14489   9.972   6.133   2.318
 1427SOL    HW114490   0.053   6.074   2.314
 1427SOL    HW214491   9.995   6.223   2.281
 1428SOL     OW14492   0.564   2.839   0.820
 1428SOL    HW114493   0.608   2.783   0.890
 1428SOL    HW214494   0.509   2.781   0.760
 1429SOL     OW14495   9.036   7.951   2.202
 1429SOL    HW114496   9.072   7.894   2.129
 1429SOL    HW214497   9.094   8.032   2.213
 1430SOL     OW14498   3.758   7.772   2.222
 1430SOL    HW114499   3.690   7.703   2.197
 1430SOL    HW214500   3.815   7.737   2.297
 1431SOL     OW14501   1.451   4.240   1.822
 1431SOL    HW114502   1.389   4.295   1.878
 1431SOL    HW214503   1.398   4.175   1.767
 1432SOL     OW14504   4.653   0.431   1.146
 1432SOL    HW114505   4.726   0.486   1.104
 1432SOL    HW214506   4.623   0.475   1.231
 1433SOL     OW14507   2.388   8.519   0.704
 1433SOL    HW114508   2.363   8.495   0.610
 1433SOL    HW214509   2.433   8.609   0.705
 1434SOL     OW14510   0.859   6.613   0.495
 1434SOL    HW114511   0.885   6.710   0.504
 1434SOL    HW214512   0.928   6.556   0.540
 1435SOL     OW14513   0.367   5.489   1.060
 1435SOL    HW114514   0.462   5.462   1.052
 1435SOL    HW214515   0.358   5.587   1.043
 1436SOL     OW14516   1.477   0.364   2.225
 1436SOL    HW114517   1.434   0.380   2.136
 1436SOL    HW214518   1.406   0.358   2.295
 1437SOL     OW14519   9.872   3.530   1.611
 1437SOL    HW114520   9.897   3.545   1.707
 1437SOL    HW214521   9.848   3.617   1.568
 1438SOL     OW14522   2.192   6.073   0.048
 1438SOL    HW114523   2.195   6.172   0.060
 1438SOL    HW214524   2.284   6.036   0.049
 1439SOL     OW14525   0.564   1.803   1.780
 1439SOL    HW114526   0.628   1.879   1.792
 1439SOL    HW214527   0.574   1.765   1.688
 1440SOL     OW14528   0.821   0.798   1.170
 1440SOL    HW114529   0.747   0.778   1.105
 1440SOL    HW214530   0.816   0.893   1.199
 1441SOL     OW14531   9.402   9.269   1.949
 1441SOL    HW114532   9.358   9.356   1.930
 1441SOL    HW214533   9.334   9.196   1.953
 1442SOL     OW14534   9.664   5.642   2.647
 1442SOL    HW114535   9.694   5.552   2.679
 1442SOL    HW214536   9.610   5.687   2.719
 1443SOL     OW14537   3.117   7.695   2.191
 1443SOL    HW114538   3.128   7.600   2.160
 1443SOL    HW214539   3.091   7.697   2.287
 1444SOL     OW14540   2.043   5.361   0.248
 1444SOL    HW114541   1.982   5.433   0.281
 1444SOL    HW214542   2.037   5.356   0.148
 1445SOL     OW14543   0.340   2.906   1.282
 1445SOL    HW114544   0.333   2.963   1.364
 1445SOL    HW214545   0.434   2.908   1.248
 1446SOL     OW14546   2.590   1.365   0.821
 1446SOL    HW114547   2.550   1.353   0.730
 1446SOL    HW214548   2.558   1.292   0.881
 1447SOL     OW14549   1.641   4.218   2.370
 1447SOL    HW114550   1.671   4.229   2.275
 1447SOL    HW214551   1.557   4.164   2.373
 1448SOL     OW14552   4.229   1.916   1.749
 1448SOL    HW114553   4.229   2.006   1.792
 1448SOL    HW214554   4.274   1.921   1.660
 1449SOL     OW14555   9.447   2.162   1.148
 1449SOL    HW114556   9.424   2.255   1.175
 1449SOL    HW214557   9.370   2.121   1.098
 1450SOL     OW14558   4.777   3.521   2.185
 1450SOL    HW114559   4.730   3.436   2.160
 1450SOL    HW214560   4.838   3.549   2.111
 1451SOL     OW14561   0.246   0.008   2.144
 1451SOL    HW114562   0.325   9.949   2.160
 1451SOL    HW214563   0.168   9.972   2.195
 1452SOL     OW14564   9.456   0.577   0.334
 1452SOL    HW114565   9.460   0.613   0.241
 1452SOL    HW214566   9.540   0.601   0.383
 1453SOL     OW14567   3.646   3.802   0.034
 1453SOL    HW114568   3.614   3.830   3.380
 1453SOL    HW214569   3.594   3.850   0.105
 1454SOL     OW14570   4.328   4.386   0.577
 1454SOL    HW114571   4.286   4.452   0.514
 1454SOL    HW214572   4.258   4.349   0.637
 1455SOL     OW14573   9.732   3.833   0.841
 1455SOL    HW114574   9.761   3.923   0.809
 1455SOL    HW214575   9.658   3.799   0.783
 1456SOL     OW14576   9.128   3.542   2.119
 1456SOL    HW114577   9.065   3.548   2.196
 1456SOL    HW214578   9.182   3.626   2.113
 1457SOL     OW14579   0.627   0.016   1.187
 1457SOL    HW114580   0.668   0.097   1.145
 1457SOL    HW214581   0.650   0.015   1.285
 1458SOL     OW14582   0.813   7.841   0.600
 1458SOL    HW114583   0.834   7.931   0.562
 1458SOL    HW214584   0.829   7.771   0.531
 1459SOL     OW14585   2.915   8.093   2.411
 1459SOL    HW114586   2.942   8.061   2.320
 1459SOL    HW214587   2.988   8.075   2.477
 1460SOL     OW14588   9.631   8.600   1.454
 1460SOL    HW114589   9.647   8.647   1.367
 1460SOL    HW214590   9.711   8.545   1.478
 1461SOL     OW14591   1.602   2.939   1.611
 1461SOL    HW114592   1.520   2.928   1.667
 1461SOL    HW214593   1.659   2.856   1.618
 1462SOL     OW14594   2.754   3.288   1.533
 1462SOL    HW114595   2.674   3.305   1.590
 1462SOL    HW214596   2.770   3.366   1.473
 1463SOL     OW14597   3.156   7.625   1.639
 1463SOL    HW114598   3.162   7.710   1.588
 1463SOL    HW214599   3.061   7.610   1.669
 1464SOL     OW14600   1.838   7.125   0.839
 1464SOL    HW114601   1.888   7.116   0.753
 1464SOL    HW214602   1.864   7.050   0.900
 1465SOL     OW14603   8.045   0.400   2.603
 1465SOL    HW114604   8.093   0.320   2.566
 1465SOL    HW214605   7.951   0.374   2.627
 1466SOL     OW14606   1.053   8.697   2.563
 1466SOL    HW114607   1.101   8.770   2.611
 1466SOL    HW214608   1.023   8.628   2.629
 1467SOL     OW14609   0.597   5.135   1.251
 1467SOL    HW114610   0.508   5.181   1.257
 1467SOL    HW214611   0.590   5.044   1.292
 1468SOL     OW14612   0.160   5.900   1.445
 1468SOL    HW114613   0.196   5.920   1.536
 1468SOL    HW214614   0.236   5.886   1.381
 1469SOL     OW14615   4.405   8.495   0.071
 1469SOL    HW114616   4.476   8.425   0.074
 1469SOL    HW214617   4.395   8.537   0.162
 1470SOL     OW14618   4.220   2.431   1.091
 1470SOL    HW114619   4.146   2.370   1.064
 1470SOL    HW214620   4.283   2.384   1.153
 1471SOL     OW14621   3.013   7.030   0.624
 1471SOL    HW114622   3.027   7.124   0.656
 1471SOL    HW214623   2.929   7.025   0.571
 1472SOL     OW14624   2.679   3.212   1.925
 1472SOL    HW114625   2.612   3.285   1.933
 1472SOL    HW214626   2.635   3.124   1.938
 1473SOL     OW14627   9.453   8.889   1.928
 1473SOL    HW114628   9.461   8.796   1.965
 1473SOL    HW214629   9.521   8.948   1.971
 1474SOL     OW14630   9.367   2.357   0.591
 1474SOL    HW114631   9.270   2.355   0.568
 1474SOL    HW214632   9.379   2.390   0.684
 1475SOL     OW14633   0.181   8.724   0.693
 1475SOL    HW114634   0.118   8.801   0.682
 1475SOL    HW214635   0.275   8.756   0.678
 1476SOL     OW14636   4.206   2.648   2.148
 1476SOL    HW114637   4.162   2.632   2.059
 1476SOL    HW214638   4.144   2.700   2.207
 1477SOL     OW14639   8.426   5.452   2.070
 1477SOL    HW114640   8.400   5.461   2.166
 1477SOL    HW214641   8.345   5.427   2.016
 1478SOL     OW14642   2.883   1.801   1.342
 1478SOL    HW114643   2.906   1.844   1.255
 1478SOL    HW214644   2.899   1.867   1.416
 1479SOL     OW14645   7.852   2.335   0.557
 1479SOL    HW114646   7.850   2.434   0.569
 1479SOL    HW214647   7.946   2.304   0.554
 1480SOL     OW14648   1.402   5.592   1.115
 1480SOL    HW114649   1.450   5.647   1.184
 1480SOL    HW214650   1.410   5.495   1.138
 1481SOL     OW14651   3.014   9.259   0.300
 1481SOL    HW114652   3.098   9.297   0.338
 1481SOL    HW214653   3.007   9.162   0.325
 1482SOL     OW14654   3.408   0.464   1.399
 1482SOL    HW114655   3.504   0.467   1.427
 1482SOL    HW214656   3.383   0.369   1.381
 1483SOL     OW14657   3.291   8.809   1.606
 1483SOL    HW114658   3.275   8.819   1.704
 1483SOL    HW214659   3.203   8.802   1.559
 1484SOL     OW14660   0.696   3.313   0.359
 1484SOL    HW114661   0.707   3.214   0.365
 1484SOL    HW214662   0.707   3.354   0.450
 1485SOL     OW14663   3.395   0.422   0.602
 1485SOL    HW114664   3.296   0.409   0.612
 1485SOL    HW214665   3.439   0.406   0.690
 1486SOL     OW14666   9.158   2.262   2.082
 1486SOL    HW114667   9.157   2.328   2.157
 1486SOL    HW214668   9.215   2.298   2.008
 1487SOL     OW14669   9.021   6.204   1.814
 1487SOL    HW114670   8.926   6.205   1.784
 1487SOL    HW214671   9.064   6.118   1.784
 1488SOL     OW14672   8.892   1.497   1.096
 1488SOL    HW114673   8.878   1.464   1.189
 1488SOL    HW214674   8.919   1.421   1.037
 1489SOL     OW14675   3.706   7.060   2.541
 1489SOL    HW114676   3.621   7.054   2.595
 1489SOL    HW214677   3.770   6.991   2.574
 1490SOL     OW14678   2.136   8.017   0.468
 1490SOL    HW114679   2.054   8.006   0.525
 1490SOL    HW214680   2.188   8.096   0.501
 1491SOL     OW14681   3.072   3.918   0.382
 1491SOL    HW114682   2.992   3.933   0.440
 1491SOL    HW214683   3.047   3.931   0.286
 1492SOL     OW14684   9.181   0.725   1.521
 1492SOL    HW114685   9.139   0.704   1.433
 1492SOL    HW214686   9.177   0.645   1.580
 1493SOL     OW14687   7.430   9.197   1.213
 1493SOL    HW114688   7.472   9.178   1.302
 1493SOL    HW214689   7.429   9.113   1.159
 1494SOL     OW14690   1.239   3.267   1.749
 1494SOL    HW114691   1.268   3.239   1.658
 1494SOL    HW214692   1.235   3.186   1.809
 1495SOL     OW14693   1.485   9.756   1.173
 1495SOL    HW114694   1.548   9.700   1.118
 1495SOL    HW214695   1.504   9.853   1.158
 1496SOL     OW14696   1.439   9.475   1.807
 1496SOL    HW114697   1.519   9.415   1.818
 1496SOL    HW214698   1.398   9.459   1.717
 1497SOL     OW14699   2.173   6.931   2.140
 1497SOL    HW114700   2.190   6.886   2.052
 1497SOL    HW214701   2.183   6.865   2.214
 1498SOL     OW14702   3.568   2.742   0.321
 1498SOL    HW114703   3.571   2.773   0.416
 1498SOL    HW214704   3.474   2.720   0.296
 1499SOL     OW14705   0.793   3.501   2.065
 1499SOL    HW114706   0.748   3.418   2.097
 1499SOL    HW214707   0.731   3.553   2.006
 1500SOL     OW14708   2.271   6.128   0.421
 1500SOL    HW114709   2.184   6.167   0.390
 1500SOL    HW214710   2.254   6.037   0.458
 1501SOL     OW14711   0.868   7.080   1.864
 1501SOL    HW114712   0.928   7.001   1.870
 1501SOL    HW214713   0.922   7.161   1.839
 1502SOL     OW14714   4.350   8.362   1.175
 1502SOL    HW114715   4.372   8.339   1.269
 1502SOL    HW214716   4.251   8.366   1.164
 1503SOL     OW14717   9.572   2.301   0.423
 1503SOL    HW114718   9.496   2.328   0.482
 1503SOL    HW214719   9.659   2.322   0.468
 1504SOL     OW14720   7.998   8.548   0.094
 1504SOL    HW114721   8.069   8.584   0.034
 1504SOL    HW214722   8.016   8.576   0.189
 1505SOL     OW14723   8.964   1.315   0.300
 1505SOL    HW114724   8.865   1.300   0.304
 1505SOL    HW214725   8.982   1.408   0.267
 1506SOL     OW14726   4.498   9.766   1.827
 1506SOL    HW114727   4.571   9.734   1.888
 1506SOL    HW214728   4.511   9.863   1.807
 1507SOL     OW14729   9.877   6.965   2.530
 1507SOL    HW114730   9.961   7.001   2.570
 1507SOL    HW214731   9.820   7.041   2.498
 1508SOL     OW14732   3.837   8.747   2.116
 1508SOL    HW114733   3.754   8.792   2.084
 1508SOL    HW214734   3.867   8.789   2.202
 1509SOL     OW14735   7.609   9.372   2.259
 1509SOL    HW114736   7.528   9.346   2.205
 1509SOL    HW214737   7.666   9.433   2.205
 1510SOL     OW14738   3.997   4.536   0.706
 1510SOL    HW114739   4.049   4.451   0.702
 1510SOL    HW214740   4.054   4.612   0.674
 1511SOL     OW14741   8.513   6.528   1.735
 1511SOL    HW114742   8.520   6.519   1.636
 1511SOL    HW214743   8.603   6.514   1.776
 1512SOL     OW14744   1.957   5.101   0.218
 1512SOL    HW114745   2.003   5.036   0.279
 1512SOL    HW214746   1.978   5.194   0.246
 1513SOL     OW14747   1.258   4.071   1.707
 1513SOL    HW114748   1.186   4.139   1.694
 1513SOL    HW214749   1.262   4.010   1.628
 1514SOL     OW14750   8.060   3.165   0.790
 1514SOL    HW114751   8.048   3.161   0.890
 1514SOL    HW214752   8.051   3.260   0.760
 1515SOL     OW14753   3.038   0.275   2.573
 1515SOL    HW114754   2.994   0.185   2.576
 1515SOL    HW214755   3.136   0.263   2.560
 1516SOL     OW14756   0.025   1.710   2.068
 1516SOL    HW114757   0.053   1.781   2.003
 1516SOL    HW214758   9.961   1.749   2.134
 1517SOL     OW14759   1.960   5.793   1.225
 1517SOL    HW114760   2.040   5.828   1.273
 1517SOL    HW214761   1.908   5.732   1.285
 1518SOL     OW14762   9.363   9.801   1.546
 1518SOL    HW114763   9.413   9.887   1.536
 1518SOL    HW214764   9.409   9.743   1.613
 1519SOL     OW14765   4.255   0.634   1.659
 1519SOL    HW114766   4.340   0.663   1.703
 1519SOL    HW214767   4.191   0.710   1.658
 1520SOL     OW14768   1.798   2.542   0.102
 1520SOL    HW114769   1.815   2.640   0.089
 1520SOL    HW214770   1.709   2.519   0.063
 1521SOL     OW14771   9.023   9.752   2.204
 1521SOL    HW114772   9.032   9.816   2.128
 1521SOL    HW214773   9.094   9.682   2.197
 1522SOL     OW14774   9.646   1.592   1.343
 1522SOL    HW114775   9.604   1.655   1.408
 1522SOL    HW214776   9.740   1.620   1.325
 1523SOL     OW14777   6.217   9.097   1.887
 1523SOL    HW114778   6.308   9.111   1.925
 1523SOL    HW214779   6.221   9.028   1.815
 1524SOL     OW14780   2.167   6.288   1.026
 1524SOL    HW114781   2.225   6.260   1.103
 1524SOL    HW214782   2.158   6.388   1.026
 1525SOL     OW14783   2.248   7.538   1.497
 1525SOL    HW114784   2.280   7.597   1.571
 1525SOL    HW214785   2.158   7.501   1.520
 1526SOL     OW14786   2.160   5.506   2.289
 1526SOL    HW114787   2.220   5.469   2.360
 1526SOL    HW214788   2.190   5.472   2.199
 1527SOL     OW14789   2.795   1.753   0.926
 1527SOL    HW114790   2.753   1.831   0.881
 1527SOL    HW214791   2.725   1.689   0.955
 1528SOL     OW14792   5.090   2.868   1.440
 1528SOL    HW114793   5.101   2.773   1.469
 1528SOL    HW214794   5.178   2.916   1.447
 1529SOL     OW14795   0.687   2.629   0.348
 1529SOL    HW114796   0.703   2.552   0.285
 1529SOL    HW214797   0.645   2.704   0.298
 1530SOL     OW14798   1.246   3.623   0.951
 1530SOL    HW114799   1.183   3.546   0.945
 1530SOL    HW214800   1.315   3.616   0.879
 1531SOL     OW14801   8.603   8.846   0.143
 1531SOL    HW114802   8.657   8.770   0.105
 1531SOL    HW214803   8.616   8.850   0.242
 1532SOL     OW14804   1.706   5.911   1.603
 1532SOL    HW114805   1.607   5.898   1.601
 1532SOL    HW214806   1.727   6.008   1.588
 1533SOL     OW14807   4.007   9.516   1.779
 1533SOL    HW114808   4.006   9.579   1.857
 1533SOL    HW214809   4.029   9.567   1.696
 1534SOL     OW14810   4.405   0.174   1.519
 1534SOL    HW114811   4.371   0.268   1.513
 1534SOL    HW214812   4.485   0.164   1.460
 1535SOL     OW14813   2.536   8.122   0.588
 1535SOL    HW114814   2.586   8.189   0.533
 1535SOL    HW214815   2.600   8.073   0.647
 1536SOL     OW14816   0.992   6.177   1.669
 1536SOL    HW114817   1.083   6.218   1.674
 1536SOL    HW214818   0.923   6.246   1.692
 1537SOL     OW14819   4.340   7.593   0.797
 1537SOL    HW114820   4.307   7.592   0.892
 1537SOL    HW214821   4.435   7.626   0.795
 1538SOL     OW14822   9.488   0.651   0.071
 1538SOL    HW114823   9.565   0.588   0.063
 1538SOL    HW214824   9.454   0.674   3.417
 1539SOL     OW14825   1.383   0.728   1.583
 1539SOL    HW114826   1.376   0.629   1.579
 1539SOL    HW214827   1.466   0.754   1.633
 1540SOL     OW14828   1.623   0.580   1.836
 1540SOL    HW114829   1.638   0.521   1.757
 1540SOL    HW214830   1.619   0.675   1.806
 1541SOL     OW14831   9.902   0.741   1.091
 1541SOL    HW114832   9.843   0.770   1.016
 1541SOL    HW214833   9.924   0.820   1.148
 1542SOL     OW14834   2.467   7.350   2.374
 1542SOL    HW114835   2.508   7.272   2.326
 1542SOL    HW214836   2.447   7.422   2.308
 1543SOL     OW14837   2.680   1.027   0.250
 1543SOL    HW114838   2.768   1.034   0.202
 1543SOL    HW214839   2.665   0.932   0.277
 1544SOL     OW14840   3.213   1.750   2.052
 1544SOL    HW114841   3.289   1.699   2.012
 1544SOL    HW214842   3.201   1.836   2.003
 1545SOL     OW14843   3.035   0.477   0.225
 1545SOL    HW114844   3.033   0.561   0.280
 1545SOL    HW214845   3.102   0.414   0.263
 1546SOL     OW14846   8.553   8.009   2.246
 1546SOL    HW114847   8.644   8.040   2.218
 1546SOL    HW214848   8.530   7.926   2.197
 1547SOL     OW14849   0.306   9.216   2.121
 1547SOL    HW114850   0.357   9.139   2.082
 1547SOL    HW214851   0.231   9.182   2.176
 1548SOL     OW14852   1.337   1.363   1.590
 1548SOL    HW114853   1.283   1.320   1.663
 1548SOL    HW214854   1.318   1.317   1.503
 1549SOL     OW14855   4.347   8.833   1.598
 1549SOL    HW114856   4.254   8.860   1.574
 1549SOL    HW214857   4.409   8.857   1.524
 1550SOL     OW14858   2.225   7.484   2.593
 1550SOL    HW114859   2.238   7.387   2.573
 1550SOL    HW214860   2.139   7.496   2.643
 1551SOL     OW14861   3.212   7.114   2.576
 1551SOL    HW114862   3.247   7.022   2.556
 1551SOL    HW214863   3.264   7.182   2.525
 1552SOL     OW14864   8.244   8.590   2.538
 1552SOL    HW114865   8.320   8.604   2.475
 1552SOL    HW214866   8.176   8.663   2.526
 1553SOL     OW14867   0.684   9.969   2.019
 1553SOL    HW114868   0.783   9.965   2.026
 1553SOL    HW214869   0.656   0.063   2.001
 1554SOL     OW14870   1.653   3.410   0.554
 1554SOL    HW114871   1.740   3.417   0.505
 1554SOL    HW214872   1.583   3.463   0.506
 1555SOL     OW14873   8.111   9.865   2.505
 1555SOL    HW114874   8.161   9.869   2.418
 1555SOL    HW214875   8.019   9.829   2.490
 1556SOL     OW14876   4.166   7.884   0.261
 1556SOL    HW114877   4.090   7.819   0.259
 1556SOL    HW214878   4.137   7.968   0.306
 1557SOL     OW14879   2.480   4.184   1.736
 1557SOL    HW114880   2.498   4.161   1.831
 1557SOL    HW214881   2.403   4.131   1.701
 1558SOL     OW14882   4.203   0.376   0.861
 1558SOL    HW114883   4.280   0.382   0.926
 1558SOL    HW214884   4.239   0.353   0.770
 1559SOL     OW14885   8.525   7.945   0.094
 1559SOL    HW114886   8.561   8.025   0.142
 1559SOL    HW214887   8.588   7.919   0.021
 1560SOL     OW14888   7.613   0.866   2.175
 1560SOL    HW114889   7.585   0.960   2.160
 1560SOL    HW214890   7.709   0.855   2.150
 1561SOL     OW14891   3.106   3.055   2.320
 1561SOL    HW114892   3.103   3.119   2.398
 1561SOL    HW214893   3.200   3.044   2.290
 1562SOL     OW14894   8.672   9.902   2.297
 1562SOL    HW114895   8.653   9.856   2.210
 1562SOL    HW214896   8.602   9.876   2.364
 1563SOL     OW14897   9.896   9.342   2.358
 1563SOL    HW114898   9.828   9.355   2.286
 1563SOL    HW214899   9.851   9.306   2.440
 1564SOL     OW14900   9.977   8.131   0.451
 1564SOL    HW114901   9.992   8.036   0.424
 1564SOL    HW214902   9.902   8.169   0.397
 1565SOL     OW14903   8.190   6.256   1.379
 1565SOL    HW114904   8.182   6.173   1.434
 1565SOL    HW214905   8.177   6.337   1.437
 1566SOL     OW14906   3.051   7.082   0.962
 1566SOL    HW114907   3.076   6.996   0.916
 1566SOL    HW214908   3.110   7.095   1.042
 1567SOL     OW14909   2.969   3.348   1.947
 1567SOL    HW114910   2.944   3.288   2.022
 1567SOL    HW214911   2.956   3.300   1.860
 1568SOL     OW14912   9.707   3.675   2.602
 1568SOL    HW114913   9.777   3.703   2.536
 1568SOL    HW214914   9.670   3.757   2.646
 1569SOL     OW14915   8.763   8.327   2.268
 1569SOL    HW114916   8.755   8.391   2.191
 1569SOL    HW214917   8.772   8.234   2.233
 1570SOL     OW14918   4.087   9.619   1.238
 1570SOL    HW114919   4.073   9.550   1.167
 1570SOL    HW214920   4.060   9.709   1.202
 1571SOL     OW14921   9.083   2.541   1.575
 1571SOL    HW114922   9.117   2.601   1.502
 1571SOL    HW214923   9.112   2.447   1.557
 1572SOL     OW14924   9.091   7.423   1.090
 1572SOL    HW114925   9.095   7.520   1.067
 1572SOL    HW214926   9.177   7.379   1.066
 1573SOL     OW14927   4.751   8.487   0.101
 1573SOL    HW114928   4.697   8.403   0.094
 1573SOL    HW214929   4.784   8.513   0.010
 1574SOL     OW14930   3.076   8.510   2.225
 1574SOL    HW114931   3.125   8.463   2.152
 1574SOL    HW214932   3.002   8.452   2.259
 1575SOL     OW14933   8.936   2.157   1.943
 1575SOL    HW114934   9.025   2.185   1.978
 1575SOL    HW214935   8.870   2.154   2.019
 1576SOL     OW14936   1.605   5.384   2.240
 1576SOL    HW114937   1.556   5.399   2.326
 1576SOL    HW214938   1.691   5.338   2.258
 1577SOL     OW14939   0.793   8.647   1.039
 1577SOL    HW114940   0.760   8.565   0.994
 1577SOL    HW214941   0.882   8.628   1.080
 1578SOL     OW14942   3.693   2.733   2.487
 1578SOL    HW114943   3.625   2.799   2.519
 1578SOL    HW214944   3.785   2.768   2.507
 1579SOL     OW14945   9.573   6.426   0.305
 1579SOL    HW114946   9.641   6.416   0.377
 1579SOL    HW214947   9.538   6.520   0.303
 1580SOL     OW14948   3.063   7.494   2.564
 1580SOL    HW114949   3.004   7.431   2.514
 1580SOL    HW214950   3.057   7.585   2.522
 1581SOL     OW14951   8.563   1.371   1.380
 1581SOL    HW114952   8.471   1.389   1.417
 1581SOL    HW214953   8.624   1.345   1.455
 1582SOL     OW14954   0.561   4.726   0.730
 1582SOL    HW114955   0.571   4.627   0.723
 1582SOL    HW214956   0.643   4.771   0.694
 1583SOL     OW14957   1.748   4.968   0.438
 1583SOL    HW114958   1.804   4.908   0.494
 1583SOL    HW214959   1.781   5.063   0.447
 1584SOL     OW14960   0.906   0.550   1.631
 1584SOL    HW114961   0.963   0.621   1.671
 1584SOL    HW214962   0.868   0.582   1.545
 1585SOL     OW14963   3.286   4.938   1.133
 1585SOL    HW114964   3.380   4.929   1.101
 1585SOL    HW214965   3.246   4.847   1.146
 1586SOL     OW14966   3.304   6.877   1.764
 1586SOL    HW114967   3.235   6.932   1.811
 1586SOL    HW214968   3.323   6.916   1.674
 1587SOL     OW14969   0.441   6.669   0.710
 1587SOL    HW114970   0.510   6.613   0.665
 1587SOL    HW214971   0.400   6.732   0.644
 1588SOL     OW14972   4.692   0.470   1.728
 1588SOL    HW114973   4.725   0.419   1.649
 1588SOL    HW214974   4.723   0.565   1.722
 1589SOL     OW14975   2.885   0.037   2.554
 1589SOL    HW114976   2.836   0.048   2.468
 1589SOL    HW214977   2.917   9.943   2.563
 1590SOL     OW14978   3.123   1.986   1.930
 1590SOL    HW114979   3.034   1.949   1.958
 1590SOL    HW214980   3.127   2.083   1.953
 1591SOL     OW14981   0.024   3.513   0.252
 1591SOL    HW114982   9.963   3.460   0.193
 1591SOL    HW214983   9.973   3.548   0.330
 1592SOL     OW14984   8.466   3.044   0.131
 1592SOL    HW114985   8.418   3.131   0.126
 1592SOL    HW214986   8.419   2.983   0.195
 1593SOL     OW14987   3.084   1.624   2.245
 1593SOL    HW114988   3.128   1.536   2.260
 1593SOL    HW214989   3.134   1.675   2.175
 1594SOL     OW14990   1.531   7.312   2.195
 1594SOL    HW114991   1.547   7.283   2.290
 1594SOL    HW214992   1.433   7.310   2.176
 1595SOL     OW14993   7.845   0.348   1.662
 1595SOL    HW114994   7.765   0.384   1.614
 1595SOL    HW214995   7.927   0.366   1.609
 1596SOL     OW14996   9.732   3.759   2.093
 1596SOL    HW114997   9.824   3.750   2.130
 1596SOL    HW214998   9.716   3.854   2.066
 1597SOL     OW14999   1.022   7.727   0.174
 1597SOL    HW115000   0.976   7.815   0.169
 1597SOL    HW215001   1.119   7.740   0.196
 1598SOL     OW15002   3.715   9.939   2.132
 1598SOL    HW115003   3.659   9.955   2.213
 1598SOL    HW215004   3.767   9.854   2.144
 1599SOL     OW15005   1.191   5.800   1.667
 1599SOL    HW115006   1.122   5.830   1.732
 1599SOL    HW215007   1.204   5.701   1.676
 1600SOL     OW15008   1.359   2.643   1.912
 1600SOL    HW115009   1.294   2.584   1.865
 1600SOL    HW215010   1.329   2.657   2.007
 1601SOL     OW15011   1.157   5.157   0.245
 1601SOL    HW115012   1.235   5.117   0.196
 1601SOL    HW215013   1.178   5.253   0.267
 1602SOL     OW15014   3.776   2.565   0.245
 1602SOL    HW115015   3.697   2.625   0.240
 1602SOL    HW215016   3.802   2.552   0.340
 1603SOL     OW15017   0.569   4.456   0.693
 1603SOL    HW115018   0.569   4.365   0.734
 1603SOL    HW215019   0.582   4.448   0.594
 1604SOL     OW15020   2.496   3.332   1.294
 1604SOL    HW115021   2.414   3.303   1.243
 1604SOL    HW215022   2.558   3.254   1.303
 1605SOL     OW15023   1.730   9.089   1.041
 1605SOL    HW115024   1.727   9.062   0.945
 1605SOL    HW215025   1.812   9.144   1.058
 1606SOL     OW15026   8.827   9.334   0.780
 1606SOL    HW115027   8.741   9.347   0.731
 1606SOL    HW215028   8.899   9.306   0.716
 1607SOL     OW15029   8.967   2.601   2.398
 1607SOL    HW115030   8.924   2.635   2.481
 1607SOL    HW215031   8.946   2.662   2.322
 1608SOL     OW15032   9.942   9.571   1.122
 1608SOL    HW115033   0.041   9.585   1.122
 1608SOL    HW215034   9.905   9.595   1.212
 1609SOL     OW15035   9.048   5.553   1.524
 1609SOL    HW115036   8.965   5.569   1.577
 1609SOL    HW215037   9.029   5.570   1.427
 1610SOL     OW15038   4.742   8.861   0.110
 1610SOL    HW115039   4.743   8.955   0.074
 1610SOL    HW215040   4.648   8.826   0.106
 1611SOL     OW15041   9.488   5.595   2.042
 1611SOL    HW115042   9.423   5.531   2.083
 1611SOL    HW215043   9.544   5.636   2.114
 1612SOL     OW15044   3.531   8.490   2.174
 1612SOL    HW115045   3.488   8.402   2.153
 1612SOL    HW215046   3.585   8.482   2.257
 1613SOL     OW15047   1.460   1.391   2.634
 1613SOL    HW115048   1.469   1.419   2.538
 1613SOL    HW215049   1.521   1.314   2.651
 1614SOL     OW15050   8.251   4.141   0.954
 1614SOL    HW115051   8.297   4.105   0.874
 1614SOL    HW215052   8.247   4.070   1.025
 1615SOL     OW15053   3.168   4.144   1.175
 1615SOL    HW115054   3.221   4.223   1.203
 1615SOL    HW215055   3.114   4.167   1.094
 1616SOL     OW15056   4.158   9.478   0.700
 1616SOL    HW115057   4.202   9.473   0.789
 1616SOL    HW215058   4.218   9.438   0.631
 1617SOL     OW15059   5.273   8.493   2.685
 1617SOL    HW115060   5.342   8.422   2.680
 1617SOL    HW215061   5.245   8.507   2.780
 1618SOL     OW15062   4.282   3.982   1.240
 1618SOL    HW115063   4.258   3.885   1.239
 1618SOL    HW215064   4.215   4.032   1.295
 1619SOL     OW15065   3.466   4.015   0.651
 1619SOL    HW115066   3.536   4.063   0.599
 1619SOL    HW215067   3.507   3.937   0.698
 1620SOL     OW15068   4.545   2.466   1.737
 1620SOL    HW115069   4.483   2.475   1.659
 1620SOL    HW215070   4.518   2.386   1.792
 1621SOL     OW15071   9.547   4.628   1.862
 1621SOL    HW115072   9.467   4.597   1.810
 1621SOL    HW215073   9.574   4.719   1.831
 1622SOL     OW15074   4.024   1.564   2.189
 1622SOL    HW115075   3.932   1.530   2.209
 1622SOL    HW215076   4.085   1.542   2.265
 1623SOL     OW15077   2.727   3.490   2.285
 1623SOL    HW115078   2.714   3.391   2.294
 1623SOL    HW215079   2.821   3.509   2.259
 1624SOL     OW15080   1.127   4.511   1.768
 1624SOL    HW115081   1.184   4.467   1.837
 1624SOL    HW215082   1.043   4.545   1.811
 1625SOL     OW15083   1.803   8.499   1.810
 1625SOL    HW115084   1.843   8.590   1.803
 1625SOL    HW215085   1.871   8.435   1.844
 1626SOL     OW15086   2.691   2.239   1.960
 1626SOL    HW115087   2.754   2.228   2.037
 1626SOL    HW215088   2.679   2.336   1.940
 1627SOL     OW15089   2.054   5.204   2.113
 1627SOL    HW115090   2.120   5.278   2.097
 1627SOL    HW215091   2.008   5.181   2.028
 1628SOL     OW15092   4.276   4.291   0.112
 1628SOL    HW115093   4.197   4.235   0.136
 1628SOL    HW215094   4.309   4.266   0.021
 1629SOL     OW15095   0.450   5.729   2.213
 1629SOL    HW115096   0.366   5.691   2.173
 1629SOL    HW215097   0.442   5.828   2.220
 1630SOL     OW15098   0.106   7.230   0.459
 1630SOL    HW115099   0.012   7.210   0.432
 1630SOL    HW215100   0.137   7.313   0.413
 1631SOL     OW15101   8.830   3.927   1.589
 1631SOL    HW115102   8.849   3.833   1.618
 1631SOL    HW215103   8.758   3.926   1.520
 1632SOL     OW15104   3.378   3.080   0.064
 1632SOL    HW115105   3.289   3.040   0.084
 1632SOL    HW215106   3.441   3.060   0.139
 1633SOL     OW15107   1.898   3.832   0.875
 1633SOL    HW115108   1.804   3.839   0.909
 1633SOL    HW215109   1.909   3.746   0.825
 1634SOL     OW15110   9.861   2.924   2.363
 1634SOL    HW115111   9.936   2.989   2.374
 1634SOL    HW215112   9.833   2.922   2.267
 1635SOL     OW15113   8.818   0.861   1.411
 1635SOL    HW115114   8.842   0.852   1.507
 1635SOL    HW215115   8.884   0.922   1.366
 1636SOL     OW15116   0.496   7.038   0.410
 1636SOL    HW115117   0.487   7.128   0.454
 1636SOL    HW215118   0.499   7.050   0.311
 1637SOL     OW15119   3.665   5.564   2.324
 1637SOL    HW115120   3.731   5.548   2.398
 1637SOL    HW215121   3.573   5.567   2.363
 1638SOL     OW15122   8.268   9.259   1.495
 1638SOL    HW115123   8.226   9.350   1.496
 1638SOL    HW215124   8.266   9.221   1.587
 1639SOL     OW15125   2.658   6.853   1.173
 1639SOL    HW115126   2.606   6.845   1.088
 1639SOL    HW215127   2.596   6.870   1.249
 1640SOL     OW15128   1.560   0.249   1.954
 1640SOL    HW115129   1.636   0.220   1.896
 1640SOL    HW215130   1.594   0.269   2.046
 1641SOL     OW15131   9.029   5.161   2.152
 1641SOL    HW115132   8.993   5.099   2.081
 1641SOL    HW215133   8.956   5.222   2.182
 1642SOL     OW15134   2.227   9.283   1.875
 1642SOL    HW115135   2.148   9.274   1.935
 1642SOL    HW215136   2.200   9.259   1.781
 1643SOL     OW15137   1.412   5.929   0.998
 1643SOL    HW115138   1.328   5.877   1.014
 1643SOL    HW215139   1.474   5.875   0.940
 1644SOL     OW15140   6.888   9.859   2.712
 1644SOL    HW115141   6.956   9.909   2.657
 1644SOL    HW215142   6.901   9.882   2.809
 1645SOL     OW15143   0.563   6.687   0.189
 1645SOL    HW115144   0.484   6.747   0.178
 1645SOL    HW215145   0.532   6.599   0.226
 1646SOL     OW15146   2.641   6.064   1.872
 1646SOL    HW115147   2.664   5.977   1.916
 1646SOL    HW215148   2.612   6.047   1.777
 1647SOL     OW15149   3.763   1.943   2.140
 1647SOL    HW115150   3.671   1.906   2.157
 1647SOL    HW215151   3.798   1.905   2.055
 1648SOL     OW15152   2.275   4.648   0.084
 1648SOL    HW115153   2.270   4.556   0.045
 1648SOL    HW215154   2.190   4.697   0.064
 1649SOL     OW15155   7.179   9.588   1.633
 1649SOL    HW115156   7.242   9.601   1.709
 1649SOL    HW215157   7.085   9.596   1.665
 1650SOL     OW15158   1.055   6.461   0.612
 1650SOL    HW115159   1.019   6.386   0.667
 1650SOL    HW215160   1.128   6.508   0.661
 1651SOL     OW15161   5.602   8.780   1.718
 1651SOL    HW115162   5.635   8.875   1.715
 1651SOL    HW215163   5.524   8.775   1.780
 1652SOL     OW15164   3.150   7.245   0.768
 1652SOL    HW115165   3.109   7.193   0.843
 1652SOL    HW215166   3.244   7.270   0.792
 1653SOL     OW15167   3.401   0.629   0.960
 1653SOL    HW115168   3.392   0.636   1.060
 1653SOL    HW215169   3.310   0.624   0.919
 1654SOL     OW15170   8.063   2.661   2.322
 1654SOL    HW115171   8.012   2.688   2.404
 1654SOL    HW215172   8.073   2.562   2.319
 1655SOL     OW15173   1.609   4.545   0.812
 1655SOL    HW115174   1.544   4.612   0.850
 1655SOL    HW215175   1.567   4.499   0.734
 1656SOL     OW15176   1.460   1.225   2.343
 1656SOL    HW115177   1.515   1.147   2.374
 1656SOL    HW215178   1.374   1.228   2.394
 1657SOL     OW15179   1.933   0.730   2.548
 1657SOL    HW115180   1.998   0.784   2.495
 1657SOL    HW215181   1.919   0.642   2.503
 1658SOL     OW15182   0.408   1.802   2.607
 1658SOL    HW115183   0.507   1.789   2.596
 1658SOL    HW215184   0.384   1.896   2.580
 1659SOL     OW15185   0.011   7.070   2.188
 1659SOL    HW115186   9.982   6.981   2.225
 1659SOL    HW215187   0.049   7.126   2.262
 1660SOL     OW15188   3.577   5.444   2.097
 1660SOL    HW115189   3.625   5.485   2.174
 1660SOL    HW215190   3.518   5.370   2.130
 1661SOL     OW15191   9.546   5.763   0.340
 1661SOL    HW115192   9.571   5.858   0.356
 1661SOL    HW215193   9.626   5.712   0.309
 1662SOL     OW15194   1.988   9.571   1.484
 1662SOL    HW115195   1.903   9.607   1.446
 1662SOL    HW215196   2.054   9.555   1.411
 1663SOL     OW15197   4.136   3.224   1.730
 1663SOL    HW115198   4.156   3.130   1.757
 1663SOL    HW215199   4.204   3.286   1.771
 1664SOL     OW15200   2.005   9.745   1.694
 1664SOL    HW115201   2.009   9.682   1.617
 1664SOL    HW215202   2.084   9.731   1.753
 1665SOL     OW15203   7.997   0.221   0.444
 1665SOL    HW115204   8.046   0.192   0.361
 1665SOL    HW215205   8.013   0.155   0.517
 1666SOL     OW15206   8.562   2.275   1.634
 1666SOL    HW115207   8.602   2.307   1.548
 1666SOL    HW215208   8.535   2.179   1.625
 1667SOL     OW15209   0.393   6.779   1.144
 1667SOL    HW115210   0.475   6.833   1.166
 1667SOL    HW215211   0.420   6.683   1.131
 1668SOL     OW15212   1.371   8.283   1.733
 1668SOL    HW115213   1.371   8.310   1.829
 1668SOL    HW215214   1.455   8.316   1.689
 1669SOL     OW15215   0.115   4.541   2.222
 1669SOL    HW115216   0.047   4.588   2.166
 1669SOL    HW215217   0.073   4.462   2.267
 1670SOL     OW15218   1.488   5.284   1.446
 1670SOL    HW115219   1.427   5.267   1.524
 1670SOL    HW215220   1.564   5.219   1.448
 1671SOL     OW15221   3.806   3.385   0.852
 1671SOL    HW115222   3.720   3.422   0.887
 1671SOL    HW215223   3.792   3.292   0.819
 1672SOL     OW15224   4.490   9.508   1.115
 1672SOL    HW115225   4.574   9.557   1.093
 1672SOL    HW215226   4.490   9.482   1.212
 1673SOL     OW15227   2.446   8.167   1.785
 1673SOL    HW115228   2.376   8.182   1.715
 1673SOL    HW215229   2.420   8.215   1.869
 1674SOL     OW15230   1.716   1.768   1.724
 1674SOL    HW115231   1.657   1.702   1.678
 1674SOL    HW215232   1.742   1.733   1.814
 1675SOL     OW15233   6.216   8.750   2.549
 1675SOL    HW115234   6.177   8.662   2.576
 1675SOL    HW215235   6.260   8.741   2.460
 1676SOL     OW15236   1.746   2.555   0.635
 1676SOL    HW115237   1.699   2.494   0.699
 1676SOL    HW215238   1.691   2.566   0.552
 1677SOL     OW15239   1.275   6.371   2.653
 1677SOL    HW115240   1.302   6.360   2.749
 1677SOL    HW215241   1.312   6.458   2.618
 1678SOL     OW15242   1.883   4.873   1.811
 1678SOL    HW115243   1.920   4.859   1.719
 1678SOL    HW215244   1.788   4.842   1.814
 1679SOL     OW15245   7.850   0.730   1.425
 1679SOL    HW115246   7.896   0.713   1.512
 1679SOL    HW215247   7.856   0.828   1.403
 1680SOL     OW15248   8.804   2.689   1.896
 1680SOL    HW115249   8.743   2.663   1.821
 1680SOL    HW215250   8.819   2.610   1.956
 1681SOL     OW15251   7.589   1.405   0.752
 1681SOL    HW115252   7.625   1.371   0.839
 1681SOL    HW215253   7.594   1.505   0.751
 1682SOL     OW15254   3.027   7.746   2.446
 1682SOL    HW115255   2.929   7.749   2.460
 1682SOL    HW215256   3.070   7.825   2.488
 1683SOL     OW15257   1.310   6.969   2.650
 1683SOL    HW115258   1.331   6.962   2.747
 1683SOL    HW215259   1.247   6.896   2.624
 1684SOL     OW15260   3.456   9.831   1.305
 1684SOL    HW115261   3.419   9.825   1.398
 1684SOL    HW215262   3.385   9.864   1.243
 1685SOL     OW15263   8.755   2.821   0.364
 1685SOL    HW115264   8.680   2.845   0.425
 1685SOL    HW215265   8.732   2.848   0.270
 1686SOL     OW15266   8.641   2.322   2.512
 1686SOL    HW115267   8.566   2.262   2.484
 1686SOL    HW215268   8.604   2.398   2.566
 1687SOL     OW15269   9.278   7.774   1.816
 1687SOL    HW115270   9.371   7.744   1.797
 1687SOL    HW215271   9.267   7.868   1.785
 1688SOL     OW15272   2.113   9.194   0.366
 1688SOL    HW115273   2.176   9.178   0.442
 1688SOL    HW215274   2.019   9.177   0.396
 1689SOL     OW15275   9.770   6.034   0.843
 1689SOL    HW115276   9.784   6.129   0.870
 1689SOL    HW215277   9.833   6.010   0.769
 1690SOL     OW15278   5.488   8.316   2.659
 1690SOL    HW115279   5.496   8.217   2.666
 1690SOL    HW215280   5.568   8.354   2.612
 1691SOL     OW15281   3.136   8.752   0.076
 1691SOL    HW115282   3.119   8.784   3.420
 1691SOL    HW215283   3.068   8.683   0.101
 1692SOL     OW15284   3.437   8.482   2.575
 1692SOL    HW115285   3.416   8.501   2.671
 1692SOL    HW215286   3.414   8.562   2.520
 1693SOL     OW15287   9.081   0.634   0.219
 1693SOL    HW115288   9.025   0.660   0.140
 1693SOL    HW215289   9.101   0.537   0.216
 1694SOL     OW15290   3.075   2.072   1.271
 1694SOL    HW115291   3.016   2.140   1.313
 1694SOL    HW215292   3.021   2.012   1.212
 1695SOL     OW15293   1.619   0.006   2.194
 1695SOL    HW115294   1.611   9.979   2.290
 1695SOL    HW215295   1.661   0.097   2.189
 1696SOL     OW15296   8.905   2.791   2.222
 1696SOL    HW115297   8.988   2.843   2.200
 1696SOL    HW215298   8.832   2.854   2.249
 1697SOL     OW15299   7.816   3.424   0.368
 1697SOL    HW115300   7.748   3.497   0.363
 1697SOL    HW215301   7.907   3.464   0.374
 1698SOL     OW15302   3.529   0.142   0.195
 1698SOL    HW115303   3.433   0.112   0.190
 1698SOL    HW215304   3.584   0.067   0.232
 1699SOL     OW15305   3.896   0.871   2.403
 1699SOL    HW115306   3.993   0.867   2.429
 1699SOL    HW215307   3.873   0.791   2.348
 1700SOL     OW15308   8.555   1.138   1.720
 1700SOL    HW115309   8.556   1.087   1.634
 1700SOL    HW215310   8.528   1.077   1.795
 1701SOL     OW15311   3.870   2.997   2.120
 1701SOL    HW115312   3.906   3.089   2.102
 1701SOL    HW215313   3.784   3.005   2.171
 1702SOL     OW15314   3.086   2.317   0.773
 1702SOL    HW115315   3.113   2.298   0.679
 1702SOL    HW215316   3.166   2.317   0.832
 1703SOL     OW15317   2.847   5.788   0.640
 1703SOL    HW115318   2.791   5.863   0.675
 1703SOL    HW215319   2.944   5.813   0.643
 1704SOL     OW15320   0.133   8.073   1.721
 1704SOL    HW115321   0.118   8.030   1.632
 1704SOL    HW215322   0.200   8.147   1.712
 1705SOL     OW15323   2.349   4.023   0.025
 1705SOL    HW115324   2.259   4.067   0.020
 1705SOL    HW215325   2.420   4.092   0.037
 1706SOL     OW15326   3.233   9.214   2.458
 1706SOL    HW115327   3.268   9.302   2.489
 1706SOL    HW215328   3.136   9.223   2.434
 1707SOL     OW15329   9.055   7.482   0.084
 1707SOL    HW115330   8.969   7.436   0.108
 1707SOL    HW215331   9.064   7.486   3.421
 1708SOL     OW15332   3.414   0.870   2.011
 1708SOL    HW115333   3.381   0.778   2.034
 1708SOL    HW215334   3.513   0.873   2.020
 1709SOL     OW15335   1.153   7.173   0.655
 1709SOL    HW115336   1.169   7.132   0.566
 1709SOL    HW215337   1.121   7.103   0.719
 1710SOL     OW15338   9.798   3.467   1.036
 1710SOL    HW115339   9.728   3.430   0.976
 1710SOL    HW215340   9.824   3.398   1.103
 1711SOL     OW15341   0.603   8.242   0.161
 1711SOL    HW115342   0.667   8.311   0.126
 1711SOL    HW215343   0.532   8.287   0.215
 1712SOL     OW15344   2.946   2.640   0.918
 1712SOL    HW115345   2.960   2.611   0.824
 1712SOL    HW215346   3.025   2.613   0.973
 1713SOL     OW15347   1.359   9.406   1.551
 1713SOL    HW115348   1.363   9.487   1.492
 1713SOL    HW215349   1.426   9.339   1.519
 1714SOL     OW15350   1.011   5.510   0.236
 1714SOL    HW115351   1.100   5.476   0.264
 1714SOL    HW215352   0.998   5.602   0.273
 1715SOL     OW15353   0.134   2.322   0.293
 1715SOL    HW115354   0.063   2.254   0.273
 1715SOL    HW215355   0.212   2.307   0.232
 1716SOL     OW15356   1.141   6.755   2.595
 1716SOL    HW115357   1.068   6.809   2.553
 1716SOL    HW215358   1.101   6.672   2.635
 1717SOL     OW15359   1.436   8.277   2.235
 1717SOL    HW115360   1.370   8.207   2.263
 1717SOL    HW215361   1.437   8.350   2.303
 1718SOL     OW15362   1.710   5.009   2.366
 1718SOL    HW115363   1.633   4.989   2.304
 1718SOL    HW215364   1.689   4.975   2.458
 1719SOL     OW15365   1.726   4.807   1.452
 1719SOL    HW115366   1.817   4.808   1.492
 1719SOL    HW215367   1.728   4.755   1.367
 1720SOL     OW15368   0.115   0.603   1.546
 1720SOL    HW115369   0.168   0.666   1.603
 1720SOL    HW215370   0.034   0.650   1.511
 1721SOL     OW15371   0.150   2.779   1.929
 1721SOL    HW115372   0.209   2.840   1.982
 1721SOL    HW215373   0.077   2.744   1.988
 1722SOL     OW15374   0.002   7.382   0.663
 1722SOL    HW115375   9.999   7.477   0.632
 1722SOL    HW215376   0.041   7.325   0.591
 1723SOL     OW15377   8.867   6.212   0.122
 1723SOL    HW115378   8.918   6.160   0.054
 1723SOL    HW215379   8.812   6.149   0.178
 1724SOL     OW15380   9.993   5.791   0.425
 1724SOL    HW115381   9.959   5.872   0.378
 1724SOL    HW215382   9.924   5.718   0.420
 1725SOL     OW15383   3.331   3.552   2.376
 1725SOL    HW115384   3.321   3.622   2.305
 1725SOL    HW215385   3.375   3.471   2.336
 1726SOL     OW15386   0.840   3.656   0.140
 1726SOL    HW115387   0.857   3.558   0.140
 1726SOL    HW215388   0.745   3.674   0.116
 1727SOL     OW15389   9.184   0.497   1.684
 1727SOL    HW115390   9.113   0.497   1.754
 1727SOL    HW215391   9.274   0.499   1.727
 1728SOL     OW15392   3.125   6.458   2.619
 1728SOL    HW115393   3.074   6.457   2.705
 1728SOL    HW215394   3.189   6.381   2.617
 1729SOL     OW15395   2.697   2.093   2.450
 1729SOL    HW115396   2.634   2.041   2.508
 1729SOL    HW215397   2.749   2.158   2.506
 1730SOL     OW15398   9.543   9.875   0.148
 1730SOL    HW115399   9.633   9.915   0.165
 1730SOL    HW215400   9.478   9.947   0.125
 1731SOL     OW15401   9.179   2.454   2.285
 1731SOL    HW115402   9.258   2.515   2.277
 1731SOL    HW215403   9.101   2.505   2.323
 1732SOL     OW15404   1.404   2.060   1.293
 1732SOL    HW115405   1.380   1.965   1.271
 1732SOL    HW215406   1.352   2.090   1.372
 1733SOL     OW15407   0.643   3.667   1.469
 1733SOL    HW115408   0.739   3.690   1.456
 1733SOL    HW215409   0.611   3.611   1.392
 1734SOL     OW15410   9.756   2.241   1.843
 1734SOL    HW115411   9.680   2.186   1.878
 1734SOL    HW215412   9.842   2.197   1.865
 1735SOL     OW15413   9.189   7.964   0.488
 1735SOL    HW115414   9.120   7.897   0.515
 1735SOL    HW215415   9.191   8.039   0.554
 1736SOL     OW15416   8.036   1.188   1.522
 1736SOL    HW115417   8.064   1.176   1.427
 1736SOL    HW215418   8.104   1.242   1.571
 1737SOL     OW15419   0.039   7.699   1.985
 1737SOL    HW115420   0.034   7.605   2.017
 1737SOL    HW215421   9.998   7.705   1.894
 1738SOL     OW15422   2.642   1.625   0.680
 1738SOL    HW115423   2.647   1.539   0.731
 1738SOL    HW215424   2.548   1.659   0.680
 1739SOL     OW15425   1.208   2.161   0.713
 1739SOL    HW115426   1.260   2.143   0.797
 1739SOL    HW215427   1.212   2.258   0.691
 1740SOL     OW15428   3.902   0.697   1.638
 1740SOL    HW115429   3.812   0.740   1.637
 1740SOL    HW215430   3.918   0.649   1.552
 1741SOL     OW15431   1.286   4.972   1.655
 1741SOL    HW115432   1.350   4.969   1.731
 1741SOL    HW215433   1.263   4.878   1.628
 1742SOL     OW15434   1.671   6.567   0.657
 1742SOL    HW115435   1.646   6.651   0.706
 1742SOL    HW215436   1.722   6.507   0.718
 1743SOL     OW15437   4.065   9.614   0.264
 1743SOL    HW115438   4.006   9.650   0.336
 1743SOL    HW215439   4.135   9.683   0.242
 1744SOL     OW15440   0.090   8.379   0.478
 1744SOL    HW115441   0.142   8.404   0.397
 1744SOL    HW215442   0.056   8.285   0.469
 1745SOL     OW15443   0.049   6.112   0.125
 1745SOL    HW115444   0.007   6.090   0.213
 1745SOL    HW215445   0.063   6.211   0.120
 1746SOL     OW15446   7.763   9.406   1.802
 1746SOL    HW115447   7.677   9.406   1.855
 1746SOL    HW215448   7.750   9.458   1.718
 1747SOL     OW15449   8.598   6.418   0.656
 1747SOL    HW115450   8.643   6.417   0.745
 1747SOL    HW215451   8.499   6.429   0.669
 1748SOL     OW15452   0.467   1.416   0.430
 1748SOL    HW115453   0.455   1.515   0.435
 1748SOL    HW215454   0.501   1.382   0.518
 1749SOL     OW15455   3.395   4.003   1.913
 1749SOL    HW115456   3.319   4.066   1.894
 1749SOL    HW215457   3.395   3.979   2.010
 1750SOL     OW15458   2.366   5.707   0.203
 1750SOL    HW115459   2.296   5.636   0.197
 1750SOL    HW215460   2.403   5.710   0.296
 1751SOL     OW15461   1.742   7.192   2.072
 1751SOL    HW115462   1.672   7.241   2.125
 1751SOL    HW215463   1.805   7.148   2.135
 1752SOL     OW15464   0.263   1.144   0.119
 1752SOL    HW115465   0.288   1.239   0.139
 1752SOL    HW215466   0.341   1.084   0.139
 1753SOL     OW15467   9.081   1.664   2.168
 1753SOL    HW115468   9.082   1.727   2.091
 1753SOL    HW215469   8.994   1.673   2.218
 1754SOL     OW15470   2.511   9.624   0.473
 1754SOL    HW115471   2.442   9.617   0.402
 1754SOL    HW215472   2.599   9.650   0.432
 1755SOL     OW15473   1.380   5.640   0.402
 1755SOL    HW115474   1.479   5.648   0.411
 1755SOL    HW215475   1.343   5.725   0.365
 1756SOL     OW15476   8.889   4.557   0.929
 1756SOL    HW115477   8.941   4.628   0.976
 1756SOL    HW215478   8.794   4.560   0.958
 1757SOL     OW15479   4.785   9.621   2.299
 1757SOL    HW115480   4.875   9.610   2.342
 1757SOL    HW215481   4.761   9.718   2.297
 1758SOL     OW15482   2.853   2.677   2.045
 1758SOL    HW115483   2.789   2.623   1.989
 1758SOL    HW215484   2.865   2.767   2.004
 1759SOL     OW15485   9.491   8.788   0.393
 1759SOL    HW115486   9.499   8.691   0.412
 1759SOL    HW215487   9.403   8.821   0.428
 1760SOL     OW15488   9.006   9.242   0.592
 1760SOL    HW115489   9.100   9.210   0.603
 1760SOL    HW215490   8.944   9.163   0.585
 1761SOL     OW15491   9.228   2.022   1.068
 1761SOL    HW115492   9.243   1.964   1.149
 1761SOL    HW215493   9.145   1.994   1.022
 1762SOL     OW15494   3.515   2.378   2.204
 1762SOL    HW115495   3.596   2.320   2.202
 1762SOL    HW215496   3.493   2.408   2.111
 1763SOL     OW15497   1.550   4.684   2.539
 1763SOL    HW115498   1.574   4.779   2.558
 1763SOL    HW215499   1.452   4.670   2.556
 1764SOL     OW15500   8.653   7.592   0.695
 1764SOL    HW115501   8.569   7.537   0.692
 1764SOL    HW215502   8.733   7.532   0.690
 1765SOL     OW15503   2.854   2.214   2.176
 1765SOL    HW115504   2.845   2.285   2.247
 1765SOL    HW215505   2.845   2.124   2.217
 1766SOL     OW15506   2.976   0.873   1.848
 1766SOL    HW115507   3.011   0.950   1.794
 1766SOL    HW215508   2.895   0.901   1.899
 1767SOL     OW15509   9.606   7.065   2.210
 1767SOL    HW115510   9.644   7.087   2.300
 1767SOL    HW215511   9.605   7.148   2.154
 1768SOL     OW15512   8.239   1.921   0.564
 1768SOL    HW115513   8.153   1.883   0.600
 1768SOL    HW215514   8.263   2.003   0.616
 1769SOL     OW15515   8.297   8.569   0.876
 1769SOL    HW115516   8.220   8.611   0.828
 1769SOL    HW215517   8.314   8.618   0.961
 1770SOL     OW15518   2.692   4.378   1.389
 1770SOL    HW115519   2.778   4.355   1.344
 1770SOL    HW215520   2.633   4.297   1.393
 1771SOL     OW15521   8.260   0.354   1.792
 1771SOL    HW115522   8.244   0.431   1.730
 1771SOL    HW215523   8.172   0.319   1.825
 1772SOL     OW15524   4.443   1.051   0.696
 1772SOL    HW115525   4.409   1.129   0.749
 1772SOL    HW215526   4.496   0.991   0.756
 1773SOL     OW15527   1.375   0.996   1.262
 1773SOL    HW115528   1.320   0.918   1.290
 1773SOL    HW215529   1.357   1.017   1.165
 1774SOL     OW15530   3.240   9.655   2.182
 1774SOL    HW115531   3.145   9.651   2.214
 1774SOL    HW215532   3.281   9.740   2.212
 1775SOL     OW15533   0.670   9.884   0.482
 1775SOL    HW115534   0.643   9.860   0.389
 1775SOL    HW215535   0.753   9.834   0.506
 1776SOL     OW15536   9.323   3.733   0.387
 1776SOL    HW115537   9.308   3.745   0.289
 1776SOL    HW215538   9.300   3.818   0.435
 1777SOL     OW15539   6.880   9.839   1.323
 1777SOL    HW115540   6.970   9.848   1.366
 1777SOL    HW215541   6.811   9.821   1.393
 1778SOL     OW15542   0.236   8.205   1.427
 1778SOL    HW115543   0.193   8.116   1.445
 1778SOL    HW215544   0.283   8.237   1.509
 1779SOL     OW15545   4.172   2.117   0.943
 1779SOL    HW115546   4.103   2.190   0.947
 1779SOL    HW215547   4.162   2.058   1.023
 1780SOL     OW15548   2.175   5.443   1.595
 1780SOL    HW115549   2.199   5.492   1.511
 1780SOL    HW215550   2.142   5.351   1.572
 1781SOL     OW15551   1.807   7.346   2.500
 1781SOL    HW115552   1.850   7.421   2.451
 1781SOL    HW215553   1.868   7.266   2.499
 1782SOL     OW15554   0.043   5.233   2.574
 1782SOL    HW115555   9.976   5.182   2.628
 1782SOL    HW215556   9.996   5.284   2.502
 1783SOL     OW15557   3.871   5.569   2.515
 1783SOL    HW115558   3.823   5.625   2.583
 1783SOL    HW215559   3.899   5.483   2.556
 1784SOL     OW15560   6.912   9.603   1.710
 1784SOL    HW115561   6.894   9.575   1.616
 1784SOL    HW215562   6.843   9.564   1.771
 1785SOL     OW15563   8.652   7.253   0.719
 1785SOL    HW115564   8.571   7.313   0.718
 1785SOL    HW215565   8.732   7.306   0.692
 1786SOL     OW15566   2.996   7.984   1.776
 1786SOL    HW115567   3.067   7.917   1.798
 1786SOL    HW215568   2.909   7.953   1.815
 1787SOL     OW15569   8.986   2.927   1.165
 1787SOL    HW115570   8.932   2.866   1.222
 1787SOL    HW215571   9.055   2.973   1.220
 1788SOL     OW15572   8.785   6.419   2.391
 1788SOL    HW115573   8.862   6.374   2.346
 1788SOL    HW215574   8.701   6.367   2.375
 1789SOL     OW15575   6.768   9.171   1.737
 1789SOL    HW115576   6.836   9.211   1.798
 1789SOL    HW215577   6.677   9.205   1.761
 1790SOL     OW15578   8.437   8.239   0.452
 1790SOL    HW115579   8.392   8.326   0.431
 1790SOL    HW215580   8.471   8.241   0.546
 1791SOL     OW15581   8.945   0.020   1.699
 1791SOL    HW115582   9.010   9.948   1.675
 1791SOL    HW215583   8.980   0.073   1.776
 1792SOL     OW15584   2.708   0.965   1.450
 1792SOL    HW115585   2.727   0.867   1.461
 1792SOL    HW215586   2.616   0.985   1.484
 1793SOL     OW15587   3.236   7.528   0.271
 1793SOL    HW115588   3.150   7.481   0.251
 1793SOL    HW215589   3.259   7.516   0.367
 1794SOL     OW15590   2.436   2.785   1.621
 1794SOL    HW115591   2.338   2.768   1.634
 1794SOL    HW215592   2.449   2.869   1.569
 1795SOL     OW15593   3.500   9.859   1.784
 1795SOL    HW115594   3.505   9.771   1.832
 1795SOL    HW215595   3.428   9.915   1.823
 1796SOL     OW15596   8.258   9.895   2.275
 1796SOL    HW115597   8.305   9.814   2.240
 1796SOL    HW215598   8.278   9.973   2.216
 1797SOL     OW15599   9.138   0.707   1.015
 1797SOL    HW115600   9.075   0.633   0.994
 1797SOL    HW215601   9.211   0.709   0.947
 1798SOL     OW15602   2.488   7.340   0.553
 1798SOL    HW115603   2.541   7.380   0.628
 1798SOL    HW215604   2.514   7.382   0.466
 1799SOL     OW15605   1.169   7.778   2.188
 1799SOL    HW115606   1.202   7.688   2.216
 1799SOL    HW215607   1.246   7.838   2.171
 1800SOL     OW15608   4.306   8.664   2.596
 1800SOL    HW115609   4.220   8.709   2.573
 1800SOL    HW215610   4.327   8.679   2.692
 1801SOL     OW15611   1.859   5.245   1.629
 1801SOL    HW115612   1.946   5.238   1.580
 1801SOL    HW215613   1.832   5.342   1.634
 1802SOL     OW15614   1.901   5.679   0.068
 1802SOL    HW115615   1.932   5.771   0.091
 1802SOL    HW215616   1.866   5.677   3.411
 1803SOL     OW15617   1.499   2.913   1.117
 1803SOL    HW115618   1.516   2.817   1.098
 1803SOL    HW215619   1.510   2.966   1.032
 1804SOL     OW15620   1.672   8.149   1.322
 1804SOL    HW115621   1.684   8.129   1.419
 1804SOL    HW215622   1.618   8.232   1.311
 1805SOL     OW15623   8.004   1.831   0.673
 1805SOL    HW115624   8.019   1.832   0.772
 1805SOL    HW215625   7.915   1.871   0.652
 1806SOL     OW15626   8.664   6.404   0.069
 1806SOL    HW115627   8.695   6.485   0.020
 1806SOL    HW215628   8.739   6.339   0.077
 1807SOL     OW15629   1.848   0.284   1.098
 1807SOL    HW115630   1.820   0.203   1.047
 1807SOL    HW215631   1.787   0.360   1.077
 1808SOL     OW15632   9.350   5.709   1.833
 1808SOL    HW115633   9.404   5.670   1.908
 1808SOL    HW215634   9.371   5.806   1.824
 1809SOL     OW15635   4.922   8.282   1.803
 1809SOL    HW115636   4.959   8.227   1.877
 1809SOL    HW215637   4.831   8.316   1.830
 1810SOL     OW15638   7.988   1.133   0.200
 1810SOL    HW115639   7.949   1.183   0.278
 1810SOL    HW215640   7.943   1.162   0.116
 1811SOL     OW15641   1.979   5.930   0.133
 1811SOL    HW115642   1.967   5.944   0.232
 1811SOL    HW215643   2.060   5.978   0.102
 1812SOL     OW15644   3.002   4.779   1.396
 1812SOL    HW115645   3.052   4.792   1.482
 1812SOL    HW215646   3.067   4.751   1.325
 1813SOL     OW15647   1.394   9.326   2.414
 1813SOL    HW115648   1.490   9.304   2.399
 1813SOL    HW215649   1.337   9.250   2.383
 1814SOL     OW15650   0.938   9.192   0.725
 1814SOL    HW115651   0.915   9.199   0.628
 1814SOL    HW215652   0.978   9.278   0.756
 1815SOL     OW15653   1.048   2.571   0.336
 1815SOL    HW115654   1.001   2.497   0.384
 1815SOL    HW215655   1.115   2.613   0.397
 1816SOL     OW15656   1.239   0.771   1.349
 1816SOL    HW115657   1.269   0.691   1.296
 1816SOL    HW215658   1.278   0.767   1.441
 1817SOL     OW15659   7.254   9.492   0.980
 1817SOL    HW115660   7.245   9.530   0.888
 1817SOL    HW215661   7.346   9.454   0.991
 1818SOL     OW15662   3.139   0.655   0.867
 1818SOL    HW115663   3.176   0.720   0.800
 1818SOL    HW215664   3.086   0.705   0.936
 1819SOL     OW15665   7.410   1.943   1.994
 1819SOL    HW115666   7.352   1.876   2.039
 1819SOL    HW215667   7.436   1.909   1.903
 1820SOL     OW15668   1.213   8.532   0.640
 1820SOL    HW115669   1.289   8.468   0.641
 1820SOL    HW215670   1.157   8.519   0.722
 1821SOL     OW15671   8.297   9.389   0.679
 1821SOL    HW115672   8.290   9.290   0.687
 1821SOL    HW215673   8.206   9.430   0.687
 1822SOL     OW15674   7.873   8.605   2.370
 1822SOL    HW115675   7.902   8.513   2.396
 1822SOL    HW215676   7.813   8.642   2.441
 1823SOL     OW15677   9.831   4.086   0.772
 1823SOL    HW115678   9.828   4.147   0.851
 1823SOL    HW215679   9.807   4.137   0.689
 1824SOL     OW15680   9.084   8.137   1.437
 1824SOL    HW115681   9.077   8.174   1.530
 1824SOL    HW215682   9.070   8.210   1.371
 1825SOL     OW15683   0.068   0.435   0.960
 1825SOL    HW115684   0.100   0.528   0.975
 1825SOL    HW215685   0.049   0.391   1.048
 1826SOL     OW15686   1.069   3.418   0.939
 1826SOL    HW115687   1.066   3.337   0.997
 1826SOL    HW215688   0.976   3.449   0.920
 1827SOL     OW15689   0.772   2.158   0.879
 1827SOL    HW115690   0.707   2.224   0.842
 1827SOL    HW215691   0.844   2.207   0.929
 1828SOL     OW15692   2.741   7.196   1.963
 1828SOL    HW115693   2.659   7.252   1.948
 1828SOL    HW215694   2.717   7.099   1.956
 1829SOL     OW15695   0.934   2.091   2.410
 1829SOL    HW115696   0.955   2.182   2.373
 1829SOL    HW215697   0.870   2.101   2.486
 1830SOL     OW15698   8.590   1.862   0.928
 1830SOL    HW115699   8.622   1.890   0.838
 1830SOL    HW215700   8.617   1.931   0.995
 1831SOL     OW15701   3.184   7.847   1.494
 1831SOL    HW115702   3.098   7.882   1.457
 1831SOL    HW215703   3.261   7.891   1.448
 1832SOL     OW15704   2.496   4.104   1.102
 1832SOL    HW115705   2.434   4.026   1.105
 1832SOL    HW215706   2.474   4.161   1.022
 1833SOL     OW15707   2.127   4.223   1.907
 1833SOL    HW115708   2.112   4.310   1.860
 1833SOL    HW215709   2.056   4.210   1.976
 1834SOL     OW15710   9.916   8.053   0.986
 1834SOL    HW115711   9.823   8.022   0.967
 1834SOL    HW215712   9.963   8.070   0.900
 1835SOL     OW15713   8.596   5.163   0.661
 1835SOL    HW115714   8.605   5.228   0.736
 1835SOL    HW215715   8.545   5.205   0.586
 1836SOL     OW15716   1.272   7.111   2.001
 1836SOL    HW115717   1.264   7.187   2.066
 1836SOL    HW215718   1.200   7.044   2.020
 1837SOL     OW15719   9.609   1.133   0.931
 1837SOL    HW115720   9.568   1.047   0.963
 1837SOL    HW215721   9.704   1.139   0.963
 1838SOL     OW15722   0.653   5.519   1.889
 1838SOL    HW115723   0.631   5.508   1.986
 1838SOL    HW215724   0.591   5.586   1.848
 1839SOL     OW15725   8.086   4.253   0.491
 1839SOL    HW115726   8.005   4.214   0.449
 1839SOL    HW215727   8.065   4.279   0.585
 1840SOL     OW15728   3.193   2.584   1.384
 1840SOL    HW115729   3.267   2.523   1.413
 1840SOL    HW215730   3.176   2.573   1.286
 1841SOL     OW15731   3.230   4.788   2.228
 1841SOL    HW115732   3.304   4.737   2.272
 1841SOL    HW215733   3.147   4.732   2.226
 1842SOL     OW15734   3.956   1.524   2.571
 1842SOL    HW115735   3.950   1.433   2.530
 1842SOL    HW215736   3.864   1.554   2.598
 1843SOL     OW15737   4.589   9.340   0.644
 1843SOL    HW115738   4.620   9.426   0.605
 1843SOL    HW215739   4.665   9.275   0.647
 1844SOL     OW15740   1.642   5.919   0.325
 1844SOL    HW115741   1.596   5.916   0.414
 1844SOL    HW215742   1.737   5.947   0.338
 1845SOL     OW15743   1.167   7.720   0.541
 1845SOL    HW115744   1.126   7.700   0.630
 1845SOL    HW215745   1.171   7.637   0.487
 1846SOL     OW15746   8.839   4.209   2.309
 1846SOL    HW115747   8.888   4.134   2.265
 1846SOL    HW215748   8.753   4.174   2.348
 1847SOL     OW15749   1.777   6.857   2.058
 1847SOL    HW115750   1.692   6.900   2.028
 1847SOL    HW215751   1.832   6.923   2.109
 1848SOL     OW15752   9.497   5.895   2.190
 1848SOL    HW115753   9.401   5.880   2.166
 1848SOL    HW215754   9.502   5.936   2.281
 1849SOL     OW15755   8.912   4.710   1.576
 1849SOL    HW115756   8.910   4.614   1.549
 1849SOL    HW215757   8.872   4.720   1.667
 1850SOL     OW15758   8.508   1.897   2.361
 1850SOL    HW115759   8.575   1.904   2.436
 1850SOL    HW215760   8.556   1.892   2.274
 1851SOL     OW15761   8.996   0.183   2.240
 1851SOL    HW115762   9.000   0.166   2.141
 1851SOL    HW215763   8.901   0.178   2.270
 1852SOL     OW15764   9.484   5.478   0.660
 1852SOL    HW115765   9.578   5.508   0.676
 1852SOL    HW215766   9.455   5.419   0.735
 1853SOL     OW15767   7.501   1.418   2.475
 1853SOL    HW115768   7.498   1.318   2.471
 1853SOL    HW215769   7.427   1.456   2.420
 1854SOL     OW15770   1.402   2.387   1.373
 1854SOL    HW115771   1.436   2.315   1.432
 1854SOL    HW215772   1.471   2.460   1.366
 1855SOL     OW15773   0.521   9.408   0.932
 1855SOL    HW115774   0.536   9.481   0.998
 1855SOL    HW215775   0.470   9.334   0.974
 1856SOL     OW15776   7.907   2.266   0.960
 1856SOL    HW115777   7.933   2.342   0.900
 1856SOL    HW215778   7.955   2.273   1.047
 1857SOL     OW15779   3.072   5.605   1.742
 1857SOL    HW115780   3.089   5.605   1.643
 1857SOL    HW215781   3.143   5.552   1.788
 1858SOL     OW15782   9.737   0.516   1.580
 1858SOL    HW115783   9.790   0.565   1.649
 1858SOL    HW215784   9.709   0.579   1.508
 1859SOL     OW15785   1.770   9.581   2.512
 1859SOL    HW115786   1.837   9.524   2.559
 1859SOL    HW215787   1.811   9.669   2.490
 1860SOL     OW15788   1.472   3.409   0.175
 1860SOL    HW115789   1.376   3.382   0.184
 1860SOL    HW215790   1.526   3.332   0.143
 1861SOL     OW15791   9.811   8.459   0.825
 1861SOL    HW115792   9.905   8.467   0.790
 1861SOL    HW215793   9.776   8.368   0.806
 1862SOL     OW15794   2.079   4.699   0.989
 1862SOL    HW115795   2.091   4.609   0.947
 1862SOL    HW215796   1.982   4.723   0.991
 1863SOL     OW15797   4.607   1.857   2.537
 1863SOL    HW115798   4.622   1.762   2.509
 1863SOL    HW215799   4.661   1.876   2.619
 1864SOL     OW15800   3.411   1.566   0.595
 1864SOL    HW115801   3.477   1.549   0.669
 1864SOL    HW215802   3.341   1.629   0.627
 1865SOL     OW15803   4.804   8.415   2.339
 1865SOL    HW115804   4.720   8.410   2.393
 1865SOL    HW215805   4.875   8.461   2.392
 1866SOL     OW15806   3.320   4.565   1.432
 1866SOL    HW115807   3.280   4.573   1.524
 1866SOL    HW215808   3.267   4.620   1.368
 1867SOL     OW15809   3.437   2.616   1.636
 1867SOL    HW115810   3.503   2.675   1.591
 1867SOL    HW215811   3.418   2.537   1.577
 1868SOL     OW15812   7.235   9.386   1.236
 1868SOL    HW115813   7.220   9.422   1.144
 1868SOL    HW215814   7.305   9.315   1.234
 1869SOL     OW15815   2.234   7.453   0.581
 1869SOL    HW115816   2.326   7.421   0.559
 1869SOL    HW215817   2.235   7.552   0.596
 1870SOL     OW15818   0.624   0.228   1.942
 1870SOL    HW115819   0.565   0.273   2.010
 1870SOL    HW215820   0.683   0.296   1.900
 1871SOL     OW15821   3.885   8.628   0.175
 1871SOL    HW115822   3.920   8.534   0.168
 1871SOL    HW215823   3.961   8.692   0.163
 1872SOL     OW15824   4.105   1.956   1.170
 1872SOL    HW115825   4.187   1.911   1.134
 1872SOL    HW215826   4.083   1.919   1.260
 1873SOL     OW15827   1.554   1.922   0.972
 1873SOL    HW115828   1.570   1.866   1.054
 1873SOL    HW215829   1.642   1.939   0.927
 1874SOL     OW15830   1.770   0.081   0.926
 1874SOL    HW115831   1.808   9.991   0.905
 1874SOL    HW215832   1.775   0.139   0.845
 1875SOL     OW15833   4.118   4.981   2.126
 1875SOL    HW115834   4.086   4.888   2.113
 1875SOL    HW215835   4.200   4.981   2.184
 1876SOL     OW15836   1.051   4.401   0.158
 1876SOL    HW115837   1.129   4.459   0.134
 1876SOL    HW215838   1.072   4.306   0.138
 1877SOL     OW15839   0.763   2.397   2.150
 1877SOL    HW115840   0.700   2.467   2.117
 1877SOL    HW215841   0.742   2.310   2.105
 1878SOL     OW15842   8.513   7.129   0.390
 1878SOL    HW115843   8.461   7.213   0.406
 1878SOL    HW215844   8.537   7.088   0.478
 1879SOL     OW15845   1.634   5.815   1.896
 1879SOL    HW115846   1.649   5.792   1.800
 1879SOL    HW215847   1.604   5.733   1.946
 1880SOL     OW15848   5.216   8.610   2.186
 1880SOL    HW115849   5.194   8.523   2.142
 1880SOL    HW215850   5.305   8.603   2.231
 1881SOL     OW15851   9.713   6.180   2.396
 1881SOL    HW115852   9.810   6.166   2.374
 1881SOL    HW215853   9.682   6.266   2.355
 1882SOL     OW15854   8.949   2.769   0.548
 1882SOL    HW115855   8.879   2.799   0.483
 1882SOL    HW215856   9.018   2.715   0.500
 1883SOL     OW15857   0.397   2.172   1.674
 1883SOL    HW115858   0.320   2.171   1.611
 1883SOL    HW215859   0.483   2.176   1.623
 1884SOL     OW15860   2.708   7.752   1.102
 1884SOL    HW115861   2.754   7.835   1.134
 1884SOL    HW215862   2.632   7.777   1.042
 1885SOL     OW15863   7.301   9.089   1.615
 1885SOL    HW115864   7.259   9.171   1.577
 1885SOL    HW215865   7.232   9.036   1.665
 1886SOL     OW15866   3.528   1.996   2.521
 1886SOL    HW115867   3.566   2.078   2.564
 1886SOL    HW215868   3.602   1.944   2.479
 1887SOL     OW15869   1.881   2.397   0.315
 1887SOL    HW115870   1.800   2.364   0.364
 1887SOL    HW215871   1.852   2.445   0.233
 1888SOL     OW15872   0.860   3.678   0.704
 1888SOL    HW115873   0.844   3.625   0.788
 1888SOL    HW215874   0.809   3.764   0.709
 1889SOL     OW15875   0.390   7.392   1.241
 1889SOL    HW115876   0.373   7.368   1.337
 1889SOL    HW215877   0.486   7.417   1.230
 1890SOL     OW15878   8.271   3.725   1.343
 1890SOL    HW115879   8.273   3.808   1.287
 1890SOL    HW215880   8.353   3.722   1.401
 1891SOL     OW15881   9.612   4.839   0.935
 1891SOL    HW115882   9.683   4.842   1.005
 1891SOL    HW215883   9.586   4.743   0.919
 1892SOL     OW15884   1.698   7.814   0.856
 1892SOL    HW115885   1.635   7.769   0.919
 1892SOL    HW215886   1.737   7.747   0.793
 1893SOL     OW15887   2.289   7.139   1.313
 1893SOL    HW115888   2.230   7.139   1.394
 1893SOL    HW215889   2.323   7.231   1.296
 1894SOL     OW15890   1.987   7.602   0.996
 1894SOL    HW115891   1.954   7.531   0.934
 1894SOL    HW215892   2.081   7.580   1.025
 1895SOL     OW15893   3.926   7.681   0.960
 1895SOL    HW115894   3.957   7.776   0.957
 1895SOL    HW215895   3.966   7.631   0.883
 1896SOL     OW15896   3.870   3.003   0.534
 1896SOL    HW115897   3.851   3.058   0.453
 1896SOL    HW215898   3.965   2.973   0.533
 1897SOL     OW15899   2.005   1.415   2.335
 1897SOL    HW115900   1.929   1.406   2.270
 1897SOL    HW215901   1.972   1.456   2.419
 1898SOL     OW15902   2.566   0.214   0.703
 1898SOL    HW115903   2.526   0.180   0.788
 1898SOL    HW215904   2.664   0.231   0.716
 1899SOL     OW15905   9.329   1.007   0.038
 1899SOL    HW115906   9.296   0.971   0.125
 1899SOL    HW215907   9.303   0.944   3.401
 1900SOL     OW15908   6.743   9.994   2.519
 1900SOL    HW115909   6.826   0.036   2.482
 1900SOL    HW215910   6.765   9.944   2.603
 1901SOL     OW15911   1.894   5.576   0.815
 1901SOL    HW115912   1.947   5.624   0.885
 1901SOL    HW215913   1.862   5.641   0.746
 1902SOL     OW15914   9.784   5.081   1.822
 1902SOL    HW115915   9.852   5.090   1.749
 1902SOL    HW215916   9.732   5.167   1.829
 1903SOL     OW15917   2.949   7.622   1.326
 1903SOL    HW115918   3.043   7.589   1.333
 1903SOL    HW215919   2.947   7.721   1.331
 1904SOL     OW15920   4.181   7.889   0.582
 1904SOL    HW115921   4.265   7.930   0.620
 1904SOL    HW215922   4.143   7.951   0.513
 1905SOL     OW15923   8.748   0.229   0.454
 1905SOL    HW115924   8.785   0.210   0.363
 1905SOL    HW215925   8.709   0.322   0.455
 1906SOL     OW15926   9.637   9.384   0.181
 1906SOL    HW115927   9.603   9.291   0.169
 1906SOL    HW215928   9.562   9.449   0.167
 1907SOL     OW15929   2.643   9.721   1.141
 1907SOL    HW115930   2.661   9.817   1.163
 1907SOL    HW215931   2.616   9.673   1.224
 1908SOL     OW15932   4.053   8.240   0.655
 1908SOL    HW115933   3.959   8.250   0.688
 1908SOL    HW215934   4.117   8.267   0.727
 1909SOL     OW15935   3.484   5.725   0.620
 1909SOL    HW115936   3.393   5.688   0.641
 1909SOL    HW215937   3.538   5.657   0.572
 1910SOL     OW15938   0.970   5.042   2.197
 1910SOL    HW115939   0.932   4.973   2.135
 1910SOL    HW215940   1.062   5.016   2.224
 1911SOL     OW15941   3.027   9.968   2.265
 1911SOL    HW115942   2.972   9.971   2.181
 1911SOL    HW215943   3.013   0.053   2.317
 1912SOL     OW15944   3.370   8.250   1.158
 1912SOL    HW115945   3.333   8.159   1.139
 1912SOL    HW215946   3.470   8.246   1.155
 1913SOL     OW15947   1.506   1.824   0.310
 1913SOL    HW115948   1.556   1.740   0.287
 1913SOL    HW215949   1.547   1.867   0.390
 1914SOL     OW15950   7.698   0.020   2.417
 1914SOL    HW115951   7.721   0.117   2.422
 1914SOL    HW215952   7.607   0.004   2.455
 1915SOL     OW15953   3.707   1.720   0.346
 1915SOL    HW115954   3.772   1.762   0.283
 1915SOL    HW215955   3.659   1.645   0.299
 1916SOL     OW15956   1.919   8.563   0.589
 1916SOL    HW115957   1.839   8.616   0.563
 1916SOL    HW215958   1.890   8.479   0.635
 1917SOL     OW15959   4.650   3.294   2.107
 1917SOL    HW115960   4.667   3.208   2.155
 1917SOL    HW215961   4.622   3.275   2.013
 1918SOL     OW15962   1.955   0.272   1.361
 1918SOL    HW115963   2.053   0.264   1.344
 1918SOL    HW215964   1.906   0.273   1.274
 1919SOL     OW15965   7.979   0.675   2.324
 1919SOL    HW115966   7.952   0.749   2.263
 1919SOL    HW215967   8.009   0.596   2.270
 1920SOL     OW15968   1.102   5.788   2.461
 1920SOL    HW115969   1.025   5.726   2.444
 1920SOL    HW215970   1.147   5.809   2.374
 1921SOL     OW15971   1.229   1.343   0.231
 1921SOL    HW115972   1.159   1.297   0.178
 1921SOL    HW215973   1.241   1.436   0.197
 1922SOL     OW15974   3.296   9.930   2.235
 1922SOL    HW115975   3.198   9.937   2.257
 1922SOL    HW215976   3.321   0.008   2.177
 1923SOL     OW15977   1.046   1.536   2.113
 1923SOL    HW115978   1.094   1.568   2.032
 1923SOL    HW215979   1.018   1.614   2.168
 1924SOL     OW15980   2.606   8.193   0.189
 1924SOL    HW115981   2.525   8.139   0.167
 1924SOL    HW215982   2.688   8.139   0.172
 1925SOL     OW15983   9.678   9.657   2.255
 1925SOL    HW115984   9.707   9.566   2.225
 1925SOL    HW215985   9.747   9.695   2.318
 1926SOL     OW15986   9.938   4.653   2.057
 1926SOL    HW115987   9.910   4.748   2.045
 1926SOL    HW215988   9.882   4.595   1.997
 1927SOL     OW15989   8.327   0.134   0.683
 1927SOL    HW115990   8.363   0.070   0.614
 1927SOL    HW215991   8.395   0.205   0.700
 1928SOL     OW15992   9.965   3.707   0.588
 1928SOL    HW115993   9.973   3.682   0.685
 1928SOL    HW215994   9.911   3.639   0.540
 1929SOL     OW15995   0.285   9.338   0.206
 1929SOL    HW115996   0.350   9.403   0.167
 1929SOL    HW215997   0.238   9.380   0.284
 1930SOL     OW15998   4.055   8.024   1.198
 1930SOL    HW115999   4.041   8.006   1.296
 1930SOL    HW216000   3.998   8.102   1.171
 1931SOL     OW16001   9.439   4.710   0.296
 1931SOL    HW116002   9.432   4.745   0.203
 1931SOL    HW216003   9.370   4.639   0.311
 1932SOL     OW16004   9.156   5.528   1.916
 1932SOL    HW116005   9.223   5.590   1.875
 1932SOL    HW216006   9.119   5.467   1.846
 1933SOL     OW16007   4.657   4.113   0.511
 1933SOL    HW116008   4.696   4.043   0.571
 1933SOL    HW216009   4.720   4.130   0.435
 1934SOL     OW16010   2.177   2.726   1.673
 1934SOL    HW116011   2.179   2.627   1.689
 1934SOL    HW216012   2.095   2.764   1.717
 1935SOL     OW16013   3.799   1.532   1.820
 1935SOL    HW116014   3.732   1.526   1.747
 1935SOL    HW216015   3.800   1.447   1.872
 1936SOL     OW16016   2.184   9.138   1.193
 1936SOL    HW116017   2.224   9.213   1.246
 1936SOL    HW216018   2.257   9.086   1.149
 1937SOL     OW16019   8.678   1.205   2.655
 1937SOL    HW116020   8.586   1.241   2.645
 1937SOL    HW216021   8.688   1.164   2.745
 1938SOL     OW16022   3.710   0.025   1.880
 1938SOL    HW116023   3.647   9.964   1.832
 1938SOL    HW216024   3.724   9.992   1.973
 1939SOL     OW16025   4.323   0.285   2.717
 1939SOL    HW116026   4.321   0.209   2.652
 1939SOL    HW216027   4.239   0.285   2.771
 1940SOL     OW16028   8.799   8.081   2.154
 1940SOL    HW116029   8.881   8.033   2.186
 1940SOL    HW216030   8.809   8.102   2.057
 1941SOL     OW16031   0.325   3.322   0.617
 1941SOL    HW116032   0.381   3.395   0.655
 1941SOL    HW216033   0.294   3.348   0.526
 1942SOL     OW16034   8.403   2.257   0.329
 1942SOL    HW116035   8.435   2.327   0.393
 1942SOL    HW216036   8.452   2.172   0.346
 1943SOL     OW16037   2.119   3.346   1.974
 1943SOL    HW116038   2.067   3.374   2.055
 1943SOL    HW216039   2.065   3.280   1.921
 1944SOL     OW16040   1.565   7.729   0.139
 1944SOL    HW116041   1.655   7.685   0.139
 1944SOL    HW216042   1.577   7.829   0.139
 1945SOL     OW16043   9.951   4.269   2.349
 1945SOL    HW116044   0.014   4.300   2.420
 1945SOL    HW216045   9.873   4.332   2.344
 1946SOL     OW16046   9.455   8.619   1.660
 1946SOL    HW116047   9.521   8.621   1.585
 1946SOL    HW216048   9.448   8.710   1.701
 1947SOL     OW16049   9.662   0.056   0.736
 1947SOL    HW116050   9.601   0.044   0.658
 1947SOL    HW216051   9.752   0.085   0.704
 1948SOL     OW16052   5.142   8.376   2.055
 1948SOL    HW116053   5.090   8.291   2.045
 1948SOL    HW216054   5.109   8.443   1.988
 1949SOL     OW16055   1.699   2.844   2.123
 1949SOL    HW116056   1.764   2.894   2.065
 1949SOL    HW216057   1.606   2.869   2.098
 1950SOL     OW16058   1.509   9.704   2.529
 1950SOL    HW116059   1.432   9.642   2.547
 1950SOL    HW216060   1.595   9.656   2.547
 1951SOL     OW16061   9.985   4.482   0.529
 1951SOL    HW116062   9.963   4.568   0.576
 1951SOL    HW216063   0.082   4.462   0.539
 1952SOL     OW16064   2.770   9.649   0.377
 1952SOL    HW116065   2.795   9.556   0.403
 1952SOL    HW216066   2.831   9.714   0.423
 1953SOL     OW16067   2.729   5.280   0.593
 1953SOL    HW116068   2.790   5.360   0.596
 1953SOL    HW216069   2.643   5.306   0.550
 1954SOL     OW16070   9.200   6.935   0.749
 1954SOL    HW116071   9.184   6.838   0.769
 1954SOL    HW216072   9.271   6.970   0.809
 1955SOL     OW16073   0.052   6.741   1.813
 1955SOL    HW116074   0.073   6.817   1.874
 1955SOL    HW216075   0.115   6.742   1.735
 1956SOL     OW16076   9.821   6.661   1.395
 1956SOL    HW116077   9.902   6.628   1.444
 1956SOL    HW216078   9.754   6.695   1.461
 1957SOL     OW16079   1.667   8.301   0.252
 1957SOL    HW116080   1.661   8.204   0.227
 1957SOL    HW216081   1.576   8.334   0.276
 1958SOL     OW16082   9.797   1.567   2.429
 1958SOL    HW116083   9.730   1.609   2.489
 1958SOL    HW216084   9.798   1.468   2.444
 1959SOL     OW16085   2.950   6.636   0.831
 1959SOL    HW116086   2.883   6.623   0.757
 1959SOL    HW216087   2.902   6.643   0.918
 1960SOL     OW16088   9.345   4.414   0.986
 1960SOL    HW116089   9.318   4.472   1.064
 1960SOL    HW216090   9.265   4.363   0.954
 1961SOL     OW16091   9.377   8.373   1.745
 1961SOL    HW116092   9.413   8.462   1.717
 1961SOL    HW216093   9.386   8.309   1.669
 1962SOL     OW16094   3.183   5.139   1.288
 1962SOL    HW116095   3.212   5.077   1.216
 1962SOL    HW216096   3.216   5.105   1.376
 1963SOL     OW16097   9.864   7.212   2.008
 1963SOL    HW116098   9.777   7.246   2.043
 1963SOL    HW216099   9.910   7.158   2.078
 1964SOL     OW16100   9.725   0.136   1.720
 1964SOL    HW116101   9.707   0.078   1.641
 1964SOL    HW216102   9.660   0.211   1.722
 1965SOL     OW16103   8.272   8.057   1.878
 1965SOL    HW116104   8.370   8.073   1.865
 1965SOL    HW216105   8.221   8.132   1.837
 1966SOL     OW16106   3.773   8.649   1.683
 1966SOL    HW116107   3.709   8.584   1.643
 1966SOL    HW216108   3.834   8.683   1.611
 1967SOL     OW16109   3.926   8.288   1.784
 1967SOL    HW116110   3.979   8.370   1.764
 1967SOL    HW216111   3.830   8.314   1.800
 1968SOL     OW16112   9.945   6.540   2.436
 1968SOL    HW116113   0.029   6.574   2.478
 1968SOL    HW216114   9.868   6.595   2.467
 1969SOL     OW16115   2.768   7.915   1.914
 1969SOL    HW116116   2.746   7.990   1.976
 1969SOL    HW216117   2.799   7.836   1.968
 1970SOL     OW16118   9.802   3.845   1.780
 1970SOL    HW116119   9.816   3.832   1.682
 1970SOL    HW216120   9.830   3.938   1.805
 1971SOL     OW16121   0.283   7.418   2.461
 1971SOL    HW116122   0.338   7.406   2.378
 1971SOL    HW216123   0.331   7.480   2.523
 1972SOL     OW16124   9.642   3.933   0.334
 1972SOL    HW116125   9.573   3.997   0.367
 1972SOL    HW216126   9.733   3.972   0.347
 1973SOL     OW16127   1.984   8.837   2.163
 1973SOL    HW116128   1.962   8.791   2.249
 1973SOL    HW216129   1.996   8.769   2.091
 1974SOL     OW16130   0.238   9.565   1.133
 1974SOL    HW116131   0.325   9.614   1.131
 1974SOL    HW216132   0.242   9.492   1.201
 1975SOL     OW16133   9.665   0.749   2.414
 1975SOL    HW116134   9.590   0.688   2.440
 1975SOL    HW216135   9.652   0.839   2.455
 1976SOL     OW16136   3.624   1.852   0.692
 1976SOL    HW116137   3.666   1.943   0.690
 1976SOL    HW216138   3.692   1.783   0.668
 1977SOL     OW16139   9.224   9.518   0.607
 1977SOL    HW116140   9.191   9.479   0.521
 1977SOL    HW216141   9.322   9.535   0.600
 1978SOL     OW16142   2.456   3.897   2.280
 1978SOL    HW116143   2.464   3.880   2.378
 1978SOL    HW216144   2.397   3.827   2.239
 1979SOL     OW16145   4.558   1.949   0.903
 1979SOL    HW116146   4.524   2.040   0.881
 1979SOL    HW216147   4.646   1.957   0.950
 1980SOL     OW16148   2.059   6.138   1.403
 1980SOL    HW116149   2.032   6.058   1.457
 1980SOL    HW216150   2.015   6.134   1.313
 1981SOL     OW16151   1.932   0.126   0.084
 1981SOL    HW116152   1.880   0.211   0.085
 1981SOL    HW216153   1.944   0.094   3.427
 1982SOL     OW16154   2.398   9.464   2.510
 1982SOL    HW116155   2.318   9.524   2.515
 1982SOL    HW216156   2.399   9.416   2.423
 1983SOL     OW16157   5.001   3.249   1.646
 1983SOL    HW116158   4.924   3.292   1.692
 1983SOL    HW216159   4.976   3.156   1.619
 1984SOL     OW16160   4.365   8.618   1.776
 1984SOL    HW116161   4.357   8.693   1.710
 1984SOL    HW216162   4.423   8.546   1.737
 1985SOL     OW16163   7.045   8.918   2.705
 1985SOL    HW116164   7.061   8.926   2.803
 1985SOL    HW216165   7.124   8.876   2.661
 1986SOL     OW16166   2.747   0.056   2.324
 1986SOL    HW116167   2.781   0.046   2.231
 1986SOL    HW216168   2.648   0.070   2.322
 1987SOL     OW16169   7.237   0.088   0.848
 1987SOL    HW116170   7.174   0.046   0.913
 1987SOL    HW216171   7.223   0.049   0.757
 1988SOL     OW16172   0.617   8.153   0.552
 1988SOL    HW116173   0.584   8.248   0.556
 1988SOL    HW216174   0.583   8.103   0.633
 1989SOL     OW16175   2.703   5.247   0.865
 1989SOL    HW116176   2.718   5.255   0.766
 1989SOL    HW216177   2.782   5.202   0.907
 1990SOL     OW16178   4.039   8.073   0.435
 1990SOL    HW116179   3.964   8.105   0.377
 1990SOL    HW216180   4.047   8.133   0.514
 1991SOL     OW16181   1.878   2.144   0.200
 1991SOL    HW116182   1.924   2.076   0.258
 1991SOL    HW216183   1.892   2.235   0.238
 1992SOL     OW16184   8.615   3.361   2.425
 1992SOL    HW116185   8.541   3.318   2.372
 1992SOL    HW216186   8.584   3.449   2.460
 1993SOL     OW16187   4.498   8.376   1.701
 1993SOL    HW116188   4.412   8.343   1.742
 1993SOL    HW216189   4.570   8.375   1.771
 1994SOL     OW16190   1.127   8.686   0.138
 1994SOL    HW116191   1.082   8.597   0.132
 1994SOL    HW216192   1.058   8.759   0.130
 1995SOL     OW16193   8.265   5.079   2.527
 1995SOL    HW116194   8.308   5.119   2.447
 1995SOL    HW216195   8.312   4.995   2.552
 1996SOL     OW16196   8.837   9.316   2.010
 1996SOL    HW116197   8.824   9.406   1.969
 1996SOL    HW216198   8.797   9.316   2.102
 1997SOL     OW16199   4.327   3.910   2.591
 1997SOL    HW116200   4.322   4.006   2.564
 1997SOL    HW216201   4.267   3.894   2.670
 1998SOL     OW16202   0.386   0.374   1.104
 1998SOL    HW116203   0.368   0.364   1.006
 1998SOL    HW216204   0.351   0.462   1.136
 1999SOL     OW16205   8.938   9.631   0.366
 1999SOL    HW116206   8.869   9.621   0.438
 1999SOL    HW216207   8.999   9.551   0.368
 2000SOL     OW16208   3.659   0.613   2.010
 2000SOL    HW116209   3.684   0.710   2.012
 2000SOL    HW216210   3.714   0.563   2.076
 2001SOL     OW16211   1.151   2.372   1.523
 2001SOL    HW116212   1.180   2.276   1.526
 2001SOL    HW216213   1.209   2.422   1.459
 2002SOL     OW16214   4.197   3.948   2.079
 2002SOL    HW116215   4.273   3.893   2.114
 2002SOL    HW216216   4.131   3.888   2.033
 2003SOL     OW16217   4.011   9.125   1.018
 2003SOL    HW116218   4.057   9.080   1.094
 2003SOL    HW216219   4.072   9.130   0.939
 2004SOL     OW16220   9.497   7.395   1.612
 2004SOL    HW116221   9.583   7.350   1.591
 2004SOL    HW216222   9.463   7.363   1.701
 2005SOL     OW16223   0.371   5.756   1.014
 2005SOL    HW116224   0.296   5.786   0.954
 2005SOL    HW216225   0.458   5.786   0.975
 2006SOL     OW16226   1.213   3.037   1.903
 2006SOL    HW116227   1.229   3.034   2.002
 2006SOL    HW216228   1.122   3.001   1.883
 2007SOL     OW16229   4.315   4.171   2.517
 2007SOL    HW116230   4.306   4.155   2.418
 2007SOL    HW216231   4.371   4.252   2.533
 2008SOL     OW16232   9.938   0.320   1.811
 2008SOL    HW116233   0.022   0.302   1.760
 2008SOL    HW216234   9.865   0.260   1.777
 2009SOL     OW16235   9.082   9.271   1.903
 2009SOL    HW116236   8.998   9.283   1.955
 2009SOL    HW216237   9.129   9.188   1.935
 2010SOL     OW16238   7.517   9.429   1.915
 2010SOL    HW116239   7.469   9.376   1.985
 2010SOL    HW216240   7.455   9.498   1.877
 2011SOL     OW16241   2.017   9.894   1.992
 2011SOL    HW116242   1.919   9.900   1.975
 2011SOL    HW216243   2.038   9.942   2.078
 2012SOL     OW16244   2.445   6.302   0.542
 2012SOL    HW116245   2.533   6.255   0.541
 2012SOL    HW216246   2.376   6.244   0.500
 2013SOL     OW16247   3.060   7.385   0.476
 2013SOL    HW116248   3.033   7.347   0.388
 2013SOL    HW216249   2.980   7.417   0.526
 2014SOL     OW16250   2.913   4.516   0.643
 2014SOL    HW116251   2.820   4.531   0.611
 2014SOL    HW216252   2.926   4.419   0.664
 2015SOL     OW16253   1.273   5.412   0.299
 2015SOL    HW116254   1.306   5.496   0.342
 2015SOL    HW216255   1.318   5.400   0.211
 2016SOL     OW16256   8.409   8.237   2.202
 2016SOL    HW116257   8.312   8.218   2.210
 2016SOL    HW216258   8.461   8.156   2.231
 2017SOL     OW16259   4.473   7.737   1.104
 2017SOL    HW116260   4.400   7.669   1.092
 2017SOL    HW216261   4.432   7.827   1.120
 2018SOL     OW16262   9.941   7.716   1.734
 2018SOL    HW116263   9.978   7.686   1.647
 2018SOL    HW216264   9.851   7.756   1.720
 2019SOL     OW16265   9.530   5.101   2.242
 2019SOL    HW116266   9.516   5.130   2.148
 2019SOL    HW216267   9.547   5.002   2.245
 2020SOL     OW16268   4.787   0.126   1.869
 2020SOL    HW116269   4.698   0.087   1.849
 2020SOL    HW216270   4.799   0.212   1.819
 2021SOL     OW16271   7.585   1.697   0.854
 2021SOL    HW116272   7.667   1.650   0.887
 2021SOL    HW216273   7.578   1.787   0.896
 2022SOL     OW16274   1.260   9.096   1.234
 2022SOL    HW116275   1.262   9.196   1.232
 2022SOL    HW216276   1.352   9.061   1.252
 2023SOL     OW16277   9.188   6.456   2.377
 2023SOL    HW116278   9.245   6.534   2.352
 2023SOL    HW216279   9.214   6.423   2.468
 2024SOL     OW16280   7.123   9.500   0.088
 2024SOL    HW116281   7.121   9.534   0.182
 2024SOL    HW216282   7.190   9.426   0.080
 2025SOL     OW16283   0.156   3.275   0.829
 2025SOL    HW116284   0.213   3.275   0.747
 2025SOL    HW216285   0.155   3.366   0.869
 2026SOL     OW16286   3.089   9.145   1.741
 2026SOL    HW116287   3.044   9.213   1.799
 2026SOL    HW216288   3.187   9.165   1.735
 2027SOL     OW16289   1.121   7.086   1.127
 2027SOL    HW116290   1.027   7.065   1.155
 2027SOL    HW216291   1.180   7.008   1.148
 2028SOL     OW16292   1.997   2.665   0.972
 2028SOL    HW116293   1.945   2.708   1.046
 2028SOL    HW216294   2.091   2.650   1.002
 2029SOL     OW16295   3.643   0.133   0.522
 2029SOL    HW116296   3.714   0.203   0.512
 2029SOL    HW216297   3.650   0.067   0.447
 2030SOL     OW16298   1.760   8.591   0.232
 2030SOL    HW116299   1.842   8.644   0.210
 2030SOL    HW216300   1.782   8.493   0.232
 2031SOL     OW16301   2.771   9.497   1.570
 2031SOL    HW116302   2.852   9.527   1.620
 2031SOL    HW216303   2.798   9.436   1.495
 2032SOL     OW16304   0.725   9.126   1.352
 2032SOL    HW116305   0.689   9.109   1.260
 2032SOL    HW216306   0.824   9.140   1.347
 2033SOL     OW16307   4.506   9.080   0.174
 2033SOL    HW116308   4.498   9.062   0.272
 2033SOL    HW216309   4.482   8.998   0.122
 2034SOL     OW16310   8.401   9.514   0.901
 2034SOL    HW116311   8.325   9.572   0.934
 2034SOL    HW216312   8.373   9.468   0.817
 2035SOL     OW16313   0.349   6.827   0.504
 2035SOL    HW116314   0.259   6.869   0.517
 2035SOL    HW216315   0.411   6.895   0.465
 2036SOL     OW16316   9.847   9.725   1.837
 2036SOL    HW116317   9.846   9.625   1.838
 2036SOL    HW216318   9.860   9.758   1.744
 2037SOL     OW16319   1.963   1.377   1.729
 2037SOL    HW116320   2.041   1.433   1.756
 2037SOL    HW216321   1.987   1.323   1.648
 2038SOL     OW16322   0.720   2.029   1.786
 2038SOL    HW116323   0.811   1.992   1.771
 2038SOL    HW216324   0.694   2.086   1.708
 2039SOL     OW16325   8.989   1.061   1.318
 2039SOL    HW116326   9.030   1.066   1.409
 2039SOL    HW216327   9.060   1.073   1.249
 2040SOL     OW16328   9.425   3.227   1.012
 2040SOL    HW116329   9.451   3.132   0.998
 2040SOL    HW216330   9.401   3.242   1.108
 2041SOL     OW16331   3.972   8.368   0.166
 2041SOL    HW116332   4.063   8.337   0.139
 2041SOL    HW216333   3.925   8.295   0.216
 2042SOL     OW16334   3.643   4.600   0.995
 2042SOL    HW116335   3.610   4.661   0.923
 2042SOL    HW216336   3.712   4.538   0.958
 2043SOL     OW16337   3.262   5.934   1.815
 2043SOL    HW116338   3.307   6.018   1.843
 2043SOL    HW216339   3.329   5.860   1.810
 2044SOL     OW16340   4.162   7.980   1.986
 2044SOL    HW116341   4.165   8.079   1.999
 2044SOL    HW216342   4.255   7.943   1.991
 2045SOL     OW16343   4.385   4.757   2.235
 2045SOL    HW116344   4.396   4.855   2.255
 2045SOL    HW216345   4.367   4.745   2.138
 2046SOL     OW16346   0.337   5.281   0.673
 2046SOL    HW116347   0.280   5.239   0.744
 2046SOL    HW216348   0.433   5.254   0.687
 2047SOL     OW16349   0.471   4.069   2.552
 2047SOL    HW116350   0.421   4.135   2.497
 2047SOL    HW216351   0.453   3.977   2.517
 2048SOL     OW16352   1.868   4.474   0.325
 2048SOL    HW116353   1.785   4.510   0.367
 2048SOL    HW216354   1.948   4.500   0.380
 2049SOL     OW16355   1.780   4.692   2.205
 2049SOL    HW116356   1.860   4.735   2.165
 2049SOL    HW216357   1.796   4.674   2.302
 2050SOL     OW16358   2.756   1.355   2.092
 2050SOL    HW116359   2.679   1.328   2.149
 2050SOL    HW216360   2.825   1.283   2.092
 2051SOL     OW16361   1.286   3.688   1.390
 2051SOL    HW116362   1.210   3.636   1.427
 2051SOL    HW216363   1.274   3.785   1.410
 2052SOL     OW16364   3.682   4.969   2.103
 2052SOL    HW116365   3.584   4.970   2.118
 2052SOL    HW216366   3.712   5.057   2.067
 2053SOL     OW16367   9.450   6.596   0.781
 2053SOL    HW116368   9.354   6.612   0.757
 2053SOL    HW216369   9.479   6.508   0.744
 2054SOL     OW16370   7.921   3.881   0.311
 2054SOL    HW116371   7.915   3.840   0.402
 2054SOL    HW216372   7.909   3.980   0.317
 2055SOL     OW16373   0.601   0.928   1.567
 2055SOL    HW116374   0.557   0.985   1.497
 2055SOL    HW216375   0.597   0.832   1.539
 2056SOL     OW16376   0.192   5.971   2.306
 2056SOL    HW116377   0.160   5.917   2.228
 2056SOL    HW216378   0.291   5.986   2.297
 2057SOL     OW16379   0.464   9.635   2.060
 2057SOL    HW116380   0.509   9.664   1.976
 2057SOL    HW216381   0.462   9.710   2.125
 2058SOL     OW16382   0.703   8.461   0.849
 2058SOL    HW116383   0.609   8.493   0.842
 2058SOL    HW216384   0.754   8.490   0.768
 2059SOL     OW16385   8.275   3.334   0.981
 2059SOL    HW116386   8.196   3.278   1.002
 2059SOL    HW216387   8.265   3.424   1.024
 2060SOL     OW16388   0.710   8.195   0.907
 2060SOL    HW116389   0.688   8.290   0.886
 2060SOL    HW216390   0.641   8.135   0.866
 2061SOL     OW16391   9.899   1.362   0.624
 2061SOL    HW116392   9.950   1.278   0.605
 2061SOL    HW216393   9.934   1.436   0.567
 2062SOL     OW16394   2.870   0.293   1.985
 2062SOL    HW116395   2.930   0.362   1.944
 2062SOL    HW216396   2.899   0.275   2.079
 2063SOL     OW16397   9.510   6.930   0.098
 2063SOL    HW116398   9.595   6.957   0.144
 2063SOL    HW216399   9.443   6.901   0.166
 2064SOL     OW16400   2.500   8.773   0.667
 2064SOL    HW116401   2.461   8.807   0.581
 2064SOL    HW216402   2.451   8.814   0.744
 2065SOL     OW16403   8.617   0.063   1.159
 2065SOL    HW116404   8.618   0.049   1.060
 2065SOL    HW216405   8.701   0.110   1.186
 2066SOL     OW16406   2.621   0.312   1.283
 2066SOL    HW116407   2.564   0.234   1.311
 2066SOL    HW216408   2.598   0.337   1.189
 2067SOL     OW16409   4.200   8.519   1.482
 2067SOL    HW116410   4.117   8.529   1.428
 2067SOL    HW216411   4.274   8.573   1.441
 2068SOL     OW16412   0.556   9.162   2.414
 2068SOL    HW116413   0.607   9.094   2.467
 2068SOL    HW216414   0.459   9.141   2.419
 2069SOL     OW16415   2.161   9.608   2.516
 2069SOL    HW116416   2.154   9.707   2.527
 2069SOL    HW216417   2.089   9.563   2.569
 2070SOL     OW16418   2.875   7.215   1.402
 2070SOL    HW116419   2.932   7.269   1.340
 2070SOL    HW216420   2.792   7.267   1.424
 2071SOL     OW16421   0.965   5.699   0.849
 2071SOL    HW116422   0.948   5.676   0.753
 2071SOL    HW216423   1.028   5.777   0.854
 2072SOL     OW16424   4.403   0.862   1.973
 2072SOL    HW116425   4.428   0.788   1.910
 2072SOL    HW216426   4.433   0.837   2.065
 2073SOL     OW16427   1.564   6.793   1.650
 2073SOL    HW116428   1.518   6.747   1.726
 2073SOL    HW216429   1.528   6.886   1.640
 2074SOL     OW16430   0.921   2.368   0.473
 2074SOL    HW116431   0.952   2.273   0.479
 2074SOL    HW216432   0.908   2.405   0.565
 2075SOL     OW16433   1.439   9.270   0.455
 2075SOL    HW116434   1.355   9.233   0.415
 2075SOL    HW216435   1.502   9.295   0.381
 2076SOL     OW16436   3.942   2.719   0.682
 2076SOL    HW116437   3.861   2.761   0.723
 2076SOL    HW216438   3.991   2.786   0.627
 2077SOL     OW16439   8.696   2.937   2.335
 2077SOL    HW116440   8.637   2.974   2.262
 2077SOL    HW216441   8.640   2.888   2.401
 2078SOL     OW16442   0.222   1.055   1.138
 2078SOL    HW116443   0.286   0.988   1.098
 2078SOL    HW216444   0.136   1.010   1.159
 2079SOL     OW16445   1.205   5.237   1.040
 2079SOL    HW116446   1.208   5.161   0.975
 2079SOL    HW216447   1.167   5.318   0.996
 2080SOL     OW16448   3.797   8.539   1.939
 2080SOL    HW116449   3.799   8.608   2.010
 2080SOL    HW216450   3.802   8.582   1.849
 2081SOL     OW16451   4.763   9.291   0.289
 2081SOL    HW116452   4.685   9.325   0.235
 2081SOL    HW216453   4.759   9.192   0.295
 2082SOL     OW16454   1.882   3.436   0.394
 2082SOL    HW116455   1.976   3.429   0.361
 2082SOL    HW216456   1.857   3.532   0.405
 2083SOL     OW16457   1.357   9.511   2.213
 2083SOL    HW116458   1.373   9.445   2.287
 2083SOL    HW216459   1.261   9.539   2.213
 2084SOL     OW16460   9.225   8.026   1.721
 2084SOL    HW116461   9.191   8.081   1.797
 2084SOL    HW216462   9.289   8.080   1.667
 2085SOL     OW16463   0.559   2.559   2.036
 2085SOL    HW116464   0.488   2.537   2.104
 2085SOL    HW216465   0.542   2.508   1.952
 2086SOL     OW16466   3.134   8.955   2.085
 2086SOL    HW116467   3.179   9.032   2.130
 2086SOL    HW216468   3.188   8.927   2.006
 2087SOL     OW16469   4.222   8.952   0.379
 2087SOL    HW116470   4.320   8.970   0.380
 2087SOL    HW216471   4.173   9.029   0.420
 2088SOL     OW16472   1.866   8.226   0.426
 2088SOL    HW116473   1.789   8.266   0.377
 2088SOL    HW216474   1.930   8.187   0.360
 2089SOL     OW16475   3.904   4.888   0.578
 2089SOL    HW116476   3.820   4.853   0.538
 2089SOL    HW216477   3.916   4.984   0.552
 2090SOL     OW16478   0.905   9.950   0.858
 2090SOL    HW116479   0.984   9.898   0.827
 2090SOL    HW216480   0.934   0.019   0.924
 2091SOL     OW16481   4.031   9.333   0.317
 2091SOL    HW116482   4.042   9.263   0.247
 2091SOL    HW216483   4.061   9.421   0.282
 2092SOL     OW16484   1.371   9.284   0.078
 2092SOL    HW116485   1.291   9.340   0.098
 2092SOL    HW216486   1.360   9.195   0.122
 2093SOL     OW16487   8.621   0.760   0.947
 2093SOL    HW116488   8.532   0.715   0.940
 2093SOL    HW216489   8.658   0.749   1.039
 2094SOL     OW16490   2.197   5.544   1.843
 2094SOL    HW116491   2.106   5.580   1.865
 2094SOL    HW216492   2.195   5.503   1.752
 2095SOL     OW16493   2.119   9.247   1.625
 2095SOL    HW116494   2.174   9.317   1.580
 2095SOL    HW216495   2.030   9.285   1.649
 2096SOL     OW16496   9.476   9.527   0.886
 2096SOL    HW116497   9.498   9.550   0.791
 2096SOL    HW216498   9.381   9.498   0.892
 2097SOL     OW16499   7.190   0.856   0.740
 2097SOL    HW116500   7.236   0.944   0.753
 2097SOL    HW216501   7.258   0.783   0.733
 2098SOL     OW16502   4.265   4.519   1.006
 2098SOL    HW116503   4.279   4.583   0.931
 2098SOL    HW216504   4.330   4.443   0.998
 2099SOL     OW16505   9.261   5.473   0.891
 2099SOL    HW116506   9.323   5.395   0.895
 2099SOL    HW216507   9.169   5.442   0.866
 2100SOL     OW16508   0.710   3.022   1.807
 2100SOL    HW116509   0.674   3.113   1.831
 2100SOL    HW216510   0.642   2.952   1.829
 2101SOL     OW16511   3.848   9.566   0.872
 2101SOL    HW116512   3.888   9.555   0.781
 2101SOL    HW216513   3.772   9.502   0.882
 2102SOL     OW16514   0.164   6.093   2.558
 2102SOL    HW116515   0.181   6.035   2.478
 2102SOL    HW216516   0.080   6.145   2.543
 2103SOL     OW16517   9.227   1.346   0.386
 2103SOL    HW116518   9.131   1.344   0.356
 2103SOL    HW216519   9.240   1.280   0.461
 2104SOL     OW16520   9.756   9.577   0.515
 2104SOL    HW116521   9.731   9.672   0.495
 2104SOL    HW216522   9.797   9.535   0.434
 2105SOL     OW16523   5.964   9.871   2.540
 2105SOL    HW116524   5.866   9.849   2.532
 2105SOL    HW216525   6.009   9.856   2.453
 2106SOL     OW16526   1.735   7.432   0.391
 2106SOL    HW116527   1.675   7.368   0.439
 2106SOL    HW216528   1.829   7.417   0.420
 2107SOL     OW16529   2.695   3.214   2.312
 2107SOL    HW116530   2.609   3.203   2.261
 2107SOL    HW216531   2.681   3.188   2.407
 2108SOL     OW16532   0.214   9.394   0.648
 2108SOL    HW116533   0.187   9.435   0.561
 2108SOL    HW216534   0.235   9.466   0.714
 2109SOL     OW16535   7.710   0.719   1.183
 2109SOL    HW116536   7.731   0.643   1.121
 2109SOL    HW216537   7.765   0.709   1.266
 2110SOL     OW16538   9.488   4.728   2.495
 2110SOL    HW116539   9.401   4.774   2.512
 2110SOL    HW216540   9.533   4.770   2.416
 2111SOL     OW16541   8.543   6.733   1.076
 2111SOL    HW116542   8.525   6.774   0.987
 2111SOL    HW216543   8.636   6.756   1.105
 2112SOL     OW16544   3.131   2.286   0.506
 2112SOL    HW116545   3.042   2.253   0.474
 2112SOL    HW216546   3.169   2.349   0.439
 2113SOL     OW16547   0.207   6.058   0.701
 2113SOL    HW116548   0.269   6.024   0.631
 2113SOL    HW216549   0.238   6.149   0.731
 2114SOL     OW16550   8.728   0.164   2.301
 2114SOL    HW116551   8.667   0.200   2.372
 2114SOL    HW216552   8.715   0.065   2.293
 2115SOL     OW16553   0.792   3.209   0.724
 2115SOL    HW116554   0.889   3.185   0.728
 2115SOL    HW216555   0.782   3.297   0.676
 2116SOL     OW16556   3.531   0.234   1.088
 2116SOL    HW116557   3.503   0.279   1.003
 2116SOL    HW216558   3.582   0.151   1.066
 2117SOL     OW16559   1.912   5.472   2.402
 2117SOL    HW116560   2.001   5.494   2.363
 2117SOL    HW216561   1.880   5.385   2.366
 2118SOL     OW16562   1.823   7.270   1.390
 2118SOL    HW116563   1.815   7.175   1.421
 2118SOL    HW216564   1.745   7.292   1.331
 2119SOL     OW16565   4.175   8.244   2.048
 2119SOL    HW116566   4.214   8.225   2.139
 2119SOL    HW216567   4.117   8.326   2.054
 2120SOL     OW16568   1.191   1.231   1.785
 2120SOL    HW116569   1.210   1.266   1.877
 2120SOL    HW216570   1.095   1.202   1.780
 2121SOL     OW16571   9.793   6.633   1.785
 2121SOL    HW116572   9.812   6.538   1.809
 2121SOL    HW216573   9.877   6.686   1.789
 2122SOL     OW16574   3.595   7.413   2.347
 2122SOL    HW116575   3.684   7.371   2.336
 2122SOL    HW216576   3.583   7.440   2.443
 2123SOL     OW16577   7.367   8.335   2.522
 2123SOL    HW116578   7.453   8.386   2.520
 2123SOL    HW216579   7.386   8.238   2.515
 2124SOL     OW16580   3.569   2.680   1.022
 2124SOL    HW116581   3.514   2.746   1.072
 2124SOL    HW216582   3.661   2.678   1.060
 2125SOL     OW16583   2.736   8.871   0.794
 2125SOL    HW116584   2.660   8.826   0.747
 2125SOL    HW216585   2.701   8.937   0.859
 2126SOL     OW16586   1.795   1.727   2.280
 2126SOL    HW116587   1.786   1.755   2.376
 2126SOL    HW216588   1.796   1.627   2.275
 2127SOL     OW16589   1.566   7.062   0.090
 2127SOL    HW116590   1.557   7.049   3.428
 2127SOL    HW216591   1.568   6.973   0.136
 2128SOL     OW16592   3.616   2.671   1.996
 2128SOL    HW116593   3.707   2.695   1.964
 2128SOL    HW216594   3.594   2.577   1.970
 2129SOL     OW16595   8.760   0.552   2.133
 2129SOL    HW116596   8.700   0.595   2.201
 2129SOL    HW216597   8.848   0.531   2.176
 2130SOL     OW16598   9.830   4.844   1.119
 2130SOL    HW116599   9.832   4.942   1.139
 2130SOL    HW216600   9.924   4.808   1.119
 2131SOL     OW16601   2.527   2.072   0.334
 2131SOL    HW116602   2.536   1.982   0.291
 2131SOL    HW216603   2.431   2.090   0.356
 2132SOL     OW16604   9.566   6.649   1.983
 2132SOL    HW116605   9.654   6.660   1.937
 2132SOL    HW216606   9.507   6.590   1.928
 2133SOL     OW16607   1.470   8.481   2.413
 2133SOL    HW116608   1.558   8.524   2.390
 2133SOL    HW216609   1.399   8.551   2.416
 2134SOL     OW16610   9.097   9.801   1.624
 2134SOL    HW116611   9.088   9.717   1.677
 2134SOL    HW216612   9.192   9.811   1.594
 2135SOL     OW16613   3.694   1.596   2.612
 2135SOL    HW116614   3.639   1.647   2.678
 2135SOL    HW216615   3.665   1.619   2.519
 2136SOL     OW16616   3.800   1.658   0.608
 2136SOL    HW116617   3.777   1.672   0.511
 2136SOL    HW216618   3.785   1.562   0.632
 2137SOL     OW16619   9.847   7.181   0.420
 2137SOL    HW116620   9.811   7.120   0.350
 2137SOL    HW216621   9.773   7.235   0.459
 2138SOL     OW16622   2.067   5.461   1.065
 2138SOL    HW116623   2.065   5.558   1.039
 2138SOL    HW216624   2.159   5.438   1.098
 2139SOL     OW16625   2.494   6.201   2.063
 2139SOL    HW116626   2.541   6.202   2.152
 2139SOL    HW216627   2.546   6.146   1.998
 2140SOL     OW16628   7.721   1.380   3.436
 2140SOL    HW116629   7.769   1.453   0.048
 2140SOL    HW216630   7.628   1.372   0.035
 2141SOL     OW16631   0.258   6.583   0.898
 2141SOL    HW116632   0.208   6.664   0.929
 2141SOL    HW216633   0.322   6.609   0.826
 2142SOL     OW16634   9.570   2.766   2.611
 2142SOL    HW116635   9.539   2.739   2.702
 2142SOL    HW216636   9.493   2.765   2.548
 2143SOL     OW16637   9.825   4.727   2.374
 2143SOL    HW116638   9.916   4.756   2.345
 2143SOL    HW216639   9.818   4.731   2.474
 2144SOL     OW16640   8.563   8.395   1.352
 2144SOL    HW116641   8.652   8.350   1.340
 2144SOL    HW216642   8.490   8.333   1.322
 2145SOL     OW16643   8.054   8.787   2.470
 2145SOL    HW116644   7.997   8.866   2.492
 2145SOL    HW216645   8.003   8.723   2.413
 2146SOL     OW16646   9.042   8.972   0.337
 2146SOL    HW116647   8.952   9.015   0.330
 2146SOL    HW216648   9.060   8.918   0.255
 2147SOL     OW16649   3.304   4.360   1.247
 2147SOL    HW116650   3.339   4.416   1.173
 2147SOL    HW216651   3.312   4.410   1.334
 2148SOL     OW16652   1.156   5.887   0.750
 2148SOL    HW116653   1.192   5.802   0.711
 2148SOL    HW216654   1.172   5.963   0.687
 2149SOL     OW16655   4.082   7.860   2.562
 2149SOL    HW116656   4.033   7.942   2.533
 2149SOL    HW216657   4.179   7.882   2.574
 2150SOL     OW16658   1.852   7.834   0.314
 2150SOL    HW116659   1.898   7.810   0.400
 2150SOL    HW216660   1.837   7.751   0.260
 2151SOL     OW16661   2.770   4.851   0.881
 2151SOL    HW116662   2.741   4.758   0.902
 2151SOL    HW216663   2.811   4.853   0.790
 2152SOL     OW16664   5.601   8.911   2.627
 2152SOL    HW116665   5.524   8.848   2.635
 2152SOL    HW216666   5.582   8.976   2.554
 2153SOL     OW16667   8.949   3.548   2.329
 2153SOL    HW116668   8.884   3.488   2.281
 2153SOL    HW216669   9.000   3.495   2.396
 2154SOL     OW16670   1.214   0.794   0.767
 2154SOL    HW116671   1.247   0.834   0.681
 2154SOL    HW216672   1.289   0.794   0.834
 2155SOL     OW16673   2.831   9.541   2.583
 2155SOL    HW116674   2.929   9.560   2.576
 2155SOL    HW216675   2.813   9.449   2.546
 2156SOL     OW16676   8.396   4.869   0.508
 2156SOL    HW116677   8.340   4.786   0.508
 2156SOL    HW216678   8.444   4.877   0.596
 2157SOL     OW16679   8.698   1.598   0.917
 2157SOL    HW116680   8.761   1.579   0.992
 2157SOL    HW216681   8.660   1.690   0.928
 2158SOL     OW16682   3.100   4.368   2.042
 2158SOL    HW116683   3.026   4.434   2.025
 2158SOL    HW216684   3.184   4.418   2.064
 2159SOL     OW16685   2.698   0.005   1.471
 2159SOL    HW116686   2.666   9.935   1.536
 2159SOL    HW216687   2.619   0.051   1.431
 2160SOL     OW16688   4.335   3.395   1.812
 2160SOL    HW116689   4.298   3.467   1.870
 2160SOL    HW216690   4.369   3.435   1.726
 2161SOL     OW16691   3.255   8.159   2.318
 2161SOL    HW116692   3.316   8.114   2.383
 2161SOL    HW216693   3.309   8.201   2.246
 2162SOL     OW16694   4.186   8.713   1.179
 2162SOL    HW116695   4.105   8.664   1.213
 2162SOL    HW216696   4.267   8.681   1.228
 2163SOL     OW16697   1.095   4.126   0.124
 2163SOL    HW116698   1.027   4.093   0.058
 2163SOL    HW216699   1.073   4.089   0.215
 2164SOL     OW16700   7.815   8.541   1.724
 2164SOL    HW116701   7.855   8.530   1.815
 2164SOL    HW216702   7.718   8.563   1.732
 2165SOL     OW16703   1.574   9.674   2.260
 2165SOL    HW116704   1.493   9.627   2.225
 2165SOL    HW216705   1.559   9.699   2.355
 2166SOL     OW16706   2.943   5.365   2.054
 2166SOL    HW116707   3.041   5.354   2.068
 2166SOL    HW216708   2.922   5.461   2.038
 2167SOL     OW16709   7.355   1.812   0.534
 2167SOL    HW116710   7.345   1.760   0.619
 2167SOL    HW216711   7.271   1.803   0.479
 2168SOL     OW16712   8.896   3.020   2.502
 2168SOL    HW116713   8.979   3.059   2.462
 2168SOL    HW216714   8.832   2.997   2.429
 2169SOL     OW16715   9.431   9.559   2.342
 2169SOL    HW116716   9.509   9.620   2.334
 2169SOL    HW216717   9.452   9.471   2.300
 2170SOL     OW16718   1.628   6.382   2.416
 2170SOL    HW116719   1.555   6.314   2.421
 2170SOL    HW216720   1.589   6.473   2.402
 2171SOL     OW16721   4.708   1.723   2.228
 2171SOL    HW116722   4.698   1.678   2.316
 2171SOL    HW216723   4.784   1.681   2.177
 2172SOL     OW16724   0.502   0.145   0.277
 2172SOL    HW116725   0.577   0.210   0.262
 2172SOL    HW216726   0.510   0.069   0.213
 2173SOL     OW16727   0.585   5.607   0.587
 2173SOL    HW116728   0.492   5.585   0.615
 2173SOL    HW216729   0.648   5.542   0.630
 2174SOL     OW16730   9.671   9.209   1.132
 2174SOL    HW116731   9.644   9.226   1.037
 2174SOL    HW216732   9.590   9.188   1.187
 2175SOL     OW16733   7.856   5.540   0.520
 2175SOL    HW116734   7.775   5.569   0.468
 2175SOL    HW216735   7.916   5.487   0.459
 2176SOL     OW16736   5.024   0.512   2.733
 2176SOL    HW116737   4.925   0.516   2.739
 2176SOL    HW216738   5.063   0.517   2.825
 2177SOL     OW16739   2.894   0.352   1.339
 2177SOL    HW116740   2.796   0.350   1.318
 2177SOL    HW216741   2.928   0.258   1.346
 2178SOL     OW16742   9.162   9.137   1.257
 2178SOL    HW116743   9.104   9.214   1.280
 2178SOL    HW216744   9.258   9.165   1.263
 2179SOL     OW16745   0.417   4.952   1.821
 2179SOL    HW116746   0.499   4.964   1.876
 2179SOL    HW216747   0.442   4.940   1.725
 2180SOL     OW16748   8.685   1.364   1.798
 2180SOL    HW116749   8.702   1.429   1.725
 2180SOL    HW216750   8.631   1.287   1.763
 2181SOL     OW16751   9.081   2.034   2.542
 2181SOL    HW116752   8.990   2.072   2.558
 2181SOL    HW216753   9.142   2.107   2.512
 2182SOL     OW16754   4.144   3.436   2.151
 2182SOL    HW116755   4.235   3.400   2.171
 2182SOL    HW216756   4.125   3.513   2.212
 2183SOL     OW16757   0.510   5.474   0.346
 2183SOL    HW116758   0.525   5.526   0.262
 2183SOL    HW216759   0.545   5.526   0.424
 2184SOL     OW16760   3.728   0.108   2.482
 2184SOL    HW116761   3.656   0.057   2.434
 2184SOL    HW216762   3.809   0.051   2.490
 2185SOL     OW16763   1.039   2.181   1.174
 2185SOL    HW116764   0.963   2.239   1.204
 2185SOL    HW216765   1.122   2.237   1.166
 2186SOL     OW16766   4.613   2.424   1.370
 2186SOL    HW116767   4.666   2.371   1.436
 2186SOL    HW216768   4.676   2.470   1.307
 2187SOL     OW16769   0.449   9.005   1.995
 2187SOL    HW116770   0.548   9.007   2.014
 2187SOL    HW216771   0.434   8.985   1.899
 2188SOL     OW16772   0.943   8.896   0.128
 2188SOL    HW116773   0.959   8.991   0.100
 2188SOL    HW216774   0.847   8.872   0.114
 2189SOL     OW16775   1.345   1.424   1.160
 2189SOL    HW116776   1.435   1.392   1.130
 2189SOL    HW216777   1.353   1.519   1.192
 2190SOL     OW16778   5.637   8.621   2.512
 2190SOL    HW116779   5.710   8.690   2.506
 2190SOL    HW216780   5.560   8.659   2.562
 2191SOL     OW16781   2.287   8.227   0.556
 2191SOL    HW116782   2.289   8.316   0.510
 2191SOL    HW216783   2.379   8.190   0.564
 2192SOL     OW16784   8.458   5.929   2.067
 2192SOL    HW116785   8.364   5.929   2.102
 2192SOL    HW216786   8.500   5.840   2.086
 2193SOL     OW16787   3.080   0.984   0.893
 2193SOL    HW116788   3.039   0.916   0.953
 2193SOL    HW216789   3.023   0.997   0.812
 2194SOL     OW16790   2.711   3.897   2.174
 2194SOL    HW116791   2.777   3.835   2.218
 2194SOL    HW216792   2.621   3.885   2.216
 2195SOL     OW16793   2.280   7.206   2.519
 2195SOL    HW116794   2.332   7.259   2.452
 2195SOL    HW216795   2.342   7.168   2.588
 2196SOL     OW16796   9.324   8.669   2.266
 2196SOL    HW116797   9.372   8.735   2.324
 2196SOL    HW216798   9.315   8.582   2.314
 2197SOL     OW16799   9.669   1.756   1.769
 2197SOL    HW116800   9.637   1.816   1.843
 2197SOL    HW216801   9.732   1.688   1.807
 2198SOL     OW16802   3.542   7.572   0.508
 2198SOL    HW116803   3.592   7.605   0.589
 2198SOL    HW216804   3.454   7.534   0.537
 2199SOL     OW16805   1.311   1.868   1.925
 2199SOL    HW116806   1.350   1.872   1.833
 2199SOL    HW216807   1.379   1.900   1.991
 2200SOL     OW16808   1.798   1.434   2.159
 2200SOL    HW116809   1.791   1.499   2.083
 2200SOL    HW216810   1.773   1.342   2.127
 2201SOL     OW16811   7.871   8.947   2.017
 2201SOL    HW116812   7.852   9.019   1.951
 2201SOL    HW216813   7.807   8.871   2.005
 2202SOL     OW16814   9.870   0.370   0.786
 2202SOL    HW116815   9.941   0.392   0.853
 2202SOL    HW216816   9.810   0.448   0.774
 2203SOL     OW16817   3.808   7.319   2.543
 2203SOL    HW116818   3.733   7.371   2.585
 2203SOL    HW216819   3.782   7.223   2.537
 2204SOL     OW16820   8.959   7.200   0.994
 2204SOL    HW116821   8.998   7.283   1.033
 2204SOL    HW216822   8.859   7.205   0.999
 2205SOL     OW16823   0.650   4.546   1.787
 2205SOL    HW116824   0.599   4.574   1.869
 2205SOL    HW216825   0.642   4.448   1.775
 2206SOL     OW16826   9.114   6.937   0.097
 2206SOL    HW116827   9.183   6.976   0.036
 2206SOL    HW216828   9.033   6.912   0.043
 2207SOL     OW16829   4.515   1.413   1.432
 2207SOL    HW116830   4.582   1.345   1.462
 2207SOL    HW216831   4.425   1.369   1.425
 2208SOL     OW16832   4.603   2.595   1.973
 2208SOL    HW116833   4.555   2.550   2.048
 2208SOL    HW216834   4.596   2.538   1.891
 2209SOL     OW16835   2.429   0.190   1.653
 2209SOL    HW116836   2.498   0.261   1.670
 2209SOL    HW216837   2.339   0.224   1.682
 2210SOL     OW16838   2.392   4.680   1.145
 2210SOL    HW116839   2.337   4.763   1.138
 2210SOL    HW216840   2.390   4.632   1.057
 2211SOL     OW16841   1.226   8.052   1.803
 2211SOL    HW116842   1.282   8.132   1.782
 2211SOL    HW216843   1.285   7.977   1.834
 2212SOL     OW16844   7.711   8.696   2.582
 2212SOL    HW116845   7.657   8.615   2.560
 2212SOL    HW216846   7.755   8.683   2.671
 2213SOL     OW16847   8.837   0.807   2.438
 2213SOL    HW116848   8.814   0.760   2.523
 2213SOL    HW216849   8.847   0.905   2.456
 2214SOL     OW16850   0.521   3.055   2.122
 2214SOL    HW116851   0.578   2.986   2.077
 2214SOL    HW216852   0.429   3.019   2.135
 2215SOL     OW16853   9.835   7.376   1.037
 2215SOL    HW116854   9.879   7.465   1.032
 2215SOL    HW216855   9.767   7.376   1.110
 2216SOL     OW16856   0.686   6.976   0.603
 2216SOL    HW116857   0.613   6.979   0.535
 2216SOL    HW216858   0.650   6.938   0.689
 2217SOL     OW16859   7.335   1.657   0.763
 2217SOL    HW116860   7.281   1.638   0.845
 2217SOL    HW216861   7.431   1.671   0.789
 2218SOL     OW16862   7.572   1.805   1.253
 2218SOL    HW116863   7.582   1.859   1.170
 2218SOL    HW216864   7.524   1.720   1.232
 2219SOL     OW16865   2.459   5.675   1.488
 2219SOL    HW116866   2.552   5.712   1.483
 2219SOL    HW216867   2.418   5.702   1.575
 2220SOL     OW16868   0.358   6.987   1.692
 2220SOL    HW116869   0.451   7.023   1.693
 2220SOL    HW216870   0.295   7.054   1.732
 2221SOL     OW16871   1.021   6.735   1.121
 2221SOL    HW116872   0.969   6.773   1.045
 2221SOL    HW216873   0.960   6.722   1.200
 2222SOL     OW16874   4.762   1.976   2.135
 2222SOL    HW116875   4.748   1.883   2.167
 2222SOL    HW216876   4.858   1.991   2.113
 2223SOL     OW16877   8.225   1.780   0.326
 2223SOL    HW116878   8.147   1.814   0.274
 2223SOL    HW216879   8.234   1.833   0.410
 2224SOL     OW16880   9.744   2.555   2.163
 2224SOL    HW116881   9.772   2.460   2.178
 2224SOL    HW216882   9.823   2.615   2.175
 2225SOL     OW16883   1.127   7.755   1.538
 2225SOL    HW116884   1.104   7.818   1.463
 2225SOL    HW216885   1.218   7.777   1.572
 2226SOL     OW16886   7.693   3.233   0.527
 2226SOL    HW116887   7.728   3.305   0.467
 2226SOL    HW216888   7.767   3.168   0.546
 2227SOL     OW16889   0.492   8.533   1.370
 2227SOL    HW116890   0.496   8.633   1.378
 2227SOL    HW216891   0.579   8.494   1.399
 2228SOL     OW16892   7.426   9.713   2.545
 2228SOL    HW116893   7.432   9.807   2.512
 2228SOL    HW216894   7.382   9.711   2.634
 2229SOL     OW16895   8.973   3.248   1.403
 2229SOL    HW116896   8.881   3.261   1.366
 2229SOL    HW216897   9.020   3.337   1.408
 2230SOL     OW16898   0.233   1.736   2.256
 2230SOL    HW116899   0.163   1.708   2.191
 2230SOL    HW216900   0.279   1.818   2.223
 2231SOL     OW16901   8.717   5.315   1.320
 2231SOL    HW116902   8.697   5.252   1.395
 2231SOL    HW216903   8.700   5.409   1.349
 2232SOL     OW16904   3.343   9.483   1.765
 2232SOL    HW116905   3.353   9.384   1.756
 2232SOL    HW216906   3.298   9.519   1.684
 2233SOL     OW16907   8.349   7.651   1.838
 2233SOL    HW116908   8.327   7.554   1.842
 2233SOL    HW216909   8.448   7.664   1.838
 2234SOL     OW16910   0.565   2.101   2.444
 2234SOL    HW116911   0.633   2.139   2.506
 2234SOL    HW216912   0.477   2.095   2.491
 2235SOL     OW16913   4.852   1.431   1.659
 2235SOL    HW116914   4.806   1.372   1.593
 2235SOL    HW216915   4.857   1.524   1.622
 2236SOL     OW16916   3.031   0.651   1.691
 2236SOL    HW116917   3.102   0.671   1.622
 2236SOL    HW216918   3.009   0.735   1.741
 2237SOL     OW16919   9.472   7.305   0.279
 2237SOL    HW116920   9.492   7.217   0.324
 2237SOL    HW216921   9.373   7.315   0.269
 2238SOL     OW16922   0.731   7.418   1.664
 2238SOL    HW116923   0.727   7.335   1.608
 2238SOL    HW216924   0.799   7.481   1.627
 2239SOL     OW16925   1.562   8.620   1.528
 2239SOL    HW116926   1.585   8.535   1.576
 2239SOL    HW216927   1.639   8.646   1.469
 2240SOL     OW16928   0.992   1.750   2.259
 2240SOL    HW116929   1.055   1.792   2.325
 2240SOL    HW216930   0.936   1.821   2.217
 2241SOL     OW16931   3.955   8.072   2.437
 2241SOL    HW116932   3.975   8.028   2.350
 2241SOL    HW216933   4.001   8.161   2.441
 2242SOL     OW16934   8.317   7.863   1.669
 2242SOL    HW116935   8.323   7.778   1.722
 2242SOL    HW216936   8.278   7.935   1.727
 2243SOL     OW16937   3.204   1.661   1.346
 2243SOL    HW116938   3.281   1.659   1.282
 2243SOL    HW216939   3.119   1.639   1.297
 2244SOL     OW16940   2.318   3.895   1.109
 2244SOL    HW116941   2.229   3.925   1.074
 2244SOL    HW216942   2.329   3.797   1.094
 2245SOL     OW16943   9.806   9.164   1.672
 2245SOL    HW116944   9.800   9.086   1.610
 2245SOL    HW216945   9.715   9.205   1.683
 2246SOL     OW16946   9.856   9.023   2.418
 2246SOL    HW116947   9.818   9.096   2.475
 2246SOL    HW216948   9.786   8.991   2.355
 2247SOL     OW16949   4.275   4.149   2.252
 2247SOL    HW116950   4.216   4.229   2.239
 2247SOL    HW216951   4.248   4.076   2.190
 2248SOL     OW16952   0.218   2.718   0.487
 2248SOL    HW116953   0.164   2.790   0.532
 2248SOL    HW216954   0.252   2.752   0.400
 2249SOL     OW16955   7.702   1.466   2.077
 2249SOL    HW116956   7.669   1.393   2.017
 2249SOL    HW216957   7.674   1.554   2.039
 2250SOL     OW16958   9.103   3.143   2.359
 2250SOL    HW116959   9.199   3.136   2.329
 2250SOL    HW216960   9.043   3.137   2.279
 2251SOL     OW16961   8.710   8.573   2.408
 2251SOL    HW116962   8.782   8.607   2.348
 2251SOL    HW216963   8.697   8.475   2.392
 2252SOL     OW16964   1.869   1.830   0.543
 2252SOL    HW116965   1.846   1.740   0.506
 2252SOL    HW216966   1.902   1.820   0.637
 2253SOL     OW16967   3.103   6.711   1.129
 2253SOL    HW116968   3.195   6.673   1.135
 2253SOL    HW216969   3.108   6.811   1.138
 2254SOL     OW16970   0.734   7.198   1.496
 2254SOL    HW116971   0.833   7.201   1.512
 2254SOL    HW216972   0.717   7.169   1.402
 2255SOL     OW16973   0.338   1.978   2.145
 2255SOL    HW116974   0.391   2.057   2.176
 2255SOL    HW216975   0.352   1.965   2.047
 2256SOL     OW16976   3.040   7.289   0.216
 2256SOL    HW116977   3.124   7.235   0.219
 2256SOL    HW216978   2.980   7.255   0.143
 2257SOL     OW16979   9.548   3.769   0.134
 2257SOL    HW116980   9.587   3.830   0.204
 2257SOL    HW216981   9.596   3.681   0.137
 2258SOL     OW16982   0.926   2.650   2.172
 2258SOL    HW116983   0.845   2.620   2.223
 2258SOL    HW216984   1.007   2.643   2.230
 2259SOL     OW16985   1.062   4.261   1.650
 2259SOL    HW116986   1.083   4.352   1.686
 2259SOL    HW216987   1.050   4.267   1.550
 2260SOL     OW16988   8.639   3.446   1.961
 2260SOL    HW116989   8.679   3.538   1.960
 2260SOL    HW216990   8.630   3.413   1.867
 2261SOL     OW16991   8.761   9.065   2.611
 2261SOL    HW116992   8.806   9.154   2.618
 2261SOL    HW216993   8.828   8.993   2.630
 2262SOL     OW16994   9.310   7.473   2.065
 2262SOL    HW116995   9.247   7.510   2.133
 2262SOL    HW216996   9.404   7.497   2.091
 2263SOL     OW16997   9.632   8.426   2.100
 2263SOL    HW116998   9.661   8.424   2.196
 2263SOL    HW216999   9.712   8.432   2.041
 2264SOL     OW17000   2.318   2.465   0.527
 2264SOL    HW117001   2.379   2.441   0.603
 2264SOL    HW217002   2.251   2.392   0.514
 2265SOL     OW17003   7.990   0.111   2.331
 2265SOL    HW117004   8.071   0.153   2.373
 2265SOL    HW217005   7.963   0.031   2.384
 2266SOL     OW17006   9.328   2.799   0.280
 2266SOL    HW117007   9.333   2.743   0.197
 2266SOL    HW217008   9.421   2.817   0.313
 2267SOL     OW17009   3.894   4.643   1.837
 2267SOL    HW117010   3.830   4.593   1.779
 2267SOL    HW217011   3.942   4.712   1.782
 2268SOL     OW17012   1.711   8.316   2.221
 2268SOL    HW117013   1.614   8.293   2.208
 2268SOL    HW217014   1.719   8.411   2.251
 2269SOL     OW17015   3.191   0.307   1.062
 2269SOL    HW117016   3.231   0.275   1.149
 2269SOL    HW217017   3.227   0.252   0.987
 2270SOL     OW17018   2.410   8.985   1.125
 2270SOL    HW117019   2.382   8.891   1.104
 2270SOL    HW217020   2.427   8.993   1.223
 2271SOL     OW17021   3.297   5.276   0.355
 2271SOL    HW117022   3.260   5.347   0.295
 2271SOL    HW217023   3.327   5.317   0.441
 2272SOL     OW17024   2.012   3.104   0.365
 2272SOL    HW117025   2.046   3.052   0.287
 2272SOL    HW217026   1.917   3.130   0.349
 2273SOL     OW17027   2.976   6.326   2.406
 2273SOL    HW117028   3.042   6.378   2.460
 2273SOL    HW217029   3.020   6.291   2.324
 2274SOL     OW17030   8.461   4.283   2.529
 2274SOL    HW117031   8.412   4.223   2.593
 2274SOL    HW217032   8.517   4.228   2.467
 2275SOL     OW17033   0.808   5.429   0.647
 2275SOL    HW117034   0.874   5.356   0.668
 2275SOL    HW217035   0.857   5.510   0.616
 2276SOL     OW17036   2.155   7.778   2.065
 2276SOL    HW117037   2.181   7.815   2.155
 2276SOL    HW217038   2.237   7.749   2.016
 2277SOL     OW17039   1.378   4.135   0.114
 2277SOL    HW117040   1.418   4.049   0.081
 2277SOL    HW217041   1.279   4.132   0.100
 2278SOL     OW17042   2.775   0.968   2.008
 2278SOL    HW117043   2.684   0.964   2.050
 2278SOL    HW217044   2.831   1.036   2.056
 2279SOL     OW17045   8.304   6.892   1.990
 2279SOL    HW117046   8.349   6.850   1.912
 2279SOL    HW217047   8.366   6.957   2.034
 2280SOL     OW17048   0.494   0.960   0.221
 2280SOL    HW117049   0.531   1.049   0.246
 2280SOL    HW217050   0.567   0.903   0.185
 2281SOL     OW17051   0.472   0.886   0.493
 2281SOL    HW117052   0.537   0.953   0.530
 2281SOL    HW217053   0.466   0.896   0.394
 2282SOL     OW17054   2.151   9.755   0.839
 2282SOL    HW117055   2.167   9.664   0.801
 2282SOL    HW217056   2.185   9.825   0.776
 2283SOL     OW17057   3.655   0.797   1.592
 2283SOL    HW117058   3.581   0.818   1.656
 2283SOL    HW217059   3.623   0.806   1.498
 2284SOL     OW17060   4.260   1.148   1.118
 2284SOL    HW117061   4.275   1.187   1.027
 2284SOL    HW217062   4.164   1.158   1.143
 2285SOL     OW17063   2.287   8.133   2.164
 2285SOL    HW117064   2.320   8.188   2.088
 2285SOL    HW217065   2.256   8.192   2.238
 2286SOL     OW17066   9.132   9.263   0.170
 2286SOL    HW117067   9.038   9.251   0.140
 2286SOL    HW217068   9.185   9.181   0.147
 2287SOL     OW17069   8.675   5.583   1.406
 2287SOL    HW117070   8.723   5.585   1.494
 2287SOL    HW217071   8.598   5.648   1.409
 2288SOL     OW17072   1.883   6.043   0.677
 2288SOL    HW117073   1.806   6.097   0.709
 2288SOL    HW217074   1.968   6.083   0.711
 2289SOL     OW17075   4.538   0.032   1.762
 2289SOL    HW117076   4.560   0.013   1.666
 2289SOL    HW217077   4.522   0.130   1.773
 2290SOL     OW17078   7.821   9.999   0.736
 2290SOL    HW117079   7.913   0.013   0.699
 2290SOL    HW217080   7.827   9.963   0.829
 2291SOL     OW17081   3.335   8.601   0.450
 2291SOL    HW117082   3.345   8.595   0.350
 2291SOL    HW217083   3.287   8.686   0.473
 2292SOL     OW17084   1.936   0.553   0.901
 2292SOL    HW117085   1.994   0.560   0.982
 2292SOL    HW217086   1.842   0.532   0.930
 2293SOL     OW17087   4.464   7.211   0.330
 2293SOL    HW117088   4.403   7.290   0.336
 2293SOL    HW217089   4.441   7.145   0.401
 2294SOL     OW17090   1.828   9.048   2.082
 2294SOL    HW117091   1.878   8.964   2.100
 2294SOL    HW217092   1.770   9.035   2.001
 2295SOL     OW17093   4.557   4.290   0.692
 2295SOL    HW117094   4.601   4.230   0.624
 2295SOL    HW217095   4.478   4.335   0.651
 2296SOL     OW17096   1.825   5.989   1.988
 2296SOL    HW117097   1.752   5.923   1.970
 2296SOL    HW217098   1.905   5.966   1.932
 2297SOL     OW17099   1.097   2.237   0.101
 2297SOL    HW117100   1.142   2.170   0.042
 2297SOL    HW217101   1.109   2.328   0.063
 2298SOL     OW17102   2.809   0.311   0.162
 2298SOL    HW117103   2.759   0.313   0.249
 2298SOL    HW217104   2.888   0.372   0.169
 2299SOL     OW17105   9.202   1.769   0.622
 2299SOL    HW117106   9.232   1.696   0.561
 2299SOL    HW217107   9.226   1.858   0.582
 2300SOL     OW17108   0.098   9.855   1.433
 2300SOL    HW117109   0.144   9.768   1.453
 2300SOL    HW217110   0.092   9.867   1.334
 2301SOL     OW17111   2.615   7.524   1.911
 2301SOL    HW117112   2.664   7.515   1.997
 2301SOL    HW217113   2.560   7.442   1.895
 2302SOL     OW17114   8.976   5.973   1.302
 2302SOL    HW117115   8.950   5.972   1.206
 2302SOL    HW217116   9.052   5.910   1.317
 2303SOL     OW17117   0.760   7.492   1.927
 2303SOL    HW117118   0.746   7.453   1.836
 2303SOL    HW217119   0.747   7.422   1.997
 2304SOL     OW17120   8.412   0.125   1.814
 2304SOL    HW117121   8.508   0.152   1.809
 2304SOL    HW217122   8.354   0.205   1.798
 2305SOL     OW17123   9.753   9.966   0.988
 2305SOL    HW117124   9.722   9.998   0.899
 2305SOL    HW217125   9.725   9.870   1.001
 2306SOL     OW17126   2.883   7.308   2.444
 2306SOL    HW117127   2.888   7.263   2.355
 2306SOL    HW217128   2.905   7.243   2.516
 2307SOL     OW17129   7.195   9.319   1.505
 2307SOL    HW117130   7.189   9.333   1.406
 2307SOL    HW217131   7.132   9.382   1.551
 2308SOL     OW17132   2.732   8.103   2.128
 2308SOL    HW117133   2.669   8.165   2.176
 2308SOL    HW217134   2.738   8.017   2.178
 2309SOL     OW17135   8.362   7.365   0.227
 2309SOL    HW117136   8.272   7.369   0.271
 2309SOL    HW217137   8.365   7.288   0.163
 2310SOL     OW17138   9.452   5.211   2.001
 2310SOL    HW117139   9.397   5.281   2.045
 2310SOL    HW217140   9.525   5.254   1.946
 2311SOL     OW17141   3.421   0.006   0.635
 2311SOL    HW117142   3.469   9.918   0.637
 2311SOL    HW217143   3.480   0.075   0.593
 2312SOL     OW17144   7.268   9.597   0.727
 2312SOL    HW117145   7.185   9.627   0.680
 2312SOL    HW217146   7.332   9.673   0.732
 2313SOL     OW17147   0.071   7.346   1.532
 2313SOL    HW117148   0.015   7.308   1.459
 2313SOL    HW217149   0.030   7.322   1.621
 2314SOL     OW17150   4.685   9.107   2.407
 2314SOL    HW117151   4.667   9.184   2.469
 2314SOL    HW217152   4.780   9.109   2.378
 2315SOL     OW17153   1.468   7.501   0.261
 2315SOL    HW117154   1.482   7.584   0.208
 2315SOL    HW217155   1.551   7.480   0.313
 2316SOL     OW17156   4.311   4.665   0.781
 2316SOL    HW117157   4.253   4.713   0.716
 2316SOL    HW217158   4.383   4.616   0.733
 2317SOL     OW17159   0.124   9.127   1.332
 2317SOL    HW117160   0.035   9.111   1.288
 2317SOL    HW217161   0.174   9.040   1.337
 2318SOL     OW17162   3.384   4.014   2.435
 2318SOL    HW117163   3.291   3.986   2.460
 2318SOL    HW217164   3.392   4.114   2.441
 2319SOL     OW17165   0.128   1.082   1.660
 2319SOL    HW117166   0.197   1.150   1.687
 2319SOL    HW217167   0.041   1.104   1.704
 2320SOL     OW17168   4.720   9.675   1.091
 2320SOL    HW117169   4.742   9.653   1.186
 2320SOL    HW217170   4.668   9.760   1.088
 2321SOL     OW17171   9.213   9.554   2.174
 2321SOL    HW117172   9.164   9.476   2.212
 2321SOL    HW217173   9.291   9.576   2.233
 2322SOL     OW17174   4.760   9.899   2.307
 2322SOL    HW117175   4.812   9.950   2.238
 2322SOL    HW217176   4.667   9.885   2.274
 2323SOL     OW17177   1.913   3.618   0.713
 2323SOL    HW117178   1.950   3.525   0.724
 2323SOL    HW217179   1.881   3.631   0.620
 2324SOL     OW17180   9.671   7.015   0.855
 2324SOL    HW117181   9.716   7.100   0.828
 2324SOL    HW217182   9.710   6.939   0.803
 2325SOL     OW17183   3.322   8.122   1.768
 2325SOL    HW117184   3.385   8.086   1.836
 2325SOL    HW217185   3.228   8.110   1.800
 2326SOL     OW17186   7.990   1.300   1.051
 2326SOL    HW117187   7.894   1.296   1.026
 2326SOL    HW217188   8.046   1.298   0.968
 2327SOL     OW17189   4.183   1.537   2.425
 2327SOL    HW117190   4.219   1.626   2.397
 2327SOL    HW217191   4.105   1.550   2.486
 2328SOL     OW17192   0.364   3.059   1.779
 2328SOL    HW117193   0.409   2.977   1.815
 2328SOL    HW217194   0.288   3.084   1.839
 2329SOL     OW17195   1.844   6.691   0.477
 2329SOL    HW117196   1.933   6.672   0.517
 2329SOL    HW217197   1.774   6.639   0.525
 2330SOL     OW17198   0.044   7.577   0.152
 2330SOL    HW117199   9.946   7.557   0.152
 2330SOL    HW217200   0.087   7.534   0.231
 2331SOL     OW17201   3.961   4.129   2.317
 2331SOL    HW117202   4.016   4.208   2.290
 2331SOL    HW217203   3.875   4.129   2.266
 2332SOL     OW17204   0.462   9.376   1.958
 2332SOL    HW117205   0.469   9.467   2.001
 2332SOL    HW217206   0.403   9.318   2.014
 2333SOL     OW17207   9.419   3.168   1.919
 2333SOL    HW117208   9.390   3.236   1.986
 2333SOL    HW217209   9.348   3.098   1.909
 2334SOL     OW17210   3.345   0.657   1.223
 2334SOL    HW117211   3.245   0.652   1.217
 2334SOL    HW217212   3.378   0.585   1.284
 2335SOL     OW17213   1.582   3.943   1.565
 2335SOL    HW117214   1.608   3.980   1.654
 2335SOL    HW217215   1.622   3.853   1.553
 2336SOL     OW17216   0.058   1.464   1.364
 2336SOL    HW117217   0.156   1.479   1.357
 2336SOL    HW217218   0.025   1.417   1.282
 2337SOL     OW17219   9.075   8.212   1.083
 2337SOL    HW117220   9.029   8.242   0.999
 2337SOL    HW217221   9.058   8.279   1.155
 2338SOL     OW17222   9.894   2.064   0.515
 2338SOL    HW117223   9.977   2.022   0.550
 2338SOL    HW217224   9.820   1.996   0.514
 2339SOL     OW17225   3.065   0.461   1.882
 2339SOL    HW117226   3.047   0.532   1.814
 2339SOL    HW217227   3.131   0.395   1.845
 2340SOL     OW17228   0.452   7.429   2.244
 2340SOL    HW117229   0.468   7.345   2.193
 2340SOL    HW217230   0.421   7.500   2.181
 2341SOL     OW17231   1.038   6.874   1.911
 2341SOL    HW117232   1.111   6.858   1.843
 2341SOL    HW217233   1.071   6.846   2.001
 2342SOL     OW17234   0.847   8.871   1.766
 2342SOL    HW117235   0.797   8.891   1.850
 2342SOL    HW217236   0.865   8.773   1.760
 2343SOL     OW17237   0.689   1.782   2.557
 2343SOL    HW117238   0.743   1.852   2.603
 2343SOL    HW217239   0.682   1.804   2.460
 2344SOL     OW17240   8.449   3.174   1.125
 2344SOL    HW117241   8.542   3.183   1.089
 2344SOL    HW217242   8.385   3.223   1.066
 2345SOL     OW17243   8.355   9.973   1.583
 2345SOL    HW117244   8.374   0.027   1.665
 2345SOL    HW217245   8.397   9.883   1.591
 2346SOL     OW17246   8.102   6.042   1.214
 2346SOL    HW117247   8.185   5.988   1.202
 2346SOL    HW217248   8.125   6.129   1.256
 2347SOL     OW17249   1.788   5.977   2.467
 2347SOL    HW117250   1.829   5.980   2.376
 2347SOL    HW217251   1.860   5.986   2.536
 2348SOL     OW17252   0.014   7.648   0.550
 2348SOL    HW117253   9.985   7.681   0.640
 2348SOL    HW217254   0.013   7.723   0.485
 2349SOL     OW17255   0.698   0.145   2.556
 2349SOL    HW117256   0.793   0.116   2.566
 2349SOL    HW217257   0.692   0.244   2.556
 2350SOL     OW17258   8.671   7.474   2.105
 2350SOL    HW117259   8.729   7.552   2.127
 2350SOL    HW217260   8.578   7.491   2.137
 2351SOL     OW17261   2.982   3.965   0.132
 2351SOL    HW117262   2.999   3.877   0.088
 2351SOL    HW217263   2.909   4.013   0.083
 2352SOL     OW17264   3.440   8.679   1.419
 2352SOL    HW117265   3.384   8.726   1.487
 2352SOL    HW217266   3.386   8.606   1.377
 2353SOL     OW17267   8.100   4.163   0.147
 2353SOL    HW117268   8.147   4.244   0.115
 2353SOL    HW217269   8.166   4.092   0.170
 2354SOL     OW17270   4.254   0.671   0.848
 2354SOL    HW117271   4.198   0.749   0.821
 2354SOL    HW217272   4.206   0.586   0.827
 2355SOL     OW17273   7.855   0.570   0.229
 2355SOL    HW117274   7.797   0.643   0.194
 2355SOL    HW217275   7.819   0.537   0.316
 2356SOL     OW17276   2.662   8.799   2.097
 2356SOL    HW117277   2.637   8.825   2.004
 2356SOL    HW217278   2.737   8.857   2.129
 2357SOL     OW17279   8.102   9.873   0.074
 2357SOL    HW117280   8.200   9.864   0.092
 2357SOL    HW217281   8.089   9.915   3.421
 2358SOL     OW17282   0.448   1.338   1.503
 2358SOL    HW117283   0.411   1.258   1.457
 2358SOL    HW217284   0.413   1.421   1.459
 2359SOL     OW17285   0.254   0.272   2.203
 2359SOL    HW117286   0.246   0.276   2.302
 2359SOL    HW217287   0.256   0.177   2.173
 2360SOL     OW17288   0.392   1.685   0.409
 2360SOL    HW117289   0.312   1.690   0.350
 2360SOL    HW217290   0.415   1.777   0.441
 2361SOL     OW17291   0.232   6.216   1.837
 2361SOL    HW117292   0.167   6.181   1.905
 2361SOL    HW217293   0.291   6.284   1.880
 2362SOL     OW17294   0.468   0.231   1.533
 2362SOL    HW117295   0.386   0.176   1.514
 2362SOL    HW217296   0.521   0.188   1.606
 2363SOL     OW17297   0.478   8.785   0.369
 2363SOL    HW117298   0.397   8.828   0.329
 2363SOL    HW217299   0.515   8.716   0.307
 2364SOL     OW17300   1.048   8.035   0.968
 2364SOL    HW117301   0.978   7.984   1.019
 2364SOL    HW217302   1.005   8.109   0.917
 2365SOL     OW17303   9.393   7.054   2.601
 2365SOL    HW117304   9.352   7.135   2.559
 2365SOL    HW217305   9.324   6.982   2.609
 2366SOL     OW17306   1.548   6.958   2.504
 2366SOL    HW117307   1.462   6.955   2.555
 2366SOL    HW217308   1.563   7.050   2.470
 2367SOL     OW17309   0.526   9.963   2.450
 2367SOL    HW117310   0.433   9.974   2.484
 2367SOL    HW217311   0.584   0.035   2.488
 2368SOL     OW17312   1.319   1.686   1.272
 2368SOL    HW117313   1.240   1.715   1.218
 2368SOL    HW217314   1.288   1.653   1.361
 2369SOL     OW17315   2.630   1.412   0.155
 2369SOL    HW117316   2.643   1.346   0.081
 2369SOL    HW217317   2.533   1.415   0.181
 2370SOL     OW17318   1.975   4.725   2.686
 2370SOL    HW117319   2.071   4.710   2.667
 2370SOL    HW217320   1.953   4.689   2.777
 2371SOL     OW17321   9.830   8.739   0.836
 2371SOL    HW117322   9.830   8.639   0.831
 2371SOL    HW217323   9.737   8.771   0.855
 2372SOL     OW17324   8.938   8.119   0.787
 2372SOL    HW117325   8.897   8.064   0.860
 2372SOL    HW217326   8.885   8.110   0.703
 2373SOL     OW17327   8.595   1.594   1.231
 2373SOL    HW117328   8.519   1.592   1.166
 2373SOL    HW217329   8.597   1.510   1.283
 2374SOL     OW17330   9.323   1.597   0.447
 2374SOL    HW117331   9.306   1.646   0.361
 2374SOL    HW217332   9.295   1.502   0.437
 2375SOL     OW17333   8.910   0.706   0.021
 2375SOL    HW117334   8.848   0.776   0.058
 2375SOL    HW217335   8.889   0.692   3.360
 2376SOL     OW17336   0.969   6.174   0.467
 2376SOL    HW117337   0.872   6.175   0.443
 2376SOL    HW217338   1.016   6.246   0.416
 2377SOL     OW17339   8.510   3.351   0.839
 2377SOL    HW117340   8.420   3.345   0.881
 2377SOL    HW217341   8.502   3.336   0.740
 2378SOL     OW17342   3.324   3.312   0.229
 2378SOL    HW117343   3.355   3.271   0.144
 2378SOL    HW217344   3.293   3.241   0.292
 2379SOL     OW17345   2.016   3.811   0.141
 2379SOL    HW117346   1.930   3.850   0.106
 2379SOL    HW217347   2.083   3.807   0.067
 2380SOL     OW17348   2.039   4.792   0.073
 2380SOL    HW117349   1.953   4.802   0.122
 2380SOL    HW217350   2.080   4.881   0.055
 2381SOL     OW17351   9.567   4.379   2.165
 2381SOL    HW117352   9.509   4.459   2.148
 2381SOL    HW217353   9.640   4.404   2.228
 2382SOL     OW17354   3.692   8.086   1.712
 2382SOL    HW117355   3.773   8.047   1.754
 2382SOL    HW217356   3.669   8.173   1.757
 2383SOL     OW17357   1.008   9.135   1.360
 2383SOL    HW117358   1.010   9.087   1.448
 2383SOL    HW217359   1.093   9.116   1.310
 2384SOL     OW17360   8.346   8.567   1.681
 2384SOL    HW117361   8.278   8.521   1.624
 2384SOL    HW217362   8.326   8.550   1.777
 2385SOL     OW17363   8.240   8.674   0.006
 2385SOL    HW117364   8.327   8.676   3.395
 2385SOL    HW217365   8.194   8.763   3.435
 2386SOL     OW17366   2.377   9.318   2.284
 2386SOL    HW117367   2.410   9.230   2.251
 2386SOL    HW217368   2.278   9.323   2.273
 2387SOL     OW17369   3.373   6.652   1.186
 2387SOL    HW117370   3.394   6.557   1.161
 2387SOL    HW217371   3.392   6.666   1.283
 2388SOL     OW17372   2.006   3.358   0.769
 2388SOL    HW117373   1.951   3.376   0.850
 2388SOL    HW217374   1.967   3.281   0.719
 2389SOL     OW17375   1.579   9.620   0.767
 2389SOL    HW117376   1.670   9.634   0.728
 2389SOL    HW217377   1.519   9.578   0.699
 2390SOL     OW17378   3.762   9.367   0.286
 2390SOL    HW117379   3.737   9.421   0.367
 2390SOL    HW217380   3.859   9.343   0.291
 2391SOL     OW17381   9.787   5.750   0.105
 2391SOL    HW117382   9.710   5.698   0.068
 2391SOL    HW217383   9.862   5.688   0.126
 2392SOL     OW17384   1.039   8.525   0.856
 2392SOL    HW117385   0.992   8.605   0.819
 2392SOL    HW217386   1.060   8.540   0.953
 2393SOL     OW17387   2.688   8.311   1.141
 2393SOL    HW117388   2.786   8.328   1.152
 2393SOL    HW217389   2.648   8.381   1.082
 2394SOL     OW17390   2.466   0.675   1.573
 2394SOL    HW117391   2.454   0.615   1.494
 2394SOL    HW217392   2.405   0.646   1.646
 2395SOL     OW17393   2.820   9.506   1.120
 2395SOL    HW117394   2.755   9.580   1.130
 2395SOL    HW217395   2.818   9.448   1.201
 2396SOL     OW17396   5.075   7.576   2.338
 2396SOL    HW117397   4.996   7.515   2.333
 2396SOL    HW217398   5.049   7.661   2.384
 2397SOL     OW17399   2.347   1.816   1.613
 2397SOL    HW117400   2.432   1.821   1.666
 2397SOL    HW217401   2.270   1.804   1.676
 2398SOL     OW17402   3.028   6.402   1.359
 2398SOL    HW117403   3.030   6.325   1.423
 2398SOL    HW217404   3.041   6.370   1.266
 2399SOL     OW17405   4.521   2.843   1.516
 2399SOL    HW117406   4.428   2.866   1.485
 2399SOL    HW217407   4.551   2.760   1.469
 2400SOL     OW17408   2.899   2.483   1.234
 2400SOL    HW117409   2.835   2.463   1.159
 2400SOL    HW217410   2.880   2.574   1.271
 2401SOL     OW17411   9.312   3.188   3.396
 2401SOL    HW117412   9.355   3.099   3.390
 2401SOL    HW217413   9.306   3.229   3.305
 2402SOL     OW17414   0.374   4.203   1.238
 2402SOL    HW117415   0.385   4.174   1.142
 2402SOL    HW217416   0.463   4.203   1.283
 2403SOL     OW17417   1.804   5.241   0.464
 2403SOL    HW117418   1.743   5.292   0.525
 2403SOL    HW217419   1.783   5.264   0.369
 2404SOL     OW17420   9.616   9.090   2.024
 2404SOL    HW117421   9.550   9.160   1.999
 2404SOL    HW217422   9.707   9.116   1.992
 2405SOL     OW17423   9.397   6.560   1.425
 2405SOL    HW117424   9.412   6.627   1.352
 2405SOL    HW217425   9.482   6.549   1.477
 2406SOL     OW17426   5.308   8.206   2.206
 2406SOL    HW117427   5.251   8.270   2.155
 2406SOL    HW217428   5.402   8.239   2.209
 2407SOL     OW17429   7.951   9.299   2.197
 2407SOL    HW117430   7.914   9.355   2.272
 2407SOL    HW217431   7.934   9.203   2.217
 2408SOL     OW17432   9.702   5.644   2.221
 2408SOL    HW117433   9.765   5.573   2.189
 2408SOL    HW217434   9.750   5.731   2.227
 2409SOL     OW17435   2.203   8.767   0.051
 2409SOL    HW117436   2.217   8.810   3.398
 2409SOL    HW217437   2.267   8.806   0.117
 2410SOL     OW17438   1.941   6.716   2.448
 2410SOL    HW117439   1.894   6.783   2.506
 2410SOL    HW217440   1.881   6.690   2.373
 2411SOL     OW17441   4.066   1.771   2.021
 2411SOL    HW117442   4.058   1.697   2.088
 2411SOL    HW217443   3.976   1.789   1.980
 2412SOL     OW17444   0.778   5.984   1.069
 2412SOL    HW117445   0.878   5.994   1.077
 2412SOL    HW217446   0.757   5.889   1.044
 2413SOL     OW17447   3.137   7.976   2.564
 2413SOL    HW117448   3.232   7.987   2.535
 2413SOL    HW217449   3.128   8.000   2.661
 2414SOL     OW17450   2.984   3.692   0.962
 2414SOL    HW117451   3.081   3.670   0.956
 2414SOL    HW217452   2.973   3.783   1.002
 2415SOL     OW17453   2.311   8.891   0.495
 2415SOL    HW117454   2.236   8.850   0.546
 2415SOL    HW217455   2.313   8.990   0.512
 2416SOL     OW17456   0.950   7.118   0.375
 2416SOL    HW117457   0.895   7.120   0.291
 2416SOL    HW217458   0.902   7.169   0.447
 2417SOL     OW17459   1.027   4.581   0.702
 2417SOL    HW117460   0.985   4.498   0.667
 2417SOL    HW217461   1.027   4.652   0.631
 2418SOL     OW17462   9.567   3.046   0.591
 2418SOL    HW117463   9.581   3.109   0.515
 2418SOL    HW217464   9.497   3.084   0.652
 2419SOL     OW17465   2.036   3.004   0.836
 2419SOL    HW117466   1.996   3.050   0.756
 2419SOL    HW217467   2.044   2.906   0.816
 2420SOL     OW17468   2.995   0.420   0.907
 2420SOL    HW117469   3.044   0.499   0.869
 2420SOL    HW217470   3.058   0.367   0.964
 2421SOL     OW17471   7.850   9.720   0.402
 2421SOL    HW117472   7.915   9.739   0.476
 2421SOL    HW217473   7.900   9.694   0.319
 2422SOL     OW17474   3.682   4.146   0.521
 2422SOL    HW117475   3.656   4.240   0.544
 2422SOL    HW217476   3.686   4.137   0.421
 2423SOL     OW17477   2.701   6.013   0.723
 2423SOL    HW117478   2.684   6.057   0.635
 2423SOL    HW217479   2.732   6.081   0.789
 2424SOL     OW17480   8.104   3.736   0.178
 2424SOL    HW117481   8.029   3.789   0.219
 2424SOL    HW217482   8.081   3.714   0.083
 2425SOL     OW17483   0.889   9.555   1.494
 2425SOL    HW117484   0.960   9.486   1.511
 2425SOL    HW217485   0.870   9.605   1.578
 2426SOL     OW17486   8.536   3.017   2.123
 2426SOL    HW117487   8.463   2.951   2.108
 2426SOL    HW217488   8.608   3.005   2.055
 2427SOL     OW17489   3.303   6.584   2.106
 2427SOL    HW117490   3.260   6.654   2.163
 2427SOL    HW217491   3.401   6.602   2.100
 2428SOL     OW17492   7.812   2.999   0.092
 2428SOL    HW117493   7.853   3.085   0.123
 2428SOL    HW217494   7.850   2.923   0.145
 2429SOL     OW17495   8.589   1.190   0.695
 2429SOL    HW117496   8.684   1.206   0.724
 2429SOL    HW217497   8.588   1.153   0.603
 2430SOL     OW17498   4.055   5.389   2.071
 2430SOL    HW117499   4.056   5.305   2.016
 2430SOL    HW217500   3.978   5.446   2.043
 2431SOL     OW17501   2.968   7.320   1.864
 2431SOL    HW117502   2.885   7.278   1.903
 2431SOL    HW217503   2.995   7.271   1.781
 2432SOL     OW17504   5.043   0.834   2.459
 2432SOL    HW117505   5.006   0.876   2.377
 2432SOL    HW217506   5.065   0.906   2.526
 2433SOL     OW17507   4.964   2.088   1.436
 2433SOL    HW117508   5.049   2.092   1.489
 2433SOL    HW217509   4.905   2.016   1.472
 2434SOL     OW17510   2.016   8.337   0.905
 2434SOL    HW117511   1.956   8.338   0.825
 2434SOL    HW217512   2.061   8.248   0.911
 2435SOL     OW17513   1.629   1.617   2.563
 2435SOL    HW117514   1.582   1.574   2.640
 2435SOL    HW217515   1.581   1.594   2.478
 2436SOL     OW17516   1.965   6.140   1.150
 2436SOL    HW117517   2.027   6.194   1.092
 2436SOL    HW217518   1.876   6.133   1.105
 2437SOL     OW17519   3.634   1.681   2.356
 2437SOL    HW117520   3.571   1.716   2.287
 2437SOL    HW217521   3.696   1.754   2.385
 2438SOL     OW17522   7.488   1.810   1.766
 2438SOL    HW117523   7.514   1.847   1.676
 2438SOL    HW217524   7.423   1.735   1.753
 2439SOL     OW17525   3.768   3.398   0.377
 2439SOL    HW117526   3.819   3.434   0.455
 2439SOL    HW217527   3.742   3.473   0.317
 2440SOL     OW17528   9.127   4.988   1.766
 2440SOL    HW117529   9.201   5.055   1.764
 2440SOL    HW217530   9.154   4.908   1.713
 2441SOL     OW17531   3.073   4.587   0.854
 2441SOL    HW117532   3.025   4.579   0.942
 2441SOL    HW217533   3.008   4.571   0.779
 2442SOL     OW17534   9.930   2.601   1.370
 2442SOL    HW117535   9.945   2.596   1.271
 2442SOL    HW217536   9.835   2.625   1.389
 2443SOL     OW17537   0.725   4.110   1.559
 2443SOL    HW117538   0.705   4.178   1.629
 2443SOL    HW217539   0.675   4.025   1.579
 2444SOL     OW17540   2.428   6.919   0.423
 2444SOL    HW117541   2.512   6.874   0.394
 2444SOL    HW217542   2.446   6.977   0.502
 2445SOL     OW17543   3.738   4.575   0.341
 2445SOL    HW117544   3.721   4.669   0.373
 2445SOL    HW217545   3.828   4.570   0.299
 2446SOL     OW17546   7.221   9.498   2.545
 2446SOL    HW117547   7.271   9.412   2.559
 2446SOL    HW217548   7.282   9.565   2.504
 2447SOL     OW17549   2.530   3.356   1.670
 2447SOL    HW117550   2.493   3.437   1.715
 2447SOL    HW217551   2.476   3.276   1.696
 2448SOL     OW17552   1.993   7.132   2.477
 2448SOL    HW117553   2.089   7.156   2.492
 2448SOL    HW217554   1.969   7.055   2.536
 2449SOL     OW17555   8.825   5.345   2.231
 2449SOL    HW117556   8.764   5.332   2.153
 2449SOL    HW217557   8.881   5.427   2.217
 2450SOL     OW17558   8.770   2.158   2.162
 2450SOL    HW117559   8.782   2.241   2.217
 2450SOL    HW217560   8.820   2.083   2.204
 2451SOL     OW17561   7.945   7.795   2.102
 2451SOL    HW117562   8.038   7.799   2.066
 2451SOL    HW217563   7.896   7.720   2.058
 2452SOL     OW17564   8.882   2.198   1.673
 2452SOL    HW117565   8.841   2.117   1.630
 2452SOL    HW217566   8.899   2.179   1.769
 2453SOL     OW17567   4.058   7.525   0.776
 2453SOL    HW117568   4.008   7.498   0.694
 2453SOL    HW217569   4.154   7.542   0.753
 2454SOL     OW17570   0.072   3.934   0.472
 2454SOL    HW117571   0.038   3.848   0.510
 2454SOL    HW217572   9.998   3.982   0.426
 2455SOL     OW17573   3.556   3.491   0.923
 2455SOL    HW117574   3.486   3.448   0.980
 2455SOL    HW217575   3.584   3.577   0.964
 2456SOL     OW17576   3.056   5.728   2.218
 2456SOL    HW117577   3.010   5.689   2.139
 2456SOL    HW217578   3.085   5.655   2.280
 2457SOL     OW17579   9.621   2.979   1.941
 2457SOL    HW117580   9.557   3.055   1.932
 2457SOL    HW217581   9.575   2.894   1.917
 2458SOL     OW17582   4.596   0.321   2.096
 2458SOL    HW117583   4.576   0.311   1.999
 2458SOL    HW217584   4.694   0.309   2.111
 2459SOL     OW17585   8.446   8.819   1.623
 2459SOL    HW117586   8.527   8.824   1.682
 2459SOL    HW217587   8.400   8.732   1.638
 2460SOL     OW17588   8.958   1.248   1.003
 2460SOL    HW117589   9.048   1.214   1.031
 2460SOL    HW217590   8.887   1.187   1.039
 2461SOL     OW17591   4.874   0.924   1.444
 2461SOL    HW117592   4.846   0.987   1.371
 2461SOL    HW217593   4.844   0.960   1.532
 2462SOL     OW17594   4.219   3.116   2.074
 2462SOL    HW117595   4.128   3.156   2.074
 2462SOL    HW217596   4.283   3.177   2.120
 2463SOL     OW17597   3.913   8.504   2.344
 2463SOL    HW117598   3.915   8.604   2.341
 2463SOL    HW217599   3.821   8.473   2.367
 2464SOL     OW17600   4.034   4.725   2.064
 2464SOL    HW117601   3.986   4.686   1.985
 2464SOL    HW217602   4.004   4.679   2.147
 2465SOL     OW17603   0.923   1.953   1.304
 2465SOL    HW117604   0.838   1.978   1.351
 2465SOL    HW217605   0.965   2.036   1.267
 2466SOL     OW17606   8.659   8.798   1.031
 2466SOL    HW117607   8.640   8.734   1.105
 2466SOL    HW217608   8.758   8.812   1.022
 2467SOL     OW17609   8.757   1.988   1.533
 2467SOL    HW117610   8.756   1.897   1.492
 2467SOL    HW217611   8.664   2.014   1.559
 2468SOL     OW17612   9.349   6.850   1.829
 2468SOL    HW117613   9.359   6.883   1.922
 2468SOL    HW217614   9.439   6.827   1.791
 2469SOL     OW17615   2.123   3.541   1.432
 2469SOL    HW117616   2.053   3.552   1.503
 2469SOL    HW217617   2.156   3.631   1.403
 2470SOL     OW17618   2.712   9.334   0.925
 2470SOL    HW117619   2.772   9.332   0.845
 2470SOL    HW217620   2.753   9.390   0.997
 2471SOL     OW17621   1.096   0.109   1.806
 2471SOL    HW117622   1.195   0.098   1.819
 2471SOL    HW217623   1.079   0.191   1.751
 2472SOL     OW17624   1.506   2.297   0.801
 2472SOL    HW117625   1.455   2.236   0.862
 2472SOL    HW217626   1.481   2.392   0.819
 2473SOL     OW17627   8.914   2.158   0.285
 2473SOL    HW117628   8.866   2.232   0.238
 2473SOL    HW217629   8.861   2.130   0.365
 2474SOL     OW17630   1.715   5.050   0.100
 2474SOL    HW117631   1.710   4.951   0.103
 2474SOL    HW217632   1.804   5.080   0.133
 2475SOL     OW17633   8.747   7.790   2.505
 2475SOL    HW117634   8.678   7.861   2.520
 2475SOL    HW217635   8.705   7.700   2.514
 2476SOL     OW17636   0.789   1.705   1.295
 2476SOL    HW117637   0.788   1.682   1.197
 2476SOL    HW217638   0.835   1.792   1.308
 2477SOL     OW17639   7.217   8.939   2.338
 2477SOL    HW117640   7.222   9.038   2.327
 2477SOL    HW217641   7.126   8.908   2.310
 2478SOL     OW17642   7.930   8.030   2.245
 2478SOL    HW117643   8.009   8.077   2.206
 2478SOL    HW217644   7.915   7.945   2.194
 2479SOL     OW17645   8.527   0.376   0.228
 2479SOL    HW117646   8.553   0.418   0.315
 2479SOL    HW217647   8.445   0.420   0.193
 2480SOL     OW17648   1.220   7.098   0.385
 2480SOL    HW117649   1.272   7.155   0.322
 2480SOL    HW217650   1.123   7.110   0.369
 2481SOL     OW17651   9.436   0.620   2.480
 2481SOL    HW117652   9.372   0.546   2.457
 2481SOL    HW217653   9.384   0.700   2.512
 2482SOL     OW17654   0.512   6.234   2.139
 2482SOL    HW117655   0.471   6.295   2.071
 2482SOL    HW217656   0.611   6.250   2.143
 2483SOL     OW17657   0.165   5.154   0.859
 2483SOL    HW117658   0.131   5.075   0.808
 2483SOL    HW217659   0.088   5.200   0.904
 2484SOL     OW17660   4.039   3.285   2.614
 2484SOL    HW117661   4.105   3.211   2.625
 2484SOL    HW217662   4.086   3.369   2.588
 2485SOL     OW17663   4.785   1.115   1.262
 2485SOL    HW117664   4.830   1.156   1.183
 2485SOL    HW217665   4.686   1.115   1.247
 2486SOL     OW17666   8.757   1.060   2.090
 2486SOL    HW117667   8.759   0.960   2.076
 2486SOL    HW217668   8.800   1.105   2.011
 2487SOL     OW17669   9.538   3.556   0.399
 2487SOL    HW117670   9.568   3.533   0.306
 2487SOL    HW217671   9.466   3.625   0.395
 2488SOL     OW17672   0.044   1.528   0.442
 2488SOL    HW117673   0.046   1.440   0.394
 2488SOL    HW217674   0.071   1.601   0.379
 2489SOL     OW17675   9.156   2.683   1.352
 2489SOL    HW117676   9.242   2.691   1.303
 2489SOL    HW217677   9.087   2.643   1.292
 2490SOL     OW17678   4.289   8.763   0.925
 2490SOL    HW117679   4.240   8.743   1.010
 2490SOL    HW217680   4.276   8.687   0.861
 2491SOL     OW17681   3.470   6.348   2.384
 2491SOL    HW117682   3.407   6.367   2.459
 2491SOL    HW217683   3.508   6.433   2.349
 2492SOL     OW17684   2.512   9.755   2.287
 2492SOL    HW117685   2.424   9.757   2.239
 2492SOL    HW217686   2.502   9.798   2.377
 2493SOL     OW17687   4.097   9.937   0.833
 2493SOL    HW117688   4.178   9.959   0.887
 2493SOL    HW217689   4.119   9.864   0.768
 2494SOL     OW17690   2.550   7.918   1.738
 2494SOL    HW117691   2.506   8.004   1.762
 2494SOL    HW217692   2.630   7.904   1.796
 2495SOL     OW17693   2.205   9.269   2.586
 2495SOL    HW117694   2.228   9.180   2.546
 2495SOL    HW217695   2.282   9.331   2.576
 2496SOL     OW17696   0.062   8.489   0.723
 2496SOL    HW117697   0.079   8.434   0.641
 2496SOL    HW217698   0.110   8.576   0.715
 2497SOL     OW17699   9.591   9.275   0.879
 2497SOL    HW117700   9.550   9.366   0.887
 2497SOL    HW217701   9.658   9.275   0.805
 2498SOL     OW17702   1.830   7.092   0.193
 2498SOL    HW117703   1.739   7.096   0.153
 2498SOL    HW217704   1.825   7.042   0.280
 2499SOL     OW17705   2.921   8.162   1.586
 2499SOL    HW117706   2.962   8.095   1.648
 2499SOL    HW217707   2.836   8.196   1.625
 2500SOL     OW17708   1.499   4.387   0.150
 2500SOL    HW117709   1.584   4.412   0.103
 2500SOL    HW217710   1.468   4.298   0.116
 2501SOL     OW17711   8.068   8.915   1.175
 2501SOL    HW117712   8.135   8.965   1.229
 2501SOL    HW217713   7.977   8.931   1.212
 2502SOL     OW17714   0.102   4.061   0.719
 2502SOL    HW117715   0.113   4.018   0.630
 2502SOL    HW217716   0.005   4.062   0.744
 2503SOL     OW17717   3.278   2.651   1.856
 2503SOL    HW117718   3.336   2.641   1.775
 2503SOL    HW217719   3.241   2.743   1.861
 2504SOL     OW17720   2.960   5.304   0.189
 2504SOL    HW117721   2.885   5.354   0.232
 2504SOL    HW217722   3.039   5.365   0.179
 2505SOL     OW17723   9.562   3.143   0.322
 2505SOL    HW117724   9.569   3.044   0.315
 2505SOL    HW217725   9.467   3.171   0.305
 2506SOL     OW17726   0.316   6.621   2.396
 2506SOL    HW117727   0.247   6.652   2.331
 2506SOL    HW217728   0.333   6.523   2.382
 2507SOL     OW17729   9.077   9.595   1.189
 2507SOL    HW117730   9.055   9.544   1.106
 2507SOL    HW217731   9.027   9.682   1.189
 2508SOL     OW17732   8.603   0.721   2.296
 2508SOL    HW117733   8.685   0.765   2.332
 2508SOL    HW217734   8.528   0.728   2.362
 2509SOL     OW17735   2.930   1.917   1.098
 2509SOL    HW117736   2.888   1.842   1.047
 2509SOL    HW217737   2.940   1.996   1.039
 2510SOL     OW17738   8.467   9.290   1.057
 2510SOL    HW117739   8.462   9.316   1.153
 2510SOL    HW217740   8.445   9.370   1.000
 2511SOL     OW17741   1.986   2.389   0.972
 2511SOL    HW117742   2.065   2.364   1.027
 2511SOL    HW217743   1.984   2.488   0.959
 2512SOL     OW17744   0.790   7.332   0.832
 2512SOL    HW117745   0.767   7.284   0.916
 2512SOL    HW217746   0.719   7.400   0.812
 2513SOL     OW17747   4.077   8.516   1.738
 2513SOL    HW117748   4.124   8.532   1.652
 2513SOL    HW217749   4.065   8.602   1.787
 2514SOL     OW17750   1.041   1.816   0.806
 2514SOL    HW117751   0.943   1.833   0.801
 2514SOL    HW217752   1.082   1.875   0.875
 2515SOL     OW17753   1.593   0.835   1.732
 2515SOL    HW117754   1.552   0.904   1.792
 2515SOL    HW217755   1.655   0.880   1.668
 2516SOL     OW17756   8.356   5.781   0.467
 2516SOL    HW117757   8.302   5.700   0.490
 2516SOL    HW217758   8.361   5.790   0.367
 2517SOL     OW17759   8.425   7.070   2.350
 2517SOL    HW117760   8.435   7.068   2.251
 2517SOL    HW217761   8.476   6.994   2.390
 2518SOL     OW17762   0.095   5.187   1.373
 2518SOL    HW117763   0.058   5.272   1.412
 2518SOL    HW217764   0.185   5.205   1.334
 2519SOL     OW17765   1.752   9.671   1.394
 2519SOL    HW117766   1.726   9.699   1.486
 2519SOL    HW217767   1.690   9.599   1.362
 2520SOL     OW17768   9.248   8.999   2.565
 2520SOL    HW117769   9.160   8.952   2.574
 2520SOL    HW217770   9.288   9.013   2.655
 2521SOL     OW17771   8.778   9.098   1.608
 2521SOL    HW117772   8.763   9.077   1.511
 2521SOL    HW217773   8.867   9.143   1.619
 2522SOL     OW17774   3.490   7.278   0.262
 2522SOL    HW117775   3.581   7.304   0.293
 2522SOL    HW217776   3.463   7.336   0.185
 2523SOL     OW17777   9.931   6.835   2.296
 2523SOL    HW117778   9.844   6.812   2.254
 2523SOL    HW217779   9.915   6.874   2.387
 2524SOL     OW17780   4.988   8.146   2.034
 2524SOL    HW117781   5.000   8.048   2.017
 2524SOL    HW217782   4.931   8.159   2.115
 2525SOL     OW17783   2.124   2.584   2.428
 2525SOL    HW117784   2.115   2.504   2.487
 2525SOL    HW217785   2.212   2.629   2.446
 2526SOL     OW17786   1.995   0.004   0.328
 2526SOL    HW117787   1.977   0.047   0.239
 2526SOL    HW217788   2.091   0.018   0.352
 2527SOL     OW17789   9.383   5.349   1.189
 2527SOL    HW117790   9.457   5.329   1.253
 2527SOL    HW217791   9.389   5.445   1.162
 2528SOL     OW17792   9.995   3.032   0.366
 2528SOL    HW117793   0.070   3.056   0.304
 2528SOL    HW217794   0.032   3.000   0.453
 2529SOL     OW17795   3.407   6.519   0.809
 2529SOL    HW117796   3.318   6.501   0.851
 2529SOL    HW217797   3.419   6.618   0.799
 2530SOL     OW17798   0.505   7.737   1.318
 2530SOL    HW117799   0.559   7.670   1.265
 2530SOL    HW217800   0.511   7.826   1.274
 2531SOL     OW17801   4.263   8.183   2.296
 2531SOL    HW117802   4.201   8.226   2.361
 2531SOL    HW217803   4.263   8.084   2.310
 2532SOL     OW17804   0.859   0.641   0.741
 2532SOL    HW117805   0.896   0.727   0.776
 2532SOL    HW217806   0.886   0.566   0.802
 2533SOL     OW17807   2.646   9.168   1.710
 2533SOL    HW117808   2.742   9.190   1.727
 2533SOL    HW217809   2.633   9.069   1.717
 2534SOL     OW17810   8.564   3.410   0.329
 2534SOL    HW117811   8.536   3.488   0.274
 2534SOL    HW217812   8.630   3.355   0.278
 2535SOL     OW17813   9.777   7.239   0.102
 2535SOL    HW117814   9.768   7.153   0.151
 2535SOL    HW217815   9.745   7.227   0.008
 2536SOL     OW17816   0.880   9.612   0.162
 2536SOL    HW117817   0.895   9.543   0.091
 2536SOL    HW217818   0.915   9.578   0.250
 2537SOL     OW17819   2.834   3.983   0.508
 2537SOL    HW117820   2.746   3.965   0.462
 2537SOL    HW217821   2.831   3.944   0.600
 2538SOL     OW17822   0.435   8.948   1.721
 2538SOL    HW117823   0.383   9.031   1.700
 2538SOL    HW217824   0.517   8.944   1.664
 2539SOL     OW17825   8.652   9.895   1.435
 2539SOL    HW117826   8.739   9.849   1.452
 2539SOL    HW217827   8.608   9.856   1.354
 2540SOL     OW17828   0.463   4.116   0.990
 2540SOL    HW117829   0.544   4.080   1.036
 2540SOL    HW217830   0.488   4.151   0.900
 2541SOL     OW17831   7.391   9.258   2.589
 2541SOL    HW117832   7.447   9.315   2.649
 2541SOL    HW217833   7.387   9.165   2.625
 2542SOL     OW17834   8.710   2.031   1.132
 2542SOL    HW117835   8.726   1.937   1.160
 2542SOL    HW217836   8.775   2.092   1.178
 2543SOL     OW17837   1.251   6.581   0.754
 2543SOL    HW117838   1.250   6.680   0.738
 2543SOL    HW217839   1.222   6.562   0.847
 2544SOL     OW17840   1.169   8.493   1.691
 2544SOL    HW117841   1.216   8.405   1.697
 2544SOL    HW217842   1.210   8.548   1.617
 2545SOL     OW17843   0.585   3.499   1.259
 2545SOL    HW117844   0.494   3.466   1.285
 2545SOL    HW217845   0.648   3.421   1.252
 2546SOL     OW17846   1.084   0.765   1.109
 2546SOL    HW117847   1.137   0.774   1.193
 2546SOL    HW217848   0.987   0.776   1.130
 2547SOL     OW17849   9.508   1.726   0.614
 2547SOL    HW117850   9.459   1.668   0.549
 2547SOL    HW217851   9.442   1.774   0.672
 2548SOL     OW17852   3.979   0.762   0.992
 2548SOL    HW117853   3.979   0.859   0.969
 2548SOL    HW217854   3.928   0.711   0.922
 2549SOL     OW17855   2.375   5.737   1.746
 2549SOL    HW117856   2.314   5.670   1.788
 2549SOL    HW217857   2.470   5.710   1.762
 2550SOL     OW17858   1.538   2.413   2.545
 2550SOL    HW117859   1.473   2.341   2.519
 2550SOL    HW217860   1.532   2.488   2.479
 2551SOL     OW17861   8.322   2.295   2.223
 2551SOL    HW117862   8.311   2.221   2.156
 2551SOL    HW217863   8.369   2.260   2.304
 2552SOL     OW17864   1.711   2.406   1.037
 2552SOL    HW117865   1.676   2.328   1.088
 2552SOL    HW217866   1.806   2.390   1.011
 2553SOL     OW17867   0.917   7.470   0.551
 2553SOL    HW117868   0.868   7.383   0.540
 2553SOL    HW217869   0.975   7.466   0.632
 2554SOL     OW17870   9.598   0.990   2.516
 2554SOL    HW117871   9.628   1.047   2.440
 2554SOL    HW217872   9.522   1.034   2.563
 2555SOL     OW17873   2.881   1.879   2.012
 2555SOL    HW117874   2.856   1.911   2.104
 2555SOL    HW217875   2.876   1.779   2.009
 2556SOL     OW17876   8.426   0.702   0.467
 2556SOL    HW117877   8.482   0.691   0.384
 2556SOL    HW217878   8.466   0.650   0.542
 2557SOL     OW17879   3.716   0.553   2.640
 2557SOL    HW117880   3.776   0.514   2.711
 2557SOL    HW217881   3.716   0.493   2.560
 2558SOL     OW17882   2.879   7.132   0.055
 2558SOL    HW117883   2.924   7.042   0.058
 2558SOL    HW217884   2.807   7.135   0.124
 2559SOL     OW17885   9.361   2.137   0.090
 2559SOL    HW117886   9.346   2.090   0.003
 2559SOL    HW217887   9.291   2.108   0.155
 2560SOL     OW17888   7.898   8.869   0.149
 2560SOL    HW117889   7.841   8.800   0.105
 2560SOL    HW217890   7.842   8.924   0.210
 2561SOL     OW17891   0.768   1.891   0.813
 2561SOL    HW117892   0.672   1.871   0.798
 2561SOL    HW217893   0.778   1.987   0.840
 2562SOL     OW17894   3.210   1.733   0.663
 2562SOL    HW117895   3.138   1.688   0.715
 2562SOL    HW217896   3.173   1.815   0.619
 2563SOL     OW17897   0.931   0.963   2.501
 2563SOL    HW117898   1.007   0.912   2.541
 2563SOL    HW217899   0.863   0.899   2.466
 2564SOL     OW17900   2.597   6.960   1.964
 2564SOL    HW117901   2.516   6.950   1.907
 2564SOL    HW217902   2.584   6.908   2.049
 2565SOL     OW17903   8.097   2.390   2.347
 2565SOL    HW117904   8.179   2.361   2.298
 2565SOL    HW217905   8.042   2.310   2.371
 2566SOL     OW17906   9.106   8.526   0.825
 2566SOL    HW117907   9.137   8.595   0.891
 2566SOL    HW217908   9.030   8.475   0.865
 2567SOL     OW17909   7.911   6.974   0.098
 2567SOL    HW117910   7.876   6.897   0.044
 2567SOL    HW217911   7.891   6.959   0.194
 2568SOL     OW17912   9.953   5.395   0.753
 2568SOL    HW117913   9.956   5.376   0.852
 2568SOL    HW217914   9.959   5.308   0.703
 2569SOL     OW17915   8.441   3.238   2.252
 2569SOL    HW117916   8.410   3.310   2.190
 2569SOL    HW217917   8.481   3.163   2.199
 2570SOL     OW17918   3.594   9.596   1.232
 2570SOL    HW117919   3.534   9.555   1.163
 2570SOL    HW217920   3.549   9.676   1.272
 2571SOL     OW17921   2.511   6.539   1.495
 2571SOL    HW117922   2.606   6.509   1.508
 2571SOL    HW217923   2.479   6.511   1.405
 2572SOL     OW17924   2.450   2.090   0.644
 2572SOL    HW117925   2.394   2.107   0.563
 2572SOL    HW217926   2.546   2.078   0.616
 2573SOL     OW17927   0.573   1.298   0.662
 2573SOL    HW117928   0.519   1.280   0.744
 2573SOL    HW217929   0.615   1.212   0.630
 2574SOL     OW17930   3.659   3.553   2.106
 2574SOL    HW117931   3.720   3.536   2.183
 2574SOL    HW217932   3.617   3.467   2.077
 2575SOL     OW17933   1.745   4.656   1.223
 2575SOL    HW117934   1.677   4.585   1.205
 2575SOL    HW217935   1.770   4.700   1.137
 2576SOL     OW17936   9.006   5.408   0.814
 2576SOL    HW117937   8.930   5.471   0.829
 2576SOL    HW217938   8.992   5.326   0.869
 2577SOL     OW17939   1.376   2.874   1.757
 2577SOL    HW117940   1.324   2.942   1.809
 2577SOL    HW217941   1.377   2.788   1.808
 2578SOL     OW17942   2.745   2.470   1.005
 2578SOL    HW117943   2.811   2.532   0.962
 2578SOL    HW217944   2.667   2.523   1.038
 2579SOL     OW17945   2.246   7.542   1.073
 2579SOL    HW117946   2.303   7.560   0.993
 2579SOL    HW217947   2.291   7.475   1.132
 2580SOL     OW17948   4.835   2.539   1.247
 2580SOL    HW117949   4.864   2.554   1.342
 2580SOL    HW217950   4.839   2.625   1.197
 2581SOL     OW17951   7.692   1.785   2.564
 2581SOL    HW117952   7.635   1.719   2.613
 2581SOL    HW217953   7.639   1.828   2.491
 2582SOL     OW17954   8.149   9.159   0.243
 2582SOL    HW117955   8.155   9.258   0.243
 2582SOL    HW217956   8.232   9.120   0.204
 2583SOL     OW17957   4.120   3.035   0.908
 2583SOL    HW117958   4.026   3.051   0.937
 2583SOL    HW217959   4.132   2.939   0.884
 2584SOL     OW17960   2.902   6.650   1.646
 2584SOL    HW117961   2.919   6.634   1.743
 2584SOL    HW217962   2.844   6.577   1.610
 2585SOL     OW17963   3.424   4.749   0.373
 2585SOL    HW117964   3.344   4.804   0.349
 2585SOL    HW217965   3.432   4.672   0.310
 2586SOL     OW17966   1.695   3.194   1.578
 2586SOL    HW117967   1.774   3.197   1.516
 2586SOL    HW217968   1.669   3.099   1.593
 2587SOL     OW17969   1.009   0.425   2.414
 2587SOL    HW117970   0.985   0.491   2.485
 2587SOL    HW217971   0.938   0.422   2.344
 2588SOL     OW17972   2.583   8.128   0.959
 2588SOL    HW117973   2.624   8.180   1.034
 2588SOL    HW217974   2.511   8.183   0.916
 2589SOL     OW17975   6.279   9.645   2.681
 2589SOL    HW117976   6.254   9.696   2.763
 2589SOL    HW217977   6.379   9.637   2.677
 2590SOL     OW17978   8.457   1.720   0.190
 2590SOL    HW117979   8.465   1.792   0.121
 2590SOL    HW217980   8.376   1.735   0.245
 2591SOL     OW17981   1.965   9.235   1.051
 2591SOL    HW117982   2.041   9.198   1.105
 2591SOL    HW217983   1.996   9.254   0.958
 2592SOL     OW17984   3.611   8.599   0.134
 2592SOL    HW117985   3.710   8.614   0.144
 2592SOL    HW217986   3.595   8.506   0.102
 2593SOL     OW17987   8.995   4.450   0.418
 2593SOL    HW117988   8.970   4.481   0.510
 2593SOL    HW217989   8.952   4.510   0.350
 2594SOL     OW17990   4.267   5.430   0.522
 2594SOL    HW117991   4.296   5.407   0.615
 2594SOL    HW217992   4.344   5.418   0.459
 2595SOL     OW17993   0.961   9.999   2.013
 2595SOL    HW117994   1.026   9.959   2.077
 2595SOL    HW217995   1.010   0.035   1.934
 2596SOL     OW17996   4.387   8.316   1.456
 2596SOL    HW117997   4.309   8.379   1.463
 2596SOL    HW217998   4.450   8.333   1.532
 2597SOL     OW17999   9.885   1.807   1.600
 2597SOL    HW118000   9.898   1.906   1.608
 2597SOL    HW218001   9.813   1.777   1.662
 2598SOL     OW18002   3.939   9.925   2.485
 2598SOL    HW118003   4.017   9.935   2.424
 2598SOL    HW218004   3.910   9.829   2.487
 2599SOL     OW18005   3.158   2.953   0.185
 2599SOL    HW118006   3.061   2.975   0.176
 2599SOL    HW218007   3.195   2.996   0.267
 2600SOL     OW18008   1.307   4.122   0.385
 2600SOL    HW118009   1.342   4.140   0.293
 2600SOL    HW218010   1.382   4.096   0.445
 2601SOL     OW18011   0.611   6.368   1.547
 2601SOL    HW118012   0.551   6.448   1.550
 2601SOL    HW218013   0.560   6.289   1.514
 2602SOL     OW18014   8.096   2.691   0.680
 2602SOL    HW118015   8.115   2.771   0.737
 2602SOL    HW218016   8.182   2.645   0.658
 2603SOL     OW18017   2.233   1.986   2.429
 2603SOL    HW118018   2.298   1.947   2.364
 2603SOL    HW218019   2.263   2.077   2.456
 2604SOL     OW18020   0.299   4.728   0.655
 2604SOL    HW118021   0.394   4.738   0.685
 2604SOL    HW218022   0.297   4.716   0.556
 2605SOL     OW18023   1.009   5.238   0.671
 2605SOL    HW118024   1.017   5.177   0.593
 2605SOL    HW218025   1.099   5.276   0.693
 2606SOL     OW18026   2.276   5.009   1.671
 2606SOL    HW118027   2.282   5.013   1.771
 2606SOL    HW218028   2.260   4.914   1.643
 2607SOL     OW18029   8.072   2.308   1.181
 2607SOL    HW118030   8.044   2.385   1.238
 2607SOL    HW218031   8.142   2.339   1.116
 2608SOL     OW18032   7.798   1.019   1.852
 2608SOL    HW118033   7.890   1.049   1.879
 2608SOL    HW218034   7.790   0.920   1.865
 2609SOL     OW18035   1.198   8.868   1.484
 2609SOL    HW118036   1.277   8.928   1.477
 2609SOL    HW218037   1.123   8.916   1.530
 2610SOL     OW18038   0.969   8.220   1.321
 2610SOL    HW118039   1.028   8.140   1.317
 2610SOL    HW218040   1.024   8.303   1.320
 2611SOL     OW18041   2.730   0.018   0.968
 2611SOL    HW118042   2.644   0.068   0.976
 2611SOL    HW218043   2.715   9.933   0.918
 2612SOL     OW18044   3.642   4.623   2.236
 2612SOL    HW118045   3.667   4.659   2.146
 2612SOL    HW218046   3.693   4.672   2.306
 2613SOL     OW18047   9.149   2.348   0.912
 2613SOL    HW118048   9.245   2.369   0.889
 2613SOL    HW218049   9.114   2.280   0.848
 2614SOL     OW18050   8.240   2.595   1.495
 2614SOL    HW118051   8.235   2.691   1.467
 2614SOL    HW218052   8.257   2.591   1.594
 2615SOL     OW18053   4.399   8.633   0.311
 2615SOL    HW118054   4.336   8.644   0.388
 2615SOL    HW218055   4.482   8.587   0.342
 2616SOL     OW18056   2.040   3.382   1.229
 2616SOL    HW118057   2.000   3.431   1.152
 2616SOL    HW218058   2.067   3.447   1.300
 2617SOL     OW18059   3.366   7.985   1.339
 2617SOL    HW118060   3.327   7.988   1.247
 2617SOL    HW218061   3.465   7.973   1.334
 2618SOL     OW18062   0.591   7.950   2.129
 2618SOL    HW118063   0.533   7.997   2.062
 2618SOL    HW218064   0.649   8.017   2.176
 2619SOL     OW18065   2.929   9.100   1.256
 2619SOL    HW118066   2.991   9.089   1.334
 2619SOL    HW218067   2.860   9.029   1.258
 2620SOL     OW18068   3.880   4.029   0.790
 2620SOL    HW118069   3.910   4.062   0.700
 2620SOL    HW218070   3.803   4.084   0.822
 2621SOL     OW18071   7.772   0.284   2.394
 2621SOL    HW118072   7.786   0.381   2.412
 2621SOL    HW218073   7.854   0.246   2.351
 2622SOL     OW18074   2.205   6.399   0.666
 2622SOL    HW118075   2.161   6.316   0.701
 2622SOL    HW218076   2.295   6.375   0.630
 2623SOL     OW18077   4.252   8.304   1.795
 2623SOL    HW118078   4.194   8.383   1.772
 2623SOL    HW218079   4.232   8.275   1.888
 2624SOL     OW18080   2.717   2.845   1.738
 2624SOL    HW118081   2.638   2.811   1.687
 2624SOL    HW218082   2.800   2.833   1.684
 2625SOL     OW18083   0.526   2.826   1.881
 2625SOL    HW118084   0.503   2.779   1.796
 2625SOL    HW218085   0.542   2.757   1.953
 2626SOL     OW18086   4.621   1.407   1.170
 2626SOL    HW118087   4.586   1.440   1.258
 2626SOL    HW218088   4.707   1.453   1.149
 2627SOL     OW18089   8.248   2.389   0.992
 2627SOL    HW118090   8.175   2.436   0.941
 2627SOL    HW218091   8.336   2.430   0.969
 2628SOL     OW18092   0.592   2.866   0.216
 2628SOL    HW118093   0.605   2.887   0.119
 2628SOL    HW218094   0.643   2.932   0.271
 2629SOL     OW18095   0.694   0.796   0.127
 2629SOL    HW118096   0.664   0.708   0.091
 2629SOL    HW218097   0.756   0.840   0.062
 2630SOL     OW18098   3.265   5.934   0.080
 2630SOL    HW118099   3.206   5.884   0.143
 2630SOL    HW218100   3.271   5.884   3.430
 2631SOL     OW18101   2.532   4.432   2.346
 2631SOL    HW118102   2.487   4.343   2.341
 2631SOL    HW218103   2.601   4.439   2.275
 2632SOL     OW18104   2.808   1.573   0.292
 2632SOL    HW118105   2.743   1.515   0.243
 2632SOL    HW218106   2.899   1.532   0.288
 2633SOL     OW18107   4.348   0.448   1.472
 2633SOL    HW118108   4.435   0.482   1.435
 2633SOL    HW218109   4.310   0.516   1.535
 2634SOL     OW18110   9.170   3.866   1.766
 2634SOL    HW118111   9.182   3.767   1.752
 2634SOL    HW218112   9.258   3.908   1.789
 2635SOL     OW18113   0.329   5.278   0.400
 2635SOL    HW118114   0.393   5.349   0.373
 2635SOL    HW218115   0.323   5.274   0.500
 2636SOL     OW18116   1.091   8.180   0.585
 2636SOL    HW118117   1.054   8.205   0.674
 2636SOL    HW218118   1.178   8.132   0.597
 2637SOL     OW18119   4.248   1.066   1.549
 2637SOL    HW118120   4.191   1.002   1.600
 2637SOL    HW218121   4.305   1.118   1.613
 2638SOL     OW18122   8.305   1.238   1.922
 2638SOL    HW118123   8.351   1.319   1.959
 2638SOL    HW218124   8.362   1.157   1.937
 2639SOL     OW18125   0.959   6.343   1.968
 2639SOL    HW118126   0.922   6.369   1.879
 2639SOL    HW218127   1.006   6.422   2.008
 2640SOL     OW18128   7.756   0.520   0.492
 2640SOL    HW118129   7.678   0.483   0.543
 2640SOL    HW218130   7.840   0.498   0.540
 2641SOL     OW18131   3.791   8.743   0.405
 2641SOL    HW118132   3.822   8.696   0.323
 2641SOL    HW218133   3.767   8.676   0.475
 2642SOL     OW18134   1.765   0.093   0.460
 2642SOL    HW118135   1.848   0.052   0.422
 2642SOL    HW218136   1.732   0.165   0.398
 2643SOL     OW18137   8.379   8.933   0.519
 2643SOL    HW118138   8.412   8.839   0.527
 2643SOL    HW218139   8.446   8.987   0.467
 2644SOL     OW18140   1.072   4.761   1.384
 2644SOL    HW118141   1.121   4.840   1.345
 2644SOL    HW218142   1.120   4.729   1.465
 2645SOL     OW18143   0.532   9.319   1.424
 2645SOL    HW118144   0.599   9.247   1.404
 2645SOL    HW218145   0.524   9.331   1.524
 2646SOL     OW18146   3.906   0.906   0.597
 2646SOL    HW118147   3.820   0.868   0.632
 2646SOL    HW218148   3.951   0.839   0.538
 2647SOL     OW18149   1.583   9.247   1.459
 2647SOL    HW118150   1.650   9.176   1.439
 2647SOL    HW218151   1.592   9.322   1.394
 2648SOL     OW18152   4.567   1.698   1.653
 2648SOL    HW118153   4.663   1.671   1.645
 2648SOL    HW218154   4.525   1.700   1.563
 2649SOL     OW18155   4.110   3.317   0.521
 2649SOL    HW118156   4.158   3.275   0.598
 2649SOL    HW218157   4.034   3.373   0.554
 2650SOL     OW18158   3.673   0.473   1.478
 2650SOL    HW118159   3.754   0.516   1.438
 2650SOL    HW218160   3.661   0.506   1.572
 2651SOL     OW18161   0.488   9.388   1.693
 2651SOL    HW118162   0.473   9.381   1.792
 2651SOL    HW218163   0.475   9.482   1.664
 2652SOL     OW18164   9.109   3.471   1.706
 2652SOL    HW118165   9.056   3.447   1.788
 2652SOL    HW218166   9.191   3.414   1.702
 2653SOL     OW18167   7.967   2.756   1.267
 2653SOL    HW118168   7.991   2.816   1.344
 2653SOL    HW218169   7.981   2.661   1.294
 2654SOL     OW18170   8.491   1.816   0.529
 2654SOL    HW118171   8.403   1.857   0.551
 2654SOL    HW218172   8.484   1.717   0.533
 2655SOL     OW18173   0.855   9.628   0.904
 2655SOL    HW118174   0.789   9.693   0.940
 2655SOL    HW218175   0.942   9.638   0.954
 2656SOL     OW18176   9.974   9.207   0.345
 2656SOL    HW118177   9.938   9.298   0.327
 2656SOL    HW218178   0.014   9.170   0.261
 2657SOL     OW18179   1.185   1.305   2.051
 2657SOL    HW118180   1.129   1.224   2.070
 2657SOL    HW218181   1.136   1.387   2.080
 2658SOL     OW18182   8.262   3.953   0.254
 2658SOL    HW118183   8.208   3.872   0.232
 2658SOL    HW218184   8.246   3.979   0.350
 2659SOL     OW18185   9.504   0.452   2.098
 2659SOL    HW118186   9.583   0.508   2.123
 2659SOL    HW218187   9.527   0.356   2.104
 2660SOL     OW18188   7.131   8.925   1.766
 2660SOL    HW118189   7.037   8.892   1.757
 2660SOL    HW218190   7.194   8.848   1.761
 2661SOL     OW18191   1.697   6.356   1.772
 2661SOL    HW118192   1.719   6.319   1.863
 2661SOL    HW218193   1.729   6.450   1.766
 2662SOL     OW18194   9.160   1.308   2.176
 2662SOL    HW118195   9.202   1.398   2.180
 2662SOL    HW218196   9.113   1.289   2.262
 2663SOL     OW18197   2.427   1.169   1.428
 2663SOL    HW118198   2.426   1.092   1.492
 2663SOL    HW218199   2.426   1.135   1.334
 2664SOL     OW18200   4.997   7.824   2.419
 2664SOL    HW118201   4.959   7.874   2.497
 2664SOL    HW218202   5.063   7.882   2.372
 2665SOL     OW18203   1.305   3.075   1.251
 2665SOL    HW118204   1.384   3.035   1.205
 2665SOL    HW218205   1.335   3.147   1.314
 2666SOL     OW18206   2.310   1.394   1.527
 2666SOL    HW118207   2.356   1.314   1.488
 2666SOL    HW218208   2.342   1.477   1.480
 2667SOL     OW18209   4.117   2.879   0.545
 2667SOL    HW118210   4.132   2.842   0.453
 2667SOL    HW218211   4.204   2.885   0.593
 2668SOL     OW18212   9.605   8.571   0.116
 2668SOL    HW118213   9.584   8.668   0.103
 2668SOL    HW218214   9.696   8.561   0.155
 2669SOL     OW18215   2.701   3.632   0.493
 2669SOL    HW118216   2.799   3.615   0.506
 2669SOL    HW218217   2.655   3.548   0.467
 2670SOL     OW18218   8.518   9.375   0.275
 2670SOL    HW118219   8.607   9.419   0.261
 2670SOL    HW218220   8.461   9.390   0.194
 2671SOL     OW18221   1.816   0.128   1.546
 2671SOL    HW118222   1.862   0.187   1.480
 2671SOL    HW218223   1.733   0.090   1.506
 2672SOL     OW18224   8.604   8.157   0.243
 2672SOL    HW118225   8.548   8.185   0.321
 2672SOL    HW218226   8.690   8.118   0.277
 2673SOL     OW18227   0.856   1.886   0.544
 2673SOL    HW118228   0.820   1.893   0.637
 2673SOL    HW218229   0.880   1.792   0.524
 2674SOL     OW18230   3.543   5.330   1.522
 2674SOL    HW118231   3.444   5.315   1.531
 2674SOL    HW218232   3.562   5.428   1.519
 2675SOL     OW18233   4.357   2.855   0.687
 2675SOL    HW118234   4.418   2.781   0.659
 2675SOL    HW218235   4.400   2.908   0.760
 2676SOL     OW18236   8.247   4.034   0.518
 2676SOL    HW118237   8.190   4.114   0.504
 2676SOL    HW218238   8.304   4.047   0.599
 2677SOL     OW18239   1.393   7.233   0.228
 2677SOL    HW118240   1.417   7.330   0.225
 2677SOL    HW218241   1.458   7.181   0.173
 2678SOL     OW18242   1.192   5.780   1.085
 2678SOL    HW118243   1.254   5.702   1.093
 2678SOL    HW218244   1.119   5.773   1.153
 2679SOL     OW18245   7.732   8.888   1.634
 2679SOL    HW118246   7.796   8.874   1.710
 2679SOL    HW218247   7.779   8.933   1.558
 2680SOL     OW18248   5.960   9.092   2.462
 2680SOL    HW118249   6.031   9.059   2.524
 2680SOL    HW218250   6.002   9.145   2.388
 2681SOL     OW18251   8.307   7.382   1.873
 2681SOL    HW118252   8.248   7.377   1.954
 2681SOL    HW218253   8.397   7.345   1.895
 2682SOL     OW18254   8.058   1.123   1.251
 2682SOL    HW118255   8.122   1.063   1.204
 2682SOL    HW218256   8.023   1.191   1.187
 2683SOL     OW18257   3.119   5.797   0.273
 2683SOL    HW118258   3.089   5.714   0.320
 2683SOL    HW218259   3.172   5.854   0.336
 2684SOL     OW18260   4.181   1.225   2.258
 2684SOL    HW118261   4.238   1.305   2.240
 2684SOL    HW218262   4.109   1.249   2.322
 2685SOL     OW18263   0.228   1.270   0.976
 2685SOL    HW118264   0.185   1.235   0.893
 2685SOL    HW218265   0.236   1.197   1.043
 2686SOL     OW18266   2.415   8.391   2.482
 2686SOL    HW118267   2.420   8.491   2.489
 2686SOL    HW218268   2.473   8.350   2.552
 2687SOL     OW18269   3.546   3.297   2.542
 2687SOL    HW118270   3.519   3.309   2.446
 2687SOL    HW218271   3.638   3.335   2.555
 2688SOL     OW18272   0.067   2.821   1.456
 2688SOL    HW118273   0.073   2.887   1.381
 2688SOL    HW218274   0.015   2.741   1.427
 2689SOL     OW18275   8.404   2.041   1.241
 2689SOL    HW118276   8.370   1.977   1.310
 2689SOL    HW218277   8.502   2.026   1.227
 2690SOL     OW18278   7.253   8.808   2.571
 2690SOL    HW118279   7.243   8.709   2.560
 2690SOL    HW218280   7.243   8.853   2.482
 2691SOL     OW18281   9.240   0.379   1.433
 2691SOL    HW118282   9.167   0.373   1.365
 2691SOL    HW218283   9.204   0.415   1.519
 2692SOL     OW18284   8.494   2.017   1.614
 2692SOL    HW118285   8.520   1.955   1.688
 2692SOL    HW218286   8.421   1.976   1.560
 2693SOL     OW18287   1.410   9.184   2.009
 2693SOL    HW118288   1.481   9.248   2.038
 2693SOL    HW218289   1.352   9.227   1.940
 2694SOL     OW18290   2.757   6.601   0.162
 2694SOL    HW118291   2.716   6.509   0.167
 2694SOL    HW218292   2.753   6.634   0.068
 2695SOL     OW18293   8.223   5.563   0.557
 2695SOL    HW118294   8.146   5.586   0.616
 2695SOL    HW218295   8.288   5.506   0.608
 2696SOL     OW18296   2.134   0.898   0.768
 2696SOL    HW118297   2.112   0.873   0.862
 2696SOL    HW218298   2.198   0.975   0.768
 2697SOL     OW18299   3.505   3.354   0.452
 2697SOL    HW118300   3.443   3.356   0.374
 2697SOL    HW218301   3.599   3.366   0.420
 2698SOL     OW18302   8.535   6.393   1.067
 2698SOL    HW118303   8.592   6.350   1.136
 2698SOL    HW218304   8.592   6.448   1.006
 2699SOL     OW18305   9.065   1.063   0.384
 2699SOL    HW118306   9.122   1.087   0.462
 2699SOL    HW218307   9.027   1.146   0.342
 2700SOL     OW18308   7.909   2.220   1.684
 2700SOL    HW118309   8.005   2.194   1.667
 2700SOL    HW218310   7.896   2.235   1.782
 2701SOL     OW18311   4.148   8.984   1.212
 2701SOL    HW118312   4.163   8.887   1.194
 2701SOL    HW218313   4.233   9.035   1.198
 2702SOL     OW18314   0.307   7.745   1.503
 2702SOL    HW118315   0.375   7.738   1.430
 2702SOL    HW218316   0.353   7.739   1.592
 2703SOL     OW18317   1.269   8.676   2.395
 2703SOL    HW118318   1.314   8.765   2.402
 2703SOL    HW218319   1.190   8.674   2.457
 2704SOL     OW18320   7.460   9.408   1.552
 2704SOL    HW118321   7.361   9.391   1.548
 2704SOL    HW218322   7.478   9.487   1.611
 2705SOL     OW18323   2.685   4.912   1.817
 2705SOL    HW118324   2.644   4.844   1.757
 2705SOL    HW218325   2.626   4.927   1.897
 2706SOL     OW18326   3.796   3.406   2.567
 2706SOL    HW118327   3.873   3.347   2.590
 2706SOL    HW218328   3.819   3.501   2.588
 2707SOL     OW18329   2.180   6.346   0.113
 2707SOL    HW118330   2.275   6.375   0.127
 2707SOL    HW218331   2.122   6.427   0.105
 2708SOL     OW18332   2.408   7.623   0.853
 2708SOL    HW118333   2.343   7.642   0.779
 2708SOL    HW218334   2.444   7.710   0.889
 2709SOL     OW18335   3.465   0.528   0.363
 2709SOL    HW118336   3.508   0.617   0.378
 2709SOL    HW218337   3.444   0.486   0.451
 2710SOL     OW18338   4.235   7.602   1.056
 2710SOL    HW118339   4.175   7.523   1.070
 2710SOL    HW218340   4.181   7.686   1.059
 2711SOL     OW18341   0.236   6.763   1.593
 2711SOL    HW118342   0.216   6.783   1.497
 2711SOL    HW218343   0.281   6.843   1.634
 2712SOL     OW18344   2.396   7.816   1.210
 2712SOL    HW118345   2.303   7.795   1.238
 2712SOL    HW218346   2.461   7.776   1.275
 2713SOL     OW18347   8.118   2.252   0.520
 2713SOL    HW118348   8.121   2.182   0.449
 2713SOL    HW218349   8.173   2.222   0.598
 2714SOL     OW18350   2.572   3.812   1.706
 2714SOL    HW118351   2.584   3.863   1.620
 2714SOL    HW218352   2.628   3.855   1.777
 2715SOL     OW18353   0.971   1.927   1.761
 2715SOL    HW118354   1.015   1.964   1.844
 2715SOL    HW218355   1.041   1.912   1.691
 2716SOL     OW18356   2.986   2.140   0.953
 2716SOL    HW118357   3.006   2.203   0.878
 2716SOL    HW218358   3.052   2.154   1.027
 2717SOL     OW18359   2.493   5.365   0.481
 2717SOL    HW118360   2.472   5.437   0.547
 2717SOL    HW218361   2.409   5.321   0.450
 2718SOL     OW18362   2.321   6.352   1.914
 2718SOL    HW118363   2.260   6.290   1.864
 2718SOL    HW218364   2.379   6.299   1.976
 2719SOL     OW18365   0.601   1.740   0.227
 2719SOL    HW118366   0.524   1.706   0.281
 2719SOL    HW218367   0.625   1.832   0.257
 2720SOL     OW18368   8.866   1.069   2.488
 2720SOL    HW118369   8.797   1.121   2.538
 2720SOL    HW218370   8.941   1.130   2.461
 2721SOL     OW18371   7.648   0.461   1.511
 2721SOL    HW118372   7.600   0.549   1.516
 2721SOL    HW218373   7.583   0.388   1.491
 2722SOL     OW18374   1.394   7.829   1.574
 2722SOL    HW118375   1.423   7.766   1.502
 2722SOL    HW218376   1.473   7.856   1.629
 2723SOL     OW18377   7.258   9.951   0.604
 2723SOL    HW118378   7.329   9.894   0.644
 2723SOL    HW218379   7.291   9.989   0.517
 2724SOL     OW18380   0.590   1.631   2.206
 2724SOL    HW118381   0.549   1.580   2.281
 2724SOL    HW218382   0.607   1.725   2.235
 2725SOL     OW18383   1.710   8.710   0.474
 2725SOL    HW118384   1.616   8.744   0.477
 2725SOL    HW218385   1.727   8.667   0.385
 2726SOL     OW18386   0.700   9.360   2.298
 2726SOL    HW118387   0.653   9.275   2.323
 2726SOL    HW218388   0.643   9.438   2.322
 2727SOL     OW18389   8.597   7.040   1.177
 2727SOL    HW118390   8.499   7.023   1.162
 2727SOL    HW218391   8.631   7.103   1.107
 2728SOL     OW18392   0.440   2.498   0.978
 2728SOL    HW118393   0.364   2.557   0.951
 2728SOL    HW218394   0.405   2.422   1.033
 2729SOL     OW18395   3.228   5.246   0.811
 2729SOL    HW118396   3.301   5.229   0.877
 2729SOL    HW218397   3.182   5.160   0.789
 2730SOL     OW18398   1.614   4.941   2.623
 2730SOL    HW118399   1.637   4.916   2.718
 2730SOL    HW218400   1.602   5.040   2.617
 2731SOL     OW18401   2.047   0.973   1.243
 2731SOL    HW118402   2.031   1.070   1.261
 2731SOL    HW218403   2.118   0.940   1.305
 2732SOL     OW18404   1.714   9.029   0.774
 2732SOL    HW118405   1.776   8.980   0.713
 2732SOL    HW218406   1.681   9.112   0.728
 2733SOL     OW18407   8.760   6.582   2.616
 2733SOL    HW118408   8.667   6.569   2.652
 2733SOL    HW218409   8.774   6.519   2.539
 2734SOL     OW18410   2.985   1.299   2.378
 2734SOL    HW118411   3.068   1.339   2.340
 2734SOL    HW218412   3.008   1.215   2.428
 2735SOL     OW18413   3.199   9.621   0.187
 2735SOL    HW118414   3.115   9.573   0.162
 2735SOL    HW218415   3.179   9.717   0.206
 2736SOL     OW18416   7.353   0.207   2.364
 2736SOL    HW118417   7.331   0.168   2.274
 2736SOL    HW218418   7.417   0.283   2.352
 2737SOL     OW18419   3.558   6.143   2.554
 2737SOL    HW118420   3.606   6.063   2.517
 2737SOL    HW218421   3.558   6.216   2.486
 2738SOL     OW18422   2.232   5.263   0.422
 2738SOL    HW118423   2.180   5.237   0.503
 2738SOL    HW218424   2.171   5.308   0.356
 2739SOL     OW18425   0.401   7.271   0.771
 2739SOL    HW118426   0.422   7.269   0.674
 2739SOL    HW218427   0.303   7.256   0.785
 2740SOL     OW18428   1.956   7.877   0.952
 2740SOL    HW118429   1.859   7.878   0.927
 2740SOL    HW218430   1.984   7.782   0.970
 2741SOL     OW18431   1.998   1.020   0.226
 2741SOL    HW118432   2.047   1.050   0.145
 2741SOL    HW218433   1.902   1.005   0.203
 2742SOL     OW18434   7.858   2.670   1.027
 2742SOL    HW118435   7.775   2.719   1.001
 2742SOL    HW218436   7.890   2.704   1.115
 2743SOL     OW18437   2.494   2.646   0.909
 2743SOL    HW118438   2.573   2.681   0.859
 2743SOL    HW218439   2.467   2.711   0.979
 2744SOL     OW18440   3.643   8.869   1.372
 2744SOL    HW118441   3.575   8.799   1.394
 2744SOL    HW218442   3.671   8.859   1.276
 2745SOL     OW18443   0.923   5.980   2.584
 2745SOL    HW118444   0.991   5.916   2.548
 2745SOL    HW218445   0.963   6.072   2.588
 2746SOL     OW18446   8.127   8.940   0.411
 2746SOL    HW118447   8.215   8.936   0.458
 2746SOL    HW218448   8.128   9.017   0.347
 2747SOL     OW18449   0.239   7.876   1.875
 2747SOL    HW118450   0.188   7.944   1.821
 2747SOL    HW218451   0.174   7.816   1.921
 2748SOL     OW18452   2.061   0.831   1.018
 2748SOL    HW118453   2.081   0.737   1.045
 2748SOL    HW218454   2.055   0.888   1.100
 2749SOL     OW18455   9.995   9.960   2.263
 2749SOL    HW118456   9.941   0.040   2.236
 2749SOL    HW218457   9.983   9.887   2.196
 2750SOL     OW18458   7.505   9.936   2.057
 2750SOL    HW118459   7.590   9.978   2.089
 2750SOL    HW218460   7.518   9.899   1.965
 2751SOL     OW18461   7.386   9.282   2.113
 2751SOL    HW118462   7.410   9.194   2.073
 2751SOL    HW218463   7.336   9.267   2.198
 2752SOL     OW18464   1.562   5.823   2.478
 2752SOL    HW118465   1.637   5.889   2.472
 2752SOL    HW218466   1.599   5.733   2.503
 2753SOL     OW18467   2.125   2.189   2.071
 2753SOL    HW118468   2.175   2.275   2.076
 2753SOL    HW218469   2.174   2.125   2.012
 2754SOL     OW18470   0.763   3.877   2.134
 2754SOL    HW118471   0.859   3.863   2.156
 2754SOL    HW218472   0.752   3.887   2.035
 2755SOL     OW18473   9.336   6.005   0.141
 2755SOL    HW118474   9.277   6.036   0.215
 2755SOL    HW218475   9.415   6.066   0.134
 2756SOL     OW18476   0.680   1.069   0.538
 2756SOL    HW118477   0.773   1.035   0.527
 2756SOL    HW218478   0.652   1.116   0.454
 2757SOL     OW18479   2.860   7.710   2.074
 2757SOL    HW118480   2.957   7.710   2.098
 2757SOL    HW218481   2.819   7.624   2.105
 2758SOL     OW18482   1.796   2.341   2.509
 2758SOL    HW118483   1.705   2.365   2.540
 2758SOL    HW218484   1.793   2.253   2.460
 2759SOL     OW18485   1.656   8.018   0.233
 2759SOL    HW118486   1.719   7.953   0.275
 2759SOL    HW218487   1.570   8.020   0.284
 2760SOL     OW18488   4.749   0.753   2.199
 2760SOL    HW118489   4.651   0.771   2.206
 2760SOL    HW218490   4.773   0.675   2.256
 2761SOL     OW18491   4.946   2.084   1.154
 2761SOL    HW118492   4.970   2.178   1.131
 2761SOL    HW218493   4.951   2.071   1.253
 2762SOL     OW18494   2.275   8.363   1.106
 2762SOL    HW118495   2.311   8.343   1.015
 2762SOL    HW218496   2.237   8.280   1.147
 2763SOL     OW18497   3.485   1.811   0.097
 2763SOL    HW118498   3.498   1.900   0.142
 2763SOL    HW218499   3.531   1.740   0.151
 2764SOL     OW18500   1.729   6.698   1.194
 2764SOL    HW118501   1.661   6.730   1.128
 2764SOL    HW218502   1.797   6.771   1.209
 2765SOL     OW18503   9.907   1.103   0.189
 2765SOL    HW118504   9.964   1.025   0.166
 2765SOL    HW218505   9.811   1.079   0.177
 2766SOL     OW18506   2.155   6.180   1.775
 2766SOL    HW118507   2.081   6.114   1.790
 2766SOL    HW218508   2.129   6.243   1.701
 2767SOL     OW18509   3.686   0.890   2.010
 2767SOL    HW118510   3.682   0.956   1.935
 2767SOL    HW218511   3.736   0.930   2.087
 2768SOL     OW18512   8.942   5.168   1.665
 2768SOL    HW118513   9.002   5.099   1.706
 2768SOL    HW218514   8.987   5.206   1.584
 2769SOL     OW18515   3.162   2.895   1.874
 2769SOL    HW118516   3.070   2.901   1.911
 2769SOL    HW218517   3.182   2.978   1.821
 2770SOL     OW18518   0.219   0.858   0.814
 2770SOL    HW118519   0.194   0.789   0.881
 2770SOL    HW218520   0.221   0.817   0.723
 2771SOL     OW18521   9.970   2.106   1.953
 2771SOL    HW118522   9.898   2.066   2.009
 2771SOL    HW218523   0.021   2.032   1.907
 2772SOL     OW18524   1.944   8.202   2.126
 2772SOL    HW118525   2.013   8.221   2.195
 2772SOL    HW218526   1.857   8.242   2.153
 2773SOL     OW18527   9.313   3.026   1.551
 2773SOL    HW118528   9.271   3.021   1.460
 2773SOL    HW218529   9.407   2.992   1.545
 2774SOL     OW18530   9.962   1.584   0.098
 2774SOL    HW118531   9.902   1.516   0.141
 2774SOL    HW218532   9.966   1.567   3.436
 2775SOL     OW18533   2.279   9.710   1.079
 2775SOL    HW118534   2.378   9.704   1.070
 2775SOL    HW218535   2.237   9.719   0.988
 2776SOL     OW18536   3.297   7.213   1.650
 2776SOL    HW118537   3.197   7.206   1.650
 2776SOL    HW218538   3.336   7.140   1.594
 2777SOL     OW18539   3.494   0.714   2.617
 2777SOL    HW118540   3.577   0.659   2.631
 2777SOL    HW218541   3.424   0.658   2.574
 2778SOL     OW18542   9.664   2.349   0.945
 2778SOL    HW118543   9.694   2.349   1.040
 2778SOL    HW218544   9.737   2.385   0.887
 2779SOL     OW18545   2.609   1.564   1.007
 2779SOL    HW118546   2.524   1.569   1.061
 2779SOL    HW218547   2.601   1.492   0.939
 2780SOL     OW18548   2.623   7.451   0.767
 2780SOL    HW118549   2.551   7.509   0.805
 2780SOL    HW218550   2.662   7.395   0.840
 2781SOL     OW18551   3.114   9.255   0.817
 2781SOL    HW118552   3.182   9.217   0.754
 2781SOL    HW218553   3.035   9.288   0.766
 2782SOL     OW18554   0.834   1.067   1.606
 2782SOL    HW118555   0.753   1.008   1.601
 2782SOL    HW218556   0.909   1.025   1.555
 2783SOL     OW18557   3.301   7.805   0.248
 2783SOL    HW118558   3.274   7.708   0.247
 2783SOL    HW218559   3.391   7.814   0.291
 2784SOL     OW18560   9.532   1.833   0.187
 2784SOL    HW118561   9.515   1.914   0.244
 2784SOL    HW218562   9.607   1.780   0.226
 2785SOL     OW18563   7.172   9.399   1.972
 2785SOL    HW118564   7.245   9.345   2.014
 2785SOL    HW218565   7.178   9.494   2.003
 2786SOL     OW18566   2.117   3.118   1.588
 2786SOL    HW118567   2.174   3.192   1.553
 2786SOL    HW218568   2.175   3.050   1.633
 2787SOL     OW18569   0.302   9.806   0.741
 2787SOL    HW118570   0.356   9.863   0.802
 2787SOL    HW218571   0.295   9.714   0.779
 2788SOL     OW18572   7.655   1.717   1.974
 2788SOL    HW118573   7.669   1.788   2.043
 2788SOL    HW218574   7.587   1.749   1.908
 2789SOL     OW18575   0.576   3.489   1.672
 2789SOL    HW118576   0.494   3.434   1.665
 2789SOL    HW218577   0.578   3.556   1.598
 2790SOL     OW18578   0.677   8.846   0.108
 2790SOL    HW118579   0.631   8.760   0.131
 2790SOL    HW218580   0.611   8.922   0.115
 2791SOL     OW18581   9.820   3.785   1.515
 2791SOL    HW118582   9.875   3.857   1.474
 2791SOL    HW218583   9.737   3.770   1.460
 2792SOL     OW18584   7.807   9.685   1.887
 2792SOL    HW118585   7.884   9.746   1.867
 2792SOL    HW218586   7.810   9.606   1.826
 2793SOL     OW18587   1.941   2.803   1.795
 2793SOL    HW118588   1.864   2.785   1.734
 2793SOL    HW218589   1.918   2.878   1.857
 2794SOL     OW18590   0.055   6.383   2.240
 2794SOL    HW118591   0.052   6.430   2.151
 2794SOL    HW218592   0.012   6.441   2.309
 2795SOL     OW18593   1.742   9.894   1.978
 2795SOL    HW118594   1.678   9.831   1.934
 2795SOL    HW218595   1.698   9.936   2.057
 2796SOL     OW18596   8.835   2.154   2.616
 2796SOL    HW118597   8.773   2.218   2.571
 2796SOL    HW218598   8.852   2.184   2.709
 2797SOL     OW18599   8.665   0.218   1.810
 2797SOL    HW118600   8.719   0.276   1.749
 2797SOL    HW218601   8.689   0.238   1.905
 2798SOL     OW18602   4.464   9.541   0.351
 2798SOL    HW118603   4.486   9.479   0.275
 2798SOL    HW218604   4.543   9.550   0.411
 2799SOL     OW18605   7.375   1.074   0.738
 2799SOL    HW118606   7.358   1.160   0.689
 2799SOL    HW218607   7.420   1.010   0.676
 2800SOL     OW18608   2.467   2.829   1.122
 2800SOL    HW118609   2.523   2.888   1.064
 2800SOL    HW218610   2.399   2.884   1.170
 2801SOL     OW18611   3.105   9.607   2.521
 2801SOL    HW118612   3.062   9.631   2.434
 2801SOL    HW218613   3.172   9.678   2.546
 2802SOL     OW18614   1.878   9.171   2.320
 2802SOL    HW118615   1.862   9.128   2.231
 2802SOL    HW218616   1.962   9.225   2.316
 2803SOL     OW18617   9.531   0.929   0.273
 2803SOL    HW118618   9.585   0.902   0.193
 2803SOL    HW218619   9.439   0.891   0.266
 2804SOL     OW18620   1.010   1.101   2.086
 2804SOL    HW118621   0.959   1.113   2.001
 2804SOL    HW218622   0.950   1.120   2.164
 2805SOL     OW18623   2.647   8.312   2.634
 2805SOL    HW118624   2.692   8.316   2.723
 2805SOL    HW218625   2.675   8.391   2.579
 2806SOL     OW18626   2.121   0.306   1.058
 2806SOL    HW118627   2.021   0.295   1.064
 2806SOL    HW218628   2.158   0.232   1.001
 2807SOL     OW18629   1.248   7.316   2.181
 2807SOL    HW118630   1.162   7.290   2.225
 2807SOL    HW218631   1.269   7.411   2.203
 2808SOL     OW18632   0.596   2.897   1.174
 2808SOL    HW118633   0.672   2.933   1.228
 2808SOL    HW218634   0.625   2.814   1.127
 2809SOL     OW18635   4.158   1.303   1.838
 2809SOL    HW118636   4.130   1.399   1.839
 2809SOL    HW218637   4.115   1.255   1.915
 2810SOL     OW18638   8.288   3.769   0.916
 2810SOL    HW118639   8.203   3.748   0.866
 2810SOL    HW218640   8.363   3.781   0.851
 2811SOL     OW18641   8.575   7.356   1.331
 2811SOL    HW118642   8.553   7.413   1.410
 2811SOL    HW218643   8.600   7.264   1.363
 2812SOL     OW18644   6.312   9.190   2.218
 2812SOL    HW118645   6.222   9.232   2.229
 2812SOL    HW218646   6.376   9.231   2.282
 2813SOL     OW18647   9.469   5.350   1.604
 2813SOL    HW118648   9.409   5.430   1.602
 2813SOL    HW218649   9.510   5.337   1.514
 2814SOL     OW18650   9.087   5.375   0.549
 2814SOL    HW118651   9.063   5.383   0.645
 2814SOL    HW218652   9.022   5.427   0.494
 2815SOL     OW18653   0.072   6.163   1.428
 2815SOL    HW118654   0.107   6.070   1.433
 2815SOL    HW218655   9.991   6.166   1.370
 2816SOL     OW18656   3.263   0.577   2.532
 2816SOL    HW118657   3.222   0.635   2.603
 2816SOL    HW218658   3.216   0.592   2.445
 2817SOL     OW18659   0.344   5.641   2.461
 2817SOL    HW118660   0.248   5.618   2.446
 2817SOL    HW218661   0.385   5.666   2.373
 2818SOL     OW18662   4.573   3.949   2.462
 2818SOL    HW118663   4.496   3.934   2.523
 2818SOL    HW218664   4.544   3.934   2.367
 2819SOL     OW18665   9.282   4.294   2.442
 2819SOL    HW118666   9.272   4.381   2.394
 2819SOL    HW218667   9.340   4.233   2.389
 2820SOL     OW18668   8.438   7.720   1.451
 2820SOL    HW118669   8.470   7.636   1.494
 2820SOL    HW218670   8.384   7.772   1.517
 2821SOL     OW18671   2.788   1.686   2.344
 2821SOL    HW118672   2.851   1.612   2.317
 2821SOL    HW218673   2.695   1.661   2.318
 2822SOL     OW18674   8.847   5.106   1.191
 2822SOL    HW118675   8.801   5.187   1.228
 2822SOL    HW218676   8.856   5.037   1.263
 2823SOL     OW18677   4.256   9.255   1.403
 2823SOL    HW118678   4.168   9.298   1.382
 2823SOL    HW218679   4.252   9.215   1.495
 2824SOL     OW18680   3.260   8.004   1.082
 2824SOL    HW118681   3.209   8.038   1.002
 2824SOL    HW218682   3.261   7.904   1.080
 2825SOL     OW18683   7.972   1.444   2.061
 2825SOL    HW118684   8.003   1.380   2.131
 2825SOL    HW218685   7.873   1.455   2.067
 2826SOL     OW18686   2.497   4.176   1.374
 2826SOL    HW118687   2.408   4.196   1.414
 2826SOL    HW218688   2.486   4.156   1.277
 2827SOL     OW18689   8.747   3.732   2.227
 2827SOL    HW118690   8.660   3.688   2.247
 2827SOL    HW218691   8.819   3.689   2.282
 2828SOL     OW18692   9.409   5.065   0.553
 2828SOL    HW118693   9.456   5.016   0.479
 2828SOL    HW218694   9.476   5.118   0.605
 2829SOL     OW18695   2.659   4.527   0.546
 2829SOL    HW118696   2.582   4.589   0.534
 2829SOL    HW218697   2.640   4.440   0.501
 2830SOL     OW18698   2.259   5.556   1.360
 2830SOL    HW118699   2.283   5.507   1.276
 2830SOL    HW218700   2.342   5.596   1.400
 2831SOL     OW18701   2.020   5.009   1.294
 2831SOL    HW118702   2.021   5.088   1.355
 2831SOL    HW218703   1.962   5.027   1.216
 2832SOL     OW18704   4.429   0.477   2.250
 2832SOL    HW118705   4.496   0.439   2.186
 2832SOL    HW218706   4.435   0.428   2.337
 2833SOL     OW18707   4.617   1.256   0.939
 2833SOL    HW118708   4.608   1.315   1.019
 2833SOL    HW218709   4.528   1.251   0.892
 2834SOL     OW18710   2.291   0.620   1.780
 2834SOL    HW118711   2.362   0.577   1.836
 2834SOL    HW218712   2.202   0.580   1.802
 2835SOL     OW18713   9.078   9.554   1.742
 2835SOL    HW118714   9.111   9.493   1.670
 2835SOL    HW218715   8.998   9.514   1.786
 2836SOL     OW18716   2.504   1.347   0.560
 2836SOL    HW118717   2.578   1.290   0.524
 2836SOL    HW218718   2.500   1.433   0.510
 2837SOL     OW18719   3.368   9.146   0.370
 2837SOL    HW118720   3.466   9.141   0.350
 2837SOL    HW218721   3.321   9.068   0.330
 2838SOL     OW18722   3.292   4.302   0.144
 2838SOL    HW118723   3.299   4.218   0.198
 2838SOL    HW218724   3.302   4.281   0.047
 2839SOL     OW18725   1.547   4.032   0.518
 2839SOL    HW118726   1.551   4.050   0.616
 2839SOL    HW218727   1.568   4.116   0.468
 2840SOL     OW18728   8.595   0.308   1.444
 2840SOL    HW118729   8.672   0.253   1.475
 2840SOL    HW218730   8.522   0.249   1.410
 2841SOL     OW18731   2.669   9.060   2.340
 2841SOL    HW118732   2.592   9.071   2.277
 2841SOL    HW218733   2.750   9.031   2.289
 2842SOL     OW18734   0.357   4.918   2.453
 2842SOL    HW118735   0.454   4.916   2.430
 2842SOL    HW218736   0.334   5.006   2.493
 2843SOL     OW18737   9.267   4.528   2.313
 2843SOL    HW118738   9.331   4.572   2.250
 2843SOL    HW218739   9.196   4.593   2.339
 2844SOL     OW18740   0.073   5.830   2.091
 2844SOL    HW118741   9.989   5.830   2.146
 2844SOL    HW218742   0.121   5.743   2.104
 2845SOL     OW18743   4.051   0.048   0.568
 2845SOL    HW118744   4.058   9.964   0.513
 2845SOL    HW218745   4.068   0.026   0.664
 2846SOL     OW18746   3.332   0.837   0.027
 2846SOL    HW118747   3.306   0.828   3.368
 2846SOL    HW218748   3.317   0.751   0.075
 2847SOL     OW18749   9.210   3.923   2.580
 2847SOL    HW118750   9.248   3.868   2.653
 2847SOL    HW218751   9.231   4.020   2.596
 2848SOL     OW18752   8.624   7.542   2.517
 2848SOL    HW118753   8.545   7.598   2.495
 2848SOL    HW218754   8.606   7.447   2.494
 2849SOL     OW18755   2.187   1.443   0.975
 2849SOL    HW118756   2.257   1.475   1.038
 2849SOL    HW218757   2.208   1.349   0.946
 2850SOL     OW18758   2.947   6.440   0.526
 2850SOL    HW118759   2.975   6.477   0.438
 2850SOL    HW218760   2.875   6.497   0.565
 2851SOL     OW18761   6.920   0.137   2.205
 2851SOL    HW118762   6.887   0.201   2.274
 2851SOL    HW218763   6.842   0.094   2.159
 2852SOL     OW18764   0.128   0.693   1.930
 2852SOL    HW118765   0.175   0.774   1.894
 2852SOL    HW218766   0.178   0.611   1.903
 2853SOL     OW18767   3.307   9.211   1.418
 2853SOL    HW118768   3.271   9.297   1.383
 2853SOL    HW218769   3.231   9.147   1.432
 2854SOL     OW18770   9.579   5.771   1.186
 2854SOL    HW118771   9.576   5.743   1.282
 2854SOL    HW218772   9.513   5.718   1.133
 2855SOL     OW18773   8.637   1.275   2.223
 2855SOL    HW118774   8.692   1.201   2.186
 2855SOL    HW218775   8.564   1.238   2.280
 2856SOL     OW18776   8.756   6.448   0.881
 2856SOL    HW118777   8.805   6.408   0.960
 2856SOL    HW218778   8.823   6.483   0.816
 2857SOL     OW18779   0.328   4.683   0.389
 2857SOL    HW118780   0.401   4.745   0.360
 2857SOL    HW218781   0.290   4.637   0.308
 2858SOL     OW18782   4.270   0.402   1.809
 2858SOL    HW118783   4.212   0.327   1.776
 2858SOL    HW218784   4.249   0.485   1.759
 2859SOL     OW18785   8.652   4.884   0.389
 2859SOL    HW118786   8.559   4.902   0.420
 2859SOL    HW218787   8.715   4.950   0.430
 2860SOL     OW18788   0.716   5.395   2.398
 2860SOL    HW118789   0.781   5.467   2.420
 2860SOL    HW218790   0.759   5.306   2.409
 2861SOL     OW18791   0.966   6.238   0.741
 2861SOL    HW118792   0.882   6.222   0.794
 2861SOL    HW218793   0.956   6.197   0.650
 2862SOL     OW18794   1.549   8.576   1.915
 2862SOL    HW118795   1.637   8.545   1.878
 2862SOL    HW218796   1.493   8.496   1.938
 2863SOL     OW18797   9.775   7.505   0.189
 2863SOL    HW118798   9.722   7.506   0.273
 2863SOL    HW218799   9.779   7.411   0.153
 2864SOL     OW18800   2.535   4.715   0.162
 2864SOL    HW118801   2.445   4.699   0.121
 2864SOL    HW218802   2.527   4.786   0.232
 2865SOL     OW18803   3.213   9.586   1.544
 2865SOL    HW118804   3.206   9.540   1.455
 2865SOL    HW218805   3.259   9.674   1.532
 2866SOL     OW18806   3.800   4.208   1.709
 2866SOL    HW118807   3.742   4.130   1.728
 2866SOL    HW218808   3.785   4.240   1.615
 2867SOL     OW18809   3.829   1.971   1.122
 2867SOL    HW118810   3.815   1.878   1.089
 2867SOL    HW218811   3.925   1.985   1.144
 2868SOL     OW18812   0.408   0.465   2.490
 2868SOL    HW118813   0.356   0.538   2.443
 2868SOL    HW218814   0.354   0.381   2.490
 2869SOL     OW18815   4.621   7.599   2.252
 2869SOL    HW118816   4.539   7.598   2.309
 2869SOL    HW218817   4.596   7.616   2.157
 2870SOL     OW18818   1.394   3.279   2.254
 2870SOL    HW118819   1.375   3.185   2.223
 2870SOL    HW218820   1.307   3.326   2.270
 2871SOL     OW18821   3.730   5.220   2.002
 2871SOL    HW118822   3.695   5.210   1.909
 2871SOL    HW218823   3.697   5.305   2.042
 2872SOL     OW18824   0.436   8.404   0.317
 2872SOL    HW118825   0.464   8.400   0.413
 2872SOL    HW218826   0.346   8.447   0.310
 2873SOL     OW18827   8.359   7.557   0.967
 2873SOL    HW118828   8.353   7.623   1.041
 2873SOL    HW218829   8.287   7.575   0.900
 2874SOL     OW18830   2.859   2.429   2.357
 2874SOL    HW118831   2.958   2.436   2.345
 2874SOL    HW218832   2.817   2.519   2.341
 2875SOL     OW18833   0.736   8.144   1.179
 2875SOL    HW118834   0.813   8.185   1.226
 2875SOL    HW218835   0.733   8.177   1.084
 2876SOL     OW18836   8.375   1.663   1.573
 2876SOL    HW118837   8.353   1.660   1.671
 2876SOL    HW218838   8.347   1.577   1.530
 2877SOL     OW18839   3.608   3.016   2.540
 2877SOL    HW118840   3.522   2.968   2.558
 2877SOL    HW218841   3.597   3.114   2.559
 2878SOL     OW18842   3.505   3.786   1.276
 2878SOL    HW118843   3.474   3.878   1.298
 2878SOL    HW218844   3.491   3.726   1.355
 2879SOL     OW18845   9.663   1.996   1.409
 2879SOL    HW118846   9.630   1.916   1.460
 2879SOL    HW218847   9.673   2.073   1.472
 2880SOL     OW18848   9.419   4.388   3.433
 2880SOL    HW118849   9.443   4.368   0.091
 2880SOL    HW218850   9.336   4.338   3.409
 2881SOL     OW18851   2.943   1.317   0.504
 2881SOL    HW118852   2.987   1.345   0.589
 2881SOL    HW218853   2.985   1.364   0.427
 2882SOL     OW18854   0.857   1.282   0.319
 2882SOL    HW118855   0.909   1.338   0.384
 2882SOL    HW218856   0.916   1.257   0.242
 2883SOL     OW18857   7.981   9.644   0.170
 2883SOL    HW118858   8.024   9.729   0.139
 2883SOL    HW218859   7.910   9.618   0.105
 2884SOL     OW18860   8.579   8.381   0.080
 2884SOL    HW118861   8.600   8.298   0.131
 2884SOL    HW218862   8.480   8.394   0.077
 2885SOL     OW18863   1.017   5.055   0.464
 2885SOL    HW118864   1.068   5.087   0.384
 2885SOL    HW218865   1.033   4.957   0.476
 2886SOL     OW18866   8.679   4.168   0.034
 2886SOL    HW118867   8.653   4.179   0.130
 2886SOL    HW218868   8.744   4.241   0.008
 2887SOL     OW18869   0.041   1.140   0.528
 2887SOL    HW118870   0.056   1.200   0.449
 2887SOL    HW218871   0.025   1.046   0.496
 2888SOL     OW18872   3.550   7.600   2.152
 2888SOL    HW118873   3.559   7.532   2.224
 2888SOL    HW218874   3.542   7.555   2.063
 2889SOL     OW18875   1.273   4.484   0.797
 2889SOL    HW118876   1.183   4.509   0.762
 2889SOL    HW218877   1.325   4.567   0.817
 2890SOL     OW18878   4.030   7.969   1.468
 2890SOL    HW118879   4.030   7.875   1.503
 2890SOL    HW218880   4.101   8.021   1.515
 2891SOL     OW18881   1.612   7.913   1.727
 2891SOL    HW118882   1.701   7.878   1.758
 2891SOL    HW218883   1.545   7.902   1.800
 2892SOL     OW18884   7.462   0.149   1.705
 2892SOL    HW118885   7.408   0.065   1.701
 2892SOL    HW218886   7.486   0.179   1.613
 2893SOL     OW18887   2.166   3.452   0.314
 2893SOL    HW118888   2.198   3.367   0.355
 2893SOL    HW218889   2.235   3.487   0.251
 2894SOL     OW18890   1.369   6.606   2.555
 2894SOL    HW118891   1.432   6.637   2.484
 2894SOL    HW218892   1.290   6.667   2.560
 2895SOL     OW18893   7.013   9.758   0.057
 2895SOL    HW118894   7.035   9.661   0.046
 2895SOL    HW218895   7.088   9.804   0.104
 2896SOL     OW18896   3.538   3.017   0.277
 2896SOL    HW118897   3.556   2.919   0.283
 2896SOL    HW218898   3.621   3.068   0.298
 2897SOL     OW18899   2.511   0.673   2.582
 2897SOL    HW118900   2.571   0.594   2.568
 2897SOL    HW218901   2.563   0.749   2.620
 2898SOL     OW18902   1.583   7.008   1.305
 2898SOL    HW118903   1.538   6.919   1.313
 2898SOL    HW218904   1.659   7.013   1.370
 2899SOL     OW18905   3.465   3.693   0.408
 2899SOL    HW118906   3.493   3.661   0.498
 2899SOL    HW218907   3.366   3.685   0.398
 2900SOL     OW18908   0.544   9.586   0.485
 2900SOL    HW118909   0.473   9.656   0.496
 2900SOL    HW218910   0.593   9.574   0.572
 2901SOL     OW18911   9.491   8.880   1.148
 2901SOL    HW118912   9.489   8.891   1.247
 2901SOL    HW218913   9.403   8.910   1.110
 2902SOL     OW18914   1.380   4.921   0.687
 2902SOL    HW118915   1.397   4.967   0.599
 2902SOL    HW218916   1.310   4.972   0.738
 2903SOL     OW18917   8.497   7.987   1.153
 2903SOL    HW118918   8.456   8.062   1.205
 2903SOL    HW218919   8.566   7.941   1.209
 2904SOL     OW18920   1.061   3.821   1.006
 2904SOL    HW118921   0.986   3.769   1.045
 2904SOL    HW218922   1.138   3.760   0.988
 2905SOL     OW18923   1.019   3.826   2.195
 2905SOL    HW118924   1.058   3.840   2.286
 2905SOL    HW218925   1.038   3.732   2.166
 2906SOL     OW18926   3.756   4.734   2.458
 2906SOL    HW118927   3.837   4.787   2.483
 2906SOL    HW218928   3.681   4.756   2.522
 2907SOL     OW18929   2.747   2.482   1.655
 2907SOL    HW118930   2.844   2.494   1.634
 2907SOL    HW218931   2.719   2.390   1.626
 2908SOL     OW18932   9.376   1.095   2.653
 2908SOL    HW118933   9.339   1.184   2.627
 2908SOL    HW218934   9.408   1.099   2.748
 2909SOL     OW18935   0.274   9.371   1.331
 2909SOL    HW118936   0.217   9.290   1.342
 2909SOL    HW218937   0.367   9.350   1.363
 2910SOL     OW18938   1.153   8.440   1.311
 2910SOL    HW118939   1.221   8.405   1.247
 2910SOL    HW218940   1.197   8.499   1.378
 2911SOL     OW18941   2.058   2.611   2.160
 2911SOL    HW118942   2.068   2.710   2.147
 2911SOL    HW218943   2.079   2.587   2.255
 2912SOL     OW18944   2.318   7.175   2.110
 2912SOL    HW118945   2.263   7.252   2.142
 2912SOL    HW218946   2.264   7.091   2.117
 2913SOL     OW18947   9.283   6.505   0.504
 2913SOL    HW118948   9.189   6.540   0.507
 2913SOL    HW218949   9.293   6.442   0.427
 2914SOL     OW18950   0.692   3.270   2.571
 2914SOL    HW118951   0.603   3.289   2.610
 2914SOL    HW218952   0.713   3.338   2.500
 2915SOL     OW18953   1.848   4.468   1.648
 2915SOL    HW118954   1.819   4.375   1.628
 2915SOL    HW218955   1.874   4.514   1.562
 2916SOL     OW18956   3.637   8.100   0.119
 2916SOL    HW118957   3.542   8.069   0.130
 2916SOL    HW218958   3.637   8.192   0.079
 2917SOL     OW18959   4.238   4.991   2.526
 2917SOL    HW118960   4.298   4.937   2.467
 2917SOL    HW218961   4.252   5.088   2.508
 2918SOL     OW18962   8.227   0.965   1.105
 2918SOL    HW118963   8.196   0.898   1.038
 2918SOL    HW218964   8.287   1.031   1.061
 2919SOL     OW18965   8.819   7.484   1.576
 2919SOL    HW118966   8.883   7.430   1.629
 2919SOL    HW218967   8.844   7.480   1.479
 2920SOL     OW18968   9.606   4.101   1.261
 2920SOL    HW118969   9.691   4.064   1.223
 2920SOL    HW218970   9.625   4.186   1.310
 2921SOL     OW18971   0.903   8.772   0.822
 2921SOL    HW118972   0.847   8.734   0.896
 2921SOL    HW218973   0.940   8.860   0.850
 2922SOL     OW18974   1.289   1.240   1.354
 2922SOL    HW118975   1.308   1.305   1.281
 2922SOL    HW218976   1.325   1.150   1.329
 2923SOL     OW18977   1.409   3.581   1.168
 2923SOL    HW118978   1.370   3.624   1.249
 2923SOL    HW218979   1.350   3.598   1.089
 2924SOL     OW18980   0.958   4.035   1.145
 2924SOL    HW118981   1.021   4.113   1.142
 2924SOL    HW218982   0.998   3.958   1.096
 2925SOL     OW18983   3.471   4.771   1.761
 2925SOL    HW118984   3.407   4.695   1.750
 2925SOL    HW218985   3.542   4.745   1.827
 2926SOL     OW18986   3.919   3.861   0.049
 2926SOL    HW118987   3.824   3.833   0.038
 2926SOL    HW218988   3.973   3.785   0.085
 2927SOL     OW18989   8.423   4.941   0.062
 2927SOL    HW118990   8.513   4.973   0.091
 2927SOL    HW218991   8.357   4.955   0.136
 2928SOL     OW18992   0.687   6.792   2.552
 2928SOL    HW118993   0.613   6.814   2.489
 2928SOL    HW218994   0.682   6.695   2.578
 2929SOL     OW18995   8.424   0.762   2.073
 2929SOL    HW118996   8.419   0.678   2.019
 2929SOL    HW218997   8.490   0.750   2.147
 2930SOL     OW18998   2.046   2.861   1.321
 2930SOL    HW118999   2.010   2.894   1.409
 2930SOL    HW219000   1.971   2.832   1.263
 2931SOL     OW19001   3.186   5.475   0.210
 2931SOL    HW119002   3.140   5.519   0.287
 2931SOL    HW219003   3.262   5.532   0.179
 2932SOL     OW19004   0.372   7.620   2.069
 2932SOL    HW119005   0.451   7.654   2.019
 2932SOL    HW219006   0.340   7.690   2.133
 2933SOL     OW19007   2.235   6.573   1.610
 2933SOL    HW119008   2.330   6.561   1.584
 2933SOL    HW219009   2.188   6.485   1.606
 2934SOL     OW19010   0.844   0.352   1.368
 2934SOL    HW119011   0.748   0.334   1.346
 2934SOL    HW219012   0.858   0.450   1.378
 2935SOL     OW19013   9.294   3.762   2.124
 2935SOL    HW119014   9.296   3.859   2.099
 2935SOL    HW219015   9.373   3.715   2.083
 2936SOL     OW19016   2.639   0.684   1.195
 2936SOL    HW119017   2.697   0.648   1.122
 2936SOL    HW219018   2.692   0.692   1.279
 2937SOL     OW19019   4.801   8.539   2.079
 2937SOL    HW119020   4.801   8.639   2.087
 2937SOL    HW219021   4.798   8.498   2.171
 2938SOL     OW19022   1.015   5.029   1.879
 2938SOL    HW119023   0.991   5.114   1.831
 2938SOL    HW219024   1.106   5.039   1.920
 2939SOL     OW19025   8.946   7.152   1.436
 2939SOL    HW119026   8.852   7.123   1.422
 2939SOL    HW219027   8.976   7.128   1.528
 2940SOL     OW19028   3.377   1.059   1.119
 2940SOL    HW119029   3.318   1.114   1.059
 2940SOL    HW219030   3.321   1.009   1.184
 2941SOL     OW19031   1.802   6.895   2.600
 2941SOL    HW119032   1.791   6.865   2.695
 2941SOL    HW219033   1.713   6.921   2.563
 2942SOL     OW19034   7.434   9.032   2.031
 2942SOL    HW119035   7.476   8.973   2.099
 2942SOL    HW219036   7.473   9.011   1.941
 2943SOL     OW19037   4.436   9.246   0.850
 2943SOL    HW119038   4.383   9.322   0.889
 2943SOL    HW219039   4.493   9.281   0.776
 2944SOL     OW19040   9.297   9.525   1.912
 2944SOL    HW119041   9.270   9.544   2.006
 2944SOL    HW219042   9.218   9.532   1.852
 2945SOL     OW19043   1.367   1.496   0.752
 2945SOL    HW119044   1.267   1.494   0.752
 2945SOL    HW219045   1.399   1.590   0.770
 2946SOL     OW19046   4.404   4.167   0.417
 2946SOL    HW119047   4.377   4.249   0.466
 2946SOL    HW219048   4.494   4.136   0.449
 2947SOL     OW19049   3.035   8.424   1.556
 2947SOL    HW119050   3.007   8.328   1.560
 2947SOL    HW219051   2.985   8.470   1.483
 2948SOL     OW19052   9.702   2.225   1.566
 2948SOL    HW119053   9.709   2.248   1.663
 2948SOL    HW219054   9.656   2.298   1.517
 2949SOL     OW19055   4.014   9.381   1.367
 2949SOL    HW119056   3.917   9.364   1.350
 2949SOL    HW219057   4.037   9.474   1.338
 2950SOL     OW19058   0.695   4.171   0.262
 2950SOL    HW119059   0.616   4.177   0.201
 2950SOL    HW219060   0.688   4.088   0.317
 2951SOL     OW19061   8.339   5.792   0.192
 2951SOL    HW119062   8.332   5.693   0.179
 2951SOL    HW219063   8.267   5.837   0.141
 2952SOL     OW19064   9.765   4.947   0.729
 2952SOL    HW119065   9.707   4.914   0.804
 2952SOL    HW219066   9.805   4.869   0.681
 2953SOL     OW19067   0.828   6.399   1.715
 2953SOL    HW119068   0.746   6.373   1.665
 2953SOL    HW219069   0.868   6.481   1.673
 2954SOL     OW19070   3.217   1.384   2.257
 2954SOL    HW119071   3.238   1.362   2.162
 2954SOL    HW219072   3.300   1.379   2.312
 2955SOL     OW19073   8.805   7.704   2.191
 2955SOL    HW119074   8.872   7.752   2.135
 2955SOL    HW219075   8.832   7.708   2.287
 2956SOL     OW19076   3.243   8.318   0.173
 2956SOL    HW119077   3.144   8.314   0.159
 2956SOL    HW219078   3.272   8.414   0.178
 2957SOL     OW19079   0.421   2.673   0.664
 2957SOL    HW119080   0.499   2.619   0.632
 2957SOL    HW219081   0.356   2.684   0.589
 2958SOL     OW19082   2.934   5.332   2.452
 2958SOL    HW119083   2.877   5.313   2.372
 2958SOL    HW219084   2.876   5.341   2.533
 2959SOL     OW19085   8.889   1.909   1.827
 2959SOL    HW119086   8.907   1.999   1.867
 2959SOL    HW219087   8.790   1.896   1.816
 2960SOL     OW19088   8.743   7.931   1.733
 2960SOL    HW119089   8.832   7.900   1.700
 2960SOL    HW219090   8.693   7.853   1.772
 2961SOL     OW19091   2.815   1.741   0.507
 2961SOL    HW119092   2.815   1.688   0.422
 2961SOL    HW219093   2.749   1.701   0.571
 2962SOL     OW19094   3.711   2.797   0.805
 2962SOL    HW119095   3.653   2.750   0.872
 2962SOL    HW219096   3.656   2.822   0.725
 2963SOL     OW19097   9.254   3.059   0.372
 2963SOL    HW119098   9.205   3.114   0.304
 2963SOL    HW219099   9.270   2.968   0.335
 2964SOL     OW19100   2.178   8.116   1.181
 2964SOL    HW119101   2.169   8.092   1.084
 2964SOL    HW219102   2.092   8.096   1.228
 2965SOL     OW19103   3.098   8.141   1.974
 2965SOL    HW119104   3.081   8.092   2.059
 2965SOL    HW219105   3.043   8.100   1.901
 2966SOL     OW19106   3.102   3.963   2.181
 2966SOL    HW119107   3.058   3.971   2.091
 2966SOL    HW219108   3.139   4.052   2.208
 2967SOL     OW19109   2.225   9.768   1.876
 2967SOL    HW119110   2.145   9.812   1.916
 2967SOL    HW219111   2.289   9.838   1.845
 2968SOL     OW19112   0.243   2.516   1.904
 2968SOL    HW119113   0.224   2.614   1.894
 2968SOL    HW219114   0.198   2.482   1.987
 2969SOL     OW19115   0.175   1.073   2.630
 2969SOL    HW119116   0.104   1.068   2.560
 2969SOL    HW219117   0.181   1.167   2.664
 2970SOL     OW19118   9.284   6.127   2.483
 2970SOL    HW119119   9.372   6.081   2.474
 2970SOL    HW219120   9.296   6.215   2.529
 2971SOL     OW19121   8.603   0.575   1.717
 2971SOL    HW119122   8.682   0.516   1.733
 2971SOL    HW219123   8.584   0.579   1.618
 2972SOL     OW19124   7.690   3.671   0.380
 2972SOL    HW119125   7.692   3.739   0.306
 2972SOL    HW219126   7.754   3.699   0.452
 2973SOL     OW19127   9.098   4.159   0.784
 2973SOL    HW119128   9.094   4.232   0.852
 2973SOL    HW219129   9.125   4.196   0.696
 2974SOL     OW19130   8.969   9.112   2.277
 2974SOL    HW119131   8.949   9.029   2.331
 2974SOL    HW219132   8.997   9.086   2.185
 2975SOL     OW19133   7.532   1.185   0.345
 2975SOL    HW119134   7.583   1.167   0.429
 2975SOL    HW219135   7.545   1.109   0.282
 2976SOL     OW19136   1.993   8.263   2.538
 2976SOL    HW119137   1.903   8.236   2.502
 2976SOL    HW219138   2.026   8.192   2.600
 2977SOL     OW19139   2.208   7.622   2.351
 2977SOL    HW119140   2.209   7.722   2.349
 2977SOL    HW219141   2.217   7.590   2.446
 2978SOL     OW19142   9.666   8.010   1.907
 2978SOL    HW119143   9.760   8.042   1.915
 2978SOL    HW219144   9.604   8.088   1.921
 2979SOL     OW19145   9.919   8.811   1.094
 2979SOL    HW119146   9.997   8.759   1.128
 2979SOL    HW219147   9.905   8.792   0.997
 2980SOL     OW19148   0.343   2.196   0.160
 2980SOL    HW119149   0.443   2.191   0.166
 2980SOL    HW219150   0.304   2.105   0.173
 2981SOL     OW19151   9.546   1.929   1.953
 2981SOL    HW119152   9.510   1.919   2.045
 2981SOL    HW219153   9.471   1.923   1.886
 2982SOL     OW19154   0.323   2.075   2.575
 2982SOL    HW119155   0.247   2.112   2.522
 2982SOL    HW219156   0.297   2.071   2.671
 2983SOL     OW19157   7.754   9.302   0.929
 2983SOL    HW119158   7.790   9.259   1.012
 2983SOL    HW219159   7.757   9.237   0.854
 2984SOL     OW19160   9.948   5.325   1.020
 2984SOL    HW119161   0.003   5.386   1.076
 2984SOL    HW219162   9.852   5.355   1.020
 2985SOL     OW19163   3.305   4.447   0.813
 2985SOL    HW119164   3.349   4.494   0.736
 2985SOL    HW219165   3.214   4.484   0.828
 2986SOL     OW19166   2.856   0.986   1.211
 2986SOL    HW119167   2.891   1.080   1.218
 2986SOL    HW219168   2.795   0.968   1.289
 2987SOL     OW19169   8.480   0.954   0.806
 2987SOL    HW119170   8.518   1.040   0.771
 2987SOL    HW219171   8.551   0.905   0.858
 2988SOL     OW19172   4.224   8.120   1.585
 2988SOL    HW119173   4.219   8.170   1.671
 2988SOL    HW219174   4.285   8.167   1.522
 2989SOL     OW19175   0.506   6.432   0.300
 2989SOL    HW119176   0.573   6.409   0.229
 2989SOL    HW219177   0.456   6.350   0.327
 2990SOL     OW19178   1.231   7.856   2.545
 2990SOL    HW119179   1.170   7.899   2.611
 2990SOL    HW219180   1.318   7.905   2.542
 2991SOL     OW19181   1.439   3.216   0.979
 2991SOL    HW119182   1.501   3.263   0.916
 2991SOL    HW219183   1.454   3.250   1.072
 2992SOL     OW19184   0.950   2.906   2.095
 2992SOL    HW119185   0.936   2.811   2.123
 2992SOL    HW219186   0.957   2.910   1.995
 2993SOL     OW19187   3.405   4.976   2.104
 2993SOL    HW119188   3.339   4.908   2.138
 2993SOL    HW219189   3.393   4.987   2.005
 2994SOL     OW19190   8.839   8.033   0.310
 2994SOL    HW119191   8.846   7.934   0.310
 2994SOL    HW219192   8.906   8.072   0.247
 2995SOL     OW19193   2.183   0.686   2.156
 2995SOL    HW119194   2.099   0.681   2.102
 2995SOL    HW219195   2.219   0.594   2.170
 2996SOL     OW19196   7.422   9.001   2.668
 2996SOL    HW119197   7.360   8.929   2.635
 2996SOL    HW219198   7.505   8.959   2.703
 2997SOL     OW19199   4.633   8.552   1.194
 2997SOL    HW119200   4.720   8.592   1.164
 2997SOL    HW219201   4.566   8.559   1.120
 2998SOL     OW19202   8.759   8.081   0.576
 2998SOL    HW119203   8.799   8.092   0.485
 2998SOL    HW219204   8.729   7.986   0.587
 2999SOL     OW19205   0.924   0.251   2.126
 2999SOL    HW119206   0.979   0.221   2.204
 2999SOL    HW219207   0.916   0.176   2.060
 3000SOL     OW19208   2.960   1.655   1.773
 3000SOL    HW119209   3.041   1.711   1.754
 3000SOL    HW219210   2.957   1.633   1.871
 3001SOL     OW19211   2.539   0.993   2.155
 3001SOL    HW119212   2.544   1.091   2.174
 3001SOL    HW219213   2.530   0.943   2.242
 3002SOL     OW19214   2.016   4.273   1.373
 3002SOL    HW119215   1.968   4.360   1.372
 3002SOL    HW219216   1.974   4.210   1.307
 3003SOL     OW19217   3.149   6.181   0.449
 3003SOL    HW119218   3.181   6.252   0.387
 3003SOL    HW219219   3.140   6.219   0.541
 3004SOL     OW19220   0.500   8.805   1.387
 3004SOL    HW119221   0.536   8.814   1.295
 3004SOL    HW219222   0.556   8.859   1.450
 3005SOL     OW19223   9.733   1.961   0.884
 3005SOL    HW119224   9.677   2.023   0.829
 3005SOL    HW219225   9.720   1.982   0.981
 3006SOL     OW19226   1.738   2.704   1.639
 3006SOL    HW119227   1.795   2.644   1.583
 3006SOL    HW219228   1.681   2.649   1.699
 3007SOL     OW19229   2.819   2.959   1.150
 3007SOL    HW119230   2.879   2.950   1.071
 3007SOL    HW219231   2.827   2.878   1.208
 3008SOL     OW19232   3.056   8.794   1.463
 3008SOL    HW119233   3.087   8.753   1.377
 3008SOL    HW219234   2.964   8.762   1.484
 3009SOL     OW19235   3.408   8.863   1.128
 3009SOL    HW119236   3.384   8.836   1.221
 3009SOL    HW219237   3.332   8.839   1.067
 3010SOL     OW19238   9.514   7.041   1.551
 3010SOL    HW119239   9.545   6.957   1.597
 3010SOL    HW219240   9.429   7.071   1.593
 3011SOL     OW19241   2.667   6.136   0.478
 3011SOL    HW119242   2.603   6.121   0.403
 3011SOL    HW219243   2.760   6.145   0.442
 3012SOL     OW19244   3.588   4.497   1.445
 3012SOL    HW119245   3.490   4.516   1.441
 3012SOL    HW219246   3.636   4.551   1.376
 3013SOL     OW19247   4.031   9.436   1.039
 3013SOL    HW119248   4.013   9.338   1.041
 3013SOL    HW219249   3.965   9.481   0.979
 3014SOL     OW19250   2.707   5.788   1.490
 3014SOL    HW119251   2.776   5.781   1.562
 3014SOL    HW219252   2.751   5.778   1.400
 3015SOL     OW19253   9.833   2.774   0.411
 3015SOL    HW119254   9.865   2.683   0.385
 3015SOL    HW219255   9.899   2.842   0.379
 3016SOL     OW19256   9.163   5.865   0.997
 3016SOL    HW119257   9.180   5.814   0.913
 3016SOL    HW219258   9.066   5.888   1.003
 3017SOL     OW19259   3.281   8.204   1.495
 3017SOL    HW119260   3.314   8.134   1.432
 3017SOL    HW219261   3.292   8.172   1.590
 3018SOL     OW19262   9.313   0.924   1.647
 3018SOL    HW119263   9.274   0.855   1.586
 3018SOL    HW219264   9.329   0.884   1.737
 3019SOL     OW19265   1.609   4.808   1.824
 3019SOL    HW119266   1.594   4.746   1.902
 3019SOL    HW219267   1.552   4.889   1.836
 3020SOL     OW19268   4.050   5.244   0.201
 3020SOL    HW119269   4.011   5.207   0.285
 3020SOL    HW219270   3.987   5.312   0.163
 3021SOL     OW19271   9.011   9.225   1.647
 3021SOL    HW119272   9.035   9.235   1.744
 3021SOL    HW219273   9.074   9.280   1.592
 3022SOL     OW19274   1.367   0.083   1.847
 3022SOL    HW119275   1.429   0.157   1.875
 3022SOL    HW219276   1.373   0.008   1.912
 3023SOL     OW19277   9.588   3.975   2.431
 3023SOL    HW119278   9.534   3.891   2.423
 3023SOL    HW219279   9.543   4.049   2.380
 3024SOL     OW19280   8.056   3.555   0.388
 3024SOL    HW119281   8.135   3.521   0.438
 3024SOL    HW219282   8.088   3.608   0.309
 3025SOL     OW19283   4.345   0.828   0.568
 3025SOL    HW119284   4.416   0.758   0.577
 3025SOL    HW219285   4.381   0.917   0.596
 3026SOL     OW19286   8.872   0.560   1.486
 3026SOL    HW119287   8.932   0.602   1.418
 3026SOL    HW219288   8.777   0.577   1.461
 3027SOL     OW19289   4.786   9.996   2.559
 3027SOL    HW119290   4.777   9.967   2.464
 3027SOL    HW219291   4.862   9.947   2.602
 3028SOL     OW19292   1.407   7.861   1.898
 3028SOL    HW119293   1.404   7.881   1.996
 3028SOL    HW219294   1.405   7.762   1.884
 3029SOL     OW19295   2.247   8.916   2.217
 3029SOL    HW119296   2.298   8.830   2.210
 3029SOL    HW219297   2.152   8.900   2.191
 3030SOL     OW19298   3.617   3.353   1.749
 3030SOL    HW119299   3.609   3.331   1.652
 3030SOL    HW219300   3.551   3.424   1.773
 3031SOL     OW19301   0.094   1.903   1.301
 3031SOL    HW119302   0.177   1.858   1.268
 3031SOL    HW219303   0.022   1.835   1.313
 3032SOL     OW19304   3.151   2.658   0.531
 3032SOL    HW119305   3.188   2.598   0.460
 3032SOL    HW219306   3.078   2.610   0.580
 3033SOL     OW19307   2.472   0.079   2.328
 3033SOL    HW119308   2.460   0.015   2.405
 3033SOL    HW219309   2.455   0.172   2.360
 3034SOL     OW19310   0.751   8.148   2.246
 3034SOL    HW119311   0.846   8.179   2.245
 3034SOL    HW219312   0.690   8.227   2.243
 3035SOL     OW19313   2.488   4.258   0.111
 3035SOL    HW119314   2.472   4.216   0.201
 3035SOL    HW219315   2.549   4.337   0.121
 3036SOL     OW19316   7.525   1.014   0.125
 3036SOL    HW119317   7.459   0.942   0.105
 3036SOL    HW219318   7.502   1.096   0.073
 3037SOL     OW19319   0.731   8.787   2.186
 3037SOL    HW119320   0.793   8.735   2.127
 3037SOL    HW219321   0.759   8.777   2.281
 3038SOL     OW19322   9.571   8.792   0.900
 3038SOL    HW119323   9.493   8.801   0.838
 3038SOL    HW219324   9.547   8.833   0.989
 3039SOL     OW19325   0.842   1.695   1.023
 3039SOL    HW119326   0.808   1.752   0.949
 3039SOL    HW219327   0.838   1.599   0.996
 3040SOL     OW19328   0.237   1.350   2.618
 3040SOL    HW119329   0.309   1.300   2.570
 3040SOL    HW219330   0.229   1.442   2.579
 3041SOL     OW19331   1.408   7.914   2.162
 3041SOL    HW119332   1.506   7.900   2.180
 3041SOL    HW219333   1.374   7.989   2.219
 3042SOL     OW19334   8.311   0.366   2.141
 3042SOL    HW119335   8.305   0.270   2.113
 3042SOL    HW219336   8.363   0.417   2.072
 3043SOL     OW19337   0.105   4.241   1.161
 3043SOL    HW119338   0.196   4.221   1.197
 3043SOL    HW219339   0.111   4.255   1.062
 3044SOL     OW19340   2.238   3.126   2.361
 3044SOL    HW119341   2.180   3.048   2.384
 3044SOL    HW219342   2.191   3.211   2.384
 3045SOL     OW19343   0.565   5.600   0.105
 3045SOL    HW119344   0.521   5.593   0.015
 3045SOL    HW219345   0.653   5.553   0.103
 3046SOL     OW19346   9.944   6.815   1.196
 3046SOL    HW119347   9.878   6.885   1.168
 3046SOL    HW219348   9.901   6.751   1.259
 3047SOL     OW19349   4.455   1.679   2.125
 3047SOL    HW119350   4.547   1.697   2.161
 3047SOL    HW219351   4.446   1.723   2.036
 3048SOL     OW19352   0.643   3.007   0.619
 3048SOL    HW119353   0.622   2.938   0.689
 3048SOL    HW219354   0.697   3.080   0.660
 3049SOL     OW19355   1.327   9.963   0.388
 3049SOL    HW119356   1.350   9.866   0.374
 3049SOL    HW219357   1.380   9.999   0.465
 3050SOL     OW19358   9.800   9.340   0.705
 3050SOL    HW119359   9.850   9.353   0.790
 3050SOL    HW219360   9.796   9.426   0.655
 3051SOL     OW19361   1.502   3.857   0.076
 3051SOL    HW119362   1.410   3.832   0.107
 3051SOL    HW219363   1.524   3.807   3.429
 3052SOL     OW19364   2.054   3.688   2.243
 3052SOL    HW119365   2.148   3.662   2.222
 3052SOL    HW219366   2.048   3.788   2.247
 3053SOL     OW19367   3.096   9.873   0.265
 3053SOL    HW119368   3.008   9.891   0.220
 3053SOL    HW219369   3.080   9.857   0.362
 3054SOL     OW19370   2.649   6.751   0.368
 3054SOL    HW119371   2.592   6.684   0.415
 3054SOL    HW219372   2.693   6.709   0.288
 3055SOL     OW19373   3.196   8.348   2.516
 3055SOL    HW119374   3.202   8.285   2.439
 3055SOL    HW219375   3.285   8.391   2.532
 3056SOL     OW19376   1.176   1.862   2.697
 3056SOL    HW119377   1.139   1.870   2.790
 3056SOL    HW219378   1.146   1.776   2.657
 3057SOL     OW19379   4.681   8.360   0.546
 3057SOL    HW119380   4.634   8.379   0.459
 3057SOL    HW219381   4.769   8.407   0.547
 3058SOL     OW19382   7.938   9.034   2.266
 3058SOL    HW119383   7.882   8.995   2.340
 3058SOL    HW219384   7.910   8.995   2.179
 3059SOL     OW19385   0.664   1.966   1.410
 3059SOL    HW119386   0.605   1.974   1.330
 3059SOL    HW219387   0.645   1.880   1.457
 3060SOL     OW19388   1.795   0.239   0.690
 3060SOL    HW119389   1.855   0.315   0.667
 3060SOL    HW219390   1.789   0.177   0.612
 3061SOL     OW19391   3.737   2.216   2.178
 3061SOL    HW119392   3.746   2.117   2.172
 3061SOL    HW219393   3.796   2.251   2.250
 3062SOL     OW19394   1.709   8.125   1.587
 3062SOL    HW119395   1.671   8.046   1.636
 3062SOL    HW219396   1.805   8.136   1.611
 3063SOL     OW19397   3.439   2.417   0.698
 3063SOL    HW119398   3.394   2.476   0.766
 3063SOL    HW219399   3.392   2.329   0.695
 3064SOL     OW19400   1.291   0.396   2.433
 3064SOL    HW119401   1.192   0.401   2.420
 3064SOL    HW219402   1.326   0.486   2.460
 3065SOL     OW19403   0.037   2.583   1.115
 3065SOL    HW119404   0.125   2.601   1.158
 3065SOL    HW219405   0.019   2.652   1.044
 3066SOL     OW19406   0.722   3.447   0.602
 3066SOL    HW119407   0.634   3.462   0.647
 3066SOL    HW219408   0.779   3.529   0.613
 3067SOL     OW19409   1.760   1.653   1.978
 3067SOL    HW119410   1.846   1.699   2.002
 3067SOL    HW219411   1.688   1.684   2.040
 3068SOL     OW19412   2.132   7.160   1.540
 3068SOL    HW119413   2.080   7.090   1.588
 3068SOL    HW219414   2.078   7.243   1.533
 3069SOL     OW19415   9.299   4.467   0.600
 3069SOL    HW119416   9.397   4.472   0.618
 3069SOL    HW219417   9.262   4.559   0.587
 3070SOL     OW19418   1.161   9.584   0.606
 3070SOL    HW119419   1.104   9.585   0.524
 3070SOL    HW219420   1.151   9.670   0.655
 3071SOL     OW19421   3.140   5.956   2.073
 3071SOL    HW119422   3.174   5.940   1.980
 3071SOL    HW219423   3.123   5.868   2.117
 3072SOL     OW19424   0.057   9.231   1.579
 3072SOL    HW119425   9.964   9.210   1.610
 3072SOL    HW219426   0.072   9.191   1.488
 3073SOL     OW19427   3.343   4.276   0.476
 3073SOL    HW119428   3.272   4.344   0.494
 3073SOL    HW219429   3.433   4.316   0.491
 3074SOL     OW19430   1.145   8.472   2.242
 3074SOL    HW119431   1.194   8.542   2.294
 3074SOL    HW219432   1.133   8.502   2.148
 3075SOL     OW19433   4.184   9.474   2.351
 3075SOL    HW119434   4.199   9.465   2.450
 3075SOL    HW219435   4.252   9.418   2.302
 3076SOL     OW19436   2.492   0.151   0.964
 3076SOL    HW119437   2.505   0.247   0.990
 3076SOL    HW219438   2.394   0.130   0.962
 3077SOL     OW19439   1.882   5.064   1.055
 3077SOL    HW119440   1.944   5.112   0.993
 3077SOL    HW219441   1.800   5.119   1.071
 3078SOL     OW19442   3.723   9.505   0.516
 3078SOL    HW119443   3.783   9.451   0.576
 3078SOL    HW219444   3.627   9.486   0.538
 3079SOL     OW19445   3.294   7.469   0.579
 3079SOL    HW119446   3.207   7.431   0.549
 3079SOL    HW219447   3.284   7.509   0.669
 3080SOL     OW19448   8.258   3.143   0.586
 3080SOL    HW119449   8.342   3.198   0.585
 3080SOL    HW219450   8.211   3.156   0.674
 3081SOL     OW19451   9.541   1.776   1.528
 3081SOL    HW119452   9.591   1.769   1.615
 3081SOL    HW219453   9.449   1.738   1.540
 3082SOL     OW19454   1.942   5.636   1.876
 3082SOL    HW119455   1.899   5.644   1.966
 3082SOL    HW219456   1.879   5.592   1.812
 3083SOL     OW19457   8.753   9.492   0.198
 3083SOL    HW119458   8.799   9.412   0.159
 3083SOL    HW219459   8.821   9.553   0.239
 3084SOL     OW19460   8.687   1.300   0.325
 3084SOL    HW119461   8.656   1.215   0.367
 3084SOL    HW219462   8.611   1.345   0.280
 3085SOL     OW19463   8.012   9.358   1.927
 3085SOL    HW119464   7.987   9.339   2.022
 3085SOL    HW219465   7.930   9.380   1.875
 3086SOL     OW19466   1.922   7.800   1.345
 3086SOL    HW119467   2.012   7.764   1.321
 3086SOL    HW219468   1.854   7.766   1.280
 3087SOL     OW19469   4.694   3.879   0.994
 3087SOL    HW119470   4.601   3.901   1.023
 3087SOL    HW219471   4.743   3.963   0.972
 3088SOL     OW19472   9.663   7.057   1.863
 3088SOL    HW119473   9.591   7.125   1.870
 3088SOL    HW219474   9.744   7.089   1.912
 3089SOL     OW19475   9.031   7.311   2.223
 3089SOL    HW119476   9.074   7.394   2.260
 3089SOL    HW219477   9.091   7.233   2.236
 3090SOL     OW19478   0.608   0.542   0.087
 3090SOL    HW119479   0.650   0.454   0.109
 3090SOL    HW219480   0.508   0.534   0.096
 3091SOL     OW19481   1.586   2.637   1.099
 3091SOL    HW119482   1.568   2.618   1.196
 3091SOL    HW219483   1.633   2.560   1.058
 3092SOL     OW19484   9.420   8.428   1.386
 3092SOL    HW119485   9.433   8.339   1.429
 3092SOL    HW219486   9.496   8.488   1.409
 3093SOL     OW19487   2.459   9.085   2.170
 3093SOL    HW119488   2.472   9.121   2.078
 3093SOL    HW219489   2.380   9.024   2.171
 3094SOL     OW19490   3.064   1.374   0.754
 3094SOL    HW119491   3.043   1.471   0.755
 3094SOL    HW219492   2.988   1.322   0.794
 3095SOL     OW19493   3.399   1.126   2.123
 3095SOL    HW119494   3.358   1.198   2.067
 3095SOL    HW219495   3.397   1.039   2.073
 3096SOL     OW19496   3.613   3.910   2.337
 3096SOL    HW119497   3.529   3.945   2.377
 3096SOL    HW219498   3.591   3.860   2.253
 3097SOL     OW19499   1.946   3.568   1.638
 3097SOL    HW119500   2.024   3.589   1.697
 3097SOL    HW219501   1.890   3.497   1.681
 3098SOL     OW19502   8.386   3.443   2.083
 3098SOL    HW119503   8.469   3.448   2.028
 3098SOL    HW219504   8.306   3.458   2.025
 3099SOL     OW19505   9.338   8.379   0.769
 3099SOL    HW119506   9.412   8.419   0.823
 3099SOL    HW219507   9.254   8.433   0.783
 3100SOL     OW19508   4.404   9.668   2.512
 3100SOL    HW119509   4.343   9.604   2.559
 3100SOL    HW219510   4.372   9.682   2.418
 3101SOL     OW19511   1.007   1.353   2.462
 3101SOL    HW119512   0.938   1.412   2.503
 3101SOL    HW219513   0.962   1.282   2.407
 3102SOL     OW19514   2.708   1.184   0.475
 3102SOL    HW119515   2.793   1.236   0.482
 3102SOL    HW219516   2.703   1.139   0.386
 3103SOL     OW19517   2.710   7.765   0.167
 3103SOL    HW119518   2.643   7.698   0.134
 3103SOL    HW219519   2.749   7.733   0.253
 3104SOL     OW19520   0.382   2.227   1.089
 3104SOL    HW119521   0.286   2.254   1.101
 3104SOL    HW219522   0.395   2.190   0.998
 3105SOL     OW19523   7.905   9.223   0.110
 3105SOL    HW119524   7.839   9.265   0.172
 3105SOL    HW219525   7.980   9.183   0.162
 3106SOL     OW19526   2.949   9.936   1.122
 3106SOL    HW119527   2.963   9.845   1.082
 3106SOL    HW219528   2.876   9.983   1.072
 3107SOL     OW19529   4.029   2.274   2.588
 3107SOL    HW119530   4.124   2.251   2.568
 3107SOL    HW219531   3.984   2.306   2.505
 3108SOL     OW19532   3.979   3.730   0.661
 3108SOL    HW119533   3.910   3.796   0.633
 3108SOL    HW219534   4.033   3.768   0.736
 3109SOL     OW19535   4.594   8.408   2.518
 3109SOL    HW119536   4.502   8.438   2.494
 3109SOL    HW219537   4.640   8.479   2.572
 3110SOL     OW19538   3.211   1.919   1.456
 3110SOL    HW119539   3.213   1.824   1.422
 3110SOL    HW219540   3.155   1.975   1.395
 3111SOL     OW19541   6.854   8.832   2.026
 3111SOL    HW119542   6.808   8.744   2.015
 3111SOL    HW219543   6.788   8.901   2.057
 3112SOL     OW19544   3.229   4.573   1.697
 3112SOL    HW119545   3.133   4.550   1.711
 3112SOL    HW219546   3.285   4.493   1.715
 3113SOL     OW19547   7.702   9.935   0.498
 3113SOL    HW119548   7.731   9.949   0.593
 3113SOL    HW219549   7.741   9.850   0.463
 3114SOL     OW19550   8.203   0.583   1.648
 3114SOL    HW119551   8.280   0.647   1.638
 3114SOL    HW219552   8.119   0.635   1.666
 3115SOL     OW19553   9.297   2.380   1.880
 3115SOL    HW119554   9.231   2.454   1.868
 3115SOL    HW219555   9.388   2.412   1.855
 3116SOL     OW19556   9.132   2.629   0.401
 3116SOL    HW119557   9.211   2.683   0.371
 3116SOL    HW219558   9.163   2.546   0.447
 3117SOL     OW19559   8.998   6.309   2.258
 3117SOL    HW119560   9.040   6.219   2.243
 3117SOL    HW219561   9.065   6.371   2.299
 3118SOL     OW19562   9.809   5.790   1.781
 3118SOL    HW119563   9.762   5.842   1.853
 3118SOL    HW219564   9.908   5.800   1.792
 3119SOL     OW19565   8.218   7.012   2.512
 3119SOL    HW119566   8.284   7.035   2.441
 3119SOL    HW219567   8.216   7.084   2.581
 3120SOL     OW19568   0.231   8.347   2.591
 3120SOL    HW119569   0.154   8.311   2.537
 3120SOL    HW219570   0.299   8.275   2.603
 3121SOL     OW19571   2.547   3.801   0.146
 3121SOL    HW119572   2.477   3.858   0.103
 3121SOL    HW219573   2.504   3.719   0.185
 3122SOL     OW19574   2.164   2.691   0.527
 3122SOL    HW119575   2.103   2.696   0.605
 3122SOL    HW219576   2.225   2.613   0.537
 3123SOL     OW19577   1.670   4.615   0.458
 3123SOL    HW119578   1.607   4.560   0.514
 3123SOL    HW219579   1.719   4.680   0.517
 3124SOL     OW19580   9.114   4.206   2.053
 3124SOL    HW119581   9.053   4.275   2.014
 3124SOL    HW219582   9.061   4.144   2.112
 3125SOL     OW19583   1.494   5.428   2.488
 3125SOL    HW119584   1.558   5.497   2.519
 3125SOL    HW219585   1.400   5.462   2.497
 3126SOL     OW19586   9.879   1.796   2.653
 3126SOL    HW119587   9.958   1.736   2.643
 3126SOL    HW219588   9.888   1.875   2.592
 3127SOL     OW19589   8.784   7.980   0.970
 3127SOL    HW119590   8.711   7.922   0.934
 3127SOL    HW219591   8.744   8.064   1.007
 3128SOL     OW19592   1.390   2.785   2.299
 3128SOL    HW119593   1.390   2.847   2.378
 3128SOL    HW219594   1.462   2.716   2.310
 3129SOL     OW19595   0.678   0.422   2.523
 3129SOL    HW119596   0.581   0.444   2.528
 3129SOL    HW219597   0.708   0.425   2.427
 3130SOL     OW19598   9.481   2.593   2.259
 3130SOL    HW119599   9.450   2.688   2.265
 3130SOL    HW219600   9.571   2.590   2.217
 3131SOL     OW19601   2.098   2.885   2.144
 3131SOL    HW119602   2.190   2.858   2.114
 3131SOL    HW219603   2.099   2.901   2.242
 3132SOL     OW19604   7.262   9.216   2.345
 3132SOL    HW119605   7.170   9.254   2.347
 3132SOL    HW219606   7.307   9.234   2.433
 3133SOL     OW19607   1.938   8.072   1.311
 3133SOL    HW119608   1.940   7.973   1.324
 3133SOL    HW219609   1.844   8.104   1.307
 3134SOL     OW19610   7.628   1.766   0.473
 3134SOL    HW119611   7.676   1.821   0.541
 3134SOL    HW219612   7.530   1.775   0.486
 3135SOL     OW19613   1.130   1.981   1.011
 3135SOL    HW119614   1.123   1.898   1.065
 3135SOL    HW219615   1.087   2.057   1.060
 3136SOL     OW19616   0.044   6.961   0.802
 3136SOL    HW119617   0.084   6.902   0.872
 3136SOL    HW219618   0.076   7.055   0.816
 3137SOL     OW19619   1.525   5.737   1.324
 3137SOL    HW119620   1.443   5.785   1.355
 3137SOL    HW219621   1.584   5.801   1.275
 3138SOL     OW19622   9.067   3.522   0.844
 3138SOL    HW119623   8.992   3.583   0.818
 3138SOL    HW219624   9.151   3.575   0.855
 3139SOL     OW19625   2.940   4.567   1.095
 3139SOL    HW119626   2.933   4.481   1.146
 3139SOL    HW219627   2.848   4.596   1.067
 3140SOL     OW19628   4.379   9.371   1.943
 3140SOL    HW119629   4.472   9.383   1.910
 3140SOL    HW219630   4.348   9.278   1.921
 3141SOL     OW19631   1.177   1.863   1.588
 3141SOL    HW119632   1.271   1.865   1.623
 3141SOL    HW219633   1.159   1.772   1.549
 3142SOL     OW19634   2.335   7.980   0.757
 3142SOL    HW119635   2.393   8.019   0.686
 3142SOL    HW219636   2.393   7.929   0.822
 3143SOL     OW19637   7.198   8.549   2.510
 3143SOL    HW119638   7.102   8.522   2.503
 3143SOL    HW219639   7.256   8.467   2.518
 3144SOL     OW19640   0.855   1.649   0.235
 3144SOL    HW119641   0.760   1.673   0.216
 3144SOL    HW219642   0.866   1.632   0.333
 3145SOL     OW19643   2.819   4.597   1.515
 3145SOL    HW119644   2.868   4.660   1.455
 3145SOL    HW219645   2.767   4.532   1.459
 3146SOL     OW19646   7.336   0.035   0.353
 3146SOL    HW119647   7.279   9.966   0.308
 3146SOL    HW219648   7.421   0.047   0.301
 3147SOL     OW19649   2.364   3.613   0.738
 3147SOL    HW119650   2.332   3.525   0.702
 3147SOL    HW219651   2.313   3.687   0.695
 3148SOL     OW19652   0.803   0.629   1.390
 3148SOL    HW119653   0.707   0.643   1.414
 3148SOL    HW219654   0.826   0.686   1.311
 3149SOL     OW19655   0.680   6.648   1.392
 3149SOL    HW119656   0.588   6.629   1.429
 3149SOL    HW219657   0.717   6.564   1.352
 3150SOL     OW19658   0.851   3.435   1.594
 3150SOL    HW119659   0.857   3.335   1.596
 3150SOL    HW219660   0.757   3.463   1.613
 3151SOL     OW19661   4.779   9.497   1.674
 3151SOL    HW119662   4.849   9.564   1.700
 3151SOL    HW219663   4.735   9.461   1.757
 3152SOL     OW19664   0.477   2.396   1.823
 3152SOL    HW119665   0.394   2.446   1.848
 3152SOL    HW219666   0.453   2.313   1.774
 3153SOL     OW19667   1.461   0.676   0.566
 3153SOL    HW119668   1.405   0.758   0.552
 3153SOL    HW219669   1.558   0.699   0.554
 3154SOL     OW19670   8.164   2.893   2.572
 3154SOL    HW119671   8.231   2.872   2.642
 3154SOL    HW219672   8.204   2.956   2.505
 3155SOL     OW19673   1.094   9.533   2.308
 3155SOL    HW119674   1.048   9.446   2.288
 3155SOL    HW219675   1.036   9.609   2.277
 3156SOL     OW19676   8.067   8.858   1.622
 3156SOL    HW119677   8.034   8.950   1.605
 3156SOL    HW219678   8.154   8.861   1.671
 3157SOL     OW19679   8.734   0.711   1.188
 3157SOL    HW119680   8.759   0.761   1.271
 3157SOL    HW219681   8.764   0.616   1.197
 3158SOL     OW19682   8.959   3.135   1.873
 3158SOL    HW119683   8.996   3.120   1.782
 3158SOL    HW219684   8.968   3.232   1.898
 3159SOL     OW19685   3.984   0.204   0.868
 3159SOL    HW119686   4.061   0.267   0.868
 3159SOL    HW219687   4.017   0.110   0.874
 3160SOL     OW19688   1.593   7.224   0.786
 3160SOL    HW119689   1.682   7.186   0.813
 3160SOL    HW219690   1.596   7.252   0.690
 3161SOL     OW19691   5.304   9.247   2.497
 3161SOL    HW119692   5.222   9.288   2.456
 3161SOL    HW219693   5.279   9.164   2.546
 3162SOL     OW19694   9.781   2.705   1.699
 3162SOL    HW119695   9.789   2.634   1.769
 3162SOL    HW219696   9.857   2.769   1.707
 3163SOL     OW19697   2.016   6.043   2.612
 3163SOL    HW119698   2.051   6.092   2.532
 3163SOL    HW219699   2.049   6.088   2.695
 3164SOL     OW19700   8.430   0.519   1.929
 3164SOL    HW119701   8.365   0.459   1.883
 3164SOL    HW219702   8.502   0.545   1.864
 3165SOL     OW19703   0.501   4.863   2.152
 3165SOL    HW119704   0.542   4.884   2.241
 3165SOL    HW219705   0.547   4.917   2.081
 3166SOL     OW19706   9.633   5.311   1.820
 3166SOL    HW119707   9.675   5.398   1.846
 3166SOL    HW219708   9.578   5.324   1.737
 3167SOL     OW19709   0.922   2.478   0.729
 3167SOL    HW119710   1.022   2.479   0.723
 3167SOL    HW219711   0.894   2.476   0.825
 3168SOL     OW19712   6.923   0.353   2.625
 3168SOL    HW119713   7.014   0.316   2.607
 3168SOL    HW219714   6.864   0.335   2.547
 3169SOL     OW19715   2.036   5.893   1.842
 3169SOL    HW119716   2.008   5.798   1.855
 3169SOL    HW219717   2.131   5.904   1.872
 3170SOL     OW19718   2.586   6.853   2.584
 3170SOL    HW119719   2.516   6.876   2.517
 3170SOL    HW219720   2.579   6.756   2.608
 3171SOL     OW19721   3.767   8.562   0.626
 3171SOL    HW119722   3.834   8.630   0.657
 3171SOL    HW219723   3.695   8.552   0.694
 3172SOL     OW19724   9.997   1.378   1.091
 3172SOL    HW119725   9.951   1.436   1.024
 3172SOL    HW219726   0.088   1.354   1.056
 3173SOL     OW19727   1.929   7.048   2.214
 3173SOL    HW119728   2.016   7.013   2.180
 3173SOL    HW219729   1.941   7.083   2.307
 3174SOL     OW19730   3.906   2.497   0.837
 3174SOL    HW119731   3.829   2.451   0.794
 3174SOL    HW219732   3.928   2.580   0.787
 3175SOL     OW19733   3.573   3.017   1.620
 3175SOL    HW119734   3.666   3.054   1.612
 3175SOL    HW219735   3.553   2.998   1.716
 3176SOL     OW19736   1.853   2.034   1.254
 3176SOL    HW119737   1.860   1.936   1.273
 3176SOL    HW219738   1.896   2.086   1.328
 3177SOL     OW19739   2.009   8.321   1.883
 3177SOL    HW119740   2.106   8.345   1.887
 3177SOL    HW219741   1.983   8.274   1.967
 3178SOL     OW19742   3.136   2.500   1.091
 3178SOL    HW119743   3.177   2.413   1.063
 3178SOL    HW219744   3.053   2.483   1.144
 3179SOL     OW19745   8.368   1.992   0.111
 3179SOL    HW119746   8.355   2.005   0.013
 3179SOL    HW219747   8.288   2.026   0.160
 3180SOL     OW19748   1.786   1.941   2.113
 3180SOL    HW119749   1.781   1.861   2.172
 3180SOL    HW219750   1.850   2.007   2.151
 3181SOL     OW19751   9.197   2.002   2.175
 3181SOL    HW119752   9.168   1.944   2.099
 3181SOL    HW219753   9.187   2.098   2.149
 3182SOL     OW19754   2.264   0.046   0.385
 3182SOL    HW119755   2.323   0.003   0.316
 3182SOL    HW219756   2.312   0.126   0.424
 3183SOL     OW19757   4.877   1.228   1.014
 3183SOL    HW119758   4.784   1.228   0.976
 3183SOL    HW219759   4.938   1.177   0.953
 3184SOL     OW19760   1.602   2.551   1.820
 3184SOL    HW119761   1.519   2.589   1.861
 3184SOL    HW219762   1.669   2.533   1.892
 3185SOL     OW19763   2.633   0.070   2.675
 3185SOL    HW119764   2.724   0.065   2.633
 3185SOL    HW219765   2.642   0.080   2.774
 3186SOL     OW19766   2.562   7.149   2.227
 3186SOL    HW119767   2.605   7.060   2.213
 3186SOL    HW219768   2.476   7.153   2.174
 3187SOL     OW19769   3.257   0.082   0.179
 3187SOL    HW119770   3.237   0.089   0.081
 3187SOL    HW219771   3.209   0.004   0.218
 3188SOL     OW19772   8.845   9.899   0.315
 3188SOL    HW119773   8.915   9.970   0.307
 3188SOL    HW219774   8.888   9.809   0.303
 3189SOL     OW19775   1.423   6.170   0.873
 3189SOL    HW119776   1.333   6.213   0.883
 3189SOL    HW219777   1.423   6.082   0.919
 3190SOL     OW19778   1.424   6.776   2.126
 3190SOL    HW119779   1.470   6.860   2.097
 3190SOL    HW219780   1.464   6.744   2.212
 3191SOL     OW19781   8.779   9.013   0.003
 3191SOL    HW119782   8.711   8.965   0.059
 3191SOL    HW219783   8.823   8.948   3.378
 3192SOL     OW19784   8.606   3.596   1.158
 3192SOL    HW119785   8.552   3.533   1.214
 3192SOL    HW219786   8.682   3.633   1.212
 3193SOL     OW19787   9.999   7.937   1.223
 3193SOL    HW119788   9.966   7.844   1.234
 3193SOL    HW219789   9.971   7.973   1.133
 3194SOL     OW19790   9.770   2.012   2.107
 3194SOL    HW119791   9.796   1.938   2.169
 3194SOL    HW219792   9.692   1.983   2.051
 3195SOL     OW19793   1.026   9.687   1.283
 3195SOL    HW119794   1.037   9.774   1.331
 3195SOL    HW219795   0.975   9.624   1.341
 3196SOL     OW19796   8.619   7.722   1.865
 3196SOL    HW119797   8.588   7.748   1.957
 3196SOL    HW219798   8.704   7.670   1.873
 3197SOL     OW19799   4.582   0.572   1.373
 3197SOL    HW119800   4.530   0.656   1.390
 3197SOL    HW219801   4.677   0.586   1.399
 3198SOL     OW19802   0.920   6.876   0.511
 3198SOL    HW119803   0.949   6.948   0.448
 3198SOL    HW219804   0.836   6.904   0.557
 3199SOL     OW19805   8.896   4.654   0.265
 3199SOL    HW119806   8.801   4.661   0.235
 3199SOL    HW219807   8.921   4.736   0.316
 3200SOL     OW19808   0.640   4.266   1.780
 3200SOL    HW119809   0.718   4.229   1.831
 3200SOL    HW219810   0.557   4.258   1.835
 3201SOL     OW19811   3.270   5.301   1.575
 3201SOL    HW119812   3.271   5.201   1.565
 3201SOL    HW219813   3.190   5.338   1.528
 3202SOL     OW19814   3.553   7.810   0.371
 3202SOL    HW119815   3.547   7.722   0.418
 3202SOL    HW219816   3.603   7.875   0.427
 3203SOL     OW19817   4.675   1.920   1.277
 3203SOL    HW119818   4.587   1.968   1.272
 3203SOL    HW219819   4.714   1.911   1.186
 3204SOL     OW19820   4.589   3.412   0.735
 3204SOL    HW119821   4.569   3.318   0.708
 3204SOL    HW219822   4.620   3.463   0.655
 3205SOL     OW19823   8.514   1.408   2.013
 3205SOL    HW119824   8.572   1.394   1.932
 3205SOL    HW219825   8.556   1.363   2.092
 3206SOL     OW19826   1.087   3.546   1.526
 3206SOL    HW119827   1.148   3.550   1.605
 3206SOL    HW219828   0.999   3.506   1.554
 3207SOL     OW19829   3.698   5.739   2.662
 3207SOL    HW119830   3.636   5.661   2.655
 3207SOL    HW219831   3.684   5.786   2.749
 3208SOL     OW19832   6.847   9.263   2.660
 3208SOL    HW119833   6.865   9.190   2.594
 3208SOL    HW219834   6.905   9.250   2.740
 3209SOL     OW19835   9.830   3.187   1.170
 3209SOL    HW119836   9.796   3.159   1.080
 3209SOL    HW219837   9.755   3.180   1.237
 3210SOL     OW19838   2.153   0.234   2.034
 3210SOL    HW119839   2.060   0.268   2.018
 3210SOL    HW219840   2.204   0.302   2.087
 3211SOL     OW19841   0.359   7.834   2.243
 3211SOL    HW119842   0.444   7.876   2.210
 3211SOL    HW219843   0.353   7.843   2.342
 3212SOL     OW19844   9.386   6.954   2.087
 3212SOL    HW119845   9.373   6.866   2.133
 3212SOL    HW219846   9.466   7.000   2.127
 3213SOL     OW19847   0.361   3.050   0.615
 3213SOL    HW119848   0.352   3.150   0.615
 3213SOL    HW219849   0.456   3.025   0.602
 3214SOL     OW19850   2.872   7.534   1.055
 3214SOL    HW119851   2.921   7.521   1.141
 3214SOL    HW219852   2.808   7.610   1.065
 3215SOL     OW19853   1.245   8.089   2.305
 3215SOL    HW119854   1.160   8.131   2.275
 3215SOL    HW219855   1.227   8.024   2.378
 3216SOL     OW19856   8.500   2.326   0.699
 3216SOL    HW119857   8.488   2.384   0.779
 3216SOL    HW219858   8.499   2.382   0.616
 3217SOL     OW19859   8.756   0.287   2.057
 3217SOL    HW119860   8.746   0.385   2.069
 3217SOL    HW219861   8.734   0.240   2.143
 3218SOL     OW19862   3.643   4.108   1.157
 3218SOL    HW119863   3.716   4.147   1.214
 3218SOL    HW219864   3.661   4.129   1.061
 3219SOL     OW19865   2.340   8.553   1.288
 3219SOL    HW119866   2.417   8.505   1.331
 3219SOL    HW219867   2.298   8.493   1.220
 3220SOL     OW19868   7.793   1.569   0.962
 3220SOL    HW119869   7.772   1.473   0.983
 3220SOL    HW219870   7.860   1.604   1.027
 3221SOL     OW19871   3.570   2.124   1.791
 3221SOL    HW119872   3.481   2.168   1.802
 3221SOL    HW219873   3.601   2.136   1.696
 3222SOL     OW19874   1.062   7.641   2.483
 3222SOL    HW119875   1.123   7.720   2.490
 3222SOL    HW219876   0.973   7.670   2.446
 3223SOL     OW19877   2.589   6.204   2.349
 3223SOL    HW119878   2.508   6.148   2.365
 3223SOL    HW219879   2.671   6.152   2.375
 3224SOL     OW19880   0.063   4.113   2.641
 3224SOL    HW119881   9.979   4.083   2.595
 3224SOL    HW219882   0.118   4.034   2.667
 3225SOL     OW19883   1.234   4.342   2.417
 3225SOL    HW119884   1.331   4.364   2.425
 3225SOL    HW219885   1.183   4.425   2.395
 3226SOL     OW19886   3.730   2.170   0.963
 3226SOL    HW119887   3.713   2.132   0.872
 3226SOL    HW219888   3.752   2.096   1.027
 3227SOL     OW19889   2.671   7.476   2.504
 3227SOL    HW119890   2.755   7.422   2.495
 3227SOL    HW219891   2.594   7.426   2.463
 3228SOL     OW19892   2.111   8.793   0.665
 3228SOL    HW119893   2.088   8.700   0.694
 3228SOL    HW219894   2.028   8.841   0.637
 3229SOL     OW19895   3.905   3.474   0.608
 3229SOL    HW119896   3.936   3.569   0.618
 3229SOL    HW219897   3.869   3.442   0.695
 3230SOL     OW19898   2.739   6.003   1.166
 3230SOL    HW119899   2.644   5.980   1.148
 3230SOL    HW219900   2.789   5.922   1.195
 3231SOL     OW19901   5.604   9.214   2.104
 3231SOL    HW119902   5.560   9.261   2.180
 3231SOL    HW219903   5.632   9.123   2.133
 3232SOL     OW19904   3.737   7.688   0.680
 3232SOL    HW119905   3.800   7.765   0.685
 3232SOL    HW219906   3.788   7.606   0.653
 3233SOL     OW19907   1.161   7.539   1.774
 3233SOL    HW119908   1.093   7.591   1.825
 3233SOL    HW219909   1.162   7.569   1.679
 3234SOL     OW19910   4.116   0.195   1.715
 3234SOL    HW119911   4.022   0.209   1.746
 3234SOL    HW219912   4.117   0.171   1.618
 3235SOL     OW19913   0.713   9.251   1.809
 3235SOL    HW119914   0.638   9.296   1.761
 3235SOL    HW219915   0.678   9.168   1.853
 3236SOL     OW19916   1.735   1.014   1.578
 3236SOL    HW119917   1.690   1.099   1.603
 3236SOL    HW219918   1.832   1.019   1.605
 3237SOL     OW19919   0.340   7.875   2.513
 3237SOL    HW119920   0.397   7.954   2.535
 3237SOL    HW219921   0.247   7.891   2.548
 3238SOL     OW19922   3.601   8.525   0.842
 3238SOL    HW119923   3.573   8.621   0.843
 3238SOL    HW219924   3.521   8.466   0.846
 3239SOL     OW19925   4.777   9.238   2.070
 3239SOL    HW119926   4.870   9.260   2.041
 3239SOL    HW219927   4.746   9.155   2.024
 3240SOL     OW19928   1.047   0.951   1.485
 3240SOL    HW119929   1.109   0.957   1.563
 3240SOL    HW219930   1.085   0.886   1.418
 3241SOL     OW19931   8.871   7.610   1.864
 3241SOL    HW119932   8.874   7.595   1.765
 3241SOL    HW219933   8.919   7.536   1.910
 3242SOL     OW19934   9.724   7.979   1.312
 3242SOL    HW119935   9.822   7.979   1.292
 3242SOL    HW219936   9.680   8.056   1.265
 3243SOL     OW19937   8.581   2.147   1.965
 3243SOL    HW119938   8.642   2.153   2.044
 3243SOL    HW219939   8.604   2.218   1.899
 3244SOL     OW19940   1.213   6.055   0.524
 3244SOL    HW119941   1.117   6.082   0.511
 3244SOL    HW219942   1.273   6.131   0.501
 3245SOL     OW19943   5.398   8.726   2.613
 3245SOL    HW119944   5.331   8.797   2.631
 3245SOL    HW219945   5.357   8.636   2.629
 3246SOL     OW19946   1.000   7.456   0.200
 3246SOL    HW119947   0.910   7.421   0.176
 3246SOL    HW219948   1.007   7.552   0.174
 3247SOL     OW19949   9.692   8.697   1.202
 3247SOL    HW119950   9.614   8.754   1.177
 3247SOL    HW219951   9.777   8.739   1.168
 3248SOL     OW19952   1.063   1.170   1.185
 3248SOL    HW119953   1.077   1.242   1.116
 3248SOL    HW219954   1.122   1.188   1.264
 3249SOL     OW19955   9.325   1.437   0.143
 3249SOL    HW119956   9.344   1.362   0.080
 3249SOL    HW219957   9.293   1.400   0.230
 3250SOL     OW19958   1.469   3.582   2.431
 3250SOL    HW119959   1.516   3.659   2.475
 3250SOL    HW219960   1.381   3.566   2.476
 3251SOL     OW19961   2.255   2.679   1.317
 3251SOL    HW119962   2.341   2.724   1.340
 3251SOL    HW219963   2.181   2.745   1.322
 3252SOL     OW19964   1.988   9.261   2.008
 3252SOL    HW119965   1.927   9.336   1.983
 3252SOL    HW219966   1.934   9.177   2.020
 3253SOL     OW19967   9.435   8.079   2.155
 3253SOL    HW119968   9.466   8.135   2.078
 3253SOL    HW219969   9.344   8.107   2.183
 3254SOL     OW19970   4.985   0.510   2.110
 3254SOL    HW119971   4.944   0.568   2.039
 3254SOL    HW219972   4.924   0.506   2.189
 3255SOL     OW19973   3.670   4.726   1.973
 3255SOL    HW119974   3.756   4.701   1.929
 3255SOL    HW219975   3.679   4.816   2.015
 3256SOL     OW19976   1.894   4.096   1.203
 3256SOL    HW119977   1.842   4.020   1.242
 3256SOL    HW219978   1.832   4.159   1.156
 3257SOL     OW19979   8.428   2.824   0.749
 3257SOL    HW119980   8.495   2.801   0.820
 3257SOL    HW219981   8.345   2.860   0.791
 3258SOL     OW19982   9.606   3.366   0.869
 3258SOL    HW119983   9.533   3.327   0.924
 3258SOL    HW219984   9.568   3.401   0.783
 3259SOL     OW19985   7.507   8.670   2.153
 3259SOL    HW119986   7.517   8.750   2.212
 3259SOL    HW219987   7.417   8.671   2.109
 3260SOL     OW19988   3.846   7.195   0.356
 3260SOL    HW119989   3.941   7.202   0.326
 3260SOL    HW219990   3.801   7.284   0.347
 3261SOL     OW19991   9.287   0.845   2.559
 3261SOL    HW119992   9.324   0.934   2.586
 3261SOL    HW219993   9.224   0.813   2.629
 3262SOL     OW19994   8.727   8.936   2.103
 3262SOL    HW119995   8.692   8.969   2.191
 3262SOL    HW219996   8.715   9.006   2.033
 3263SOL     OW19997   2.154   3.599   0.983
 3263SOL    HW119998   2.165   3.607   0.884
 3263SOL    HW219999   2.244   3.595   1.026
 3264SOL     OW20000   0.837   5.260   1.349
 3264SOL    HW120001   0.759   5.248   1.288
 3264SOL    HW220002   0.830   5.196   1.426
 3265SOL     OW20003   8.067   1.283   2.263
 3265SOL    HW120004   8.149   1.338   2.267
 3265SOL    HW220005   8.059   1.229   2.347
 3266SOL     OW20006   4.519   0.297   1.835
 3266SOL    HW120007   4.425   0.329   1.823
 3266SOL    HW220008   4.582   0.360   1.789
 3267SOL     OW20009   5.826   8.848   2.492
 3267SOL    HW120010   5.876   8.932   2.469
 3267SOL    HW220011   5.748   8.871   2.551
 3268SOL     OW20012   4.446   1.800   1.877
 3268SOL    HW120013   4.492   1.757   1.800
 3268SOL    HW220014   4.356   1.831   1.849
 3269SOL     OW20015   9.448   5.295   2.429
 3269SOL    HW120016   9.486   5.387   2.416
 3269SOL    HW220017   9.484   5.235   2.357
 3270SOL     OW20018   3.347   0.575   1.771
 3270SOL    HW120019   3.294   0.497   1.741
 3270SOL    HW220020   3.347   0.579   1.871
 3271SOL     OW20021   3.713   2.181   2.613
 3271SOL    HW120022   3.750   2.273   2.601
 3271SOL    HW220023   3.787   2.115   2.621
 3272SOL     OW20024   7.837   0.994   1.359
 3272SOL    HW120025   7.764   0.998   1.291
 3272SOL    HW220026   7.916   1.046   1.327
 3273SOL     OW20027   0.373   5.860   1.270
 3273SOL    HW120028   0.356   5.811   1.185
 3273SOL    HW220029   0.431   5.940   1.253
 3274SOL     OW20030   2.568   2.965   1.935
 3274SOL    HW120031   2.626   2.908   1.878
 3274SOL    HW220032   2.566   2.928   2.028
 3275SOL     OW20033   2.890   2.437   0.073
 3275SOL    HW120034   2.794   2.420   0.055
 3275SOL    HW220035   2.935   2.351   0.098
 3276SOL     OW20036   9.772   4.726   1.588
 3276SOL    HW120037   9.756   4.725   1.489
 3276SOL    HW220038   9.866   4.756   1.605
 3277SOL     OW20039   3.825   1.037   2.199
 3277SOL    HW120040   3.843   0.986   2.283
 3277SOL    HW220041   3.911   1.071   2.161
 3278SOL     OW20042   1.874   2.815   0.139
 3278SOL    HW120043   1.944   2.882   0.114
 3278SOL    HW220044   1.909   2.757   0.213
 3279SOL     OW20045   8.687   3.117   0.586
 3279SOL    HW120046   8.763   3.122   0.521
 3279SOL    HW220047   8.636   3.032   0.570
 3280SOL     OW20048   8.946   1.791   2.594
 3280SOL    HW120049   8.982   1.742   2.673
 3280SOL    HW220050   8.999   1.874   2.578
 3281SOL     OW20051   8.647   9.822   0.483
 3281SOL    HW120052   8.711   9.853   0.412
 3281SOL    HW220053   8.673   9.730   0.513
 3282SOL     OW20054   9.473   6.677   0.397
 3282SOL    HW120055   9.414   6.739   0.345
 3282SOL    HW220056   9.416   6.618   0.454
 3283SOL     OW20057   8.317   6.880   1.487
 3283SOL    HW120058   8.316   6.827   1.403
 3283SOL    HW220059   8.411   6.889   1.520
 3284SOL     OW20060   1.786   1.983   0.832
 3284SOL    HW120061   1.756   2.046   0.759
 3284SOL    HW220062   1.844   2.032   0.896
 3285SOL     OW20063   4.307   1.208   0.017
 3285SOL    HW120064   4.403   1.194   3.428
 3285SOL    HW220065   4.249   1.197   3.372
 3286SOL     OW20066   7.310   9.919   1.663
 3286SOL    HW120067   7.310   9.830   1.709
 3286SOL    HW220068   7.267   9.910   1.574
 3287SOL     OW20069   2.476   2.427   2.436
 3287SOL    HW120070   2.527   2.507   2.469
 3287SOL    HW220071   2.479   2.425   2.336
 3288SOL     OW20072   4.417   7.658   2.568
 3288SOL    HW120073   4.511   7.628   2.583
 3288SOL    HW220074   4.415   7.758   2.562
 3289SOL     OW20075   4.393   7.805   0.129
 3289SOL    HW120076   4.402   7.707   0.146
 3289SOL    HW220077   4.310   7.839   0.174
 3290SOL     OW20078   9.370   3.170   2.273
 3290SOL    HW120079   9.374   3.251   2.215
 3290SOL    HW220080   9.421   3.186   2.357
 3291SOL     OW20081   8.199   2.215   2.585
 3291SOL    HW120082   8.117   2.174   2.545
 3291SOL    HW220083   8.174   2.299   2.633
 3292SOL     OW20084   9.206   7.341   0.271
 3292SOL    HW120085   9.149   7.393   0.207
 3292SOL    HW220086   9.147   7.301   0.342
 3293SOL     OW20087   1.436   5.914   1.648
 3293SOL    HW120088   1.451   5.984   1.718
 3293SOL    HW220089   1.345   5.873   1.660
 3294SOL     OW20090   9.000   8.871   2.610
 3294SOL    HW120091   8.971   8.872   2.514
 3294SOL    HW220092   8.975   8.784   2.652
 3295SOL     OW20093   1.939   5.977   2.238
 3295SOL    HW120094   1.999   5.897   2.242
 3295SOL    HW220095   1.894   5.980   2.148
 3296SOL     OW20096   0.063   4.915   0.471
 3296SOL    HW120097   0.148   4.940   0.424
 3296SOL    HW220098   0.072   4.936   0.569
 3297SOL     OW20099   1.337   5.970   2.522
 3297SOL    HW120100   1.420   5.915   2.513
 3297SOL    HW220101   1.258   5.909   2.530
 3298SOL     OW20102   3.489   1.859   0.444
 3298SOL    HW120103   3.501   1.861   0.543
 3298SOL    HW220104   3.567   1.812   0.402
 3299SOL     OW20105   9.244   8.892   0.497
 3299SOL    HW120106   9.232   8.793   0.508
 3299SOL    HW220107   9.172   8.928   0.439
 3300SOL     OW20108   1.196   1.991   0.017
 3300SOL    HW120109   1.126   1.946   0.072
 3300SOL    HW220110   1.277   1.932   0.014
 3301SOL     OW20111   3.286   8.388   0.603
 3301SOL    HW120112   3.249   8.319   0.542
 3301SOL    HW220113   3.306   8.472   0.551
 3302SOL     OW20114   1.060   0.321   1.646
 3302SOL    HW120115   1.107   0.303   1.559
 3302SOL    HW220116   0.999   0.399   1.635
 3303SOL     OW20117   0.345   4.647   2.344
 3303SOL    HW120118   0.256   4.619   2.307
 3303SOL    HW220119   0.337   4.738   2.385
 3304SOL     OW20120   1.963   8.209   1.637
 3304SOL    HW120121   1.968   8.276   1.563
 3304SOL    HW220122   1.977   8.254   1.725
 3305SOL     OW20123   4.805   9.176   0.649
 3305SOL    HW120124   4.857   9.250   0.609
 3305SOL    HW220125   4.799   9.100   0.584
 3306SOL     OW20126   3.809   2.541   0.510
 3306SOL    HW120127   3.774   2.473   0.574
 3306SOL    HW220128   3.866   2.607   0.560
 3307SOL     OW20129   1.966   7.105   0.594
 3307SOL    HW120130   2.048   7.052   0.613
 3307SOL    HW220131   1.904   7.052   0.536
 3308SOL     OW20132   1.156   6.519   1.005
 3308SOL    HW120133   1.106   6.592   1.051
 3308SOL    HW220134   1.245   6.507   1.049
 3309SOL     OW20135   2.613   3.165   2.575
 3309SOL    HW120136   2.644   3.132   2.664
 3309SOL    HW220137   2.568   3.253   2.586
 3310SOL     OW20138   0.047   6.563   1.513
 3310SOL    HW120139   0.052   6.478   1.565
 3310SOL    HW220140   0.115   6.628   1.548
 3311SOL     OW20141   0.369   2.451   2.212
 3311SOL    HW120142   0.271   2.448   2.193
 3311SOL    HW220143   0.407   2.359   2.211
 3312SOL     OW20144   9.892   1.506   0.866
 3312SOL    HW120145   9.889   1.445   0.787
 3312SOL    HW220146   9.821   1.576   0.856
 3313SOL     OW20147   8.275   0.981   2.379
 3313SOL    HW120148   8.326   0.904   2.416
 3313SOL    HW220149   8.335   1.061   2.370
 3314SOL     OW20150   9.011   9.360   1.323
 3314SOL    HW120151   8.913   9.353   1.344
 3314SOL    HW220152   9.028   9.446   1.274
 3315SOL     OW20153   1.580   1.451   0.582
 3315SOL    HW120154   1.499   1.465   0.638
 3315SOL    HW220155   1.553   1.416   0.492
 3316SOL     OW20156   1.851   3.963   1.976
 3316SOL    HW120157   1.905   3.880   1.960
 3316SOL    HW220158   1.905   4.028   2.029
 3317SOL     OW20159   8.204   6.479   1.547
 3317SOL    HW120160   8.285   6.514   1.501
 3317SOL    HW220161   8.151   6.555   1.583
 3318SOL     OW20162   9.149   3.218   0.178
 3318SOL    HW120163   9.085   3.295   0.167
 3318SOL    HW220164   9.206   3.211   0.097
 3319SOL     OW20165   3.566   7.450   2.619
 3319SOL    HW120166   3.576   7.530   2.678
 3319SOL    HW220167   3.474   7.411   2.630
 3320SOL     OW20168   0.257   5.518   1.423
 3320SOL    HW120169   0.337   5.577   1.430
 3320SOL    HW220170   0.196   5.535   1.500
 3321SOL     OW20171   2.415   1.626   1.416
 3321SOL    HW120172   2.387   1.696   1.481
 3321SOL    HW220173   2.514   1.626   1.407
 3322SOL     OW20174   8.317   5.527   0.160
 3322SOL    HW120175   8.412   5.499   0.151
 3322SOL    HW220176   8.259   5.447   0.177
 3323SOL     OW20177   0.571   2.344   1.251
 3323SOL    HW120178   0.500   2.300   1.196
 3323SOL    HW220179   0.530   2.417   1.307
 3324SOL     OW20180   0.872   5.630   2.435
 3324SOL    HW120181   0.843   5.659   2.527
 3324SOL    HW220182   0.810   5.669   2.367
 3325SOL     OW20183   1.819   4.798   0.995
 3325SOL    HW120184   1.842   4.893   1.016
 3325SOL    HW220185   1.754   4.796   0.919
 3326SOL     OW20186   3.456   1.785   0.891
 3326SOL    HW120187   3.519   1.811   0.818
 3326SOL    HW220188   3.469   1.689   0.914
 3327SOL     OW20189   0.167   3.526   0.947
 3327SOL    HW120190   0.082   3.574   0.926
 3327SOL    HW220191   0.160   3.482   1.037
 3328SOL     OW20192   0.245   1.539   1.797
 3328SOL    HW120193   0.320   1.569   1.856
 3328SOL    HW220194   0.214   1.617   1.742
 3329SOL     OW20195   2.457   0.856   0.956
 3329SOL    HW120196   2.438   0.867   0.858
 3329SOL    HW220197   2.554   0.875   0.973
 3330SOL     OW20198   1.840   0.980   0.932
 3330SOL    HW120199   1.921   0.927   0.955
 3330SOL    HW220200   1.860   1.040   0.854
 3331SOL     OW20201   1.963   1.107   1.947
 3331SOL    HW120202   1.877   1.154   1.967
 3331SOL    HW220203   1.972   1.095   1.848
 3332SOL     OW20204   4.301   1.900   1.472
 3332SOL    HW120205   4.206   1.877   1.452
 3332SOL    HW220206   4.358   1.819   1.458
 3333SOL     OW20207   2.225   8.510   2.148
 3333SOL    HW120208   2.200   8.454   2.227
 3333SOL    HW220209   2.293   8.578   2.175
 3334SOL     OW20210   9.217   3.986   0.472
 3334SOL    HW120211   9.189   4.078   0.499
 3334SOL    HW220212   9.136   3.932   0.447
 3335SOL     OW20213   4.423   8.487   0.570
 3335SOL    HW120214   4.370   8.533   0.641
 3335SOL    HW220215   4.516   8.470   0.604
 3336SOL     OW20216   9.615   7.776   0.441
 3336SOL    HW120217   9.598   7.677   0.437
 3336SOL    HW220218   9.655   7.806   0.355
 3337SOL     OW20219   0.966   2.925   1.828
 3337SOL    HW120220   0.874   2.964   1.820
 3337SOL    HW220221   0.980   2.857   1.755
 3338SOL     OW20222   1.796   2.866   2.379
 3338SOL    HW120223   1.759   2.857   2.287
 3338SOL    HW220224   1.811   2.774   2.417
 3339SOL     OW20225   3.685   8.802   1.105
 3339SOL    HW120226   3.587   8.817   1.093
 3339SOL    HW220227   3.704   8.704   1.112
 3340SOL     OW20228   0.571   7.492   0.796
 3340SOL    HW120229   0.499   7.423   0.791
 3340SOL    HW220230   0.567   7.538   0.885
 3341SOL     OW20231   0.541   0.683   1.451
 3341SOL    HW120232   0.496   0.596   1.473
 3341SOL    HW220233   0.474   0.746   1.411
 3342SOL     OW20234   9.018   1.575   0.239
 3342SOL    HW120235   9.099   1.631   0.218
 3342SOL    HW220236   8.941   1.635   0.261
 3343SOL     OW20237   9.599   7.505   0.406
 3343SOL    HW120238   9.629   7.449   0.484
 3343SOL    HW220239   9.543   7.450   0.345
 3344SOL     OW20240   2.812   5.297   1.815
 3344SOL    HW120241   2.861   5.316   1.900
 3344SOL    HW220242   2.845   5.211   1.777
 3345SOL     OW20243   8.908   5.824   2.236
 3345SOL    HW120244   8.840   5.897   2.238
 3345SOL    HW220245   8.947   5.817   2.144
 3346SOL     OW20246   9.051   0.787   1.975
 3346SOL    HW120247   9.057   0.819   2.070
 3346SOL    HW220248   8.958   0.804   1.941
 3347SOL     OW20249   0.710   0.326   0.243
 3347SOL    HW120250   0.799   0.283   0.259
 3347SOL    HW220251   0.694   0.396   0.313
 3348SOL     OW20252   2.929   6.288   0.106
 3348SOL    HW120253   3.014   6.332   0.137
 3348SOL    HW220254   2.943   6.246   0.017
 3349SOL     OW20255   4.006   3.813   1.930
 3349SOL    HW120256   3.944   3.734   1.930
 3349SOL    HW220257   4.010   3.852   1.838
 3350SOL     OW20258   4.034   4.237   0.982
 3350SOL    HW120259   4.078   4.277   1.063
 3350SOL    HW220260   4.029   4.138   0.993
 3351SOL     OW20261   1.277   6.404   2.248
 3351SOL    HW120262   1.350   6.391   2.180
 3351SOL    HW220263   1.292   6.341   2.325
 3352SOL     OW20264   3.756   3.874   0.560
 3352SOL    HW120265   3.738   3.971   0.547
 3352SOL    HW220266   3.701   3.840   0.637
 3353SOL     OW20267   9.885   1.142   0.988
 3353SOL    HW120268   9.907   1.228   1.035
 3353SOL    HW220269   9.952   1.125   0.916
 3354SOL     OW20270   8.572   0.679   0.229
 3354SOL    HW120271   8.599   0.586   0.208
 3354SOL    HW220272   8.643   0.743   0.199
 3355SOL     OW20273   0.304   8.267   2.100
 3355SOL    HW120274   0.211   8.236   2.117
 3355SOL    HW220275   0.352   8.202   2.041
 3356SOL     OW20276   8.668   4.674   0.573
 3356SOL    HW120277   8.632   4.734   0.644
 3356SOL    HW220278   8.672   4.723   0.486
 3357SOL     OW20279   0.455   4.783   1.582
 3357SOL    HW120280   0.359   4.777   1.554
 3357SOL    HW220281   0.475   4.713   1.650
 3358SOL     OW20282   0.299   9.478   2.220
 3358SOL    HW120283   0.350   9.536   2.157
 3358SOL    HW220284   0.301   9.384   2.187
 3359SOL     OW20285   9.074   7.752   2.005
 3359SOL    HW120286   9.001   7.716   1.946
 3359SOL    HW220287   9.158   7.761   1.951
 3360SOL     OW20288   1.647   3.067   2.496
 3360SOL    HW120289   1.706   2.991   2.470
 3360SOL    HW220290   1.701   3.137   2.543
 3361SOL     OW20291   1.874   1.597   0.099
 3361SOL    HW120292   1.851   1.588   0.002
 3361SOL    HW220293   1.790   1.596   0.154
 3362SOL     OW20294   2.518   3.174   0.560
 3362SOL    HW120295   2.515   3.176   0.660
 3362SOL    HW220296   2.426   3.163   0.524
 3363SOL     OW20297   0.340   5.291   1.275
 3363SOL    HW120298   0.350   5.327   1.182
 3363SOL    HW220299   0.324   5.366   1.338
 3364SOL     OW20300   7.504   0.062   0.841
 3364SOL    HW120301   7.406   0.079   0.846
 3364SOL    HW220302   7.547   0.133   0.785
 3365SOL     OW20303   0.257   4.403   0.482
 3365SOL    HW120304   0.316   4.435   0.557
 3365SOL    HW220305   0.264   4.466   0.405
 3366SOL     OW20306   0.601   6.137   0.679
 3366SOL    HW120307   0.652   6.161   0.762
 3366SOL    HW220308   0.612   6.039   0.661
 3367SOL     OW20309   8.646   5.288   2.025
 3367SOL    HW120310   8.571   5.353   2.035
 3367SOL    HW220311   8.615   5.197   2.052
 3368SOL     OW20312   7.659   1.328   1.271
 3368SOL    HW120313   7.599   1.265   1.321
 3368SOL    HW220314   7.735   1.355   1.329
 3369SOL     OW20315   3.121   0.374   0.559
 3369SOL    HW120316   3.165   0.361   0.470
 3369SOL    HW220317   3.072   0.292   0.585
 3370SOL     OW20318   3.656   2.184   1.539
 3370SOL    HW120319   3.753   2.177   1.562
 3370SOL    HW220320   3.645   2.236   1.454
 3371SOL     OW20321   8.427   3.418   1.280
 3371SOL    HW120322   8.436   3.322   1.253
 3371SOL    HW220323   8.363   3.464   1.218
 3372SOL     OW20324   2.122   3.952   2.265
 3372SOL    HW120325   2.179   3.968   2.184
 3372SOL    HW220326   2.093   4.040   2.303
 3373SOL     OW20327   9.964   5.378   1.532
 3373SOL    HW120328   0.013   5.449   1.581
 3373SOL    HW220329   9.941   5.303   1.594
 3374SOL     OW20330   3.752   2.538   1.622
 3374SOL    HW120331   3.715   2.626   1.591
 3374SOL    HW220332   3.684   2.493   1.680
 3375SOL     OW20333   0.966   8.255   0.820
 3375SOL    HW120334   0.988   8.352   0.834
 3375SOL    HW220335   0.871   8.239   0.846
 3376SOL     OW20336   9.122   5.586   2.561
 3376SOL    HW120337   9.052   5.655   2.542
 3376SOL    HW220338   9.121   5.565   2.659
 3377SOL     OW20339   3.217   0.690   1.494
 3377SOL    HW120340   3.283   0.618   1.476
 3377SOL    HW220341   3.230   0.765   1.430
 3378SOL     OW20342   9.060   4.343   0.981
 3378SOL    HW120343   9.030   4.303   1.067
 3378SOL    HW220344   9.000   4.420   0.957
 3379SOL     OW20345   4.290   3.023   0.247
 3379SOL    HW120346   4.322   3.082   0.172
 3379SOL    HW220347   4.203   3.059   0.282
 3380SOL     OW20348   9.326   3.749   1.178
 3380SOL    HW120349   9.360   3.771   1.087
 3380SOL    HW220350   9.349   3.822   1.242
 3381SOL     OW20351   2.754   4.126   1.191
 3381SOL    HW120352   2.777   4.037   1.232
 3381SOL    HW220353   2.661   4.122   1.153
 3382SOL     OW20354   9.902   9.347   0.968
 3382SOL    HW120355   9.921   9.431   1.019
 3382SOL    HW220356   9.845   9.286   1.024
 3383SOL     OW20357   3.676   0.003   1.317
 3383SOL    HW120358   3.701   0.022   1.222
 3383SOL    HW220359   3.598   9.941   1.320
 3384SOL     OW20360   1.182   0.317   0.984
 3384SOL    HW120361   1.162   0.413   0.967
 3384SOL    HW220362   1.260   0.310   1.047
 3385SOL     OW20363   9.752   6.717   2.551
 3385SOL    HW120364   9.793   6.809   2.544
 3385SOL    HW220365   9.711   6.705   2.641
 3386SOL     OW20366   1.104   8.894   1.929
 3386SOL    HW120367   1.190   8.855   1.895
 3386SOL    HW220368   1.030   8.870   1.866
 3387SOL     OW20369   2.028   5.197   0.617
 3387SOL    HW120370   2.008   5.225   0.711
 3387SOL    HW220371   1.950   5.219   0.558
 3388SOL     OW20372   1.492   5.963   0.565
 3388SOL    HW120373   1.395   5.986   0.564
 3388SOL    HW220374   1.546   6.047   0.551
 3389SOL     OW20375   8.887   8.613   2.630
 3389SOL    HW120376   8.815   8.609   2.562
 3389SOL    HW220377   8.910   8.520   2.661
 3390SOL     OW20378   0.509   4.807   0.986
 3390SOL    HW120379   0.521   4.779   0.890
 3390SOL    HW220380   0.455   4.891   0.989
 3391SOL     OW20381   3.027   1.802   2.646
 3391SOL    HW120382   3.107   1.832   2.698
 3391SOL    HW220383   3.041   1.820   2.549
 3392SOL     OW20384   1.716   1.185   2.057
 3392SOL    HW120385   1.622   1.217   2.049
 3392SOL    HW220386   1.717   1.086   2.075
 3393SOL     OW20387   1.109   6.646   0.245
 3393SOL    HW120388   1.013   6.663   0.222
 3393SOL    HW220389   1.142   6.718   0.306
 3394SOL     OW20390   0.206   4.794   1.457
 3394SOL    HW120391   0.242   4.854   1.385
 3394SOL    HW220392   0.164   4.713   1.415
 3395SOL     OW20393   0.295   6.578   0.402
 3395SOL    HW120394   0.377   6.531   0.369
 3395SOL    HW220395   0.320   6.668   0.438
 3396SOL     OW20396   4.297   3.452   2.604
 3396SOL    HW120397   4.287   3.481   2.699
 3396SOL    HW220398   4.294   3.533   2.545
 3397SOL     OW20399   0.604   3.290   0.904
 3397SOL    HW120400   0.549   3.217   0.945
 3397SOL    HW220401   0.673   3.250   0.844
 3398SOL     OW20402   8.777   6.888   2.410
 3398SOL    HW120403   8.770   6.938   2.323
 3398SOL    HW220404   8.686   6.879   2.451
 3399SOL     OW20405   7.794   1.959   1.672
 3399SOL    HW120406   7.827   2.053   1.660
 3399SOL    HW220407   7.716   1.943   1.611
 3400SOL     OW20408   3.365   3.036   2.215
 3400SOL    HW120409   3.356   2.938   2.198
 3400SOL    HW220410   3.460   3.058   2.234
 3401SOL     OW20411   1.605   9.973   2.469
 3401SOL    HW120412   1.569   9.887   2.507
 3401SOL    HW220413   1.547   0.049   2.498
 3402SOL     OW20414   1.226   3.948   1.457
 3402SOL    HW120415   1.131   3.975   1.441
 3402SOL    HW220416   1.287   4.019   1.420
 3403SOL     OW20417   9.520   6.303   2.020
 3403SOL    HW120418   9.504   6.369   1.946
 3403SOL    HW220419   9.443   6.240   2.024
 3404SOL     OW20420   6.849   9.503   1.467
 3404SOL    HW120421   6.825   9.406   1.466
 3404SOL    HW220422   6.776   9.556   1.423
 3405SOL     OW20423   1.655   3.603   1.039
 3405SOL    HW120424   1.573   3.589   1.095
 3405SOL    HW220425   1.651   3.693   0.996
 3406SOL     OW20426   9.319   5.176   1.755
 3406SOL    HW120427   9.369   5.232   1.689
 3406SOL    HW220428   9.359   5.187   1.846
 3407SOL     OW20429   4.521   7.663   2.006
 3407SOL    HW120430   4.539   7.662   1.908
 3407SOL    HW220431   4.432   7.622   2.024
 3408SOL     OW20432   0.293   9.555   0.856
 3408SOL    HW120433   0.247   9.562   0.945
 3408SOL    HW220434   0.378   9.505   0.868
 3409SOL     OW20435   0.800   5.061   1.064
 3409SOL    HW120436   0.723   5.097   1.116
 3409SOL    HW220437   0.799   4.961   1.068
 3410SOL     OW20438   2.895   1.600   2.042
 3410SOL    HW120439   2.842   1.515   2.051
 3410SOL    HW220440   2.964   1.604   2.114
 3411SOL     OW20441   0.044   3.853   1.056
 3411SOL    HW120442   0.002   3.783   0.998
 3411SOL    HW220443   0.126   3.889   1.011
 3412SOL     OW20444   9.229   7.962   0.212
 3412SOL    HW120445   9.226   7.867   0.181
 3412SOL    HW220446   9.219   7.966   0.311
 3413SOL     OW20447   8.369   4.512   0.697
 3413SOL    HW120448   8.442   4.468   0.644
 3413SOL    HW220449   8.402   4.532   0.789
 3414SOL     OW20450   3.156   3.395   1.309
 3414SOL    HW120451   3.188   3.329   1.377
 3414SOL    HW220452   3.077   3.358   1.261
 3415SOL     OW20453   0.430   8.072   1.945
 3415SOL    HW120454   0.477   8.103   1.863
 3415SOL    HW220455   0.363   8.002   1.920
 3416SOL     OW20456   0.740   7.410   0.098
 3416SOL    HW120457   0.646   7.405   0.130
 3416SOL    HW220458   0.746   7.469   0.018
 3417SOL     OW20459   2.451   2.528   0.291
 3417SOL    HW120460   2.409   2.516   0.381
 3417SOL    HW220461   2.384   2.506   0.220
 3418SOL     OW20462   2.722   9.299   2.474
 3418SOL    HW120463   2.637   9.350   2.488
 3418SOL    HW220464   2.702   9.213   2.426
 3419SOL     OW20465   9.336   9.165   0.879
 3419SOL    HW120466   9.434   9.184   0.880
 3419SOL    HW220467   9.285   9.252   0.883
 3420SOL     OW20468   4.042   1.148   2.039
 3420SOL    HW120469   4.096   1.175   2.119
 3420SOL    HW220470   4.069   1.056   2.011
 3421SOL     OW20471   2.416   2.631   1.855
 3421SOL    HW120472   2.343   2.567   1.830
 3421SOL    HW220473   2.431   2.696   1.780
 3422SOL     OW20474   7.312   1.744   2.330
 3422SOL    HW120475   7.402   1.787   2.337
 3422SOL    HW220476   7.245   1.798   2.381
 3423SOL     OW20477   9.164   0.441   2.641
 3423SOL    HW120478   9.241   0.404   2.589
 3423SOL    HW220479   9.107   0.496   2.581
 3424SOL     OW20480   3.550   9.700   2.446
 3424SOL    HW120481   3.561   9.666   2.353
 3424SOL    HW220482   3.589   9.635   2.510
 3425SOL     OW20483   8.207   7.808   2.022
 3425SOL    HW120484   8.254   7.743   1.963
 3425SOL    HW220485   8.226   7.901   1.990
 3426SOL     OW20486   2.493   6.569   0.497
 3426SOL    HW120487   2.482   6.470   0.511
 3426SOL    HW220488   2.406   6.609   0.469
 3427SOL     OW20489   0.731   0.244   1.075
 3427SOL    HW120490   0.671   0.242   0.995
 3427SOL    HW220491   0.686   0.295   1.149
 3428SOL     OW20492   7.640   9.608   0.689
 3428SOL    HW120493   7.587   9.525   0.673
 3428SOL    HW220494   7.720   9.586   0.747
 3429SOL     OW20495   4.105   0.875   1.696
 3429SOL    HW120496   4.108   0.891   1.795
 3429SOL    HW220497   4.023   0.823   1.673
 3430SOL     OW20498   0.496   8.634   2.187
 3430SOL    HW120499   0.419   8.688   2.154
 3430SOL    HW220500   0.578   8.692   2.191
 3431SOL     OW20501   9.536   1.941   2.464
 3431SOL    HW120502   9.443   1.922   2.494
 3431SOL    HW220503   9.566   2.029   2.501
 3432SOL     OW20504   3.579   0.247   1.973
 3432SOL    HW120505   3.635   0.166   1.955
 3432SOL    HW220506   3.548   0.286   1.886
 3433SOL     OW20507   1.674   9.351   2.373
 3433SOL    HW120508   1.703   9.440   2.408
 3433SOL    HW220509   1.755   9.294   2.357
 3434SOL     OW20510   2.507   2.805   0.242
 3434SOL    HW120511   2.506   2.706   0.256
 3434SOL    HW220512   2.594   2.833   0.202
 3435SOL     OW20513   0.210   5.602   2.157
 3435SOL    HW120514   0.157   5.581   2.239
 3435SOL    HW220515   0.249   5.517   2.119
 3436SOL     OW20516   0.618   5.391   2.139
 3436SOL    HW120517   0.679   5.326   2.094
 3436SOL    HW220518   0.644   5.400   2.235
 3437SOL     OW20519   3.946   2.016   2.598
 3437SOL    HW120520   3.981   2.110   2.599
 3437SOL    HW220521   4.017   1.953   2.628
 3438SOL     OW20522   9.003   5.572   1.247
 3438SOL    HW120523   8.915   5.593   1.205
 3438SOL    HW220524   9.034   5.482   1.217
 3439SOL     OW20525   3.871   3.631   1.339
 3439SOL    HW120526   3.862   3.680   1.252
 3439SOL    HW220527   3.968   3.620   1.361
 3440SOL     OW20528   1.837   6.724   0.205
 3440SOL    HW120529   1.926   6.704   0.162
 3440SOL    HW220530   1.842   6.701   0.302
 3441SOL     OW20531   4.194   3.366   1.497
 3441SOL    HW120532   4.272   3.420   1.529
 3441SOL    HW220533   4.157   3.312   1.573
 3442SOL     OW20534   3.543   6.913   2.349
 3442SOL    HW120535   3.616   6.975   2.380
 3442SOL    HW220536   3.490   6.958   2.278
 3443SOL     OW20537   4.127   9.973   1.306
 3443SOL    HW120538   4.080   0.048   1.351
 3443SOL    HW220539   4.070   9.936   1.233
 3444SOL     OW20540   8.749   5.644   1.140
 3444SOL    HW120541   8.718   5.611   1.229
 3444SOL    HW220542   8.706   5.732   1.119
 3445SOL     OW20543   3.206   7.531   1.364
 3445SOL    HW120544   3.210   7.555   1.461
 3445SOL    HW220545   3.291   7.560   1.320
 3446SOL     OW20546   0.891   6.635   1.574
 3446SOL    HW120547   0.817   6.653   1.509
 3446SOL    HW220548   0.866   6.672   1.664
 3447SOL     OW20549   0.570   0.214   0.859
 3447SOL    HW120550   0.562   0.310   0.834
 3447SOL    HW220551   0.621   0.165   0.788
 3448SOL     OW20552   0.983   9.255   1.763
 3448SOL    HW120553   1.018   9.312   1.689
 3448SOL    HW220554   0.884   9.267   1.771
 3449SOL     OW20555   7.472   0.251   0.477
 3449SOL    HW120556   7.562   0.232   0.436
 3449SOL    HW220557   7.406   0.185   0.443
 3450SOL     OW20558   4.467   5.367   0.347
 3450SOL    HW120559   4.540   5.386   0.281
 3450SOL    HW220560   4.413   5.289   0.315
 3451SOL     OW20561   4.287   4.527   2.348
 3451SOL    HW120562   4.327   4.609   2.306
 3451SOL    HW220563   4.357   4.478   2.399
 3452SOL     OW20564   9.513   5.925   1.516
 3452SOL    HW120565   9.515   5.829   1.489
 3452SOL    HW220566   9.605   5.953   1.543
 3453SOL     OW20567   8.897   8.638   2.214
 3453SOL    HW120568   8.838   8.587   2.153
 3453SOL    HW220569   8.987   8.650   2.172
 3454SOL     OW20570   2.953   4.250   0.683
 3454SOL    HW120571   2.991   4.196   0.607
 3454SOL    HW220572   2.866   4.210   0.712
 3455SOL     OW20573   5.210   9.707   2.073
 3455SOL    HW120574   5.251   9.645   2.139
 3455SOL    HW220575   5.257   9.795   2.076
 3456SOL     OW20576   2.327   9.334   1.336
 3456SOL    HW120577   2.424   9.306   1.331
 3456SOL    HW220578   2.311   9.382   1.422
 3457SOL     OW20579   4.455   0.322   2.468
 3457SOL    HW120580   4.424   0.367   2.552
 3457SOL    HW220581   4.409   0.234   2.458
 3458SOL     OW20582   1.291   8.615   1.477
 3458SOL    HW120583   1.250   8.706   1.472
 3458SOL    HW220584   1.389   8.623   1.492
 3459SOL     OW20585   8.220   1.559   2.051
 3459SOL    HW120586   8.128   1.521   2.039
 3459SOL    HW220587   8.251   1.601   1.965
 3460SOL     OW20588   8.130   7.098   2.080
 3460SOL    HW120589   8.051   7.058   2.126
 3460SOL    HW220590   8.186   7.025   2.040
 3461SOL     OW20591   0.429   7.619   2.574
 3461SOL    HW120592   0.402   7.713   2.556
 3461SOL    HW220593   0.517   7.601   2.531
 3462SOL     OW20594   3.824   1.798   1.885
 3462SOL    HW120595   3.810   1.701   1.867
 3462SOL    HW220596   3.866   1.840   1.804
 3463SOL     OW20597   9.823   8.447   1.911
 3463SOL    HW120598   9.803   8.393   1.830
 3463SOL    HW220599   9.868   8.532   1.884
 3464SOL     OW20600   4.380   1.616   1.125
 3464SOL    HW120601   4.298   1.568   1.157
 3464SOL    HW220602   4.411   1.576   1.039
 3465SOL     OW20603   7.368   0.644   0.668
 3465SOL    HW120604   7.427   0.565   0.676
 3465SOL    HW220605   7.284   0.619   0.619
 3466SOL     OW20606   7.859   9.165   1.143
 3466SOL    HW120607   7.954   9.189   1.122
 3466SOL    HW220608   7.841   9.182   1.240
 3467SOL     OW20609   9.609   1.194   0.288
 3467SOL    HW120610   9.630   1.213   0.384
 3467SOL    HW220611   9.573   1.101   0.280
 3468SOL     OW20612   3.611   4.011   1.748
 3468SOL    HW120613   3.533   4.016   1.810
 3468SOL    HW220614   3.646   3.917   1.746
 3469SOL     OW20615   3.286   3.090   0.385
 3469SOL    HW120616   3.380   3.059   0.372
 3469SOL    HW220617   3.263   3.085   0.482
 3470SOL     OW20618   8.895   5.243   0.322
 3470SOL    HW120619   8.972   5.223   0.261
 3470SOL    HW220620   8.898   5.340   0.348
 3471SOL     OW20621   3.196   9.855   0.890
 3471SOL    HW120622   3.172   9.879   0.796
 3471SOL    HW220623   3.126   9.795   0.928
 3472SOL     OW20624   1.388   4.102   2.362
 3472SOL    HW120625   1.319   4.172   2.380
 3472SOL    HW220626   1.372   4.023   2.422
 3473SOL     OW20627   3.588   9.614   2.182
 3473SOL    HW120628   3.681   9.643   2.160
 3473SOL    HW220629   3.529   9.628   2.103
 3474SOL     OW20630   9.912   1.696   1.354
 3474SOL    HW120631   9.895   1.732   1.446
 3474SOL    HW220632   9.962   1.610   1.360
 3475SOL     OW20633   9.304   7.992   1.376
 3475SOL    HW120634   9.213   8.024   1.402
 3475SOL    HW220635   9.309   7.893   1.389
 3476SOL     OW20636   1.832   9.653   0.663
 3476SOL    HW120637   1.866   9.687   0.575
 3476SOL    HW220638   1.856   9.717   0.736
 3477SOL     OW20639   8.944   6.394   2.003
 3477SOL    HW120640   8.978   6.324   1.939
 3477SOL    HW220641   8.960   6.365   2.097
 3478SOL     OW20642   7.735   1.565   1.591
 3478SOL    HW120643   7.777   1.621   1.662
 3478SOL    HW220644   7.663   1.509   1.630
 3479SOL     OW20645   3.827   5.775   2.253
 3479SOL    HW120646   3.919   5.750   2.283
 3479SOL    HW220647   3.766   5.697   2.267
 3480SOL     OW20648   0.186   8.477   2.271
 3480SOL    HW120649   0.237   8.557   2.302
 3480SOL    HW220650   0.242   8.424   2.208
 3481SOL     OW20651   8.575   1.682   1.997
 3481SOL    HW120652   8.521   1.600   2.016
 3481SOL    HW220653   8.671   1.658   1.989
 3482SOL     OW20654   3.086   9.063   1.029
 3482SOL    HW120655   3.022   9.083   1.103
 3482SOL    HW220656   3.076   9.131   0.957
 3483SOL     OW20657   7.522   9.667   1.268
 3483SOL    HW120658   7.432   9.639   1.301
 3483SOL    HW220659   7.529   9.767   1.270
 3484SOL     OW20660   0.955   3.179   2.116
 3484SOL    HW120661   0.958   3.218   2.023
 3484SOL    HW220662   0.955   3.079   2.110
 3485SOL     OW20663   2.291   9.156   0.827
 3485SOL    HW120664   2.298   9.058   0.846
 3485SOL    HW220665   2.195   9.185   0.834
 3486SOL     OW20666   4.330   1.192   0.478
 3486SOL    HW120667   4.302   1.139   0.398
 3486SOL    HW220668   4.391   1.136   0.535
 3487SOL     OW20669   0.983   6.205   1.284
 3487SOL    HW120670   1.070   6.237   1.324
 3487SOL    HW220671   1.002   6.147   1.205
 3488SOL     OW20672   1.684   2.467   2.112
 3488SOL    HW120673   1.741   2.543   2.082
 3488SOL    HW220674   1.739   2.383   2.112
 3489SOL     OW20675   8.878   0.967   1.677
 3489SOL    HW120676   8.861   1.026   1.756
 3489SOL    HW220677   8.964   0.992   1.634
 3490SOL     OW20678   3.102   5.008   0.736
 3490SOL    HW120679   3.017   4.960   0.711
 3490SOL    HW220680   3.155   5.026   0.654
 3491SOL     OW20681   0.044   6.462   1.247
 3491SOL    HW120682   0.063   6.513   1.331
 3491SOL    HW220683   9.950   6.427   1.250
 3492SOL     OW20684   9.079   9.639   0.063
 3492SOL    HW120685   9.099   9.715   0.126
 3492SOL    HW220686   9.163   9.589   0.044
 3493SOL     OW20687   9.225   1.164   0.595
 3493SOL    HW120688   9.315   1.177   0.637
 3493SOL    HW220689   9.156   1.154   0.666
 3494SOL     OW20690   1.577   0.709   1.151
 3494SOL    HW120691   1.611   0.780   1.213
 3494SOL    HW220692   1.526   0.751   1.076
 3495SOL     OW20693   4.767   8.977   0.463
 3495SOL    HW120694   4.834   8.929   0.406
 3495SOL    HW220695   4.742   8.919   0.540
 3496SOL     OW20696   1.120   0.575   0.918
 3496SOL    HW120697   1.156   0.626   0.841
 3496SOL    HW220698   1.108   0.635   0.997
 3497SOL     OW20699   0.177   4.927   0.127
 3497SOL    HW120700   0.153   4.830   0.132
 3497SOL    HW220701   0.229   4.953   0.209
 3498SOL     OW20702   9.932   3.613   1.864
 3498SOL    HW120703   9.883   3.700   1.856
 3498SOL    HW220704   9.922   3.578   1.957
 3499SOL     OW20705   1.678   5.245   1.076
 3499SOL    HW120706   1.590   5.257   1.122
 3499SOL    HW220707   1.680   5.297   0.992
 3500SOL     OW20708   9.090   2.372   0.547
 3500SOL    HW120709   9.008   2.390   0.494
 3500SOL    HW220710   9.071   2.301   0.615
 3501SOL     OW20711   8.487   2.539   1.359
 3501SOL    HW120712   8.395   2.545   1.398
 3501SOL    HW220713   8.497   2.605   1.285
 3502SOL     OW20714   3.161   3.154   1.763
 3502SOL    HW120715   3.199   3.225   1.704
 3502SOL    HW220716   3.061   3.151   1.751
 3503SOL     OW20717   1.430   0.856   2.046
 3503SOL    HW120718   1.441   0.921   1.972
 3503SOL    HW220719   1.347   0.878   2.098
 3504SOL     OW20720   2.556   0.409   1.033
 3504SOL    HW120721   2.640   0.456   1.008
 3504SOL    HW220722   2.478   0.470   1.019
 3505SOL     OW20723   9.691   6.803   2.181
 3505SOL    HW120724   9.655   6.897   2.187
 3505SOL    HW220725   9.636   6.752   2.114
 3506SOL     OW20726   0.149   1.747   1.641
 3506SOL    HW120727   0.198   1.785   1.562
 3506SOL    HW220728   0.050   1.752   1.623
 3507SOL     OW20729   0.954   3.278   1.863
 3507SOL    HW120730   0.932   3.232   1.777
 3507SOL    HW220731   1.037   3.333   1.851
 3508SOL     OW20732   9.188   6.410   1.730
 3508SOL    HW120733   9.125   6.342   1.767
 3508SOL    HW220734   9.186   6.407   1.630
 3509SOL     OW20735   2.035   8.038   2.685
 3509SOL    HW120736   1.948   7.992   2.700
 3509SOL    HW220737   2.109   7.970   2.683
 3510SOL     OW20738   2.966   1.631   0.742
 3510SOL    HW120739   2.913   1.668   0.819
 3510SOL    HW220740   2.925   1.661   0.656
 3511SOL     OW20741   9.461   8.855   2.415
 3511SOL    HW120742   9.402   8.932   2.440
 3511SOL    HW220743   9.535   8.887   2.356
 3512SOL     OW20744   9.846   2.303   2.197
 3512SOL    HW120745   9.868   2.313   2.294
 3512SOL    HW220746   9.827   2.207   2.176
 3513SOL     OW20747   9.468   8.008   0.506
 3513SOL    HW120748   9.523   7.929   0.482
 3513SOL    HW220749   9.371   7.986   0.496
 3514SOL     OW20750   9.318   5.576   1.592
 3514SOL    HW120751   9.222   5.573   1.565
 3514SOL    HW220752   9.328   5.632   1.675
 3515SOL     OW20753   6.113   9.433   2.629
 3515SOL    HW120754   6.159   9.348   2.654
 3515SOL    HW220755   6.169   9.511   2.656
 3516SOL     OW20756   3.847   9.699   2.138
 3516SOL    HW120757   3.917   9.713   2.067
 3516SOL    HW220758   3.878   9.629   2.202
 3517SOL     OW20759   4.500   4.006   0.185
 3517SOL    HW120760   4.474   4.083   0.243
 3517SOL    HW220761   4.432   3.934   0.193
 3518SOL     OW20762   9.036   7.379   1.709
 3518SOL    HW120763   9.040   7.385   1.809
 3518SOL    HW220764   9.072   7.463   1.669
 3519SOL     OW20765   9.066   0.330   0.214
 3519SOL    HW120766   8.970   0.345   0.192
 3519SOL    HW220767   9.078   0.236   0.247
 3520SOL     OW20768   3.679   0.791   0.701
 3520SOL    HW120769   3.733   0.717   0.741
 3520SOL    HW220770   3.621   0.831   0.772
 3521SOL     OW20771   3.570   8.161   0.855
 3521SOL    HW120772   3.541   8.082   0.800
 3521SOL    HW220773   3.500   8.232   0.851
 3522SOL     OW20774   3.124   6.857   0.804
 3522SOL    HW120775   3.083   6.913   0.732
 3522SOL    HW220776   3.071   6.773   0.815
 3523SOL     OW20777   8.064   3.179   1.062
 3523SOL    HW120778   8.075   3.082   1.083
 3523SOL    HW220779   8.049   3.230   1.148
 3524SOL     OW20780   8.528   2.013   0.339
 3524SOL    HW120781   8.483   1.995   0.252
 3524SOL    HW220782   8.517   1.934   0.399
 3525SOL     OW20783   1.180   7.908   0.338
 3525SOL    HW120784   1.173   7.845   0.416
 3525SOL    HW220785   1.090   7.941   0.313
 3526SOL     OW20786   2.051   9.300   0.801
 3526SOL    HW120787   2.111   9.379   0.787
 3526SOL    HW220788   1.971   9.308   0.741
 3527SOL     OW20789   3.444   3.315   2.282
 3527SOL    HW120790   3.502   3.324   2.201
 3527SOL    HW220791   3.385   3.235   2.273
 3528SOL     OW20792   1.900   4.778   0.573
 3528SOL    HW120793   1.966   4.839   0.617
 3528SOL    HW220794   1.948   4.698   0.536
 3529SOL     OW20795   7.888   9.422   2.444
 3529SOL    HW120796   7.809   9.483   2.451
 3529SOL    HW220797   7.888   9.360   2.523
 3530SOL     OW20798   3.757   1.451   1.052
 3530SOL    HW120799   3.778   1.422   1.145
 3530SOL    HW220800   3.809   1.394   0.988
 3531SOL     OW20801   2.271   0.546   2.631
 3531SOL    HW120802   2.357   0.593   2.610
 3531SOL    HW220803   2.227   0.590   2.709
 3532SOL     OW20804   8.752   9.581   0.567
 3532SOL    HW120805   8.696   9.501   0.587
 3532SOL    HW220806   8.831   9.583   0.629
 3533SOL     OW20807   9.350   4.381   1.521
 3533SOL    HW120808   9.269   4.336   1.483
 3533SOL    HW220809   9.399   4.429   1.448
 3534SOL     OW20810   3.158   9.427   1.314
 3534SOL    HW120811   3.184   9.410   1.219
 3534SOL    HW220812   3.059   9.415   1.325
 3535SOL     OW20813   8.210   0.260   1.332
 3535SOL    HW120814   8.209   0.303   1.241
 3535SOL    HW220815   8.294   0.207   1.342
 3536SOL     OW20816   3.838   3.995   1.477
 3536SOL    HW120817   3.810   4.089   1.458
 3536SOL    HW220818   3.790   3.933   1.415
 3537SOL     OW20819   8.541   0.204   2.501
 3537SOL    HW120820   8.478   0.133   2.536
 3537SOL    HW220821   8.489   0.285   2.475
 3538SOL     OW20822   1.492   1.605   1.655
 3538SOL    HW120823   1.451   1.534   1.597
 3538SOL    HW220824   1.481   1.579   1.751
 3539SOL     OW20825   0.168   0.033   0.974
 3539SOL    HW120826   0.148   0.044   0.877
 3539SOL    HW220827   0.265   0.013   0.986
 3540SOL     OW20828   1.794   6.118   0.054
 3540SOL    HW120829   1.855   6.043   0.079
 3540SOL    HW220830   1.816   6.150   3.399
 3541SOL     OW20831   2.098   4.927   0.375
 3541SOL    HW120832   2.112   4.937   0.474
 3541SOL    HW220833   2.141   4.842   0.344
 3542SOL     OW20834   0.494   1.882   0.769
 3542SOL    HW120835   0.481   1.880   0.670
 3542SOL    HW220836   0.464   1.971   0.804
 3543SOL     OW20837   1.623   9.335   0.274
 3543SOL    HW120838   1.641   9.274   0.197
 3543SOL    HW220839   1.606   9.428   0.240
 3544SOL     OW20840   8.663   8.843   1.785
 3544SOL    HW120841   8.631   8.788   1.861
 3544SOL    HW220842   8.693   8.933   1.819
 3545SOL     OW20843   8.180   0.894   2.130
 3545SOL    HW120844   8.203   0.933   2.219
 3545SOL    HW220845   8.257   0.840   2.097
 3546SOL     OW20846   2.721   4.138   0.774
 3546SOL    HW120847   2.749   4.042   0.782
 3546SOL    HW220848   2.637   4.145   0.720
 3547SOL     OW20849   4.947   0.947   2.232
 3547SOL    HW120850   5.015   0.917   2.165
 3547SOL    HW220851   4.863   0.894   2.219
 3548SOL     OW20852   9.425   1.233   2.201
 3548SOL    HW120853   9.461   1.294   2.129
 3548SOL    HW220854   9.325   1.237   2.200
 3549SOL     OW20855   3.270   9.947   1.904
 3549SOL    HW120856   3.268   9.859   1.953
 3549SOL    HW220857   3.190   9.954   1.844
 3550SOL     OW20858   1.158   7.279   1.347
 3550SOL    HW120859   1.155   7.218   1.268
 3550SOL    HW220860   1.250   7.281   1.384
 3551SOL     OW20861   9.149   2.027   0.237
 3551SOL    HW120862   9.126   1.932   0.216
 3551SOL    HW220863   9.065   2.079   0.252
 3552SOL     OW20864   2.477   7.288   1.907
 3552SOL    HW120865   2.421   7.255   1.983
 3552SOL    HW220866   2.443   7.250   1.821
 3553SOL     OW20867   3.847   0.230   1.753
 3553SOL    HW120868   3.809   0.157   1.809
 3553SOL    HW220869   3.812   0.222   1.660
 3554SOL     OW20870   8.624   5.342   0.873
 3554SOL    HW120871   8.625   5.298   0.963
 3554SOL    HW220872   8.698   5.410   0.868
 3555SOL     OW20873   2.076   6.638   0.619
 3555SOL    HW120874   2.120   6.550   0.636
 3555SOL    HW220875   2.030   6.669   0.702
 3556SOL     OW20876   2.763   6.167   1.444
 3556SOL    HW120877   2.858   6.166   1.474
 3556SOL    HW220878   2.756   6.131   1.351
 3557SOL     OW20879   2.876   3.486   0.792
 3557SOL    HW120880   2.909   3.562   0.847
 3557SOL    HW220881   2.777   3.478   0.803
 3558SOL     OW20882   1.626   3.799   2.515
 3558SOL    HW120883   1.677   3.872   2.561
 3558SOL    HW220884   1.688   3.743   2.461
 3559SOL     OW20885   9.515   8.267   0.581
 3559SOL    HW120886   9.496   8.174   0.550
 3559SOL    HW220887   9.444   8.296   0.645
 3560SOL     OW20888   8.026   2.513   0.881
 3560SOL    HW120889   7.962   2.564   0.939
 3560SOL    HW220890   8.047   2.567   0.800
 3561SOL     OW20891   9.455   0.144   0.899
 3561SOL    HW120892   9.535   0.129   0.842
 3561SOL    HW220893   9.480   0.138   0.996
 3562SOL     OW20894   3.188   2.995   1.056
 3562SOL    HW120895   3.108   2.962   1.006
 3562SOL    HW220896   3.227   3.074   1.010
 3563SOL     OW20897   1.966   2.279   0.708
 3563SOL    HW120898   1.873   2.244   0.696
 3563SOL    HW220899   1.976   2.316   0.800
 3564SOL     OW20900   3.289   1.935   2.659
 3564SOL    HW120901   3.381   1.954   2.625
 3564SOL    HW220902   3.229   2.012   2.638
 3565SOL     OW20903   0.603   7.720   1.961
 3565SOL    HW120904   0.673   7.648   1.964
 3565SOL    HW220905   0.627   7.793   2.024
 3566SOL     OW20906   9.852   2.932   2.086
 3566SOL    HW120907   9.771   2.949   2.030
 3566SOL    HW220908   9.919   3.004   2.070
 3567SOL     OW20909   4.400   0.430   1.038
 3567SOL    HW120910   4.494   0.420   1.070
 3567SOL    HW220911   4.359   0.512   1.079
 3568SOL     OW20912   2.204   8.694   2.600
 3568SOL    HW120913   2.165   8.785   2.606
 3568SOL    HW220914   2.132   8.626   2.610
 3569SOL     OW20915   8.110   3.084   0.372
 3569SOL    HW120916   8.146   3.005   0.322
 3569SOL    HW220917   8.173   3.108   0.445
 3570SOL     OW20918   2.399   1.897   2.223
 3570SOL    HW120919   2.438   1.988   2.206
 3570SOL    HW220920   2.386   1.850   2.136
 3571SOL     OW20921   4.229   9.839   0.189
 3571SOL    HW120922   4.303   9.840   0.122
 3571SOL    HW220923   4.149   9.885   0.150
 3572SOL     OW20924   3.224   9.328   1.061
 3572SOL    HW120925   3.242   9.236   1.095
 3572SOL    HW220926   3.183   9.323   0.970
 3573SOL     OW20927   7.698   8.999   0.985
 3573SOL    HW120928   7.758   9.040   1.054
 3573SOL    HW220929   7.734   9.018   0.894
 3574SOL     OW20930   8.530   6.491   1.468
 3574SOL    HW120931   8.475   6.478   1.386
 3574SOL    HW220932   8.605   6.554   1.448
 3575SOL     OW20933   6.073   9.524   2.371
 3575SOL    HW120934   6.148   9.584   2.343
 3575SOL    HW220935   6.082   9.503   2.469
 3576SOL     OW20936   0.459   1.936   0.492
 3576SOL    HW120937   0.394   2.012   0.492
 3576SOL    HW220938   0.541   1.961   0.440
 3577SOL     OW20939   8.580   3.873   2.579
 3577SOL    HW120940   8.537   3.914   2.659
 3577SOL    HW220941   8.679   3.878   2.588
 3578SOL     OW20942   8.532   3.929   0.295
 3578SOL    HW120943   8.555   3.866   0.369
 3578SOL    HW220944   8.433   3.929   0.281
 3579SOL     OW20945   4.665   8.839   0.672
 3579SOL    HW120946   4.697   8.819   0.765
 3579SOL    HW220947   4.565   8.847   0.673
 3580SOL     OW20948   3.312   3.434   1.085
 3580SOL    HW120949   3.257   3.427   1.168
 3580SOL    HW220950   3.301   3.526   1.046
 3581SOL     OW20951   7.799   0.482   1.050
 3581SOL    HW120952   7.864   0.440   0.987
 3581SOL    HW220953   7.819   0.452   1.143
 3582SOL     OW20954   5.018   8.748   2.302
 3582SOL    HW120955   4.950   8.777   2.234
 3582SOL    HW220956   5.094   8.703   2.257
 3583SOL     OW20957   4.209   5.027   0.507
 3583SOL    HW120958   4.208   5.060   0.602
 3583SOL    HW220959   4.217   4.927   0.507
 3584SOL     OW20960   1.429   7.588   1.849
 3584SOL    HW120961   1.486   7.569   1.770
 3584SOL    HW220962   1.335   7.560   1.829
 3585SOL     OW20963   1.265   3.537   1.738
 3585SOL    HW120964   1.259   3.439   1.757
 3585SOL    HW220965   1.263   3.587   1.825
 3586SOL     OW20966   1.233   1.893   0.626
 3586SOL    HW120967   1.161   1.854   0.683
 3586SOL    HW220968   1.238   1.991   0.641
 3587SOL     OW20969   9.451   0.898   2.104
 3587SOL    HW120970   9.542   0.892   2.146
 3587SOL    HW220971   9.382   0.882   2.174
 3588SOL     OW20972   8.278   0.099   2.062
 3588SOL    HW120973   8.325   0.100   1.974
 3588SOL    HW220974   8.186   0.061   2.050
 3589SOL     OW20975   8.348   2.315   1.790
 3589SOL    HW120976   8.432   2.301   1.737
 3589SOL    HW220977   8.371   2.351   1.880
 3590SOL     OW20978   0.256   9.980   2.538
 3590SOL    HW120979   0.189   9.936   2.478
 3590SOL    HW220980   0.253   9.938   2.629
 3591SOL     OW20981   0.448   9.654   1.642
 3591SOL    HW120982   0.493   9.703   1.568
 3591SOL    HW220983   0.477   9.692   1.730
 3592SOL     OW20984   1.823   9.674   2.151
 3592SOL    HW120985   1.735   9.668   2.198
 3592SOL    HW220986   1.823   9.753   2.091
 3593SOL     OW20987   0.805   4.413   1.264
 3593SOL    HW120988   0.828   4.390   1.169
 3593SOL    HW220989   0.736   4.350   1.298
 3594SOL     OW20990   0.332   1.788   1.219
 3594SOL    HW120991   0.340   1.745   1.128
 3594SOL    HW220992   0.396   1.864   1.226
 3595SOL     OW20993   1.265   6.848   1.178
 3595SOL    HW120994   1.303   6.811   1.263
 3595SOL    HW220995   1.179   6.801   1.157
 3596SOL     OW20996   3.128   7.025   1.904
 3596SOL    HW120997   3.111   7.117   1.938
 3596SOL    HW220998   3.073   6.959   1.956
 3597SOL     OW20999   4.010   2.808   2.272
 3597SOL    HW121000   3.992   2.834   2.367
 3597SOL    HW221001   3.972   2.878   2.211
 3598SOL     OW21002   8.888   7.759   0.312
 3598SOL    HW121003   8.853   7.665   0.310
 3598SOL    HW221004   8.956   7.768   0.385
 3599SOL     OW21005   8.647   2.724   0.897
 3599SOL    HW121006   8.693   2.807   0.926
 3599SOL    HW221007   8.704   2.677   0.828
 3600SOL     OW21008   8.809   2.594   0.709
 3600SOL    HW121009   8.798   2.511   0.655
 3600SOL    HW221010   8.859   2.662   0.656
 3601SOL     OW21011   1.788   6.962   0.444
 3601SOL    HW121012   1.689   6.976   0.446
 3601SOL    HW221013   1.808   6.864   0.451
 3602SOL     OW21014   4.294   4.760   1.976
 3602SOL    HW121015   4.203   4.730   2.006
 3602SOL    HW221016   4.284   4.836   1.912
 3603SOL     OW21017   2.615   8.897   1.735
 3603SOL    HW121018   2.687   8.846   1.687
 3603SOL    HW221019   2.531   8.843   1.737
 3604SOL     OW21020   2.202   3.778   2.524
 3604SOL    HW121021   2.113   3.757   2.565
 3604SOL    HW221022   2.188   3.826   2.438
 3605SOL     OW21023   0.438   3.935   1.940
 3605SOL    HW121024   0.404   3.957   1.849
 3605SOL    HW221025   0.538   3.931   1.938
 3606SOL     OW21026   3.659   9.553   0.115
 3606SOL    HW121027   3.705   9.479   0.165
 3606SOL    HW221028   3.566   9.525   0.092
 3607SOL     OW21029   8.581   6.024   1.316
 3607SOL    HW121030   8.662   6.049   1.369
 3607SOL    HW221031   8.532   6.107   1.287
 3608SOL     OW21032   8.767   0.801   2.010
 3608SOL    HW121033   8.712   0.812   1.927
 3608SOL    HW221034   8.758   0.707   2.043
 3609SOL     OW21035   7.894   4.151   0.325
 3609SOL    HW121036   7.804   4.185   0.299
 3609SOL    HW221037   7.957   4.164   0.248
 3610SOL     OW21038   3.281   5.430   1.819
 3610SOL    HW121039   3.376   5.460   1.826
 3610SOL    HW221040   3.270   5.375   1.737
 3611SOL     OW21041   9.462   0.144   1.179
 3611SOL    HW121042   9.501   0.233   1.153
 3611SOL    HW221043   9.448   0.142   1.278
 3612SOL     OW21044   4.287   9.455   0.943
 3612SOL    HW121045   4.200   9.453   0.992
 3612SOL    HW221046   4.359   9.487   1.005
 3613SOL     OW21047   9.793   0.506   1.172
 3613SOL    HW121048   9.863   0.435   1.183
 3613SOL    HW221049   9.836   0.590   1.139
 3614SOL     OW21050   2.187   8.314   2.351
 3614SOL    HW121051   2.113   8.296   2.416
 3614SOL    HW221052   2.270   8.339   2.402
 3615SOL     OW21053   7.860   9.919   0.994
 3615SOL    HW121054   7.959   9.924   1.006
 3615SOL    HW221055   7.826   9.833   1.030
 3616SOL     OW21056   1.757   3.222   1.173
 3616SOL    HW121057   1.804   3.208   1.260
 3616SOL    HW221058   1.665   3.259   1.190
 3617SOL     OW21059   9.178   8.787   0.164
 3617SOL    HW121060   9.258   8.734   0.138
 3617SOL    HW221061   9.110   8.726   0.206
 3618SOL     OW21062   2.429   0.943   1.585
 3618SOL    HW121063   2.462   0.848   1.584
 3618SOL    HW221064   2.368   0.956   1.663
 3619SOL     OW21065   0.023   5.228   2.100
 3619SOL    HW121066   0.107   5.199   2.054
 3619SOL    HW221067   9.997   5.159   2.168
 3620SOL     OW21068   0.130   6.951   1.967
 3620SOL    HW121069   0.156   7.028   1.908
 3620SOL    HW221070   0.090   6.987   2.052
 3621SOL     OW21071   8.481   1.028   1.979
 3621SOL    HW121072   8.569   1.047   2.022
 3621SOL    HW221073   8.456   0.933   1.996
 3622SOL     OW21074   2.369   1.570   1.145
 3622SOL    HW121075   2.320   1.647   1.104
 3622SOL    HW221076   2.376   1.583   1.244
 3623SOL     OW21077   4.433   5.129   2.017
 3623SOL    HW121078   4.417   5.223   1.987
 3623SOL    HW221079   4.422   5.067   1.940
 3624SOL     OW21080   8.507   9.097   1.649
 3624SOL    HW121081   8.465   9.008   1.627
 3624SOL    HW221082   8.606   9.092   1.633
 3625SOL     OW21083   1.788   4.249   2.602
 3625SOL    HW121084   1.733   4.233   2.519
 3625SOL    HW221085   1.876   4.288   2.576
 3626SOL     OW21086   3.976   4.097   0.173
 3626SOL    HW121087   4.045   4.075   0.243
 3626SOL    HW221088   3.960   4.016   0.116
 3627SOL     OW21089   3.899   8.880   2.350
 3627SOL    HW121090   3.947   8.951   2.298
 3627SOL    HW221091   3.822   8.921   2.398
 3628SOL     OW21092   9.418   7.476   2.435
 3628SOL    HW121093   9.424   7.521   2.524
 3628SOL    HW221094   9.363   7.394   2.443
 3629SOL     OW21095   1.831   3.403   0.980
 3629SOL    HW121096   1.813   3.334   1.050
 3629SOL    HW221097   1.783   3.487   1.002
 3630SOL     OW21098   1.655   1.937   3.412
 3630SOL    HW121099   1.642   2.035   3.427
 3630SOL    HW221100   1.742   1.909   0.014
 3631SOL     OW21101   9.615   6.495   1.594
 3631SOL    HW121102   9.690   6.534   1.648
 3631SOL    HW221103   9.637   6.400   1.571
 3632SOL     OW21104   8.566   7.287   2.438
 3632SOL    HW121105   8.501   7.216   2.412
 3632SOL    HW221106   8.648   7.279   2.382
 3633SOL     OW21107   0.484   9.876   2.193
 3633SOL    HW121108   0.501   9.904   2.288
 3633SOL    HW221109   0.558   9.910   2.135
 3634SOL     OW21110   4.047   9.746   1.949
 3634SOL    HW121111   4.041   9.782   1.856
 3634SOL    HW221112   4.139   9.710   1.964
 3635SOL     OW21113   9.387   7.580   1.133
 3635SOL    HW121114   9.372   7.518   1.210
 3635SOL    HW221115   9.448   7.654   1.161
 3636SOL     OW21116   1.594   0.041   1.421
 3636SOL    HW121117   1.579   0.025   1.323
 3636SOL    HW221118   1.508   0.026   1.471
 3637SOL     OW21119   0.135   7.220   0.841
 3637SOL    HW121120   0.087   7.289   0.787
 3637SOL    HW221121   0.102   7.222   0.935
 3638SOL     OW21122   7.853   1.724   1.785
 3638SOL    HW121123   7.839   1.813   1.742
 3638SOL    HW221124   7.790   1.714   1.862
 3639SOL     OW21125   0.782   1.477   0.713
 3639SOL    HW121126   0.805   1.459   0.809
 3639SOL    HW221127   0.706   1.419   0.686
 3640SOL     OW21128   9.943   7.903   0.119
 3640SOL    HW121129   0.026   7.889   0.066
 3640SOL    HW221130   9.900   7.989   0.093
 3641SOL     OW21131   9.032   7.813   1.352
 3641SOL    HW121132   9.041   7.877   1.276
 3641SOL    HW221133   8.961   7.746   1.331
 3642SOL     OW21134   1.754   0.249   2.201
 3642SOL    HW121135   1.686   0.295   2.258
 3642SOL    HW221136   1.833   0.225   2.257
 3643SOL     OW21137   6.189   0.322   2.634
 3643SOL    HW121138   6.158   0.231   2.661
 3643SOL    HW221139   6.268   0.348   2.689
 3644SOL     OW21140   1.435   2.340   1.738
 3644SOL    HW121141   1.504   2.410   1.753
 3644SOL    HW221142   1.344   2.379   1.754
 3645SOL     OW21143   3.753   9.196   1.078
 3645SOL    HW121144   3.846   9.166   1.058
 3645SOL    HW221145   3.752   9.245   1.165
 3646SOL     OW21146   2.236   2.440   2.040
 3646SOL    HW121147   2.223   2.442   1.940
 3646SOL    HW221148   2.175   2.506   2.083
 3647SOL     OW21149   3.039   1.049   2.469
 3647SOL    HW121150   3.050   0.994   2.386
 3647SOL    HW221151   2.988   0.997   2.538
 3648SOL     OW21152   0.812   8.746   2.441
 3648SOL    HW121153   0.903   8.725   2.479
 3648SOL    HW221154   0.742   8.720   2.507
 3649SOL     OW21155   1.443   5.973   0.149
 3649SOL    HW121156   1.520   5.957   0.211
 3649SOL    HW221157   1.473   5.958   0.054
 3650SOL     OW21158   2.253   0.862   1.381
 3650SOL    HW121159   2.311   0.884   1.460
 3650SOL    HW221160   2.228   0.765   1.384
 3651SOL     OW21161   4.329   3.701   1.197
 3651SOL    HW121162   4.257   3.637   1.225
 3651SOL    HW221163   4.413   3.651   1.178
 3652SOL     OW21164   9.930   2.072   1.623
 3652SOL    HW121165   0.014   2.095   1.575
 3652SOL    HW221166   9.856   2.133   1.593
 3653SOL     OW21167   2.244   2.603   1.048
 3653SOL    HW121168   2.329   2.585   0.997
 3653SOL    HW221169   2.266   2.621   1.144
 3654SOL     OW21170   1.417   7.035   1.641
 3654SOL    HW121171   1.381   7.072   1.556
 3654SOL    HW221172   1.472   7.105   1.688
 3655SOL     OW21173   9.749   6.438   0.521
 3655SOL    HW121174   9.817   6.368   0.497
 3655SOL    HW221175   9.792   6.509   0.576
 3656SOL     OW21176   7.488   8.912   2.281
 3656SOL    HW121177   7.532   8.989   2.327
 3656SOL    HW221178   7.390   8.913   2.302
 3657SOL     OW21179   8.783   6.841   1.189
 3657SOL    HW121180   8.870   6.882   1.163
 3657SOL    HW221181   8.712   6.912   1.190
 3658SOL     OW21182   2.531   6.738   1.679
 3658SOL    HW121183   2.524   6.670   1.606
 3658SOL    HW221184   2.576   6.820   1.644
 3659SOL     OW21185   1.966   7.386   1.784
 3659SOL    HW121186   1.978   7.407   1.687
 3659SOL    HW221187   1.979   7.469   1.837
 3660SOL     OW21188   9.318   4.577   1.714
 3660SOL    HW121189   9.330   4.504   1.646
 3660SOL    HW221190   9.271   4.655   1.672
 3661SOL     OW21191   1.557   8.622   0.051
 3661SOL    HW121192   1.630   8.617   0.119
 3661SOL    HW221193   1.551   8.534   0.003
 3662SOL     OW21194   0.660   1.882   2.302
 3662SOL    HW121195   0.731   1.915   2.239
 3662SOL    HW221196   0.613   1.960   2.343
 3663SOL     OW21197   8.915   8.882   0.938
 3663SOL    HW121198   9.001   8.850   0.901
 3663SOL    HW221199   8.855   8.911   0.863
 3664SOL     OW21200   9.269   2.948   1.822
 3664SOL    HW121201   9.175   2.916   1.839
 3664SOL    HW221202   9.279   2.968   1.724
 3665SOL     OW21203   3.396   6.367   0.424
 3665SOL    HW121204   3.477   6.343   0.370
 3665SOL    HW221205   3.414   6.348   0.521
 3666SOL     OW21206   0.746   6.199   0.902
 3666SOL    HW121207   0.719   6.279   0.957
 3666SOL    HW221208   0.755   6.120   0.962
 3667SOL     OW21209   9.673   2.676   1.453
 3667SOL    HW121210   9.708   2.682   1.546
 3667SOL    HW221211   9.628   2.587   1.440
 3668SOL     OW21212   9.436   8.372   0.180
 3668SOL    HW121213   9.462   8.281   0.148
 3668SOL    HW221214   9.497   8.441   0.141
 3669SOL     OW21215   1.147   3.903   0.378
 3669SOL    HW121216   1.129   3.862   0.467
 3669SOL    HW221217   1.201   3.987   0.390
 3670SOL     OW21218   1.646   8.792   2.517
 3670SOL    HW121219   1.671   8.713   2.460
 3670SOL    HW221220   1.640   8.873   2.459
 3671SOL     OW21221   8.500   3.626   0.168
 3671SOL    HW121222   8.405   3.650   0.147
 3671SOL    HW221223   8.561   3.694   0.128
 3672SOL     OW21224   4.100   1.093   2.599
 3672SOL    HW121225   4.124   1.002   2.564
 3672SOL    HW221226   4.004   1.093   2.627
 3673SOL     OW21227   9.667   4.339   1.377
 3673SOL    HW121228   9.595   4.399   1.343
 3673SOL    HW221229   9.694   4.366   1.469
 3674SOL     OW21230   5.499   9.326   2.331
 3674SOL    HW121231   5.562   9.387   2.378
 3674SOL    HW221232   5.425   9.300   2.394
 3675SOL     OW21233   3.019   4.619   2.282
 3675SOL    HW121234   2.929   4.663   2.276
 3675SOL    HW221235   3.008   4.525   2.313
 3676SOL     OW21236   7.170   9.590   0.343
 3676SOL    HW121237   7.254   9.541   0.368
 3676SOL    HW221238   7.121   9.615   0.426
 3677SOL     OW21239   1.083   9.362   1.529
 3677SOL    HW121240   1.181   9.377   1.541
 3677SOL    HW221241   1.068   9.300   1.452
 3678SOL     OW21242   3.166   1.051   0.458
 3678SOL    HW121243   3.158   1.071   0.361
 3678SOL    HW221244   3.217   0.966   0.471
 3679SOL     OW21245   1.651   9.282   1.728
 3679SOL    HW121246   1.618   9.270   1.635
 3679SOL    HW221247   1.744   9.321   1.725
 3680SOL     OW21248   0.609   4.311   2.112
 3680SOL    HW121249   0.583   4.373   2.186
 3680SOL    HW221250   0.534   4.305   2.046
 3681SOL     OW21251   9.331   3.294   1.685
 3681SOL    HW121252   9.322   3.219   1.621
 3681SOL    HW221253   9.374   3.261   1.769
 3682SOL     OW21254   8.413   1.640   2.430
 3682SOL    HW121255   8.320   1.653   2.466
 3682SOL    HW221256   8.453   1.728   2.408
 3683SOL     OW21257   3.631   8.171   1.121
 3683SOL    HW121258   3.610   8.152   1.025
 3683SOL    HW221259   3.630   8.085   1.172
 3684SOL     OW21260   8.064   0.361   0.112
 3684SOL    HW121261   7.976   0.399   0.140
 3684SOL    HW221262   8.075   0.270   0.151
 3685SOL     OW21263   0.139   6.691   2.203
 3685SOL    HW121264   0.101   6.633   2.130
 3685SOL    HW221265   0.068   6.749   2.241
 3686SOL     OW21266   4.509   3.345   0.299
 3686SOL    HW121267   4.426   3.385   0.340
 3686SOL    HW221268   4.524   3.254   0.337
 3687SOL     OW21269   2.032   5.243   0.899
 3687SOL    HW121270   2.018   5.322   0.958
 3687SOL    HW221271   2.129   5.236   0.874
 3688SOL     OW21272   0.833   2.495   3.435
 3688SOL    HW121273   0.752   2.494   3.378
 3688SOL    HW221274   0.814   2.450   0.085
 3689SOL     OW21275   0.417   6.182   0.345
 3689SOL    HW121276   0.386   6.152   0.255
 3689SOL    HW221277   0.397   6.111   0.412
 3690SOL     OW21278   8.835   3.328   0.688
 3690SOL    HW121279   8.873   3.316   0.780
 3690SOL    HW221280   8.781   3.247   0.663
 3691SOL     OW21281   3.034   2.882   0.645
 3691SOL    HW121282   3.093   2.809   0.610
 3691SOL    HW221283   2.943   2.872   0.606
 3692SOL     OW21284   9.305   6.978   1.159
 3692SOL    HW121285   9.332   6.885   1.181
 3692SOL    HW221286   9.332   7.000   1.066
 3693SOL     OW21287   0.142   4.349   2.529
 3693SOL    HW121288   0.115   4.273   2.587
 3693SOL    HW221289   0.225   4.325   2.479
 3694SOL     OW21290   9.224   9.418   0.862
 3694SOL    HW121291   9.219   9.446   0.766
 3694SOL    HW221292   9.137   9.438   0.907
 3695SOL     OW21293   1.483   0.544   0.810
 3695SOL    HW121294   1.442   0.607   0.875
 3695SOL    HW221295   1.476   0.581   0.718
 3696SOL     OW21296   8.867   1.170   1.866
 3696SOL    HW121297   8.960   1.205   1.879
 3696SOL    HW221298   8.805   1.245   1.845
 3697SOL     OW21299   5.013   3.760   0.106
 3697SOL    HW121300   4.940   3.697   0.080
 3697SOL    HW221301   5.099   3.709   0.116
 3698SOL     OW21302   8.428   1.328   2.630
 3698SOL    HW121303   8.451   1.425   2.634
 3698SOL    HW221304   8.330   1.316   2.644
 3699SOL     OW21305   0.029   7.868   0.379
 3699SOL    HW121306   0.127   7.886   0.368
 3699SOL    HW221307   9.985   7.864   0.289
 3700SOL     OW21308   4.550   3.234   1.862
 3700SOL    HW121309   4.621   3.267   1.800
 3700SOL    HW221310   4.465   3.285   1.845
 3701SOL     OW21311   7.855   9.546   0.875
 3701SOL    HW121312   7.822   9.454   0.893
 3701SOL    HW221313   7.825   9.607   0.948
 3702SOL     OW21314   2.243   4.700   2.629
 3702SOL    HW121315   2.308   4.671   2.699
 3702SOL    HW221316   2.268   4.660   2.541
 3703SOL     OW21317   6.580   9.788   2.431
 3703SOL    HW121318   6.574   9.726   2.510
 3703SOL    HW221319   6.642   9.864   2.452
 3704SOL     OW21320   2.463   6.610   2.124
 3704SOL    HW121321   2.507   6.576   2.041
 3704SOL    HW221322   2.447   6.533   2.187
 3705SOL     OW21323   1.774   5.516   1.641
 3705SOL    HW121324   1.675   5.522   1.633
 3705SOL    HW221325   1.816   5.565   1.564
 3706SOL     OW21326   9.553   1.097   1.935
 3706SOL    HW121327   9.492   1.036   1.985
 3706SOL    HW221328   9.647   1.083   1.965
 3707SOL     OW21329   9.732   7.743   2.215
 3707SOL    HW121330   9.809   7.768   2.156
 3707SOL    HW221331   9.766   7.705   2.301
 3708SOL     OW21332   1.470   6.335   2.069
 3708SOL    HW121333   1.564   6.300   2.066
 3708SOL    HW221334   1.443   6.363   1.977
 3709SOL     OW21335   2.204   2.455   1.760
 3709SOL    HW121336   2.252   2.392   1.699
 3709SOL    HW221337   2.106   2.433   1.761
 3710SOL     OW21338   1.754   9.254   2.639
 3710SOL    HW121339   1.694   9.276   2.562
 3710SOL    HW221340   1.732   9.162   2.673
 3711SOL     OW21341   1.486   3.568   0.394
 3711SOL    HW121342   1.487   3.513   0.311
 3711SOL    HW221343   1.526   3.658   0.375
 3712SOL     OW21344   1.718   1.427   1.827
 3712SOL    HW121345   1.729   1.514   1.875
 3712SOL    HW221346   1.806   1.399   1.788
 3713SOL     OW21347   8.485   3.298   0.565
 3713SOL    HW121348   8.554   3.228   0.582
 3713SOL    HW221349   8.501   3.341   0.476
 3714SOL     OW21350   2.293   4.357   2.097
 3714SOL    HW121351   2.248   4.294   2.033
 3714SOL    HW221352   2.240   4.442   2.103
 3715SOL     OW21353   3.616   2.345   1.312
 3715SOL    HW121354   3.568   2.334   1.225
 3715SOL    HW221355   3.708   2.380   1.295
 3716SOL     OW21356   0.518   8.027   0.775
 3716SOL    HW121357   0.420   8.048   0.783
 3716SOL    HW221358   0.529   7.929   0.761
 3717SOL     OW21359   1.068   1.411   0.454
 3717SOL    HW121360   1.138   1.400   0.384
 3717SOL    HW221361   1.070   1.332   0.515
 3718SOL     OW21362   8.423   8.100   0.916
 3718SOL    HW121363   8.374   8.029   0.866
 3718SOL    HW221364   8.456   8.063   1.003
 3719SOL     OW21365   8.660   8.820   0.409
 3719SOL    HW121366   8.749   8.805   0.452
 3719SOL    HW221367   8.593   8.757   0.449
 3720SOL     OW21368   2.988   6.602   1.906
 3720SOL    HW121369   2.953   6.515   1.940
 3720SOL    HW221370   3.082   6.591   1.875
 3721SOL     OW21371   9.947   6.783   0.429
 3721SOL    HW121372   0.009   6.853   0.465
 3721SOL    HW221373   9.852   6.810   0.446
 3722SOL     OW21374   4.367   5.034   2.262
 3722SOL    HW121375   4.347   5.113   2.319
 3722SOL    HW221376   4.403   5.066   2.174
 3723SOL     OW21377   8.421   7.705   2.439
 3723SOL    HW121378   8.332   7.715   2.396
 3723SOL    HW221379   8.452   7.794   2.474
 3724SOL     OW21380   7.837   2.008   0.901
 3724SOL    HW121381   7.917   1.953   0.923
 3724SOL    HW221382   7.857   2.104   0.917
 3725SOL     OW21383   9.466   9.432   1.533
 3725SOL    HW121384   9.477   9.510   1.595
 3725SOL    HW221385   9.544   9.428   1.470
 3726SOL     OW21386   3.223   3.889   0.619
 3726SOL    HW121387   3.305   3.944   0.629
 3726SOL    HW221388   3.179   3.911   0.531
 3727SOL     OW21389   3.066   5.466   0.846
 3727SOL    HW121390   3.120   5.382   0.836
 3727SOL    HW221391   3.033   5.473   0.940
 3728SOL     OW21392   1.239   0.506   1.810
 3728SOL    HW121393   1.171   0.437   1.835
 3728SOL    HW221394   1.296   0.527   1.889
 3729SOL     OW21395   4.105   8.810   0.169
 3729SOL    HW121396   4.142   8.862   0.246
 3729SOL    HW221397   4.180   8.761   0.123
 3730SOL     OW21398   3.062   6.268   1.115
 3730SOL    HW121399   2.976   6.251   1.067
 3730SOL    HW221400   3.113   6.183   1.123
 3731SOL     OW21401   2.930   1.140   2.158
 3731SOL    HW121402   2.993   1.063   2.169
 3731SOL    HW221403   2.940   1.203   2.236
 3732SOL     OW21404   2.245   9.324   0.174
 3732SOL    HW121405   2.191   9.324   0.090
 3732SOL    HW221406   2.192   9.281   0.248
 3733SOL     OW21407   8.883   3.163   0.408
 3733SOL    HW121408   8.959   3.222   0.433
 3733SOL    HW221409   8.840   3.198   0.325
 3734SOL     OW21410   5.466   8.588   2.295
 3734SOL    HW121411   5.507   8.647   2.225
 3734SOL    HW221412   5.514   8.601   2.382
 3735SOL     OW21413   9.478   2.683   0.765
 3735SOL    HW121414   9.562   2.717   0.722
 3735SOL    HW221415   9.412   2.758   0.771
 3736SOL     OW21416   1.335   7.565   2.257
 3736SOL    HW121417   1.354   7.581   2.354
 3736SOL    HW221418   1.415   7.590   2.203
 3737SOL     OW21419   2.443   3.085   0.248
 3737SOL    HW121420   2.529   3.126   0.217
 3737SOL    HW221421   2.453   2.986   0.252
 3738SOL     OW21422   1.184   5.010   0.870
 3738SOL    HW121423   1.087   5.004   0.847
 3738SOL    HW221424   1.207   4.939   0.936
 3739SOL     OW21425   3.946   7.715   0.269
 3739SOL    HW121426   3.870   7.756   0.217
 3739SOL    HW221427   3.916   7.696   0.362
 3740SOL     OW21428   2.751   8.894   1.291
 3740SOL    HW121429   2.746   8.815   1.229
 3740SOL    HW221430   2.696   8.875   1.373
 3741SOL     OW21431   1.317   7.250   2.580
 3741SOL    HW121432   1.228   7.292   2.565
 3741SOL    HW221433   1.304   7.152   2.598
 3742SOL     OW21434   3.815   1.294   1.962
 3742SOL    HW121435   3.750   1.290   2.038
 3742SOL    HW221436   3.899   1.247   1.988
 3743SOL     OW21437   9.763   6.168   1.984
 3743SOL    HW121438   9.683   6.224   2.005
 3743SOL    HW221439   9.736   6.072   1.975
 3744SOL     OW21440   3.502   0.881   0.909
 3744SOL    HW121441   3.478   0.787   0.934
 3744SOL    HW221442   3.485   0.942   0.986
 3745SOL     OW21443   0.626   4.934   2.387
 3745SOL    HW121444   0.690   4.864   2.417
 3745SOL    HW221445   0.668   5.025   2.397
 3746SOL     OW21446   3.280   0.866   0.745
 3746SOL    HW121447   3.211   0.924   0.789
 3746SOL    HW221448   3.368   0.877   0.791
 3747SOL     OW21449   2.194   0.589   1.382
 3747SOL    HW121450   2.285   0.554   1.364
 3747SOL    HW221451   2.149   0.533   1.452
 3748SOL     OW21452   4.313   7.647   0.531
 3748SOL    HW121453   4.328   7.620   0.626
 3748SOL    HW221454   4.260   7.731   0.528
 3749SOL     OW21455   8.976   1.905   0.719
 3749SOL    HW121456   9.050   1.851   0.678
 3749SOL    HW221457   8.983   1.901   0.818
 3750SOL     OW21458   0.546   4.171   0.731
 3750SOL    HW121459   0.617   4.100   0.732
 3750SOL    HW221460   0.501   4.172   0.642
 3751SOL     OW21461   5.859   9.333   2.574
 3751SOL    HW121462   5.945   9.374   2.605
 3751SOL    HW221463   5.875   9.240   2.542
 3752SOL     OW21464   2.956   7.883   0.756
 3752SOL    HW121465   3.021   7.948   0.796
 3752SOL    HW221466   2.982   7.790   0.782
 3753SOL     OW21467   3.412   1.016   1.524
 3753SOL    HW121468   3.446   1.105   1.554
 3753SOL    HW221469   3.405   0.954   1.603
 3754SOL     OW21470   8.487   7.069   2.084
 3754SOL    HW121471   8.580   7.041   2.107
 3754SOL    HW221472   8.491   7.152   2.028
 3755SOL     OW21473   6.593   8.671   2.045
 3755SOL    HW121474   6.517   8.615   2.075
 3755SOL    HW221475   6.566   8.726   1.966
 3756SOL     OW21476   9.313   9.211   2.403
 3756SOL    HW121477   9.233   9.265   2.374
 3756SOL    HW221478   9.282   9.132   2.455
 3757SOL     OW21479   8.980   7.794   0.578
 3757SOL    HW121480   8.882   7.811   0.565
 3757SOL    HW221481   8.993   7.739   0.660
 3758SOL     OW21482   4.173   4.035   0.357
 3758SOL    HW121483   4.204   3.943   0.332
 3758SOL    HW221484   4.252   4.091   0.382
 3759SOL     OW21485   0.958   9.754   2.222
 3759SOL    HW121486   0.880   9.779   2.279
 3759SOL    HW221487   1.028   9.825   2.229
 3760SOL     OW21488   2.871   9.322   0.687
 3760SOL    HW121489   2.862   9.222   0.684
 3760SOL    HW221490   2.848   9.360   0.598
 3761SOL     OW21491   1.638   2.198   0.079
 3761SOL    HW121492   1.730   2.181   0.115
 3761SOL    HW221493   1.570   2.170   0.147
 3762SOL     OW21494   8.205   7.356   2.126
 3762SOL    HW121495   8.174   7.386   2.216
 3762SOL    HW221496   8.177   7.261   2.111
 3763SOL     OW21497   3.122   0.579   2.293
 3763SOL    HW121498   3.102   0.635   2.213
 3763SOL    HW221499   3.167   0.495   2.265
 3764SOL     OW21500   7.585   0.736   1.504
 3764SOL    HW121501   7.581   0.821   1.558
 3764SOL    HW221502   7.677   0.723   1.469
 3765SOL     OW21503   2.999   9.363   1.891
 3765SOL    HW121504   3.075   9.374   1.955
 3765SOL    HW221505   2.995   9.443   1.830
 3766SOL     OW21506   3.403   7.209   0.517
 3766SOL    HW121507   3.440   7.233   0.427
 3766SOL    HW221508   3.364   7.291   0.560
 3767SOL     OW21509   1.960   7.752   0.565
 3767SOL    HW121510   1.898   7.688   0.610
 3767SOL    HW221511   1.933   7.846   0.588
 3768SOL     OW21512   3.557   2.173   0.453
 3768SOL    HW121513   3.589   2.121   0.374
 3768SOL    HW221514   3.542   2.268   0.427
 3769SOL     OW21515   4.724   1.241   1.502
 3769SOL    HW121516   4.734   1.170   1.572
 3769SOL    HW221517   4.753   1.205   1.414
 3770SOL     OW21518   2.006   1.039   1.679
 3770SOL    HW121519   2.034   1.110   1.615
 3770SOL    HW221520   2.085   0.982   1.702
 3771SOL     OW21521   1.894   0.328   1.981
 3771SOL    HW121522   1.848   0.300   2.065
 3771SOL    HW221523   1.862   0.272   1.905
 3772SOL     OW21524   1.974   1.241   1.255
 3772SOL    HW121525   2.015   1.298   1.182
 3772SOL    HW221526   1.888   1.203   1.222
 3773SOL     OW21527   8.763   7.634   0.991
 3773SOL    HW121528   8.705   7.708   0.956
 3773SOL    HW221529   8.705   7.557   1.018
 3774SOL     OW21530   0.637   1.707   1.524
 3774SOL    HW121531   0.675   1.695   1.433
 3774SOL    HW221532   0.668   1.633   1.584
 3775SOL     OW21533   9.525   5.997   2.449
 3775SOL    HW121534   9.592   6.069   2.431
 3775SOL    HW221535   9.569   5.922   2.498
 3776SOL     OW21536   9.063   9.927   1.996
 3776SOL    HW121537   9.040   0.023   1.980
 3776SOL    HW221538   9.163   9.917   1.997
 3777SOL     OW21539   2.984   9.695   0.983
 3777SOL    HW121540   2.952   9.675   0.890
 3777SOL    HW221541   2.952   9.624   1.046
 3778SOL     OW21542   2.443   7.568   2.209
 3778SOL    HW121543   2.430   7.601   2.116
 3778SOL    HW221544   2.367   7.598   2.267
 3779SOL     OW21545   4.087   0.009   2.067
 3779SOL    HW121546   4.042   9.925   2.034
 3779SOL    HW221547   4.162   0.032   2.005
 3780SOL     OW21548   9.269   2.143   1.732
 3780SOL    HW121549   9.291   2.218   1.794
 3780SOL    HW221550   9.222   2.180   1.652
 3781SOL     OW21551   0.686   9.838   0.993
 3781SOL    HW121552   0.758   9.880   0.937
 3781SOL    HW221553   0.668   9.895   1.073
 3782SOL     OW21554   0.978   2.338   2.313
 3782SOL    HW121555   0.910   2.369   2.247
 3782SOL    HW221556   1.070   2.360   2.280
 3783SOL     OW21557   3.292   0.604   0.151
 3783SOL    HW121558   3.206   0.552   0.156
 3783SOL    HW221559   3.353   0.574   0.225
 3784SOL     OW21560   3.619   2.886   0.556
 3784SOL    HW121561   3.564   2.967   0.576
 3784SOL    HW221562   3.715   2.913   0.544
 3785SOL     OW21563   0.121   9.130   0.123
 3785SOL    HW121564   0.098   9.133   0.026
 3785SOL    HW221565   0.183   9.206   0.145
 3786SOL     OW21566   1.551   0.032   1.137
 3786SOL    HW121567   1.488   0.109   1.136
 3786SOL    HW221568   1.621   0.045   1.067
 3787SOL     OW21569   2.156   4.061   1.684
 3787SOL    HW121570   2.135   4.112   1.767
 3787SOL    HW221571   2.070   4.034   1.639
 3788SOL     OW21572   0.483   5.696   1.457
 3788SOL    HW121573   0.574   5.733   1.475
 3788SOL    HW221574   0.435   5.756   1.393
 3789SOL     OW21575   3.893   3.735   1.086
 3789SOL    HW121576   3.945   3.655   1.058
 3789SOL    HW221577   3.945   3.818   1.063
 3790SOL     OW21578   0.328   1.527   1.328
 3790SOL    HW121579   0.363   1.482   1.246
 3790SOL    HW221580   0.329   1.626   1.316
 3791SOL     OW21581   4.343   9.367   0.530
 3791SOL    HW121582   4.362   9.429   0.454
 3791SOL    HW221583   4.428   9.344   0.576
 3792SOL     OW21584   8.152   8.686   0.295
 3792SOL    HW121585   8.196   8.708   0.208
 3792SOL    HW221586   8.125   8.770   0.342
 3793SOL     OW21587   8.827   2.755   2.580
 3793SOL    HW121588   8.728   2.764   2.575
 3793SOL    HW221589   8.869   2.845   2.572
 3794SOL     OW21590   7.503   8.982   1.773
 3794SOL    HW121591   7.442   9.035   1.714
 3794SOL    HW221592   7.590   8.968   1.727
 3795SOL     OW21593   8.041   2.031   1.182
 3795SOL    HW121594   8.071   1.989   1.096
 3795SOL    HW221595   8.053   2.130   1.177
 3796SOL     OW21596   4.235   3.782   0.940
 3796SOL    HW121597   4.299   3.739   0.876
 3796SOL    HW221598   4.265   3.764   1.033
 3797SOL     OW21599   1.900   9.404   1.700
 3797SOL    HW121600   1.878   9.453   1.785
 3797SOL    HW221601   1.921   9.470   1.628
 3798SOL     OW21602   2.529   7.331   0.255
 3798SOL    HW121603   2.538   7.417   0.206
 3798SOL    HW221604   2.434   7.300   0.252
 3799SOL     OW21605   0.042   6.102   1.998
 3799SOL    HW121606   9.946   6.130   2.003
 3799SOL    HW221607   0.051   6.008   2.031
 3800SOL     OW21608   9.705   3.013   2.571
 3800SOL    HW121609   9.762   2.989   2.492
 3800SOL    HW221610   9.654   2.932   2.601
 3801SOL     OW21611   1.235   2.856   1.517
 3801SOL    HW121612   1.279   2.862   1.606
 3801SOL    HW221613   1.304   2.836   1.447
 3802SOL     OW21614   0.809   3.511   0.924
 3802SOL    HW121615   0.822   3.567   1.006
 3802SOL    HW221616   0.734   3.446   0.940
 3803SOL     OW21617   0.514   4.623   2.010
 3803SOL    HW121618   0.516   4.704   2.068
 3803SOL    HW221619   0.422   4.585   2.007
 3804SOL     OW21620   3.652   3.601   0.229
 3804SOL    HW121621   3.649   3.651   0.143
 3804SOL    HW221622   3.573   3.626   0.285
 3805SOL     OW21623   2.376   1.496   2.464
 3805SOL    HW121624   2.343   1.409   2.428
 3805SOL    HW221625   2.300   1.559   2.477
 3806SOL     OW21626   1.593   7.539   1.626
 3806SOL    HW121627   1.542   7.567   1.545
 3806SOL    HW221628   1.686   7.575   1.621
 3807SOL     OW21629   1.220   0.959   1.696
 3807SOL    HW121630   1.309   0.917   1.676
 3807SOL    HW221631   1.236   1.050   1.735
 3808SOL     OW21632   8.087   1.444   1.265
 3808SOL    HW121633   8.064   1.393   1.182
 3808SOL    HW221634   8.012   1.438   1.330
 3809SOL     OW21635   0.460   7.454   1.706
 3809SOL    HW121636   0.557   7.438   1.693
 3809SOL    HW221637   0.443   7.552   1.713
 3810SOL     OW21638   0.910   4.662   2.228
 3810SOL    HW121639   0.896   4.729   2.155
 3810SOL    HW221640   0.887   4.570   2.194
 3811SOL     OW21641   4.790   2.279   1.539
 3811SOL    HW121642   4.854   2.221   1.489
 3811SOL    HW221643   4.721   2.223   1.584
 3812SOL     OW21644   2.900   7.563   1.744
 3812SOL    HW121645   2.924   7.477   1.789
 3812SOL    HW221646   2.834   7.613   1.801
 3813SOL     OW21647   9.397   7.049   0.910
 3813SOL    HW121648   9.493   7.032   0.887
 3813SOL    HW221649   9.379   7.147   0.909
 3814SOL     OW21650   3.297   6.106   2.350
 3814SOL    HW121651   3.373   6.171   2.352
 3814SOL    HW221652   3.228   6.138   2.285
 3815SOL     OW21653   9.896   7.688   1.295
 3815SOL    HW121654   9.804   7.661   1.322
 3815SOL    HW221655   9.960   7.665   1.369
 3816SOL     OW21656   3.535   0.980   2.541
 3816SOL    HW121657   3.535   0.888   2.582
 3816SOL    HW221658   3.463   0.985   2.472
 3817SOL     OW21659   1.797   0.381   0.087
 3817SOL    HW121660   1.892   0.405   0.107
 3817SOL    HW221661   1.747   0.464   0.061
 3818SOL     OW21662   3.550   3.386   1.478
 3818SOL    HW121663   3.498   3.332   1.411
 3818SOL    HW221664   3.509   3.477   1.487
 3819SOL     OW21665   3.178   1.825   1.716
 3819SOL    HW121666   3.163   1.894   1.786
 3819SOL    HW221667   3.182   1.869   1.626
 3820SOL     OW21668   0.539   9.620   1.101
 3820SOL    HW121669   0.585   9.596   1.186
 3820SOL    HW221670   0.583   9.700   1.061
 3821SOL     OW21671   2.920   5.635   1.993
 3821SOL    HW121672   2.841   5.695   1.986
 3821SOL    HW221673   2.966   5.629   1.904
 3822SOL     OW21674   7.594   9.137   2.412
 3822SOL    HW121675   7.523   9.166   2.476
 3822SOL    HW221676   7.619   9.213   2.352
 3823SOL     OW21677   7.671   9.871   1.566
 3823SOL    HW121678   7.745   9.934   1.587
 3823SOL    HW221679   7.626   9.898   1.481
 3824SOL     OW21680   0.262   0.315   0.539
 3824SOL    HW121681   0.170   0.313   0.501
 3824SOL    HW221682   0.310   0.230   0.516
 3825SOL     OW21683   4.839   3.028   1.850
 3825SOL    HW121684   4.851   3.017   1.751
 3825SOL    HW221685   4.807   2.941   1.889
 3826SOL     OW21686   9.217   5.714   0.771
 3826SOL    HW121687   9.279   5.728   0.694
 3826SOL    HW221688   9.237   5.626   0.814
 3827SOL     OW21689   1.411   8.051   0.363
 3827SOL    HW121690   1.333   7.994   0.337
 3827SOL    HW221691   1.411   8.063   0.463
 3828SOL     OW21692   1.266   5.355   0.728
 3828SOL    HW121693   1.333   5.411   0.775
 3828SOL    HW221694   1.308   5.312   0.648
 3829SOL     OW21695   0.188   4.517   0.218
 3829SOL    HW121696   0.155   4.422   0.218
 3829SOL    HW221697   0.122   4.575   0.171
 3830SOL     OW21698   4.438   2.194   0.874
 3830SOL    HW121699   4.344   2.172   0.900
 3830SOL    HW221700   4.438   2.262   0.801
 3831SOL     OW21701   0.033   7.428   2.062
 3831SOL    HW121702   9.972   7.356   2.030
 3831SOL    HW221703   0.127   7.407   2.037
 3832SOL     OW21704   2.437   0.332   2.431
 3832SOL    HW121705   2.361   0.363   2.488
 3832SOL    HW221706   2.522   0.374   2.463
 3833SOL     OW21707   9.528   8.006   0.137
 3833SOL    HW121708   9.576   7.920   0.147
 3833SOL    HW221709   9.430   7.992   0.155
 3834SOL     OW21710   8.615   5.823   0.148
 3834SOL    HW121711   8.517   5.811   0.159
 3834SOL    HW221712   8.643   5.911   0.187
 3835SOL     OW21713   3.726   0.373   2.435
 3835SOL    HW121714   3.719   0.382   2.336
 3835SOL    HW221715   3.725   0.276   2.459
 3836SOL     OW21716   2.420   8.698   2.222
 3836SOL    HW121717   2.438   8.687   2.320
 3836SOL    HW221718   2.503   8.727   2.175
 3837SOL     OW21719   9.190   5.367   2.398
 3837SOL    HW121720   9.281   5.333   2.419
 3837SOL    HW221721   9.169   5.445   2.457
 3838SOL     OW21722   4.914   1.400   1.922
 3838SOL    HW121723   4.893   1.411   1.825
 3838SOL    HW221724   4.861   1.323   1.958
 3839SOL     OW21725   3.409   9.652   1.966
 3839SOL    HW121726   3.341   9.644   2.040
 3839SOL    HW221727   3.389   9.585   1.895
 3840SOL     OW21728   2.271   1.200   0.892
 3840SOL    HW121729   2.272   1.193   0.792
 3840SOL    HW221730   2.360   1.172   0.928
 3841SOL     OW21731   4.144   4.750   0.579
 3841SOL    HW121732   4.161   4.688   0.503
 3841SOL    HW221733   4.055   4.794   0.567
 3842SOL     OW21734   9.279   6.156   1.981
 3842SOL    HW121735   9.201   6.182   1.923
 3842SOL    HW221736   9.247   6.137   2.074
 3843SOL     OW21737   4.491   8.997   0.439
 3843SOL    HW121738   4.455   8.968   0.527
 3843SOL    HW221739   4.591   8.998   0.442
 3844SOL     OW21740   9.508   8.238   1.948
 3844SOL    HW121741   9.554   8.307   2.005
 3844SOL    HW221742   9.457   8.284   1.875
 3845SOL     OW21743   8.851   1.243   0.752
 3845SOL    HW121744   8.894   1.243   0.843
 3845SOL    HW221745   8.854   1.336   0.715
 3846SOL     OW21746   3.974   2.302   1.004
 3846SOL    HW121747   3.893   2.244   0.999
 3846SOL    HW221748   3.962   2.380   0.942
 3847SOL     OW21749   9.006   8.609   0.293
 3847SOL    HW121750   8.980   8.609   0.389
 3847SOL    HW221751   9.075   8.538   0.277
 3848SOL     OW21752   8.232   2.208   1.390
 3848SOL    HW121753   8.303   2.155   1.344
 3848SOL    HW221754   8.167   2.243   1.323
 3849SOL     OW21755   8.394   6.266   0.871
 3849SOL    HW121756   8.439   6.314   0.946
 3849SOL    HW221757   8.357   6.333   0.806
 3850SOL     OW21758   9.265   7.017   0.496
 3850SOL    HW121759   9.201   7.091   0.475
 3850SOL    HW221760   9.242   6.979   0.585
 3851SOL     OW21761   9.933   3.361   2.441
 3851SOL    HW121762   9.994   3.438   2.456
 3851SOL    HW221763   9.893   3.333   2.528
 3852SOL     OW21764   3.624   5.418   0.983
 3852SOL    HW121765   3.608   5.438   0.886
 3852SOL    HW221766   3.553   5.461   1.038
 3853SOL     OW21767   0.660   4.277   2.591
 3853SOL    HW121768   0.744   4.232   2.560
 3853SOL    HW221769   0.583   4.213   2.583
 3854SOL     OW21770   3.981   4.125   0.548
 3854SOL    HW121771   3.893   4.144   0.504
 3854SOL    HW221772   4.043   4.085   0.481
 3855SOL     OW21773   1.527   4.662   1.592
 3855SOL    HW121774   1.584   4.708   1.525
 3855SOL    HW221775   1.549   4.695   1.684
 3856SOL     OW21776   2.077   6.349   1.572
 3856SOL    HW121777   2.073   6.273   1.507
 3856SOL    HW221778   1.997   6.408   1.559
 3857SOL     OW21779   1.782   4.800   0.215
 3857SOL    HW121780   1.779   4.870   0.287
 3857SOL    HW221781   1.737   4.717   0.248
 3858SOL     OW21782   8.758   6.511   1.834
 3858SOL    HW121783   8.818   6.459   1.895
 3858SOL    HW221784   8.806   6.593   1.802
 3859SOL     OW21785   0.937   4.049   2.494
 3859SOL    HW121786   0.995   3.970   2.477
 3859SOL    HW221787   0.854   4.020   2.541
 3860SOL     OW21788   0.367   9.187   0.559
 3860SOL    HW121789   0.298   9.120   0.531
 3860SOL    HW221790   0.321   9.266   0.599
 3861SOL     OW21791   1.115   1.387   1.016
 3861SOL    HW121792   1.119   1.437   0.930
 3861SOL    HW221793   1.200   1.402   1.067
 3862SOL     OW21794   4.426   2.034   1.264
 3862SOL    HW121795   4.382   1.996   1.346
 3862SOL    HW221796   4.393   1.986   1.183
 3863SOL     OW21797   1.585   6.828   0.229
 3863SOL    HW121798   1.526   6.754   0.261
 3863SOL    HW221799   1.676   6.793   0.209
 3864SOL     OW21800   3.118   2.421   1.821
 3864SOL    HW121801   3.097   2.365   1.902
 3864SOL    HW221802   3.167   2.503   1.850
 3865SOL     OW21803   3.833   3.601   1.901
 3865SOL    HW121804   3.867   3.513   1.866
 3865SOL    HW221805   3.776   3.584   1.981
 3866SOL     OW21806   9.625   1.714   2.595
 3866SOL    HW121807   9.595   1.794   2.543
 3866SOL    HW221808   9.710   1.735   2.642
 3867SOL     OW21809   2.884   3.183   1.748
 3867SOL    HW121810   2.852   3.211   1.657
 3867SOL    HW221811   2.808   3.188   1.813
 3868SOL     OW21812   1.102   3.779   0.616
 3868SOL    HW121813   1.015   3.742   0.650
 3868SOL    HW221814   1.164   3.704   0.595
 3869SOL     OW21815   3.050   1.091   1.698
 3869SOL    HW121816   3.126   1.155   1.711
 3869SOL    HW221817   2.978   1.136   1.644
 3870SOL     OW21818   2.488   9.221   1.932
 3870SOL    HW121819   2.540   9.205   1.849
 3870SOL    HW221820   2.393   9.242   1.908
 3871SOL     OW21821   8.483   2.409   0.113
 3871SOL    HW121822   8.469   2.339   0.183
 3871SOL    HW221823   8.395   2.432   0.071
 3872SOL     OW21824   3.074   0.538   1.194
 3872SOL    HW121825   3.010   0.493   1.256
 3872SOL    HW221826   3.120   0.470   1.137
 3873SOL     OW21827   8.314   7.873   0.813
 3873SOL    HW121828   8.243   7.846   0.878
 3873SOL    HW221829   8.284   7.850   0.720
 3874SOL     OW21830   0.333   8.261   1.678
 3874SOL    HW121831   0.324   8.358   1.655
 3874SOL    HW221832   0.428   8.241   1.701
 3875SOL     OW21833   9.258   0.833   2.285
 3875SOL    HW121834   9.166   0.867   2.264
 3875SOL    HW221835   9.274   0.839   2.383
 3876SOL     OW21836   7.875   1.394   1.432
 3876SOL    HW121837   7.827   1.455   1.495
 3876SOL    HW221838   7.912   1.316   1.483
 3877SOL     OW21839   0.156   9.252   0.885
 3877SOL    HW121840   0.064   9.278   0.916
 3877SOL    HW221841   0.172   9.291   0.794
 3878SOL     OW21842   9.028   8.381   1.303
 3878SOL    HW121843   8.994   8.455   1.245
 3878SOL    HW221844   9.084   8.419   1.376
 3879SOL     OW21845   8.784   8.245   1.318
 3879SOL    HW121846   8.875   8.285   1.332
 3879SOL    HW221847   8.768   8.173   1.386
 3880SOL     OW21848   4.400   7.926   2.520
 3880SOL    HW121849   4.473   7.993   2.506
 3880SOL    HW221850   4.350   7.912   2.435
 3881SOL     OW21851   1.506   5.003   1.276
 3881SOL    HW121852   1.561   4.949   1.212
 3881SOL    HW221853   1.564   5.037   1.349
 3882SOL     OW21854   9.260   4.881   2.491
 3882SOL    HW121855   9.188   4.812   2.487
 3882SOL    HW221856   9.253   4.941   2.411
 3883SOL     OW21857   4.550   3.040   1.197
 3883SOL    HW121858   4.581   2.957   1.150
 3883SOL    HW221859   4.450   3.046   1.192
 3884SOL     OW21860   0.376   5.964   0.510
 3884SOL    HW121861   0.333   5.885   0.465
 3884SOL    HW221862   0.469   5.939   0.539
 3885SOL     OW21863   0.374   7.786   0.996
 3885SOL    HW121864   0.390   7.873   1.043
 3885SOL    HW221865   0.310   7.801   0.921
 3886SOL     OW21866   0.348   4.443   1.377
 3886SOL    HW121867   0.356   4.362   1.319
 3886SOL    HW221868   0.430   4.500   1.367
 3887SOL     OW21869   3.262   3.678   0.970
 3887SOL    HW121870   3.303   3.768   0.988
 3887SOL    HW221871   3.258   3.663   0.871
 3888SOL     OW21872   2.438   5.936   0.073
 3888SOL    HW121873   2.407   5.854   0.121
 3888SOL    HW221874   2.503   5.909   0.001
 3889SOL     OW21875   0.108   4.902   0.750
 3889SOL    HW121876   0.052   4.852   0.816
 3889SOL    HW221877   0.183   4.843   0.719
 3890SOL     OW21878   2.159   4.981   2.244
 3890SOL    HW121879   2.125   5.067   2.208
 3890SOL    HW221880   2.142   4.976   2.343
 3891SOL     OW21881   1.784   7.596   0.706
 3891SOL    HW121882   1.834   7.518   0.743
 3891SOL    HW221883   1.689   7.568   0.688
 3892SOL     OW21884   9.742   0.838   0.892
 3892SOL    HW121885   9.649   0.850   0.927
 3892SOL    HW221886   9.777   0.926   0.861
 3893SOL     OW21887   0.992   9.011   0.924
 3893SOL    HW121888   0.988   9.067   0.841
 3893SOL    HW221889   0.961   9.064   1.003
 3894SOL     OW21890   8.379   9.657   1.359
 3894SOL    HW121891   8.397   9.673   1.456
 3894SOL    HW221892   8.446   9.706   1.304
 3895SOL     OW21893   1.703   2.187   0.657
 3895SOL    HW121894   1.694   2.225   0.565
 3895SOL    HW221895   1.632   2.225   0.716
 3896SOL     OW21896   8.545   5.707   0.655
 3896SOL    HW121897   8.479   5.732   0.583
 3896SOL    HW221898   8.592   5.789   0.687
 3897SOL     OW21899   1.192   1.593   1.500
 3897SOL    HW121900   1.095   1.571   1.484
 3897SOL    HW221901   1.238   1.515   1.542
 3898SOL     OW21902   2.507   0.515   1.917
 3898SOL    HW121903   2.526   0.426   1.959
 3898SOL    HW221904   2.556   0.587   1.967
 3899SOL     OW21905   2.225   0.080   0.939
 3899SOL    HW121906   2.178   0.019   1.003
 3899SOL    HW221907   2.225   0.040   0.848
 3900SOL     OW21908   0.623   0.725   0.979
 3900SOL    HW121909   0.621   0.737   0.880
 3900SOL    HW221910   0.606   0.629   1.002
 3901SOL     OW21911   0.459   5.389   2.508
 3901SOL    HW121912   0.419   5.481   2.505
 3901SOL    HW221913   0.552   5.392   2.472
 3902SOL     OW21914   9.325   1.880   1.786
 3902SOL    HW121915   9.315   1.817   1.708
 3902SOL    HW221916   9.306   1.973   1.756
 3903SOL     OW21917   1.383   2.206   2.448
 3903SOL    HW121918   1.377   2.144   2.527
 3903SOL    HW221919   1.436   2.163   2.376
 3904SOL     OW21920   0.258   3.674   2.279
 3904SOL    HW121921   0.323   3.639   2.212
 3904SOL    HW221922   0.181   3.717   2.233
 3905SOL     OW21923   3.566   7.969   2.272
 3905SOL    HW121924   3.534   7.999   2.182
 3905SOL    HW221925   3.635   7.898   2.261
 3906SOL     OW21926   0.880   0.567   0.481
 3906SOL    HW121927   0.786   0.559   0.448
 3906SOL    HW221928   0.879   0.589   0.579
 3907SOL     OW21929   8.890   5.504   0.402
 3907SOL    HW121930   8.864   5.550   0.317
 3907SOL    HW221931   8.810   5.497   0.462
 3908SOL     OW21932   8.805   4.034   1.035
 3908SOL    HW121933   8.808   4.062   0.939
 3908SOL    HW221934   8.857   3.949   1.046
 3909SOL     OW21935   8.515   9.112   0.343
 3909SOL    HW121936   8.459   9.069   0.272
 3909SOL    HW221937   8.515   9.211   0.329
 3910SOL     OW21938   8.318   8.477   0.362
 3910SOL    HW121939   8.330   8.441   0.270
 3910SOL    HW221940   8.246   8.546   0.362
 3911SOL     OW21941   1.837   0.572   2.128
 3911SOL    HW121942   1.842   0.491   2.069
 3911SOL    HW221943   1.865   0.653   2.076
 3912SOL     OW21944   4.006   7.927   2.208
 3912SOL    HW121945   3.933   7.860   2.202
 3912SOL    HW221946   4.047   7.941   2.118
 3913SOL     OW21947   0.595   5.475   1.334
 3913SOL    HW121948   0.555   5.557   1.375
 3913SOL    HW221949   0.603   5.403   1.403
 3914SOL     OW21950   9.819   2.680   2.502
 3914SOL    HW121951   9.730   2.696   2.546
 3914SOL    HW221952   9.840   2.756   2.441
 3915SOL     OW21953   9.457   5.273   0.867
 3915SOL    HW121954   9.422   5.195   0.920
 3915SOL    HW221955   9.524   5.240   0.800
 3916SOL     OW21956   0.453   8.554   0.806
 3916SOL    HW121957   0.424   8.562   0.901
 3916SOL    HW221958   0.440   8.641   0.759
 3917SOL     OW21959   3.083   9.063   1.479
 3917SOL    HW121960   3.074   8.964   1.474
 3917SOL    HW221961   3.074   9.093   1.574
 3918SOL     OW21962   4.275   8.066   0.889
 3918SOL    HW121963   4.332   8.037   0.812
 3918SOL    HW221964   4.313   8.030   0.974
 3919SOL     OW21965   2.897   5.076   0.974
 3919SOL    HW121966   2.851   4.990   0.954
 3919SOL    HW221967   2.992   5.071   0.944
 3920SOL     OW21968   9.554   4.956   0.353
 3920SOL    HW121969   9.653   4.943   0.353
 3920SOL    HW221970   9.509   4.868   0.333
 3921SOL     OW21971   4.463   4.402   2.522
 3921SOL    HW121972   4.456   4.479   2.585
 3921SOL    HW221973   4.558   4.370   2.517
 3922SOL     OW21974   2.379   3.269   1.946
 3922SOL    HW121975   2.382   3.206   1.868
 3922SOL    HW221976   2.286   3.305   1.957
 3923SOL     OW21977   8.264   9.036   1.322
 3923SOL    HW121978   8.264   9.115   1.383
 3923SOL    HW221979   8.351   8.988   1.330
 3924SOL     OW21980   9.993   5.734   1.074
 3924SOL    HW121981   0.034   5.648   1.106
 3924SOL    HW221982   0.055   5.777   1.008
 3925SOL     OW21983   1.193   4.195   1.161
 3925SOL    HW121984   1.232   4.281   1.128
 3925SOL    HW221985   1.262   4.123   1.154
 3926SOL     OW21986   9.028   7.159   0.732
 3926SOL    HW121987   9.083   7.076   0.730
 3926SOL    HW221988   9.000   7.178   0.826
 3927SOL     OW21989   0.875   1.158   2.321
 3927SOL    HW121990   0.778   1.184   2.323
 3927SOL    HW221991   0.892   1.087   2.389
 3928SOL     OW21992   8.039   8.385   2.177
 3928SOL    HW121993   7.998   8.367   2.266
 3928SOL    HW221994   8.112   8.453   2.186
 3929SOL     OW21995   2.784   2.701   2.307
 3929SOL    HW121996   2.859   2.747   2.354
 3929SOL    HW221997   2.809   2.686   2.211
 3930SOL     OW21998   8.734   9.099   1.879
 3930SOL    HW121999   8.755   9.106   1.782
 3930SOL    HW222000   8.769   9.180   1.926
 3931SOL     OW22001   1.695   7.892   2.429
 3931SOL    HW122002   1.694   7.872   2.331
 3931SOL    HW222003   1.695   7.806   2.480
 3932SOL     OW22004   3.498   8.981   1.723
 3932SOL    HW122005   3.596   8.965   1.731
 3932SOL    HW222006   3.461   8.923   1.650
 3933SOL     OW22007   9.120   1.261   1.910
 3933SOL    HW122008   9.133   1.272   2.009
 3933SOL    HW222009   9.199   1.213   1.871
 3934SOL     OW22010   3.244   0.324   0.317
 3934SOL    HW122011   3.249   0.235   0.272
 3934SOL    HW222012   3.336   0.361   0.329
 3935SOL     OW22013   1.152   2.636   2.318
 3935SOL    HW122014   1.191   2.544   2.316
 3935SOL    HW222015   1.226   2.703   2.319
 3936SOL     OW22016   9.040   4.881   0.368
 3936SOL    HW122017   9.018   4.902   0.273
 3936SOL    HW222018   9.073   4.964   0.414
 3937SOL     OW22019   1.381   7.615   2.525
 3937SOL    HW122020   1.336   7.546   2.581
 3937SOL    HW222021   1.334   7.702   2.535
 3938SOL     OW22022   3.730   7.344   1.049
 3938SOL    HW122023   3.697   7.433   1.078
 3938SOL    HW222024   3.829   7.338   1.065
 3939SOL     OW22025   1.713   3.700   1.533
 3939SOL    HW122026   1.795   3.655   1.568
 3939SOL    HW222027   1.634   3.639   1.542
 3940SOL     OW22028   0.487   9.490   2.423
 3940SOL    HW122029   0.411   9.496   2.358
 3940SOL    HW222030   0.473   9.411   2.483
 3941SOL     OW22031   0.115   5.498   1.165
 3941SOL    HW122032   0.134   5.510   1.263
 3941SOL    HW222033   0.201   5.487   1.115
 3942SOL     OW22034   3.295   6.247   2.599
 3942SOL    HW122035   3.387   6.220   2.629
 3942SOL    HW222036   3.262   6.182   2.531
 3943SOL     OW22037   0.480   5.687   1.749
 3943SOL    HW122038   0.475   5.685   1.649
 3943SOL    HW222039   0.478   5.783   1.780
 3944SOL     OW22040   1.846   5.412   1.225
 3944SOL    HW122041   1.927   5.429   1.169
 3944SOL    HW222042   1.785   5.348   1.177
 3945SOL     OW22043   4.513   8.902   1.816
 3945SOL    HW122044   4.455   8.880   1.738
 3945SOL    HW222045   4.465   8.877   1.900
 3946SOL     OW22046   6.342   9.880   2.538
 3946SOL    HW122047   6.294   9.797   2.567
 3946SOL    HW222048   6.415   9.856   2.474
 3947SOL     OW22049   2.808   4.795   0.155
 3947SOL    HW122050   2.814   4.894   0.164
 3947SOL    HW222051   2.713   4.768   0.145
 3948SOL     OW22052   2.655   6.344   0.169
 3948SOL    HW122053   2.603   6.266   0.204
 3948SOL    HW222054   2.748   6.313   0.146
 3949SOL     OW22055   9.879   4.104   1.850
 3949SOL    HW122056   9.799   4.139   1.898
 3949SOL    HW222057   9.925   4.178   1.801
 3950SOL     OW22058   3.473   2.780   2.195
 3950SOL    HW122059   3.524   2.739   2.119
 3950SOL    HW222060   3.458   2.713   2.267
 3951SOL     OW22061   6.478   9.107   2.020
 3951SOL    HW122062   6.563   9.076   2.064
 3951SOL    HW222063   6.415   9.141   2.090
 3952SOL     OW22064   7.453   9.804   0.728
 3952SOL    HW122065   7.487   9.885   0.776
 3952SOL    HW222066   7.529   9.743   0.708
 3953SOL     OW22067   0.956   9.521   0.411
 3953SOL    HW122068   0.917   9.435   0.446
 3953SOL    HW222069   0.918   9.598   0.462
 3954SOL     OW22070   1.019   5.785   1.303
 3954SOL    HW122071   0.978   5.866   1.346
 3954SOL    HW222072   0.975   5.703   1.338
 3955SOL     OW22073   1.613   3.176   0.117
 3955SOL    HW122074   1.668   3.178   0.201
 3955SOL    HW222075   1.664   3.130   0.045
 3956SOL     OW22076   3.000   2.818   2.416
 3956SOL    HW122077   3.033   2.905   2.379
 3956SOL    HW222078   3.078   2.761   2.442
 3957SOL     OW22079   0.541   9.929   0.113
 3957SOL    HW122080   0.568   9.846   0.163
 3957SOL    HW222081   0.600   9.941   0.034
 3958SOL     OW22082   0.100   4.837   2.399
 3958SOL    HW122083   0.186   4.883   2.424
 3958SOL    HW222084   0.089   4.754   2.455
 3959SOL     OW22085   2.620   9.609   1.782
 3959SOL    HW122086   2.669   9.552   1.716
 3959SOL    HW222087   2.532   9.566   1.803
 3960SOL     OW22088   9.820   6.817   0.723
 3960SOL    HW122089   9.850   6.722   0.714
 3960SOL    HW222090   9.898   6.875   0.745
 3961SOL     OW22091   8.358   2.858   0.304
 3961SOL    HW122092   8.272   2.824   0.342
 3961SOL    HW222093   8.414   2.781   0.274
 3962SOL     OW22094   1.411   8.349   0.614
 3962SOL    HW122095   1.414   8.252   0.636
 3962SOL    HW222096   1.431   8.362   0.517
 3963SOL     OW22097   9.985   2.706   2.158
 3963SOL    HW122098   9.933   2.787   2.133
 3963SOL    HW222099   0.057   2.731   2.223
 3964SOL     OW22100   2.345   2.745   2.489
 3964SOL    HW122101   2.380   2.835   2.464
 3964SOL    HW222102   2.421   2.686   2.517
 3965SOL     OW22103   9.149   3.905   0.878
 3965SOL    HW122104   9.137   3.995   0.837
 3965SOL    HW222105   9.247   3.889   0.895
 3966SOL     OW22106   8.156   1.685   2.505
 3966SOL    HW122107   8.094   1.607   2.508
 3966SOL    HW222108   8.103   1.769   2.517
 3967SOL     OW22109   9.617   4.874   1.755
 3967SOL    HW122110   9.667   4.817   1.691
 3967SOL    HW222111   9.676   4.948   1.788
 3968SOL     OW22112   3.754   7.628   1.883
 3968SOL    HW122113   3.731   7.724   1.900
 3968SOL    HW222114   3.670   7.573   1.889
 3969SOL     OW22115   2.839   6.090   2.433
 3969SOL    HW122116   2.904   6.022   2.467
 3969SOL    HW222117   2.883   6.179   2.428
 3970SOL     OW22118   3.155   9.939   0.631
 3970SOL    HW122119   3.252   9.961   0.621
 3970SOL    HW222120   3.100   0.022   0.624
 3971SOL     OW22121   8.930   8.770   1.350
 3971SOL    HW122122   8.916   8.854   1.296
 3971SOL    HW222123   8.925   8.691   1.290
 3972SOL     OW22124   0.710   3.263   2.196
 3972SOL    HW122125   0.642   3.191   2.184
 3972SOL    HW222126   0.801   3.228   2.174
 3973SOL     OW22127   6.688   9.449   2.369
 3973SOL    HW122128   6.656   9.514   2.300
 3973SOL    HW222129   6.777   9.479   2.404
 3974SOL     OW22130   2.561   8.223   2.305
 3974SOL    HW122131   2.505   8.295   2.346
 3974SOL    HW222132   2.585   8.156   2.375
 3975SOL     OW22133   2.521   1.810   0.250
 3975SOL    HW122134   2.426   1.801   0.221
 3975SOL    HW222135   2.581   1.773   0.179
 3976SOL     OW22136   8.172   2.159   1.651
 3976SOL    HW122137   8.235   2.216   1.704
 3976SOL    HW222138   8.193   2.168   1.554
 3977SOL     OW22139   9.575   2.872   0.367
 3977SOL    HW122140   9.660   2.820   0.359
 3977SOL    HW222141   9.564   2.904   0.461
 3978SOL     OW22142   4.100   1.496   0.927
 3978SOL    HW122143   4.073   1.585   0.891
 3978SOL    HW222144   4.120   1.504   1.025
 3979SOL     OW22145   9.093   9.353   2.319
 3979SOL    HW122146   9.044   9.416   2.380
 3979SOL    HW222147   9.038   9.271   2.305
 3980SOL     OW22148   8.946   7.026   0.301
 3980SOL    HW122149   8.858   7.053   0.261
 3980SOL    HW222150   9.007   6.993   0.229
 3981SOL     OW22151   7.741   0.044   2.140
 3981SOL    HW122152   7.733   0.028   2.239
 3981SOL    HW222153   7.826   0.005   2.107
 3982SOL     OW22154   1.928   5.134   1.878
 3982SOL    HW122155   1.902   5.187   1.798
 3982SOL    HW222156   1.913   5.037   1.861
 3983SOL     OW22157   9.644   7.303   0.579
 3983SOL    HW122158   9.592   7.224   0.547
 3983SOL    HW222159   9.690   7.280   0.666
 3984SOL     OW22160   2.909   0.465   2.433
 3984SOL    HW122161   2.975   0.525   2.387
 3984SOL    HW222162   2.958   0.403   2.494
 3985SOL     OW22163   2.555   5.019   0.910
 3985SOL    HW122164   2.625   4.948   0.905
 3985SOL    HW222165   2.597   5.109   0.899
 3986SOL     OW22166   3.825   0.814   2.666
 3986SOL    HW122167   3.839   0.851   2.574
 3986SOL    HW222168   3.780   0.725   2.660
 3987SOL     OW22169   0.145   0.070   1.896
 3987SOL    HW122170   0.050   0.040   1.898
 3987SOL    HW222171   0.190   0.045   1.981
 3988SOL     OW22172   0.227   3.136   0.237
 3988SOL    HW122173   0.281   3.163   0.157
 3988SOL    HW222174   0.226   3.210   0.303
 3989SOL     OW22175   8.367   0.405   2.405
 3989SOL    HW122176   8.357   0.395   2.306
 3989SOL    HW222177   8.313   0.483   2.436
 3990SOL     OW22178   9.458   8.899   1.416
 3990SOL    HW122179   9.360   8.885   1.407
 3990SOL    HW222180   9.481   8.918   1.512
 3991SOL     OW22181   8.142   1.909   1.761
 3991SOL    HW122182   8.081   1.852   1.706
 3991SOL    HW222183   8.158   1.995   1.714
 3992SOL     OW22184   3.849   1.833   0.136
 3992SOL    HW122185   3.945   1.808   0.150
 3992SOL    HW222186   3.823   1.814   0.041
 3993SOL     OW22187   1.581   2.116   1.706
 3993SOL    HW122188   1.618   2.134   1.614
 3993SOL    HW222189   1.523   2.193   1.733
 3994SOL     OW22190   0.698   1.238   1.425
 3994SOL    HW122191   0.618   1.281   1.466
 3994SOL    HW222192   0.753   1.195   1.497
 3995SOL     OW22193   1.509   7.542   0.713
 3995SOL    HW122194   1.444   7.485   0.663
 3995SOL    HW222195   1.507   7.517   0.809
 3996SOL     OW22196   1.852   1.121   0.699
 3996SOL    HW122197   1.880   1.051   0.633
 3996SOL    HW222198   1.804   1.194   0.651
 3997SOL     OW22199   3.341   9.838   1.550
 3997SOL    HW122200   3.400   9.843   1.630
 3997SOL    HW222201   3.283   9.920   1.546
 3998SOL     OW22202   9.066   0.081   1.088
 3998SOL    HW122203   9.139   0.018   1.114
 3998SOL    HW222204   9.106   0.159   1.039
 3999SOL     OW22205   1.199   9.141   2.325
 3999SOL    HW122206   1.125   9.208   2.317
 3999SOL    HW222207   1.177   9.060   2.272
 4000SOL     OW22208   9.102   2.322   1.184
 4000SOL    HW122209   9.030   2.256   1.208
 4000SOL    HW222210   9.120   2.316   1.085
 4001SOL     OW22211   3.140   5.974   1.090
 4001SOL    HW122212   3.111   6.002   0.998
 4001SOL    HW222213   3.193   5.889   1.084
 4002SOL     OW22214   1.228   7.309   1.000
 4002SOL    HW122215   1.188   7.229   1.046
 4002SOL    HW222216   1.162   7.346   0.935
 4003SOL     OW22217   3.402   8.394   1.746
 4003SOL    HW122218   3.376   8.297   1.744
 4003SOL    HW222219   3.320   8.451   1.742
 4004SOL     OW22220   9.475   9.320   2.211
 4004SOL    HW122221   9.439   9.302   2.120
 4004SOL    HW222222   9.424   9.267   2.278
 4005SOL     OW22223   1.613   5.211   2.611
 4005SOL    HW122224   1.706   5.248   2.611
 4005SOL    HW222225   1.551   5.277   2.569
 4006SOL     OW22226   8.617   7.218   1.677
 4006SOL    HW122227   8.518   7.207   1.668
 4006SOL    HW222228   8.662   7.182   1.596
 4007SOL     OW22229   1.563   7.263   0.515
 4007SOL    HW122230   1.548   7.179   0.462
 4007SOL    HW222231   1.475   7.307   0.532
 4008SOL     OW22232   2.008   8.958   1.332
 4008SOL    HW122233   2.062   9.021   1.276
 4008SOL    HW222234   2.024   8.864   1.303
 4009SOL     OW22235   9.346   1.966   1.334
 4009SOL    HW122236   9.413   1.913   1.385
 4009SOL    HW222237   9.392   2.038   1.283
 4010SOL     OW22238   3.884   4.423   2.545
 4010SOL    HW122239   3.942   4.343   2.555
 4010SOL    HW222240   3.830   4.436   2.629
 4011SOL     OW22241   8.348   7.222   1.651
 4011SOL    HW122242   8.309   7.278   1.723
 4011SOL    HW222243   8.279   7.158   1.617
 4012SOL     OW22244   9.503   0.046   0.510
 4012SOL    HW122245   9.542   0.110   0.444
 4012SOL    HW222246   9.404   0.062   0.518
 4013SOL     OW22247   3.883   9.707   0.074
 4013SOL    HW122248   3.796   9.658   0.072
 4013SOL    HW222249   3.947   9.658   0.134
 4014SOL     OW22250   4.893   2.538   1.516
 4014SOL    HW122251   4.833   2.599   1.569
 4014SOL    HW222252   4.864   2.443   1.530
 4015SOL     OW22253   3.519   8.349   0.042
 4015SOL    HW122254   3.437   8.322   0.094
 4015SOL    HW222255   3.499   8.345   3.381
 4016SOL     OW22256   2.511   5.434   0.923
 4016SOL    HW122257   2.548   5.513   0.972
 4016SOL    HW222258   2.585   5.368   0.907
 4017SOL     OW22259   4.011   3.493   1.019
 4017SOL    HW122260   4.098   3.483   0.970
 4017SOL    HW222261   3.938   3.449   0.967
 4018SOL     OW22262   1.484   1.056   1.861
 4018SOL    HW122263   1.520   1.113   1.787
 4018SOL    HW222264   1.463   1.114   1.940
 4019SOL     OW22265   4.363   3.312   1.086
 4019SOL    HW122266   4.313   3.365   1.018
 4019SOL    HW222267   4.462   3.322   1.069
 4020SOL     OW22268   9.289   6.108   0.943
 4020SOL    HW122269   9.256   6.018   0.967
 4020SOL    HW222270   9.371   6.099   0.886
 4021SOL     OW22271   9.763   7.009   1.117
 4021SOL    HW122272   9.693   7.039   1.181
 4021SOL    HW222273   9.725   7.008   1.024
 4022SOL     OW22274   8.335   9.504   0.432
 4022SOL    HW122275   8.325   9.468   0.525
 4022SOL    HW222276   8.413   9.461   0.387
 4023SOL     OW22277   2.656   3.623   2.522
 4023SOL    HW122278   2.676   3.586   2.431
 4023SOL    HW222279   2.741   3.643   2.569
 4024SOL     OW22280   3.070   5.579   0.435
 4024SOL    HW122281   2.984   5.540   0.466
 4024SOL    HW222282   3.132   5.589   0.513
 4025SOL     OW22283   2.593   8.496   0.968
 4025SOL    HW122284   2.662   8.493   0.895
 4025SOL    HW222285   2.503   8.482   0.929
 4026SOL     OW22286   1.498   1.360   0.328
 4026SOL    HW122287   1.534   1.266   0.331
 4026SOL    HW222288   1.404   1.358   0.295
 4027SOL     OW22289   1.679   5.085   1.480
 4027SOL    HW122290   1.743   5.134   1.538
 4027SOL    HW222291   1.695   4.986   1.486
 4028SOL     OW22292   0.256   0.475   1.838
 4028SOL    HW122293   0.354   0.496   1.830
 4028SOL    HW222294   0.235   0.395   1.782
 4029SOL     OW22295   4.377   3.759   1.468
 4029SOL    HW122296   4.385   3.857   1.486
 4029SOL    HW222297   4.371   3.745   1.369
 4030SOL     OW22298   8.948   5.789   2.506
 4030SOL    HW122299   8.984   5.876   2.541
 4030SOL    HW222300   8.931   5.797   2.408
 4031SOL     OW22301   6.055   9.275   2.265
 4031SOL    HW122302   5.981   9.277   2.197
 4031SOL    HW222303   6.062   9.363   2.310
 4032SOL     OW22304   0.628   5.878   0.575
 4032SOL    HW122305   0.616   5.781   0.594
 4032SOL    HW222306   0.689   5.890   0.496
 4033SOL     OW22307   0.544   8.365   2.195
 4033SOL    HW122308   0.534   8.464   2.194
 4033SOL    HW222309   0.458   8.322   2.168
 4034SOL     OW22310   9.345   6.625   2.602
 4034SOL    HW122311   9.297   6.712   2.609
 4034SOL    HW222312   9.418   6.633   2.534
 4035SOL     OW22313   1.321   6.552   1.376
 4035SOL    HW122314   1.399   6.615   1.383
 4035SOL    HW222315   1.256   6.570   1.450
 4036SOL     OW22316   1.368   8.067   0.636
 4036SOL    HW122317   1.396   7.971   0.636
 4036SOL    HW222318   1.335   8.092   0.727
 4037SOL     OW22319   3.265   2.469   0.330
 4037SOL    HW122320   3.357   2.457   0.366
 4037SOL    HW222321   3.263   2.546   0.266
 4038SOL     OW22322   2.205   1.508   1.762
 4038SOL    HW122323   2.246   1.475   1.848
 4038SOL    HW222324   2.252   1.466   1.685
 4039SOL     OW22325   8.804   3.700   1.318
 4039SOL    HW122326   8.901   3.702   1.292
 4039SOL    HW222327   8.772   3.794   1.334
 4040SOL     OW22328   8.842   1.395   2.536
 4040SOL    HW122329   8.785   1.332   2.589
 4040SOL    HW222330   8.783   1.449   2.476
 4041SOL     OW22331   4.161   0.853   2.464
 4041SOL    HW122332   4.176   0.756   2.449
 4041SOL    HW222333   4.232   0.905   2.415
 4042SOL     OW22334   9.392   6.716   1.184
 4042SOL    HW122335   9.471   6.707   1.124
 4042SOL    HW222336   9.317   6.661   1.149
 4043SOL     OW22337   8.788   8.648   0.087
 4043SOL    HW122338   8.761   8.559   0.050
 4043SOL    HW222339   8.861   8.636   0.154
 4044SOL     OW22340   1.459   7.991   2.537
 4044SOL    HW122341   1.472   8.088   2.558
 4044SOL    HW222342   1.545   7.952   2.504
 4045SOL     OW22343   9.483   9.631   1.732
 4045SOL    HW122344   9.565   9.664   1.778
 4045SOL    HW222345   9.418   9.597   1.800
 4046SOL     OW22346   9.767   0.013   0.257
 4046SOL    HW122347   9.859   0.041   0.284
 4046SOL    HW222348   9.704   0.089   0.273
 4047SOL     OW22349   1.836   9.365   0.638
 4047SOL    HW122350   1.841   9.465   0.640
 4047SOL    HW222351   1.743   9.336   0.663
 4048SOL     OW22352   8.281   9.121   0.700
 4048SOL    HW122353   8.240   9.078   0.781
 4048SOL    HW222354   8.317   9.050   0.640
 4049SOL     OW22355   4.039   2.355   1.918
 4049SOL    HW122356   4.042   2.455   1.919
 4049SOL    HW222357   3.943   2.325   1.916
 4050SOL     OW22358   9.301   7.998   2.486
 4050SOL    HW122359   9.327   7.909   2.447
 4050SOL    HW222360   9.383   8.045   2.519
 4051SOL     OW22361   1.232   2.813   0.212
 4051SOL    HW122362   1.284   2.888   0.171
 4051SOL    HW222363   1.278   2.727   0.192
 4052SOL     OW22364   9.450   4.154   2.272
 4052SOL    HW122365   9.494   4.235   2.235
 4052SOL    HW222366   9.406   4.103   2.198
 4053SOL     OW22367   2.177   8.570   0.876
 4053SOL    HW122368   2.118   8.491   0.890
 4053SOL    HW222369   2.247   8.548   0.809
 4054SOL     OW22370   3.310   6.874   2.486
 4054SOL    HW122371   3.400   6.890   2.445
 4054SOL    HW222372   3.246   6.846   2.415
 4055SOL     OW22373   2.102   2.290   0.474
 4055SOL    HW122374   2.036   2.328   0.409
 4055SOL    HW222375   2.059   2.281   0.564
 4056SOL     OW22376   4.117   7.514   0.183
 4056SOL    HW122377   4.146   7.529   0.088
 4056SOL    HW222378   4.054   7.587   0.210
 4057SOL     OW22379   2.717   6.416   2.478
 4057SOL    HW122380   2.813   6.402   2.454
 4057SOL    HW222381   2.661   6.347   2.433
 4058SOL     OW22382   0.579   6.029   1.876
 4058SOL    HW122383   0.631   5.966   1.934
 4058SOL    HW222384   0.557   6.111   1.927
 4059SOL     OW22385   1.451   4.112   1.398
 4059SOL    HW122386   1.475   4.207   1.421
 4059SOL    HW222387   1.500   4.050   1.459
 4060SOL     OW22388   9.689   5.410   1.006
 4060SOL    HW122389   9.669   5.505   1.027
 4060SOL    HW222390   9.604   5.363   0.979
 4061SOL     OW22391   3.122   6.631   1.484
 4061SOL    HW122392   3.042   6.654   1.540
 4061SOL    HW222393   3.101   6.553   1.425
 4062SOL     OW22394   2.695   8.534   2.483
 4062SOL    HW122395   2.768   8.595   2.453
 4062SOL    HW222396   2.608   8.584   2.487
 4063SOL     OW22397   0.167   1.695   0.248
 4063SOL    HW122398   0.174   1.794   0.244
 4063SOL    HW222399   0.098   1.664   0.183
 4064SOL     OW22400   2.841   6.169   0.973
 4064SOL    HW122401   2.801   6.108   1.042
 4064SOL    HW222402   2.911   6.119   0.921
 4065SOL     OW22403   3.899   1.601   1.362
 4065SOL    HW122404   3.889   1.506   1.334
 4065SOL    HW222405   3.809   1.644   1.368
 4066SOL     OW22406   9.780   8.122   0.096
 4066SOL    HW122407   9.687   8.084   0.092
 4066SOL    HW222408   9.787   8.184   0.174
 4067SOL     OW22409   3.321   2.710   0.187
 4067SOL    HW122410   3.263   2.791   0.181
 4067SOL    HW222411   3.380   2.705   0.107
 4068SOL     OW22412   4.851   9.791   0.881
 4068SOL    HW122413   4.866   9.883   0.917
 4068SOL    HW222414   4.813   9.733   0.954
 4069SOL     OW22415   2.700   5.825   2.013
 4069SOL    HW122416   2.752   5.867   2.086
 4069SOL    HW222417   2.622   5.776   2.051
 4070SOL     OW22418   3.969   5.143   0.446
 4070SOL    HW122419   4.058   5.101   0.465
 4070SOL    HW222420   3.968   5.237   0.481
 4071SOL     OW22421   8.973   3.406   1.936
 4071SOL    HW122422   8.879   3.437   1.954
 4071SOL    HW222423   9.035   3.450   2.001
 4072SOL     OW22424   1.110   6.108   2.314
 4072SOL    HW122425   1.175   6.032   2.319
 4072SOL    HW222426   1.074   6.114   2.221
 4073SOL     OW22427   8.118   0.751   0.962
 4073SOL    HW122428   8.094   0.692   1.039
 4073SOL    HW222429   8.038   0.766   0.905
 4074SOL     OW22430   9.254   8.623   0.527
 4074SOL    HW122431   9.166   8.575   0.521
 4074SOL    HW222432   9.326   8.565   0.490
 4075SOL     OW22433   0.669   6.324   0.115
 4075SOL    HW122434   0.648   6.276   0.030
 4075SOL    HW222435   0.768   6.341   0.121
 4076SOL     OW22436   2.314   0.969   0.453
 4076SOL    HW122437   2.350   1.019   0.375
 4076SOL    HW222438   2.242   0.907   0.423
 4077SOL     OW22439   9.097   1.531   1.860
 4077SOL    HW122440   9.189   1.564   1.881
 4077SOL    HW222441   9.094   1.432   1.869
 4078SOL     OW22442   0.063   7.620   1.500
 4078SOL    HW122443   0.070   7.521   1.512
 4078SOL    HW222444   0.154   7.660   1.500
 4079SOL     OW22445   4.224   2.162   1.858
 4079SOL    HW122446   4.313   2.203   1.875
 4079SOL    HW222447   4.152   2.228   1.880
 4080SOL     OW22448   2.758   6.329   1.876
 4080SOL    HW122449   2.686   6.398   1.881
 4080SOL    HW222450   2.718   6.238   1.880
 4081SOL     OW22451   9.522   8.150   2.564
 4081SOL    HW122452   9.618   8.134   2.537
 4081SOL    HW222453   9.506   8.248   2.575
 4082SOL     OW22454   8.660   5.479   0.541
 4082SOL    HW122455   8.591   5.416   0.503
 4082SOL    HW222456   8.615   5.561   0.575
 4083SOL     OW22457   8.662   9.157   0.916
 4083SOL    HW122458   8.733   9.220   0.883
 4083SOL    HW222459   8.594   9.208   0.969
 4084SOL     OW22460   1.445   1.229   2.072
 4084SOL    HW122461   1.354   1.266   2.053
 4084SOL    HW222462   1.458   1.220   2.171
 4085SOL     OW22463   3.325   1.017   2.362
 4085SOL    HW122464   3.361   1.065   2.282
 4085SOL    HW222465   3.268   1.079   2.415
 4086SOL     OW22466   8.302   1.429   1.449
 4086SOL    HW122467   8.265   1.390   1.533
 4086SOL    HW222468   8.229   1.436   1.381
 4087SOL     OW22469   7.760   2.859   0.504
 4087SOL    HW122470   7.663   2.882   0.519
 4087SOL    HW222471   7.817   2.935   0.534
 4088SOL     OW22472   2.319   4.609   2.385
 4088SOL    HW122473   2.390   4.540   2.373
 4088SOL    HW222474   2.345   4.693   2.338
 4089SOL     OW22475   9.688   7.823   1.710
 4089SOL    HW122476   9.670   7.876   1.793
 4089SOL    HW222477   9.607   7.769   1.688
 4090SOL     OW22478   9.938   5.034   2.280
 4090SOL    HW122479   9.867   5.064   2.344
 4090SOL    HW222480   0.000   4.971   2.326
 4091SOL     OW22481   0.439   3.818   2.446
 4091SOL    HW122482   0.519   3.784   2.397
 4091SOL    HW222483   0.356   3.780   2.405
 4092SOL     OW22484   2.858   8.370   2.318
 4092SOL    HW122485   2.798   8.412   2.385
 4092SOL    HW222486   2.874   8.274   2.342
 4093SOL     OW22487   4.281   7.545   2.355
 4093SOL    HW122488   4.329   7.589   2.431
 4093SOL    HW222489   4.198   7.501   2.388
 4094SOL     OW22490   8.377   1.529   1.073
 4094SOL    HW122491   8.423   1.469   1.007
 4094SOL    HW222492   8.307   1.476   1.122
 4095SOL     OW22493   4.954   9.691   1.771
 4095SOL    HW122494   5.045   9.651   1.767
 4095SOL    HW222495   4.935   9.722   1.865
 4096SOL     OW22496   1.635   0.927   1.324
 4096SOL    HW122497   1.541   0.957   1.316
 4096SOL    HW222498   1.671   0.950   1.415
 4097SOL     OW22499   7.927   3.217   0.212
 4097SOL    HW122500   7.877   3.289   0.260
 4097SOL    HW222501   7.996   3.178   0.272
 4098SOL     OW22502   1.597   2.968   0.840
 4098SOL    HW122503   1.617   3.014   0.753
 4098SOL    HW222504   1.674   2.978   0.902
 4099SOL     OW22505   2.555   3.847   0.567
 4099SOL    HW122506   2.604   3.768   0.531
 4099SOL    HW222507   2.546   3.839   0.666
 4100SOL     OW22508   3.081   1.820   0.142
 4100SOL    HW122509   3.143   1.870   0.203
 4100SOL    HW222510   3.129   1.742   0.102
 4101SOL     OW22511   2.658   8.063   2.513
 4101SOL    HW122512   2.648   8.144   2.570
 4101SOL    HW222513   2.750   8.061   2.473
 4102SOL     OW22514   0.477   7.663   0.050
 4102SOL    HW122515   0.522   7.690   0.135
 4102SOL    HW222516   0.513   7.718   3.411
 4103SOL     OW22517   4.732   8.625   2.609
 4103SOL    HW122518   4.826   8.614   2.575
 4103SOL    HW222519   4.680   8.681   2.544
 4104SOL     OW22520   0.012   8.958   2.053
 4104SOL    HW122521   9.966   9.024   1.994
 4104SOL    HW222522   9.950   8.883   2.074
 4105SOL     OW22523   4.063   2.718   1.371
 4105SOL    HW122524   4.082   2.701   1.274
 4105SOL    HW222525   4.039   2.632   1.416
 4106SOL     OW22526   8.293   3.761   0.560
 4106SOL    HW122527   8.256   3.851   0.536
 4106SOL    HW222528   8.371   3.772   0.622
 4107SOL     OW22529   6.955   9.541   2.491
 4107SOL    HW122530   7.050   9.523   2.516
 4107SOL    HW222531   6.905   9.578   2.570
 4108SOL     OW22532   1.152   4.591   2.338
 4108SOL    HW122533   1.221   4.587   2.266
 4108SOL    HW222534   1.066   4.625   2.300
 4109SOL     OW22535   7.912   3.732   0.539
 4109SOL    HW122536   7.964   3.663   0.488
 4109SOL    HW222537   7.949   3.739   0.632
 4110SOL     OW22538   8.454   6.005   0.895
 4110SOL    HW122539   8.365   5.960   0.896
 4110SOL    HW222540   8.441   6.104   0.890
 4111SOL     OW22541   8.178   7.598   0.762
 4111SOL    HW122542   8.112   7.644   0.821
 4111SOL    HW222543   8.196   7.654   0.681
 4112SOL     OW22544   8.190   0.945   0.221
 4112SOL    HW122545   8.150   0.854   0.211
 4112SOL    HW222546   8.119   1.014   0.211
 4113SOL     OW22547   1.015   4.220   2.288
 4113SOL    HW122548   1.095   4.261   2.331
 4113SOL    HW222549   0.971   4.156   2.351
 4114SOL     OW22550   1.161   6.618   1.588
 4114SOL    HW122551   1.192   6.695   1.644
 4114SOL    HW222552   1.062   6.623   1.576
 4115SOL     OW22553   8.801   4.874   0.908
 4115SOL    HW122554   8.848   4.933   0.842
 4115SOL    HW222555   8.868   4.818   0.957
 4116SOL     OW22556   3.603   1.531   1.621
 4116SOL    HW122557   3.625   1.577   1.535
 4116SOL    HW222558   3.518   1.570   1.658
 4117SOL     OW22559   3.557   1.870   1.903
 4117SOL    HW122560   3.545   1.960   1.861
 4117SOL    HW222561   3.652   1.840   1.890
 4118SOL     OW22562   1.671   5.417   0.865
 4118SOL    HW122563   1.593   5.479   0.876
 4118SOL    HW222564   1.754   5.471   0.855
 4119SOL     OW22565  10.000   4.677   0.091
 4119SOL    HW122566   9.950   4.764   0.089
 4119SOL    HW222567  10.000   4.636   0.000
 4120SOL     OW22568   3.514   2.450   0.438
 4120SOL    HW122569   3.590   2.513   0.426
 4120SOL    HW222570   3.486   2.449   0.534
 4121SOL     OW22571   9.421   8.180   1.542
 4121SOL    HW122572   9.514   8.147   1.563
 4121SOL    HW222573   9.379   8.119   1.474
 4122SOL     OW22574   0.073   5.324   0.291
 4122SOL    HW122575   0.011   5.284   0.359
 4122SOL    HW222576   0.167   5.313   0.322
 4123SOL     OW22577   1.772   7.679   1.156
 4123SOL    HW122578   1.844   7.647   1.095
 4123SOL    HW222579   1.684   7.674   1.109
 4124SOL     OW22580   9.675   6.014   1.114
 4124SOL    HW122581   9.708   6.016   1.019
 4124SOL    HW222582   9.645   5.922   1.137
 4125SOL     OW22583   1.271   3.951   1.956
 4125SOL    HW122584   1.259   3.852   1.959
 4125SOL    HW222585   1.267   3.983   1.862
 4126SOL     OW22586   7.842   2.331   2.629
 4126SOL    HW122587   7.870   2.255   2.571
 4126SOL    HW222588   7.921   2.390   2.645
 4127SOL     OW22589   8.749   4.241   1.415
 4127SOL    HW122590   8.776   4.221   1.510
 4127SOL    HW222591   8.674   4.181   1.389
 4128SOL     OW22592   3.945   1.299   2.399
 4128SOL    HW122593   3.893   1.363   2.342
 4128SOL    HW222594   3.881   1.237   2.445
 4129SOL     OW22595   9.822   1.290   2.447
 4129SOL    HW122596   9.894   1.224   2.468
 4129SOL    HW222597   9.752   1.246   2.392
 4130SOL     OW22598   2.497   6.129   0.260
 4130SOL    HW122599   2.412   6.137   0.312
 4130SOL    HW222600   2.486   6.059   0.190
 4131SOL     OW22601   1.616   5.380   0.601
 4131SOL    HW122602   1.627   5.378   0.700
 4131SOL    HW222603   1.531   5.333   0.576
 4132SOL     OW22604   9.143   4.711   0.568
 4132SOL    HW122605   9.116   4.762   0.486
 4132SOL    HW222606   9.064   4.661   0.604
 4133SOL     OW22607   8.418   7.583   0.065
 4133SOL    HW122608   8.510   7.573   0.026
 4133SOL    HW222609   8.397   7.504   0.122
 4134SOL     OW22610   8.904   8.568   1.833
 4134SOL    HW122611   8.888   8.639   1.765
 4134SOL    HW222612   9.002   8.559   1.850
 4135SOL     OW22613   8.032   1.896   1.418
 4135SOL    HW122614   7.951   1.837   1.418
 4135SOL    HW222615   8.034   1.950   1.334
 4136SOL     OW22616   0.211   3.774   1.978
 4136SOL    HW122617   0.302   3.816   1.978
 4136SOL    HW222618   0.211   3.695   1.917
 4137SOL     OW22619   4.266   2.174   2.502
 4137SOL    HW122620   4.289   2.081   2.530
 4137SOL    HW222621   4.305   2.192   2.411
 4138SOL     OW22622   0.080   5.809   1.808
 4138SOL    HW122623   0.146   5.871   1.764
 4138SOL    HW222624   0.089   5.816   1.907
 4139SOL     OW22625   0.489   3.471   0.256
 4139SOL    HW122626   0.566   3.418   0.292
 4139SOL    HW222627   0.501   3.568   0.280
 4140SOL     OW22628   3.529   6.976   0.602
 4140SOL    HW122629   3.480   7.063   0.593
 4140SOL    HW222630   3.578   6.957   0.517
 4141SOL     OW22631   4.466   2.278   1.917
 4141SOL    HW122632   4.516   2.193   1.934
 4141SOL    HW222633   4.458   2.329   2.002
 4142SOL     OW22634   0.469   6.167   1.431
 4142SOL    HW122635   0.497   6.133   1.341
 4142SOL    HW222636   0.482   6.095   1.499
 4143SOL     OW22637   2.275   9.020   2.471
 4143SOL    HW122638   2.365   8.990   2.505
 4143SOL    HW222639   2.264   8.992   2.376
 4144SOL     OW22640   1.957   3.688   2.609
 4144SOL    HW122641   1.931   3.631   2.686
 4144SOL    HW222642   1.899   3.665   2.530
 4145SOL     OW22643   2.253   9.960   0.682
 4145SOL    HW122644   2.237   9.992   0.588
 4145SOL    HW222645   2.336   9.905   0.685
 4146SOL     OW22646   8.220   5.205   0.391
 4146SOL    HW122647   8.202   5.187   0.488
 4146SOL    HW222648   8.226   5.118   0.342
 4147SOL     OW22649   9.961   2.111   0.252
 4147SOL    HW122650   9.882   2.104   0.190
 4147SOL    HW222651   9.930   2.099   0.346
 4148SOL     OW22652   9.855   3.342   0.107
 4148SOL    HW122653   9.853   3.266   0.041
 4148SOL    HW222654   9.845   3.305   0.199
 4149SOL     OW22655   4.128   9.068   2.538
 4149SOL    HW122656   4.188   9.085   2.460
 4149SOL    HW222657   4.124   8.970   2.556
 4150SOL     OW22658   7.715   8.729   1.981
 4150SOL    HW122659   7.636   8.703   2.037
 4150SOL    HW222660   7.783   8.655   1.983
 4151SOL     OW22661   7.654   9.576   2.455
 4151SOL    HW122662   7.574   9.626   2.487
 4151SOL    HW222663   7.627   9.513   2.381
 4152SOL     OW22664   9.608   6.837   1.719
 4152SOL    HW122665   9.636   6.915   1.774
 4152SOL    HW222666   9.671   6.761   1.735
 4153SOL     OW22667   7.264   9.622   1.377
 4153SOL    HW122668   7.250   9.538   1.324
 4153SOL    HW222669   7.235   9.607   1.471
 4154SOL     OW22670   1.267   1.069   0.321
 4154SOL    HW122671   1.193   1.018   0.280
 4154SOL    HW222672   1.254   1.167   0.304
 4155SOL     OW22673   1.499   7.651   1.388
 4155SOL    HW122674   1.523   7.738   1.346
 4155SOL    HW222675   1.504   7.578   1.319
 4156SOL     OW22676   9.817   2.333   0.543
 4156SOL    HW122677   9.848   2.238   0.542
 4156SOL    HW222678   9.826   2.370   0.636
 4157SOL     OW22679   8.576   8.726   2.016
 4157SOL    HW122680   8.612   8.636   2.041
 4157SOL    HW222681   8.629   8.797   2.062
 4158SOL     OW22682   4.016   9.042   1.940
 4158SOL    HW122683   3.989   9.122   1.887
 4158SOL    HW222684   4.002   9.060   2.037
 4159SOL     OW22685   3.832   9.836   0.692
 4159SOL    HW122686   3.912   9.811   0.747
 4159SOL    HW222687   3.800   9.927   0.720
 4160SOL     OW22688   0.584   6.038   2.514
 4160SOL    HW122689   0.527   6.115   2.542
 4160SOL    HW222690   0.675   6.048   2.554
 4161SOL     OW22691   9.011   3.822   0.381
 4161SOL    HW122692   9.033   3.725   0.377
 4161SOL    HW222693   8.988   3.855   0.290
 4162SOL     OW22694   2.052   0.004   1.611
 4162SOL    HW122695   2.034   9.912   1.646
 4162SOL    HW222696   1.965   0.047   1.585
 4163SOL     OW22697   9.959   0.062   1.147
 4163SOL    HW122698   0.041   0.049   1.091
 4163SOL    HW222699   9.879   0.032   1.095
 4164SOL     OW22700   9.726   5.131   2.435
 4164SOL    HW122701   9.674   5.103   2.516
 4164SOL    HW222702   9.668   5.122   2.354
 4165SOL     OW22703   2.412   9.013   1.400
 4165SOL    HW122704   2.327   9.048   1.440
 4165SOL    HW222705   2.425   8.918   1.428
 4166SOL     OW22706   9.109   5.327   1.177
 4166SOL    HW122707   9.074   5.271   1.103
 4166SOL    HW222708   9.209   5.325   1.177
 4167SOL     OW22709   0.503   1.488   2.427
 4167SOL    HW122710   0.412   1.524   2.446
 4167SOL    HW222711   0.542   1.451   2.512
 4168SOL     OW22712   8.122   2.482   0.356
 4168SOL    HW122713   8.136   2.407   0.421
 4168SOL    HW222714   8.026   2.486   0.330
 4169SOL     OW22715   8.051   7.918   2.462
 4169SOL    HW122716   8.006   7.969   2.389
 4169SOL    HW222717   7.984   7.887   2.529
 4170SOL     OW22718   8.889   9.761   1.444
 4170SOL    HW122719   8.968   9.782   1.501
 4170SOL    HW222720   8.835   9.688   1.487
 4171SOL     OW22721   7.905   9.076   0.506
 4171SOL    HW122722   7.834   9.049   0.442
 4171SOL    HW222723   7.986   9.018   0.492
 4172SOL     OW22724   1.261   9.373   1.239
 4172SOL    HW122725   1.276   9.400   1.143
 4172SOL    HW222726   1.266   9.454   1.297
 4173SOL     OW22727   9.124   5.970   1.729
 4173SOL    HW122728   9.158   5.947   1.638
 4173SOL    HW222729   9.113   5.886   1.782
 4174SOL     OW22730   3.280   2.238   2.234
 4174SOL    HW122731   3.295   2.145   2.267
 4174SOL    HW222732   3.367   2.287   2.230
 4175SOL     OW22733   4.049   4.327   1.658
 4175SOL    HW122734   3.960   4.290   1.686
 4175SOL    HW222735   4.121   4.282   1.710
 4176SOL     OW22736   1.993   3.704   1.183
 4176SOL    HW122737   2.066   3.737   1.243
 4176SOL    HW222738   2.034   3.668   1.099
 4177SOL     OW22739   0.592   8.202   1.746
 4177SOL    HW122740   0.659   8.191   1.673
 4177SOL    HW222741   0.634   8.250   1.823
 4178SOL     OW22742   4.679   8.359   1.909
 4178SOL    HW122743   4.711   8.432   1.969
 4178SOL    HW222744   4.650   8.280   1.964
 4179SOL     OW22745   9.384   3.257   1.282
 4179SOL    HW122746   9.377   3.354   1.305
 4179SOL    HW222747   9.474   3.222   1.311
 4180SOL     OW22748   3.403   9.676   0.828
 4180SOL    HW122749   3.465   9.705   0.754
 4180SOL    HW222750   3.339   9.750   0.848
 4181SOL     OW22751   8.786   0.285   0.169
 4181SOL    HW122752   8.785   0.217   0.096
 4181SOL    HW222753   8.693   0.321   0.182
 4182SOL     OW22754   8.638   4.686   0.199
 4182SOL    HW122755   8.562   4.631   0.233
 4182SOL    HW222756   8.637   4.776   0.244
 4183SOL     OW22757   2.731   9.621   2.205
 4183SOL    HW122758   2.656   9.670   2.248
 4183SOL    HW222759   2.699   9.531   2.175
 4184SOL     OW22760   8.885   2.176   1.279
 4184SOL    HW122761   8.824   2.229   1.338
 4184SOL    HW222762   8.943   2.117   1.336
 4185SOL     OW22763   9.313   4.359   1.914
 4185SOL    HW122764   9.243   4.324   1.976
 4185SOL    HW222765   9.284   4.447   1.876
 4186SOL     OW22766   8.586   5.677   2.093
 4186SOL    HW122767   8.625   5.661   2.183
 4186SOL    HW222768   8.527   5.601   2.068
 4187SOL     OW22769   0.307   5.164   2.550
 4187SOL    HW122770   0.213   5.194   2.563
 4187SOL    HW222771   0.366   5.244   2.538
 4188SOL     OW22772   2.977   9.248   2.366
 4188SOL    HW122773   2.958   9.259   2.269
 4188SOL    HW222774   2.895   9.272   2.419
 4189SOL     OW22775   2.158   1.656   2.455
 4189SOL    HW122776   2.064   1.644   2.486
 4189SOL    HW222777   2.160   1.665   2.355
 4190SOL     OW22778   4.423   8.001   0.667
 4190SOL    HW122779   4.482   8.079   0.690
 4190SOL    HW222780   4.463   7.952   0.589
 4191SOL     OW22781   1.036   4.293   1.378
 4191SOL    HW122782   0.959   4.344   1.339
 4191SOL    HW222783   1.096   4.262   1.304
 4192SOL     OW22784   8.364   8.998   0.143
 4192SOL    HW122785   8.285   8.963   0.092
 4192SOL    HW222786   8.443   8.939   0.127
 4193SOL     OW22787   9.590   2.418   1.391
 4193SOL    HW122788   9.498   2.412   1.352
 4193SOL    HW222789   9.656   2.386   1.323
 4194SOL     OW22790   9.596   8.178   1.192
 4194SOL    HW122791   9.628   8.272   1.194
 4194SOL    HW222792   9.500   8.176   1.164
 4195SOL     OW22793   3.072   1.870   2.380
 4195SOL    HW122794   3.085   1.778   2.342
 4195SOL    HW222795   2.992   1.912   2.337
 4196SOL     OW22796   2.085   0.629   0.692
 4196SOL    HW122797   2.029   0.599   0.769
 4196SOL    HW222798   2.113   0.724   0.706
 4197SOL     OW22799   5.016   8.576   1.900
 4197SOL    HW122800   4.999   8.556   1.804
 4197SOL    HW222801   4.934   8.557   1.954
 4198SOL     OW22802   6.728   9.497   1.893
 4198SOL    HW122803   6.796   9.427   1.914
 4198SOL    HW222804   6.738   9.573   1.956
 4199SOL     OW22805   1.796   4.200   0.040
 4199SOL    HW122806   1.765   4.291   0.013
 4199SOL    HW222807   1.862   4.209   0.115
 4200SOL     OW22808   3.065   3.270   2.494
 4200SOL    HW122809   2.993   3.289   2.560
 4200SOL    HW222810   3.056   3.331   2.415
 4201SOL     OW22811   1.327   7.378   0.585
 4201SOL    HW122812   1.268   7.306   0.623
 4201SOL    HW222813   1.280   7.424   0.511
 4202SOL     OW22814   1.273   2.329   1.134
 4202SOL    HW122815   1.324   2.262   1.080
 4202SOL    HW222816   1.323   2.348   1.219
 4203SOL     OW22817   8.499   6.235   1.605
 4203SOL    HW122818   8.430   6.259   1.673
 4203SOL    HW222819   8.516   6.314   1.546
 4204SOL     OW22820   1.070   6.545   2.134
 4204SOL    HW122821   1.100   6.641   2.131
 4204SOL    HW222822   1.140   6.490   2.179
 4205SOL     OW22823   8.356   7.744   1.183
 4205SOL    HW122824   8.382   7.721   1.276
 4205SOL    HW222825   8.402   7.829   1.155
 4206SOL     OW22826   8.127   9.634   2.669
 4206SOL    HW122827   8.148   9.568   2.597
 4206SOL    HW222828   8.126   9.726   2.630
 4207SOL     OW22829   2.232   0.572   0.289
 4207SOL    HW122830   2.252   0.546   0.383
 4207SOL    HW222831   2.316   0.606   0.245
 4208SOL     OW22832   0.452   7.076   1.358
 4208SOL    HW122833   0.428   7.140   1.432
 4208SOL    HW222834   0.386   7.085   1.284
 4209SOL     OW22835   2.062   1.472   0.479
 4209SOL    HW122836   2.104   1.493   0.567
 4209SOL    HW222837   2.058   1.373   0.466
 4210SOL     OW22838   8.787   2.393   0.485
 4210SOL    HW122839   8.772   2.298   0.512
 4210SOL    HW222840   8.793   2.399   0.385
 4211SOL     OW22841   3.018   7.620   0.831
 4211SOL    HW122842   3.115   7.597   0.835
 4211SOL    HW222843   2.972   7.585   0.912
 4212SOL     OW22844   3.528   5.868   0.385
 4212SOL    HW122845   3.624   5.866   0.357
 4212SOL    HW222846   3.518   5.822   0.473
 4213SOL     OW22847   9.153   4.250   0.530
 4213SOL    HW122848   9.220   4.319   0.558
 4213SOL    HW222849   9.081   4.294   0.476
 4214SOL     OW22850   0.660   7.462   1.201
 4214SOL    HW122851   0.750   7.469   1.244
 4214SOL    HW222852   0.649   7.532   1.131
 4215SOL     OW22853   3.568   2.932   1.879
 4215SOL    HW122854   3.664   2.910   1.893
 4215SOL    HW222855   3.511   2.862   1.922
 4216SOL     OW22856   1.994   7.359   0.477
 4216SOL    HW122857   2.076   7.401   0.516
 4216SOL    HW222858   1.977   7.271   0.521
 4217SOL     OW22859   0.523   8.349   2.473
 4217SOL    HW122860   0.481   8.433   2.507
 4217SOL    HW222861   0.534   8.354   2.374
 4218SOL     OW22862   2.449   2.345   1.115
 4218SOL    HW122863   2.493   2.430   1.142
 4218SOL    HW222864   2.502   2.300   1.043
 4219SOL     OW22865   8.975   9.483   0.958
 4219SOL    HW122866   8.923   9.416   0.906
 4219SOL    HW222867   8.940   9.575   0.938
 4220SOL     OW22868   1.231   4.982   2.272
 4220SOL    HW122869   1.212   5.003   2.368
 4220SOL    HW222870   1.329   4.965   2.261
 4221SOL     OW22871   0.383   3.291   0.064
 4221SOL    HW122872   0.437   3.352   0.121
 4221SOL    HW222873   0.305   3.340   0.026
 4222SOL     OW22874   8.008   1.995   1.987
 4222SOL    HW122875   8.007   1.930   2.062
 4222SOL    HW222876   8.049   1.953   1.906
 4223SOL     OW22877   8.712   9.058   1.347
 4223SOL    HW122878   8.780   9.030   1.279
 4223SOL    HW222879   8.634   8.996   1.343
 4224SOL     OW22880   0.588   2.352   0.793
 4224SOL    HW122881   0.613   2.408   0.714
 4224SOL    HW222882   0.540   2.409   0.860
 4225SOL     OW22883   0.096   2.186   2.450
 4225SOL    HW122884   0.045   2.271   2.463
 4225SOL    HW222885   0.109   2.170   2.352
 4226SOL     OW22886   2.313   6.692   1.235
 4226SOL    HW122887   2.366   6.768   1.273
 4226SOL    HW222888   2.369   6.609   1.236
 4227SOL     OW22889   1.676   2.216   1.469
 4227SOL    HW122890   1.651   2.220   1.373
 4227SOL    HW222891   1.775   2.225   1.479
 4228SOL     OW22892   0.263   5.735   0.409
 4228SOL    HW122893   0.165   5.753   0.418
 4228SOL    HW222894   0.289   5.661   0.471
 4229SOL     OW22895   0.687   9.233   0.195
 4229SOL    HW122896   0.664   9.273   0.283
 4229SOL    HW222897   0.612   9.173   0.165
 4230SOL     OW22898   1.377   8.786   0.170
 4230SOL    HW122899   1.285   8.748   0.157
 4230SOL    HW222900   1.443   8.732   0.118
 4231SOL     OW22901   9.783   4.486   1.896
 4231SOL    HW122902   9.757   4.394   1.925
 4231SOL    HW222903   9.700   4.541   1.883
 4232SOL     OW22904   1.933   4.539   1.389
 4232SOL    HW122905   1.868   4.582   1.325
 4232SOL    HW222906   2.026   4.555   1.357
 4233SOL     OW22907   1.103   7.261   1.813
 4233SOL    HW122908   1.125   7.358   1.809
 4233SOL    HW222909   1.174   7.213   1.865
 4234SOL     OW22910   4.888   0.731   1.964
 4234SOL    HW122911   4.980   0.764   1.984
 4234SOL    HW222912   4.829   0.746   2.044
 4235SOL     OW22913   0.492   7.122   0.144
 4235SOL    HW122914   0.435   7.085   0.071
 4235SOL    HW222915   0.479   7.221   0.151
 4236SOL     OW22916   2.145   1.587   0.736
 4236SOL    HW122917   2.160   1.527   0.815
 4236SOL    HW222918   2.067   1.648   0.755
 4237SOL     OW22919   2.952   2.531   0.669
 4237SOL    HW122920   2.988   2.445   0.704
 4237SOL    HW222921   2.863   2.516   0.627
 4238SOL     OW22922   9.422   4.937   1.945
 4238SOL    HW122923   9.431   5.035   1.965
 4238SOL    HW222924   9.485   4.912   1.872
 4239SOL     OW22925   7.622   4.471   0.165
 4239SOL    HW122926   7.620   4.383   0.212
 4239SOL    HW222927   7.709   4.517   0.185
 4240SOL     OW22928   8.591   0.574   1.444
 4240SOL    HW122929   8.594   0.474   1.442
 4240SOL    HW222930   8.520   0.607   1.382
 4241SOL     OW22931   3.999   9.301   2.589
 4241SOL    HW122932   4.049   9.215   2.584
 4241SOL    HW222933   3.927   9.302   2.520
 4242SOL     OW22934   2.952   7.125   2.640
 4242SOL    HW122935   2.943   7.153   2.736
 4242SOL    HW222936   3.049   7.121   2.616
 4243SOL     OW22937   7.454   9.399   0.655
 4243SOL    HW122938   7.452   9.312   0.705
 4243SOL    HW222939   7.381   9.459   0.690
 4244SOL     OW22940   9.234   9.052   1.972
 4244SOL    HW122941   9.305   8.985   1.951
 4244SOL    HW222942   9.151   9.004   2.002
 4245SOL     OW22943   9.838   0.150   2.127
 4245SOL    HW122944   9.893   0.234   2.123
 4245SOL    HW222945   9.854   0.096   2.045
 4246SOL     OW22946   3.716   5.092   0.342
 4246SOL    HW122947   3.710   5.076   0.243
 4246SOL    HW222948   3.811   5.112   0.367
 4247SOL     OW22949   0.027   4.826   1.659
 4247SOL    HW122950   0.069   4.806   1.747
 4247SOL    HW222951   0.094   4.813   1.586
 4248SOL     OW22952   3.380   4.544   1.059
 4248SOL    HW122953   3.350   4.506   0.971
 4248SOL    HW222954   3.477   4.567   1.054
 4249SOL     OW22955   0.267   5.980   1.691
 4249SOL    HW122956   0.363   5.975   1.662
 4249SOL    HW222957   0.251   6.066   1.739
 4250SOL     OW22958   2.424   4.253   0.874
 4250SOL    HW122959   2.449   4.226   0.781
 4250SOL    HW222960   2.326   4.237   0.888
 4251SOL     OW22961   8.419   1.214   2.379
 4251SOL    HW122962   8.432   1.244   2.474
 4251SOL    HW222963   8.372   1.286   2.328
 4252SOL     OW22964   3.126   5.606   1.465
 4252SOL    HW122965   3.176   5.550   1.398
 4252SOL    HW222966   3.107   5.696   1.425
 4253SOL     OW22967   0.087   1.102   0.797
 4253SOL    HW122968   0.073   1.119   0.700
 4253SOL    HW222969   0.137   1.016   0.809
 4254SOL     OW22970   3.682   8.351   0.465
 4254SOL    HW122971   3.584   8.369   0.464
 4254SOL    HW222972   3.728   8.423   0.518
 4255SOL     OW22973   3.894   8.778   1.470
 4255SOL    HW122974   3.969   8.842   1.482
 4255SOL    HW222975   3.812   8.826   1.440
 4256SOL     OW22976   1.366   0.435   1.579
 4256SOL    HW122977   1.312   0.452   1.662
 4256SOL    HW222978   1.320   0.364   1.524
 4257SOL     OW22979   4.283   7.413   0.375
 4257SOL    HW122980   4.223   7.440   0.300
 4257SOL    HW222981   4.299   7.491   0.435
 4258SOL     OW22982   8.285   7.298   2.562
 4258SOL    HW122983   8.385   7.304   2.564
 4258SOL    HW222984   8.250   7.355   2.487
 4259SOL     OW22985   4.636   8.108   2.040
 4259SOL    HW122986   4.681   8.067   1.961
 4259SOL    HW222987   4.703   8.122   2.113
 4260SOL     OW22988   9.794   8.187   2.459
 4260SOL    HW122989   9.759   8.118   2.395
 4260SOL    HW222990   9.893   8.198   2.445
 4261SOL     OW22991   2.560   2.582   1.202
 4261SOL    HW122992   2.532   2.674   1.174
 4261SOL    HW222993   2.576   2.580   1.300
 4262SOL     OW22994   2.602   3.573   2.041
 4262SOL    HW122995   2.627   3.547   2.134
 4262SOL    HW222996   2.686   3.589   1.988
 4263SOL     OW22997   8.745   6.817   0.704
 4263SOL    HW122998   8.732   6.743   0.638
 4263SOL    HW222999   8.826   6.799   0.759
 4264SOL     OW23000   9.249   6.171   1.348
 4264SOL    HW123001   9.347   6.162   1.333
 4264SOL    HW223002   9.215   6.089   1.394
 4265SOL     OW23003   3.102   6.204   2.186
 4265SOL    HW123004   3.125   6.270   2.116
 4265SOL    HW223005   3.095   6.113   2.145
 4266SOL     OW23006   1.984   5.904   1.570
 4266SOL    HW123007   1.885   5.893   1.561
 4266SOL    HW223008   2.010   5.902   1.666
 4267SOL     OW23009   2.071   1.249   1.512
 4267SOL    HW123010   2.156   1.301   1.513
 4267SOL    HW223011   2.033   1.249   1.419
 4268SOL     OW23012   1.280   4.649   2.576
 4268SOL    HW123013   1.235   4.593   2.646
 4268SOL    HW223014   1.232   4.640   2.489
 4269SOL     OW23015   0.420   6.491   1.101
 4269SOL    HW123016   0.351   6.517   1.033
 4269SOL    HW223017   0.374   6.459   1.184
 4270SOL     OW23018   1.420   9.522   0.568
 4270SOL    HW123019   1.427   9.430   0.529
 4270SOL    HW223020   1.324   9.542   0.589
 4271SOL     OW23021   2.226   9.949   1.395
 4271SOL    HW123022   2.165   9.976   1.469
 4271SOL    HW223023   2.177   9.949   1.309
 4272SOL     OW23024   9.235   4.929   0.708
 4272SOL    HW123025   9.298   4.978   0.649
 4272SOL    HW223026   9.208   4.843   0.664
 4273SOL     OW23027   0.179   0.248   1.696
 4273SOL    HW123028   0.192   0.202   1.608
 4273SOL    HW223029   0.178   0.179   1.769
 4274SOL     OW23030   1.319   4.190   0.765
 4274SOL    HW123031   1.242   4.127   0.778
 4274SOL    HW223032   1.285   4.284   0.765
 4275SOL     OW23033   3.084   3.079   1.296
 4275SOL    HW123034   3.100   3.014   1.370
 4275SOL    HW223035   3.127   3.046   1.212
 4276SOL     OW23036   0.677   4.007   1.130
 4276SOL    HW123037   0.651   3.911   1.127
 4276SOL    HW223038   0.776   4.016   1.125
 4277SOL     OW23039   2.822   8.020   0.145
 4277SOL    HW123040   2.916   8.001   0.174
 4277SOL    HW223041   2.771   7.935   0.139
 4278SOL     OW23042   3.143   4.825   1.629
 4278SOL    HW123043   3.127   4.884   1.708
 4278SOL    HW223044   3.179   4.737   1.661
 4279SOL     OW23045   3.758   5.188   1.412
 4279SOL    HW123046   3.680   5.240   1.444
 4279SOL    HW223047   3.726   5.106   1.365
 4280SOL     OW23048   9.131   2.969   0.609
 4280SOL    HW123049   9.158   3.000   0.518
 4280SOL    HW223050   9.055   2.905   0.602
 4281SOL     OW23051   9.524   2.512   1.813
 4281SOL    HW123052   9.622   2.503   1.825
 4281SOL    HW223053   9.498   2.609   1.821
 4282SOL     OW23054   2.402   5.984   1.368
 4282SOL    HW123055   2.451   5.995   1.455
 4282SOL    HW223056   2.320   5.930   1.383
 4283SOL     OW23057   5.834   9.580   2.245
 4283SOL    HW123058   5.819   9.677   2.229
 4283SOL    HW223059   5.921   9.568   2.294
 4284SOL     OW23060   8.245   9.907   1.253
 4284SOL    HW123061   8.276   9.821   1.293
 4284SOL    HW223062   8.302   9.982   1.287
 4285SOL     OW23063   0.326   0.845   1.390
 4285SOL    HW123064   0.330   0.944   1.375
 4285SOL    HW223065   0.281   0.827   1.477
 4286SOL     OW23066   1.759   8.162   2.444
 4286SOL    HW123067   1.743   8.063   2.439
 4286SOL    HW223068   1.740   8.203   2.355
 4287SOL     OW23069   7.967   9.113   1.592
 4287SOL    HW123070   8.044   9.166   1.627
 4287SOL    HW223071   7.921   9.164   1.520
 4288SOL     OW23072   0.379   3.694   0.921
 4288SOL    HW123073   0.303   3.630   0.936
 4288SOL    HW223074   0.343   3.786   0.911
 4289SOL     OW23075   0.732   8.035   0.034
 4289SOL    HW123076   0.679   8.109   0.076
 4289SOL    HW223077   0.715   8.035   3.372
 4290SOL     OW23078   3.391   2.407   1.458
 4290SOL    HW123079   3.476   2.400   1.406
 4290SOL    HW223080   3.362   2.316   1.488
 4291SOL     OW23081   9.282   7.706   1.416
 4291SOL    HW123082   9.292   7.609   1.397
 4291SOL    HW223083   9.187   7.734   1.403
 4292SOL     OW23084   0.246   8.732   2.380
 4292SOL    HW123085   0.263   8.780   2.293
 4292SOL    HW223086   0.159   8.763   2.418
 4293SOL     OW23087   7.523   0.224   1.448
 4293SOL    HW123088   7.457   0.234   1.373
 4293SOL    HW223089   7.609   0.189   1.411
 4294SOL     OW23090   1.624   1.175   2.654
 4294SOL    HW123091   1.594   1.108   2.586
 4294SOL    HW223092   1.692   1.132   2.714
 4295SOL     OW23093   7.079   9.962   1.034
 4295SOL    HW123094   6.982   9.982   1.046
 4295SOL    HW223095   7.094   9.863   1.046
 4296SOL     OW23096   9.092   9.410   0.394
 4296SOL    HW123097   9.052   9.345   0.459
 4296SOL    HW223098   9.119   9.361   0.311
 4297SOL     OW23099   9.066   1.588   1.437
 4297SOL    HW123100   9.004   1.517   1.403
 4297SOL    HW223101   9.026   1.630   1.519
 4298SOL     OW23102   0.323   3.993   1.688
 4298SOL    HW123103   0.289   4.019   1.597
 4298SOL    HW223104   0.254   4.011   1.757
 4299SOL     OW23105   9.650   5.918   1.965
 4299SOL    HW123106   9.576   5.937   1.902
 4299SOL    HW223107   9.613   5.902   2.057
 4300SOL     OW23108   9.985   8.142   0.726
 4300SOL    HW123109   9.997   8.128   0.627
 4300SOL    HW223110   9.892   8.175   0.744
 4301SOL     OW23111   0.213   4.113   1.460
 4301SOL    HW123112   0.208   4.195   1.517
 4301SOL    HW223113   0.269   4.132   1.379
 4302SOL     OW23114   2.336   7.729   1.690
 4302SOL    HW123115   2.337   7.700   1.786
 4302SOL    HW223116   2.411   7.792   1.673
 4303SOL     OW23117   4.092   1.511   0.588
 4303SOL    HW123118   4.101   1.421   0.630
 4303SOL    HW223119   4.148   1.577   0.639
 4304SOL     OW23120   1.245   6.847   0.705
 4304SOL    HW123121   1.176   6.897   0.758
 4304SOL    HW223122   1.332   6.896   0.708
 4305SOL     OW23123   4.109   8.947   1.487
 4305SOL    HW123124   4.119   8.973   1.391
 4305SOL    HW223125   4.134   9.025   1.545
 4306SOL     OW23126   8.020   9.982   2.085
 4306SOL    HW123127   8.007   9.888   2.116
 4306SOL    HW223128   8.019   0.044   2.163
 4307SOL     OW23129   3.155   6.454   0.907
 4307SOL    HW123130   3.133   6.408   0.993
 4307SOL    HW223131   3.087   6.525   0.889
 4308SOL     OW23132   9.533   1.366   1.985
 4308SOL    HW123133   9.619   1.401   2.022
 4308SOL    HW223134   9.546   1.271   1.955
 4309SOL     OW23135   2.447   4.708   0.519
 4309SOL    HW123136   2.438   4.739   0.614
 4309SOL    HW223137   2.482   4.783   0.463
 4310SOL     OW23138   3.539   0.847   1.342
 4310SOL    HW123139   3.476   0.790   1.289
 4310SOL    HW223140   3.488   0.914   1.395
 4311SOL     OW23141   9.859   5.442   2.119
 4311SOL    HW123142   9.924   5.367   2.104
 4311SOL    HW223143   9.823   5.474   2.032
 4312SOL     OW23144   9.177   4.790   1.578
 4312SOL    HW123145   9.084   4.754   1.573
 4312SOL    HW223146   9.187   4.865   1.513
 4313SOL     OW23147   8.872   8.407   0.932
 4313SOL    HW123148   8.840   8.418   0.837
 4313SOL    HW223149   8.813   8.342   0.979
 4314SOL     OW23150   2.269   9.764   2.156
 4314SOL    HW123151   2.202   9.699   2.192
 4314SOL    HW223152   2.273   9.756   2.056
 4315SOL     OW23153   2.284   4.483   1.584
 4315SOL    HW123154   2.371   4.487   1.633
 4315SOL    HW223155   2.269   4.391   1.548
 4316SOL     OW23156   9.285   7.092   1.721
 4316SOL    HW123157   9.302   7.001   1.759
 4316SOL    HW223158   9.188   7.101   1.700
 4317SOL     OW23159   8.741   7.006   2.161
 4317SOL    HW123160   8.813   6.983   2.095
 4317SOL    HW223161   8.754   7.100   2.192
 4318SOL     OW23162   0.049   1.298   0.299
 4318SOL    HW123163   0.137   1.318   0.256
 4318SOL    HW223164   0.004   1.222   0.251
 4319SOL     OW23165   4.593   2.811   1.044
 4319SOL    HW123166   4.689   2.792   1.065
 4319SOL    HW223167   4.542   2.725   1.039
 4320SOL     OW23168   6.085   8.512   2.644
 4320SOL    HW123169   6.005   8.511   2.704
 4320SOL    HW223170   6.057   8.489   2.551
 4321SOL     OW23171   1.207   4.347   0.516
 4321SOL    HW123172   1.214   4.433   0.464
 4321SOL    HW223173   1.242   4.272   0.461
 4322SOL     OW23174   3.461   6.482   1.838
 4322SOL    HW123175   3.372   6.515   1.809
 4322SOL    HW223176   3.505   6.550   1.897
 4323SOL     OW23177   4.092   0.734   0.480
 4323SOL    HW123178   4.187   0.757   0.501
 4323SOL    HW223179   4.071   0.643   0.517
 4324SOL     OW23180   9.168   2.868   2.158
 4324SOL    HW123181   9.131   2.865   2.065
 4324SOL    HW223182   9.266   2.890   2.155
 4325SOL     OW23183   8.981   1.695   1.675
 4325SOL    HW123184   9.028   1.638   1.742
 4325SOL    HW223185   8.947   1.778   1.720
 4326SOL     OW23186   1.951   4.189   2.108
 4326SOL    HW123187   1.855   4.215   2.113
 4326SOL    HW223188   1.995   4.206   2.196
 4327SOL     OW23189   9.495   2.338   2.372
 4327SOL    HW123190   9.491   2.436   2.349
 4327SOL    HW223191   9.477   2.284   2.289
 4328SOL     OW23192   0.935   0.965   0.471
 4328SOL    HW123193   0.968   0.977   0.377
 4328SOL    HW223194   0.944   0.869   0.498
 4329SOL     OW23195   0.514   7.292   0.516
 4329SOL    HW123196   0.612   7.287   0.532
 4329SOL    HW223197   0.490   7.381   0.479
 4330SOL     OW23198   1.758   0.519   0.392
 4330SOL    HW123199   1.838   0.489   0.443
 4330SOL    HW223200   1.702   0.439   0.368
 4331SOL     OW23201   0.248   8.105   0.807
 4331SOL    HW123202   0.158   8.132   0.772
 4331SOL    HW223203   0.282   8.176   0.870
 4332SOL     OW23204   3.405   7.453   0.068
 4332SOL    HW123205   3.353   7.431   3.422
 4332SOL    HW223206   3.343   7.491   0.136
 4333SOL     OW23207   2.756   7.190   0.303
 4333SOL    HW123208   2.668   7.236   0.291
 4333SOL    HW223209   2.830   7.257   0.300
 4334SOL     OW23210   1.385   0.651   2.479
 4334SOL    HW123211   1.416   0.660   2.384
 4334SOL    HW223212   1.457   0.682   2.541
 4335SOL     OW23213   8.985   1.910   0.993
 4335SOL    HW123214   8.897   1.947   1.023
 4335SOL    HW223215   9.012   1.835   1.054
 4336SOL     OW23216   2.019   1.937   2.601
 4336SOL    HW123217   2.111   1.952   2.565
 4336SOL    HW223218   1.960   1.902   2.529
 4337SOL     OW23219   8.647   5.201   0.227
 4337SOL    HW123220   8.738   5.219   0.266
 4337SOL    HW223221   8.653   5.123   0.164
 4338SOL     OW23222   2.325   5.397   1.139
 4338SOL    HW123223   2.343   5.305   1.172
 4338SOL    HW223224   2.391   5.420   1.066
 4339SOL     OW23225   0.631   6.891   1.263
 4339SOL    HW123226   0.648   6.810   1.320
 4339SOL    HW223227   0.571   6.954   1.312
 4340SOL     OW23228   8.164   9.669   1.716
 4340SOL    HW123229   8.108   9.742   1.756
 4340SOL    HW223230   8.260   9.696   1.718
 4341SOL     OW23231   2.064   7.442   0.219
 4341SOL    HW123232   2.071   7.359   0.164
 4341SOL    HW223233   2.035   7.419   0.312
 4342SOL     OW23234   3.727   4.635   1.251
 4342SOL    HW123235   3.787   4.714   1.253
 4342SOL    HW223236   3.688   4.624   1.159
 4343SOL     OW23237   9.242   4.514   0.284
 4343SOL    HW123238   9.203   4.560   0.204
 4343SOL    HW223239   9.169   4.486   0.346
 4344SOL     OW23240   8.148   8.142   2.125
 4344SOL    HW123241   8.109   8.234   2.124
 4344SOL    HW223242   8.189   8.122   2.036
 4345SOL     OW23243   8.059   1.843   0.952
 4345SOL    HW123244   8.022   1.781   1.022
 4345SOL    HW223245   8.156   1.825   0.939
 4346SOL     OW23246   4.062   8.793   2.557
 4346SOL    HW123247   4.011   8.818   2.475
 4346SOL    HW223248   3.998   8.771   2.630
 4347SOL     OW23249   2.534   8.371   1.368
 4347SOL    HW123250   2.593   8.350   1.290
 4347SOL    HW223251   2.472   8.294   1.384
 4348SOL     OW23252   0.101   6.379   0.124
 4348SOL    HW123253   0.190   6.396   0.081
 4348SOL    HW223254   0.070   6.462   0.170
 4349SOL     OW23255   3.926   3.143   1.347
 4349SOL    HW123256   4.019   3.159   1.315
 4349SOL    HW223257   3.873   3.228   1.343
 4350SOL     OW23258   2.269   3.316   1.487
 4350SOL    HW123259   2.220   3.402   1.473
 4350SOL    HW223260   2.364   3.327   1.458
 4351SOL     OW23261   9.271   3.597   2.550
 4351SOL    HW123262   9.230   3.517   2.508
 4351SOL    HW223263   9.325   3.647   2.482
 4352SOL     OW23264   8.912   0.291   0.666
 4352SOL    HW123265   8.847   0.262   0.596
 4352SOL    HW223266   8.885   0.251   0.754
 4353SOL     OW23267   2.380   5.143   1.232
 4353SOL    HW123268   2.347   5.064   1.180
 4353SOL    HW223269   2.396   5.115   1.327
 4354SOL     OW23270   8.021   7.216   0.040
 4354SOL    HW123271   7.982   7.250   3.391
 4354SOL    HW223272   7.980   7.127   0.061
 4355SOL     OW23273   9.655   4.628   0.448
 4355SOL    HW123274   9.720   4.589   0.382
 4355SOL    HW223275   9.574   4.660   0.399
 4356SOL     OW23276   3.368   2.136   1.528
 4356SOL    HW123277   3.466   2.120   1.516
 4356SOL    HW223278   3.317   2.054   1.504
 4357SOL     OW23279   8.233   8.578   2.180
 4357SOL    HW123280   8.182   8.659   2.152
 4357SOL    HW223281   8.307   8.605   2.242
 4358SOL     OW23282   3.901   9.365   0.664
 4358SOL    HW123283   3.998   9.390   0.670
 4358SOL    HW223284   3.892   9.265   0.669
 4359SOL     OW23285   8.803   5.628   0.172
 4359SOL    HW123286   8.895   5.667   0.163
 4359SOL    HW223287   8.735   5.699   0.158
 4360SOL     OW23288   2.987   9.692   2.288
 4360SOL    HW123289   2.990   9.792   2.284
 4360SOL    HW223290   2.897   9.660   2.260
 4361SOL     OW23291   2.463   9.898   2.542
 4361SOL    HW123292   2.513   9.969   2.592
 4361SOL    HW223293   2.498   9.808   2.568
 4362SOL     OW23294   9.896   0.755   1.481
 4362SOL    HW123295   9.820   0.738   1.419
 4362SOL    HW223296   9.866   0.814   1.556
 4363SOL     OW23297   6.135   0.109   2.222
 4363SOL    HW123298   6.105   0.180   2.159
 4363SOL    HW223299   6.194   0.150   2.292
 4364SOL     OW23300   2.075   7.187   0.115
 4364SOL    HW123301   2.139   7.142   0.177
 4364SOL    HW223302   1.983   7.153   0.131
 4365SOL     OW23303   2.059   2.369   2.589
 4365SOL    HW123304   2.067   2.338   2.684
 4365SOL    HW223305   1.965   2.355   2.558
 4366SOL     OW23306   8.717   9.329   1.366
 4366SOL    HW123307   8.630   9.364   1.332
 4366SOL    HW223308   8.720   9.230   1.356
 4367SOL     OW23309   2.827   0.227   0.804
 4367SOL    HW123310   2.882   0.300   0.844
 4367SOL    HW223311   2.805   0.160   0.874
 4368SOL     OW23312   2.002   8.967   2.485
 4368SOL    HW123313   2.098   8.995   2.492
 4368SOL    HW223314   1.949   9.041   2.444
 4369SOL     OW23315   4.738   9.014   1.915
 4369SOL    HW123316   4.793   9.036   1.834
 4369SOL    HW223317   4.651   8.974   1.885
 4370SOL     OW23318   0.936   9.010   0.383
 4370SOL    HW123319   0.949   8.969   0.293
 4370SOL    HW223320   0.854   8.973   0.426
 4371SOL     OW23321   2.454   8.677   2.500
 4371SOL    HW123322   2.495   8.766   2.515
 4371SOL    HW223323   2.361   8.675   2.538
 4372SOL     OW23324   8.168   0.178   0.909
 4372SOL    HW123325   8.149   0.088   0.949
 4372SOL    HW223326   8.227   0.167   0.829
 4373SOL     OW23327   9.792   8.962   1.480
 4373SOL    HW123328   9.826   8.992   1.392
 4373SOL    HW223329   9.701   8.922   1.469
 4374SOL     OW23330   8.156   8.429   1.535
 4374SOL    HW123331   8.177   8.399   1.442
 4374SOL    HW223332   8.078   8.491   1.534
 4375SOL     OW23333   3.171   6.792   2.247
 4375SOL    HW123334   3.121   6.745   2.320
 4375SOL    HW223335   3.108   6.811   2.171
 4376SOL     OW23336   1.444   2.328   2.105
 4376SOL    HW123337   1.472   2.244   2.151
 4376SOL    HW223338   1.523   2.389   2.095
 4377SOL     OW23339   2.805   8.735   1.618
 4377SOL    HW123340   2.767   8.643   1.613
 4377SOL    HW223341   2.882   8.737   1.681
 4378SOL     OW23342   7.591   1.079   0.917
 4378SOL    HW123343   7.668   1.055   0.857
 4378SOL    HW223344   7.506   1.075   0.866
 4379SOL     OW23345   9.173   8.701   1.028
 4379SOL    HW123346   9.243   8.642   1.068
 4379SOL    HW223347   9.203   8.796   1.033
 4380SOL     OW23348   2.264   7.866   0.281
 4380SOL    HW123349   2.213   7.915   0.352
 4380SOL    HW223350   2.315   7.933   0.226
 4381SOL     OW23351   7.789   1.057   2.497
 4381SOL    HW123352   7.780   0.968   2.541
 4381SOL    HW223353   7.884   1.088   2.505
 4382SOL     OW23354   8.616   1.735   1.469
 4382SOL    HW123355   8.527   1.720   1.514
 4382SOL    HW223356   8.612   1.702   1.375
 4383SOL     OW23357   8.920   6.812   2.635
 4383SOL    HW123358   8.875   6.724   2.648
 4383SOL    HW223359   8.877   6.860   2.558
 4384SOL     OW23360   5.061   3.461   1.487
 4384SOL    HW123361   4.971   3.502   1.472
 4384SOL    HW223362   5.052   3.383   1.550
 4385SOL     OW23363   0.209   8.561   0.287
 4385SOL    HW123364   0.240   8.627   0.217
 4385SOL    HW223365   0.140   8.604   0.344
 4386SOL     OW23366   0.466   7.109   2.363
 4386SOL    HW123367   0.469   7.010   2.369
 4386SOL    HW223368   0.448   7.136   2.268
 4387SOL     OW23369   8.770   8.424   0.673
 4387SOL    HW123370   8.757   8.329   0.644
 4387SOL    HW223371   8.681   8.466   0.689
 4388SOL     OW23372   8.830   7.347   0.160
 4388SOL    HW123373   8.822   7.401   0.244
 4388SOL    HW223374   8.783   7.260   0.171
 4389SOL     OW23375   8.783   1.787   1.203
 4389SOL    HW123376   8.720   1.710   1.208
 4389SOL    HW223377   8.877   1.754   1.204
 4390SOL     OW23378   8.924   8.991   1.188
 4390SOL    HW123379   8.920   8.960   1.093
 4390SOL    HW223380   9.002   9.052   1.201
 4391SOL     OW23381   3.056   4.677   0.171
 4391SOL    HW123382   3.046   4.580   0.195
 4391SOL    HW223383   2.966   4.717   0.158
 4392SOL     OW23384   1.368   1.876   2.240
 4392SOL    HW123385   1.424   1.958   2.251
 4392SOL    HW223386   1.286   1.883   2.298
 4393SOL     OW23387   3.714   7.432   0.349
 4393SOL    HW123388   3.649   7.481   0.407
 4393SOL    HW223389   3.716   7.474   0.259
 4394SOL     OW23390   8.001   9.872   1.824
 4394SOL    HW123391   7.956   9.935   1.761
 4394SOL    HW223392   8.018   9.919   1.911
 4395SOL     OW23393   2.880   2.006   1.534
 4395SOL    HW123394   2.906   2.096   1.499
 4395SOL    HW223395   2.867   2.012   1.633
 4396SOL     OW23396   5.678   8.963   2.175
 4396SOL    HW123397   5.635   8.876   2.152
 4396SOL    HW223398   5.775   8.959   2.149
 4397SOL     OW23399   2.621   9.136   0.458
 4397SOL    HW123400   2.582   9.216   0.504
 4397SOL    HW223401   2.565   9.112   0.379
 4398SOL     OW23402   0.233   4.081   0.121
 4398SOL    HW123403   0.172   4.036   0.056
 4398SOL    HW223404   0.181   4.147   0.176
 4399SOL     OW23405   9.528   5.564   2.411
 4399SOL    HW123406   9.588   5.591   2.336
 4399SOL    HW223407   9.568   5.593   2.498
 4400SOL     OW23408   7.709   1.308   1.007
 4400SOL    HW123409   7.686   1.322   1.104
 4400SOL    HW223410   7.669   1.223   0.975
 4401SOL     OW23411   3.011   6.301   1.778
 4401SOL    HW123412   2.918   6.309   1.814
 4401SOL    HW223413   3.077   6.320   1.851
 4402SOL     OW23414   8.787   9.602   2.215
 4402SOL    HW123415   8.768   9.546   2.296
 4402SOL    HW223416   8.877   9.645   2.224
 4403SOL     OW23417   1.679   9.032   1.852
 4403SOL    HW123418   1.664   9.124   1.816
 4403SOL    HW223419   1.634   8.965   1.793
 4404SOL     OW23420   0.202   4.785   1.878
 4404SOL    HW123421   0.174   4.811   1.971
 4404SOL    HW223422   0.281   4.840   1.850
 4405SOL     OW23423   2.243   7.895   2.302
 4405SOL    HW123424   2.313   7.897   2.373
 4405SOL    HW223425   2.245   7.980   2.249
 4406SOL     OW23426   0.814   8.209   1.552
 4406SOL    HW123427   0.863   8.202   1.465
 4406SOL    HW223428   0.868   8.166   1.624
 4407SOL     OW23429   3.983   1.127   1.180
 4407SOL    HW123430   3.982   1.093   1.086
 4407SOL    HW223431   3.922   1.071   1.236
 4408SOL     OW23432   1.971   5.569   2.663
 4408SOL    HW123433   2.030   5.647   2.643
 4408SOL    HW223434   1.960   5.514   2.581
 4409SOL     OW23435   2.373   7.402   1.292
 4409SOL    HW123436   2.471   7.417   1.298
 4409SOL    HW223437   2.327   7.450   1.367
 4410SOL     OW23438   7.154   1.510   0.616
 4410SOL    HW123439   7.200   1.421   0.613
 4410SOL    HW223440   7.214   1.576   0.662
 4411SOL     OW23441   9.907   0.145   0.647
 4411SOL    HW123442   9.992   0.097   0.671
 4411SOL    HW223443   9.895   0.223   0.708
 4412SOL     OW23444   1.428   2.558   0.839
 4412SOL    HW123445   1.459   2.578   0.932
 4412SOL    HW223446   1.421   2.644   0.788
 4413SOL     OW23447   0.016   6.456   0.966
 4413SOL    HW123448   0.022   6.457   1.066
 4413SOL    HW223449   0.105   6.483   0.928
 4414SOL     OW23450   8.999   6.615   1.474
 4414SOL    HW123451   9.051   6.530   1.465
 4414SOL    HW223452   9.037   6.670   1.549
 4415SOL     OW23453   8.449   5.954   1.623
 4415SOL    HW123454   8.467   6.049   1.596
 4415SOL    HW223455   8.466   5.894   1.545
 4416SOL     OW23456   9.514   3.720   0.705
 4416SOL    HW123457   9.490   3.761   0.617
 4416SOL    HW223458   9.501   3.621   0.700
 4417SOL     OW23459   9.021   6.421   0.230
 4417SOL    HW123460   9.118   6.398   0.228
 4417SOL    HW223461   8.968   6.345   0.193
 4418SOL     OW23462   4.451   3.632   0.833
 4418SOL    HW123463   4.503   3.557   0.792
 4418SOL    HW223464   4.514   3.699   0.872
 4419SOL     OW23465   9.280   6.365   2.628
 4419SOL    HW123466   9.253   6.342   2.721
 4419SOL    HW223467   9.312   6.460   2.625
 4420SOL     OW23468   2.251   4.228   1.491
 4420SOL    HW123469   2.227   4.161   1.561
 4420SOL    HW223470   2.172   4.246   1.432
 4421SOL     OW23471   3.856   7.460   0.594
 4421SOL    HW123472   3.830   7.439   0.500
 4421SOL    HW223473   3.799   7.406   0.657
 4422SOL     OW23474   8.977   3.441   0.145
 4422SOL    HW123475   9.018   3.486   0.225
 4422SOL    HW223476   8.968   3.508   0.071
 4423SOL     OW23477   0.539   6.064   1.187
 4423SOL    HW123478   0.495   6.119   1.116
 4423SOL    HW223479   0.629   6.035   1.156
 4424SOL     OW23480   8.344   5.487   2.330
 4424SOL    HW123481   8.329   5.460   2.425
 4424SOL    HW223482   8.338   5.587   2.323
 4425SOL     OW23483   9.190   6.564   1.074
 4425SOL    HW123484   9.106   6.596   1.119
 4425SOL    HW223485   9.196   6.465   1.082
 4426SOL     OW23486   2.466   4.816   1.411
 4426SOL    HW123487   2.484   4.784   1.318
 4426SOL    HW223488   2.489   4.913   1.418
 4427SOL     OW23489   2.923   1.046   0.121
 4427SOL    HW123490   3.019   1.041   0.148
 4427SOL    HW223491   2.917   1.074   0.025
 4428SOL     OW23492   0.595   6.878   0.842
 4428SOL    HW123493   0.547   6.947   0.896
 4428SOL    HW223494   0.533   6.803   0.822
 4429SOL     OW23495   1.777   0.141   1.818
 4429SOL    HW123496   1.787   0.140   1.719
 4429SOL    HW223497   1.770   0.048   1.853
 4430SOL     OW23498   1.879   0.509   2.397
 4430SOL    HW123499   1.863   0.533   2.302
 4430SOL    HW223500   1.808   0.446   2.429
 4431SOL     OW23501   0.765   2.190   2.618
 4431SOL    HW123502   0.842   2.253   2.612
 4431SOL    HW223503   0.714   2.208   2.703
 4432SOL     OW23504   3.512   1.521   0.951
 4432SOL    HW123505   3.601   1.503   0.993
 4432SOL    HW223506   3.487   1.445   0.891
 4433SOL     OW23507   8.899   2.614   0.249
 4433SOL    HW123508   8.845   2.687   0.290
 4433SOL    HW223509   8.990   2.613   0.290
 4434SOL     OW23510   3.069   7.991   2.204
 4434SOL    HW123511   3.140   8.044   2.249
 4434SOL    HW223512   3.097   7.895   2.201
 4435SOL     OW23513   4.517   1.159   1.225
 4435SOL    HW123514   4.423   1.146   1.195
 4435SOL    HW223515   4.546   1.253   1.206
 4436SOL     OW23516   2.990   3.941   1.075
 4436SOL    HW123517   3.078   3.961   1.119
 4436SOL    HW223518   2.960   4.021   1.023
 4437SOL     OW23519   0.513   1.995   1.183
 4437SOL    HW123520   0.567   1.971   1.102
 4437SOL    HW223521   0.463   2.080   1.165
 4438SOL     OW23522   9.827   9.110   0.553
 4438SOL    HW123523   9.811   9.185   0.617
 4438SOL    HW223524   9.877   9.143   0.473
 4439SOL     OW23525   3.813   8.286   0.802
 4439SOL    HW123526   3.791   8.383   0.788
 4439SOL    HW223527   3.729   8.234   0.812
 4440SOL     OW23528   2.362   6.905   1.808
 4440SOL    HW123529   2.424   6.842   1.763
 4440SOL    HW223530   2.270   6.865   1.812
 4441SOL     OW23531   8.726   2.125   0.494
 4441SOL    HW123532   8.725   2.071   0.578
 4441SOL    HW223533   8.658   2.089   0.430
 4442SOL     OW23534   8.835   0.180   0.909
 4442SOL    HW123535   8.769   0.105   0.903
 4442SOL    HW223536   8.910   0.153   0.970
 4443SOL     OW23537   4.819   0.168   0.750
 4443SOL    HW123538   4.845   0.123   0.836
 4443SOL    HW223539   4.843   0.110   0.673
 4444SOL     OW23540   9.526   7.085   0.467
 4444SOL    HW123541   9.429   7.061   0.478
 4444SOL    HW223542   9.581   7.002   0.470
 4445SOL     OW23543   1.680   0.682   0.175
 4445SOL    HW123544   1.587   0.652   0.155
 4445SOL    HW223545   1.715   0.633   0.255
 4446SOL     OW23546   3.992   1.040   0.924
 4446SOL    HW123547   3.961   1.131   0.895
 4446SOL    HW223548   4.058   1.005   0.858
 4447SOL     OW23549   9.457   4.331   0.266
 4447SOL    HW123550   9.454   4.254   0.329
 4447SOL    HW223551   9.383   4.395   0.286
 4448SOL     OW23552   2.352   5.087   0.243
 4448SOL    HW123553   2.312   5.147   0.313
 4448SOL    HW223554   2.281   5.055   0.181
 4449SOL     OW23555   6.973   0.045   1.861
 4449SOL    HW123556   6.875   0.063   1.856
 4449SOL    HW223557   7.019   0.121   1.906
 4450SOL     OW23558   8.999   0.906   2.226
 4450SOL    HW123559   8.940   0.861   2.294
 4450SOL    HW223560   8.955   0.990   2.194
 4451SOL     OW23561   2.262   2.026   1.900
 4451SOL    HW123562   2.239   1.935   1.867
 4451SOL    HW223563   2.350   2.054   1.863
 4452SOL     OW23564   9.420   7.919   0.990
 4452SOL    HW123565   9.386   7.999   1.038
 4452SOL    HW223566   9.355   7.894   0.918
 4453SOL     OW23567   4.193   9.149   1.654
 4453SOL    HW123568   4.254   9.129   1.731
 4453SOL    HW223569   4.110   9.193   1.688
 4454SOL     OW23570   1.934   7.534   2.356
 4454SOL    HW123571   2.019   7.587   2.354
 4454SOL    HW223572   1.914   7.499   2.265
 4455SOL     OW23573   3.476   2.587   2.387
 4455SOL    HW123574   3.493   2.504   2.333
 4455SOL    HW223575   3.560   2.614   2.433
 4456SOL     OW23576   4.462   9.437   1.384
 4456SOL    HW123577   4.425   9.528   1.405
 4456SOL    HW223578   4.390   9.368   1.395
 4457SOL     OW23579   1.333   6.082   2.064
 4457SOL    HW123580   1.390   6.061   1.985
 4457SOL    HW223581   1.364   6.167   2.106
 4458SOL     OW23582   0.555   9.032   0.687
 4458SOL    HW123583   0.606   9.082   0.758
 4458SOL    HW223584   0.486   9.093   0.647
 4459SOL     OW23585   4.072   1.567   1.817
 4459SOL    HW123586   4.102   1.639   1.880
 4459SOL    HW223587   3.973   1.556   1.823
 4460SOL     OW23588   1.745   9.024   1.427
 4460SOL    HW123589   1.744   8.964   1.507
 4460SOL    HW223590   1.832   9.012   1.378
 4461SOL     OW23591   0.095   3.741   1.315
 4461SOL    HW123592   0.094   3.760   1.217
 4461SOL    HW223593   0.054   3.817   1.365
 4462SOL     OW23594   3.453   4.525   0.216
 4462SOL    HW123595   3.402   4.440   0.200
 4462SOL    HW223596   3.548   4.502   0.238
 4463SOL     OW23597   2.112   0.814   0.362
 4463SOL    HW123598   2.069   0.875   0.295
 4463SOL    HW223599   2.137   0.728   0.318
 4464SOL     OW23600   2.160   1.581   2.177
 4464SOL    HW123601   2.108   1.513   2.229
 4464SOL    HW223602   2.223   1.534   2.115
 4465SOL     OW23603   3.663   1.101   1.835
 4465SOL    HW123604   3.724   1.170   1.874
 4465SOL    HW223605   3.608   1.142   1.763
 4466SOL     OW23606   3.893   8.215   1.063
 4466SOL    HW123607   3.802   8.207   1.102
 4466SOL    HW223608   3.886   8.233   0.965
 4467SOL     OW23609   0.350   5.378   2.063
 4467SOL    HW123610   0.443   5.380   2.099
 4467SOL    HW223611   0.320   5.283   2.053
 4468SOL     OW23612   0.141   1.629   0.878
 4468SOL    HW123613   0.163   1.641   0.781
 4468SOL    HW223614   0.050   1.589   0.887
 4469SOL     OW23615   8.502   3.702   1.500
 4469SOL    HW123616   8.512   3.713   1.599
 4469SOL    HW223617   8.550   3.619   1.471
 4470SOL     OW23618   9.868   4.915   2.034
 4470SOL    HW123619   9.840   4.980   1.963
 4470SOL    HW223620   9.890   4.965   2.118
 4471SOL     OW23621   6.695   9.021   2.167
 4471SOL    HW123622   6.781   9.072   2.162
 4471SOL    HW223623   6.682   8.988   2.261
 4472SOL     OW23624   9.550   0.396   1.099
 4472SOL    HW123625   9.494   0.441   1.168
 4472SOL    HW223626   9.646   0.424   1.110
 4473SOL     OW23627   9.986   3.058   0.819
 4473SOL    HW123628   0.043   3.141   0.820
 4473SOL    HW223629   9.894   3.082   0.847
 4474SOL     OW23630   4.284   8.610   2.038
 4474SOL    HW123631   4.310   8.611   1.942
 4474SOL    HW223632   4.193   8.569   2.048
 4475SOL     OW23633   6.153   0.046   2.652
 4475SOL    HW123634   6.223   9.998   2.600
 4475SOL    HW223635   6.065   9.999   2.640
 4476SOL     OW23636   1.208   8.893   2.665
 4476SOL    HW123637   1.232   8.950   2.743
 4476SOL    HW223638   1.270   8.911   2.589
 4477SOL     OW23639   0.856   7.036   1.182
 4477SOL    HW123640   0.787   6.970   1.212
 4477SOL    HW223641   0.812   7.111   1.133
 4478SOL     OW23642   2.073   9.598   2.252
 4478SOL    HW123643   2.088   9.608   2.350
 4478SOL    HW223644   1.981   9.630   2.229
 4479SOL     OW23645   9.532   2.033   0.379
 4479SOL    HW123646   9.546   2.132   0.388
 4479SOL    HW223647   9.605   1.984   0.425
 4480SOL     OW23648   8.246   1.926   2.245
 4480SOL    HW123649   8.271   1.986   2.169
 4480SOL    HW223650   8.328   1.904   2.298
 4481SOL     OW23651   8.198   8.401   1.258
 4481SOL    HW123652   8.162   8.495   1.257
 4481SOL    HW223653   8.220   8.373   1.165
 4482SOL     OW23654   1.413   7.263   1.455
 4482SOL    HW123655   1.473   7.272   1.376
 4482SOL    HW223656   1.467   7.270   1.539
 4483SOL     OW23657   1.872   9.767   1.156
 4483SOL    HW123658   1.820   9.773   1.241
 4483SOL    HW223659   1.888   9.671   1.133
 4484SOL     OW23660   2.333   3.658   2.191
 4484SOL    HW123661   2.386   3.649   2.107
 4484SOL    HW223662   2.356   3.582   2.252
 4485SOL     OW23663   8.160   9.481   2.436
 4485SOL    HW123664   8.191   9.434   2.353
 4485SOL    HW223665   8.061   9.472   2.444
 4486SOL     OW23666   2.506   7.602   0.427
 4486SOL    HW123667   2.426   7.603   0.367
 4486SOL    HW223668   2.502   7.681   0.488
 4487SOL     OW23669   0.979   0.141   1.041
 4487SOL    HW123670   0.893   0.190   1.049
 4487SOL    HW223671   1.052   0.204   1.015
 4488SOL     OW23672   9.479   1.153   1.678
 4488SOL    HW123673   9.427   1.074   1.644
 4488SOL    HW223674   9.516   1.132   1.768
 4489SOL     OW23675   9.557   7.514   2.203
 4489SOL    HW123676   9.613   7.597   2.206
 4489SOL    HW223677   9.513   7.500   2.291
 4490SOL     OW23678   9.479   8.648   2.044
 4490SOL    HW123679   9.538   8.567   2.051
 4490SOL    HW223680   9.422   8.655   2.126
 4491SOL     OW23681   3.695   3.202   1.124
 4491SOL    HW123682   3.737   3.269   1.186
 4491SOL    HW223683   3.766   3.141   1.089
 4492SOL     OW23684   0.536   4.461   2.327
 4492SOL    HW123685   0.467   4.533   2.321
 4492SOL    HW223686   0.599   4.482   2.402
 4493SOL     OW23687   9.794   1.412   0.248
 4493SOL    HW123688   9.719   1.347   0.247
 4493SOL    HW223689   9.879   1.365   0.273
 4494SOL     OW23690   0.546   3.727   0.613
 4494SOL    HW123691   0.592   3.800   0.663
 4494SOL    HW223692   0.523   3.653   0.676
 4495SOL     OW23693   1.242   9.766   1.566
 4495SOL    HW123694   1.160   9.808   1.529
 4495SOL    HW223695   1.221   9.722   1.654
 4496SOL     OW23696   3.518   7.673   1.511
 4496SOL    HW123697   3.483   7.598   1.568
 4496SOL    HW223698   3.508   7.759   1.560
 4497SOL     OW23699   0.106   3.571   2.481
 4497SOL    HW123700   0.033   3.639   2.494
 4497SOL    HW223701   0.168   3.601   2.410
 4498SOL     OW23702   8.451   9.846   1.862
 4498SOL    HW123703   8.441   9.946   1.862
 4498SOL    HW223704   8.507   9.818   1.940
 4499SOL     OW23705   2.537   1.256   2.241
 4499SOL    HW123706   2.443   1.279   2.269
 4499SOL    HW223707   2.598   1.266   2.319
 4500SOL     OW23708   0.491   2.202   2.201
 4500SOL    HW123709   0.563   2.190   2.133
 4500SOL    HW223710   0.525   2.175   2.291
 4501SOL     OW23711   2.393   4.005   0.416
 4501SOL    HW123712   2.429   3.927   0.467
 4501SOL    HW223713   2.298   4.021   0.444
 4502SOL     OW23714   5.078   0.565   2.472
 4502SOL    HW123715   5.079   0.664   2.461
 4502SOL    HW223716   5.067   0.543   2.569
 4503SOL     OW23717   0.194   1.969   0.265
 4503SOL    HW123718   0.107   2.012   0.242
 4503SOL    HW223719   0.228   2.007   0.351
 4504SOL     OW23720   2.258   6.697   0.416
 4504SOL    HW123721   2.188   6.684   0.487
 4504SOL    HW223722   2.298   6.788   0.424
 4505SOL     OW23723   2.726   4.170   2.211
 4505SOL    HW123724   2.732   4.072   2.190
 4505SOL    HW223725   2.753   4.186   2.305
 4506SOL     OW23726   9.743   5.109   1.413
 4506SOL    HW123727   9.809   5.099   1.488
 4506SOL    HW223728   9.792   5.104   1.325
 4507SOL     OW23729   8.924   4.449   1.484
 4507SOL    HW123730   9.005   4.390   1.484
 4507SOL    HW223731   8.844   4.395   1.461
 4508SOL     OW23732   2.225   7.720   0.652
 4508SOL    HW123733   2.265   7.811   0.661
 4508SOL    HW223734   2.131   7.728   0.618
 4509SOL     OW23735   3.176   3.616   1.475
 4509SOL    HW123736   3.099   3.680   1.482
 4509SOL    HW223737   3.160   3.552   1.400
 4510SOL     OW23738   2.527   4.910   0.359
 4510SOL    HW123739   2.464   4.979   0.321
 4510SOL    HW223740   2.608   4.954   0.395
 4511SOL     OW23741   2.489   5.686   2.212
 4511SOL    HW123742   2.484   5.630   2.129
 4511SOL    HW223743   2.432   5.767   2.201
 4512SOL     OW23744   2.736   3.046   0.443
 4512SOL    HW123745   2.655   3.087   0.487
 4512SOL    HW223746   2.748   2.953   0.477
 4513SOL     OW23747   9.668   8.060   1.570
 4513SOL    HW123748   9.688   8.035   1.475
 4513SOL    HW223749   9.681   7.981   1.629
 4514SOL     OW23750   2.200   3.796   0.619
 4514SOL    HW123751   2.150   3.875   0.653
 4514SOL    HW223752   2.159   3.765   0.533
 4515SOL     OW23753   1.200   1.511   2.354
 4515SOL    HW123754   1.166   1.537   2.263
 4515SOL    HW223755   1.140   1.442   2.394
 4516SOL     OW23756   9.358   3.386   2.086
 4516SOL    HW123757   9.423   3.459   2.064
 4516SOL    HW223758   9.267   3.426   2.102
 4517SOL     OW23759   0.987   2.762   1.610
 4517SOL    HW123760   1.074   2.783   1.565
 4517SOL    HW223761   0.917   2.742   1.541
 4518SOL     OW23762   9.979   2.082   1.124
 4518SOL    HW123763   9.880   2.068   1.129
 4518SOL    HW223764   0.024   2.020   1.188
 4519SOL     OW23765   7.759   8.665   0.031
 4519SOL    HW123766   7.694   8.611   3.414
 4519SOL    HW223767   7.840   8.610   0.051
 4520SOL     OW23768   9.713   0.626   2.173
 4520SOL    HW123769   9.812   0.613   2.167
 4520SOL    HW223770   9.691   0.669   2.261
 4521SOL     OW23771   8.678   8.925   0.779
 4521SOL    HW123772   8.643   8.852   0.838
 4521SOL    HW223773   8.663   9.014   0.823
 4522SOL     OW23774   0.752   3.715   2.615
 4522SOL    HW123775   0.744   3.814   2.631
 4522SOL    HW223776   0.668   3.680   2.575
 4523SOL     OW23777   0.780   4.870   0.634
 4523SOL    HW123778   0.826   4.916   0.710
 4523SOL    HW223779   0.744   4.938   0.570
 4524SOL     OW23780   1.657   0.752   2.498
 4524SOL    HW123781   1.753   0.751   2.527
 4524SOL    HW223782   1.646   0.694   2.417
 4525SOL     OW23783   2.954   0.598   0.588
 4525SOL    HW123784   3.011   0.517   0.599
 4525SOL    HW223785   2.987   0.653   0.512
 4526SOL     OW23786   8.133   9.916   1.008
 4526SOL    HW123787   8.170   9.922   1.101
 4526SOL    HW223788   8.151   9.826   0.970
 4527SOL     OW23789   8.850   0.180   1.242
 4527SOL    HW123790   8.942   0.157   1.210
 4527SOL    HW223791   8.844   0.166   1.341
 4528SOL     OW23792   2.964   4.947   2.619
 4528SOL    HW123793   2.959   4.851   2.646
 4528SOL    HW223794   2.906   4.962   2.539
 4529SOL     OW23795   2.652   2.245   1.563
 4529SOL    HW123796   2.580   2.258   1.495
 4529SOL    HW223797   2.620   2.181   1.633
 4530SOL     OW23798   1.597   3.821   0.340
 4530SOL    HW123799   1.574   3.901   0.395
 4530SOL    HW223800   1.568   3.836   0.245
 4531SOL     OW23801   0.243   0.629   2.326
 4531SOL    HW123802   0.316   0.636   2.258
 4531SOL    HW223803   0.154   0.623   2.279
 4532SOL     OW23804   1.415   1.817   0.049
 4532SOL    HW123805   1.440   1.821   0.146
 4532SOL    HW223806   1.491   1.848   3.430
 4533SOL     OW23807   9.542   7.095   1.280
 4533SOL    HW123808   9.536   7.074   1.377
 4533SOL    HW223809   9.458   7.065   1.234
 4534SOL     OW23810   9.699   1.698   0.815
 4534SOL    HW123811   9.724   1.792   0.840
 4534SOL    HW223812   9.648   1.699   0.729
 4535SOL     OW23813   9.360   5.995   0.565
 4535SOL    HW123814   9.365   5.895   0.570
 4535SOL    HW223815   9.405   6.033   0.646
 4536SOL     OW23816   0.124   8.649   1.190
 4536SOL    HW123817   0.146   8.601   1.105
 4536SOL    HW223818   0.110   8.582   1.263
 4537SOL     OW23819   3.117   5.545   2.418
 4537SOL    HW123820   3.061   5.461   2.416
 4537SOL    HW223821   3.098   5.595   2.503
 4538SOL     OW23822   3.065   7.329   1.244
 4538SOL    HW123823   3.122   7.400   1.286
 4538SOL    HW223824   3.123   7.255   1.211
 4539SOL     OW23825   9.191   7.086   2.248
 4539SOL    HW123826   9.156   6.999   2.283
 4539SOL    HW223827   9.258   7.068   2.176
 4540SOL     OW23828   4.011   5.258   2.320
 4540SOL    HW123829   4.022   5.305   2.233
 4540SOL    HW223830   3.954   5.176   2.307
 4541SOL     OW23831   8.960   5.769   0.708
 4541SOL    HW123832   8.903   5.704   0.758
 4541SOL    HW223833   9.057   5.747   0.722
 4542SOL     OW23834   0.864   5.330   1.026
 4542SOL    HW123835   0.868   5.231   1.039
 4542SOL    HW223836   0.949   5.362   0.985
 4543SOL     OW23837   1.333   8.096   1.506
 4543SOL    HW123838   1.357   8.003   1.534
 4543SOL    HW223839   1.342   8.158   1.584
 4544SOL     OW23840   2.754   5.037   0.458
 4544SOL    HW123841   2.752   5.123   0.508
 4544SOL    HW223842   2.784   5.053   0.364
 4545SOL     OW23843   4.051   7.446   2.484
 4545SOL    HW123844   3.971   7.391   2.508
 4545SOL    HW223845   4.100   7.471   2.568
 4546SOL     OW23846   2.497   2.141   2.151
 4546SOL    HW123847   2.480   2.230   2.193
 4546SOL    HW223848   2.566   2.152   2.079
 4547SOL     OW23849   8.925   1.369   1.342
 4547SOL    HW123850   8.971   1.291   1.300
 4547SOL    HW223851   8.859   1.337   1.410
 4548SOL     OW23852   7.963   8.631   1.521
 4548SOL    HW123853   8.005   8.716   1.554
 4548SOL    HW223854   7.910   8.589   1.594
 4549SOL     OW23855   3.355   6.976   1.512
 4549SOL    HW123856   3.427   6.913   1.483
 4549SOL    HW223857   3.274   6.962   1.455
 4550SOL     OW23858   4.522   8.706   2.434
 4550SOL    HW123859   4.444   8.693   2.495
 4550SOL    HW223860   4.512   8.646   2.355
 4551SOL     OW23861   8.184   9.207   1.762
 4551SOL    HW123862   8.256   9.165   1.817
 4551SOL    HW223863   8.125   9.263   1.821
 4552SOL     OW23864   0.831   6.637   0.221
 4552SOL    HW123865   0.836   6.627   0.321
 4552SOL    HW223866   0.740   6.669   0.195
 4553SOL     OW23867   8.281   6.477   2.554
 4553SOL    HW123868   8.230   6.424   2.487
 4553SOL    HW223869   8.285   6.573   2.527
 4554SOL     OW23870   1.877   8.906   0.581
 4554SOL    HW123871   1.877   8.989   0.526
 4554SOL    HW223872   1.816   8.839   0.539
 4555SOL     OW23873   4.115   0.401   1.331
 4555SOL    HW123874   4.204   0.414   1.375
 4555SOL    HW223875   4.117   0.439   1.239
 4556SOL     OW23876   1.774   6.654   2.241
 4556SOL    HW123877   1.797   6.561   2.213
 4556SOL    HW223878   1.780   6.715   2.162
 4557SOL     OW23879   2.840   0.116   1.775
 4557SOL    HW123880   2.844   0.194   1.838
 4557SOL    HW223881   2.770   0.132   1.706
 4558SOL     OW23882   2.246   3.512   2.618
 4558SOL    HW123883   2.232   3.608   2.597
 4558SOL    HW223884   2.183   3.456   2.563
 4559SOL     OW23885   8.080   1.066   1.934
 4559SOL    HW123886   8.140   1.147   1.928
 4559SOL    HW223887   8.114   1.004   2.004
 4560SOL     OW23888   9.584   2.153   0.762
 4560SOL    HW123889   9.509   2.183   0.703
 4560SOL    HW223890   9.606   2.225   0.828
 4561SOL     OW23891   0.808   4.744   2.469
 4561SOL    HW123892   0.850   4.713   2.383
 4561SOL    HW223893   0.757   4.669   2.510
 4562SOL     OW23894   4.526   9.830   2.189
 4562SOL    HW123895   4.446   9.780   2.221
 4562SOL    HW223896   4.499   9.922   2.160
 4563SOL     OW23897   2.472   9.703   0.065
 4563SOL    HW123898   2.555   9.651   0.085
 4563SOL    HW223899   2.453   9.699   3.403
 4564SOL     OW23900   5.672   9.490   2.458
 4564SOL    HW123901   5.721   9.535   2.383
 4564SOL    HW223902   5.735   9.433   2.511
 4565SOL     OW23903   0.949   7.681   1.887
 4565SOL    HW123904   0.886   7.604   1.898
 4565SOL    HW223905   0.948   7.737   1.970
 4566SOL     OW23906   3.642   7.960   1.299
 4566SOL    HW123907   3.679   7.868   1.311
 4566SOL    HW223908   3.693   8.024   1.356
 4567SOL     OW23909   2.931   9.818   0.525
 4567SOL    HW123910   2.876   9.897   0.498
 4567SOL    HW223911   3.014   9.850   0.571
 4568SOL     OW23912   3.002   0.786   1.076
 4568SOL    HW123913   3.019   0.701   1.125
 4568SOL    HW223914   2.956   0.851   1.135
 4569SOL     OW23915   9.161   5.122   0.450
 4569SOL    HW123916   9.253   5.106   0.487
 4569SOL    HW223917   9.122   5.205   0.491
 4570SOL     OW23918   3.738   0.206   1.500
 4570SOL    HW123919   3.709   0.298   1.473
 4570SOL    HW223920   3.708   0.140   1.430
 4571SOL     OW23921   0.006   1.076   2.418
 4571SOL    HW123922   0.065   1.113   2.345
 4571SOL    HW223923   9.975   0.984   2.392
 4572SOL     OW23924   2.148   5.485   0.705
 4572SOL    HW123925   2.063   5.504   0.754
 4572SOL    HW223926   2.188   5.399   0.738
 4573SOL     OW23927   2.293   5.268   0.821
 4573SOL    HW123928   2.374   5.316   0.856
 4573SOL    HW223929   2.310   5.169   0.823
 4574SOL     OW23930   1.395   9.904   2.054
 4574SOL    HW123931   1.310   9.909   2.106
 4574SOL    HW223932   1.471   9.936   2.111
 4575SOL     OW23933   0.487   6.835   2.373
 4575SOL    HW123934   0.420   6.764   2.394
 4575SOL    HW223935   0.536   6.810   2.289
 4576SOL     OW23936   8.505   0.450   1.094
 4576SOL    HW123937   8.491   0.529   1.154
 4576SOL    HW223938   8.418   0.404   1.077
 4577SOL     OW23939   2.690   1.628   1.411
 4577SOL    HW123940   2.695   1.622   1.511
 4577SOL    HW223941   2.766   1.685   1.378
 4578SOL     OW23942   4.372   4.625   2.665
 4578SOL    HW123943   4.386   4.718   2.699
 4578SOL    HW223944   4.277   4.614   2.637
 4579SOL     OW23945   9.262   1.354   2.623
 4579SOL    HW123946   9.318   1.433   2.600
 4579SOL    HW223947   9.212   1.372   2.708
 4580SOL     OW23948   9.716   0.601   0.749
 4580SOL    HW123949   9.729   0.686   0.799
 4580SOL    HW223950   9.630   0.558   0.777
 4581SOL     OW23951   2.380   8.870   0.232
 4581SOL    HW123952   2.459   8.808   0.227
 4581SOL    HW223953   2.347   8.874   0.326
 4582SOL     OW23954   5.156   2.606   1.522
 4582SOL    HW123955   5.059   2.579   1.518
 4582SOL    HW223956   5.204   2.547   1.587
 4583SOL     OW23957   1.425   6.409   1.810
 4583SOL    HW123958   1.512   6.378   1.773
 4583SOL    HW223959   1.350   6.376   1.752
 4584SOL     OW23960   9.768   3.047   1.710
 4584SOL    HW123961   9.855   2.998   1.707
 4584SOL    HW223962   9.721   3.026   1.796
 4585SOL     OW23963   0.929   0.726   0.260
 4585SOL    HW123964   0.837   0.739   0.223
 4585SOL    HW223965   0.926   0.656   0.332
 4586SOL     OW23966   3.840   2.873   1.340
 4586SOL    HW123967   3.924   2.825   1.365
 4586SOL    HW223968   3.857   2.972   1.339
 4587SOL     OW23969   0.805   4.692   1.321
 4587SOL    HW123970   0.896   4.718   1.353
 4587SOL    HW223971   0.800   4.592   1.311
 4588SOL     OW23972   3.613   0.519   1.745
 4588SOL    HW123973   3.520   0.556   1.745
 4588SOL    HW223974   3.661   0.548   1.828
 4589SOL     OW23975   3.552   1.552   0.195
 4589SOL    HW123976   3.499   1.537   0.111
 4589SOL    HW223977   3.513   1.496   0.269
 4590SOL     OW23978   0.123   2.486   0.702
 4590SOL    HW123979   0.168   2.542   0.772
 4590SOL    HW223980   0.140   2.525   0.611
 4591SOL     OW23981   7.466   9.685   2.160
 4591SOL    HW123982   7.480   9.781   2.136
 4591SOL    HW223983   7.371   9.659   2.140
 4592SOL     OW23984   8.104   0.060   1.495
 4592SOL    HW123985   8.187   0.019   1.532
 4592SOL    HW223986   8.129   0.135   1.433
 4593SOL     OW23987   0.311   6.383   1.331
 4593SOL    HW123988   0.213   6.370   1.312
 4593SOL    HW223989   0.348   6.299   1.370
 4594SOL     OW23990   3.400   4.613   2.345
 4594SOL    HW123991   3.491   4.622   2.304
 4594SOL    HW223992   3.409   4.578   2.438
 4595SOL     OW23993   3.167   8.537   1.762
 4595SOL    HW123994   3.122   8.491   1.685
 4595SOL    HW223995   3.126   8.626   1.776
 4596SOL     OW23996   4.040   1.835   1.416
 4596SOL    HW123997   3.991   1.754   1.384
 4596SOL    HW223998   4.001   1.866   1.503
 4597SOL     OW23999   3.556   5.473   1.824
 4597SOL    HW124000   3.572   5.478   1.922
 4597SOL    HW224001   3.584   5.384   1.790
 4598SOL     OW24002   2.402   9.972   1.819
 4598SOL    HW124003   2.441   9.993   1.909
 4598SOL    HW224004   2.408   0.053   1.760
 4599SOL     OW24005   3.612   8.856   2.008
 4599SOL    HW124006   3.555   8.777   1.985
 4599SOL    HW224007   3.658   8.889   1.926
 4600SOL     OW24008   8.788   1.076   1.129
 4600SOL    HW124009   8.693   1.092   1.155
 4600SOL    HW224010   8.845   1.068   1.212
 4601SOL     OW24011   0.288   0.389   0.807
 4601SOL    HW124012   0.200   0.396   0.854
 4601SOL    HW224013   0.273   0.359   0.713
 4602SOL     OW24014   2.476   7.915   2.098
 4602SOL    HW124015   2.554   7.903   2.160
 4602SOL    HW224016   2.425   7.997   2.124
 4603SOL     OW24017   3.785   2.247   1.909
 4603SOL    HW124018   3.773   2.248   2.008
 4603SOL    HW224019   3.705   2.204   1.866
 4604SOL     OW24020   2.129   8.707   1.730
 4604SOL    HW124021   2.106   8.792   1.684
 4604SOL    HW224022   2.125   8.631   1.664
 4605SOL     OW24023   9.995   8.654   0.439
 4605SOL    HW124024   9.978   8.732   0.499
 4605SOL    HW224025   0.005   8.571   0.494
 4606SOL     OW24026   0.314   7.391   1.931
 4606SOL    HW124027   0.363   7.402   1.844
 4606SOL    HW224028   0.321   7.475   1.984
 4607SOL     OW24029   9.561   4.565   0.910
 4607SOL    HW124030   9.639   4.544   0.970
 4607SOL    HW224031   9.484   4.508   0.936
 4608SOL     OW24032   3.928   7.683   2.414
 4608SOL    HW124033   3.966   7.592   2.427
 4608SOL    HW224034   3.979   7.749   2.469
 4609SOL     OW24035   0.847   9.697   1.734
 4609SOL    HW124036   0.871   9.792   1.713
 4609SOL    HW224037   0.897   9.667   1.816
 4610SOL     OW24038   8.532   1.377   0.898
 4610SOL    HW124039   8.595   1.455   0.897
 4610SOL    HW224040   8.548   1.321   0.817
 4611SOL     OW24041   9.061   3.348   0.525
 4611SOL    HW124042   8.987   3.351   0.592
 4611SOL    HW224043   9.144   3.311   0.569
 4612SOL     OW24044   1.052   0.164   2.350
 4612SOL    HW124045   1.016   0.101   2.419
 4612SOL    HW224046   1.049   0.257   2.386
 4613SOL     OW24047   1.098   6.396   0.354
 4613SOL    HW124048   1.123   6.478   0.303
 4613SOL    HW224049   1.089   6.419   0.451
 4614SOL     OW24050   8.663   1.518   2.365
 4614SOL    HW124051   8.656   1.440   2.303
 4614SOL    HW224052   8.572   1.555   2.384
 4615SOL     OW24053   9.590   9.778   1.286
 4615SOL    HW124054   9.622   9.769   1.192
 4615SOL    HW224055   9.495   9.746   1.293
 4616SOL     OW24056   9.596   9.045   0.417
 4616SOL    HW124057   9.569   8.948   0.418
 4616SOL    HW224058   9.679   9.057   0.470
 4617SOL     OW24059   0.620   1.337   2.630
 4617SOL    HW124060   0.627   1.320   2.728
 4617SOL    HW224061   0.564   1.266   2.587
 4618SOL     OW24062   9.068   6.249   0.682
 4618SOL    HW124063   9.168   6.250   0.682
 4618SOL    HW224064   9.034   6.220   0.593
 4619SOL     OW24065   4.178   9.133   0.802
 4619SOL    HW124066   4.273   9.158   0.817
 4619SOL    HW224067   4.157   9.138   0.705
 4620SOL     OW24068   3.299   4.076   0.304
 4620SOL    HW124069   3.218   4.022   0.331
 4620SOL    HW224070   3.319   4.143   0.376
 4621SOL     OW24071   2.203   3.788   1.344
 4621SOL    HW124072   2.252   3.846   1.278
 4621SOL    HW224073   2.234   3.810   1.436
 4622SOL     OW24074   1.426   6.486   0.568
 4622SOL    HW124075   1.520   6.506   0.597
 4622SOL    HW224076   1.362   6.514   0.639
 4623SOL     OW24077   2.354   5.125   2.519
 4623SOL    HW124078   2.276   5.062   2.526
 4623SOL    HW224079   2.439   5.073   2.514
 4624SOL     OW24080   2.703   3.506   1.373
 4624SOL    HW124081   2.754   3.523   1.289
 4624SOL    HW224082   2.619   3.456   1.351
 4625SOL     OW24083   0.335   7.670   0.610
 4625SOL    HW124084   0.257   7.709   0.659
 4625SOL    HW224085   0.419   7.712   0.643
 4626SOL     OW24086   8.836   4.825   2.603
 4626SOL    HW124087   8.744   4.823   2.563
 4626SOL    HW224088   8.873   4.732   2.605
 4627SOL     OW24089   1.849   2.606   2.447
 4627SOL    HW124090   1.949   2.611   2.435
 4627SOL    HW224091   1.824   2.513   2.473
 4628SOL     OW24092   4.235   9.460   2.616
 4628SOL    HW124093   4.309   9.421   2.669
 4628SOL    HW224094   4.150   9.409   2.634
 4629SOL     OW24095   2.814   0.047   0.406
 4629SOL    HW124096   2.754   0.127   0.402
 4629SOL    HW224097   2.820   0.005   0.315
 4630SOL     OW24098   8.552   2.810   2.541
 4630SOL    HW124099   8.479   2.742   2.531
 4630SOL    HW224100   8.517   2.888   2.592
 4631SOL     OW24101   3.590   8.490   1.551
 4631SOL    HW124102   3.541   8.558   1.498
 4631SOL    HW224103   3.526   8.442   1.611
 4632SOL     OW24104   0.392   4.289   1.923
 4632SOL    HW124105   0.344   4.375   1.942
 4632SOL    HW224106   0.329   4.213   1.932
 4633SOL     OW24107   1.225   3.093   0.369
 4633SOL    HW124108   1.138   3.044   0.369
 4633SOL    HW224109   1.207   3.192   0.368
 4634SOL     OW24110   3.002   8.716   2.054
 4634SOL    HW124111   3.023   8.639   2.114
 4634SOL    HW224112   3.056   8.795   2.082
 4635SOL     OW24113   0.083   2.746   2.563
 4635SOL    HW124114   0.100   2.783   2.654
 4635SOL    HW224115   9.989   2.712   2.558
 4636SOL     OW24116   1.097   2.515   0.073
 4636SOL    HW124117   1.080   2.541   0.168
 4636SOL    HW224118   1.011   2.519   0.022
 4637SOL     OW24119   7.576   9.815   1.824
 4637SOL    HW124120   7.589   9.852   1.732
 4637SOL    HW224121   7.659   9.767   1.852
 4638SOL     OW24122   0.513   7.979   1.195
 4638SOL    HW124123   0.590   8.044   1.197
 4638SOL    HW224124   0.427   8.030   1.197
 4639SOL     OW24125   0.933   4.596   0.960
 4639SOL    HW124126   0.870   4.671   0.982
 4639SOL    HW224127   0.965   4.605   0.866
 4640SOL     OW24128   2.057   6.501   2.585
 4640SOL    HW124129   1.989   6.427   2.590
 4640SOL    HW224130   2.015   6.580   2.539
 4641SOL     OW24131   2.356   8.342   1.980
 4641SOL    HW124132   2.430   8.397   1.940
 4641SOL    HW224133   2.302   8.399   2.042
 4642SOL     OW24134   6.557   9.635   2.662
 4642SOL    HW124135   6.575   9.537   2.652
 4642SOL    HW224136   6.613   9.672   2.736
 4643SOL     OW24137   2.993   3.249   0.887
 4643SOL    HW124138   3.092   3.253   0.877
 4643SOL    HW224139   2.951   3.327   0.840
 4644SOL     OW24140   9.342   0.724   0.822
 4644SOL    HW124141   9.326   0.742   0.725
 4644SOL    HW224142   9.394   0.640   0.833
 4645SOL     OW24143   0.513   0.866   2.345
 4645SOL    HW124144   0.444   0.854   2.417
 4645SOL    HW224145   0.492   0.947   2.292
 4646SOL     OW24146   2.758   2.022   0.810
 4646SOL    HW124147   2.848   2.053   0.840
 4646SOL    HW224148   2.757   2.017   0.710
 4647SOL     OW24149   1.101   5.205   1.291
 4647SOL    HW124150   1.006   5.236   1.301
 4647SOL    HW224151   1.134   5.226   1.199
 4648SOL     OW24152   9.038   4.641   1.935
 4648SOL    HW124153   8.968   4.702   1.898
 4648SOL    HW224154   9.105   4.694   1.986
 4649SOL     OW24155   4.132   1.251   0.656
 4649SOL    HW124156   4.042   1.219   0.628
 4649SOL    HW224157   4.200   1.227   0.587
 4650SOL     OW24158   2.461   9.791   0.691
 4650SOL    HW124159   2.539   9.785   0.755
 4650SOL    HW224160   2.476   9.728   0.615
 4651SOL     OW24161   1.512   1.663   2.139
 4651SOL    HW124162   1.459   1.744   2.164
 4651SOL    HW224163   1.516   1.600   2.216
 4652SOL     OW24164   2.395   4.533   0.907
 4652SOL    HW124165   2.430   4.439   0.907
 4652SOL    HW224166   2.299   4.533   0.881
 4653SOL     OW24167   1.178   9.134   0.420
 4653SOL    HW124168   1.089   9.090   0.409
 4653SOL    HW224169   1.217   9.107   0.508
 4654SOL     OW24170   0.179   2.213   0.726
 4654SOL    HW124171   0.153   2.309   0.718
 4654SOL    HW224172   0.104   2.161   0.766
 4655SOL     OW24173   0.322   3.953   0.351
 4655SOL    HW124174   0.238   3.935   0.401
 4655SOL    HW224175   0.300   3.990   0.260
 4656SOL     OW24176   9.732   4.453   1.612
 4656SOL    HW124177   9.762   4.421   1.702
 4656SOL    HW224178   9.738   4.552   1.607
 4657SOL     OW24179   0.045   3.129   2.351
 4657SOL    HW124180   0.128   3.111   2.404
 4657SOL    HW224181   0.004   3.215   2.381
 4658SOL     OW24182   9.720   8.212   0.759
 4658SOL    HW124183   9.694   8.129   0.808
 4658SOL    HW224184   9.652   8.232   0.689
 4659SOL     OW24185   4.000   9.850   1.097
 4659SOL    HW124186   3.906   9.818   1.090
 4659SOL    HW224187   4.033   9.877   1.006
 4660SOL     OW24188   7.576   2.152   2.029
 4660SOL    HW124189   7.609   2.166   1.936
 4660SOL    HW224190   7.509   2.078   2.030
 4661SOL     OW24191   0.456   3.570   2.109
 4661SOL    HW124192   0.441   3.473   2.091
 4661SOL    HW224193   0.503   3.611   2.031
 4662SOL     OW24194   8.427   0.105   1.348
 4662SOL    HW124195   8.438   0.047   1.430
 4662SOL    HW224196   8.501   0.085   1.283
 4663SOL     OW24197   1.408   0.582   2.013
 4663SOL    HW124198   1.415   0.680   2.036
 4663SOL    HW224199   1.487   0.556   1.957
 4664SOL     OW24200   2.164   9.604   0.490
 4664SOL    HW124201   2.078   9.650   0.467
 4664SOL    HW224202   2.221   9.596   0.408
 4665SOL     OW24203   5.919   8.709   2.268
 4665SOL    HW124204   5.917   8.773   2.191
 4665SOL    HW224205   5.885   8.754   2.350
 4666SOL     OW24206   0.242   2.663   0.876
 4666SOL    HW124207   0.189   2.741   0.910
 4666SOL    HW224208   0.303   2.693   0.804
 4667SOL     OW24209   2.488   7.870   0.967
 4667SOL    HW124210   2.524   7.963   0.965
 4667SOL    HW224211   2.442   7.853   1.054
 4668SOL     OW24212   9.952   5.969   0.649
 4668SOL    HW124213   9.964   5.904   0.573
 4668SOL    HW224214   0.039   6.013   0.669
 4669SOL     OW24215   6.779   9.739   2.023
 4669SOL    HW124216   6.878   9.745   2.012
 4669SOL    HW224217   6.734   9.802   1.958
 4670SOL     OW24218   0.098   1.920   0.625
 4670SOL    HW124219   0.076   1.950   0.717
 4670SOL    HW224220   0.137   1.827   0.629
 4671SOL     OW24221   3.159   8.328   1.010
 4671SOL    HW124222   3.077   8.357   1.060
 4671SOL    HW224223   3.233   8.311   1.074
 4672SOL     OW24224   9.087   0.387   1.194
 4672SOL    HW124225   9.150   0.357   1.123
 4672SOL    HW224226   8.997   0.405   1.154
 4673SOL     OW24227   8.296   7.155   0.062
 4673SOL    HW124228   8.309   7.057   0.046
 4673SOL    HW224229   8.200   7.179   0.046
 4674SOL     OW24230   8.797   8.346   1.724
 4674SOL    HW124231   8.704   8.355   1.687
 4674SOL    HW224232   8.827   8.433   1.762
 4675SOL     OW24233   2.355   4.725   1.934
 4675SOL    HW124234   2.268   4.690   1.970
 4675SOL    HW224235   2.424   4.653   1.938
 4676SOL     OW24236   0.014   0.577   0.589
 4676SOL    HW124237   9.938   0.608   0.646
 4676SOL    HW224238   0.081   0.651   0.580
 4677SOL     OW24239   2.701   8.256   1.718
 4677SOL    HW124240   2.611   8.216   1.734
 4677SOL    HW224241   2.746   8.271   1.806
 4678SOL     OW24242   0.757   2.382   1.807
 4678SOL    HW124243   0.775   2.303   1.866
 4678SOL    HW224244   0.659   2.397   1.801
 4679SOL     OW24245   1.506   3.329   1.221
 4679SOL    HW124246   1.487   3.312   1.317
 4679SOL    HW224247   1.474   3.421   1.197
 4680SOL     OW24248   1.394   6.231   2.451
 4680SOL    HW124249   1.380   6.133   2.463
 4680SOL    HW224250   1.353   6.281   2.528
 4681SOL     OW24251   9.685   9.696   1.036
 4681SOL    HW124252   9.773   9.651   1.047
 4681SOL    HW224253   9.626   9.642   0.977
 4682SOL     OW24254   4.077   3.644   2.318
 4682SOL    HW124255   4.164   3.660   2.366
 4682SOL    HW224256   4.020   3.726   2.325
 4683SOL     OW24257   2.387   6.934   2.413
 4683SOL    HW124258   2.310   6.872   2.396
 4683SOL    HW224259   2.352   7.025   2.435
 4684SOL     OW24260   0.239   4.523   0.828
 4684SOL    HW124261   0.288   4.546   0.912
 4684SOL    HW224262   0.253   4.596   0.761
 4685SOL     OW24263   7.419   2.080   0.607
 4685SOL    HW124264   7.502   2.105   0.558
 4685SOL    HW224265   7.391   1.988   0.581
 4686SOL     OW24266   3.924   4.463   1.329
 4686SOL    HW124267   3.849   4.520   1.295
 4686SOL    HW224268   3.968   4.509   1.406
 4687SOL     OW24269   2.468   8.439   0.208
 4687SOL    HW124270   2.514   8.353   0.184
 4687SOL    HW224271   2.380   8.443   0.161
 4688SOL     OW24272  10.000   4.325   1.751
 4688SOL    HW124273   9.972   4.411   1.794
 4688SOL    HW224274   0.083   4.339   1.698
 4689SOL     OW24275   2.941   2.705   0.086
 4689SOL    HW124276   2.922   2.607   0.079
 4689SOL    HW224277   3.040   2.719   0.093
 4690SOL     OW24278   8.337   6.865   0.584
 4690SOL    HW124279   8.417   6.915   0.617
 4690SOL    HW224280   8.330   6.875   0.484
 4691SOL     OW24281   2.881   5.510   0.643
 4691SOL    HW124282   2.855   5.606   0.648
 4691SOL    HW224283   2.942   5.488   0.719
 4692SOL     OW24284   0.417   1.442   1.083
 4692SOL    HW124285   0.419   1.530   1.034
 4692SOL    HW224286   0.352   1.381   1.038
 4693SOL     OW24287   2.490   7.107   2.665
 4693SOL    HW124288   2.562   7.165   2.703
 4693SOL    HW224289   2.526   7.015   2.650
 4694SOL     OW24290   0.725   5.726   0.988
 4694SOL    HW124291   0.810   5.712   0.937
 4694SOL    HW224292   0.689   5.637   1.017
 4695SOL     OW24293   3.618   5.550   0.443
 4695SOL    HW124294   3.611   5.454   0.472
 4695SOL    HW224295   3.711   5.567   0.409
 4696SOL     OW24296   8.772   3.377   2.199
 4696SOL    HW124297   8.712   3.395   2.120
 4696SOL    HW224298   8.716   3.365   2.281
 4697SOL     OW24299   8.015   2.505   1.361
 4697SOL    HW124300   8.096   2.522   1.417
 4697SOL    HW224301   7.952   2.446   1.412
 4698SOL     OW24302   1.883   5.572   0.317
 4698SOL    HW124303   1.792   5.586   0.356
 4698SOL    HW224304   1.885   5.611   0.225
 4699SOL     OW24305   0.271   2.648   1.232
 4699SOL    HW124306   0.281   2.746   1.245
 4699SOL    HW224307   0.351   2.601   1.271
 4700SOL     OW24308   1.908   6.004   0.398
 4700SOL    HW124309   1.954   6.086   0.366
 4700SOL    HW224310   1.896   6.008   0.497
 4701SOL     OW24311   3.879   3.668   2.591
 4701SOL    HW124312   3.920   3.723   2.518
 4701SOL    HW224313   3.793   3.710   2.620
 4702SOL     OW24314   8.049   0.455   2.191
 4702SOL    HW124315   8.141   0.421   2.169
 4702SOL    HW224316   7.981   0.393   2.152
 4703SOL     OW24317   2.307   8.879   0.836
 4703SOL    HW124318   2.306   8.831   0.923
 4703SOL    HW224319   2.230   8.849   0.780
 4704SOL     OW24320   3.759   8.905   1.783
 4704SOL    HW124321   3.850   8.939   1.809
 4704SOL    HW224322   3.768   8.813   1.746
 4705SOL     OW24323   6.079   9.854   2.283
 4705SOL    HW124324   6.105   9.948   2.263
 4705SOL    HW224325   6.147   9.792   2.242
 4706SOL     OW24326   3.718   7.893   1.976
 4706SOL    HW124327   3.795   7.943   1.936
 4706SOL    HW224328   3.745   7.856   2.065
 4707SOL     OW24329   7.136   8.580   2.233
 4707SOL    HW124330   7.183   8.632   2.162
 4707SOL    HW224331   7.188   8.586   2.318
 4708SOL     OW24332   2.812   9.333   1.338
 4708SOL    HW124333   2.861   9.253   1.303
 4708SOL    HW224334   2.721   9.306   1.368
 4709SOL     OW24335   9.118   1.847   1.965
 4709SOL    HW124336   9.195   1.852   1.902
 4709SOL    HW224337   9.033   1.860   1.915
 4710SOL     OW24338   3.407   7.318   0.863
 4710SOL    HW124339   3.421   7.256   0.940
 4710SOL    HW224340   3.494   7.334   0.816
 4711SOL     OW24341   0.986   2.876   0.320
 4711SOL    HW124342   0.938   2.789   0.334
 4711SOL    HW224343   1.073   2.859   0.274
 4712SOL     OW24344   8.253   4.638   0.488
 4712SOL    HW124345   8.276   4.588   0.572
 4712SOL    HW224346   8.176   4.592   0.444
 4713SOL     OW24347   3.710   4.283   1.969
 4713SOL    HW124348   3.723   4.222   2.048
 4713SOL    HW224349   3.763   4.250   1.892
 4714SOL     OW24350   1.729   0.744   0.548
 4714SOL    HW124351   1.743   0.665   0.489
 4714SOL    HW224352   1.809   0.803   0.545
 4715SOL     OW24353   0.988   4.763   0.488
 4715SOL    HW124354   0.911   4.789   0.547
 4715SOL    HW224355   0.960   4.767   0.393
 4716SOL     OW24356   2.864   8.997   2.153
 4716SOL    HW124357   2.853   9.094   2.131
 4716SOL    HW224358   2.956   8.967   2.128
 4717SOL     OW24359   9.640   6.407   2.250
 4717SOL    HW124360   9.722   6.454   2.217
 4717SOL    HW224361   9.589   6.370   2.172
 4718SOL     OW24362   0.593   8.807   1.132
 4718SOL    HW124363   0.673   8.758   1.099
 4718SOL    HW224364   0.602   8.904   1.109
 4719SOL     OW24365   0.266   5.115   2.006
 4719SOL    HW124366   0.243   5.039   2.067
 4719SOL    HW224367   0.315   5.080   1.926
 4720SOL     OW24368   0.715   3.984   2.648
 4720SOL    HW124369   0.719   4.019   2.742
 4720SOL    HW224370   0.626   4.008   2.608
 4721SOL     OW24371   3.437   5.231   2.197
 4721SOL    HW124372   3.416   5.141   2.159
 4721SOL    HW224373   3.495   5.220   2.277
 4722SOL     OW24374   7.595   1.932   1.006
 4722SOL    HW124375   7.534   2.008   0.986
 4722SOL    HW224376   7.688   1.955   0.975
 4723SOL     OW24377   1.455   8.810   0.431
 4723SOL    HW124378   1.438   8.798   0.333
 4723SOL    HW224379   1.369   8.804   0.481
 4724SOL     OW24380   4.882   0.046   0.989
 4724SOL    HW124381   4.801   0.085   1.033
 4724SOL    HW224382   4.957   0.042   1.054
 4725SOL     OW24383   7.787   8.941   2.473
 4725SOL    HW124384   7.714   9.008   2.459
 4725SOL    HW224385   7.748   8.856   2.507
 4726SOL     OW24386   7.651   0.075   1.069
 4726SOL    HW124387   7.590   0.075   0.990
 4726SOL    HW224388   7.735   0.025   1.046
 4727SOL     OW24389   9.995   5.581   0.185
 4727SOL    HW124390   0.016   5.486   0.209
 4727SOL    HW224391   0.055   5.642   0.236
 4728SOL     OW24392   9.672   7.355   1.253
 4728SOL    HW124393   9.644   7.438   1.302
 4728SOL    HW224394   9.602   7.284   1.265
 4729SOL     OW24395   1.903   1.561   2.549
 4729SOL    HW124396   1.938   1.539   2.640
 4729SOL    HW224397   1.805   1.577   2.554
 4730SOL     OW24398   1.632   6.788   0.811
 4730SOL    HW124399   1.585   6.863   0.764
 4730SOL    HW224400   1.587   6.769   0.897
 4731SOL     OW24401   2.452   0.680   0.157
 4731SOL    HW124402   2.508   0.631   0.089
 4731SOL    HW224403   2.382   0.734   0.109
 4732SOL     OW24404   4.029   8.471   2.086
 4732SOL    HW124405   3.955   8.482   2.019
 4732SOL    HW224406   3.992   8.480   2.178
 4733SOL     OW24407   2.244   1.279   2.315
 4733SOL    HW124408   2.157   1.325   2.337
 4733SOL    HW224409   2.237   1.234   2.226
 4734SOL     OW24410   9.400   9.697   0.308
 4734SOL    HW124411   9.455   9.663   0.384
 4734SOL    HW224412   9.456   9.757   0.250
 4735SOL     OW24413   2.685   0.920   0.575
 4735SOL    HW124414   2.672   0.869   0.490
 4735SOL    HW224415   2.703   1.016   0.554
 4736SOL     OW24416   4.018   4.580   0.198
 4736SOL    HW124417   3.997   4.506   0.134
 4736SOL    HW224418   4.094   4.634   0.162
 4737SOL     OW24419   2.195   6.968   0.650
 4737SOL    HW124420   2.199   6.886   0.706
 4737SOL    HW224421   2.286   7.009   0.645
 4738SOL     OW24422   1.114   3.995   0.793
 4738SOL    HW124423   1.119   3.928   0.720
 4738SOL    HW224424   1.101   3.949   0.881
 4739SOL     OW24425   1.322   9.474   0.991
 4739SOL    HW124426   1.327   9.392   0.934
 4739SOL    HW224427   1.409   9.523   0.986
 4740SOL     OW24428   3.816   9.091   0.682
 4740SOL    HW124429   3.833   9.026   0.756
 4740SOL    HW224430   3.722   9.124   0.688
 4741SOL     OW24431   1.056   8.612   1.116
 4741SOL    HW124432   1.098   8.703   1.123
 4741SOL    HW224433   1.085   8.557   1.195
 4742SOL     OW24434   7.711   9.595   1.611
 4742SOL    HW124435   7.702   9.549   1.523
 4742SOL    HW224436   7.697   9.693   1.598
 4743SOL     OW24437   0.820   5.040   1.530
 4743SOL    HW124438   0.914   5.063   1.553
 4743SOL    HW224439   0.815   4.948   1.492
 4744SOL     OW24440   1.186   0.280   0.703
 4744SOL    HW124441   1.275   0.237   0.688
 4744SOL    HW224442   1.171   0.291   0.801
 4745SOL     OW24443   3.429   5.856   2.331
 4745SOL    HW124444   3.517   5.876   2.373
 4745SOL    HW224445   3.373   5.938   2.329
 4746SOL     OW24446   1.365   3.892   2.540
 4746SOL    HW124447   1.456   3.854   2.527
 4746SOL    HW224448   1.350   3.912   2.637
 4747SOL     OW24449   3.882   9.721   0.444
 4747SOL    HW124450   3.877   9.775   0.528
 4747SOL    HW224451   3.822   9.641   0.452
 4748SOL     OW24452   1.497   4.967   2.192
 4748SOL    HW124453   1.527   4.896   2.129
 4748SOL    HW224454   1.497   5.055   2.145
 4749SOL     OW24455   2.132   6.745   1.810
 4749SOL    HW124456   2.138   6.689   1.892
 4749SOL    HW224457   2.162   6.691   1.731
 4750SOL     OW24458   8.735   6.668   3.415
 4750SOL    HW124459   8.663   6.738   3.421
 4750SOL    HW224460   8.783   6.664   0.066
 4751SOL     OW24461   0.753   5.921   0.327
 4751SOL    HW124462   0.744   6.017   0.351
 4751SOL    HW224463   0.681   5.896   0.262
 4752SOL     OW24464   3.776   1.465   2.260
 4752SOL    HW124465   3.721   1.540   2.297
 4752SOL    HW224466   3.716   1.391   2.231
 4753SOL     OW24467   3.268   5.941   0.445
 4753SOL    HW124468   3.235   6.035   0.441
 4753SOL    HW224469   3.363   5.937   0.413
 4754SOL     OW24470   1.436   4.740   0.358
 4754SOL    HW124471   1.355   4.686   0.381
 4754SOL    HW224472   1.518   4.690   0.385
 4755SOL     OW24473   7.968   1.672   1.152
 4755SOL    HW124474   8.030   1.602   1.188
 4755SOL    HW224475   7.911   1.706   1.227
 4756SOL     OW24476   2.674   9.765   0.868
 4756SOL    HW124477   2.744   9.709   0.824
 4756SOL    HW224478   2.658   9.732   0.961
 4757SOL     OW24479   0.820   1.530   2.572
 4757SOL    HW124480   0.772   1.617   2.564
 4757SOL    HW224481   0.754   1.458   2.595
 4758SOL     OW24482   8.186   7.732   2.306
 4758SOL    HW124483   8.191   7.759   2.210
 4758SOL    HW224484   8.135   7.801   2.357
 4759SOL     OW24485   9.417   3.967   1.814
 4759SOL    HW124486   9.451   4.052   1.774
 4759SOL    HW224487   9.476   3.891   1.786
 4760SOL     OW24488   0.730   5.805   1.498
 4760SOL    HW124489   0.780   5.721   1.473
 4760SOL    HW224490   0.791   5.884   1.488
 4761SOL     OW24491   3.527   4.775   0.817
 4761SOL    HW124492   3.558   4.792   0.724
 4761SOL    HW224493   3.427   4.775   0.820
 4762SOL     OW24494   8.512   7.958   2.510
 4762SOL    HW124495   8.523   7.985   2.414
 4762SOL    HW224496   8.550   8.029   2.569
 4763SOL     OW24497   9.909   4.405   1.263
 4763SOL    HW124498   9.830   4.367   1.311
 4763SOL    HW224499   9.969   4.330   1.233
 4764SOL     OW24500   9.174   6.097   2.231
 4764SOL    HW124501   9.214   6.112   2.322
 4764SOL    HW224502   9.184   6.000   2.207
 4765SOL     OW24503   4.085   8.391   1.129
 4765SOL    HW124504   4.013   8.324   1.107
 4765SOL    HW224505   4.048   8.461   1.190
 4766SOL     OW24506   8.537   2.900   0.512
 4766SOL    HW124507   8.467   2.897   0.441
 4766SOL    HW224508   8.497   2.873   0.600
 4767SOL     OW24509   4.196   7.545   2.691
 4767SOL    HW124510   4.282   7.580   2.653
 4767SOL    HW224511   4.164   7.607   2.762
 4768SOL     OW24512   4.386   3.218   0.081
 4768SOL    HW124513   4.416   3.238   3.424
 4768SOL    HW224514   4.438   3.274   0.145
 4769SOL     OW24515   2.615   2.989   0.960
 4769SOL    HW124516   2.686   3.016   1.026
 4769SOL    HW224517   2.580   3.071   0.914
 4770SOL     OW24518   0.445   9.970   0.909
 4770SOL    HW124519   0.476   0.064   0.892
 4770SOL    HW224520   0.523   9.915   0.937
 4771SOL     OW24521   9.400   7.668   2.640
 4771SOL    HW124522   9.305   7.653   2.668
 4771SOL    HW224523   9.402   7.728   2.560
 4772SOL     OW24524   9.070   3.676   1.247
 4772SOL    HW124525   9.077   3.601   1.312
 4772SOL    HW224526   9.162   3.705   1.220
 4773SOL     OW24527   0.660   8.951   1.560
 4773SOL    HW124528   0.735   8.932   1.624
 4773SOL    HW224529   0.690   9.019   1.493
 4774SOL     OW24530   1.441   3.583   0.767
 4774SOL    HW124531   1.499   3.652   0.724
 4774SOL    HW224532   1.496   3.503   0.792
 4775SOL     OW24533   0.945   7.059   2.749
 4775SOL    HW124534   0.948   7.002   2.831
 4775SOL    HW224535   1.006   7.138   2.760
 4776SOL     OW24536   3.224   2.661   2.465
 4776SOL    HW124537   3.321   2.644   2.449
 4776SOL    HW224538   3.170   2.583   2.431
 4777SOL     OW24539   2.630   5.642   1.772
 4777SOL    HW124540   2.710   5.701   1.760
 4777SOL    HW224541   2.639   5.561   1.715
 4778SOL     OW24542   8.518   3.604   2.538
 4778SOL    HW124543   8.495   3.572   2.629
 4778SOL    HW224544   8.543   3.700   2.541
 4779SOL     OW24545   1.801   5.629   1.380
 4779SOL    HW124546   1.708   5.665   1.366
 4779SOL    HW224547   1.812   5.545   1.327
 4780SOL     OW24548   0.446   1.626   1.958
 4780SOL    HW124549   0.496   1.691   1.901
 4780SOL    HW224550   0.486   1.624   2.049
 4781SOL     OW24551   6.113   8.970   2.664
 4781SOL    HW124552   6.157   8.891   2.623
 4781SOL    HW224553   6.037   8.940   2.723
 4782SOL     OW24554   2.662   0.446   2.546
 4782SOL    HW124555   2.746   0.462   2.494
 4782SOL    HW224556   2.681   0.384   2.622
 4783SOL     OW24557   1.812   3.013   1.003
 4783SOL    HW124558   1.795   3.093   1.061
 4783SOL    HW224559   1.899   3.024   0.956
 4784SOL     OW24560   8.787   0.121   1.501
 4784SOL    HW124561   8.727   0.043   1.482
 4784SOL    HW224562   8.847   0.098   1.578
 4785SOL     OW24563   4.862   8.816   2.078
 4785SOL    HW124564   4.798   8.882   2.039
 4785SOL    HW224565   4.950   8.824   2.033
 4786SOL     OW24566   2.150   9.536   1.253
 4786SOL    HW124567   2.197   9.603   1.196
 4786SOL    HW224568   2.212   9.459   1.271
 4787SOL     OW24569   3.675   9.941   0.323
 4787SOL    HW124570   3.619   9.858   0.326
 4787SOL    HW224571   3.771   9.916   0.308
 4788SOL     OW24572   4.630   3.361   1.002
 4788SOL    HW124573   4.623   3.384   0.905
 4788SOL    HW224574   4.691   3.283   1.013
 4789SOL     OW24575   0.538   0.482   0.817
 4789SOL    HW124576   0.441   0.456   0.811
 4789SOL    HW224577   0.551   0.568   0.767
 4790SOL     OW24578   4.508   3.084   0.402
 4790SOL    HW124579   4.428   3.050   0.352
 4790SOL    HW224580   4.485   3.095   0.498
 4791SOL     OW24581   1.102   3.337   2.290
 4791SOL    HW124582   1.054   3.275   2.227
 4791SOL    HW224583   1.074   3.317   2.384
 4792SOL     OW24584   1.605   3.354   2.517
 4792SOL    HW124585   1.567   3.272   2.473
 4792SOL    HW224586   1.557   3.435   2.483
 4793SOL     OW24587   8.989   9.550   2.482
 4793SOL    HW124588   8.929   9.629   2.494
 4793SOL    HW224589   9.083   9.575   2.507
 4794SOL     OW24590   8.835   9.036   0.585
 4794SOL    HW124591   8.767   8.987   0.641
 4794SOL    HW224592   8.804   9.038   0.490
 4795SOL     OW24593   1.968   3.437   2.182
 4795SOL    HW124594   1.869   3.423   2.186
 4795SOL    HW224595   1.989   3.534   2.191
 4796SOL     OW24596   0.188   7.171   1.815
 4796SOL    HW124597   0.097   7.196   1.780
 4796SOL    HW224598   0.230   7.251   1.857
 4797SOL     OW24599   1.688   8.522   1.140
 4797SOL    HW124600   1.641   8.465   1.208
 4797SOL    HW224601   1.626   8.539   1.063
 4798SOL     OW24602   1.273   3.011   2.179
 4798SOL    HW124603   1.195   3.022   2.241
 4798SOL    HW224604   1.328   2.932   2.208
 4799SOL     OW24605   4.045   4.208   2.566
 4799SOL    HW124606   4.144   4.199   2.567
 4799SOL    HW224607   4.008   4.161   2.486
 4800SOL     OW24608   1.982   1.609   1.042
 4800SOL    HW124609   2.052   1.542   1.016
 4800SOL    HW224610   1.973   1.677   0.969
 4801SOL     OW24611   1.359   8.946   2.441
 4801SOL    HW124612   1.454   8.965   2.419
 4801SOL    HW224613   1.301   9.020   2.405
 4802SOL     OW24614   8.755   2.273   0.812
 4802SOL    HW124615   8.669   2.271   0.760
 4802SOL    HW224616   8.735   2.291   0.908
 4803SOL     OW24617   1.660   4.418   1.875
 4803SOL    HW124618   1.588   4.360   1.837
 4803SOL    HW224619   1.723   4.445   1.802
 4804SOL     OW24620   2.602   2.302   2.654
 4804SOL    HW124621   2.556   2.338   2.573
 4804SOL    HW224622   2.557   2.218   2.683
 4805SOL     OW24623   9.064   7.204   0.465
 4805SOL    HW124624   9.011   7.141   0.408
 4805SOL    HW224625   9.040   7.190   0.561
 4806SOL     OW24626   3.245   0.311   1.723
 4806SOL    HW124627   3.195   0.246   1.667
 4806SOL    HW224628   3.343   0.291   1.717
 4807SOL     OW24629   3.553   9.695   0.332
 4807SOL    HW124630   3.498   9.622   0.370
 4807SOL    HW224631   3.597   9.664   0.247
 4808SOL     OW24632   8.643   9.983   0.900
 4808SOL    HW124633   8.616   9.887   0.911
 4808SOL    HW224634   8.644   0.006   0.802
 4809SOL     OW24635   8.503   6.781   1.830
 4809SOL    HW124636   8.496   6.687   1.794
 4809SOL    HW224637   8.554   6.779   1.916
 4810SOL     OW24638   1.238   6.277   1.371
 4810SOL    HW124639   1.292   6.206   1.326
 4810SOL    HW224640   1.280   6.366   1.355
 4811SOL     OW24641   2.513   4.915   2.043
 4811SOL    HW124642   2.498   4.893   2.139
 4811SOL    HW224643   2.455   4.856   1.986
 4812SOL     OW24644   7.940   2.287   0.197
 4812SOL    HW124645   7.868   2.219   0.209
 4812SOL    HW224646   7.903   2.378   0.213
 4813SOL     OW24647   9.753   4.458   2.354
 4813SOL    HW124648   9.782   4.554   2.350
 4813SOL    HW224649   9.678   4.449   2.420
 4814SOL     OW24650   4.369   9.144   1.171
 4814SOL    HW124651   4.411   9.212   1.111
 4814SOL    HW224652   4.340   9.188   1.256
 4815SOL     OW24653   2.611   2.243   0.913
 4815SOL    HW124654   2.682   2.307   0.941
 4815SOL    HW224655   2.653   2.157   0.884
 4816SOL     OW24656   2.644   3.717   1.103
 4816SOL    HW124657   2.674   3.790   1.164
 4816SOL    HW224658   2.709   3.642   1.107
 4817SOL     OW24659   4.117   4.290   0.721
 4817SOL    HW124660   4.098   4.267   0.816
 4817SOL    HW224661   4.069   4.225   0.661
 4818SOL     OW24662   3.858   3.727   0.353
 4818SOL    HW124663   3.828   3.782   0.431
 4818SOL    HW224664   3.779   3.685   0.308
 4819SOL     OW24665   3.192   7.812   1.851
 4819SOL    HW124666   3.205   7.741   1.783
 4819SOL    HW224667   3.257   7.800   1.926
 4820SOL     OW24668   0.256   8.920   0.266
 4820SOL    HW124669   0.222   8.946   0.356
 4820SOL    HW224670   0.201   8.965   0.195
 4821SOL     OW24671   4.459   8.889   1.103
 4821SOL    HW124672   4.434   8.986   1.111
 4821SOL    HW224673   4.401   8.845   1.034
 4822SOL     OW24674   4.238   0.939   1.306
 4822SOL    HW124675   4.254   1.003   1.231
 4822SOL    HW224676   4.236   0.989   1.393
 4823SOL     OW24677   1.778   3.148   2.208
 4823SOL    HW124678   1.820   3.094   2.136
 4823SOL    HW224679   1.754   3.088   2.285
 4824SOL     OW24680   9.895   7.236   1.353
 4824SOL    HW124681   9.947   7.191   1.280
 4824SOL    HW224682   9.818   7.285   1.313
 4825SOL     OW24683   0.296   9.089   2.452
 4825SOL    HW124684   0.225   9.099   2.383
 4825SOL    HW224685   0.273   9.012   2.512
 4826SOL     OW24686   1.456   8.537   0.970
 4826SOL    HW124687   1.443   8.633   0.997
 4826SOL    HW224688   1.465   8.532   0.871
 4827SOL     OW24689   1.792   3.385   1.769
 4827SOL    HW124690   1.746   3.441   1.838
 4827SOL    HW224691   1.723   3.335   1.716
 4828SOL     OW24692   2.193   6.753   2.355
 4828SOL    HW124693   2.098   6.744   2.383
 4828SOL    HW224694   2.247   6.678   2.394
 4829SOL     OW24695   9.915   3.771   2.436
 4829SOL    HW124696   9.937   3.763   2.339
 4829SOL    HW224697   9.896   3.867   2.458
 4830SOL     OW24698   4.495   1.393   2.397
 4830SOL    HW124699   4.450   1.406   2.309
 4830SOL    HW224700   4.429   1.358   2.464
 4831SOL     OW24701   0.708   2.153   2.029
 4831SOL    HW124702   0.690   2.111   1.940
 4831SOL    HW224703   0.770   2.095   2.082
 4832SOL     OW24704   1.880   6.537   1.524
 4832SOL    HW124705   1.842   6.574   1.608
 4832SOL    HW224706   1.934   6.608   1.477
 4833SOL     OW24707   8.720   3.280   1.299
 4833SOL    HW124708   8.663   3.207   1.336
 4833SOL    HW224709   8.714   3.280   1.199
 4834SOL     OW24710   8.386   8.199   1.283
 4834SOL    HW124711   8.384   8.149   1.370
 4834SOL    HW224712   8.306   8.258   1.276
 4835SOL     OW24713   2.462   2.987   2.426
 4835SOL    HW124714   2.381   3.041   2.403
 4835SOL    HW224715   2.523   3.040   2.485
 4836SOL     OW24716   1.261   5.874   2.245
 4836SOL    HW124717   1.347   5.836   2.280
 4836SOL    HW224718   1.280   5.934   2.168
 4837SOL     OW24719   3.822   2.298   0.164
 4837SOL    HW124720   3.800   2.388   0.199
 4837SOL    HW224721   3.808   2.297   0.065
 4838SOL     OW24722   8.453   0.911   0.124
 4838SOL    HW124723   8.360   0.943   0.145
 4838SOL    HW224724   8.466   0.820   0.163
 4839SOL     OW24725   9.918   8.131   1.882
 4839SOL    HW124726   9.869   8.200   1.828
 4839SOL    HW224727   9.998   8.100   1.830
 4840SOL     OW24728   1.694   5.303   0.221
 4840SOL    HW124729   1.633   5.373   0.183
 4840SOL    HW224730   1.688   5.220   0.166
 4841SOL     OW24731   2.103   2.980   0.135
 4841SOL    HW124732   2.155   2.920   0.196
 4841SOL    HW224733   2.164   3.022   0.069
 4842SOL     OW24734   3.064   7.947   0.255
 4842SOL    HW124735   3.148   7.894   0.249
 4842SOL    HW224736   3.016   7.924   0.340
 4843SOL     OW24737   8.288   6.297   0.457
 4843SOL    HW124738   8.261   6.201   0.449
 4843SOL    HW224739   8.353   6.319   0.384
 4844SOL     OW24740   0.303   5.005   0.354
 4844SOL    HW124741   0.314   5.104   0.369
 4844SOL    HW224742   0.393   4.961   0.355
 4845SOL     OW24743   0.468   2.922   2.496
 4845SOL    HW124744   0.461   2.835   2.448
 4845SOL    HW224745   0.561   2.934   2.530
 4846SOL     OW24746   0.032   6.534   2.001
 4846SOL    HW124747   9.977   6.466   1.953
 4846SOL    HW224748   0.054   6.609   1.938
 4847SOL     OW24749   0.064   6.324   1.647
 4847SOL    HW124750   0.062   6.265   1.566
 4847SOL    HW224751   0.132   6.289   1.712
 4848SOL     OW24752   3.421   1.665   1.180
 4848SOL    HW124753   3.443   1.610   1.099
 4848SOL    HW224754   3.419   1.762   1.155
 4849SOL     OW24755   2.815   0.769   0.770
 4849SOL    HW124756   2.878   0.708   0.721
 4849SOL    HW224757   2.774   0.832   0.705
 4850SOL     OW24758   8.915   4.577   0.652
 4850SOL    HW124759   8.912   4.561   0.751
 4850SOL    HW224760   8.827   4.614   0.622
 4851SOL     OW24761   1.751   1.113   1.154
 4851SOL    HW124762   1.782   1.067   1.071
 4851SOL    HW224763   1.715   1.045   1.218
 4852SOL     OW24764   8.321   2.092   2.038
 4852SOL    HW124765   8.414   2.109   2.005
 4852SOL    HW224766   8.259   2.082   1.960
 4853SOL     OW24767   1.281   9.027   0.648
 4853SOL    HW124768   1.348   9.013   0.720
 4853SOL    HW224769   1.249   8.938   0.614
 4854SOL     OW24770   2.288   2.241   2.498
 4854SOL    HW124771   2.358   2.308   2.474
 4854SOL    HW224772   2.204   2.288   2.526
 4855SOL     OW24773   1.024   1.865   0.202
 4855SOL    HW124774   1.099   1.849   0.267
 4855SOL    HW224775   0.962   1.786   0.203
 4856SOL     OW24776   4.041   0.639   2.031
 4856SOL    HW124777   4.108   0.574   2.067
 4856SOL    HW224778   3.989   0.596   1.957
 4857SOL     OW24779   4.013   4.660   1.008
 4857SOL    HW124780   4.104   4.620   1.016
 4857SOL    HW224781   3.948   4.589   0.981
 4858SOL     OW24782   8.863   3.878   0.605
 4858SOL    HW124783   8.925   3.859   0.529
 4858SOL    HW224784   8.874   3.807   0.675
 4859SOL     OW24785   3.870   5.568   0.322
 4859SOL    HW124786   3.863   5.501   0.248
 4859SOL    HW224787   3.883   5.659   0.284
 4860SOL     OW24788   4.509   9.921   2.569
 4860SOL    HW124789   4.608   9.934   2.579
 4860SOL    HW224790   4.489   9.824   2.558
 4861SOL     OW24791   2.925   4.672   2.632
 4861SOL    HW124792   3.012   4.628   2.612
 4861SOL    HW224793   2.850   4.612   2.605
 4862SOL     OW24794   4.746   0.746   1.735
 4862SOL    HW124795   4.802   0.737   1.818
 4862SOL    HW224796   4.765   0.834   1.691
 4863SOL     OW24797   8.144   8.332   2.590
 4863SOL    HW124798   8.199   8.415   2.582
 4863SOL    HW224799   8.205   8.253   2.597
 4864SOL     OW24800   3.853   9.005   0.420
 4864SOL    HW124801   3.833   8.907   0.418
 4864SOL    HW224802   3.851   9.037   0.515
 4865SOL     OW24803   3.403   6.802   0.784
 4865SOL    HW124804   3.450   6.859   0.716
 4865SOL    HW224805   3.305   6.826   0.785
 4866SOL     OW24806   9.954   5.081   1.593
 4866SOL    HW124807   0.017   5.109   1.520
 4866SOL    HW224808   9.977   4.989   1.625
 4867SOL     OW24809   9.258   7.255   2.457
 4867SOL    HW124810   9.239   7.191   2.382
 4867SOL    HW224811   9.173   7.277   2.505
 4868SOL     OW24812   3.051   1.910   0.522
 4868SOL    HW124813   2.972   1.854   0.498
 4868SOL    HW224814   3.105   1.929   0.440
 4869SOL     OW24815   0.821   7.722   2.375
 4869SOL    HW124816   0.754   7.648   2.387
 4869SOL    HW224817   0.835   7.739   2.277
 4870SOL     OW24818   2.459   9.371   0.818
 4870SOL    HW124819   2.544   9.363   0.869
 4870SOL    HW224820   2.401   9.291   0.836
 4871SOL     OW24821   0.282   7.923   0.301
 4871SOL    HW124822   0.377   7.953   0.306
 4871SOL    HW224823   0.267   7.876   0.214
 4872SOL     OW24824   0.689   1.976   0.345
 4872SOL    HW124825   0.750   1.945   0.418
 4872SOL    HW224826   0.741   2.033   0.280
 4873SOL     OW24827   8.946   5.270   2.464
 4873SOL    HW124828   8.884   5.295   2.390
 4873SOL    HW224829   9.040   5.293   2.438
 4874SOL     OW24830   3.190   4.183   1.862
 4874SOL    HW124831   3.248   4.237   1.802
 4874SOL    HW224832   3.145   4.242   1.929
 4875SOL     OW24833   0.599   1.201   0.311
 4875SOL    HW124834   0.541   1.276   0.339
 4875SOL    HW224835   0.694   1.233   0.302
 4876SOL     OW24836   6.273   8.457   2.364
 4876SOL    HW124837   6.173   8.449   2.367
 4876SOL    HW224838   6.311   8.421   2.449
 4877SOL     OW24839   2.941   2.798   1.583
 4877SOL    HW124840   2.961   2.701   1.602
 4877SOL    HW224841   3.025   2.844   1.555
 4878SOL     OW24842   8.073   0.601   1.194
 4878SOL    HW124843   8.105   0.677   1.250
 4878SOL    HW224844   7.987   0.565   1.232
 4879SOL     OW24845   9.002   0.937   0.982
 4879SOL    HW124846   9.041   0.847   0.995
 4879SOL    HW224847   8.913   0.942   1.028
 4880SOL     OW24848   4.023   4.393   1.989
 4880SOL    HW124849   3.974   4.447   1.921
 4880SOL    HW224850   4.007   4.295   1.972
 4881SOL     OW24851   4.615   2.109   1.661
 4881SOL    HW124852   4.613   2.088   1.759
 4881SOL    HW224853   4.522   2.132   1.630
 4882SOL     OW24854   1.054   6.036   1.073
 4882SOL    HW124855   1.099   6.107   1.018
 4882SOL    HW224856   1.106   5.951   1.066
 4883SOL     OW24857   3.197   5.109   0.160
 4883SOL    HW124858   3.244   5.167   0.228
 4883SOL    HW224859   3.111   5.153   0.134
 4884SOL     OW24860   9.898   0.591   1.806
 4884SOL    HW124861   9.907   0.492   1.809
 4884SOL    HW224862   9.985   0.634   1.831
 4885SOL     OW24863   9.754   6.984   0.240
 4885SOL    HW124864   9.725   6.934   0.322
 4885SOL    HW224865   9.817   6.928   0.187
 4886SOL     OW24866   8.661   6.261   0.436
 4886SOL    HW124867   8.597   6.303   0.372
 4886SOL    HW224868   8.649   6.301   0.527
 4887SOL     OW24869   9.576   4.464   0.654
 4887SOL    HW124870   9.579   4.509   0.743
 4887SOL    HW224871   9.608   4.527   0.584
 4888SOL     OW24872   9.996   3.485   1.366
 4888SOL    HW124873   0.027   3.578   1.346
 4888SOL    HW224874   9.950   3.484   1.455
 4889SOL     OW24875   1.434   0.811   0.935
 4889SOL    HW124876   1.394   0.897   0.967
 4889SOL    HW224877   1.511   0.830   0.875
 4890SOL     OW24878   3.412   3.005   1.398
 4890SOL    HW124879   3.467   3.008   1.481
 4890SOL    HW224880   3.416   3.094   1.352
 4891SOL     OW24881   8.833   2.455   2.033
 4891SOL    HW124882   8.817   2.439   2.130
 4891SOL    HW224883   8.900   2.389   1.998
 4892SOL     OW24884   1.079   0.723   1.743
 4892SOL    HW124885   1.149   0.655   1.765
 4892SOL    HW224886   1.123   0.813   1.731
 4893SOL     OW24887   9.229   7.694   0.155
 4893SOL    HW124888   9.154   7.631   0.138
 4893SOL    HW224889   9.314   7.643   0.167
 4894SOL     OW24890   9.098   3.561   0.360
 4894SOL    HW124891   9.084   3.484   0.424
 4894SOL    HW224892   9.188   3.601   0.376
 4895SOL     OW24893   3.446   5.625   0.225
 4895SOL    HW124894   3.439   5.724   0.233
 4895SOL    HW224895   3.497   5.589   0.304
 4896SOL     OW24896   1.421   6.645   0.347
 4896SOL    HW124897   1.343   6.706   0.358
 4896SOL    HW224898   1.427   6.583   0.425
 4897SOL     OW24899   2.622   4.034   0.281
 4897SOL    HW124900   2.632   3.950   0.229
 4897SOL    HW224901   2.537   4.031   0.334
 4898SOL     OW24902   0.768   0.777   2.391
 4898SOL    HW124903   0.801   0.742   2.304
 4898SOL    HW224904   0.673   0.807   2.381
 4899SOL     OW24905   0.837   2.335   1.266
 4899SOL    HW124906   0.737   2.331   1.255
 4899SOL    HW224907   0.859   2.349   1.362
 4900SOL     OW24908   1.954   2.711   0.713
 4900SOL    HW124909   1.971   2.694   0.810
 4900SOL    HW224910   1.883   2.648   0.680
 4901SOL     OW24911   0.909   6.008   1.464
 4901SOL    HW124912   0.920   6.078   1.393
 4901SOL    HW224913   0.939   6.045   1.552
 4902SOL     OW24914   1.924   1.749   0.806
 4902SOL    HW124915   1.879   1.836   0.825
 4902SOL    HW224916   1.856   1.678   0.794
 4903SOL     OW24917   0.771   8.446   0.064
 4903SOL    HW124918   0.781   8.468   3.404
 4903SOL    HW224919   0.861   8.437   0.106
 4904SOL     OW24920   0.426   1.165   2.517
 4904SOL    HW124921   0.433   1.137   2.421
 4904SOL    HW224922   0.361   1.105   2.564
 4905SOL     OW24923   5.097   9.366   2.367
 4905SOL    HW124924   5.028   9.299   2.337
 4905SOL    HW224925   5.050   9.447   2.403
 4906SOL     OW24926   1.684   3.401   2.204
 4906SOL    HW124927   1.717   3.307   2.208
 4906SOL    HW224928   1.586   3.404   2.220
 4907SOL     OW24929   7.629   1.238   1.926
 4907SOL    HW124930   7.689   1.167   1.888
 4907SOL    HW224931   7.584   1.202   2.008
 4908SOL     OW24932   3.065   0.720   0.365
 4908SOL    HW124933   3.155   0.744   0.401
 4908SOL    HW224934   3.030   0.796   0.310
 4909SOL     OW24935   8.941   7.406   1.325
 4909SOL    HW124936   9.003   7.407   1.246
 4909SOL    HW224937   8.941   7.314   1.366
 4910SOL     OW24938   3.681   4.197   0.894
 4910SOL    HW124939   3.716   4.291   0.891
 4910SOL    HW224940   3.582   4.198   0.881
 4911SOL     OW24941   1.686   0.496   1.005
 4911SOL    HW124942   1.658   0.564   1.073
 4911SOL    HW224943   1.620   0.495   0.930
 4912SOL     OW24944   3.084   3.718   1.913
 4912SOL    HW124945   2.993   3.677   1.910
 4912SOL    HW224946   3.150   3.651   1.949
 4913SOL     OW24947   2.210   4.893   1.123
 4913SOL    HW124948   2.162   4.820   1.074
 4913SOL    HW224949   2.150   4.933   1.192
 4914SOL     OW24950   0.665   6.452   1.939
 4914SOL    HW124951   0.713   6.497   2.015
 4914SOL    HW224952   0.725   6.450   1.859
 4915SOL     OW24953   1.150   1.918   2.416
 4915SOL    HW124954   1.172   1.896   2.511
 4915SOL    HW224955   1.079   1.988   2.413
 4916SOL     OW24956   4.033   0.490   0.601
 4916SOL    HW124957   4.124   0.450   0.601
 4916SOL    HW224958   3.966   0.420   0.576
 4917SOL     OW24959   3.711   4.121   0.258
 4917SOL    HW124960   3.801   4.116   0.215
 4917SOL    HW224961   3.657   4.042   0.231
 4918SOL     OW24962   9.675   6.848   0.478
 4918SOL    HW124963   9.609   6.777   0.453
 4918SOL    HW224964   9.707   6.833   0.571
 4919SOL     OW24965   1.531   7.651   1.014
 4919SOL    HW124966   1.516   7.553   1.017
 4919SOL    HW224967   1.444   7.698   0.998
 4920SOL     OW24968   8.879   7.414   0.671
 4920SOL    HW124969   8.936   7.332   0.676
 4920SOL    HW224970   8.926   7.490   0.717
 4921SOL     OW24971   0.317   1.277   1.740
 4921SOL    HW124972   0.285   1.365   1.775
 4921SOL    HW224973   0.373   1.292   1.659
 4922SOL     OW24974   2.643   1.959   1.392
 4922SOL    HW124975   2.680   1.882   1.340
 4922SOL    HW224976   2.711   1.992   1.457
 4923SOL     OW24977   3.420   2.874   1.147
 4923SOL    HW124978   3.432   2.902   1.243
 4923SOL    HW224979   3.328   2.900   1.117
 4924SOL     OW24980   3.118   5.028   1.817
 4924SOL    HW124981   3.040   5.051   1.760
 4924SOL    HW224982   3.095   5.043   1.913
 4925SOL     OW24983   3.940   4.595   2.281
 4925SOL    HW124984   3.886   4.617   2.362
 4925SOL    HW224985   3.974   4.501   2.288
 4926SOL     OW24986   3.829   1.719   1.026
 4926SOL    HW124987   3.797   1.625   1.040
 4926SOL    HW224988   3.888   1.723   0.946
 4927SOL     OW24989   2.603   7.693   1.355
 4927SOL    HW124990   2.650   7.696   1.267
 4927SOL    HW224991   2.652   7.631   1.417
 4928SOL     OW24992   3.454   2.446   1.943
 4928SOL    HW124993   3.423   2.370   1.885
 4928SOL    HW224994   3.396   2.525   1.928
 4929SOL     OW24995   0.917   4.953   2.605
 4929SOL    HW124996   0.877   4.955   2.697
 4929SOL    HW224997   0.885   4.871   2.557
 4930SOL     OW24998   2.178   7.296   0.795
 4930SOL    HW124999   2.237   7.215   0.792
 4930SOL    HW225000   2.201   7.356   0.719
 4931SOL     OW25001   9.688   0.652   0.476
 4931SOL    HW125002   9.702   0.751   0.470
 4931SOL    HW225003   9.692   0.623   0.572
 4932SOL     OW25004   4.775   0.331   1.514
 4932SOL    HW125005   4.814   0.402   1.455
 4932SOL    HW225006   4.725   0.265   1.458
 4933SOL     OW25007   3.482   6.958   1.960
 4933SOL    HW125008   3.424   6.975   2.040
 4933SOL    HW225009   3.427   6.916   1.888
 4934SOL     OW25010   2.973   0.270   2.237
 4934SOL    HW125011   2.926   0.328   2.304
 4934SOL    HW225012   3.070   0.293   2.234
 4935SOL     OW25013   4.005   0.797   1.262
 4935SOL    HW125014   3.998   0.781   1.164
 4935SOL    HW225015   4.092   0.840   1.283
 4936SOL     OW25016   9.963   9.756   2.095
 4936SOL    HW125017   9.929   9.735   2.003
 4936SOL    HW225018   9.991   9.672   2.141
 4937SOL     OW25019   4.918   3.174   0.769
 4937SOL    HW125020   4.875   3.112   0.703
 4937SOL    HW225021   4.936   3.262   0.725
 4938SOL     OW25022   4.645   9.393   2.259
 4938SOL    HW125023   4.690   9.334   2.192
 4938SOL    HW225024   4.691   9.482   2.262
 4939SOL     OW25025   7.736   1.909   2.159
 4939SOL    HW125026   7.831   1.883   2.176
 4939SOL    HW225027   7.731   2.006   2.135
 4940SOL     OW25028   1.203   8.787   0.546
 4940SOL    HW125029   1.216   8.695   0.582
 4940SOL    HW225030   1.107   8.801   0.523
 4941SOL     OW25031   9.721   3.300   1.586
 4941SOL    HW125032   9.790   3.372   1.598
 4941SOL    HW225033   9.749   3.219   1.638
 4942SOL     OW25034   8.082   8.766   2.039
 4942SOL    HW125035   8.169   8.797   2.000
 4942SOL    HW225036   8.015   8.840   2.032
 4943SOL     OW25037   0.659   9.536   0.726
 4943SOL    HW125038   0.602   9.486   0.792
 4943SOL    HW225039   0.739   9.573   0.774
 4944SOL     OW25040   9.149   8.736   1.633
 4944SOL    HW125041   9.050   8.748   1.641
 4944SOL    HW225042   9.186   8.803   1.569
 4945SOL     OW25043   5.137   9.011   2.158
 4945SOL    HW125044   5.131   8.950   2.079
 4945SOL    HW225045   5.223   8.994   2.207
 4946SOL     OW25046   3.410   8.022   2.495
 4946SOL    HW125047   3.461   7.981   2.420
 4946SOL    HW225048   3.473   8.072   2.555
 4947SOL     OW25049   3.448   8.640   1.961
 4947SOL    HW125050   3.477   8.591   2.044
 4947SOL    HW225051   3.423   8.573   1.890
 4948SOL     OW25052   0.499   0.386   2.144
 4948SOL    HW125053   0.487   0.485   2.144
 4948SOL    HW225054   0.411   0.341   2.163
 4949SOL     OW25055   0.785   9.425   2.022
 4949SOL    HW125056   0.739   9.404   2.108
 4949SOL    HW225057   0.749   9.366   1.949
 4950SOL     OW25058   5.027   2.964   0.914
 4950SOL    HW125059   5.031   2.979   1.013
 4950SOL    HW225060   4.994   3.047   0.869
 4951SOL     OW25061   9.882   1.152   1.753
 4951SOL    HW125062   9.894   1.207   1.835
 4951SOL    HW225063   9.827   1.203   1.686
 4952SOL     OW25064   8.082   2.480   2.609
 4952SOL    HW125065   8.038   2.569   2.611
 4952SOL    HW225066   8.098   2.453   2.514
 4953SOL     OW25067   3.492   7.907   1.646
 4953SOL    HW125068   3.570   7.966   1.667
 4953SOL    HW225069   3.407   7.957   1.663
 4954SOL     OW25070   7.871   5.541   0.204
 4954SOL    HW125071   7.891   5.639   0.200
 4954SOL    HW225072   7.948   5.493   0.246
 4955SOL     OW25073   4.026   0.877   0.258
 4955SOL    HW125074   4.053   0.825   0.339
 4955SOL    HW225075   4.087   0.955   0.246
 4956SOL     OW25076   2.669   0.099   0.063
 4956SOL    HW125077   2.627   0.124   3.412
 4956SOL    HW225078   2.721   0.177   0.098
 4957SOL     OW25079   7.521   9.939   1.276
 4957SOL    HW125080   7.425   9.968   1.270
 4957SOL    HW225081   7.574   9.986   1.205
 4958SOL     OW25082   9.205   6.101   0.365
 4958SOL    HW125083   9.256   6.060   0.441
 4958SOL    HW225084   9.110   6.113   0.392
 4959SOL     OW25085   9.704   7.783   0.176
 4959SOL    HW125086   9.790   7.828   0.151
 4959SOL    HW225087   9.715   7.684   0.166
 4960SOL     OW25088   9.329   0.736   0.539
 4960SOL    HW125089   9.291   0.809   0.482
 4960SOL    HW225090   9.364   0.663   0.481
 4961SOL     OW25091   9.678   9.396   1.366
 4961SOL    HW125092   9.694   9.344   1.282
 4961SOL    HW225093   9.739   9.476   1.368
 4962SOL     OW25094   1.530   8.379   1.312
 4962SOL    HW125095   1.450   8.368   1.253
 4962SOL    HW225096   1.504   8.427   1.395
 4963SOL     OW25097   0.455   2.678   2.345
 4963SOL    HW125098   0.555   2.676   2.343
 4963SOL    HW225099   0.420   2.592   2.307
 4964SOL     OW25100   2.916   8.175   0.438
 4964SOL    HW125101   2.907   8.076   0.445
 4964SOL    HW225102   2.826   8.218   0.441
 4965SOL     OW25103   1.076   1.768   1.167
 4965SOL    HW125104   1.008   1.720   1.112
 4965SOL    HW225105   1.031   1.826   1.234
 4966SOL     OW25106   3.110   8.103   0.861
 4966SOL    HW125107   3.128   8.192   0.903
 4966SOL    HW225108   3.171   8.090   0.783
 4967SOL     OW25109   7.517   1.140   2.455
 4967SOL    HW125110   7.459   1.063   2.481
 4967SOL    HW225111   7.612   1.119   2.477
 4968SOL     OW25112   4.670   1.592   2.468
 4968SOL    HW125113   4.748   1.543   2.507
 4968SOL    HW225114   4.598   1.527   2.444
 4969SOL     OW25115   9.534   5.668   1.440
 4969SOL    HW125116   9.617   5.613   1.442
 4969SOL    HW225117   9.460   5.620   1.487
 4970SOL     OW25118   8.652   7.834   1.325
 4970SOL    HW125119   8.577   7.788   1.373
 4970SOL    HW225120   8.721   7.766   1.300
 4971SOL     OW25121   3.073   0.703   2.047
 4971SOL    HW125122   3.080   0.613   2.004
 4971SOL    HW225123   3.042   0.770   1.980
 4972SOL     OW25124   1.553   6.274   1.198
 4972SOL    HW125125   1.497   6.197   1.229
 4972SOL    HW225126   1.622   6.296   1.266
 4973SOL     OW25127   1.806   4.203   0.718
 4973SOL    HW125128   1.717   4.166   0.746
 4973SOL    HW225129   1.826   4.286   0.771
 4974SOL     OW25130   0.833   6.706   1.826
 4974SOL    HW125131   0.898   6.768   1.869
 4974SOL    HW225132   0.740   6.740   1.838
 4975SOL     OW25133   1.481   6.986   0.695
 4975SOL    HW125134   1.490   6.994   0.595
 4975SOL    HW225135   1.507   7.072   0.738
 4976SOL     OW25136   0.395   7.076   2.644
 4976SOL    HW125137   0.395   7.100   2.547
 4976SOL    HW225138   0.489   7.063   2.675
 4977SOL     OW25139   2.130   8.079   0.909
 4977SOL    HW125140   2.198   8.043   0.846
 4977SOL    HW225141   2.059   8.011   0.924
 4978SOL     OW25142   3.044   6.689   2.459
 4978SOL    HW125143   3.056   6.611   2.521
 4978SOL    HW225144   2.974   6.750   2.496
 4979SOL     OW25145   0.558   5.231   0.926
 4979SOL    HW125146   0.598   5.311   0.971
 4979SOL    HW225147   0.591   5.226   0.832
 4980SOL     OW25148   4.590   2.032   1.927
 4980SOL    HW125149   4.536   1.949   1.916
 4980SOL    HW225150   4.655   2.020   2.003
 4981SOL     OW25151   2.962   2.973   0.904
 4981SOL    HW125152   2.955   3.072   0.887
 4981SOL    HW225153   2.981   2.927   0.817
 4982SOL     OW25154   9.616   3.419   2.641
 4982SOL    HW125155   9.698   3.366   2.661
 4982SOL    HW225156   9.641   3.514   2.623
 4983SOL     OW25157   2.571   2.862   2.203
 4983SOL    HW125158   2.646   2.804   2.235
 4983SOL    HW225159   2.533   2.914   2.279
 4984SOL     OW25160   8.609   5.148   2.480
 4984SOL    HW125161   8.615   5.152   2.580
 4984SOL    HW225162   8.684   5.092   2.444
 4985SOL     OW25163   0.602   9.763   1.852
 4985SOL    HW125164   0.683   9.727   1.805
 4985SOL    HW225165   0.629   9.834   1.916
 4986SOL     OW25166   1.954   0.903   0.564
 4986SOL    HW125167   2.014   0.902   0.645
 4986SOL    HW225168   2.005   0.870   0.485
 4987SOL     OW25169   3.932   2.870   2.535
 4987SOL    HW125170   3.886   2.957   2.558
 4987SOL    HW225171   3.994   2.845   2.609
 4988SOL     OW25172   1.644   1.589   0.259
 4988SOL    HW125173   1.586   1.508   0.266
 4988SOL    HW225174   1.708   1.591   0.335
 4989SOL     OW25175   0.455   8.561   1.092
 4989SOL    HW125176   0.451   8.529   1.187
 4989SOL    HW225177   0.492   8.654   1.090
 4990SOL     OW25178   8.621   3.955   2.130
 4990SOL    HW125179   8.673   3.881   2.172
 4990SOL    HW225180   8.675   3.998   2.058
 4991SOL     OW25181   1.627   1.951   0.513
 4991SOL    HW125182   1.715   1.904   0.525
 4991SOL    HW225183   1.627   2.036   0.566
 4992SOL     OW25184   1.488   7.380   0.984
 4992SOL    HW125185   1.528   7.320   0.916
 4992SOL    HW225186   1.391   7.357   0.996
 4993SOL     OW25187   1.371   8.377   1.989
 4993SOL    HW125188   1.280   8.417   1.997
 4993SOL    HW225189   1.397   8.334   2.075
 4994SOL     OW25190   8.587   7.446   1.076
 4994SOL    HW125191   8.498   7.478   1.042
 4994SOL    HW225192   8.577   7.419   1.172
 4995SOL     OW25193   4.036   7.932   0.942
 4995SOL    HW125194   4.116   7.975   0.899
 4995SOL    HW225195   4.028   7.962   1.037
 4996SOL     OW25196   0.494   3.497   0.766
 4996SOL    HW125197   0.526   3.420   0.821
 4996SOL    HW225198   0.449   3.564   0.826
 4997SOL     OW25199   7.864   2.610   0.553
 4997SOL    HW125200   7.810   2.693   0.539
 4997SOL    HW225201   7.947   2.632   0.604
 4998SOL     OW25202   3.744   0.371   2.159
 4998SOL    HW125203   3.835   0.332   2.146
 4998SOL    HW225204   3.681   0.331   2.093
 4999SOL     OW25205   1.531   7.900   1.287
 4999SOL    HW125206   1.587   7.982   1.301
 4999SOL    HW225207   1.453   7.924   1.228
 5000SOL     OW25208   2.807   8.303   1.958
 5000SOL    HW125209   2.794   8.227   2.022
 5000SOL    HW225210   2.791   8.389   2.006
 5001SOL     OW25211   3.965   2.480   1.468
 5001SOL    HW125212   3.928   2.454   1.379
 5001SOL    HW225213   3.889   2.499   1.531
 5002SOL     OW25214   0.461   0.892   1.803
 5002SOL    HW125215   0.520   0.910   1.725
 5002SOL    HW225216   0.457   0.974   1.862
 5003SOL     OW25217   3.124   3.499   0.182
 5003SOL    HW125218   3.202   3.436   0.192
 5003SOL    HW225219   3.040   3.452   0.209
 5004SOL     OW25220   9.705   2.815   0.656
 5004SOL    HW125221   9.667   2.907   0.646
 5004SOL    HW225222   9.758   2.792   0.574
 5005SOL     OW25223   1.102   0.396   0.468
 5005SOL    HW125224   1.024   0.458   0.479
 5005SOL    HW225225   1.124   0.354   0.556
 5006SOL     OW25226   8.154   7.462   2.372
 5006SOL    HW125227   8.076   7.435   2.429
 5006SOL    HW225228   8.150   7.561   2.356
 5007SOL     OW25229   0.667   2.544   0.607
 5007SOL    HW125230   0.759   2.539   0.647
 5007SOL    HW225231   0.674   2.574   0.512
 5008SOL     OW25232   4.099   4.360   2.244
 5008SOL    HW125233   4.169   4.424   2.276
 5008SOL    HW225234   4.076   4.381   2.149
 5009SOL     OW25235   8.033   1.577   0.578
 5009SOL    HW125236   8.015   1.672   0.602
 5009SOL    HW225237   8.101   1.539   0.640
 5010SOL     OW25238   8.608   5.977   1.846
 5010SOL    HW125239   8.556   5.972   1.931
 5010SOL    HW225240   8.546   5.963   1.768
 5011SOL     OW25241   0.986   2.358   2.587
 5011SOL    HW125242   1.079   2.347   2.623
 5011SOL    HW225243   0.989   2.360   2.487
 5012SOL     OW25244   2.962   3.538   0.528
 5012SOL    HW125245   2.941   3.510   0.621
 5012SOL    HW225246   3.055   3.574   0.524
 5013SOL     OW25247   0.454   3.304   2.025
 5013SOL    HW125248   0.528   3.312   1.959
 5013SOL    HW225249   0.464   3.219   2.076
 5014SOL     OW25250   9.046   1.708   1.176
 5014SOL    HW125251   9.082   1.679   1.265
 5014SOL    HW225252   9.010   1.628   1.127
 5015SOL     OW25253   4.504   8.890   1.377
 5015SOL    HW125254   4.493   8.893   1.277
 5015SOL    HW225255   4.576   8.953   1.405
 5016SOL     OW25256   8.529   9.650   0.110
 5016SOL    HW125257   8.466   9.576   0.086
 5016SOL    HW225258   8.618   9.611   0.134
 5017SOL     OW25259   3.058   5.858   1.333
 5017SOL    HW125260   3.095   5.902   1.415
 5017SOL    HW225261   3.091   5.906   1.251
 5018SOL     OW25262   4.165   2.781   0.298
 5018SOL    HW125263   4.111   2.741   0.225
 5018SOL    HW225264   4.221   2.856   0.262
 5019SOL     OW25265   1.361   0.016   1.575
 5019SOL    HW125266   1.328   9.922   1.569
 5019SOL    HW225267   1.372   0.042   1.671
 5020SOL     OW25268   0.373   5.049   1.003
 5020SOL    HW125269   0.292   5.082   0.955
 5020SOL    HW225270   0.449   5.112   0.986
 5021SOL     OW25271   2.893   7.171   2.200
 5021SOL    HW125272   2.840   7.193   2.117
 5021SOL    HW225273   2.873   7.077   2.227
 5022SOL     OW25274   2.772   0.572   0.972
 5022SOL    HW125275   2.774   0.645   0.903
 5022SOL    HW225276   2.852   0.513   0.960
 5023SOL     OW25277   0.302   0.849   2.512
 5023SOL    HW125278   0.248   0.778   2.469
 5023SOL    HW225279   0.243   0.908   2.567
 5024SOL     OW25280   8.328   8.840   1.956
 5024SOL    HW125281   8.355   8.934   1.933
 5024SOL    HW225282   8.409   8.787   1.978
 5025SOL     OW25283   7.898   9.950   1.344
 5025SOL    HW125284   7.982   9.980   1.389
 5025SOL    HW225285   7.839   0.029   1.328
 5026SOL     OW25286   1.930   2.119   1.006
 5026SOL    HW125287   1.911   2.093   1.101
 5026SOL    HW225288   1.957   2.215   1.003
 5027SOL     OW25289   9.413   3.854   0.929
 5027SOL    HW125290   9.466   3.938   0.940
 5027SOL    HW225291   9.450   3.800   0.853
 5028SOL     OW25292   0.928   7.985   0.214
 5028SOL    HW125293   0.897   8.017   0.304
 5028SOL    HW225294   0.855   7.997   0.147
 5029SOL     OW25295   1.342   0.506   0.378
 5029SOL    HW125296   1.382   0.558   0.454
 5029SOL    HW225297   1.257   0.464   0.408
 5030SOL     OW25298   0.877   6.545   0.907
 5030SOL    HW125299   0.804   6.498   0.957
 5030SOL    HW225300   0.964   6.500   0.924
 5031SOL     OW25301   3.853   8.919   0.907
 5031SOL    HW125302   3.793   8.877   0.974
 5031SOL    HW225303   3.912   8.986   0.951
 5032SOL     OW25304   5.109   8.833   1.939
 5032SOL    HW125305   5.090   8.878   1.853
 5032SOL    HW225306   5.092   8.735   1.930
 5033SOL     OW25307   8.805   7.491   0.392
 5033SOL    HW125308   8.706   7.501   0.397
 5033SOL    HW225309   8.840   7.462   0.481
 5034SOL     OW25310   8.556   3.709   1.770
 5034SOL    HW125311   8.649   3.702   1.805
 5034SOL    HW225312   8.493   3.728   1.846
 5035SOL     OW25313   9.273   5.434   0.180
 5035SOL    HW125314   9.278   5.531   0.155
 5035SOL    HW225315   9.305   5.422   0.274
 5036SOL     OW25316   0.753   3.035   0.369
 5036SOL    HW125317   0.715   3.013   0.459
 5036SOL    HW225318   0.840   2.987   0.357
 5037SOL     OW25319   8.864   9.258   0.079
 5037SOL    HW125320   8.886   9.315   3.436
 5037SOL    HW225321   8.830   9.170   0.048
 5038SOL     OW25322   1.635   3.827   2.076
 5038SOL    HW125323   1.570   3.902   2.091
 5038SOL    HW225324   1.722   3.864   2.045
 5039SOL     OW25325   2.219   9.510   0.741
 5039SOL    HW125326   2.208   9.538   0.645
 5039SOL    HW225327   2.313   9.479   0.756
 5040SOL     OW25328   3.183   0.077   1.498
 5040SOL    HW125329   3.093   0.075   1.453
 5040SOL    HW225330   3.249   0.122   1.438
 5041SOL     OW25331   2.775   4.746   2.231
 5041SOL    HW125332   2.807   4.777   2.141
 5041SOL    HW225333   2.702   4.679   2.219
 5042SOL     OW25334   9.293   9.926   0.869
 5042SOL    HW125335   9.357   0.003   0.860
 5042SOL    HW225336   9.282   9.903   0.965
 5043SOL     OW25337   1.218   6.349   1.638
 5043SOL    HW125338   1.225   6.307   1.547
 5043SOL    HW225339   1.192   6.445   1.629
 5044SOL     OW25340   1.896   2.992   1.998
 5044SOL    HW125341   1.975   2.959   2.049
 5044SOL    HW225342   1.924   3.067   1.937
 5045SOL     OW25343   1.084   5.300   2.477
 5045SOL    HW125344   0.989   5.279   2.455
 5045SOL    HW225345   1.133   5.216   2.497
 5046SOL     OW25346   4.015   0.176   1.445
 5046SOL    HW125347   4.049   0.260   1.402
 5046SOL    HW225348   3.918   0.186   1.467
 5047SOL     OW25349   8.359   0.709   0.830
 5047SOL    HW125350   8.389   0.802   0.806
 5047SOL    HW225351   8.268   0.714   0.872
 5048SOL     OW25352   1.249   5.653   0.642
 5048SOL    HW125353   1.297   5.646   0.555
 5048SOL    HW225354   1.307   5.615   0.715
 5049SOL     OW25355   2.980   0.143   0.599
 5049SOL    HW125356   2.922   0.116   0.522
 5049SOL    HW225357   2.923   0.173   0.675
 5050SOL     OW25358   1.889   9.825   0.885
 5050SOL    HW125359   1.986   9.805   0.869
 5050SOL    HW225360   1.867   9.807   0.981
 5051SOL     OW25361   1.912   7.422   2.108
 5051SOL    HW125362   1.924   7.493   2.038
 5051SOL    HW225363   1.854   7.349   2.072
 5052SOL     OW25364   1.216   2.197   0.341
 5052SOL    HW125365   1.149   2.159   0.405
 5052SOL    HW225366   1.172   2.211   0.252
 5053SOL     OW25367   0.133   7.959   1.467
 5053SOL    HW125368   0.193   7.879   1.480
 5053SOL    HW225369   0.077   7.945   1.386
 5054SOL     OW25370   9.893   5.758   2.525
 5054SOL    HW125371   9.811   5.716   2.564
 5054SOL    HW225372   9.942   5.807   2.597
 5055SOL     OW25373   5.744   8.503   2.052
 5055SOL    HW125374   5.823   8.504   2.112
 5055SOL    HW225375   5.775   8.508   1.957
 5056SOL     OW25376   7.729   1.840   0.226
 5056SOL    HW125377   7.688   1.817   0.314
 5056SOL    HW225378   7.746   1.756   0.174
 5057SOL     OW25379   3.054   4.409   0.243
 5057SOL    HW125380   3.138   4.375   0.200
 5057SOL    HW225381   2.998   4.331   0.271
 5058SOL     OW25382   0.697   6.173   0.421
 5058SOL    HW125383   0.665   6.175   0.516
 5058SOL    HW225384   0.623   6.201   0.361
 5059SOL     OW25385   0.693   8.928   0.474
 5059SOL    HW125386   0.621   8.879   0.425
 5059SOL    HW225387   0.655   8.970   0.556
 5060SOL     OW25388   8.187   0.603   2.491
 5060SOL    HW125389   8.120   0.645   2.430
 5060SOL    HW225390   8.142   0.534   2.548
 5061SOL     OW25391   1.458   3.635   2.160
 5061SOL    HW125392   1.528   3.704   2.142
 5061SOL    HW225393   1.459   3.610   2.256
 5062SOL     OW25394   9.022   7.301   2.585
 5062SOL    HW125395   8.996   7.226   2.646
 5062SOL    HW225396   8.966   7.381   2.605
 5063SOL     OW25397   8.251   6.002   0.589
 5063SOL    HW125398   8.293   5.926   0.540
 5063SOL    HW225399   8.322   6.057   0.633
 5064SOL     OW25400   8.352   6.915   0.313
 5064SOL    HW125401   8.406   6.996   0.337
 5064SOL    HW225402   8.333   6.915   0.215
 5065SOL     OW25403   7.361   9.651   1.829
 5065SOL    HW125404   7.442   9.709   1.829
 5065SOL    HW225405   7.313   9.660   1.916
 5066SOL     OW25406   9.178   8.493   1.500
 5066SOL    HW125407   9.175   8.582   1.546
 5066SOL    HW225408   9.269   8.479   1.461
 5067SOL     OW25409   1.966   0.428   0.545
 5067SOL    HW125410   1.999   0.506   0.599
 5067SOL    HW225411   2.044   0.379   0.506
 5068SOL     OW25412   2.889   6.919   1.597
 5068SOL    HW125413   2.893   6.925   1.497
 5068SOL    HW225414   2.894   6.824   1.626
 5069SOL     OW25415   4.048   1.773   0.441
 5069SOL    HW125416   4.023   1.697   0.501
 5069SOL    HW225417   3.992   1.853   0.462
 5070SOL     OW25418   2.457   6.914   1.354
 5070SOL    HW125419   2.511   6.929   1.436
 5070SOL    HW225420   2.397   6.992   1.338
 5071SOL     OW25421   3.616   1.936   1.303
 5071SOL    HW125422   3.692   1.962   1.243
 5071SOL    HW225423   3.530   1.951   1.254
 5072SOL     OW25424   3.630   1.674   1.378
 5072SOL    HW125425   3.633   1.774   1.374
 5072SOL    HW225426   3.558   1.640   1.317
 5073SOL     OW25427   8.920   0.975   0.724
 5073SOL    HW125428   8.961   0.965   0.815
 5073SOL    HW225429   8.887   1.068   0.712
 5074SOL     OW25430   8.402   9.681   2.170
 5074SOL    HW125431   8.348   9.629   2.104
 5074SOL    HW225432   8.488   9.708   2.129
 5075SOL     OW25433   8.040   9.504   0.674
 5075SOL    HW125434   8.000   9.448   0.602
 5075SOL    HW225435   7.972   9.520   0.746
 5076SOL     OW25436   3.880   5.798   0.176
 5076SOL    HW125437   3.908   5.767   0.085
 5076SOL    HW225438   3.878   5.898   0.177
 5077SOL     OW25439   3.747   1.179   1.472
 5077SOL    HW125440   3.826   1.196   1.532
 5077SOL    HW225441   3.762   1.093   1.422
 5078SOL     OW25442   1.510   5.545   1.534
 5078SOL    HW125443   1.513   5.617   1.465
 5078SOL    HW225444   1.506   5.456   1.489
 5079SOL     OW25445   8.207   7.795   0.564
 5079SOL    HW125446   8.252   7.869   0.514
 5079SOL    HW225447   8.134   7.756   0.506
 5080SOL     OW25448   9.150   6.816   2.315
 5080SOL    HW125449   9.224   6.770   2.265
 5080SOL    HW225450   9.070   6.758   2.317
 5081SOL     OW25451   0.536   8.417   0.574
 5081SOL    HW125452   0.483   8.450   0.652
 5081SOL    HW225453   0.622   8.468   0.568
 5082SOL     OW25454   8.632   3.784   0.503
 5082SOL    HW125455   8.714   3.835   0.528
 5082SOL    HW225456   8.651   3.686   0.506
 5083SOL     OW25457   2.295   1.177   0.625
 5083SOL    HW125458   2.363   1.246   0.600
 5083SOL    HW225459   2.302   1.099   0.563
 5084SOL     OW25460   7.566   8.670   1.609
 5084SOL    HW125461   7.618   8.754   1.626
 5084SOL    HW225462   7.601   8.624   1.528
 5085SOL     OW25463   2.497   2.429   0.735
 5085SOL    HW125464   2.524   2.346   0.785
 5085SOL    HW225465   2.486   2.505   0.799
 5086SOL     OW25466   8.323   1.753   0.926
 5086SOL    HW125467   8.406   1.808   0.917
 5086SOL    HW225468   8.340   1.677   0.989
 5087SOL     OW25469   1.839   9.023   0.192
 5087SOL    HW125470   1.763   9.066   0.143
 5087SOL    HW225471   1.855   9.072   0.278
 5088SOL     OW25472   8.126   8.921   0.015
 5088SOL    HW125473   8.046   8.903   0.072
 5088SOL    HW225474   8.104   8.991   3.384
 5089SOL     OW25475   0.730   3.937   0.684
 5089SOL    HW125476   0.726   3.944   0.584
 5089SOL    HW225477   0.791   4.008   0.719
 5090SOL     OW25478   0.672   1.361   1.168
 5090SOL    HW125479   0.678   1.320   1.259
 5090SOL    HW225480   0.577   1.383   1.147
 5091SOL     OW25481   0.364   9.218   1.061
 5091SOL    HW125482   0.292   9.216   0.992
 5091SOL    HW225483   0.324   9.232   1.151
 5092SOL     OW25484   1.808   6.432   0.857
 5092SOL    HW125485   1.828   6.431   0.955
 5092SOL    HW225486   1.767   6.345   0.830
 5093SOL     OW25487   1.274   5.848   1.391
 5093SOL    HW125488   1.262   5.849   1.490
 5093SOL    HW225489   1.188   5.823   1.347
 5094SOL     OW25490   1.778   3.931   0.064
 5094SOL    HW125491   1.682   3.903   0.073
 5094SOL    HW225492   1.783   4.029   0.045
 5095SOL     OW25493   9.720   2.546   0.145
 5095SOL    HW125494   9.668   2.462   0.134
 5095SOL    HW225495   9.794   2.532   0.211
 5096SOL     OW25496   3.185   8.394   2.000
 5096SOL    HW125497   3.140   8.305   1.986
 5096SOL    HW225498   3.173   8.450   1.919
 5097SOL     OW25499   1.210   7.503   0.375
 5097SOL    HW125500   1.294   7.503   0.322
 5097SOL    HW225501   1.134   7.470   0.317
 5098SOL     OW25502   1.935   2.391   1.760
 5098SOL    HW125503   1.903   2.298   1.778
 5098SOL    HW225504   1.906   2.451   1.833
 5099SOL     OW25505   3.019   3.411   2.251
 5099SOL    HW125506   3.080   3.452   2.182
 5099SOL    HW225507   2.983   3.325   2.215
 5100SOL     OW25508   3.212   5.407   1.228
 5100SOL    HW125509   3.130   5.429   1.175
 5100SOL    HW225510   3.212   5.310   1.251
 5101SOL     OW25511   1.836   7.667   1.575
 5101SOL    HW125512   1.845   7.730   1.652
 5101SOL    HW225513   1.853   7.716   1.489
 5102SOL     OW25514   0.032   2.841   0.979
 5102SOL    HW125515   0.036   2.877   1.073
 5102SOL    HW225516   0.025   2.918   0.915
 5103SOL     OW25517   2.251   2.456   0.119
 5103SOL    HW125518   2.251   2.384   0.049
 5103SOL    HW225519   2.159   2.493   0.130
 5104SOL     OW25520   2.397   6.411   2.300
 5104SOL    HW125521   2.463   6.338   2.319
 5104SOL    HW225522   2.377   6.460   2.384
 5105SOL     OW25523   1.360   9.616   1.370
 5105SOL    HW125524   1.394   9.673   1.296
 5105SOL    HW225525   1.316   9.673   1.440
 5106SOL     OW25526   2.458   1.595   0.427
 5106SOL    HW125527   2.501   1.665   0.370
 5106SOL    HW225528   2.424   1.636   0.511
 5107SOL     OW25529   1.874   7.842   1.790
 5107SOL    HW125530   1.883   7.888   1.879
 5107SOL    HW225531   1.955   7.861   1.735
 5108SOL     OW25532   0.738   5.071   0.442
 5108SOL    HW125533   0.837   5.069   0.451
 5108SOL    HW225534   0.713   5.129   0.364
 5109SOL     OW25535   1.344   9.054   0.211
 5109SOL    HW125536   1.360   8.958   0.190
 5109SOL    HW225537   1.277   9.061   0.285
 5110SOL     OW25538   8.536   1.147   1.224
 5110SOL    HW125539   8.465   1.154   1.154
 5110SOL    HW225540   8.546   1.235   1.271
 5111SOL     OW25541   4.101   0.519   1.085
 5111SOL    HW125542   4.064   0.607   1.056
 5111SOL    HW225543   4.123   0.464   1.004
 5112SOL     OW25544   8.835   4.094   0.765
 5112SOL    HW125545   8.832   4.016   0.703
 5112SOL    HW225546   8.929   4.126   0.775
 5113SOL     OW25547   1.401   8.325   0.332
 5113SOL    HW125548   1.308   8.362   0.333
 5113SOL    HW225549   1.398   8.226   0.330
 5114SOL     OW25550   0.993   7.229   1.560
 5114SOL    HW125551   1.039   7.237   1.649
 5114SOL    HW225552   1.058   7.247   1.487
 5115SOL     OW25553   1.125   9.795   0.784
 5115SOL    HW125554   1.121   9.748   0.872
 5115SOL    HW225555   1.218   9.825   0.766
 5116SOL     OW25556   4.139   4.359   1.201
 5116SOL    HW125557   4.190   4.428   1.150
 5116SOL    HW225558   4.061   4.402   1.247
 5117SOL     OW25559   2.733   3.926   1.903
 5117SOL    HW125560   2.723   3.896   1.998
 5117SOL    HW225561   2.828   3.954   1.887
 5118SOL     OW25562   1.586   9.265   0.689
 5118SOL    HW125563   1.519   9.273   0.763
 5118SOL    HW225564   1.539   9.263   0.601
 5119SOL     OW25565   3.501   3.129   0.611
 5119SOL    HW125566   3.407   3.108   0.639
 5119SOL    HW225567   3.501   3.211   0.555
 5120SOL     OW25568   1.880   6.478   1.120
 5120SOL    HW125569   1.824   6.556   1.149
 5120SOL    HW225570   1.974   6.509   1.104
 5121SOL     OW25571   1.476   4.052   2.106
 5121SOL    HW125572   1.440   4.068   2.198
 5121SOL    HW225573   1.401   4.021   2.047
 5122SOL     OW25574   2.838   3.582   1.887
 5122SOL    HW125575   2.816   3.589   1.790
 5122SOL    HW225576   2.878   3.493   1.907
 5123SOL     OW25577   9.138   2.598   1.838
 5123SOL    HW125578   9.118   2.583   1.741
 5123SOL    HW225579   9.094   2.683   1.868
 5124SOL     OW25580   4.540   3.141   0.682
 5124SOL    HW125581   4.520   3.091   0.767
 5124SOL    HW225582   4.627   3.109   0.645
 5125SOL     OW25583   8.823   1.571   1.947
 5125SOL    HW125584   8.781   1.496   1.897
 5125SOL    HW225585   8.922   1.567   1.937
 5126SOL     OW25586   4.447   1.674   1.398
 5126SOL    HW125587   4.436   1.680   1.299
 5126SOL    HW225588   4.469   1.580   1.423
 5127SOL     OW25589   0.223   4.879   2.142
 5127SOL    HW125590   0.173   4.853   2.225
 5127SOL    HW225591   0.321   4.864   2.156
 5128SOL     OW25592   3.888   2.000   0.459
 5128SOL    HW125593   3.958   2.058   0.419
 5128SOL    HW225594   3.809   1.996   0.399
 5129SOL     OW25595   8.991   5.560   2.234
 5129SOL    HW125596   9.087   5.567   2.262
 5129SOL    HW225597   8.948   5.650   2.240
 5130SOL     OW25598   4.350   1.003   2.335
 5130SOL    HW125599   4.294   1.078   2.299
 5130SOL    HW225600   4.403   1.035   2.413
 5131SOL     OW25601   8.439   7.421   0.723
 5131SOL    HW125602   8.365   7.398   0.660
 5131SOL    HW225603   8.401   7.457   0.808
 5132SOL     OW25604  10.000   7.168   1.093
 5132SOL    HW125605   9.938   7.089   1.092
 5132SOL    HW225606   9.948   7.251   1.072
 5133SOL     OW25607   7.096   9.691   2.297
 5133SOL    HW125608   7.032   9.649   2.363
 5133SOL    HW225609   7.093   9.790   2.307
 5134SOL     OW25610   3.674   4.373   2.354
 5134SOL    HW125611   3.748   4.385   2.420
 5134SOL    HW225612   3.664   4.456   2.300
 5135SOL     OW25613   2.230   7.847   2.672
 5135SOL    HW125614   2.271   7.777   2.729
 5135SOL    HW225615   2.297   7.879   2.605
 5136SOL     OW25616   3.490   4.176   1.563
 5136SOL    HW125617   3.469   4.134   1.475
 5136SOL    HW225618   3.540   4.111   1.620
 5137SOL     OW25619   0.475   3.052   0.984
 5137SOL    HW125620   0.484   2.993   0.904
 5137SOL    HW225621   0.516   3.006   1.064
 5138SOL     OW25622   1.396   5.348   0.067
 5138SOL    HW125623   1.381   5.356   3.406
 5138SOL    HW225624   1.412   5.252   0.091
 5139SOL     OW25625   2.756   7.740   2.492
 5139SOL    HW125626   2.717   7.789   2.571
 5139SOL    HW225627   2.728   7.644   2.495
 5140SOL     OW25628   1.323   5.529   1.954
 5140SOL    HW125629   1.256   5.469   1.998
 5140SOL    HW225630   1.298   5.541   1.858
 5141SOL     OW25631   9.580   2.940   1.523
 5141SOL    HW125632   9.647   2.970   1.592
 5141SOL    HW225633   9.603   2.847   1.494
 5142SOL     OW25634   2.115   6.155   0.790
 5142SOL    HW125635   2.158   6.065   0.796
 5142SOL    HW225636   2.132   6.205   0.875
 5143SOL     OW25637   1.701   5.891   1.179
 5143SOL    HW125638   1.696   5.974   1.124
 5143SOL    HW225639   1.797   5.865   1.193
 5144SOL     OW25640   8.630   0.373   0.857
 5144SOL    HW125641   8.588   0.400   0.944
 5144SOL    HW225642   8.708   0.312   0.875
 5145SOL     OW25643   3.974   3.245   2.061
 5145SOL    HW125644   4.025   3.320   2.104
 5145SOL    HW225645   3.936   3.277   1.974
 5146SOL     OW25646   4.216   2.976   1.843
 5146SOL    HW125647   4.288   2.907   1.840
 5146SOL    HW225648   4.219   3.023   1.931
 5147SOL     OW25649   8.383   6.638   0.265
 5147SOL    HW125650   8.379   6.729   0.306
 5147SOL    HW225651   8.334   6.637   0.178
 5148SOL     OW25652   9.872   6.378   1.838
 5148SOL    HW125653   9.834   6.296   1.881
 5148SOL    HW225654   9.933   6.351   1.764
 5149SOL     OW25655   0.239   0.829   1.656
 5149SOL    HW125656   0.321   0.839   1.712
 5149SOL    HW225657   0.189   0.915   1.655
 5150SOL     OW25658   7.689   8.176   2.269
 5150SOL    HW125659   7.687   8.273   2.245
 5150SOL    HW225660   7.782   8.140   2.256
 5151SOL     OW25661   1.933   0.766   1.961
 5151SOL    HW125662   1.970   0.855   1.936
 5151SOL    HW225663   1.961   0.698   1.893
 5152SOL     OW25664   9.822   7.620   2.443
 5152SOL    HW125665   9.761   7.650   2.516
 5152SOL    HW225666   9.911   7.596   2.481
 5153SOL     OW25667   2.332   9.572   0.269
 5153SOL    HW125668   2.304   9.482   0.237
 5153SOL    HW225669   2.369   9.625   0.192
 5154SOL     OW25670   1.441   5.094   0.158
 5154SOL    HW125671   1.443   5.062   0.252
 5154SOL    HW225672   1.529   5.074   0.114
 5155SOL     OW25673   0.963   5.265   1.749
 5155SOL    HW125674   0.922   5.351   1.717
 5155SOL    HW225675   1.012   5.221   1.674
 5156SOL     OW25676   3.274   3.221   0.908
 5156SOL    HW125677   3.280   3.305   0.962
 5156SOL    HW225678   3.361   3.171   0.914
 5157SOL     OW25679   9.004   2.188   0.734
 5157SOL    HW125680   8.912   2.218   0.761
 5157SOL    HW225681   9.002   2.090   0.717
 5158SOL     OW25682   7.555   1.590   2.690
 5158SOL    HW125683   7.583   1.547   2.775
 5158SOL    HW225684   7.533   1.520   2.622
 5159SOL     OW25685   9.732   4.294   0.219
 5159SOL    HW125686   9.774   4.383   0.236
 5159SOL    HW225687   9.632   4.303   0.225
 5160SOL     OW25688   1.168   3.115   2.539
 5160SOL    HW125689   1.103   3.187   2.563
 5160SOL    HW225690   1.128   3.057   2.468
 5161SOL     OW25691   2.570   6.581   2.641
 5161SOL    HW125692   2.591   6.550   2.734
 5161SOL    HW225693   2.624   6.527   2.576
 5162SOL     OW25694   1.583   7.276   1.237
 5162SOL    HW125695   1.557   7.309   1.147
 5162SOL    HW225696   1.579   7.176   1.239
 5163SOL     OW25697   4.285   1.692   0.677
 5163SOL    HW125698   4.335   1.698   0.590
 5163SOL    HW225699   4.247   1.781   0.700
 5164SOL     OW25700   3.278   1.250   0.623
 5164SOL    HW125701   3.202   1.300   0.664
 5164SOL    HW225702   3.243   1.180   0.561
 5165SOL     OW25703   0.576   8.598   0.189
 5165SOL    HW125704   0.521   8.527   0.233
 5165SOL    HW225705   0.651   8.555   0.139
 5166SOL     OW25706   0.866   8.076   0.463
 5166SOL    HW125707   0.781   8.118   0.494
 5166SOL    HW225708   0.944   8.122   0.507
 5167SOL     OW25709   1.123   2.558   1.062
 5167SOL    HW125710   1.170   2.632   1.012
 5167SOL    HW225711   1.188   2.484   1.080
 5168SOL     OW25712   9.392   1.183   1.308
 5168SOL    HW125713   9.324   1.216   1.373
 5168SOL    HW225714   9.441   1.261   1.268
 5169SOL     OW25715   8.339   6.729   1.258
 5169SOL    HW125716   8.415   6.738   1.193
 5169SOL    HW225717   8.317   6.632   1.269
 5170SOL     OW25718   2.229   0.892   1.780
 5170SOL    HW125719   2.255   0.916   1.873
 5170SOL    HW225720   2.245   0.794   1.765
 5171SOL     OW25721   2.841   9.910   0.162
 5171SOL    HW125722   2.815   9.818   0.133
 5171SOL    HW225723   2.784   9.977   0.115
 5172SOL     OW25724   8.301   1.436   2.276
 5172SOL    HW125725   8.282   1.475   2.186
 5172SOL    HW225726   8.338   1.507   2.336
 5173SOL     OW25727   4.335   1.913   2.541
 5173SOL    HW125728   4.433   1.898   2.553
 5173SOL    HW225729   4.301   1.858   2.465
 5174SOL     OW25730   7.262   8.736   2.042
 5174SOL    HW125731   7.289   8.728   1.946
 5174SOL    HW225732   7.211   8.821   2.054
 5175SOL     OW25733   0.551   8.010   0.320
 5175SOL    HW125734   0.569   8.047   0.411
 5175SOL    HW225735   0.569   8.080   0.251
 5176SOL     OW25736   1.919   3.201   1.405
 5176SOL    HW125737   1.964   3.266   1.344
 5176SOL    HW225738   1.986   3.165   1.470
 5177SOL     OW25739   4.200   8.331   0.878
 5177SOL    HW125740   4.162   8.359   0.966
 5177SOL    HW225741   4.236   8.238   0.885
 5178SOL     OW25742   0.177   1.190   2.235
 5178SOL    HW125743   0.173   1.261   2.166
 5178SOL    HW225744   0.269   1.149   2.234
 5179SOL     OW25745   3.066   3.592   2.447
 5179SOL    HW125746   3.166   3.599   2.451
 5179SOL    HW225747   3.040   3.526   2.376
 5180SOL     OW25748   8.281   8.327   1.011
 5180SOL    HW125749   8.325   8.247   0.969
 5180SOL    HW225750   8.288   8.405   0.949
 5181SOL     OW25751   9.372   3.795   2.386
 5181SOL    HW125752   9.313   3.858   2.436
 5181SOL    HW225753   9.341   3.788   2.292
 5182SOL     OW25754   9.472   3.441   0.640
 5182SOL    HW125755   9.498   3.473   0.549
 5182SOL    HW225756   9.407   3.366   0.631
 5183SOL     OW25757   3.496   3.083   0.974
 5183SOL    HW125758   3.574   3.131   1.015
 5183SOL    HW225759   3.479   2.999   1.025
 5184SOL     OW25760   9.514   2.973   0.953
 5184SOL    HW125761   9.546   2.895   1.007
 5184SOL    HW225762   9.438   2.944   0.895
 5185SOL     OW25763   2.757   6.622   0.619
 5185SOL    HW125764   2.665   6.586   0.601
 5185SOL    HW225765   2.770   6.708   0.569
 5186SOL     OW25766   0.193   3.567   1.789
 5186SOL    HW125767   0.219   3.585   1.694
 5186SOL    HW225768   0.095   3.584   1.800
 5187SOL     OW25769   2.556   6.848   2.214
 5187SOL    HW125770   2.525   6.758   2.184
 5187SOL    HW225771   2.495   6.882   2.286
 5188SOL     OW25772   3.257   1.648   0.363
 5188SOL    HW125773   3.247   1.747   0.362
 5188SOL    HW225774   3.311   1.621   0.443
 5189SOL     OW25775   1.269   2.122   1.534
 5189SOL    HW125776   1.332   2.133   1.611
 5189SOL    HW225777   1.219   2.035   1.544
 5190SOL     OW25778   6.497   9.364   1.563
 5190SOL    HW125779   6.499   9.340   1.659
 5190SOL    HW225780   6.514   9.462   1.553
 5191SOL     OW25781   9.170   1.108   1.117
 5191SOL    HW125782   9.265   1.091   1.141
 5191SOL    HW225783   9.137   1.035   1.057
 5192SOL     OW25784   2.656   2.516   1.911
 5192SOL    HW125785   2.699   2.505   1.822
 5192SOL    HW225786   2.567   2.561   1.901
 5193SOL     OW25787   9.475   8.497   0.427
 5193SOL    HW125788   9.465   8.458   0.336
 5193SOL    HW225789   9.500   8.424   0.491
 5194SOL     OW25790   2.758   1.447   1.213
 5194SOL    HW125791   2.716   1.487   1.131
 5194SOL    HW225792   2.734   1.502   1.293
 5195SOL     OW25793   1.042   3.048   1.449
 5195SOL    HW125794   1.085   3.136   1.428
 5195SOL    HW225795   1.113   2.980   1.468
 5196SOL     OW25796   9.549   7.795   1.199
 5196SOL    HW125797   9.610   7.860   1.245
 5196SOL    HW225798   9.505   7.840   1.121
 5197SOL     OW25799   4.501   3.646   2.023
 5197SOL    HW125800   4.410   3.636   1.982
 5197SOL    HW225801   4.500   3.610   2.116
 5198SOL     OW25802   8.067   9.762   0.571
 5198SOL    HW125803   8.066   9.674   0.619
 5198SOL    HW225804   8.138   9.761   0.500
 5199SOL     OW25805   0.428   7.725   1.752
 5199SOL    HW125806   0.504   7.727   1.817
 5199SOL    HW225807   0.351   7.777   1.790
 5200SOL     OW25808   0.272   8.837   2.124
 5200SOL    HW125809   0.181   8.867   2.094
 5200SOL    HW225810   0.342   8.896   2.084
 5201SOL     OW25811   4.159   1.936   0.728
 5201SOL    HW125812   4.167   1.990   0.645
 5201SOL    HW225813   4.167   1.995   0.808
 5202SOL     OW25814   9.544   8.514   0.909
 5202SOL    HW125815   9.545   8.614   0.907
 5202SOL    HW225816   9.636   8.480   0.890
 5203SOL     OW25817   0.151   3.427   0.015
 5203SOL    HW125818   0.065   3.384   3.421
 5203SOL    HW225819   0.133   3.483   0.095
 5204SOL     OW25820   0.119   6.967   0.540
 5204SOL    HW125821   0.123   7.061   0.507
 5204SOL    HW225822   0.091   6.966   0.635
 5205SOL     OW25823   2.092   7.851   1.632
 5205SOL    HW125824   2.085   7.870   1.533
 5205SOL    HW225825   2.182   7.812   1.651
 5206SOL     OW25826   0.500   8.090   2.557
 5206SOL    HW125827   0.510   8.186   2.533
 5206SOL    HW225828   0.586   8.042   2.539
 5207SOL     OW25829   1.221   2.784   0.937
 5207SOL    HW125830   1.276   2.794   0.854
 5207SOL    HW225831   1.195   2.874   0.970
 5208SOL     OW25832   8.739   9.265   2.261
 5208SOL    HW125833   8.818   9.208   2.284
 5208SOL    HW225834   8.723   9.331   2.335
 5209SOL     OW25835   0.795   5.447   0.088
 5209SOL    HW125836   0.829   5.433   3.432
 5209SOL    HW225837   0.871   5.472   0.148
 5210SOL     OW25838   1.968   3.182   1.815
 5210SOL    HW125839   2.017   3.159   1.730
 5210SOL    HW225840   1.901   3.253   1.797
 5211SOL     OW25841   3.652   9.388   0.915
 5211SOL    HW125842   3.572   9.429   0.959
 5211SOL    HW225843   3.689   9.316   0.973
 5212SOL     OW25844   8.951   4.965   1.970
 5212SOL    HW125845   9.026   4.978   1.906
 5212SOL    HW225846   8.875   4.918   1.925
 5213SOL     OW25847   0.885   4.836   2.007
 5213SOL    HW125848   0.887   4.747   1.962
 5213SOL    HW225849   0.935   4.902   1.951
 5214SOL     OW25850   0.474   0.660   2.169
 5214SOL    HW125851   0.488   0.729   2.240
 5214SOL    HW225852   0.531   0.682   2.090
 5215SOL     OW25853   1.099   4.158   2.033
 5215SOL    HW125854   1.066   4.162   2.127
 5215SOL    HW225855   1.152   4.075   2.019
 5216SOL     OW25856   2.462   3.009   1.473
 5216SOL    HW125857   2.546   3.044   1.432
 5216SOL    HW225858   2.390   3.006   1.404
 5217SOL     OW25859   2.101   4.221   2.340
 5217SOL    HW125860   2.075   4.311   2.374
 5217SOL    HW225861   2.201   4.211   2.347
 5218SOL     OW25862   8.427   9.569   2.421
 5218SOL    HW125863   8.338   9.535   2.452
 5218SOL    HW225864   8.418   9.607   2.329
 5219SOL     OW25865   8.249   2.839   2.235
 5219SOL    HW125866   8.177   2.778   2.268
 5219SOL    HW225867   8.265   2.912   2.302
 5220SOL     OW25868   2.728   8.524   2.101
 5220SOL    HW125869   2.726   8.623   2.110
 5220SOL    HW225870   2.769   8.484   2.183
 5221SOL     OW25871   3.573   0.775   0.441
 5221SOL    HW125872   3.609   0.777   0.535
 5221SOL    HW225873   3.636   0.824   0.381
 5222SOL     OW25874   3.353   7.780   2.075
 5222SOL    HW125875   3.269   7.754   2.124
 5222SOL    HW225876   3.428   7.723   2.106
 5223SOL     OW25877   3.636   2.993   2.268
 5223SOL    HW125878   3.640   3.001   2.368
 5223SOL    HW225879   3.590   2.908   2.242
 5224SOL     OW25880   8.548   8.215   0.702
 5224SOL    HW125881   8.621   8.157   0.666
 5224SOL    HW225882   8.508   8.171   0.782
 5225SOL     OW25883   8.110   0.677   0.212
 5225SOL    HW125884   8.175   0.612   0.174
 5225SOL    HW225885   8.017   0.639   0.207
 5226SOL     OW25886   9.187   9.406   1.535
 5226SOL    HW125887   9.286   9.412   1.523
 5226SOL    HW225888   9.143   9.396   1.446
 5227SOL     OW25889   8.856   3.697   0.812
 5227SOL    HW125890   8.888   3.741   0.895
 5227SOL    HW225891   8.767   3.655   0.828
 5228SOL     OW25892   2.331   5.902   2.151
 5228SOL    HW125893   2.324   5.931   2.056
 5228SOL    HW225894   2.353   5.981   2.208
 5229SOL     OW25895   9.009   4.326   2.500
 5229SOL    HW125896   9.106   4.308   2.482
 5229SOL    HW225897   8.954   4.284   2.428
 5230SOL     OW25898   3.885   5.333   1.018
 5230SOL    HW125899   3.793   5.372   1.012
 5230SOL    HW225900   3.937   5.356   0.936
 5231SOL     OW25901   8.711   4.984   0.071
 5231SOL    HW125902   8.681   4.917   0.003
 5231SOL    HW225903   8.810   4.973   0.086
 5232SOL     OW25904   1.236   3.529   2.563
 5232SOL    HW125905   1.140   3.551   2.545
 5232SOL    HW225906   1.242   3.437   2.602
 5233SOL     OW25907   3.966   1.252   1.613
 5233SOL    HW125908   4.002   1.341   1.586
 5233SOL    HW225909   4.016   1.219   1.693
 5234SOL     OW25910   2.626   9.059   0.953
 5234SOL    HW125911   2.549   9.041   1.014
 5234SOL    HW225912   2.651   9.156   0.959
 5235SOL     OW25913   9.662   9.965   1.487
 5235SOL    HW125914   9.625   9.907   1.414
 5235SOL    HW225915   9.726   0.032   1.448
 5236SOL     OW25916   8.702   1.920   2.547
 5236SOL    HW125917   8.738   2.011   2.570
 5236SOL    HW225918   8.771   1.851   2.566
 5237SOL     OW25919   9.368   7.752   2.376
 5237SOL    HW125920   9.360   7.652   2.382
 5237SOL    HW225921   9.397   7.777   2.284
 5238SOL     OW25922   0.158   5.823   0.857
 5238SOL    HW125923   0.119   5.758   0.792
 5238SOL    HW225924   0.168   5.912   0.813
 5239SOL     OW25925   0.418   2.139   0.832
 5239SOL    HW125926   0.485   2.209   0.805
 5239SOL    HW225927   0.330   2.160   0.790
 5240SOL     OW25928   5.479   9.097   1.890
 5240SOL    HW125929   5.546   9.088   1.816
 5240SOL    HW225930   5.522   9.144   1.968
 5241SOL     OW25931   8.698   7.816   0.550
 5241SOL    HW125932   8.645   7.812   0.465
 5241SOL    HW225933   8.681   7.733   0.604
 5242SOL     OW25934   4.766   1.922   1.528
 5242SOL    HW125935   4.730   1.914   1.435
 5242SOL    HW225936   4.707   1.983   1.581
 5243SOL     OW25937   2.610   4.297   0.394
 5243SOL    HW125938   2.642   4.207   0.364
 5243SOL    HW225939   2.627   4.364   0.322
 5244SOL     OW25940   0.262   3.944   0.912
 5244SOL    HW125941   0.332   4.008   0.944
 5244SOL    HW225942   0.211   3.986   0.837
 5245SOL     OW25943   9.008   4.579   1.257
 5245SOL    HW125944   8.930   4.630   1.221
 5245SOL    HW225945   8.981   4.533   1.342
 5246SOL     OW25946   1.593   8.733   2.135
 5246SOL    HW125947   1.530   8.810   2.132
 5246SOL    HW225948   1.585   8.680   2.051
 5247SOL     OW25949   4.941   0.225   2.286
 5247SOL    HW125950   4.869   0.252   2.350
 5247SOL    HW225951   5.028   0.264   2.315
 5248SOL     OW25952   1.379   6.065   1.248
 5248SOL    HW125953   1.395   6.025   1.158
 5248SOL    HW225954   1.344   5.995   1.310
 5249SOL     OW25955   3.373   2.887   2.565
 5249SOL    HW125956   3.306   2.815   2.547
 5249SOL    HW225957   3.326   2.974   2.577
 5250SOL     OW25958   3.240   2.193   0.226
 5250SOL    HW125959   3.148   2.187   0.186
 5250SOL    HW225960   3.262   2.288   0.246
 5251SOL     OW25961   4.461   2.999   0.899
 5251SOL    HW125962   4.516   2.929   0.943
 5251SOL    HW225963   4.405   3.046   0.967
 5252SOL     OW25964   8.058   0.407   1.499
 5252SOL    HW125965   8.113   0.474   1.549
 5252SOL    HW225966   8.118   0.351   1.442
 5253SOL     OW25967   8.798   6.118   1.447
 5253SOL    HW125968   8.873   6.066   1.407
 5253SOL    HW225969   8.811   6.126   1.545
 5254SOL     OW25970   2.591   0.279   2.020
 5254SOL    HW125971   2.563   0.184   2.033
 5254SOL    HW225972   2.691   0.284   2.010
 5255SOL     OW25973   4.091   0.063   2.682
 5255SOL    HW125974   4.018   0.016   2.632
 5255SOL    HW225975   4.173   0.068   2.624
 5256SOL     OW25976   0.795   2.990   1.343
 5256SOL    HW125977   0.779   2.899   1.381
 5256SOL    HW225978   0.885   3.023   1.372
 5257SOL     OW25979   3.983   5.226   1.250
 5257SOL    HW125980   3.954   5.278   1.170
 5257SOL    HW225981   3.908   5.223   1.316
 5258SOL     OW25982   8.579   6.874   1.577
 5258SOL    HW125983   8.632   6.799   1.537
 5258SOL    HW225984   8.556   6.851   1.672
 5259SOL     OW25985   1.899   9.821   2.473
 5259SOL    HW125986   1.835   9.897   2.461
 5259SOL    HW225987   1.992   9.856   2.479
 5260SOL     OW25988   2.919   8.252   0.713
 5260SOL    HW125989   2.929   8.230   0.616
 5260SOL    HW225990   2.980   8.194   0.767
 5261SOL     OW25991   0.688   8.972   2.557
 5261SOL    HW125992   0.639   8.900   2.607
 5261SOL    HW225993   0.758   8.931   2.499
 5262SOL     OW25994   4.403   8.637   1.338
 5262SOL    HW125995   4.437   8.728   1.365
 5262SOL    HW225996   4.478   8.583   1.301
 5263SOL     OW25997   3.398   8.257   2.109
 5263SOL    HW125998   3.427   8.179   2.053
 5263SOL    HW225999   3.326   8.307   2.061
 5264SOL     OW26000   1.967   8.773   0.197
 5264SOL    HW126001   2.046   8.778   0.136
 5264SOL    HW226002   1.918   8.860   0.196
 5265SOL     OW26003   9.286   6.346   0.277
 5265SOL    HW126004   9.265   6.252   0.303
 5265SOL    HW226005   9.383   6.354   0.255
 5266SOL     OW26006   0.202   1.661   0.617
 5266SOL    HW126007   0.288   1.665   0.566
 5266SOL    HW226008   0.136   1.606   0.566
 5267SOL     OW26009   4.903   2.292   1.805
 5267SOL    HW126010   4.903   2.386   1.838
 5267SOL    HW226011   4.859   2.288   1.715
 5268SOL     OW26012   2.685   8.483   1.571
 5268SOL    HW126013   2.705   8.402   1.625
 5268SOL    HW226014   2.617   8.460   1.501
 5269SOL     OW26015   1.275   5.530   1.682
 5269SOL    HW126016   1.361   5.548   1.634
 5269SOL    HW226017   1.246   5.436   1.664
 5270SOL     OW26018   2.489   5.859   0.826
 5270SOL    HW126019   2.560   5.920   0.791
 5270SOL    HW226020   2.516   5.764   0.812
 5271SOL     OW26021   3.119   2.602   2.092
 5271SOL    HW126022   3.181   2.637   2.021
 5271SOL    HW226023   3.025   2.631   2.071
 5272SOL     OW26024   3.958   9.250   1.768
 5272SOL    HW126025   3.876   9.241   1.712
 5272SOL    HW226026   3.980   9.346   1.780
 5273SOL     OW26027   9.506   3.623   2.013
 5273SOL    HW126028   9.587   3.658   2.060
 5273SOL    HW226029   9.508   3.650   1.917
 5274SOL     OW26030   1.760   4.296   1.073
 5274SOL    HW126031   1.804   4.349   1.000
 5274SOL    HW226032   1.688   4.350   1.115
 5275SOL     OW26033   3.336   0.177   1.272
 5275SOL    HW126034   3.416   0.205   1.219
 5275SOL    HW226035   3.301   0.090   1.237
 5276SOL     OW26036   2.530   1.154   0.988
 5276SOL    HW126037   2.487   1.133   1.076
 5276SOL    HW226038   2.601   1.087   0.969
 5277SOL     OW26039   3.339   2.031   0.884
 5277SOL    HW126040   3.338   2.068   0.791
 5277SOL    HW226041   3.370   1.936   0.882
 5278SOL     OW26042   8.197   0.207   2.479
 5278SOL    HW126043   8.260   0.277   2.448
 5278SOL    HW226044   8.248   0.129   2.516
 5279SOL     OW26045   7.723   9.497   1.354
 5279SOL    HW126046   7.794   9.566   1.347
 5279SOL    HW226047   7.636   9.534   1.319
 5280SOL     OW26048   4.181   1.984   2.159
 5280SOL    HW126049   4.146   1.914   2.096
 5280SOL    HW226050   4.120   2.063   2.159
 5281SOL     OW26051   3.431   7.224   1.894
 5281SOL    HW126052   3.381   7.218   1.808
 5281SOL    HW226053   3.465   7.134   1.920
 5282SOL     OW26054   4.385   3.303   2.201
 5282SOL    HW126055   4.408   3.299   2.299
 5282SOL    HW226056   4.469   3.310   2.147
 5283SOL     OW26057   8.340   2.601   0.621
 5283SOL    HW126058   8.403   2.557   0.557
 5283SOL    HW226059   8.385   2.678   0.666
 5284SOL     OW26060   2.776   6.446   1.495
 5284SOL    HW126061   2.854   6.458   1.434
 5284SOL    HW226062   2.750   6.350   1.499
 5285SOL     OW26063   0.848   3.385   0.144
 5285SOL    HW126064   0.792   3.358   0.222
 5285SOL    HW226065   0.854   3.309   0.080
 5286SOL     OW26066   1.487   2.829   1.383
 5286SOL    HW126067   1.492   2.871   1.292
 5286SOL    HW226068   1.530   2.890   1.450
 5287SOL     OW26069   0.619   4.075   2.259
 5287SOL    HW126070   0.633   4.159   2.207
 5287SOL    HW226071   0.678   4.003   2.222
 5288SOL     OW26072   2.097   6.694   1.404
 5288SOL    HW126073   2.137   6.661   1.489
 5288SOL    HW226074   2.167   6.693   1.332
 5289SOL     OW26075   3.634   9.494   2.604
 5289SOL    HW126076   3.630   9.437   2.522
 5289SOL    HW226077   3.714   9.468   2.658
 5290SOL     OW26078   1.489   4.444   2.405
 5290SOL    HW126079   1.523   4.524   2.454
 5290SOL    HW226080   1.559   4.373   2.403
 5291SOL     OW26081   2.918   8.700   0.920
 5291SOL    HW126082   3.010   8.736   0.935
 5291SOL    HW226083   2.863   8.769   0.872
 5292SOL     OW26084   1.093   1.537   0.782
 5292SOL    HW126085   1.081   1.636   0.791
 5292SOL    HW226086   1.019   1.499   0.727
 5293SOL     OW26087   8.561   4.060   1.155
 5293SOL    HW126088   8.650   4.040   1.114
 5293SOL    HW226089   8.528   4.148   1.122
 5294SOL     OW26090   9.755   1.461   2.120
 5294SOL    HW126091   9.833   1.470   2.181
 5294SOL    HW226092   9.691   1.536   2.137
 5295SOL     OW26093   9.443   6.473   1.814
 5295SOL    HW126094   9.349   6.447   1.792
 5295SOL    HW226095   9.497   6.480   1.729
 5296SOL     OW26096   4.145   9.180   0.522
 5296SOL    HW126097   4.077   9.223   0.462
 5296SOL    HW226098   4.226   9.238   0.526
 5297SOL     OW26099   9.300   2.891   0.805
 5297SOL    HW126100   9.240   2.918   0.729
 5297SOL    HW226101   9.245   2.850   0.877
 5298SOL     OW26102   3.315   4.712   0.062
 5298SOL    HW126103   3.218   4.700   0.084
 5298SOL    HW226104   3.368   4.639   0.105
 5299SOL     OW26105   7.836   1.591   0.142
 5299SOL    HW126106   7.828   1.570   0.239
 5299SOL    HW226107   7.927   1.626   0.123
 5300SOL     OW26108   6.949   8.860   2.289
 5300SOL    HW126109   6.944   8.861   2.189
 5300SOL    HW226110   6.883   8.794   2.325
 5301SOL     OW26111   4.507   8.267   2.226
 5301SOL    HW126112   4.540   8.210   2.151
 5301SOL    HW226113   4.414   8.240   2.251
 5302SOL     OW26114   2.379   1.997   1.409
 5302SOL    HW126115   2.352   1.938   1.485
 5302SOL    HW226116   2.478   1.988   1.392
 5303SOL     OW26117   0.840   7.906   1.090
 5303SOL    HW126118   0.842   7.832   1.158
 5303SOL    HW226119   0.790   7.984   1.128
 5304SOL     OW26120   4.083   8.315   2.455
 5304SOL    HW126121   4.129   8.357   2.533
 5304SOL    HW226122   4.025   8.383   2.410
 5305SOL     OW26123   3.562   9.190   0.746
 5305SOL    HW126124   3.551   9.127   0.822
 5305SOL    HW226125   3.595   9.278   0.780
 5306SOL     OW26126   1.818   7.165   1.812
 5306SOL    HW126127   1.785   7.165   1.906
 5306SOL    HW226128   1.877   7.244   1.798
 5307SOL     OW26129   8.766   7.262   2.245
 5307SOL    HW126130   8.865   7.276   2.251
 5307SOL    HW226131   8.726   7.336   2.191
 5308SOL     OW26132   0.916   3.896   0.240
 5308SOL    HW126133   0.895   3.807   0.199
 5308SOL    HW226134   1.001   3.889   0.292
 5309SOL     OW26135   4.865   9.934   1.675
 5309SOL    HW126136   4.864   9.995   1.755
 5309SOL    HW226137   4.903   9.846   1.701
 5310SOL     OW26138   1.133   8.394   0.412
 5310SOL    HW126139   1.109   8.310   0.461
 5310SOL    HW226140   1.157   8.465   0.478
 5311SOL     OW26141   4.133   3.537   1.282
 5311SOL    HW126142   4.144   3.470   1.355
 5311SOL    HW226143   4.084   3.495   1.205
 5312SOL     OW26144   0.665   9.547   1.335
 5312SOL    HW126145   0.752   9.548   1.384
 5312SOL    HW226146   0.614   9.465   1.361
 5313SOL     OW26147   1.250   2.384   2.291
 5313SOL    HW126148   1.308   2.379   2.210
 5313SOL    HW226149   1.286   2.322   2.361
 5314SOL     OW26150   3.281   5.035   1.520
 5314SOL    HW126151   3.377   5.008   1.518
 5314SOL    HW226152   3.225   4.960   1.554
 5315SOL     OW26153   3.390   6.177   0.129
 5315SOL    HW126154   3.350   6.088   0.110
 5315SOL    HW226155   3.318   6.243   0.149
 5316SOL     OW26156   4.764   3.951   0.700
 5316SOL    HW126157   4.800   3.866   0.740
 5316SOL    HW226158   4.745   4.016   0.773
 5317SOL     OW26159   9.549   3.725   1.759
 5317SOL    HW126160   9.643   3.759   1.763
 5317SOL    HW226161   9.543   3.651   1.692
 5318SOL     OW26162   3.000   5.078   2.059
 5318SOL    HW126163   3.040   5.057   2.149
 5318SOL    HW226164   2.970   5.173   2.057
 5319SOL     OW26165   0.965   0.225   0.297
 5319SOL    HW126166   1.021   0.287   0.353
 5319SOL    HW226167   1.016   0.199   0.215
 5320SOL     OW26168   7.847   9.792   2.449
 5320SOL    HW126169   7.790   9.711   2.463
 5320SOL    HW226170   7.790   9.873   2.444
 5321SOL     OW26171   3.032   3.711   0.032
 5321SOL    HW126172   3.077   3.713   3.379
 5321SOL    HW226173   3.070   3.636   0.086
 5322SOL     OW26174   2.736   4.338   0.964
 5322SOL    HW126175   2.719   4.265   0.898
 5322SOL    HW226176   2.664   4.338   1.033
 5323SOL     OW26177   9.052   3.101   1.625
 5323SOL    HW126178   9.010   3.153   1.550
 5323SOL    HW226179   9.142   3.067   1.596
 5324SOL     OW26180   3.605   5.195   1.758
 5324SOL    HW126181   3.591   5.222   1.663
 5324SOL    HW226182   3.532   5.133   1.786
 5325SOL     OW26183   3.861   0.601   0.797
 5325SOL    HW126184   3.827   0.524   0.850
 5325SOL    HW226185   3.922   0.567   0.725
 5326SOL     OW26186   1.149   8.903   2.198
 5326SOL    HW126187   1.122   8.893   2.102
 5326SOL    HW226188   1.104   8.832   2.253
 5327SOL     OW26189   9.870   9.811   1.581
 5327SOL    HW126190   9.955   9.842   1.539
 5327SOL    HW226191   9.795   9.871   1.553
 5328SOL     OW26192   3.276   2.277   0.984
 5328SOL    HW126193   3.290   2.183   0.954
 5328SOL    HW226194   3.364   2.317   1.011
 5329SOL     OW26195   2.405   7.695   1.960
 5329SOL    HW126196   2.436   7.782   1.999
 5329SOL    HW226197   2.484   7.644   1.926
 5330SOL     OW26198   1.423   1.757   0.788
 5330SOL    HW126199   1.470   1.819   0.851
 5330SOL    HW226200   1.372   1.811   0.721
 5331SOL     OW26201   9.098   4.646   0.085
 5331SOL    HW126202   9.019   4.649   0.145
 5331SOL    HW226203   9.069   4.620   3.429
 5332SOL     OW26204   2.954   3.280   1.160
 5332SOL    HW126205   2.979   3.199   1.213
 5332SOL    HW226206   2.959   3.257   1.062
 5333SOL     OW26207   0.604   6.521   0.550
 5333SOL    HW126208   0.698   6.554   0.542
 5333SOL    HW226209   0.576   6.481   0.462
 5334SOL     OW26210   3.407   4.188   0.859
 5334SOL    HW126211   3.408   4.134   0.774
 5334SOL    HW226212   3.360   4.275   0.843
 5335SOL     OW26213   2.292   4.987   0.867
 5335SOL    HW126214   2.392   4.990   0.877
 5335SOL    HW226215   2.251   4.955   0.953
 5336SOL     OW26216   9.525   9.130   0.167
 5336SOL    HW126217   9.548   9.104   0.260
 5336SOL    HW226218   9.428   9.111   0.150
 5337SOL     OW26219   1.895   6.698   0.838
 5337SOL    HW126220   1.880   6.600   0.849
 5337SOL    HW226221   1.808   6.743   0.819
 5338SOL     OW26222   8.876   8.749   1.628
 5338SOL    HW126223   8.796   8.796   1.666
 5338SOL    HW226224   8.876   8.759   1.529
 5339SOL     OW26225   2.437   7.891   2.494
 5339SOL    HW126226   2.461   7.799   2.524
 5339SOL    HW226227   2.518   7.950   2.499
 5340SOL     OW26228   8.617   3.367   1.700
 5340SOL    HW126229   8.660   3.277   1.693
 5340SOL    HW226230   8.646   3.423   1.623
 5341SOL     OW26231   7.717   9.586   2.125
 5341SOL    HW126232   7.625   9.620   2.142
 5341SOL    HW226233   7.746   9.611   2.032
 5342SOL     OW26234   9.956   0.380   1.470
 5342SOL    HW126235   0.030   0.438   1.502
 5342SOL    HW226236   9.868   0.415   1.505
 5343SOL     OW26237   2.178   9.889   2.476
 5343SOL    HW126238   2.174   9.938   2.389
 5343SOL    HW226239   2.271   9.895   2.513
 5344SOL     OW26240   8.729   6.689   1.432
 5344SOL    HW126241   8.818   6.656   1.463
 5344SOL    HW226242   8.740   6.740   1.347
 5345SOL     OW26243   0.217   9.609   1.496
 5345SOL    HW126244   0.299   9.629   1.549
 5345SOL    HW226245   0.234   9.532   1.435
 5346SOL     OW26246   8.976   7.631   0.815
 5346SOL    HW126247   9.056   7.652   0.872
 5346SOL    HW226248   8.894   7.633   0.872
 5347SOL     OW26249   0.471   7.095   0.969
 5347SOL    HW126250   0.398   7.100   1.037
 5347SOL    HW226251   0.451   7.157   0.893
 5348SOL     OW26252   8.592   9.352   0.634
 5348SOL    HW126253   8.498   9.373   0.659
 5348SOL    HW226254   8.596   9.259   0.596
 5349SOL     OW26255   4.476   8.788   0.100
 5349SOL    HW126256   4.449   8.749   0.188
 5349SOL    HW226257   4.462   8.721   0.028
 5350SOL     OW26258   9.481   0.488   0.840
 5350SOL    HW126259   9.405   0.442   0.795
 5350SOL    HW226260   9.501   0.441   0.927
 5351SOL     OW26261   0.868   4.407   2.129
 5351SOL    HW126262   0.775   4.371   2.116
 5351SOL    HW226263   0.923   4.340   2.179
 5352SOL     OW26264   4.199   2.111   0.517
 5352SOL    HW126265   4.148   2.136   0.435
 5352SOL    HW226266   4.286   2.160   0.518
 5353SOL     OW26267   9.671   7.702   2.654
 5353SOL    HW126268   9.574   7.680   2.661
 5353SOL    HW226269   9.692   7.781   2.713
 5354SOL     OW26270   1.566   5.588   2.056
 5354SOL    HW126271   1.581   5.517   2.125
 5354SOL    HW226272   1.474   5.577   2.017
 5355SOL     OW26273   3.626   3.730   1.035
 5355SOL    HW126274   3.724   3.736   1.050
 5355SOL    HW226275   3.578   3.746   1.122
 5356SOL     OW26276   4.732   0.293   2.460
 5356SOL    HW126277   4.633   0.308   2.457
 5356SOL    HW226278   4.752   0.215   2.520
 5357SOL     OW26279   2.016   2.032   2.264
 5357SOL    HW126280   2.057   2.091   2.194
 5357SOL    HW226281   2.086   2.005   2.330
 5358SOL     OW26282   2.291   9.475   1.564
 5358SOL    HW126283   2.303   9.565   1.521
 5358SOL    HW226284   2.321   9.480   1.659
 5359SOL     OW26285   1.192   9.640   1.806
 5359SOL    HW126286   1.116   9.630   1.870
 5359SOL    HW226287   1.266   9.577   1.832
 5360SOL     OW26288   8.502   8.881   1.364
 5360SOL    HW126289   8.527   8.798   1.315
 5360SOL    HW226290   8.476   8.858   1.458
 5361SOL     OW26291   7.544   1.888   2.353
 5361SOL    HW126292   7.509   1.981   2.360
 5361SOL    HW226293   7.610   1.882   2.278
 5362SOL     OW26294   8.413   0.116   0.250
 5362SOL    HW126295   8.427   0.080   0.342
 5362SOL    HW226296   8.461   0.204   0.242
 5363SOL     OW26297   1.583   1.236   1.676
 5363SOL    HW126298   1.636   1.304   1.727
 5363SOL    HW226299   1.504   1.280   1.633
 5364SOL     OW26300   4.780   1.033   1.689
 5364SOL    HW126301   4.853   1.071   1.747
 5364SOL    HW226302   4.694   1.033   1.740
 5365SOL     OW26303   2.498   3.411   2.596
 5365SOL    HW126304   2.558   3.490   2.586
 5365SOL    HW226305   2.407   3.441   2.626
 5366SOL     OW26306   8.134   0.117   0.226
 5366SOL    HW126307   8.106   0.028   0.191
 5366SOL    HW226308   8.234   0.120   0.233
 5367SOL     OW26309   2.338   2.781   2.079
 5367SOL    HW126310   2.363   2.725   2.000
 5367SOL    HW226311   2.420   2.805   2.131
 5368SOL     OW26312   0.970   9.291   2.247
 5368SOL    HW126313   0.875   9.316   2.267
 5368SOL    HW226314   0.973   9.241   2.160
 5369SOL     OW26315   0.167   7.488   0.383
 5369SOL    HW126316   0.264   7.512   0.387
 5369SOL    HW226317   0.116   7.547   0.445
 5370SOL     OW26318   0.014   0.356   2.083
 5370SOL    HW126319   0.108   0.332   2.108
 5370SOL    HW226320   0.004   0.348   1.984
 5371SOL     OW26321   7.160   9.010   2.030
 5371SOL    HW126322   7.259   9.027   2.035
 5371SOL    HW226323   7.134   8.993   1.935
 5372SOL     OW26324   9.952   8.307   1.111
 5372SOL    HW126325   0.013   8.361   1.053
 5372SOL    HW226326   9.936   8.218   1.069
 5373SOL     OW26327   1.498   7.007   0.420
 5373SOL    HW126328   1.403   7.037   0.403
 5373SOL    HW226329   1.525   6.941   0.349
 5374SOL     OW26330   1.248   4.819   1.060
 5374SOL    HW126331   1.204   4.733   1.085
 5374SOL    HW226332   1.251   4.880   1.139
 5375SOL     OW26333   4.653   9.431   1.910
 5375SOL    HW126334   4.696   9.362   1.968
 5375SOL    HW226335   4.661   9.521   1.954
 5376SOL     OW26336   3.749   3.142   0.738
 5376SOL    HW126337   3.803   3.095   0.668
 5376SOL    HW226338   3.652   3.140   0.712
 5377SOL     OW26339   1.680   4.243   2.098
 5377SOL    HW126340   1.675   4.311   2.025
 5377SOL    HW226341   1.607   4.176   2.087
 5378SOL     OW26342   4.181   3.226   1.268
 5378SOL    HW126343   4.192   3.269   1.358
 5378SOL    HW226344   4.245   3.267   1.204
 5379SOL     OW26345   9.798   7.253   0.798
 5379SOL    HW126346   9.800   7.297   0.888
 5379SOL    HW226347   9.869   7.293   0.740
 5380SOL     OW26348   0.262   2.954   2.118
 5380SOL    HW126349   0.243   2.898   2.199
 5380SOL    HW226350   0.187   3.019   2.104
 5381SOL     OW26351   1.604   9.042   0.455
 5381SOL    HW126352   1.558   8.954   0.445
 5381SOL    HW226353   1.537   9.116   0.452
 5382SOL     OW26354   3.816   8.172   0.314
 5382SOL    HW126355   3.770   8.245   0.365
 5382SOL    HW226356   3.755   8.140   0.241
 5383SOL     OW26357   9.670   7.972   0.884
 5383SOL    HW126358   9.678   7.898   0.818
 5383SOL    HW226359   9.583   7.964   0.933
 5384SOL     OW26360   2.203   4.555   1.321
 5384SOL    HW126361   2.270   4.606   1.267
 5384SOL    HW226362   2.238   4.542   1.414
 5385SOL     OW26363   2.928   3.758   2.272
 5385SOL    HW126364   2.989   3.824   2.228
 5385SOL    HW226365   2.978   3.710   2.344
 5386SOL     OW26366   2.378   1.710   0.666
 5386SOL    HW126367   2.378   1.796   0.716
 5386SOL    HW226368   2.293   1.661   0.683
 5387SOL     OW26369   1.924   7.389   0.833
 5387SOL    HW126370   1.871   7.306   0.849
 5387SOL    HW226371   2.020   7.366   0.819
 5388SOL     OW26372   3.971   4.897   0.856
 5388SOL    HW126373   3.941   4.878   0.763
 5388SOL    HW226374   3.988   4.811   0.904
 5389SOL     OW26375   0.867   0.651   2.165
 5389SOL    HW126376   0.966   0.644   2.154
 5389SOL    HW226377   0.830   0.563   2.195
 5390SOL     OW26378   1.740   1.558   0.787
 5390SOL    HW126379   1.708   1.544   0.880
 5390SOL    HW226380   1.676   1.515   0.723
 5391SOL     OW26381   2.641   2.330   0.343
 5391SOL    HW126382   2.599   2.241   0.329
 5391SOL    HW226383   2.579   2.402   0.310
 5392SOL     OW26384   3.049   6.832   0.344
 5392SOL    HW126385   3.130   6.876   0.383
 5392SOL    HW226386   2.967   6.874   0.381
 5393SOL     OW26387   2.697   7.976   0.750
 5393SOL    HW126388   2.792   7.943   0.754
 5393SOL    HW226389   2.679   8.033   0.830
 5394SOL     OW26390   8.306   8.472   1.935
 5394SOL    HW126391   8.394   8.426   1.951
 5394SOL    HW226392   8.274   8.513   2.020
 5395SOL     OW26393   7.855   0.436   1.319
 5395SOL    HW126394   7.776   0.466   1.372
 5395SOL    HW226395   7.934   0.425   1.379
 5396SOL     OW26396   8.763   2.382   0.206
 5396SOL    HW126397   8.680   2.389   0.150
 5396SOL    HW226398   8.815   2.468   0.200
 5397SOL     OW26399   9.612   2.754   1.090
 5397SOL    HW126400   9.674   2.724   1.018
 5397SOL    HW226401   9.655   2.742   1.179
 5398SOL     OW26402   1.422   9.709   0.360
 5398SOL    HW126403   1.470   9.663   0.286
 5398SOL    HW226404   1.425   9.652   0.442
 5399SOL     OW26405   3.358   7.270   2.403
 5399SOL    HW126406   3.290   7.261   2.330
 5399SOL    HW226407   3.439   7.317   2.368
 5400SOL     OW26408   0.112   4.575   1.326
 5400SOL    HW126409   0.033   4.516   1.312
 5400SOL    HW226410   0.193   4.519   1.344
 5401SOL     OW26411   3.336   7.004   2.183
 5401SOL    HW126412   3.283   7.089   2.186
 5401SOL    HW226413   3.276   6.927   2.205
 5402SOL     OW26414   2.753   1.741   2.610
 5402SOL    HW126415   2.766   1.722   2.512
 5402SOL    HW226416   2.841   1.762   2.652
 5403SOL     OW26417   7.931   8.346   2.431
 5403SOL    HW126418   7.860   8.288   2.469
 5403SOL    HW226419   8.013   8.341   2.488
 5404SOL     OW26420   0.155   2.122   1.473
 5404SOL    HW126421   0.140   2.046   1.410
 5404SOL    HW226422   0.114   2.205   1.435
 5405SOL     OW26423   9.782   5.545   1.407
 5405SOL    HW126424   9.826   5.632   1.385
 5405SOL    HW226425   9.848   5.484   1.451
 5406SOL     OW26426   9.780   8.283   0.321
 5406SOL    HW126427   9.802   8.376   0.291
 5406SOL    HW226428   9.698   8.286   0.379
 5407SOL     OW26429   7.374   0.278   0.133
 5407SOL    HW126430   7.377   0.378   0.132
 5407SOL    HW226431   7.289   0.248   0.177
 5408SOL     OW26432   3.616   5.285   0.519
 5408SOL    HW126433   3.673   5.266   0.599
 5408SOL    HW226434   3.633   5.215   0.449
 5409SOL     OW26435   1.045   2.962   2.346
 5409SOL    HW126436   1.012   2.945   2.253
 5409SOL    HW226437   0.994   2.906   2.411
 5410SOL     OW26438   8.186   3.462   1.894
 5410SOL    HW126439   8.251   3.410   1.839
 5410SOL    HW226440   8.102   3.476   1.843
 5411SOL     OW26441   8.659   2.305   1.080
 5411SOL    HW126442   8.682   2.339   1.172
 5411SOL    HW226443   8.654   2.206   1.082
 5412SOL     OW26444   8.792   9.097   0.316
 5412SOL    HW126445   8.693   9.088   0.323
 5412SOL    HW226446   8.814   9.164   0.244
 5413SOL     OW26447   3.915   0.576   1.394
 5413SOL    HW126448   3.983   0.504   1.377
 5413SOL    HW226449   3.941   0.658   1.344
 5414SOL     OW26450   2.880   3.416   0.287
 5414SOL    HW126451   2.908   3.455   0.376
 5414SOL    HW226452   2.832   3.487   0.234
 5415SOL     OW26453   8.465   8.661   0.514
 5415SOL    HW126454   8.418   8.601   0.450
 5415SOL    HW226455   8.487   8.609   0.598
 5416SOL     OW26456   1.533   7.008   2.024
 5416SOL    HW126457   1.599   7.083   2.031
 5416SOL    HW226458   1.443   7.044   2.002
 5417SOL     OW26459   9.657   1.133   2.293
 5417SOL    HW126460   9.569   1.168   2.261
 5417SOL    HW226461   9.710   1.100   2.215
 5418SOL     OW26462   2.506   1.680   2.018
 5418SOL    HW126463   2.521   1.668   2.116
 5418SOL    HW226464   2.524   1.594   1.970
 5419SOL     OW26465   1.584   9.470   1.296
 5419SOL    HW126466   1.499   9.517   1.319
 5419SOL    HW226467   1.603   9.482   1.198
 5420SOL     OW26468   7.728   9.348   0.299
 5420SOL    HW126469   7.796   9.353   0.372
 5420SOL    HW226470   7.685   9.437   0.286
 5421SOL     OW26471   1.542   9.730   1.882
 5421SOL    HW126472   1.503   9.641   1.857
 5421SOL    HW226473   1.476   9.781   1.937
 5422SOL     OW26474   8.839   7.647   1.253
 5422SOL    HW126475   8.867   7.555   1.281
 5422SOL    HW226476   8.820   7.648   1.155
 5423SOL     OW26477   1.812   3.697   0.463
 5423SOL    HW126478   1.744   3.743   0.405
 5423SOL    HW226479   1.904   3.723   0.434
 5424SOL     OW26480   4.635   0.148   1.361
 5424SOL    HW126481   4.644   0.060   1.408
 5424SOL    HW226482   4.649   0.136   1.263
 5425SOL     OW26483   1.754   4.477   0.069
 5425SOL    HW126484   1.788   4.551   0.011
 5425SOL    HW226485   1.803   4.478   0.156
 5426SOL     OW26486   9.931   7.249   1.748
 5426SOL    HW126487   9.850   7.242   1.690
 5426SOL    HW226488   9.905   7.238   1.844
 5427SOL     OW26489   1.019   8.230   2.215
 5427SOL    HW126490   1.062   8.316   2.242
 5427SOL    HW226491   1.001   8.230   2.117
 5428SOL     OW26492   4.689   8.828   0.958
 5428SOL    HW126493   4.705   8.922   0.929
 5428SOL    HW226494   4.609   8.824   1.017
 5429SOL     OW26495   1.400   6.494   1.124
 5429SOL    HW126496   1.460   6.413   1.126
 5429SOL    HW226497   1.370   6.515   1.217
 5430SOL     OW26498   1.021   9.434   0.788
 5430SOL    HW126499   1.084   9.483   0.728
 5430SOL    HW226500   0.960   9.500   0.833
 5431SOL     OW26501   3.196   3.670   0.384
 5431SOL    HW126502   3.167   3.612   0.308
 5431SOL    HW226503   3.145   3.756   0.382
 5432SOL     OW26504   9.229   2.740   2.402
 5432SOL    HW126505   9.145   2.699   2.436
 5432SOL    HW226506   9.209   2.798   2.323
 5433SOL     OW26507   0.932   6.394   0.137
 5433SOL    HW126508   0.991   6.377   0.216
 5433SOL    HW226509   0.897   6.487   0.142
 5434SOL     OW26510   8.640   3.921   1.388
 5434SOL    HW126511   8.576   3.852   1.423
 5434SOL    HW226512   8.601   3.965   1.307
 5435SOL     OW26513   1.545   6.715   2.371
 5435SOL    HW126514   1.632   6.692   2.328
 5435SOL    HW226515   1.553   6.804   2.417
 5436SOL     OW26516   8.912   6.041   0.784
 5436SOL    HW126517   8.968   6.120   0.759
 5436SOL    HW226518   8.949   5.958   0.743
 5437SOL     OW26519   9.724   5.553   1.900
 5437SOL    HW126520   9.638   5.578   1.945
 5437SOL    HW226521   9.756   5.631   1.846
 5438SOL     OW26522   0.945   7.476   1.319
 5438SOL    HW126523   0.935   7.502   1.415
 5438SOL    HW226524   1.021   7.411   1.311
 5439SOL     OW26525   9.876  10.000   1.902
 5439SOL    HW126526   9.822   0.048   1.833
 5439SOL    HW226527   9.867   9.901   1.888
 5440SOL     OW26528   2.847   9.994   2.062
 5440SOL    HW126529   2.861   0.061   1.989
 5440SOL    HW226530   2.792   9.918   2.028
 5441SOL     OW26531   3.376   1.958   1.161
 5441SOL    HW126532   3.298   1.995   1.210
 5441SOL    HW226533   3.370   1.983   1.064
 5442SOL     OW26534   8.411   9.962   0.483
 5442SOL    HW126535   8.341   9.897   0.455
 5442SOL    HW226536   8.500   9.916   0.489
 5443SOL     OW26537   8.681   3.164   2.606
 5443SOL    HW126538   8.767   3.116   2.585
 5443SOL    HW226539   8.670   3.241   2.543
 5444SOL     OW26540   0.359   0.118   1.226
 5444SOL    HW126541   0.445   0.071   1.206
 5444SOL    HW226542   0.355   0.204   1.176
 5445SOL     OW26543   9.492   5.068   2.586
 5445SOL    HW126544   9.458   5.152   2.544
 5445SOL    HW226545   9.421   4.997   2.580
 5446SOL     OW26546   1.562   7.582   2.092
 5446SOL    HW126547   1.573   7.487   2.123
 5446SOL    HW226548   1.518   7.582   2.002
 5447SOL     OW26549   3.227   7.007   0.461
 5447SOL    HW126550   3.151   7.011   0.526
 5447SOL    HW226551   3.300   7.070   0.489
 5448SOL     OW26552   0.587   9.317   0.439
 5448SOL    HW126553   0.569   9.414   0.454
 5448SOL    HW226554   0.512   9.264   0.478
 5449SOL     OW26555   8.543   7.495   1.568
 5449SOL    HW126556   8.642   7.498   1.582
 5449SOL    HW226557   8.503   7.422   1.623
 5450SOL     OW26558   1.236   4.967   1.287
 5450SOL    HW126559   1.188   5.055   1.290
 5450SOL    HW226560   1.334   4.982   1.294
 5451SOL     OW26561   1.735   0.959   0.191
 5451SOL    HW126562   1.711   0.863   0.181
 5451SOL    HW226563   1.667   1.004   0.249
 5452SOL     OW26564   0.477   4.206   0.103
 5452SOL    HW126565   0.463   4.281   0.038
 5452SOL    HW226566   0.393   4.151   0.109
 5453SOL     OW26567   2.086   4.464   1.784
 5453SOL    HW126568   1.995   4.472   1.742
 5453SOL    HW226569   2.156   4.478   1.714
 5454SOL     OW26570   1.913   9.499   1.113
 5454SOL    HW126571   1.995   9.516   1.168
 5454SOL    HW226572   1.910   9.403   1.086
 5455SOL     OW26573   1.407   4.718   0.863
 5455SOL    HW126574   1.405   4.787   0.790
 5455SOL    HW226575   1.358   4.753   0.943
 5456SOL     OW26576   0.644   7.514   2.418
 5456SOL    HW126577   0.658   7.430   2.471
 5456SOL    HW226578   0.577   7.496   2.346
 5457SOL     OW26579   3.517   0.271   1.695
 5457SOL    HW126580   3.578   0.213   1.642
 5457SOL    HW226581   3.557   0.362   1.704
 5458SOL     OW26582   0.311   5.478   1.810
 5458SOL    HW126583   0.378   5.551   1.796
 5458SOL    HW226584   0.323   5.439   1.902
 5459SOL     OW26585   0.198   2.776   2.319
 5459SOL    HW126586   0.292   2.743   2.326
 5459SOL    HW226587   0.156   2.775   2.410
 5460SOL     OW26588   7.693   0.607   0.827
 5460SOL    HW126589   7.627   0.554   0.775
 5460SOL    HW226590   7.716   0.558   0.912
 5461SOL     OW26591   3.344   2.161   0.633
 5461SOL    HW126592   3.419   2.145   0.569
 5461SOL    HW226593   3.260   2.182   0.583
 5462SOL     OW26594   9.140   0.186   0.558
 5462SOL    HW126595   9.140   0.099   0.607
 5462SOL    HW226596   9.061   0.240   0.585
 5463SOL     OW26597   3.333   4.468   2.118
 5463SOL    HW126598   3.355   4.517   2.202
 5463SOL    HW226599   3.411   4.474   2.055
 5464SOL     OW26600   7.518   1.113   1.395
 5464SOL    HW126601   7.565   1.077   1.475
 5464SOL    HW226602   7.543   1.060   1.314
 5465SOL     OW26603   1.920   3.139   0.629
 5465SOL    HW126604   1.821   3.122   0.621
 5465SOL    HW226605   1.963   3.120   0.541
 5466SOL     OW26606   0.778   6.391   1.323
 5466SOL    HW126607   0.728   6.369   1.407
 5466SOL    HW226608   0.854   6.327   1.312
 5467SOL     OW26609   0.352   0.476   1.466
 5467SOL    HW126610   0.385   0.391   1.508
 5467SOL    HW226611   0.267   0.504   1.510
 5468SOL     OW26612   3.501   1.302   0.771
 5468SOL    HW126613   3.509   1.224   0.833
 5468SOL    HW226614   3.422   1.289   0.711
 5469SOL     OW26615   1.773   8.672   1.364
 5469SOL    HW126616   1.872   8.688   1.360
 5469SOL    HW226617   1.742   8.637   1.275
 5470SOL     OW26618   2.111   2.451   1.354
 5470SOL    HW126619   2.123   2.397   1.271
 5470SOL    HW226620   2.166   2.534   1.348
 5471SOL     OW26621   1.579   9.381   2.105
 5471SOL    HW126622   1.621   9.368   2.195
 5471SOL    HW226623   1.498   9.439   2.114
 5472SOL     OW26624   7.661   2.152   0.491
 5472SOL    HW126625   7.720   2.226   0.524
 5472SOL    HW226626   7.676   2.139   0.393
 5473SOL     OW26627   3.438   5.202   0.975
 5473SOL    HW126628   3.457   5.109   1.008
 5473SOL    HW226629   3.518   5.260   0.990
 5474SOL     OW26630   2.540   4.433   1.167
 5474SOL    HW126631   2.595   4.419   1.250
 5474SOL    HW226632   2.510   4.528   1.163
 5475SOL     OW26633   8.199   1.339   1.683
 5475SOL    HW126634   8.248   1.296   1.758
 5475SOL    HW226635   8.133   1.405   1.719
 5476SOL     OW26636   9.829   3.242   2.669
 5476SOL    HW126637   9.783   3.159   2.638
 5476SOL    HW226638   9.893   3.219   2.743
 5477SOL     OW26639   2.234   5.868   0.516
 5477SOL    HW126640   2.320   5.823   0.492
 5477SOL    HW226641   2.158   5.804   0.504
 5478SOL     OW26642   8.349   0.964   0.444
 5478SOL    HW126643   8.290   0.967   0.363
 5478SOL    HW226644   8.373   0.869   0.464
 5479SOL     OW26645   2.370   0.597   0.971
 5479SOL    HW126646   2.402   0.691   0.978
 5479SOL    HW226647   2.279   0.589   1.012
 5480SOL     OW26648   0.070   6.623   0.253
 5480SOL    HW126649   0.156   6.602   0.298
 5480SOL    HW226650   0.012   6.675   0.316
 5481SOL     OW26651   0.623   4.623   0.241
 5481SOL    HW126652   0.599   4.563   0.317
 5481SOL    HW226653   0.650   4.568   0.162
 5482SOL     OW26654   4.210   4.560   0.395
 5482SOL    HW126655   4.292   4.545   0.340
 5482SOL    HW226656   4.129   4.558   0.337
 5483SOL     OW26657   8.250   4.953   0.283
 5483SOL    HW126658   8.178   4.888   0.257
 5483SOL    HW226659   8.299   4.918   0.362
 5484SOL     OW26660   9.476   7.670   1.616
 5484SOL    HW126661   9.404   7.695   1.552
 5484SOL    HW226662   9.480   7.570   1.623
 5485SOL     OW26663   2.304   0.912   2.044
 5485SOL    HW126664   2.396   0.933   2.077
 5485SOL    HW226665   2.269   0.831   2.090
 5486SOL     OW26666   9.099   3.384   2.488
 5486SOL    HW126667   9.102   3.366   2.586
 5486SOL    HW226668   9.103   3.297   2.439
 5487SOL     OW26669   9.005   8.931   2.059
 5487SOL    HW126670   8.906   8.923   2.067
 5487SOL    HW226671   9.047   8.841   2.065
 5488SOL     OW26672   0.096   9.103   2.266
 5488SOL    HW126673   0.069   9.046   2.188
 5488SOL    HW226674   0.017   9.121   2.324
 5489SOL     OW26675   1.520   6.061   1.865
 5489SOL    HW126676   1.561   5.971   1.881
 5489SOL    HW226677   1.591   6.130   1.858
 5490SOL     OW26678   9.351   0.333   0.246
 5490SOL    HW126679   9.252   0.338   0.236
 5490SOL    HW226680   9.385   0.420   0.281
 5491SOL     OW26681   2.714   1.297   2.438
 5491SOL    HW126682   2.687   1.363   2.508
 5491SOL    HW226683   2.813   1.305   2.422
 5492SOL     OW26684   4.145   2.338   1.609
 5492SOL    HW126685   4.084   2.391   1.550
 5492SOL    HW226686   4.158   2.385   1.696
 5493SOL     OW26687   9.182   8.892   1.401
 5493SOL    HW126688   9.099   8.838   1.383
 5493SOL    HW226689   9.170   8.984   1.363
 5494SOL     OW26690   0.656   2.666   1.017
 5494SOL    HW126691   0.739   2.610   1.013
 5494SOL    HW226692   0.576   2.607   1.010
 5495SOL     OW26693   9.930   6.559   0.713
 5495SOL    HW126694   9.941   6.525   0.806
 5495SOL    HW226695   0.005   6.524   0.656
 5496SOL     OW26696   8.410   4.058   0.741
 5496SOL    HW126697   8.453   3.968   0.748
 5496SOL    HW226698   8.480   4.129   0.750
 5497SOL     OW26699   1.732   6.245   2.019
 5497SOL    HW126700   1.778   6.296   2.093
 5497SOL    HW226701   1.768   6.152   2.015
 5498SOL     OW26702   2.498   4.176   0.619
 5498SOL    HW126703   2.450   4.099   0.576
 5498SOL    HW226704   2.533   4.237   0.548
 5499SOL     OW26705   4.012   3.934   1.681
 5499SOL    HW126706   3.945   3.952   1.609
 5499SOL    HW226707   4.058   4.019   1.706
 5500SOL     OW26708   1.938   0.995   2.206
 5500SOL    HW126709   1.845   0.960   2.193
 5500SOL    HW226710   1.967   1.045   2.124
 5501SOL     OW26711   3.843   2.590   2.302
 5501SOL    HW126712   3.774   2.630   2.362
 5501SOL    HW226713   3.909   2.660   2.274
 5502SOL     OW26714   4.249   3.636   1.914
 5502SOL    HW126715   4.167   3.642   1.970
 5502SOL    HW226716   4.228   3.665   1.820
 5503SOL     OW26717   3.005   6.568   0.283
 5503SOL    HW126718   2.917   6.574   0.236
 5503SOL    HW226719   3.035   6.659   0.310
 5504SOL     OW26720   1.847   6.316   2.572
 5504SOL    HW126721   1.764   6.346   2.526
 5504SOL    HW226722   1.843   6.217   2.587
 5505SOL     OW26723   3.185   1.330   1.201
 5505SOL    HW126724   3.191   1.299   1.106
 5505SOL    HW226725   3.274   1.321   1.245
 5506SOL     OW26726   4.270   9.110   2.306
 5506SOL    HW126727   4.307   9.197   2.273
 5506SOL    HW226728   4.342   9.041   2.305
 5507SOL     OW26729   1.471   2.115   0.278
 5507SOL    HW126730   1.484   2.016   0.289
 5507SOL    HW226731   1.377   2.139   0.299
 5508SOL     OW26732   0.307   0.615   1.234
 5508SOL    HW126733   0.318   0.550   1.309
 5508SOL    HW226734   0.310   0.709   1.270
 5509SOL     OW26735   1.829   2.136   1.825
 5509SOL    HW126736   1.868   2.045   1.838
 5509SOL    HW226737   1.741   2.128   1.777
 5510SOL     OW26738   0.871   3.164   1.628
 5510SOL    HW126739   0.805   3.100   1.669
 5510SOL    HW226740   0.931   3.114   1.566
 5511SOL     OW26741   1.431   2.936   0.472
 5511SOL    HW126742   1.479   2.892   0.397
 5511SOL    HW226743   1.351   2.986   0.437
 5512SOL     OW26744   0.424   6.953   2.007
 5512SOL    HW126745   0.489   6.895   1.957
 5512SOL    HW226746   0.332   6.916   1.998
 5513SOL     OW26747   1.007   9.865   0.133
 5513SOL    HW126748   1.016   9.894   0.228
 5513SOL    HW226749   0.960   9.776   0.129
 5514SOL     OW26750   9.509   8.962   1.672
 5514SOL    HW126751   9.523   9.061   1.678
 5514SOL    HW226752   9.485   8.927   1.763
 5515SOL     OW26753   8.533   9.499   1.864
 5515SOL    HW126754   8.442   9.505   1.906
 5515SOL    HW226755   8.527   9.451   1.777
 5516SOL     OW26756   1.719   3.561   1.978
 5516SOL    HW126757   1.699   3.501   2.055
 5516SOL    HW226758   1.673   3.649   1.992
 5517SOL     OW26759   1.559   2.008   1.982
 5517SOL    HW126760   1.648   1.975   2.015
 5517SOL    HW226761   1.567   2.037   1.887
 5518SOL     OW26762   3.194   1.032   0.172
 5518SOL    HW126763   3.241   0.959   0.122
 5518SOL    HW226764   3.260   1.102   0.199
 5519SOL     OW26765   9.190   6.857   2.584
 5519SOL    HW126766   9.181   6.851   2.484
 5519SOL    HW226767   9.100   6.845   2.626
 5520SOL     OW26768   0.919   9.770   0.539
 5520SOL    HW126769   0.947   9.782   0.635
 5520SOL    HW226770   0.964   9.840   0.483
 5521SOL     OW26771   0.746   3.269   1.252
 5521SOL    HW126772   0.734   3.180   1.296
 5521SOL    HW226773   0.835   3.272   1.206
 5522SOL     OW26774   3.370   5.368   0.605
 5522SOL    HW126775   3.460   5.330   0.584
 5522SOL    HW226776   3.326   5.312   0.674
 5523SOL     OW26777   2.789   7.289   0.949
 5523SOL    HW126778   2.866   7.225   0.949
 5523SOL    HW226779   2.818   7.375   0.991
 5524SOL     OW26780   9.185   5.773   1.251
 5524SOL    HW126781   9.184   5.816   1.161
 5524SOL    HW226782   9.118   5.699   1.253
 5525SOL     OW26783   8.111   9.237   1.063
 5525SOL    HW126784   8.193   9.286   1.092
 5525SOL    HW226785   8.138   9.159   1.006
 5526SOL     OW26786   9.671   8.012   2.295
 5526SOL    HW126787   9.686   7.916   2.273
 5526SOL    HW226788   9.585   8.043   2.253
 5527SOL     OW26789   2.181   2.296   1.137
 5527SOL    HW126790   2.180   2.200   1.165
 5527SOL    HW226791   2.275   2.325   1.119
 5528SOL     OW26792   8.021   1.119   0.580
 5528SOL    HW126793   8.118   1.142   0.592
 5528SOL    HW226794   7.980   1.182   0.513
 5529SOL     OW26795   3.635   9.120   0.302
 5529SOL    HW126796   3.709   9.072   0.348
 5529SOL    HW226797   3.665   9.212   0.276
 5530SOL     OW26798   8.445   9.384   1.316
 5530SOL    HW126799   8.422   9.480   1.330
 5530SOL    HW226800   8.392   9.327   1.379
 5531SOL     OW26801   2.012   1.764   2.042
 5531SOL    HW126802   1.994   1.842   2.102
 5531SOL    HW226803   2.069   1.698   2.091
 5532SOL     OW26804   3.397   5.589   2.403
 5532SOL    HW126805   3.303   5.555   2.397
 5532SOL    HW226806   3.399   5.687   2.382
 5533SOL     OW26807   8.886   4.939   1.422
 5533SOL    HW126808   8.981   4.972   1.418
 5533SOL    HW226809   8.883   4.853   1.472
 5534SOL     OW26810   1.456   8.981   0.853
 5534SOL    HW126811   1.552   8.989   0.826
 5534SOL    HW226812   1.447   8.910   0.922
 5535SOL     OW26813   3.303   8.864   1.887
 5535SOL    HW126814   3.372   8.926   1.849
 5535SOL    HW226815   3.347   8.782   1.922
 5536SOL     OW26816   0.864   6.816   0.900
 5536SOL    HW126817   0.771   6.849   0.885
 5536SOL    HW226818   0.867   6.717   0.886
 5537SOL     OW26819   0.097   7.887   2.173
 5537SOL    HW126820   0.191   7.869   2.203
 5537SOL    HW226821   0.069   7.816   2.108
 5538SOL     OW26822   8.741   8.496   2.043
 5538SOL    HW126823   8.798   8.519   1.964
 5538SOL    HW226824   8.668   8.434   2.014
 5539SOL     OW26825   0.236   0.097   1.468
 5539SOL    HW126826   0.273   0.107   1.375
 5539SOL    HW226827   0.181   0.014   1.473
 5540SOL     OW26828   0.600   7.737   0.284
 5540SOL    HW126829   0.690   7.713   0.320
 5540SOL    HW226830   0.582   7.834   0.299
 5541SOL     OW26831   7.687   0.793   0.194
 5541SOL    HW126832   7.696   0.799   0.294
 5541SOL    HW226833   7.647   0.878   0.160
 5542SOL     OW26834   6.971   9.928   1.610
 5542SOL    HW126835   7.051   9.918   1.552
 5542SOL    HW226836   6.996   9.980   1.692
 5543SOL     OW26837   9.930   7.733   0.797
 5543SOL    HW126838   9.938   7.688   0.886
 5543SOL    HW226839   9.833   7.742   0.772
 5544SOL     OW26840   1.050   3.560   2.130
 5544SOL    HW126841   1.082   3.486   2.189
 5544SOL    HW226842   0.956   3.540   2.101
 5545SOL     OW26843   3.194   6.372   0.243
 5545SOL    HW126844   3.134   6.451   0.254
 5545SOL    HW226845   3.276   6.385   0.299
 5546SOL     OW26846   0.746   3.460   2.381
 5546SOL    HW126847   0.735   3.392   2.309
 5546SOL    HW226848   0.707   3.547   2.350
 5547SOL     OW26849   3.025   6.188   1.532
 5547SOL    HW126850   3.020   6.232   1.622
 5547SOL    HW226851   3.084   6.108   1.537
 5548SOL     OW26852   5.554   8.348   2.199
 5548SOL    HW126853   5.506   8.428   2.236
 5548SOL    HW226854   5.618   8.378   2.129
 5549SOL     OW26855   0.443   8.784   0.647
 5549SOL    HW126856   0.458   8.772   0.549
 5549SOL    HW226857   0.486   8.870   0.677
 5550SOL     OW26858   4.321   3.673   2.446
 5550SOL    HW126859   4.400   3.655   2.387
 5550SOL    HW226860   4.330   3.763   2.488
 5551SOL     OW26861   1.444   6.676   1.866
 5551SOL    HW126862   1.436   6.577   1.852
 5551SOL    HW226863   1.441   6.696   1.964
 5552SOL     OW26864   4.171   5.071   0.772
 5552SOL    HW126865   4.100   5.010   0.807
 5552SOL    HW226866   4.210   5.124   0.847
 5553SOL     OW26867   9.001   7.772   2.411
 5553SOL    HW126868   9.023   7.852   2.354
 5553SOL    HW226869   8.915   7.789   2.460
 5554SOL     OW26870   9.976   3.977   1.395
 5554SOL    HW126871   9.933   4.018   1.315
 5554SOL    HW226872   0.055   4.032   1.423
 5555SOL     OW26873   2.710   7.860   2.247
 5555SOL    HW126874   2.720   7.824   2.340
 5555SOL    HW226875   2.765   7.804   2.184
 5556SOL     OW26876   2.160   4.228   0.949
 5556SOL    HW126877   2.122   4.136   0.963
 5556SOL    HW226878   2.195   4.262   1.036
 5557SOL     OW26879   8.358   1.202   1.018
 5557SOL    HW126880   8.436   1.251   0.980
 5557SOL    HW226881   8.276   1.225   0.966
 5558SOL     OW26882   0.637   9.714   0.251
 5558SOL    HW126883   0.607   9.656   0.327
 5558SOL    HW226884   0.722   9.678   0.214
 5559SOL     OW26885   1.578   1.762   1.202
 5559SOL    HW126886   1.487   1.733   1.230
 5559SOL    HW226887   1.635   1.775   1.283
 5560SOL     OW26888   0.731   5.249   1.904
 5560SOL    HW126889   0.819   5.244   1.856
 5560SOL    HW226890   0.690   5.339   1.889
 5561SOL     OW26891   2.776   2.798   0.559
 5561SOL    HW126892   2.762   2.710   0.513
 5561SOL    HW226893   2.747   2.790   0.655
 5562SOL     OW26894   8.318   3.922   1.143
 5562SOL    HW126895   8.408   3.964   1.146
 5562SOL    HW226896   8.311   3.865   1.061
 5563SOL     OW26897   9.238   2.245   2.461
 5563SOL    HW126898   9.191   2.310   2.401
 5563SOL    HW226899   9.336   2.267   2.463
 5564SOL     OW26900   3.469   6.873   1.043
 5564SOL    HW126901   3.442   6.796   1.100
 5564SOL    HW226902   3.457   6.849   0.947
 5565SOL     OW26903   1.537   2.102   2.240
 5565SOL    HW126904   1.625   2.103   2.287
 5565SOL    HW226905   1.549   2.066   2.147
 5566SOL     OW26906   3.645   2.772   1.519
 5566SOL    HW126907   3.612   2.855   1.564
 5566SOL    HW226908   3.709   2.796   1.447
 5567SOL     OW26909   8.626   8.157   2.649
 5567SOL    HW126910   8.601   8.229   2.714
 5567SOL    HW226911   8.711   8.182   2.603
 5568SOL     OW26912   9.537   6.614   2.405
 5568SOL    HW126913   9.616   6.662   2.444
 5568SOL    HW226914   9.568   6.531   2.359
 5569SOL     OW26915   2.691   9.557   0.134
 5569SOL    HW126916   2.719   9.597   0.222
 5569SOL    HW226917   2.675   9.459   0.146
 5570SOL     OW26918   5.951   9.156   1.899
 5570SOL    HW126919   5.923   9.231   1.959
 5570SOL    HW226920   6.051   9.148   1.900
 5571SOL     OW26921   1.588   1.322   1.081
 5571SOL    HW126922   1.645   1.246   1.113
 5571SOL    HW226923   1.642   1.406   1.078
 5572SOL     OW26924   8.088   4.474   0.328
 5572SOL    HW126925   8.145   4.459   0.247
 5572SOL    HW226926   8.090   4.392   0.385
 5573SOL     OW26927   8.935   9.834   1.168
 5573SOL    HW126928   8.966   9.927   1.153
 5573SOL    HW226929   8.906   9.823   1.263
 5574SOL     OW26930   0.804   5.471   1.665
 5574SOL    HW126931   0.766   5.509   1.749
 5574SOL    HW226932   0.737   5.411   1.621
 5575SOL     OW26933   4.060   2.625   1.909
 5575SOL    HW126934   3.983   2.688   1.911
 5575SOL    HW226935   4.117   2.645   1.829
 5576SOL     OW26936   4.008   2.882   1.699
 5576SOL    HW126937   4.084   2.921   1.752
 5576SOL    HW226938   4.042   2.813   1.636
 5577SOL     OW26939   9.658   4.735   1.321
 5577SOL    HW126940   9.605   4.807   1.367
 5577SOL    HW226941   9.716   4.776   1.251
 5578SOL     OW26942   3.384   7.482   1.663
 5578SOL    HW126943   3.366   7.385   1.651
 5578SOL    HW226944   3.298   7.533   1.660
 5579SOL     OW26945   9.637   7.606   1.373
 5579SOL    HW126946   9.599   7.673   1.310
 5579SOL    HW226947   9.608   7.628   1.466
 5580SOL     OW26948   1.527   8.254   2.567
 5580SOL    HW126949   1.498   8.341   2.527
 5580SOL    HW226950   1.620   8.233   2.537
 5581SOL     OW26951   0.217   0.778   0.544
 5581SOL    HW126952   0.144   0.823   0.493
 5581SOL    HW226953   0.304   0.826   0.527
 5582SOL     OW26954   8.301   0.488   0.104
 5582SOL    HW126955   8.318   0.524   0.012
 5582SOL    HW226956   8.218   0.433   0.104
 5583SOL     OW26957   1.813   3.857   1.321
 5583SOL    HW126958   1.762   3.801   1.386
 5583SOL    HW226959   1.868   3.798   1.262
 5584SOL     OW26960   8.606   1.902   1.841
 5584SOL    HW126961   8.593   1.986   1.894
 5584SOL    HW226962   8.596   1.823   1.902
 5585SOL     OW26963   1.170   5.036   2.534
 5585SOL    HW126964   1.240   5.002   2.596
 5585SOL    HW226965   1.080   5.002   2.563
 5586SOL     OW26966   0.697   7.224   1.064
 5586SOL    HW126967   0.672   7.303   1.119
 5586SOL    HW226968   0.615   7.173   1.039
 5587SOL     OW26969   0.138   8.459   0.980
 5587SOL    HW126970   0.111   8.474   0.885
 5587SOL    HW226971   0.219   8.401   0.984
 5588SOL     OW26972   9.281   1.984   0.478
 5588SOL    HW126973   9.221   2.009   0.402
 5588SOL    HW226974   9.376   2.003   0.454
 5589SOL     OW26975   9.965   0.980   1.199
 5589SOL    HW126976   9.956   1.020   1.290
 5589SOL    HW226977   9.925   1.041   1.131
 5590SOL     OW26978   2.729   5.711   0.402
 5590SOL    HW126979   2.764   5.770   0.330
 5590SOL    HW226980   2.771   5.735   0.489
 5591SOL     OW26981   4.497   9.949   0.579
 5591SOL    HW126982   4.438   9.889   0.525
 5591SOL    HW226983   4.494   0.041   0.540
 5592SOL     OW26984   3.194   4.211   2.252
 5592SOL    HW126985   3.174   4.270   2.174
 5592SOL    HW226986   3.277   4.242   2.298
 5593SOL     OW26987   8.925   1.962   2.258
 5593SOL    HW126988   8.902   1.869   2.286
 5593SOL    HW226989   9.025   1.972   2.254
 5594SOL     OW26990   2.654   4.468   0.184
 5594SOL    HW126991   2.607   4.556   0.176
 5594SOL    HW226992   2.752   4.481   0.172
 5595SOL     OW26993   7.167   9.877   1.423
 5595SOL    HW126994   7.198   9.944   1.355
 5595SOL    HW226995   7.201   9.786   1.397
 5596SOL     OW26996   2.826   1.945   2.275
 5596SOL    HW126997   2.810   1.848   2.295
 5596SOL    HW226998   2.771   2.001   2.337
 5597SOL     OW26999   0.911   7.819   2.124
 5597SOL    HW127000   1.006   7.807   2.152
 5597SOL    HW227001   0.889   7.917   2.125
 5598SOL     OW27002   3.506   1.839   2.169
 5598SOL    HW127003   3.501   1.855   2.070
 5598SOL    HW227004   3.433   1.890   2.214
 5599SOL     OW27005   1.314   4.428   1.071
 5599SOL    HW127006   1.306   4.433   0.972
 5599SOL    HW227007   1.248   4.491   1.113
 5600SOL     OW27008   8.291   1.163   0.625
 5600SOL    HW127009   8.308   1.087   0.562
 5600SOL    HW227010   8.379   1.202   0.655
 5601SOL     OW27011   8.703   3.527   0.538
 5601SOL    HW127012   8.756   3.465   0.595
 5601SOL    HW227013   8.662   3.476   0.462
 5602SOL     OW27014   7.999   7.322   2.554
 5602SOL    HW127015   7.963   7.234   2.522
 5602SOL    HW227016   8.089   7.307   2.595
 5603SOL     OW27017   4.288   9.698   2.243
 5603SOL    HW127018   4.294   9.685   2.144
 5603SOL    HW227019   4.239   9.621   2.284
 5604SOL     OW27020   1.928   9.745   0.413
 5604SOL    HW127021   1.958   9.839   0.395
 5604SOL    HW227022   1.864   9.716   0.341
 5605SOL     OW27023   1.254   3.790   0.153
 5605SOL    HW127024   1.217   3.828   0.238
 5605SOL    HW227025   1.187   3.728   0.112
 5606SOL     OW27026   1.982   8.529   2.607
 5606SOL    HW127027   1.909   8.539   2.675
 5606SOL    HW227028   1.991   8.433   2.583
 5607SOL     OW27029   8.569   7.010   0.631
 5607SOL    HW127030   8.633   6.937   0.657
 5607SOL    HW227031   8.599   7.096   0.672
 5608SOL     OW27032   1.608   3.782   0.659
 5608SOL    HW127033   1.685   3.738   0.613
 5608SOL    HW227034   1.573   3.856   0.602
 5609SOL     OW27035   9.125   7.643   2.626
 5609SOL    HW127036   9.051   7.577   2.639
 5609SOL    HW227037   9.101   7.707   2.553
 5610SOL     OW27038   1.133   0.768   2.559
 5610SOL    HW127039   1.056   0.707   2.578
 5610SOL    HW227040   1.214   0.713   2.536
 5611SOL     OW27041   8.503   3.797   0.738
 5611SOL    HW127042   8.553   3.800   0.652
 5611SOL    HW227043   8.545   3.730   0.800
 5612SOL     OW27044   1.722   9.717   1.662
 5612SOL    HW127045   1.657   9.726   1.738
 5612SOL    HW227046   1.814   9.739   1.695
 5613SOL     OW27047   3.965   1.910   1.675
 5613SOL    HW127048   4.058   1.903   1.712
 5613SOL    HW227049   3.939   2.006   1.668
 5614SOL     OW27050   1.994   8.336   1.387
 5614SOL    HW127051   1.982   8.391   1.304
 5614SOL    HW227052   1.987   8.239   1.364
 5615SOL     OW27053   2.922   5.043   1.421
 5615SOL    HW127054   2.938   4.946   1.403
 5615SOL    HW227055   2.979   5.098   1.360
 5616SOL     OW27056   3.305   3.202   1.999
 5616SOL    HW127057   3.257   3.171   1.916
 5616SOL    HW227058   3.314   3.124   2.062
 5617SOL     OW27059   0.377   6.657   2.062
 5617SOL    HW127060   0.301   6.686   2.120
 5617SOL    HW227061   0.462   6.700   2.093
 5618SOL     OW27062   4.287   9.106   1.920
 5618SOL    HW127063   4.343   9.035   1.962
 5618SOL    HW227064   4.190   9.083   1.930
 5619SOL     OW27065   6.463   8.852   1.867
 5619SOL    HW127066   6.500   8.942   1.890
 5619SOL    HW227067   6.391   8.828   1.932
 5620SOL     OW27068   8.346   9.439   0.069
 5620SOL    HW127069   8.261   9.440   0.123
 5620SOL    HW227070   8.325   9.417   3.411
 5621SOL     OW27071   9.591   6.354   0.726
 5621SOL    HW127072   9.661   6.341   0.796
 5621SOL    HW227073   9.634   6.382   0.640
 5622SOL     OW27074   0.110   2.947   0.599
 5622SOL    HW127075   0.058   2.980   0.678
 5622SOL    HW227076   0.204   2.981   0.605
 5623SOL     OW27077   9.427   5.976   1.820
 5623SOL    HW127078   9.431   6.009   1.726
 5623SOL    HW227079   9.371   6.038   1.875
 5624SOL     OW27080   4.439   1.546   0.859
 5624SOL    HW127081   4.529   1.590   0.850
 5624SOL    HW227082   4.374   1.592   0.799
 5625SOL     OW27083   9.470   4.229   1.741
 5625SOL    HW127084   9.459   4.272   1.651
 5625SOL    HW227085   9.410   4.275   1.807
 5626SOL     OW27086   4.156   9.751   0.645
 5626SOL    HW127087   4.147   9.654   0.665
 5626SOL    HW227088   4.222   9.764   0.572
 5627SOL     OW27089   8.407   0.761   2.492
 5627SOL    HW127090   8.441   0.763   2.586
 5627SOL    HW227091   8.326   0.703   2.487
 5628SOL     OW27092   2.537   7.939   1.465
 5628SOL    HW127093   2.551   7.939   1.564
 5628SOL    HW227094   2.567   7.851   1.427
 5629SOL     OW27095   2.380   5.812   2.474
 5629SOL    HW127096   2.428   5.738   2.428
 5629SOL    HW227097   2.299   5.776   2.520
 5630SOL     OW27098   7.560   1.915   1.516
 5630SOL    HW127099   7.566   2.014   1.502
 5630SOL    HW227100   7.556   1.869   1.427
 5631SOL     OW27101   2.585   5.488   2.381
 5631SOL    HW127102   2.647   5.426   2.332
 5631SOL    HW227103   2.562   5.565   2.322
 5632SOL     OW27104   5.025   2.104   1.965
 5632SOL    HW127105   4.961   2.166   1.918
 5632SOL    HW227106   5.119   2.132   1.943
 5633SOL     OW27107   0.907   5.055   0.154
 5633SOL    HW127108   0.828   5.116   0.166
 5633SOL    HW227109   0.991   5.104   0.175
 5634SOL     OW27110   7.756   9.105   0.737
 5634SOL    HW127111   7.661   9.104   0.708
 5634SOL    HW227112   7.816   9.094   0.658
 5635SOL     OW27113   3.996   4.119   1.972
 5635SOL    HW127114   4.081   4.082   2.011
 5635SOL    HW227115   3.933   4.044   1.953
 5636SOL     OW27116   0.157   0.686   1.017
 5636SOL    HW127117   0.216   0.663   1.094
 5636SOL    HW227118   0.065   0.709   1.050
 5637SOL     OW27119   9.238   5.024   2.259
 5637SOL    HW127120   9.325   5.072   2.245
 5637SOL    HW227121   9.163   5.080   2.226
 5638SOL     OW27122   2.162   1.773   1.812
 5638SOL    HW127123   2.101   1.780   1.891
 5638SOL    HW227124   2.178   1.677   1.791
 5639SOL     OW27125   3.717   7.826   0.154
 5639SOL    HW127126   3.651   7.819   0.229
 5639SOL    HW227127   3.714   7.918   0.115
 5640SOL     OW27128   9.466   9.271   0.515
 5640SOL    HW127129   9.520   9.198   0.472
 5640SOL    HW227130   9.379   9.233   0.547
 5641SOL     OW27131   7.923   8.548   1.981
 5641SOL    HW127132   7.986   8.624   1.996
 5641SOL    HW227133   7.949   8.471   2.040
 5642SOL     OW27134   4.079   1.496   1.551
 5642SOL    HW127135   4.014   1.551   1.499
 5642SOL    HW227136   4.089   1.533   1.643
 5643SOL     OW27137   3.536   2.359   1.044
 5643SOL    HW127138   3.606   2.295   1.011
 5643SOL    HW227139   3.560   2.452   1.017
 5644SOL     OW27140   1.788   9.748   0.156
 5644SOL    HW127141   1.875   9.779   0.117
 5644SOL    HW227142   1.716   9.814   0.133
 5645SOL     OW27143   8.572   2.727   1.164
 5645SOL    HW127144   8.660   2.737   1.211
 5645SOL    HW227145   8.588   2.718   1.066
 5646SOL     OW27146   2.879   9.629   0.737
 5646SOL    HW127147   2.879   9.532   0.713
 5646SOL    HW227148   2.893   9.684   0.655
 5647SOL     OW27149   0.688   5.225   0.216
 5647SOL    HW127150   0.727   5.308   0.179
 5647SOL    HW227151   0.588   5.233   0.219
 5648SOL     OW27152   0.263   1.601   2.494
 5648SOL    HW127153   0.305   1.672   2.550
 5648SOL    HW227154   0.238   1.640   2.405
 5649SOL     OW27155   1.834   2.848   0.505
 5649SOL    HW127156   1.865   2.818   0.595
 5649SOL    HW227157   1.881   2.796   0.434
 5650SOL     OW27158   0.142   2.382   1.687
 5650SOL    HW127159   0.087   2.301   1.707
 5650SOL    HW227160   0.173   2.424   1.772
 5651SOL     OW27161   9.579   6.405   1.076
 5651SOL    HW127162   9.488   6.365   1.079
 5651SOL    HW227163   9.573   6.500   1.046
 5652SOL     OW27164   2.746   2.889   0.137
 5652SOL    HW127165   2.810   2.817   0.112
 5652SOL    HW227166   2.797   2.972   0.161
 5653SOL     OW27167   9.547   5.234   0.320
 5653SOL    HW127168   9.463   5.271   0.359
 5653SOL    HW227169   9.540   5.134   0.315
 5654SOL     OW27170   3.296   1.344   1.991
 5654SOL    HW127171   3.344   1.431   1.986
 5654SOL    HW227172   3.264   1.317   1.900
 5655SOL     OW27173   8.171   2.908   0.831
 5655SOL    HW127174   8.149   2.898   0.928
 5655SOL    HW227175   8.135   2.994   0.797
 5656SOL     OW27176   9.856   8.536   0.229
 5656SOL    HW127177   9.924   8.526   0.156
 5656SOL    HW227178   9.896   8.589   0.304
 5657SOL     OW27179   0.263   8.093   1.183
 5657SOL    HW127180   0.259   8.143   1.269
 5657SOL    HW227181   0.183   8.033   1.175
 5658SOL     OW27182   9.322   4.028   2.062
 5658SOL    HW127183   9.363   4.013   1.972
 5658SOL    HW227184   9.250   4.096   2.055
 5659SOL     OW27185   9.719   7.228   1.570
 5659SOL    HW127186   9.783   7.220   1.493
 5659SOL    HW227187   9.652   7.153   1.565
 5660SOL     OW27188   1.068   6.997   0.854
 5660SOL    HW127189   1.087   7.035   0.944
 5660SOL    HW227190   0.988   6.936   0.859
 5661SOL     OW27191   3.708   9.023   2.492
 5661SOL    HW127192   3.610   9.030   2.469
 5661SOL    HW227193   3.719   9.029   2.591
 5662SOL     OW27194   2.849   0.480   1.582
 5662SOL    HW127195   2.922   0.535   1.622
 5662SOL    HW227196   2.883   0.432   1.501
 5663SOL     OW27197   0.054   8.149   2.128
 5663SOL    HW127198   0.066   8.052   2.148
 5663SOL    HW227199   9.994   8.159   2.048
 5664SOL     OW27200   1.468   3.560   1.553
 5664SOL    HW127201   1.421   3.612   1.482
 5664SOL    HW227202   1.411   3.556   1.635
 5665SOL     OW27203   4.489   0.675   1.794
 5665SOL    HW127204   4.501   0.577   1.806
 5665SOL    HW227205   4.576   0.716   1.766
 5666SOL     OW27206   1.580   7.264   1.684
 5666SOL    HW127207   1.666   7.226   1.719
 5666SOL    HW227208   1.590   7.363   1.673
 5667SOL     OW27209   2.545   4.104   2.517
 5667SOL    HW127210   2.481   4.140   2.449
 5667SOL    HW227211   2.514   4.014   2.547
 5668SOL     OW27212   2.723   0.955   0.966
 5668SOL    HW127213   2.770   0.955   1.055
 5668SOL    HW227214   2.767   0.890   0.905
 5669SOL     OW27215   9.665   7.753   0.716
 5669SOL    HW127216   9.656   7.771   0.617
 5669SOL    HW227217   9.595   7.687   0.744
 5670SOL     OW27218   8.134   2.750   0.407
 5670SOL    HW127219   8.143   2.654   0.381
 5670SOL    HW227220   8.116   2.756   0.505
 5671SOL     OW27221   2.001   4.013   0.700
 5671SOL    HW127222   1.939   4.091   0.713
 5671SOL    HW227223   1.976   3.939   0.762
 5672SOL     OW27224   9.882   2.010   2.476
 5672SOL    HW127225   9.966   2.064   2.470
 5672SOL    HW227226   9.804   2.070   2.492
 5673SOL     OW27227   1.388   5.254   0.504
 5673SOL    HW127228   1.346   5.306   0.430
 5673SOL    HW227229   1.415   5.164   0.470
 5674SOL     OW27230   9.299   1.668   1.580
 5674SOL    HW127231   9.330   1.580   1.617
 5674SOL    HW227232   9.220   1.653   1.520
 5675SOL     OW27233   4.093   2.669   1.100
 5675SOL    HW127234   4.141   2.582   1.104
 5675SOL    HW227235   4.120   2.718   1.016
 5676SOL     OW27236   1.543   1.086   0.364
 5676SOL    HW127237   1.448   1.065   0.339
 5676SOL    HW227238   1.553   1.083   0.463
 5677SOL     OW27239   8.439   8.964   1.043
 5677SOL    HW127240   8.523   8.911   1.036
 5677SOL    HW227241   8.462   9.060   1.059
 5678SOL     OW27242   1.564   7.227   2.451
 5678SOL    HW127243   1.485   7.254   2.506
 5678SOL    HW227244   1.645   7.277   2.483
 5679SOL     OW27245   9.342   5.732   0.159
 5679SOL    HW127246   9.408   5.730   0.234
 5679SOL    HW227247   9.329   5.827   0.129
 5680SOL     OW27248   2.587   7.107   0.876
 5680SOL    HW127249   2.565   7.050   0.955
 5680SOL    HW227250   2.658   7.173   0.901
 5681SOL     OW27251   3.694   5.282   2.636
 5681SOL    HW127252   3.792   5.292   2.620
 5681SOL    HW227253   3.679   5.225   2.717
 5682SOL     OW27254   2.814   9.388   0.430
 5682SOL    HW127255   2.729   9.344   0.401
 5682SOL    HW227256   2.892   9.345   0.384
 5683SOL     OW27257   4.385   2.496   1.516
 5683SOL    HW127258   4.462   2.482   1.453
 5683SOL    HW227259   4.316   2.426   1.499
 5684SOL     OW27260   3.241   0.337   2.242
 5684SOL    HW127261   3.275   0.318   2.334
 5684SOL    HW227262   3.279   0.270   2.178
 5685SOL     OW27263   2.103   2.899   2.420
 5685SOL    HW127264   2.164   2.832   2.461
 5685SOL    HW227265   2.009   2.881   2.448
 5686SOL     OW27266   2.161   3.569   1.820
 5686SOL    HW127267   2.150   3.487   1.875
 5686SOL    HW227268   2.259   3.586   1.805
 5687SOL     OW27269   0.936   6.904   2.510
 5687SOL    HW127270   0.935   6.977   2.578
 5687SOL    HW227271   0.846   6.860   2.507
 5688SOL     OW27272   4.276   1.301   2.548
 5688SOL    HW127273   4.204   1.235   2.569
 5688SOL    HW227274   4.235   1.385   2.511
 5689SOL     OW27275   4.530   9.355   0.150
 5689SOL    HW127276   4.505   9.388   0.059
 5689SOL    HW227277   4.512   9.257   0.156
 5690SOL     OW27278   0.877   2.100   0.183
 5690SOL    HW127279   0.917   2.008   0.190
 5690SOL    HW227280   0.947   2.164   0.150
 5691SOL     OW27281   9.849   4.036   2.482
 5691SOL    HW127282   9.752   4.017   2.472
 5691SOL    HW227283   9.874   4.112   2.422
 5692SOL     OW27284   8.702   1.525   0.479
 5692SOL    HW127285   8.708   1.442   0.425
 5692SOL    HW227286   8.763   1.519   0.558
 5693SOL     OW27287   4.005   7.429   1.043
 5693SOL    HW127288   4.037   7.402   0.952
 5693SOL    HW227289   3.965   7.520   1.039
 5694SOL     OW27290   1.051   7.384   0.795
 5694SOL    HW127291   1.089   7.307   0.742
 5694SOL    HW227292   0.956   7.365   0.818
 5695SOL     OW27293   2.119   1.568   0.226
 5695SOL    HW127294   2.034   1.577   0.175
 5695SOL    HW227295   2.100   1.536   0.319
 5696SOL     OW27296   8.259   9.759   0.379
 5696SOL    HW127297   8.289   9.790   0.289
 5696SOL    HW227298   8.296   9.668   0.397
 5697SOL     OW27299   9.018   3.829   2.402
 5697SOL    HW127300   9.020   3.730   2.388
 5697SOL    HW227301   9.092   3.856   2.464
 5698SOL     OW27302   2.265   4.386   0.005
 5698SOL    HW127303   2.199   4.314   3.423
 5698SOL    HW227304   2.352   4.345   0.034
 5699SOL     OW27305   9.627   5.181   0.674
 5699SOL    HW127306   9.678   5.098   0.697
 5699SOL    HW227307   9.680   5.235   0.609
 5700SOL     OW27308   7.969   0.723   1.677
 5700SOL    HW127309   8.008   0.815   1.673
 5700SOL    HW227310   7.908   0.715   1.755
 5701SOL     OW27311   9.438   2.919   2.179
 5701SOL    HW127312   9.517   2.929   2.120
 5701SOL    HW227313   9.417   3.007   2.223
 5702SOL     OW27314   5.403   8.828   1.911
 5702SOL    HW127315   5.306   8.813   1.933
 5702SOL    HW227316   5.422   8.927   1.909
 5703SOL     OW27317   2.771   4.113   0.047
 5703SOL    HW127318   2.711   4.109   0.127
 5703SOL    HW227319   2.727   4.167   3.412
 5704SOL     OW27320   1.359   2.114   0.952
 5704SOL    HW127321   1.276   2.065   0.976
 5704SOL    HW227322   1.438   2.053   0.963
 5705SOL     OW27323   4.384   8.874   2.056
 5705SOL    HW127324   4.426   8.896   2.144
 5705SOL    HW227325   4.344   8.783   2.060
 5706SOL     OW27326   2.056   5.724   0.976
 5706SOL    HW127327   2.021   5.765   1.060
 5706SOL    HW227328   2.108   5.793   0.924
 5707SOL     OW27329   0.147   9.498   0.396
 5707SOL    HW127330   0.048   9.496   0.382
 5707SOL    HW227331   0.180   9.592   0.389
 5708SOL     OW27332   0.642   5.466   1.070
 5708SOL    HW127333   0.730   5.422   1.053
 5708SOL    HW227334   0.626   5.472   1.168
 5709SOL     OW27335   3.264   7.122   0.215
 5709SOL    HW127336   3.350   7.171   0.225
 5709SOL    HW227337   3.244   7.072   0.299
 5710SOL     OW27338   2.106   5.785   2.550
 5710SOL    HW127339   2.103   5.782   2.450
 5710SOL    HW227340   2.072   5.873   2.582
 5711SOL     OW27341   9.404   0.528   1.850
 5711SOL    HW127342   9.438   0.496   1.938
 5711SOL    HW227343   9.383   0.626   1.855
 5712SOL     OW27344   1.113   0.121   0.093
 5712SOL    HW127345   1.212   0.116   0.103
 5712SOL    HW227346   1.076   0.029   0.084
 5713SOL     OW27347   3.541   4.482   1.930
 5713SOL    HW127348   3.602   4.407   1.954
 5713SOL    HW227349   3.583   4.569   1.955
 5714SOL     OW27350   1.713   8.583   2.320
 5714SOL    HW127351   1.802   8.621   2.343
 5714SOL    HW227352   1.671   8.639   2.248
 5715SOL     OW27353   3.220   3.461   1.960
 5715SOL    HW127354   3.272   3.380   1.990
 5715SOL    HW227355   3.126   3.434   1.940
 5716SOL     OW27356   1.162   8.873   1.097
 5716SOL    HW127357   1.192   8.946   1.159
 5716SOL    HW227358   1.108   8.912   1.023
 5717SOL     OW27359   8.841   8.133   1.889
 5717SOL    HW127360   8.821   8.215   1.836
 5717SOL    HW227361   8.808   8.053   1.840
 5718SOL     OW27362   8.302   1.895   1.455
 5718SOL    HW127363   8.324   1.804   1.492
 5718SOL    HW227364   8.203   1.903   1.443
 5719SOL     OW27365   7.116   9.968   2.285
 5719SOL    HW127366   7.036   0.021   2.255
 5719SOL    HW227367   7.195   9.992   2.228
 5720SOL     OW27368   3.393   6.678   1.461
 5720SOL    HW127369   3.296   6.660   1.473
 5720SOL    HW227370   3.444   6.642   1.539
 5721SOL     OW27371   3.645   0.388   0.200
 5721SOL    HW127372   3.582   0.444   0.254
 5721SOL    HW227373   3.604   0.297   0.186
 5722SOL     OW27374   8.635   5.891   1.081
 5722SOL    HW127375   8.570   5.924   1.012
 5722SOL    HW227376   8.615   5.935   1.169
 5723SOL     OW27377   0.327   6.069   0.116
 5723SOL    HW127378   0.228   6.071   0.102
 5723SOL    HW227379   0.357   5.975   0.131
 5724SOL     OW27380   2.855   9.265   2.109
 5724SOL    HW127381   2.768   9.314   2.118
 5724SOL    HW227382   2.905   9.302   2.030
 5725SOL     OW27383   3.232   5.053   0.507
 5725SOL    HW127384   3.258   5.134   0.454
 5725SOL    HW227385   3.215   4.977   0.444
 5726SOL     OW27386   0.551   1.017   1.218
 5726SOL    HW127387   0.512   0.983   1.132
 5726SOL    HW227388   0.649   1.034   1.206
 5727SOL     OW27389   1.774   6.628   1.762
 5727SOL    HW127390   1.702   6.690   1.731
 5727SOL    HW227391   1.822   6.669   1.840
 5728SOL     OW27392   4.002   4.853   2.500
 5728SOL    HW127393   4.076   4.918   2.517
 5728SOL    HW227394   4.036   4.760   2.515
 5729SOL     OW27395   2.942   0.072   1.365
 5729SOL    HW127396   2.945   0.023   1.277
 5729SOL    HW227397   2.857   0.049   1.412
 5730SOL     OW27398   0.431   6.577   1.490
 5730SOL    HW127399   0.380   6.514   1.432
 5730SOL    HW227400   0.368   6.641   1.533
 5731SOL     OW27401   8.288   2.115   0.992
 5731SOL    HW127402   8.326   2.082   1.078
 5731SOL    HW227403   8.276   2.214   0.997
 5732SOL     OW27404   1.459   3.290   1.484
 5732SOL    HW127405   1.541   3.250   1.524
 5732SOL    HW227406   1.453   3.387   1.511
 5733SOL     OW27407   8.596   9.711   0.947
 5733SOL    HW127408   8.693   9.690   0.932
 5733SOL    HW227409   8.540   9.633   0.920
 5734SOL     OW27410   0.001   8.802   2.485
 5734SOL    HW127411   9.972   8.777   2.577
 5734SOL    HW227412   9.954   8.885   2.456
 5735SOL     OW27413   4.162   9.936   2.321
 5735SOL    HW127414   4.132   9.978   2.235
 5735SOL    HW227415   4.211   9.851   2.302
 5736SOL     OW27416   0.042   9.553   2.273
 5736SOL    HW127417   9.995   9.473   2.309
 5736SOL    HW227418   0.138   9.532   2.258
 5737SOL     OW27419   1.822   5.668   2.118
 5737SOL    HW127420   1.840   5.671   2.217
 5737SOL    HW227421   1.726   5.648   2.102
 5738SOL     OW27422   0.786   7.226   0.582
 5738SOL    HW127423   0.791   7.261   0.676
 5738SOL    HW227424   0.754   7.131   0.584
 5739SOL     OW27425   3.544   9.952   2.353
 5739SOL    HW127426   3.452   9.955   2.313
 5739SOL    HW227427   3.557   9.864   2.398
 5740SOL     OW27428   3.635   3.784   2.613
 5740SOL    HW127429   3.566   3.713   2.625
 5740SOL    HW227430   3.614   3.839   2.532
 5741SOL     OW27431   3.868   0.653   2.244
 5741SOL    HW127432   3.888   0.568   2.292
 5741SOL    HW227433   3.927   0.660   2.164
 5742SOL     OW27434   0.776   1.444   2.124
 5742SOL    HW127435   0.718   1.522   2.147
 5742SOL    HW227436   0.872   1.473   2.124
 5743SOL     OW27437   3.418   5.933   1.407
 5743SOL    HW127438   3.507   5.911   1.445
 5743SOL    HW227439   3.427   6.002   1.336
 5744SOL     OW27440   3.286   0.126   0.875
 5744SOL    HW127441   3.348   0.125   0.796
 5744SOL    HW227442   3.250   0.034   0.891
 5745SOL     OW27443   7.708   0.459   1.898
 5745SOL    HW127444   7.613   0.427   1.897
 5745SOL    HW227445   7.755   0.430   1.815
 5746SOL     OW27446   8.732   0.882   0.129
 5746SOL    HW127447   8.644   0.926   0.111
 5746SOL    HW227448   8.768   0.915   0.217
 5747SOL     OW27449   0.387   1.695   0.962
 5747SOL    HW127450   0.430   1.753   0.893
 5747SOL    HW227451   0.294   1.672   0.934
 5748SOL     OW27452   7.549   0.425   0.666
 5748SOL    HW127453   7.611   0.365   0.716
 5748SOL    HW227454   7.501   0.373   0.596
 5749SOL     OW27455   9.201   7.194   1.313
 5749SOL    HW127456   9.112   7.173   1.352
 5749SOL    HW227457   9.234   7.116   1.260
 5750SOL     OW27458   3.923   0.498   1.833
 5750SOL    HW127459   3.889   0.408   1.804
 5750SOL    HW227460   3.910   0.563   1.758
 5751SOL     OW27461   2.880   6.955   1.323
 5751SOL    HW127462   2.806   6.925   1.263
 5751SOL    HW227463   2.870   7.053   1.342
 5752SOL     OW27464   0.359   0.552   0.443
 5752SOL    HW127465   0.307   0.627   0.483
 5752SOL    HW227466   0.330   0.466   0.484
 5753SOL     OW27467   7.809   1.732   1.375
 5753SOL    HW127468   7.784   1.670   1.449
 5753SOL    HW227469   7.726   1.766   1.330
 5754SOL     OW27470   2.809   3.876   0.767
 5754SOL    HW127471   2.722   3.834   0.789
 5754SOL    HW227472   2.884   3.822   0.806
 5755SOL     OW27473   3.892   3.343   1.818
 5755SOL    HW127474   3.964   3.296   1.767
 5755SOL    HW227475   3.804   3.324   1.776
 5756SOL     OW27476   3.749   0.083   0.772
 5756SOL    HW127477   3.827   0.145   0.786
 5756SOL    HW227478   3.701   0.109   0.688
 5757SOL     OW27479   1.241   5.525   2.512
 5757SOL    HW127480   1.178   5.449   2.500
 5757SOL    HW227481   1.190   5.611   2.517
 5758SOL     OW27482   4.274   3.010   1.141
 5758SOL    HW127483   4.219   3.002   1.057
 5758SOL    HW227484   4.238   3.085   1.197
 5759SOL     OW27485   2.500   5.867   1.139
 5759SOL    HW127486   2.458   5.902   1.223
 5759SOL    HW227487   2.439   5.885   1.062
 5760SOL     OW27488   3.209   1.214   0.953
 5760SOL    HW127489   3.159   1.129   0.933
 5760SOL    HW227490   3.183   1.284   0.887
 5761SOL     OW27491   0.144   9.033   0.488
 5761SOL    HW127492   0.089   9.106   0.447
 5761SOL    HW227493   0.086   8.977   0.547
 5762SOL     OW27494   4.310   9.671   1.399
 5762SOL    HW127495   4.224   9.649   1.353
 5762SOL    HW227496   4.295   9.742   1.468
 5763SOL     OW27497   6.595   9.649   2.200
 5763SOL    HW127498   6.582   9.706   2.281
 5763SOL    HW227499   6.666   9.688   2.142
 5764SOL     OW27500   2.107   4.155   0.008
 5764SOL    HW127501   2.068   4.187   0.094
 5764SOL    HW227502   2.034   4.121   3.385
 5765SOL     OW27503   7.363   1.323   0.608
 5765SOL    HW127504   7.377   1.351   0.513
 5765SOL    HW227505   7.439   1.356   0.664
 5766SOL     OW27506   0.578   3.887   1.628
 5766SOL    HW127507   0.587   3.808   1.568
 5766SOL    HW227508   0.481   3.911   1.638
 5767SOL     OW27509   2.198   8.497   0.138
 5767SOL    HW127510   2.151   8.515   0.225
 5767SOL    HW227511   2.202   8.582   0.085
 5768SOL     OW27512   9.773   6.419   1.264
 5768SOL    HW127513   9.772   6.507   1.313
 5768SOL    HW227514   9.695   6.414   1.203
 5769SOL     OW27515   2.839   5.918   2.217
 5769SOL    HW127516   2.832   5.986   2.290
 5769SOL    HW227517   2.920   5.862   2.231
 5770SOL     OW27518   9.625   3.499   0.143
 5770SOL    HW127519   9.556   3.459   0.082
 5770SOL    HW227520   9.713   3.454   0.128
 5771SOL     OW27521   8.070   0.031   0.628
 5771SOL    HW127522   8.073   9.932   0.611
 5771SOL    HW227523   8.161   0.064   0.653
 5772SOL     OW27524   3.534   6.629   2.369
 5772SOL    HW127525   3.550   6.726   2.352
 5772SOL    HW227526   3.475   6.618   2.449
 5773SOL     OW27527   3.427   4.051   1.312
 5773SOL    HW127528   3.504   4.080   1.254
 5773SOL    HW227529   3.341   4.078   1.268
 5774SOL     OW27530   0.086   9.468   1.706
 5774SOL    HW127531   0.126   9.538   1.645
 5774SOL    HW227532   0.081   9.381   1.657
 5775SOL     OW27533   4.335   9.777   0.432
 5775SOL    HW127534   4.292   9.811   0.349
 5775SOL    HW227535   4.382   9.690   0.412
 5776SOL     OW27536   0.445   7.540   0.405
 5776SOL    HW127537   0.502   7.608   0.358
 5776SOL    HW227538   0.403   7.582   0.485
 5777SOL     OW27539   1.474   1.498   2.364
 5777SOL    HW127540   1.491   1.402   2.339
 5777SOL    HW227541   1.376   1.516   2.362
 5778SOL     OW27542   3.799   8.118   1.458
 5778SOL    HW127543   3.887   8.072   1.462
 5778SOL    HW227544   3.756   8.118   1.548
 5779SOL     OW27545   9.181   8.558   1.843
 5779SOL    HW127546   9.189   8.628   1.771
 5779SOL    HW227547   9.250   8.487   1.827
 5780SOL     OW27548   8.815   9.765   2.506
 5780SOL    HW127549   8.798   9.796   2.412
 5780SOL    HW227550   8.828   9.844   2.565
 5781SOL     OW27551   4.149   1.497   1.208
 5781SOL    HW127552   4.184   1.426   1.269
 5781SOL    HW227553   4.070   1.542   1.251
 5782SOL     OW27554   4.453   0.076   2.112
 5782SOL    HW127555   4.387   0.082   2.037
 5782SOL    HW227556   4.497   0.166   2.123
 5783SOL     OW27557   8.907   4.842   2.215
 5783SOL    HW127558   8.881   4.909   2.285
 5783SOL    HW227559   8.937   4.889   2.133
 5784SOL     OW27560   2.716   2.003   0.528
 5784SOL    HW127561   2.655   2.024   0.451
 5784SOL    HW227562   2.751   1.910   0.517
 5785SOL     OW27563   2.139   6.566   1.052
 5785SOL    HW127564   2.148   6.615   0.965
 5785SOL    HW227565   2.198   6.609   1.120
 5786SOL     OW27566   2.112   4.943   0.655
 5786SOL    HW127567   2.081   5.037   0.641
 5786SOL    HW227568   2.179   4.941   0.729
 5787SOL     OW27569   8.509   3.618   2.260
 5787SOL    HW127570   8.483   3.611   2.356
 5787SOL    HW227571   8.447   3.562   2.204
 5788SOL     OW27572   8.822   5.908   0.506
 5788SOL    HW127573   8.883   5.839   0.547
 5788SOL    HW227574   8.745   5.925   0.567
 5789SOL     OW27575   9.148   9.801   0.291
 5789SOL    HW127576   9.082   9.735   0.328
 5789SOL    HW227577   9.240   9.765   0.299
 5790SOL     OW27578   8.525   5.063   2.126
 5790SOL    HW127579   8.472   5.116   2.193
 5790SOL    HW227580   8.532   4.968   2.158
 5791SOL     OW27581   3.110   3.956   2.465
 5791SOL    HW127582   3.101   3.953   2.365
 5791SOL    HW227583   3.019   3.952   2.506
 5792SOL     OW27584   4.309   0.086   2.507
 5792SOL    HW127585   4.256   0.043   2.433
 5792SOL    HW227586   4.384   0.025   2.533
 5793SOL     OW27587   1.755   1.861   2.540
 5793SOL    HW127588   1.695   1.783   2.559
 5793SOL    HW227589   1.804   1.887   2.624
 5794SOL     OW27590   2.125   0.572   1.110
 5794SOL    HW127591   2.128   0.473   1.092
 5794SOL    HW227592   2.139   0.588   1.208
 5795SOL     OW27593   4.324   7.969   1.146
 5795SOL    HW127594   4.229   7.988   1.168
 5795SOL    HW227595   4.384   8.013   1.213
 5796SOL     OW27596   0.573   7.759   0.702
 5796SOL    HW127597   0.583   7.664   0.730
 5796SOL    HW227598   0.658   7.790   0.660
 5797SOL     OW27599   1.619   8.377   1.645
 5797SOL    HW127600   1.688   8.418   1.704
 5797SOL    HW227601   1.649   8.287   1.614
 5798SOL     OW27602   9.854   1.810   2.279
 5798SOL    HW127603   9.871   1.877   2.350
 5798SOL    HW227604   9.829   1.722   2.320
 5799SOL     OW27605   8.362   9.862   0.145
 5799SOL    HW127606   8.402   9.950   0.167
 5799SOL    HW227607   8.435   9.796   0.126
 5800SOL     OW27608   7.722   0.173   0.377
 5800SOL    HW127609   7.813   0.211   0.396
 5800SOL    HW227610   7.714   0.084   0.422
 5801SOL     OW27611   9.147   5.017   1.404
 5801SOL    HW127612   9.142   5.113   1.431
 5801SOL    HW227613   9.179   5.011   1.309
 5802SOL     OW27614   2.711   1.618   1.680
 5802SOL    HW127615   2.805   1.635   1.711
 5802SOL    HW227616   2.692   1.520   1.683
 5803SOL     OW27617   0.765   9.821   2.411
 5803SOL    HW127618   0.774   9.749   2.480
 5803SOL    HW227619   0.674   9.862   2.417
 5804SOL     OW27620   7.181   0.264   2.568
 5804SOL    HW127621   7.240   0.246   2.489
 5804SOL    HW227622   7.211   0.347   2.615
 5805SOL     OW27623   1.829   5.777   0.639
 5805SOL    HW127624   1.841   5.874   0.660
 5805SOL    HW227625   1.907   5.743   0.585
 5806SOL     OW27626   7.618   8.449   2.506
 5806SOL    HW127627   7.665   8.368   2.543
 5806SOL    HW227628   7.628   8.451   2.407
 5807SOL     OW27629   9.559   5.607   0.031
 5807SOL    HW127630   9.539   5.560   3.382
 5807SOL    HW227631   9.478   5.655   0.063
 5808SOL     OW27632   4.422   3.500   1.578
 5808SOL    HW127633   4.422   3.594   1.545
 5808SOL    HW227634   4.503   3.452   1.544
 5809SOL     OW27635   2.485   3.533   0.213
 5809SOL    HW127636   2.511   3.482   0.295
 5809SOL    HW227637   2.557   3.526   0.144
 5810SOL     OW27638   7.853   2.538   0.273
 5810SOL    HW127639   7.865   2.633   0.246
 5810SOL    HW227640   7.824   2.534   0.369
 5811SOL     OW27641   0.155   1.403   2.056
 5811SOL    HW127642   0.197   1.469   1.994
 5811SOL    HW227643   0.108   1.452   2.130
 5812SOL     OW27644   1.606   3.357   0.815
 5812SOL    HW127645   1.626   3.367   0.717
 5812SOL    HW227646   1.689   3.378   0.867
 5813SOL     OW27647   5.505   9.683   2.580
 5813SOL    HW127648   5.498   9.689   2.679
 5813SOL    HW227649   5.547   9.595   2.554
 5814SOL     OW27650   8.845   3.902   2.606
 5814SOL    HW127651   8.897   3.878   2.524
 5814SOL    HW227652   8.904   3.949   2.671
 5815SOL     OW27653   2.392   3.438   2.339
 5815SOL    HW127654   2.421   3.361   2.282
 5815SOL    HW227655   2.433   3.430   2.429
 5816SOL     OW27656   3.287   1.444   1.497
 5816SOL    HW127657   3.246   1.518   1.444
 5816SOL    HW227658   3.335   1.381   1.435
 5817SOL     OW27659   8.760   3.278   0.188
 5817SOL    HW127660   8.743   3.218   0.110
 5817SOL    HW227661   8.837   3.338   0.166
 5818SOL     OW27662   9.892   9.746   2.404
 5818SOL    HW127663   9.952   9.673   2.371
 5818SOL    HW227664   9.926   9.834   2.372
 5819SOL     OW27665   9.307   6.859   0.279
 5819SOL    HW127666   9.233   6.872   0.213
 5819SOL    HW227667   9.291   6.916   0.359
 5820SOL     OW27668   9.717   1.242   1.551
 5820SOL    HW127669   9.701   1.328   1.504
 5820SOL    HW227670   9.630   1.204   1.582
 5821SOL     OW27671   2.460   5.713   0.462
 5821SOL    HW127672   2.449   5.657   0.544
 5821SOL    HW227673   2.557   5.716   0.437
 5822SOL     OW27674   4.369   2.180   2.237
 5822SOL    HW127675   4.315   2.102   2.202
 5822SOL    HW227676   4.455   2.146   2.275
 5823SOL     OW27677   3.591   4.411   0.518
 5823SOL    HW127678   3.525   4.476   0.555
 5823SOL    HW227679   3.655   4.459   0.457
 5824SOL     OW27680   4.208   0.596   2.383
 5824SOL    HW127681   4.281   0.548   2.335
 5824SOL    HW227682   4.127   0.536   2.389
 5825SOL     OW27683   9.669   8.928   2.239
 5825SOL    HW127684   9.720   8.852   2.198
 5825SOL    HW227685   9.643   8.993   2.168
 5826SOL     OW27686   8.950   3.891   1.933
 5826SOL    HW127687   9.027   3.892   1.869
 5826SOL    HW227688   8.878   3.952   1.900
 5827SOL     OW27689   3.177   4.677   1.196
 5827SOL    HW127690   3.253   4.632   1.148
 5827SOL    HW227691   3.091   4.643   1.159
 5828SOL     OW27692   1.255   3.666   1.981
 5828SOL    HW127693   1.174   3.631   2.027
 5828SOL    HW227694   1.335   3.653   2.040
 5829SOL     OW27695   2.647   1.349   1.653
 5829SOL    HW127696   2.571   1.327   1.591
 5829SOL    HW227697   2.728   1.298   1.625
 5830SOL     OW27698   8.012   5.629   0.719
 5830SOL    HW127699   8.004   5.728   0.720
 5830SOL    HW227700   7.943   5.591   0.657
 5831SOL     OW27701   9.559   6.176   0.176
 5831SOL    HW127702   9.637   6.138   0.126
 5831SOL    HW227703   9.580   6.270   0.203
 5832SOL     OW27704   3.611   5.169   2.401
 5832SOL    HW127705   3.690   5.118   2.367
 5832SOL    HW227706   3.635   5.218   2.485
 5833SOL     OW27707   3.821   2.700   1.128
 5833SOL    HW127708   3.916   2.692   1.101
 5833SOL    HW227709   3.812   2.768   1.202
 5834SOL     OW27710   2.288   3.837   1.595
 5834SOL    HW127711   2.238   3.912   1.638
 5834SOL    HW227712   2.369   3.815   1.649
 5835SOL     OW27713   2.588   6.013   1.594
 5835SOL    HW127714   2.622   5.924   1.564
 5835SOL    HW227715   2.641   6.086   1.550
 5836SOL     OW27716   9.737   5.558   0.709
 5836SOL    HW127717   9.807   5.490   0.728
 5836SOL    HW227718   9.744   5.634   0.774
 5837SOL     OW27719   1.952   8.085   0.196
 5837SOL    HW127720   1.858   8.084   0.161
 5837SOL    HW227721   1.972   7.997   0.239
 5838SOL     OW27722   1.768   6.284   0.270
 5838SOL    HW127723   1.772   6.221   0.192
 5838SOL    HW227724   1.696   6.351   0.255
 5839SOL     OW27725   1.229   2.436   0.667
 5839SOL    HW127726   1.266   2.444   0.575
 5839SOL    HW227727   1.291   2.479   0.732
 5840SOL     OW27728   7.903   2.811   0.274
 5840SOL    HW127729   7.993   2.797   0.313
 5840SOL    HW227730   7.837   2.833   0.346
 5841SOL     OW27731   2.035   6.229   0.313
 5841SOL    HW127732   1.942   6.268   0.309
 5841SOL    HW227733   2.091   6.269   0.240
 5842SOL     OW27734   8.771   1.232   1.521
 5842SOL    HW127735   8.827   1.209   1.600
 5842SOL    HW227736   8.709   1.156   1.501
 5843SOL     OW27737   3.846   5.032   2.327
 5843SOL    HW127738   3.806   4.989   2.246
 5843SOL    HW227739   3.902   4.966   2.376
 5844SOL     OW27740   3.148   5.137   2.541
 5844SOL    HW127741   3.092   5.069   2.589
 5844SOL    HW227742   3.091   5.217   2.519
 5845SOL     OW27743   2.633   0.765   0.349
 5845SOL    HW127744   2.562   0.740   0.284
 5845SOL    HW227745   2.661   0.684   0.400
 5846SOL     OW27746   2.054   8.680   1.295
 5846SOL    HW127747   2.145   8.656   1.329
 5846SOL    HW227748   2.023   8.611   1.230
 5847SOL     OW27749   8.868   7.521   2.654
 5847SOL    HW127750   8.863   7.594   2.722
 5847SOL    HW227751   8.783   7.520   2.601
 5848SOL     OW27752   2.955   8.367   1.187
 5848SOL    HW127753   2.965   8.285   1.242
 5848SOL    HW227754   2.938   8.446   1.246
 5849SOL     OW27755   6.941   9.140   2.141
 5849SOL    HW127756   6.970   9.202   2.213
 5849SOL    HW227757   7.020   9.088   2.107
 5850SOL     OW27758   9.226   4.802   2.074
 5850SOL    HW127759   9.203   4.859   2.153
 5850SOL    HW227760   9.289   4.851   2.014
 5851SOL     OW27761   2.826   2.047   1.799
 5851SOL    HW127762   2.790   2.127   1.848
 5851SOL    HW227763   2.843   1.973   1.865
 5852SOL     OW27764   3.391   0.582   2.042
 5852SOL    HW127765   3.490   0.588   2.034
 5852SOL    HW227766   3.367   0.517   2.114
 5853SOL     OW27767   2.452   9.138   0.230
 5853SOL    HW127768   2.420   9.044   0.221
 5853SOL    HW227769   2.376   9.201   0.212
 5854SOL     OW27770   8.231   0.382   1.088
 5854SOL    HW127771   8.164   0.456   1.086
 5854SOL    HW227772   8.207   0.313   1.019
 5855SOL     OW27773   2.856   6.885   2.531
 5855SOL    HW127774   2.892   6.968   2.573
 5855SOL    HW227775   2.761   6.873   2.558
 5856SOL     OW27776   0.583   6.813   1.816
 5856SOL    HW127777   0.501   6.769   1.779
 5856SOL    HW227778   0.597   6.901   1.769
 5857SOL     OW27779   1.103   9.650   1.020
 5857SOL    HW127780   1.082   9.666   1.116
 5857SOL    HW227781   1.178   9.584   1.012
 5858SOL     OW27782   6.172   8.951   2.206
 5858SOL    HW127783   6.220   8.885   2.264
 5858SOL    HW227784   6.221   9.039   2.208
 5859SOL     OW27785   1.809   7.004   1.464
 5859SOL    HW127786   1.856   6.991   1.551
 5859SOL    HW227787   1.851   6.945   1.395
 5860SOL     OW27788   4.851   7.754   2.191
 5860SOL    HW127789   4.900   7.773   2.276
 5860SOL    HW227790   4.768   7.703   2.212
 5861SOL     OW27791   9.396   5.719   0.562
 5861SOL    HW127792   9.425   5.632   0.602
 5861SOL    HW227793   9.446   5.735   0.477
 5862SOL     OW27794   2.083   8.591   0.372
 5862SOL    HW127795   2.029   8.575   0.455
 5862SOL    HW227796   2.044   8.668   0.321
 5863SOL     OW27797   2.419   5.549   0.681
 5863SOL    HW127798   2.319   5.543   0.686
 5863SOL    HW227799   2.459   5.513   0.766
 5864SOL     OW27800   2.143   8.483   1.571
 5864SOL    HW127801   2.085   8.452   1.495
 5864SOL    HW227802   2.204   8.408   1.598
 5865SOL     OW27803   4.888   3.009   1.576
 5865SOL    HW127804   4.808   3.031   1.521
 5865SOL    HW227805   4.950   2.950   1.524
 5866SOL     OW27806   8.971   5.018   0.747
 5866SOL    HW127807   8.924   5.033   0.660
 5866SOL    HW227808   9.065   4.989   0.730
 5867SOL     OW27809   9.711   1.860   0.489
 5867SOL    HW127810   9.742   1.798   0.417
 5867SOL    HW227811   9.640   1.815   0.543
 5868SOL     OW27812   2.742   5.309   2.237
 5868SOL    HW127813   2.669   5.253   2.198
 5868SOL    HW227814   2.810   5.327   2.166
 5869SOL     OW27815   8.986   2.569   0.922
 5869SOL    HW127816   9.043   2.487   0.913
 5869SOL    HW227817   8.920   2.572   0.847
 5870SOL     OW27818   2.919   3.170   2.156
 5870SOL    HW127819   2.983   3.113   2.207
 5870SOL    HW227820   2.831   3.173   2.204
 5871SOL     OW27821   3.924   7.888   0.689
 5871SOL    HW127822   4.011   7.880   0.640
 5871SOL    HW227823   3.942   7.918   0.783
 5872SOL     OW27824   2.608   2.632   1.471
 5872SOL    HW127825   2.537   2.680   1.522
 5872SOL    HW227826   2.659   2.571   1.532
 5873SOL     OW27827   3.335   8.581   0.175
 5873SOL    HW127828   3.431   8.601   0.157
 5873SOL    HW227829   3.278   8.651   0.133
 5874SOL     OW27830   2.074   3.708   0.383
 5874SOL    HW127831   2.061   3.753   0.295
 5874SOL    HW227832   2.114   3.618   0.369
 5875SOL     OW27833   9.661   4.241   1.945
 5875SOL    HW127834   9.618   4.281   2.026
 5875SOL    HW227835   9.593   4.235   1.871
 5876SOL     OW27836   1.937   8.714   2.406
 5876SOL    HW127837   1.960   8.646   2.476
 5876SOL    HW227838   1.952   8.806   2.443
 5877SOL     OW27839   2.482   2.430   2.163
 5877SOL    HW127840   2.552   2.464   2.099
 5877SOL    HW227841   2.392   2.435   2.119
 5878SOL     OW27842   0.886   4.151   0.770
 5878SOL    HW127843   0.973   4.103   0.785
 5878SOL    HW227844   0.900   4.225   0.705
 5879SOL     OW27845   8.419   7.527   2.194
 5879SOL    HW127846   8.346   7.467   2.161
 5879SOL    HW227847   8.399   7.555   2.288
 5880SOL     OW27848   0.873   2.356   1.547
 5880SOL    HW127849   0.842   2.381   1.639
 5880SOL    HW227850   0.972   2.367   1.541
 5881SOL     OW27851   9.629   3.164   1.367
 5881SOL    HW127852   9.665   3.225   1.437
 5881SOL    HW227853   9.610   3.075   1.407
 5882SOL     OW27854   4.316   1.466   0.421
 5882SOL    HW127855   4.338   1.370   0.438
 5882SOL    HW227856   4.233   1.490   0.471
 5883SOL     OW27857   2.732   4.204   1.622
 5883SOL    HW127858   2.731   4.293   1.578
 5883SOL    HW227859   2.642   4.186   1.662
 5884SOL     OW27860   9.953   8.876   0.628
 5884SOL    HW127861   9.911   8.827   0.705
 5884SOL    HW227862   9.897   8.956   0.606
 5885SOL     OW27863   3.461   3.571   2.615
 5885SOL    HW127864   3.495   3.478   2.629
 5885SOL    HW227865   3.409   3.576   2.530
 5886SOL     OW27866   1.985   7.443   1.519
 5886SOL    HW127867   1.930   7.382   1.461
 5886SOL    HW227868   1.935   7.528   1.534
 5887SOL     OW27869   1.248   1.233   2.525
 5887SOL    HW127870   1.300   1.287   2.592
 5887SOL    HW227871   1.156   1.271   2.516
 5888SOL     OW27872   8.846   8.232   2.511
 5888SOL    HW127873   8.815   8.272   2.425
 5888SOL    HW227874   8.935   8.189   2.497
 5889SOL     OW27875   3.092   6.286   0.697
 5889SOL    HW127876   3.131   6.345   0.769
 5889SOL    HW227877   3.033   6.341   0.638
 5890SOL     OW27878   3.432   1.268   1.312
 5890SOL    HW127879   3.429   1.191   1.248
 5890SOL    HW227880   3.521   1.270   1.358
 5891SOL     OW27881   2.580   9.227   1.442
 5891SOL    HW127882   2.530   9.144   1.416
 5891SOL    HW227883   2.600   9.225   1.540
 5892SOL     OW27884   3.255   1.937   0.327
 5892SOL    HW127885   3.343   1.918   0.371
 5892SOL    HW227886   3.255   2.030   0.291
 5893SOL     OW27887   9.062   1.274   2.436
 5893SOL    HW127888   8.984   1.328   2.467
 5893SOL    HW227889   9.140   1.290   2.496
 5894SOL     OW27890   1.081   1.645   2.575
 5894SOL    HW127891   1.132   1.605   2.499
 5894SOL    HW227892   0.990   1.602   2.580
 5895SOL     OW27893   9.466   7.810   2.130
 5895SOL    HW127894   9.452   7.909   2.126
 5895SOL    HW227895   9.564   7.791   2.133
 5896SOL     OW27896   2.722   4.437   2.142
 5896SOL    HW127897   2.795   4.476   2.086
 5896SOL    HW227898   2.740   4.340   2.156
 5897SOL     OW27899   9.144   6.684   1.723
 5897SOL    HW127900   9.219   6.741   1.758
 5897SOL    HW227901   9.169   6.588   1.734
 5898SOL     OW27902   1.658   7.644   2.539
 5898SOL    HW127903   1.705   7.556   2.533
 5898SOL    HW227904   1.559   7.629   2.535
  10.00000  10.00000   3.43667
