chitosan Film  in water:acetic acid 2%
18931
    1CHTO  H203    1   5.531   6.533   2.044  0.2833 -0.3549 -0.8049
    1CHTO   O82    2   5.508   6.454   2.089 -0.0718  0.0805 -0.2179
    1CHTO  C123    3   5.611   6.424   2.184 -0.2355  0.0691  0.1678
    1CHTO  H227    4   5.611   6.510   2.253  0.7845  0.9288 -0.8722
    1CHTO   O77    5   5.574   6.296   2.248  0.7746  0.2346 -0.3038
    1CHTO  C118    6   5.671   6.253   2.345  0.8772  0.4622  0.4997
    1CHTO  H222    7   5.686   6.330   2.422 -1.8230 -0.8847  2.4984
    1CHTO  C125    8   5.622   6.124   2.419  0.6427 -0.2867 -0.0792
    1CHTO   O84    9   5.570   6.024   2.328 -0.0444  0.5361 -0.1343
    1CHTO  H205   10   5.480   6.037   2.304  0.1655 -1.0434 -1.8672
    1CHTO  C114   11   5.808   6.232   2.275 -0.1920  0.4255  0.4398
    1CHTO  H218   12   5.793   6.165   2.190 -1.3624 -0.2973  1.1965
    1CHTO  C116   13   5.857   6.365   2.209  0.2577 -0.1251 -0.2310
    1CHTO  H220   14   5.859   6.445   2.286 -1.4852 -0.3918  0.1151
    1CHTO   O79   15   5.985   6.344   2.149 -0.1180  0.4969 -0.1363
    1CHTO  H201   16   6.016   6.430   2.128 -0.3580  0.2900 -1.4012
    1CHTO  C120   17   5.747   6.414   2.107  0.0393  0.2755 -0.0408
    1CHTO  H224   18   5.739   6.340   2.024  0.9895  0.8134 -0.6139
    1CHTO   N21   19   5.784   6.539   2.034 -0.5528 -0.6497 -0.3123
    1CHTO  H211   20   5.737   6.626   2.076  0.5279 -0.4606  0.5607
    1CHTO  H212   21   5.766   6.531   1.928 -0.0330 -0.3631 -0.4219
    1CHTO   O75   22   5.890   6.172   2.376 -0.4915  0.0795  0.6399
    1CHTO  C112   23   5.977   6.042   2.341  0.0946  1.2918 -0.2930
    1CHTO  H216   24   5.978   6.028   2.232 -0.4035  0.2137 -0.1665
    1CHTO   O73   25   5.918   5.930   2.407 -0.0954  0.0269  0.0608
    1CHTO  C113   26   5.971   5.806   2.361 -0.3252 -0.2059  0.3145
    1CHTO  H217   27   5.976   5.788   2.252  0.2355  2.8230 -0.2124
    1CHTO  C124   28   5.881   5.693   2.408  0.2222  0.2437  0.4483
    1CHTO   O83   29   5.751   5.705   2.357  0.1843 -0.2438 -0.5391
    1CHTO  H204   30   5.701   5.634   2.392  0.6301  0.5164  1.7691
    1CHTO  C109   31   6.118   5.804   2.412  0.1879 -0.3622 -0.3312
    1CHTO  H213   32   6.114   5.798   2.521  0.4396  1.2959 -0.2198
    1CHTO  C110   33   6.199   5.926   2.364 -0.3964 -0.1668  0.3736
    1CHTO  H214   34   6.218   5.909   2.258 -4.9791  1.4729 -0.8198
    1CHTO   O78   35   6.318   5.925   2.441  0.2091  0.0178  0.1475
    1CHTO  H200   36   6.377   5.856   2.416  3.2075  1.8202  1.9131
    1CHTO  C111   37   6.126   6.060   2.393 -0.3050 -0.0452 -0.2666
    1CHTO  H215   38   6.118   6.077   2.501  0.3930  0.8242 -0.3490
    1CHTO   N19   39   6.197   6.175   2.332 -0.7148 -0.6881  0.5908
    1CHTO  H207   40   6.135   6.220   2.257  0.5481  1.6353  0.9027
    1CHTO  H208   41   6.292   6.151   2.286 -1.5924 -0.7196 -1.2069
    1CHTO   O74   42   6.185   5.682   2.369  0.0733 -0.9380 -0.3964
    1CHTO  C115   43   6.295   5.617   2.471  0.0785 -0.9078 -0.0840
    1CHTO  H219   44   6.302   5.676   2.562  0.8539 -1.1852  0.0388
    1CHTO   O76   45   6.252   5.466   2.516 -0.3711 -0.4582  0.2412
    1CHTO  C122   46   6.229   5.389   2.398  0.1952  0.4138 -1.1161
    1CHTO  H226   47   6.129   5.418   2.367 -1.2861  0.1611  3.1254
    1CHTO  C126   48   6.211   5.243   2.451  0.2138  0.0880 -0.0874
    1CHTO   O85   49   6.312   5.198   2.544 -0.2422 -0.4619  0.5125
    1CHTO  H206   50   6.268   5.132   2.595 -0.8096 -0.3009  0.2344
    1CHTO  C121   51   6.344   5.388   2.289 -0.1721 -0.2949  0.2669
    1CHTO  H225   52   6.373   5.283   2.268 -1.3009 -0.7900  1.0948
    1CHTO   O81   53   6.288   5.441   2.167  0.8265  0.4286  0.0977
    1CHTO  H202   54   6.225   5.382   2.132 -0.7698  2.4565 -0.5945
    1CHTO  C119   55   6.465   5.463   2.348 -0.0724  0.1305 -0.3779
    1CHTO  H223   56   6.502   5.401   2.430  1.0232  4.0482  2.2258
    1CHTO  C117   57   6.437   5.611   2.402 -0.0993  0.4262  0.0044
    1CHTO  H221   58   6.441   5.686   2.323  1.8057 -1.1209 -1.4140
    1CHTO   N20   59   6.550   5.656   2.492 -0.3710 -0.2157 -0.5258
    1CHTO  H209   60   6.642   5.662   2.436  0.0408  1.7678  0.3277
    1CHTO  H210   61   6.521   5.749   2.539  1.0669 -0.9874  1.9493
    1CHTO   O80   62   6.583   5.459   2.253 -0.0269 -0.2828 -0.0676
    1CHTO  C103   63   6.690   5.345   2.274 -0.0019 -0.1955 -0.3100
    1CHTO  H190   64   6.710   5.340   2.382  0.7838 -0.7989 -0.4753
    1CHTO  C101   65   6.664   5.195   2.223  0.3541 -0.0476 -0.3007
    1CHTO  H188   66   6.616   5.192   2.125 -0.7258 -1.2435  0.2425
    1CHTO   O68   67   6.567   5.136   2.315 -0.5896 -0.4260  0.5097
    1CHTO  H168   68   6.490   5.190   2.318 -0.2853  0.0836 -0.6274
    1CHTO   C99   69   6.804   5.100   2.233  0.1591  0.4513 -0.2710
    1CHTO  H186   70   6.832   5.079   2.339  0.6380 -1.3597 -0.7487
    1CHTO   N17   71   6.788   4.963   2.179 -0.6085 -0.0733  0.6596
    1CHTO  H174   72   6.854   4.945   2.096 -0.6335  0.5233  0.5099
    1CHTO  H175   73   6.687   4.953   2.145 -0.0798  0.9343 -1.2407
    1CHTO   C97   74   6.927   5.178   2.176  0.6283 -0.0164 -0.7757
    1CHTO  H184   75   6.926   5.185   2.066  2.8174  0.8175 -0.7692
    1CHTO   O64   76   6.934   5.306   2.236  0.1881  0.0686  0.0051
    1CHTO  C104   77   6.823   5.400   2.211  0.3161  0.4878  0.2588
    1CHTO  H191   78   6.811   5.405   2.103 -0.8931 -0.0529  0.3489
    1CHTO  C108   79   6.869   5.542   2.255 -0.0464  1.0210 -1.3705
    1CHTO   O71   80   6.990   5.580   2.181 -0.4226  0.7503 -0.2577
    1CHTO  H171   81   7.006   5.671   2.197 -2.2185  1.0045  0.2768
    1CHTO   O62   82   7.054   5.117   2.224 -0.1229  0.2933  0.3493
    1CHTO   C91   83   7.133   5.077   2.105 -0.2220 -0.4331 -0.3985
    1CHTO  H178   84   7.072   5.058   2.016  0.4155  1.3251 -1.2191
    1CHTO   C92   85   7.204   4.941   2.140 -0.0065 -0.5945 -0.0002
    1CHTO  H179   86   7.135   4.882   2.202 -0.3033  0.8790  1.1087
    1CHTO   O66   87   7.223   4.867   2.023 -0.2835 -0.1425 -0.3583
    1CHTO  H166   88   7.183   4.783   2.036  2.0249 -1.1053  0.7207
    1CHTO   C93   89   7.344   4.958   2.209 -0.2457  0.0008 -0.3937
    1CHTO  H180   90   7.389   4.858   2.212  1.4199  0.7293 -0.3234
    1CHTO   N16   91   7.340   5.001   2.356 -0.1811 -0.0529  0.4414
    1CHTO  H172   92   7.427   5.055   2.389 -0.5694  1.1302 -0.4542
    1CHTO  H173   93   7.251   5.060   2.373  0.1603  1.0159 -1.3638
    1CHTO   C94   94   7.437   5.051   2.112 -0.3995  0.9896 -0.3596
    1CHTO  H181   95   7.488   5.131   2.166 -1.3893  1.0516  0.4913
    1CHTO   O61   96   7.355   5.116   2.009 -0.0947  0.0945 -0.5311
    1CHTO   C95   97   7.239   5.186   2.049 -0.0153 -0.0716 -0.3565
    1CHTO  H182   98   7.266   5.246   2.136 -0.2763 -1.3432  0.6376
    1CHTO  C106   99   7.180   5.291   1.945 -0.2023  0.0349  0.3990
    1CHTO   O69  100   7.274   5.397   1.923  0.0391  0.2766  0.2466
    1CHTO  H169  101   7.360   5.360   1.916 -1.1082 -2.5365  0.1315
    1CHTO   O63  102   7.531   4.959   2.052  0.3900  0.3003 -0.3381
    1CHTO   C96  103   7.673   4.942   2.150 -0.0830  0.2112  0.7402
    1CHTO  H183  104   7.622   4.971   2.242 -2.8569  1.5884 -1.1648
    1CHTO   C98  105   7.793   5.032   2.114  0.2592  0.1625 -0.1050
    1CHTO  H185  106   7.773   5.139   2.102  0.3613  0.0641 -1.2615
    1CHTO   O67  107   7.891   5.018   2.217 -0.0918 -0.3608 -0.7128
    1CHTO  H167  108   7.878   5.067   2.296 -0.6611 -0.1018 -0.9642
    1CHTO  C102  109   7.861   4.977   1.975 -0.8472 -0.6955 -0.8041
    1CHTO  H189  110   7.967   5.009   1.973 -1.1975  0.4769 -0.9988
    1CHTO   N18  111   7.801   5.035   1.855  0.2050  0.3747  0.1456
    1CHTO  H176  112   7.821   5.140   1.870 -1.9889  0.6589  1.2205
    1CHTO  H177  113   7.693   5.027   1.858  0.1419  1.5793  1.5952
    1CHTO  C105  114   7.872   4.821   1.969  0.3202 -0.1358 -0.0856
    1CHTO  H192  115   7.809   4.782   1.889 -1.2549  2.1115  0.0166
    1CHTO   O65  116   7.839   4.757   2.091 -0.2433  0.4018 -0.1429
    1CHTO  C100  117   7.712   4.784   2.147  0.2569 -0.2318 -0.7667
    1CHTO  H187  118   7.630   4.738   2.089  1.1230 -1.2120 -1.2185
    1CHTO  C107  119   7.704   4.724   2.291  0.5498 -0.0515 -0.3875
    1CHTO   O70  120   7.585   4.656   2.324 -0.4047  0.4524 -0.2227
    1CHTO  H170  121   7.584   4.659   2.418  1.2095  1.6333 -0.2142
    1CHTO   O57  122   8.028   4.795   1.931 -0.2629  0.0458 -0.1424
    1CHTO   C85  123   8.088   4.669   1.891 -0.1578  0.2698 -0.0997
    1CHTO  H157  124   8.024   4.628   1.809  0.4187  1.4666 -1.1586
    1CHTO   C83  125   8.079   4.576   2.017  0.0659 -0.6700  0.5204
    1CHTO  H155  126   7.975   4.554   2.041 -0.0050 -0.5670  0.3073
    1CHTO   O56  127   8.127   4.649   2.130 -0.8934  0.4322  0.7987
    1CHTO  H135  128   8.218   4.629   2.141 -0.6078  0.5896 -1.0338
    1CHTO   C81  129   8.154   4.444   1.987 -0.2045  0.3827 -0.9402
    1CHTO  H153  130   8.115   4.401   1.895 -0.3397  1.4089 -1.3673
    1CHTO   N14  131   8.136   4.340   2.093  0.0688  0.5054 -0.9943
    1CHTO  H141  132   8.165   4.378   2.188  0.9462 -0.2430 -0.9443
    1CHTO  H142  133   8.200   4.257   2.072  0.4566  1.0924 -2.1691
    1CHTO   C79  134   8.310   4.475   1.961  0.1904  0.1573 -0.2873
    1CHTO  H151  135   8.362   4.382   1.939  0.5789  0.5260 -0.9848
    1CHTO   O52  136   8.317   4.563   1.846  0.1502 -0.2838 -0.0206
    1CHTO   C86  137   8.236   4.682   1.848 -0.2251 -0.0713 -0.4606
    1CHTO  H158  138   8.289   4.746   1.922 -1.3747  0.4100 -0.0532
    1CHTO   C90  139   8.239   4.746   1.704  0.0851  0.2726  0.2696
    1CHTO   O60  140   8.374   4.779   1.669  0.1182 -0.0032 -0.2948
    1CHTO  H138  141   8.367   4.856   1.615  0.0451 -0.0265 -0.3195
    1CHTO   O50  142   8.378   4.546   2.065 -0.0710 -0.0605 -0.7297
    1CHTO   C73  143   8.513   4.526   2.100  0.3071 -0.6063  0.3204
    1CHTO  H145  144   8.569   4.552   2.009 -1.7340 -0.4196 -0.9233
    1CHTO   C74  145   8.544   4.381   2.142  0.0372 -0.0793  0.6772
    1CHTO  H146  146   8.511   4.312   2.063 -0.2535  0.7765  0.0402
    1CHTO   O54  147   8.685   4.364   2.144 -0.0093 -0.0950 -0.2963
    1CHTO  H133  148   8.737   4.389   2.069 -1.7266  0.7402 -1.2381
    1CHTO   C75  149   8.480   4.345   2.281 -0.5119 -0.2572 -0.1037
    1CHTO  H147  150   8.371   4.356   2.273 -0.4417  0.3319 -0.2733
    1CHTO   N13  151   8.502   4.206   2.327 -0.4009  0.1759 -0.1959
    1CHTO  H139  152   8.445   4.171   2.412 -1.2966 -1.3824 -1.4084
    1CHTO  H140  153   8.607   4.196   2.350 -0.1306  0.4640 -1.2498
    1CHTO   C76  154   8.515   4.454   2.391 -0.6305  0.0255 -0.5612
    1CHTO  H148  155   8.619   4.442   2.421 -0.5707  0.7477 -0.4763
    1CHTO   O49  156   8.483   4.587   2.336 -0.1717 -0.0612 -0.3482
    1CHTO   C77  157   8.543   4.626   2.215 -0.2434  0.1375  0.2146
    1CHTO  H149  158   8.650   4.643   2.225  0.0938 -1.9420  0.1616
    1CHTO   C88  159   8.490   4.769   2.198 -0.3040 -0.8654 -0.1970
    1CHTO   O58  160   8.572   4.847   2.102 -0.6230 -0.2915  0.4313
    1CHTO  H136  161   8.510   4.881   2.040  0.0809 -0.3462 -0.2927
    1CHTO   O51  162   8.407   4.436   2.521  0.6800 -0.7612  0.0284
    1CHTO   C78  163   8.342   4.581   2.581  0.0139  0.1314 -0.1861
    1CHTO  H150  164   8.357   4.665   2.510  1.6135 -0.7623 -0.9311
    1CHTO   C80  165   8.406   4.619   2.715 -0.0701 -0.4590 -0.5178
    1CHTO  H152  166   8.386   4.537   2.787 -0.1113  0.0134  0.0181
    1CHTO   O55  167   8.549   4.633   2.691  0.3972 -0.2456 -0.7433
    1CHTO  H134  168   8.592   4.555   2.662  2.8777 -0.7576  3.7475
    1CHTO   C84  169   8.340   4.749   2.769 -0.5963 -0.4951  0.5709
    1CHTO  H156  170   8.360   4.836   2.706  0.9105 -0.9696  0.3724
    1CHTO   N15  171   8.406   4.800   2.899  0.3983 -0.7333  0.1009
    1CHTO  H143  172   8.384   4.899   2.933  0.3334 -0.4140 -0.8502
    1CHTO  H144  173   8.394   4.729   2.978  2.4677 -2.0121 -0.7082
    1CHTO   C87  174   8.192   4.734   2.796  0.4309  0.2800  0.3237
    1CHTO  H159  175   8.183   4.671   2.884 -0.9909 -1.9618 -1.3789
    1CHTO   O53  176   8.115   4.668   2.655  0.1881  0.0015  0.0234
    1CHTO   C82  177   8.193   4.557   2.598  0.1645  0.0291 -0.1144
    1CHTO  H154  178   8.187   4.475   2.669  2.0529  0.3120  0.3992
    1CHTO   C89  179   8.129   4.502   2.465 -0.0624 -0.0569 -0.0339
    1CHTO   O59  180   8.028   4.399   2.498 -0.1909 -0.7291  0.4152
    1CHTO  H137  181   8.015   4.339   2.427  0.0090 -3.3984  2.5532
    1CHTO   O45  182   8.117   4.873   2.832 -0.2070  0.4625  0.2191
    1CHTO   C67  183   8.092   4.956   2.719  0.3985  0.0161 -0.2379
    1CHTO  H124  184   8.181   4.951   2.656  1.1645  0.5941  0.7803
    1CHTO   C65  185   7.960   4.915   2.643 -0.1102  0.0267  0.0838
    1CHTO  H122  186   7.937   4.820   2.691 -0.4376  0.4595  0.7978
    1CHTO   O44  187   7.998   4.898   2.507  0.7957  0.0208  0.4259
    1CHTO  H102  188   7.921   4.878   2.458  1.1588  0.6972 -0.4436
    1CHTO   C63  189   7.831   5.005   2.670 -0.7812 -0.4494 -0.0976
    1CHTO  H120  190   7.807   5.013   2.776 -1.2100  0.1038 -0.2387
    1CHTO   N11  191   7.701   4.953   2.611 -0.7090  0.0585 -0.3857
    1CHTO  H108  192   7.684   4.855   2.651  0.3751 -0.4473 -1.1502
    1CHTO  H109  193   7.628   5.025   2.640  0.2980  1.3390 -0.9820
    1CHTO   C61  194   7.868   5.154   2.623  0.5616  0.2279 -0.0690
    1CHTO  H118  195   7.798   5.224   2.672 -2.1257 -1.5565 -1.2837
    1CHTO   O40  196   8.003   5.190   2.662  0.4232  0.2595 -0.8052
    1CHTO   C68  197   8.075   5.112   2.758  0.5950  0.1889 -0.0947
    1CHTO  H125  198   8.018   5.119   2.853  0.0349  0.0550 -0.4192
    1CHTO   C72  199   8.214   5.176   2.780 -0.5162 -0.6101  0.1683
    1CHTO   O48  200   8.221   5.285   2.870  0.3789 -0.4889 -0.2215
    1CHTO  H105  201   8.197   5.259   2.957  0.6578  2.8485  0.8872
    1CHTO   O38  202   7.871   5.188   2.485  0.3667  0.4384  0.0959
    1CHTO   C55  203   7.834   5.324   2.446 -0.4491 -1.0425  0.8594
    1CHTO  H112  204   7.840   5.394   2.531 -0.2020  0.6838 -0.5380
    1CHTO   C56  205   7.682   5.313   2.388 -0.0896  0.5529 -0.6686
    1CHTO  H113  206   7.672   5.214   2.341  0.1482  0.7234 -1.0860
    1CHTO   O42  207   7.592   5.315   2.498 -0.2611 -0.2277 -0.0845
    1CHTO  H100  208   7.521   5.263   2.466 -1.1011  1.2619 -0.7543
    1CHTO   C57  209   7.648   5.437   2.290 -0.3358 -0.3454  0.9032
    1CHTO  H114  210   7.552   5.478   2.322 -1.1430 -0.7934 -0.8918
    1CHTO   N10  211   7.641   5.392   2.147  0.6487  0.0970 -0.1551
    1CHTO  H106  212   7.542   5.358   2.122  0.8521 -1.7206  1.4569
    1CHTO  H107  213   7.668   5.470   2.077  1.9982  0.6922  0.9983
    1CHTO   C58  214   7.754   5.554   2.309  0.2126 -0.0375 -0.4666
    1CHTO  H115  215   7.724   5.642   2.248  1.9743  0.5042 -0.5849
    1CHTO   O37  216   7.893   5.514   2.282  0.5404 -0.3602 -0.2364
    1CHTO   C59  217   7.928   5.386   2.335  0.0715  0.9673 -0.0161
    1CHTO  H116  218   7.942   5.313   2.255  2.0877  0.4301  0.7936
    1CHTO   C70  219   8.073   5.388   2.392  0.0251  0.7002  0.3784
    1CHTO   O46  220   8.078   5.479   2.504  0.0427 -0.0400  0.4202
    1CHTO  H103  221   8.159   5.525   2.502 -0.5322  1.0551  1.4594
    1CHTO   O39  222   7.748   5.604   2.462 -0.2495 -0.1609 -0.3806
    1CHTO   C60  223   7.722   5.748   2.466 -0.3906 -0.2650  0.8555
    1CHTO  H117  224   7.773   5.798   2.383 -0.2836 -0.4868  0.7863
    1CHTO   C62  225   7.569   5.783   2.455 -0.3232  0.4370  0.1125
    1CHTO  H119  226   7.532   5.757   2.354 -0.8647  0.5334  0.2864
    1CHTO   O43  227   7.493   5.711   2.552 -0.1968 -0.0283 -0.5143
    1CHTO  H101  228   7.403   5.738   2.544 -0.9920 -2.1241  0.8877
    1CHTO   C66  229   7.561   5.943   2.475  0.1493 -0.3435  0.4181
    1CHTO  H123  230   7.629   5.993   2.405 -0.0691  0.5159  0.8133
    1CHTO   N12  231   7.426   5.992   2.440  0.3002 -0.6781  0.1328
    1CHTO  H110  232   7.402   6.081   2.495  0.9270 -0.4550  0.0403
    1CHTO  H111  233   7.408   6.002   2.334 -0.1475  0.2646  0.2981
    1CHTO   C69  234   7.622   5.988   2.614 -0.9271  0.0428  0.2398
    1CHTO  H126  235   7.569   5.943   2.700 -2.6555  0.3700 -0.6335
    1CHTO   O41  236   7.762   5.951   2.613  0.4739  0.0792  0.1631
    1CHTO   C64  237   7.780   5.803   2.601 -0.4048  0.0148 -0.3729
    1CHTO  H121  238   7.733   5.759   2.692 -1.1263 -0.3871 -0.9442
    1CHTO   C71  239   7.926   5.761   2.609 -0.2938  0.1164 -0.3131
    1CHTO   O47  240   7.999   5.794   2.729  0.0205  0.5434 -0.4583
    1CHTO  H104  241   7.957   5.759   2.805  3.0154  0.9456  1.4571
    1CHTO   O34  242   7.614   6.132   2.625  0.4754  0.1701 -0.1108
    1CHTO   C49  243   7.627   6.264   2.711  0.1993 -0.1052 -0.3361
    1CHTO   H91  244   7.698   6.236   2.790 -1.6003 -0.6564  1.1422
    1CHTO   C47  245   7.491   6.295   2.777  0.3532  0.3740 -0.3997
    1CHTO   H89  246   7.515   6.360   2.864 -0.0236  0.5071 -0.3990
    1CHTO   O33  247   7.440   6.171   2.824  0.5886 -0.0103 -0.0460
    1CHTO   H70  248   7.478   6.139   2.904  0.3471  1.5573  0.7226
    1CHTO   C45  249   7.392   6.355   2.668 -0.1141 -0.5594 -0.4543
    1CHTO   H87  250   7.379   6.285   2.584  0.4189  0.4665 -1.4137
    1CHTO    N8  251   7.257   6.381   2.728 -0.1830 -0.0021 -0.2079
    1CHTO   H75  252   7.178   6.369   2.655 -0.9654  0.5515  0.5358
    1CHTO   H76  253   7.243   6.324   2.818 -0.0309  0.6095  0.2102
    1CHTO   C43  254   7.451   6.487   2.601  0.7971 -0.4243 -1.4929
    1CHTO   H85  255   7.381   6.526   2.527 -7.0235 -0.1542  5.3942
    1CHTO   O29  256   7.587   6.468   2.553 -0.5061 -0.5025 -0.2300
    1CHTO   C50  257   7.678   6.380   2.621 -0.1079  0.5443 -0.3630
    1CHTO   H92  258   7.741   6.340   2.540 -1.6395  0.8417 -1.7102
    1CHTO   C54  259   7.779   6.462   2.706  0.1984 -0.5122  0.5371
    1CHTO   O36  260   7.893   6.398   2.751 -0.0697  0.0267  0.3014
    1CHTO   H72  261   7.946   6.387   2.675 -2.8233  1.6082 -1.9839
    1CHTO   O27  262   7.454   6.597   2.689 -0.2986  0.4919  0.3102
    1CHTO   C37  263   7.424   6.728   2.667 -0.0846 -0.7260  0.2065
    1CHTO   H79  264   7.464   6.754   2.568  3.6318 -2.0352  1.2909
    1CHTO   C38  265   7.275   6.756   2.670  0.5352  1.0245  0.0653
    1CHTO   H80  266   7.237   6.728   2.769 -1.1845  0.9861 -0.5980
    1CHTO   O31  267   7.214   6.672   2.575 -0.3350 -0.0002 -0.4156
    1CHTO   H68  268   7.256   6.669   2.492 -0.1319  0.5868 -0.3371
    1CHTO   C39  269   7.257   6.913   2.636  0.3719  0.1976 -0.0640
    1CHTO   H81  270   7.287   6.933   2.533  0.9861 -1.6707 -0.2689
    1CHTO    N7  271   7.114   6.950   2.639  0.2618  0.3644 -0.1372
    1CHTO   H73  272   7.078   6.983   2.543 -1.5572  1.8135  0.9881
    1CHTO   H74  273   7.053   6.873   2.684  1.2048  0.2333  0.9333
    1CHTO   C40  274   7.340   7.001   2.731 -0.6415 -0.0790 -0.3164
    1CHTO   H82  275   7.297   6.994   2.831  3.4704 -1.1744  1.4890
    1CHTO   O26  276   7.476   6.960   2.732  0.4781 -0.2781  0.5881
    1CHTO   C41  277   7.491   6.817   2.771 -0.1019  0.1256 -0.1882
    1CHTO   H83  278   7.445   6.803   2.870 -0.8541  3.0797 -0.0699
    1CHTO   C52  279   7.635   6.776   2.790  0.0539 -0.1139 -0.6028
    1CHTO   O35  280   7.696   6.829   2.893 -0.0853 -0.3620  0.2070
    1CHTO   H71  281   7.668   6.791   2.975  0.4145 -1.4550 -0.1143
    1CHTO   O28  282   7.360   7.137   2.690 -0.6195  0.0142 -0.3424
    1CHTO   C42  283   7.368   7.183   2.551  0.4926 -0.1514  0.0886
    1CHTO   H84  284   7.302   7.120   2.491  0.3091 -0.1362  0.2748
    1CHTO   C44  285   7.511   7.177   2.484 -0.4060 -0.4458  0.3512
    1CHTO   H86  286   7.576   7.236   2.549 -1.8312  0.5636  0.9069
    1CHTO   O32  287   7.546   7.038   2.485  0.3680  0.3411  0.5661
    1CHTO   H69  288   7.500   6.991   2.418 -1.1476  0.5790  1.4203
    1CHTO   C48  289   7.511   7.231   2.338 -0.1157 -0.2033 -0.2260
    1CHTO   H90  290   7.464   7.154   2.277  0.2713 -1.3695  0.9292
    1CHTO    N9  291   7.643   7.242   2.274  0.1512  0.1277  0.1973
    1CHTO   H77  292   7.634   7.264   2.169 -0.8514 -0.1749  0.2110
    1CHTO   H78  293   7.685   7.143   2.286 -0.8833 -0.6356 -2.1787
    1CHTO   C51  294   7.433   7.375   2.325 -0.1967  0.3986 -0.5717
    1CHTO   H93  295   7.504   7.447   2.366 -0.0082  1.1849 -2.2378
    1CHTO   O30  296   7.304   7.365   2.381  0.3733  0.3831  0.1489
    1CHTO   C46  297   7.311   7.325   2.535  0.1752 -0.9722 -0.3852
    1CHTO   H88  298   7.373   7.396   2.590 -1.1782  0.2587 -0.4268
    1CHTO   C53  299   7.156   7.340   2.573  0.0238  0.4605 -0.0038
    1CHTO   O72  300   7.073   7.251   2.503 -0.1643 -0.0924 -0.1895
    1CHTO  H199  301   7.069   7.171   2.552  2.0117 -1.6569 -2.4601
    1CHTO   O22  302   7.413   7.407   2.183 -0.5554 -0.3260  0.6266
    1CHTO   C31  303   7.320   7.509   2.129 -0.4088 -0.3342 -1.0992
    1CHTO   H59  304   7.278   7.556   2.220 -0.2142  0.2980 -1.3313
    1CHTO   C29  305   7.389   7.619   2.042  0.5279  0.3005  0.5871
    1CHTO   H57  306   7.451   7.561   1.971 -1.8724  0.5934 -1.8473
    1CHTO   O21  307   7.485   7.685   2.124 -0.1206  0.5228  0.2271
    1CHTO   H37  308   7.554   7.718   2.070  1.2493 -0.2574  1.4704
    1CHTO   C27  309   7.283   7.714   1.963 -0.0931  0.3211 -0.2387
    1CHTO   H55  310   7.222   7.764   2.040 -0.1879  1.2535 -0.9122
    1CHTO    N5  311   7.355   7.817   1.888  0.2647 -0.2072  0.2753
    1CHTO   H43  312   7.457   7.790   1.864  1.1479  3.9290 -0.9678
    1CHTO   H44  313   7.303   7.831   1.795 -2.1010  0.5079  1.6578
    1CHTO   C25  314   7.186   7.627   1.879  0.2993  0.2427 -0.0936
    1CHTO   H53  315   7.233   7.565   1.801 -0.1422  0.1574 -0.2933
    1CHTO   O17  316   7.121   7.548   1.978  0.8806 -0.0957 -0.2684
    1CHTO   C32  317   7.206   7.449   2.048  0.0643  0.1000 -0.5293
    1CHTO   H60  318   7.249   7.382   1.974  0.1242 -0.7746  0.2985
    1CHTO   C36  319   7.108   7.368   2.138 -0.5183 -0.0571 -0.6724
    1CHTO   O25  320   7.040   7.449   2.233 -0.0198  0.0320 -0.1635
    1CHTO   H40  321   6.966   7.490   2.193 -1.0095 -1.0948  0.4537
    1CHTO   O15  322   7.077   7.718   1.816  0.5260  0.0581  0.1600
    1CHTO   C19  323   6.993   7.695   1.697 -0.6112  0.3778 -0.2103
    1CHTO   H47  324   6.915   7.771   1.710 -1.6013 -0.4319 -1.2938
    1CHTO   C20  325   7.072   7.716   1.566 -0.9563  0.3415  0.3933
    1CHTO   H48  326   7.166   7.658   1.567 -1.2056 -0.0403  2.1739
    1CHTO   O19  327   7.098   7.855   1.551 -0.1802 -0.5242 -0.1197
    1CHTO   H35  328   7.180   7.882   1.589 -0.3091 -0.7525  0.3150
    1CHTO   C21  329   6.986   7.663   1.438 -0.0399 -0.2210  0.4614
    1CHTO   H49  330   6.894   7.720   1.427 -0.3182 -0.7207  0.1720
    1CHTO    N4  331   7.069   7.675   1.315  0.2402  0.1805 -0.1254
    1CHTO   H41  332   7.166   7.633   1.334  0.6503  0.7158 -1.0007
    1CHTO   H42  333   7.079   7.779   1.289 -1.4716  0.1782 -0.9176
    1CHTO   C22  334   6.933   7.520   1.468 -0.1874  0.1399  0.7448
    1CHTO   H50  335   7.025   7.464   1.480  0.2679  0.7325  0.1100
    1CHTO   O14  336   6.849   7.523   1.581  0.0461 -0.4861 -0.5035
    1CHTO   C23  337   6.926   7.552   1.698  0.7616 -0.1713 -0.2715
    1CHTO   H51  338   6.999   7.472   1.713  0.7157 -0.5310 -1.8504
    1CHTO   C34  339   6.828   7.517   1.813 -0.0513 -0.2838 -0.2750
    1CHTO   O23  340   6.706   7.587   1.807  0.1169 -0.1940 -0.4929
    1CHTO   H38  341   6.640   7.561   1.868  1.2271 -0.7834  0.4933
    1CHTO   O16  342   6.842   7.462   1.371  0.1696 -0.1119  0.0911
    1CHTO   C24  343   6.907   7.331   1.297  0.0960 -0.2942 -0.2086
    1CHTO   H52  344   7.013   7.323   1.318  0.3717  0.5548 -1.2371
    1CHTO   C26  345   6.886   7.328   1.143 -0.2517  0.2145  0.5194
    1CHTO   H54  346   6.777   7.326   1.123  0.2114 -1.1255 -1.9960
    1CHTO   O20  347   6.947   7.448   1.088  0.0520 -0.4147  0.1092
    1CHTO   H36  348   6.887   7.520   1.093  0.7468  0.2533 -0.9646
    1CHTO   C30  349   6.939   7.196   1.088 -0.3166  0.1644  0.2062
    1CHTO   H58  350   7.049   7.192   1.089 -0.3332 -0.6390 -0.9693
    1CHTO    N6  351   6.915   7.190   0.941  0.3470  0.5599 -0.3239
    1CHTO   H45  352   6.961   7.100   0.903 -0.3047 -0.5411  1.4111
    1CHTO   H46  353   6.942   7.276   0.882  0.4748  1.0182  0.3977
    1CHTO   C33  354   6.877   7.075   1.160  0.2495  0.1401  0.5404
    1CHTO   H61  355   6.769   7.072   1.139  0.1011  0.8406  1.1810
    1CHTO   O18  356   6.907   7.092   1.299 -0.1932  0.0595 -0.5336
    1CHTO   C28  357   6.836   7.205   1.355 -0.1351 -0.0456  0.3448
    1CHTO   H56  358   6.732   7.203   1.324 -0.8439  1.8242  2.4187
    1CHTO   C35  359   6.857   7.201   1.506  0.4212  0.1658  0.1670
    1CHTO   O24  360   6.802   7.076   1.556 -0.0896 -0.2226  0.1585
    1CHTO   H39  361   6.773   7.090   1.645 -1.5599  0.4225 -0.4068
    1CHTO    O9  362   6.931   6.953   1.114 -0.3121  0.4104  0.3405
    1CHTO   C13  363   6.855   6.813   1.162  0.3364 -0.3618  0.3495
    1CHTO   H26  364   6.764   6.839   1.220 -0.7385  0.8556 -1.7842
    1CHTO   C11  365   6.957   6.732   1.246 -0.1667 -0.1033 -0.1548
    1CHTO   H24  366   6.976   6.789   1.339 -2.3144  0.2290  0.1152
    1CHTO    O8  367   7.078   6.717   1.173 -0.5023 -0.1491 -0.1459
    1CHTO    H3  368   7.144   6.684   1.232 -0.6045  1.5476  0.9814
    1CHTO    C9  369   6.892   6.600   1.291  0.0566 -0.2450 -0.7963
    1CHTO   H22  370   6.804   6.636   1.346  0.0848  1.3295 -1.7391
    1CHTO    N2  371   6.972   6.532   1.391 -0.3102  0.3561  0.0528
    1CHTO   H10  372   6.945   6.428   1.406  1.8276 -0.4558 -1.5863
    1CHTO   H11  373   7.077   6.535   1.371 -0.7684  1.2309 -2.2760
    1CHTO    C7  374   6.839   6.513   1.168  0.3037 -0.3345  0.3185
    1CHTO   H20  375   6.731   6.508   1.191  0.1956  1.0777  0.1154
    1CHTO    O4  376   6.855   6.589   1.045  0.0813 -0.1567  0.0494
    1CHTO   C14  377   6.802   6.719   1.048  0.4671  0.0202 -0.0723
    1CHTO   H27  378   6.692   6.709   1.057  0.1203  2.1761 -1.6243
    1CHTO   C18  379   6.834   6.777   0.908 -0.2068  0.0162 -0.2310
    1CHTO   O13  380   6.761   6.898   0.882 -0.2244 -0.4627 -0.1190
    1CHTO    H7  381   6.711   6.928   0.956  0.0988  1.0568 -0.4926
    1CHTO    O2  382   6.882   6.352   1.147  0.3602 -0.0998  0.2502
    1CHTO    C1  383   6.981   6.318   1.049 -0.4368 -0.4374  0.0449
    1CHTO   H14  384   7.034   6.413   1.028  0.1199 -0.8920 -0.6171
    1CHTO    C2  385   6.916   6.255   0.917 -0.7150  0.0169  0.6034
    1CHTO   H15  386   6.865   6.164   0.952 -2.2751 -0.5027 -2.7837
    1CHTO    O6  387   6.822   6.347   0.864  0.6802 -0.5863  0.3395
    1CHTO    H1  388   6.871   6.427   0.853  2.0950 -1.1469  2.2715
    1CHTO    C3  389   7.030   6.219   0.810 -0.5303 -0.2245 -0.2837
    1CHTO   H16  390   7.084   6.313   0.788 -1.6907  0.5240  0.0223
    1CHTO    N1  391   6.972   6.159   0.683  0.0724 -0.2370 -0.3795
    1CHTO    H8  392   7.005   6.218   0.599  1.9226 -0.5897  0.0667
    1CHTO    H9  393   6.997   6.054   0.675 -2.8660 -1.0019  0.0359
    1CHTO    C4  394   7.131   6.120   0.882 -0.1231 -0.6467  0.4155
    1CHTO   H17  395   7.071   6.038   0.922 -0.8509 -0.6936 -0.7447
    1CHTO    O1  396   7.182   6.196   0.994  0.3116  0.1215 -0.1122
    1CHTO    C5  397   7.084   6.215   1.093  0.1900  0.2733  0.2507
    1CHTO   H18  398   7.031   6.123   1.116 -0.3279  0.6338  0.5154
    1CHTO   C16  399   7.155   6.255   1.214 -0.4929  0.5626 -0.2252
    1CHTO   O11  400   7.200   6.143   1.293 -0.0888  1.0015  0.1227
    1CHTO    H5  401   7.283   6.111   1.264 -0.2250 -0.2931  1.1323
    1CHTO    O3  402   7.250   6.081   0.808  0.0056  0.0740  0.0037
    1CHTO    C6  403   7.301   5.948   0.834  0.0562  0.3866  0.0392
    1CHTO   H19  404   7.246   5.889   0.907 -1.3610  0.8115 -0.6726
    1CHTO    C8  405   7.290   5.867   0.699  0.5290 -0.5361 -0.0784
    1CHTO   H21  406   7.314   5.933   0.616  0.8990 -1.0479 -0.3794
    1CHTO    O7  407   7.152   5.827   0.679 -0.1281  0.3695  0.0833
    1CHTO    H2  408   7.135   5.769   0.607 -0.9466  1.1861 -0.3855
    1CHTO   C12  409   7.381   5.740   0.704 -0.3212  0.6929 -0.5608
    1CHTO   H25  410   7.340   5.668   0.778  1.0924 -0.0137 -0.4538
    1CHTO    N3  411   7.388   5.661   0.572 -0.1409 -0.5045  0.3209
    1CHTO   H12  412   7.293   5.623   0.539  0.8321 -2.6694 -0.0705
    1CHTO   H13  413   7.458   5.579   0.575  1.5686  0.8085 -2.4461
    1CHTO   C15  414   7.525   5.779   0.751  1.0241  0.1886  0.0185
    1CHTO   H28  415   7.564   5.856   0.686 -0.7035  1.8762  0.9216
    1CHTO   O10  416   7.631   5.661   0.785  0.2331  0.2196  0.5867
    1CHTO    H4  417   7.719   5.692   0.787 -0.0485  1.0189  0.6570
    1CHTO    O5  418   7.516   5.844   0.878  0.3286 -0.0666  0.0968
    1CHTO   C10  419   7.443   5.968   0.891  0.2293  0.3693  0.3928
    1CHTO   H23  420   7.494   6.047   0.835  0.3204 -0.5807 -0.8979
    1CHTO   C17  421   7.455   6.016   1.034  0.3951  0.2541 -0.2400
    1CHTO   O12  422   7.599   6.034   1.064 -0.2691 -0.4844  0.1019
    1CHTO    H6  423   7.625   6.116   1.026 -0.9288 -0.6510 -0.7300
    2CHTO  H203  424   6.678   4.337   2.618  1.4810  0.6902  0.3909
    2CHTO   O82  425   6.633   4.419   2.613 -0.2212 -0.2395  0.1150
    2CHTO  C123  426   6.488   4.419   2.617 -0.4972  0.3671 -0.3106
    2CHTO  H227  427   6.450   4.519   2.590 -0.5944  0.6272  0.7824
    2CHTO   O77  428   6.444   4.313   2.526 -0.4359 -0.1214  0.0791
    2CHTO  C118  429   6.303   4.330   2.495  0.3556  0.3154 -0.2072
    2CHTO  H222  430   6.275   4.428   2.454  1.8183  0.9508  0.2868
    2CHTO  C125  431   6.277   4.222   2.389  0.3174  0.7269 -0.1987
    2CHTO   O84  432   6.310   4.088   2.433  0.0368  0.6243  0.5357
    2CHTO  H205  433   6.388   4.088   2.485  1.0866 -1.5608 -1.0006
    2CHTO  C114  434   6.216   4.308   2.620 -0.2728 -0.6995  0.0057
    2CHTO  H218  435   6.212   4.204   2.654 -0.0705 -0.9724 -0.7928
    2CHTO  C116  436   6.268   4.398   2.736  0.4510 -0.1013  0.0110
    2CHTO  H220  437   6.242   4.505   2.719  0.1052 -0.4253 -1.5197
    2CHTO   O79  438   6.190   4.361   2.850  0.6208 -0.0133 -0.4447
    2CHTO  H201  439   6.167   4.434   2.905  3.3370 -0.8749  1.9266
    2CHTO  C120  440   6.423   4.378   2.755  0.0780  0.5862  0.6032
    2CHTO  H224  441   6.437   4.271   2.780 -1.1527  0.0508 -0.9114
    2CHTO   N21  442   6.463   4.460   2.868  0.1368 -0.1495 -0.0794
    2CHTO  H211  443   6.500   4.558   2.840  0.3017 -0.9012 -2.6096
    2CHTO  H212  444   6.534   4.413   2.934  0.1023 -0.8062 -0.5104
    2CHTO   O75  445   6.084   4.335   2.572 -0.1593 -0.0128  0.1785
    2CHTO  C112  446   5.979   4.234   2.590 -0.1206 -0.0113 -0.1613
    2CHTO  H216  447   5.997   4.181   2.684  0.6575  0.4822 -0.0202
    2CHTO   O73  448   5.992   4.148   2.478  0.3686  0.5427  0.3210
    2CHTO  C113  449   5.889   4.047   2.462  0.0670 -0.1245  0.3518
    2CHTO  H217  450   5.881   3.981   2.550 -0.2690  1.0195  1.1983
    2CHTO  C124  451   5.922   3.964   2.332 -0.0962  0.3516 -0.2617
    2CHTO   O83  452   6.029   3.881   2.370  0.0847  0.0326  0.0831
    2CHTO  H204  453   6.003   3.810   2.425 -1.0950  0.1816 -0.2833
    2CHTO  C109  454   5.747   4.108   2.450 -0.3157 -0.2666  0.0687
    2CHTO  H213  455   5.744   4.164   2.355  1.2764 -0.3924 -0.0657
    2CHTO  C110  456   5.727   4.198   2.575  0.3149  0.5833  0.1157
    2CHTO  H214  457   5.707   4.133   2.660 -0.2589  0.3264 -0.2146
    2CHTO   O78  458   5.605   4.268   2.563  0.6388 -0.4607  0.6471
    2CHTO  H200  459   5.601   4.321   2.486 -2.7049  1.4572  2.0468
    2CHTO  C111  460   5.840   4.301   2.598 -0.2808 -0.5488 -0.4770
    2CHTO  H215  461   5.844   4.370   2.513 -0.5022  0.8695  0.6318
    2CHTO   N19  462   5.829   4.390   2.716 -0.0526  0.3794  0.2380
    2CHTO  H207  463   5.838   4.325   2.802 -1.3807  0.9123  0.7974
    2CHTO  H208  464   5.920   4.448   2.720 -1.2235  2.3551 -1.1807
    2CHTO   O74  465   5.634   4.013   2.443 -0.2930  0.4627  0.0181
    2CHTO  C115  466   5.523   4.061   2.331 -0.6938 -0.7848  0.6407
    2CHTO  H219  467   5.520   4.169   2.322 -3.6621 -0.8364  0.6709
    2CHTO   O76  468   5.568   4.007   2.183 -0.2634  0.0425  0.1328
    2CHTO  C122  469   5.488   4.051   2.069 -0.3072 -0.3594  0.0699
    2CHTO  H226  470   5.520   3.994   1.982 -0.4933 -1.0526  0.4568
    2CHTO  C126  471   5.522   4.194   2.030  0.0196  0.6319 -0.1102
    2CHTO   O85  472   5.662   4.206   1.994  0.0131  0.1812 -0.2354
    2CHTO  H206  473   5.719   4.164   2.056 -0.9661  1.2877  1.4765
    2CHTO  C121  474   5.333   4.044   2.093  0.1975  0.2754  0.3125
    2CHTO  H225  475   5.286   4.119   2.026  0.6053 -0.4710 -0.8090
    2CHTO   O81  476   5.290   3.916   2.044 -0.3215 -0.3940  0.1341
    2CHTO  H202  477   5.228   3.884   2.107 -0.3674 -0.9398 -0.1950
    2CHTO  C119  478   5.286   4.074   2.243  0.6192  0.1365  0.2913
    2CHTO  H223  479   5.304   4.181   2.241 -0.1480  0.2746  0.4933
    2CHTO  C117  480   5.375   4.011   2.360 -0.3509 -0.1300  0.3960
    2CHTO  H221  481   5.392   3.903   2.358 -0.8346 -0.1976 -0.5503
    2CHTO   N20  482   5.321   4.040   2.497  0.6019  0.1201  0.6158
    2CHTO  H209  483   5.405   4.035   2.564  0.2494 -2.0245  0.9531
    2CHTO  H210  484   5.256   3.957   2.523 -0.1581  0.5838  0.2203
    2CHTO   O80  485   5.142   4.062   2.259 -0.7670 -0.5222  0.3052
    2CHTO  C103  486   5.036   4.158   2.181 -0.2920  0.1652  0.0639
    2CHTO  H190  487   5.098   4.230   2.128  0.5895  1.3465  2.6559
    2CHTO  C101  488   4.942   4.094   2.070 -0.8915  0.1174  0.2104
    2CHTO  H188  489   4.904   4.000   2.111  1.3293 -0.9348 -0.0433
    2CHTO   O68  490   5.050   4.046   1.932 -0.6936  0.8070  0.3772
    2CHTO  H168  491   5.080   3.960   1.954  1.1943  2.0161  2.7010
    2CHTO   C99  492   4.836   4.199   2.020  0.3407 -0.1473  0.6835
    2CHTO  H186  493   4.889   4.277   1.963  0.0216  0.0793  0.6937
    2CHTO   N17  494   4.724   4.135   1.939 -0.2378  0.4947 -0.4403
    2CHTO  H174  495   4.651   4.207   1.907  2.0400  1.3765 -3.9424
    2CHTO  H175  496   4.685   4.037   1.964  0.0475  0.3545 -0.5276
    2CHTO   C97  497   4.775   4.272   2.142  0.7205 -0.3361 -0.2117
    2CHTO  H184  498   4.715   4.195   2.194  1.7672 -1.8205 -1.1462
    2CHTO   O64  499   4.870   4.335   2.230 -0.3164  0.8371  0.3322
    2CHTO  C104  500   4.958   4.236   2.296  0.5796 -0.0280  0.5804
    2CHTO  H191  501   4.892   4.168   2.350 -1.0310  0.1631 -1.0810
    2CHTO  C108  502   5.044   4.311   2.405 -0.0620  0.3566 -0.2332
    2CHTO   O71  503   4.970   4.335   2.531  0.1077 -0.0913  0.5717
    2CHTO  H171  504   4.922   4.258   2.556  0.3373 -1.1174 -1.9862
    2CHTO   O62  505   4.692   4.386   2.092 -0.0219  0.4701  0.1357
    2CHTO   C91  506   4.574   4.424   2.156 -0.2814  0.4756 -0.6621
    2CHTO  H178  507   4.550   4.342   2.224  0.2003 -0.2707 -1.3845
    2CHTO   C92  508   4.464   4.421   2.047 -0.0256 -0.1665 -0.3701
    2CHTO  H179  509   4.467   4.332   1.982 -0.6494  1.5288 -2.8184
    2CHTO   O66  510   4.339   4.416   2.119 -0.4870 -0.3396 -0.1182
    2CHTO  H166  511   4.272   4.381   2.064  0.7360 -2.0030 -0.5811
    2CHTO   C93  512   4.451   4.550   1.954 -0.1534 -0.5473 -0.7275
    2CHTO  H180  513   4.345   4.547   1.923  0.4319  1.0011 -3.0222
    2CHTO   N16  514   4.536   4.539   1.832 -0.0597 -0.5824  0.0344
    2CHTO  H172  515   4.514   4.624   1.769 -1.6087 -0.5147  0.6360
    2CHTO  H173  516   4.637   4.547   1.869 -0.3432  2.9880  0.2623
    2CHTO   C94  517   4.484   4.678   2.036 -0.0731 -0.2449 -0.1108
    2CHTO  H181  518   4.582   4.718   2.012  0.2492 -0.5906  0.6480
    2CHTO   O61  519   4.486   4.663   2.180  0.0425 -0.4344  0.2057
    2CHTO   C95  520   4.587   4.564   2.221  0.3833  0.8017 -0.4053
    2CHTO  H182  521   4.686   4.605   2.200  0.9572 -0.8643 -1.0627
    2CHTO  C106  522   4.582   4.552   2.377  0.5217 -0.2384 -0.2403
    2CHTO   O69  523   4.694   4.474   2.421  0.0492 -0.1662  1.1127
    2CHTO  H169  524   4.674   4.386   2.397  0.4985  0.6373 -2.4406
    2CHTO   O63  525   4.372   4.776   1.995 -0.0716 -0.1288 -0.4791
    2CHTO   C96  526   4.369   4.928   2.066 -0.2890 -0.1289  0.1426
    2CHTO  H183  527   4.448   4.931   2.141 -0.3564  0.5682  0.1964
    2CHTO   C98  528   4.233   4.959   2.144 -0.8172  0.5423  0.2315
    2CHTO  H185  529   4.146   4.930   2.084  0.2202  0.1444 -1.0948
    2CHTO   O67  530   4.233   4.869   2.255 -0.0618  0.0673  0.0342
    2CHTO  H167  531   4.262   4.781   2.238  1.1719 -0.3266  3.7802
    2CHTO  C102  532   4.236   5.104   2.194  0.2393  0.1810 -0.0592
    2CHTO  H189  533   4.327   5.116   2.255 -0.8859  1.9036  1.3348
    2CHTO   N18  534   4.118   5.138   2.282 -0.9894  0.4315  0.3843
    2CHTO  H176  535   4.150   5.186   2.373  0.9430 -0.7638  0.3676
    2CHTO  H177  536   4.060   5.048   2.294 -0.2653 -0.1754 -0.4999
    2CHTO  C105  537   4.244   5.193   2.070 -0.3342 -0.3857 -1.1426
    2CHTO  H192  538   4.160   5.176   2.003  0.3081  0.6578 -2.2500
    2CHTO   O65  539   4.359   5.164   1.992  0.1447 -0.2466 -0.6160
    2CHTO  C100  540   4.391   5.034   1.959 -0.1255 -0.3466 -0.0152
    2CHTO  H187  541   4.326   5.002   1.876 -0.6170 -1.8642  0.9240
    2CHTO  C107  542   4.537   5.038   1.913  0.7952  0.4708  0.0480
    2CHTO   O70  543   4.551   5.118   1.793  0.2508 -0.1296 -0.4725
    2CHTO  H170  544   4.505   5.199   1.802  0.0722 -0.1711 -1.0313
    2CHTO   O57  545   4.256   5.346   2.114  0.1850  0.0015 -0.4602
    2CHTO   C85  546   4.217   5.454   2.030  0.2872 -0.0723  0.7514
    2CHTO  H157  547   4.112   5.426   2.006  0.3804  0.5641 -0.4237
    2CHTO   C83  548   4.298   5.468   1.889 -0.4278 -0.2145 -0.3369
    2CHTO  H155  549   4.292   5.372   1.838 -3.5750  0.2411 -0.9061
    2CHTO   O56  550   4.437   5.486   1.924 -0.1657  0.9911 -0.1106
    2CHTO  H135  551   4.454   5.456   2.011 -0.3366 -2.0615 -1.0530
    2CHTO   C81  552   4.235   5.574   1.795 -0.5646 -0.1598  0.4706
    2CHTO  H153  553   4.136   5.538   1.768 -0.0333 -1.2943 -0.0347
    2CHTO   N14  554   4.301   5.591   1.658  0.3634  0.8681 -0.3430
    2CHTO  H141  555   4.406   5.574   1.669  0.2473 -0.1032 -0.6560
    2CHTO  H142  556   4.262   5.516   1.592  0.3142 -0.4215  1.1262
    2CHTO   C79  557   4.226   5.710   1.869 -0.3300  0.4324 -0.0009
    2CHTO  H151  558   4.158   5.773   1.812  1.7592 -0.5017 -3.7253
    2CHTO   O52  559   4.163   5.688   1.998  0.2662 -0.3298 -0.2119
    2CHTO   C86  560   4.228   5.597   2.090 -0.6908  0.0140 -0.2790
    2CHTO  H158  561   4.331   5.631   2.116  0.0390 -1.3185 -1.3410
    2CHTO   C90  562   4.143   5.603   2.221  0.1107 -0.2212 -0.6474
    2CHTO   O60  563   4.101   5.734   2.252  0.5024  0.0394  0.0579
    2CHTO  H138  564   4.033   5.744   2.187  0.3208 -0.5770  0.1470
    2CHTO   O50  565   4.353   5.774   1.884  0.3080  0.3710 -0.3881
    2CHTO   C73  566   4.353   5.911   1.920 -0.3438 -1.0060 -0.5848
    2CHTO  H145  567   4.258   5.944   1.966 -0.7528 -0.6999 -1.6431
    2CHTO   C74  568   4.362   5.997   1.793 -0.6266  0.3179 -0.1163
    2CHTO  H146  569   4.280   5.957   1.732 -0.7874  0.0788  0.2564
    2CHTO   O54  570   4.330   6.134   1.821  0.6237  0.6689 -0.2868
    2CHTO  H133  571   4.407   6.188   1.820  2.1252 -1.4190 -0.7149
    2CHTO   C75  572   4.501   5.974   1.723  0.1544  0.0661  0.5578
    2CHTO  H147  573   4.508   5.871   1.686  1.2173  0.6457 -0.8978
    2CHTO   N13  574   4.505   6.052   1.597  0.0790  0.1987  0.1146
    2CHTO  H139  575   4.463   6.006   1.509  1.0242  2.2568 -1.4745
    2CHTO  H140  576   4.480   6.155   1.619 -2.3520 -0.4619  0.5430
    2CHTO   C76  577   4.628   5.985   1.821  0.3638  0.4081  0.1853
    2CHTO  H148  578   4.655   6.089   1.838 -0.4448  0.5128  0.8502
    2CHTO   O49  579   4.596   5.920   1.952 -0.1461 -0.1103 -1.1299
    2CHTO   C77  580   4.472   5.952   2.017 -0.1451  0.9193 -0.8544
    2CHTO  H149  581   4.470   6.057   2.048  0.1702  1.1171 -1.4867
    2CHTO   C88  582   4.465   5.862   2.141 -0.3115  0.3904  0.0330
    2CHTO   O58  583   4.391   5.923   2.234  0.1159 -0.2533 -0.4377
    2CHTO  H136  584   4.362   5.861   2.298  0.8475  0.3651  0.5173
    2CHTO   O51  585   4.755   5.902   1.753 -0.1298 -0.0186 -0.5870
    2CHTO   C78  586   4.827   5.776   1.855  0.4497 -0.5916  0.3935
    2CHTO  H150  587   4.772   5.766   1.951  1.6196  3.4963  1.5870
    2CHTO   C80  588   4.977   5.805   1.889 -0.1476 -0.0151  0.6875
    2CHTO  H152  589   5.049   5.789   1.805 -0.4399  0.4334  0.3544
    2CHTO   O55  590   4.991   5.944   1.916  0.5954 -0.6030 -0.1228
    2CHTO  H134  591   5.080   5.958   1.943  0.6232 -2.1676  0.6092
    2CHTO   C84  592   5.027   5.711   2.003  0.6302 -0.8604  0.2247
    2CHTO  H156  593   4.961   5.718   2.090 -0.0673  0.9886 -0.4338
    2CHTO   N15  594   5.166   5.742   2.064  0.1148  0.3056 -0.3362
    2CHTO  H143  595   5.240   5.665   2.056  2.5394  2.4112  0.9778
    2CHTO  H144  596   5.171   5.779   2.165 -1.8236  1.5243 -0.6536
    2CHTO   C87  597   5.009   5.567   1.944 -0.1510 -0.1790  0.0900
    2CHTO  H159  598   5.085   5.553   1.866  2.0658  0.0373  2.1536
    2CHTO   O53  599   4.858   5.547   1.886 -0.3320  0.0273  0.0971
    2CHTO   C82  600   4.820   5.645   1.785 -0.0742  0.1088 -0.0119
    2CHTO  H154  601   4.885   5.634   1.698  1.9360 -2.5945  1.7578
    2CHTO   C89  602   4.672   5.624   1.742  0.2962  0.3857 -0.4428
    2CHTO   O59  603   4.651   5.518   1.656  0.0049 -0.1409 -0.1770
    2CHTO  H137  604   4.730   5.505   1.607  0.4949 -1.6750  0.9941
    2CHTO   O45  605   5.028   5.435   2.047 -0.4703  0.2093 -0.4402
    2CHTO   C67  606   4.922   5.406   2.144 -0.1923 -0.9314 -0.1568
    2CHTO  H124  607   4.852   5.489   2.152  0.1926 -0.6521  0.3359
    2CHTO   C65  608   4.845   5.272   2.098  0.1992  0.3265  0.0582
    2CHTO  H122  609   4.888   5.244   2.002 -0.5265  0.6376 -0.3576
    2CHTO   O44  610   4.712   5.313   2.069 -0.2963 -0.5141 -0.0325
    2CHTO  H102  611   4.677   5.349   2.148  0.0834 -0.7601  0.2501
    2CHTO   C63  612   4.881   5.153   2.200  0.4944  0.0082  0.1940
    2CHTO  H120  613   4.990   5.144   2.203  0.4754 -0.3391  6.5324
    2CHTO   N11  614   4.844   5.015   2.168 -0.2990  0.1337 -0.7206
    2CHTO  H108  615   4.884   4.953   2.246 -2.2033  1.6898  1.5534
    2CHTO  H109  616   4.891   4.989   2.076 -0.5659 -0.5733 -0.6585
    2CHTO   C61  617   4.819   5.198   2.334  0.1867 -0.5380 -0.5480
    2CHTO  H118  618   4.857   5.122   2.404  0.8889  0.4796  0.2020
    2CHTO   O40  619   4.883   5.321   2.375  0.2316 -0.4928  0.7125
    2CHTO   C68  620   4.980   5.387   2.288 -0.6353  0.2400 -0.0589
    2CHTO  H125  621   5.072   5.326   2.278 -1.5506 -1.3473  1.0020
    2CHTO   C72  622   5.027   5.525   2.355 -0.4666 -0.0998  0.0570
    2CHTO   O48  623   5.144   5.513   2.427 -0.4273 -0.2338  0.0041
    2CHTO  H105  624   5.148   5.578   2.494 -1.2299 -0.0194 -0.1533
    2CHTO   O38  625   4.675   5.210   2.334 -0.4383  0.1308  0.0362
    2CHTO   C55  626   4.609   5.212   2.466  0.2240 -0.1065  0.6482
    2CHTO  H112  627   4.675   5.259   2.540 -0.3647  1.5636  0.1519
    2CHTO   C56  628   4.557   5.073   2.510 -0.2798 -0.1093 -0.6429
    2CHTO  H113  629   4.496   5.032   2.427 -1.1743  0.8533 -0.4768
    2CHTO   O42  630   4.669   4.987   2.535 -0.1883  0.1345 -0.3641
    2CHTO  H100  631   4.657   4.907   2.487  0.0220 -2.4539  3.6675
    2CHTO   C57  632   4.466   5.081   2.637  0.3367  0.1767  0.6870
    2CHTO  H114  633   4.529   5.095   2.725  0.7493  1.3246  0.2277
    2CHTO   N10  634   4.403   4.948   2.670 -1.0740 -0.3069  0.2670
    2CHTO  H106  635   4.447   4.861   2.623 -1.9524  0.1396 -1.4338
    2CHTO  H107  636   4.406   4.937   2.777  0.2593  3.2243  0.6637
    2CHTO   C58  637   4.360   5.199   2.624  0.4772 -0.2879 -0.5349
    2CHTO  H115  638   4.280   5.172   2.552 -1.6592  1.4635  1.1129
    2CHTO   O37  639   4.421   5.331   2.585 -0.4782 -0.6202 -0.2806
    2CHTO   C59  640   4.493   5.315   2.461 -0.4548 -0.9702  0.0853
    2CHTO  H116  641   4.425   5.292   2.379 -0.3145 -1.1090  0.0079
    2CHTO   C70  642   4.540   5.459   2.431  0.1225  0.5534 -0.4637
    2CHTO   O46  643   4.549   5.488   2.295  0.1827 -0.2363  0.1465
    2CHTO  H103  644   4.475   5.453   2.249  0.1783 -1.0194  0.7449
    2CHTO   O39  645   4.272   5.220   2.764  0.0377  0.0280  0.1147
    2CHTO   C60  646   4.170   5.324   2.758  0.5742  0.5016  0.2414
    2CHTO  H117  647   4.160   5.370   2.659  0.2251 -2.0160 -0.9289
    2CHTO   C62  648   4.029   5.270   2.779 -0.5208 -0.4638  0.2173
    2CHTO  H119  649   4.025   5.194   2.698 -0.1856 -1.1062  0.8004
    2CHTO   O43  650   4.026   5.212   2.909 -0.0421 -0.1022 -0.1150
    2CHTO  H101  651   4.043   5.283   2.967 -2.6603 -0.2004  0.8234
    2CHTO   C66  652   3.919   5.392   2.772 -0.4408 -0.1691  0.3941
    2CHTO  H123  653   3.923   5.439   2.673 -0.5243 -3.3106 -1.1692
    2CHTO   N12  654   3.780   5.343   2.776  0.5122  0.4531  0.7237
    2CHTO  H110  655   3.711   5.427   2.776 -0.2480 -0.1584 -0.6167
    2CHTO  H111  656   3.769   5.284   2.686  0.2357  1.3345  0.1581
    2CHTO   C69  657   3.951   5.501   2.880  0.6493  0.5945 -0.6727
    2CHTO  H126  658   3.957   5.451   2.979 -0.1521  0.2012 -0.8216
    2CHTO   O41  659   4.086   5.544   2.843 -0.1023 -0.1136 -0.0668
    2CHTO   C64  660   4.203   5.440   2.855  0.4917 -0.3178  0.1426
    2CHTO  H121  661   4.205   5.416   2.964 -0.9121 -1.2250 -0.0192
    2CHTO   C71  662   4.341   5.499   2.835  0.0902  0.1756  0.4054
    2CHTO   O47  663   4.348   5.580   2.721 -0.1242 -0.5799  0.2632
    2CHTO  H104  664   4.337   5.671   2.741  0.4562 -0.1000 -1.5971
    2CHTO   O34  665   3.856   5.622   2.861  0.5573  0.0472  0.2610
    2CHTO   C49  666   3.884   5.760   2.776  0.5305 -0.1203 -0.4759
    2CHTO   H91  667   3.983   5.798   2.801  1.3379 -4.2142  3.0350
    2CHTO   C47  668   3.789   5.864   2.827 -0.2247  0.7504 -0.0391
    2CHTO   H89  669   3.821   5.956   2.775  0.7891  0.7415  0.5742
    2CHTO   O33  670   3.805   5.883   2.965 -0.4053  0.1288  0.4813
    2CHTO   H70  671   3.728   5.918   3.006 -0.1176  1.6421 -0.2364
    2CHTO   C45  672   3.643   5.814   2.790 -0.5073  0.0743 -0.3060
    2CHTO   H87  673   3.631   5.705   2.803 -0.6407  0.0406 -0.6928
    2CHTO    N8  674   3.537   5.879   2.863  0.0166 -0.3293 -0.4120
    2CHTO   H75  675   3.573   5.904   2.962  0.5866 -2.5937 -0.0086
    2CHTO   H76  676   3.456   5.809   2.875  0.6873 -1.2869 -1.3366
    2CHTO   C43  677   3.622   5.818   2.630 -0.4665  0.5417  0.2849
    2CHTO   H85  678   3.523   5.775   2.616  0.8918 -2.2480 -0.9275
    2CHTO   O29  679   3.724   5.730   2.573 -0.6056  0.3641  0.1232
    2CHTO   C50  680   3.861   5.740   2.619  0.2721  0.0066 -0.7148
    2CHTO   H92  681   3.902   5.644   2.585 -1.2478 -1.3901  1.3218
    2CHTO   C54  682   3.934   5.848   2.525  0.5257  0.3618 -0.4271
    2CHTO   O36  683   4.073   5.863   2.556  0.3758  0.1270 -0.7034
    2CHTO   H72  684   4.097   5.917   2.629 -1.5387  2.8127 -1.9679
    2CHTO   O27  685   3.634   5.951   2.583  0.5253 -0.5147  0.5752
    2CHTO   C37  686   3.582   6.068   2.521  0.2649  0.0324 -0.9294
    2CHTO   H79  687   3.624   6.082   2.421  1.1633 -0.4691 -0.6205
    2CHTO   C38  688   3.429   6.055   2.517 -0.2623  1.1506  0.0766
    2CHTO   H80  689   3.393   6.021   2.615 -0.2390 -1.7503 -0.8891
    2CHTO   O31  690   3.409   5.949   2.424  0.2548 -0.6948  0.1760
    2CHTO   H68  691   3.334   5.957   2.369 -0.5984  0.3781  1.4688
    2CHTO   C39  692   3.371   6.197   2.474 -0.1507  0.1165  0.0505
    2CHTO   H81  693   3.398   6.219   2.371 -1.0900  3.3004  0.4508
    2CHTO    N7  694   3.221   6.202   2.494  0.1972  0.1061 -0.7711
    2CHTO   H73  695   3.162   6.253   2.419  0.8922  1.0380 -0.6967
    2CHTO   H74  696   3.178   6.108   2.526 -0.4593  0.6050 -0.1648
    2CHTO   C40  697   3.429   6.319   2.557 -0.7595  0.3828  0.2002
    2CHTO   H82  698   3.396   6.304   2.660 -0.4177 -0.7234  0.1616
    2CHTO   O26  699   3.574   6.314   2.545 -0.0067 -0.6831  0.3327
    2CHTO   C41  700   3.629   6.192   2.605 -1.2388 -0.2673  0.2500
    2CHTO   H83  701   3.601   6.172   2.709 -0.5210 -2.4222  0.0716
    2CHTO   C52  702   3.784   6.234   2.596  0.3606 -0.2556 -0.5393
    2CHTO   O35  703   3.807   6.328   2.710  0.1471 -0.0755  0.4523
    2CHTO   H71  704   3.896   6.324   2.739  0.4293 -0.1001 -0.3982
    2CHTO   O28  705   3.392   6.457   2.528  0.3880  0.5351  0.1306
    2CHTO   C42  706   3.430   6.570   2.611 -0.0195  0.9691  0.2581
    2CHTO   H84  707   3.398   6.657   2.554  4.3182  2.3438 -0.2300
    2CHTO   C44  708   3.581   6.592   2.629  0.0260  0.4495  0.3370
    2CHTO   H86  709   3.627   6.504   2.674 -1.5369 -0.1968  0.6945
    2CHTO   O32  710   3.639   6.598   2.495 -0.3090 -0.3678 -0.1608
    2CHTO   H69  711   3.726   6.632   2.495 -0.1582 -0.7572 -0.0580
    2CHTO   C48  712   3.602   6.710   2.734 -0.7684 -0.0690 -0.1833
    2CHTO   H90  713   3.570   6.802   2.685  2.6850  0.5227 -1.4406
    2CHTO    N9  714   3.748   6.738   2.760 -0.7185 -0.0090  0.6720
    2CHTO   H77  715   3.779   6.735   2.864  0.3495 -0.5922  0.3427
    2CHTO   H78  716   3.780   6.828   2.710  0.0958 -1.0477 -0.7165
    2CHTO   C51  717   3.515   6.680   2.863  0.3001  0.0974  0.3013
    2CHTO   H93  718   3.548   6.583   2.900 -1.6705 -0.5936  0.3190
    2CHTO   O30  719   3.383   6.673   2.815  1.3494 -1.1527 -0.1500
    2CHTO   C46  720   3.350   6.570   2.743 -0.4593  0.0652 -0.2524
    2CHTO   H88  721   3.365   6.475   2.794  1.7632 -0.2237 -1.3495
    2CHTO   C53  722   3.193   6.589   2.726 -0.0580  0.8936 -0.4458
    2CHTO   O72  723   3.156   6.705   2.648 -0.6623  0.1420  0.1048
    2CHTO  H199  724   3.188   6.785   2.686  1.7517 -0.1644 -1.1417
    2CHTO   O22  725   3.516   6.783   2.965 -0.3149  0.3916 -0.2308
    2CHTO   C31  726   3.491   6.745   3.109 -0.0499  0.5587  0.2128
    2CHTO   H59  727   3.438   6.834   3.149 -1.5443  0.4775 -1.5219
    2CHTO   C29  728   3.396   6.633   3.133 -0.1126  0.0525  0.4548
    2CHTO   H57  729   3.439   6.546   3.080 -1.6673 -1.2432  1.2705
    2CHTO   O21  730   3.271   6.675   3.074 -0.0416 -0.4566  0.3924
    2CHTO   H37  731   3.210   6.696   3.142  2.0141 -0.7947  2.4121
    2CHTO   C27  732   3.380   6.587   3.291 -0.4295  0.3991  0.5812
    2CHTO   H55  733   3.324   6.668   3.338 -0.5972  0.7698 -0.2458
    2CHTO    N5  734   3.298   6.459   3.303 -0.1012 -0.0317  0.5967
    2CHTO   H43  735   3.326   6.383   3.232 -0.7349  0.2781  0.0121
    2CHTO   H44  736   3.312   6.423   3.404 -3.5160  0.2634  1.2221
    2CHTO   C25  737   3.521   6.574   3.353  0.2134  0.1611 -0.4903
    2CHTO   H53  738   3.578   6.485   3.321 -2.0481 -2.0261  1.3407
    2CHTO   O17  739   3.593   6.700   3.327  0.1395  0.1699 -0.7636
    2CHTO   C32  740   3.624   6.734   3.190 -0.6865 -0.2021 -0.7597
    2CHTO   H60  741   3.687   6.657   3.146 -0.6805 -0.1150 -0.9033
    2CHTO   C36  742   3.712   6.857   3.195  0.1629 -0.2329 -0.0326
    2CHTO   O25  743   3.746   6.917   3.067 -0.1488 -0.3453  0.4530
    2CHTO   H40  744   3.685   6.984   3.044  1.6048  0.9176 -0.5482
    2CHTO   O15  745   3.525   6.547   3.499  0.6447  0.5314 -0.0920
    2CHTO   C19  746   3.507   6.431   3.577  0.0516  0.7069  0.5259
    2CHTO   H47  747   3.440   6.363   3.521  2.1134 -0.5270 -0.5010
    2CHTO   C20  748   3.643   6.356   3.610  0.9767 -0.1601 -0.0511
    2CHTO   H48  749   3.715   6.417   3.666  1.1082  0.7245 -1.1628
    2CHTO   O19  750   3.698   6.332   3.482 -0.0312 -0.6021 -0.5805
    2CHTO   H35  751   3.734   6.411   3.446 -2.2580  0.4616 -0.5758
    2CHTO   C21  752   3.617   6.224   3.697 -0.2763  0.6734  0.0870
    2CHTO   H49  753   3.570   6.148   3.636 -2.8766  1.0777  1.5065
    2CHTO    N4  754   3.749   6.159   3.723  0.1023  0.2660 -0.5825
    2CHTO   H41  755   3.806   6.208   3.801 -2.7911  2.4012  0.2851
    2CHTO   H42  756   3.815   6.137   3.641 -0.4645  0.5071 -1.1062
    2CHTO   C22  757   3.536   6.262   3.822  0.1448 -0.4069 -0.0408
    2CHTO   H50  758   3.597   6.332   3.880  0.4221 -0.9075  0.2782
    2CHTO   O14  759   3.423   6.340   3.783  0.1123 -0.0224  0.2859
    2CHTO   C23  760   3.443   6.461   3.706  1.1227 -0.6240 -0.6084
    2CHTO   H51  761   3.508   6.522   3.770 -0.3860  1.8246 -1.3285
    2CHTO   C34  762   3.302   6.521   3.701 -0.1026 -0.1147 -0.3599
    2CHTO   O23  763   3.250   6.601   3.811  0.1263  0.2203  0.0962
    2CHTO   H38  764   3.195   6.668   3.777  0.8157  0.8530  0.2057
    2CHTO   O16  765   3.492   6.152   3.895  0.7949  0.3217 -0.0652
    2CHTO   C24  766   3.467   6.188   4.052 -0.9262 -0.1854 -0.0575
    2CHTO   H52  767   3.494   6.290   4.082 -0.4939 -0.7575  1.5576
    2CHTO   C26  768   3.559   6.106   4.147  0.0032  0.5556 -0.4741
    2CHTO   H54  769   3.510   6.006   4.142  0.2333  0.5005 -1.8297
    2CHTO   O20  770   3.688   6.110   4.081  0.2658 -0.3951  0.0804
    2CHTO   H36  771   3.746   6.041   4.106  0.0796 -0.7518 -0.4486
    2CHTO   C30  772   3.555   6.154   4.292  0.4418 -0.2282  0.2575
    2CHTO   H58  773   3.581   6.259   4.308 -1.4690  0.0670  1.7318
    2CHTO    N6  774   3.647   6.074   4.376  0.6862 -0.5344 -0.3349
    2CHTO   H45  775   3.717   6.141   4.424 -0.6446  0.0991  0.7744
    2CHTO   H46  776   3.693   5.989   4.329 -1.3435 -1.1800 -1.1850
    2CHTO   C33  777   3.408   6.160   4.342 -0.1066  0.3098  0.8967
    2CHTO   H61  778   3.377   6.058   4.369 -0.6339  0.0254 -0.7341
    2CHTO   O18  779   3.320   6.215   4.238 -0.7834 -0.1455  0.5064
    2CHTO   C28  780   3.323   6.161   4.109 -0.0770 -0.1232 -0.5133
    2CHTO   H56  781   3.298   6.055   4.112  0.0059 -0.1264  0.0211
    2CHTO   C35  782   3.219   6.234   4.026  0.1891  0.1886  0.1470
    2CHTO   O24  783   3.090   6.210   4.074  0.3818 -0.6316  0.4656
    2CHTO   H39  784   3.033   6.281   4.050 -0.6428 -1.7946 -0.6147
    2CHTO    O9  785   3.402   6.242   4.462  0.0217 -0.2338 -0.1896
    2CHTO   C13  786   3.454   6.218   4.610  0.0907  0.2944  0.4925
    2CHTO   H26  787   3.488   6.113   4.613 -2.0152 -0.4609 -0.7344
    2CHTO   C11  788   3.327   6.239   4.699  0.1279  0.8777  0.1986
    2CHTO   H24  789   3.251   6.162   4.677 -0.1594  0.8031  1.4281
    2CHTO    O8  790   3.274   6.370   4.665  0.5115  0.0009 -0.3760
    2CHTO    H3  791   3.330   6.441   4.689  1.6930 -1.1856  0.4768
    2CHTO    C9  792   3.374   6.235   4.850  0.6722 -0.6553 -0.7309
    2CHTO   H22  793   3.438   6.146   4.863  1.0421 -0.1119  1.3251
    2CHTO    N2  794   3.263   6.238   4.950 -0.3073 -0.3573  0.0931
    2CHTO   H10  795   3.293   6.185   5.040 -1.0896  0.6347  0.9513
    2CHTO   H11  796   3.180   6.185   4.904 -0.3734 -0.7577  0.6592
    2CHTO    C7  797   3.469   6.358   4.876  0.1199  0.7011  0.2136
    2CHTO   H20  798   3.498   6.344   4.982 -3.1463  1.2379  1.2375
    2CHTO    O4  799   3.585   6.341   4.790  0.4363  0.2279 -0.1481
    2CHTO   C14  800   3.575   6.314   4.645 -0.4129 -0.2482 -0.1026
    2CHTO   H27  801   3.667   6.261   4.613 -0.7521 -1.5308  0.9952
    2CHTO   C18  802   3.567   6.442   4.565  0.3198 -0.5005 -0.0946
    2CHTO   O13  803   3.683   6.526   4.584 -0.0873 -0.5444  0.5066
    2CHTO    H7  804   3.759   6.498   4.537 -1.1084 -0.5267 -1.2241
    2CHTO    O2  805   3.407   6.525   4.852 -0.4027 -0.2240  0.2286
    2CHTO    C1  806   3.442   6.606   4.966  0.0778 -0.3905  0.4278
    2CHTO   H14  807   3.471   6.539   5.050 -0.6682 -1.9414 -0.5253
    2CHTO    C2  808   3.318   6.698   5.017  0.0513 -0.5552  0.1591
    2CHTO   H15  809   3.255   6.727   4.931 -0.2858 -0.8264  0.3093
    2CHTO    O6  810   3.228   6.623   5.104 -0.5387  0.0822  0.2276
    2CHTO    H1  811   3.150   6.663   5.139 -0.4021 -1.6361  2.5899
    2CHTO    C3  812   3.364   6.830   5.102  0.3686 -0.3484 -0.2313
    2CHTO   H16  813   3.389   6.817   5.209  0.7038  0.9710 -0.1429
    2CHTO    N1  814   3.246   6.921   5.098  0.0879  0.1873 -0.5013
    2CHTO    H8  815   3.205   6.938   5.196  0.8382  0.1106 -0.1712
    2CHTO    H9  816   3.258   7.018   5.053  1.6198  1.1862  1.9991
    2CHTO    C4  817   3.492   6.899   5.044  0.3795 -0.1218 -0.7210
    2CHTO   H17  818   3.468   6.940   4.946  1.6220 -1.7841 -1.7573
    2CHTO    O1  819   3.591   6.795   5.025  0.7510 -0.1437  0.2457
    2CHTO    C5  820   3.564   6.699   4.923  0.1486  0.3317  0.7813
    2CHTO   H18  821   3.536   6.753   4.833 -0.9914  0.3128  1.1156
    2CHTO   C16  822   3.706   6.632   4.901  0.0393 -0.7509 -0.1318
    2CHTO   O11  823   3.799   6.718   4.839 -0.2427  0.1575 -0.6516
    2CHTO    H5  824   3.755   6.777   4.780  0.1199  0.5703 -0.5123
    2CHTO    O3  825   3.563   6.988   5.134 -0.5757 -0.0322  0.2348
    2CHTO    C6  826   3.615   7.110   5.070 -0.1562 -0.7251  0.2293
    2CHTO   H19  827   3.612   7.101   4.961 -0.7923  0.4081  0.1422
    2CHTO    C8  828   3.533   7.235   5.111  0.5239  0.5290 -0.7255
    2CHTO   H21  829   3.509   7.225   5.217  0.8738  1.3344 -0.5719
    2CHTO    O7  830   3.399   7.226   5.057  0.1599 -0.0259  0.0954
    2CHTO    H2  831   3.407   7.226   4.963 -0.8047 -2.0507 -0.0269
    2CHTO   C12  832   3.611   7.362   5.065  1.6754 -0.3693 -0.1016
    2CHTO   H25  833   3.589   7.378   4.957  1.6668  0.4770  0.0232
    2CHTO    N3  834   3.564   7.489   5.130 -0.7080  0.1471 -0.0095
    2CHTO   H12  835   3.459   7.511   5.118 -1.0791 -1.1995  0.7967
    2CHTO   H13  836   3.622   7.573   5.092 -1.9200  0.5201 -1.0587
    2CHTO   C15  837   3.765   7.357   5.077  0.4985 -0.1405 -0.4430
    2CHTO   H28  838   3.796   7.374   5.180 -1.7305 -1.3686  0.4677
    2CHTO   O10  839   3.849   7.469   4.989  0.3153  0.5114  0.6850
    2CHTO    H4  840   3.893   7.526   5.050  0.7849  1.3026 -0.3716
    2CHTO    O5  841   3.812   7.228   5.031  0.6402 -0.1336 -0.4420
    2CHTO   C10  842   3.766   7.124   5.109 -0.1711 -0.0291 -0.4800
    2CHTO   H23  843   3.782   7.149   5.214 -0.3277 -0.6961 -0.2976
    2CHTO   C17  844   3.859   7.004   5.075  0.0075  0.5858  0.0230
    2CHTO   O12  845   3.823   6.885   5.150  0.0122  0.1626 -0.2596
    2CHTO    H6  846   3.898   6.834   5.174 -0.3377 -0.9286 -1.4144
    3CHTO  H203  847   7.548   1.338   1.692  0.1653  0.7678 -0.9737
    3CHTO   O82  848   7.606   1.279   1.648 -0.1907 -0.1281 -0.2607
    3CHTO  C123  849   7.550   1.145   1.653  0.2377  0.4839 -0.5756
    3CHTO  H227  850   7.624   1.085   1.709  1.6233  2.5118 -0.1915
    3CHTO   O77  851   7.425   1.148   1.732  0.2542 -0.5302 -0.1926
    3CHTO  C118  852   7.360   1.022   1.750 -0.2313  0.0053  0.1189
    3CHTO  H222  853   7.436   0.963   1.803 -0.2151  1.3213  1.5863
    3CHTO  C125  854   7.234   1.043   1.844  0.5123 -0.0721  0.1879
    3CHTO   O84  855   7.278   1.012   1.978 -0.2705  0.0822  0.0397
    3CHTO  H205  856   7.311   0.925   1.986  0.6442  0.4333  0.1299
    3CHTO  C114  857   7.318   0.969   1.610 -0.2383  0.3580  0.1025
    3CHTO  H218  858   7.257   1.044   1.560  0.7015  0.2715 -1.2087
    3CHTO  C116  859   7.444   0.948   1.520 -0.0695 -0.1715 -0.8243
    3CHTO  H220  860   7.513   0.872   1.563  1.8696  1.3976 -1.0638
    3CHTO   O79  861   7.389   0.904   1.394 -0.2255 -0.2563 -0.1757
    3CHTO  H201  862   7.459   0.884   1.336 -0.8479 -2.0299 -0.3462
    3CHTO  C120  863   7.526   1.091   1.507 -0.1514 -0.5561  0.2508
    3CHTO  H224  864   7.463   1.158   1.445  0.9047 -1.5997 -1.9957
    3CHTO   N21  865   7.649   1.064   1.430 -0.4261 -0.2165  0.0776
    3CHTO  H211  866   7.626   1.063   1.325 -1.3886 -2.4884  0.2709
    3CHTO  H212  867   7.724   1.141   1.444 -1.5658  1.3041 -1.9531
    3CHTO   O75  868   7.248   0.848   1.636  0.1672  0.0293  0.0139
    3CHTO  C112  869   7.108   0.805   1.539  0.0777  0.0042  0.4469
    3CHTO  H216  870   7.134   0.775   1.437  2.0675  1.1479  0.6042
    3CHTO   O73  871   7.019   0.917   1.538  0.0134  0.1063  0.4601
    3CHTO  C113  872   6.908   0.885   1.456 -0.4461 -0.1728  0.0211
    3CHTO  H217  873   6.951   0.844   1.362  2.0320  2.3076  0.0076
    3CHTO  C124  874   6.823   1.008   1.421 -0.4351 -0.8958 -0.5514
    3CHTO   O83  875   6.749   0.993   1.305  0.6012 -0.2216 -0.4345
    3CHTO  H204  876   6.726   1.079   1.275  0.1388  0.4091  1.5985
    3CHTO  C109  877   6.816   0.773   1.518  0.1290 -0.0255  0.3155
    3CHTO  H213  878   6.777   0.813   1.613  1.0250 -0.7622  0.9952
    3CHTO  C110  879   6.905   0.648   1.542  0.4334  0.0507 -0.1319
    3CHTO  H214  880   6.926   0.597   1.448 -1.1542  0.3919 -0.6874
    3CHTO   O78  881   6.831   0.550   1.622 -0.0257  0.2023 -0.3721
    3CHTO  H200  882   6.844   0.557   1.715  1.1017  1.1904 -0.5930
    3CHTO  C111  883   7.040   0.683   1.610 -0.5841  0.1174  0.5362
    3CHTO  H215  884   7.020   0.702   1.716 -0.1676 -1.6715  0.9469
    3CHTO   N19  885   7.127   0.562   1.605 -0.0801  0.0041  0.2100
    3CHTO  H207  886   7.070   0.490   1.662 -0.7310 -1.5791 -2.3172
    3CHTO  H208  887   7.224   0.573   1.650  0.0761 -1.6121  0.2893
    3CHTO   O74  888   6.708   0.733   1.427 -0.5927 -0.2360  0.1071
    3CHTO  C115  889   6.573   0.722   1.506  0.4662  0.0021  0.0149
    3CHTO  H219  890   6.583   0.664   1.597  0.7528 -1.2424 -0.7988
    3CHTO   O76  891   6.525   0.872   1.548  0.7286 -0.2328 -0.0886
    3CHTO  C122  892   6.396   0.877   1.608  0.5083 -0.0544 -0.7639
    3CHTO  H226  893   6.389   0.984   1.631  1.1863  0.1505 -1.4846
    3CHTO  C126  894   6.393   0.805   1.738  0.2103 -0.9729  0.2267
    3CHTO   O85  895   6.265   0.760   1.777 -0.4626 -0.3275 -0.3315
    3CHTO  H206  896   6.200   0.828   1.773 -0.2353 -0.0213  1.0582
    3CHTO  C121  897   6.293   0.843   1.505  0.0355 -0.9724 -0.1075
    3CHTO  H225  898   6.196   0.842   1.559  0.4048 -1.0112  0.5657
    3CHTO   O81  899   6.294   0.933   1.394  0.1430  0.2669 -0.0545
    3CHTO  H202  900   6.215   0.983   1.392  0.7500  1.2504  0.1034
    3CHTO  C119  901   6.314   0.698   1.456  0.1684  0.6021 -0.7234
    3CHTO  H223  902   6.284   0.631   1.537 -0.2750  0.4949 -0.9729
    3CHTO  C117  903   6.463   0.652   1.414 -0.0501 -0.1661 -0.2142
    3CHTO  H221  904   6.496   0.692   1.318 -1.2675  1.2068 -0.0912
    3CHTO   N20  905   6.483   0.501   1.407  0.2751  0.2341 -0.4007
    3CHTO  H209  906   6.534   0.479   1.315 -1.6793  1.4981 -1.8242
    3CHTO  H210  907   6.515   0.455   1.500  2.0496  0.7700 -0.7339
    3CHTO   O80  908   6.214   0.661   1.355 -0.0572 -0.0197  0.7090
    3CHTO  C103  909   6.053   0.620   1.405  0.4258 -0.5294 -0.3861
    3CHTO  H190  910   6.030   0.660   1.504  2.8811  0.3920 -0.1546
    3CHTO  C101  911   5.938   0.669   1.312  0.3560  0.0539  0.6307
    3CHTO  H188  912   5.980   0.649   1.214  0.3405  0.1013  0.6143
    3CHTO   O68  913   5.927   0.819   1.317 -0.1166  0.1003  0.3267
    3CHTO  H168  914   5.855   0.852   1.267 -1.2346 -4.0053 -0.9591
    3CHTO   C99  915   5.793   0.595   1.334 -0.1167 -0.1446  0.4603
    3CHTO  H186  916   5.759   0.633   1.433 -1.0196 -1.5591  0.7125
    3CHTO   N17  917   5.691   0.630   1.233  0.5815 -0.0146 -0.6695
    3CHTO  H174  918   5.671   0.736   1.239  0.3665 -0.0750 -0.3459
    3CHTO  H175  919   5.600   0.574   1.245 -0.3349  1.7581  0.9359
    3CHTO   C97  920   5.815   0.441   1.354  0.7853 -0.7490 -0.4047
    3CHTO  H184  921   5.835   0.391   1.258  1.1489  1.5371 -1.5590
    3CHTO   O64  922   5.920   0.417   1.452  0.7205  0.0451  0.3363
    3CHTO  C104  923   6.047   0.466   1.412 -0.0645  0.1713 -0.2933
    3CHTO  H191  924   6.059   0.419   1.314 -3.6635 -2.2181  0.3069
    3CHTO  C108  925   6.146   0.403   1.512  0.6712  0.5085  0.1749
    3CHTO   O71  926   6.167   0.263   1.497  0.1570 -0.2646  0.9488
    3CHTO  H171  927   6.240   0.236   1.549  0.7390  1.3237  0.9761
    3CHTO   O62  928   5.697   0.382   1.421 -0.2500  0.6148  0.4866
    3CHTO   C91  929   5.662   0.243   1.392 -0.5694  0.2892  0.2271
    3CHTO  H178  930   5.700   0.212   1.294  2.2228  0.3220  1.2522
    3CHTO   C92  931   5.512   0.227   1.387 -0.2933 -0.6502  0.2631
    3CHTO  H179  932   5.476   0.256   1.487  0.5341  3.2231 -0.4803
    3CHTO   O66  933   5.467   0.325   1.294 -0.2053 -0.6113 -0.0041
    3CHTO  H166  934   5.373   0.324   1.289 -0.2029  0.8678 -0.6316
    3CHTO   C93  935   5.475   0.083   1.351  0.5510  0.1208 -0.7740
    3CHTO  H180  936   5.527   0.063   1.255 -1.3635 -2.2280 -1.3830
    3CHTO   N16  937   5.330   0.063   1.326 -0.1661 -0.6440 -0.7129
    3CHTO  H172  938   5.273   0.154   1.318 -1.0560 -1.1889 -0.6883
    3CHTO  H173  939   5.326   0.002   1.237 -0.5905 -2.4061  0.4684
    3CHTO   C94  940   5.537  -0.025   1.453  0.2086  0.0758 -0.2178
    3CHTO  H181  941   5.460  -0.076   1.511  0.0664  0.2675 -0.2382
    3CHTO   O61  942   5.620   0.043   1.554 -0.4437 -0.0204  0.5000
    3CHTO   C95  943   5.710   0.143   1.502 -0.1776 -0.0101 -0.3450
    3CHTO  H182  944   5.730   0.208   1.587 -0.4628 -1.5564  0.9289
    3CHTO  C106  945   5.849   0.075   1.458 -0.1100  0.0480  0.0953
    3CHTO   O69  946   5.918   0.025   1.576 -0.1670 -0.2214  0.3116
    3CHTO  H169  947   5.998  -0.008   1.542 -0.4670  0.4880 -1.1331
    3CHTO   O63  948   5.621  -0.131   1.378  0.0246 -0.5976 -0.6146
    3CHTO   C96  949   5.586  -0.271   1.393  0.2911  0.2098 -0.0073
    3CHTO  H183  950   5.640  -0.323   1.314 -1.0452 -1.3605  0.0841
    3CHTO   C98  951   5.428  -0.305   1.372  0.0610  0.0862  0.6123
    3CHTO  H185  952   5.365  -0.230   1.423  0.6333  1.2679 -0.4049
    3CHTO   O67  953   5.390  -0.288   1.235 -0.4544  0.2368 -0.0227
    3CHTO  H167  954   5.327  -0.352   1.208  0.7033 -1.6373  1.5713
    3CHTO  C102  955   5.388  -0.457   1.419 -0.0877 -0.4633 -0.7120
    3CHTO  H189  956   5.436  -0.521   1.343  0.2691  1.2755 -2.0106
    3CHTO   N18  957   5.242  -0.498   1.412 -0.0816 -0.3099  0.1207
    3CHTO  H176  958   5.217  -0.548   1.505 -0.2032 -0.5518 -0.0407
    3CHTO  H177  959   5.235  -0.559   1.323 -0.2366 -0.2446  0.0884
    3CHTO  C105  960   5.449  -0.487   1.558 -0.2793  0.2972  0.4299
    3CHTO  H192  961   5.398  -0.428   1.633 -0.8924 -0.7584  0.8578
    3CHTO   O65  962   5.587  -0.457   1.561 -0.3446  0.5929  0.3246
    3CHTO  C100  963   5.633  -0.325   1.534 -0.6413  0.1323 -0.1479
    3CHTO  H187  964   5.590  -0.265   1.616  1.0241  0.0427  0.8110
    3CHTO  C107  965   5.783  -0.325   1.555 -0.4791  0.0727  0.0695
    3CHTO   O70  966   5.825  -0.346   1.690 -0.0475 -0.0264  0.1365
    3CHTO  H170  967   5.905  -0.393   1.675  0.2069  1.1395 -2.3578
    3CHTO   O57  968   5.415  -0.642   1.600  0.4769  0.3609  0.8011
    3CHTO   C85  969   5.413  -0.701   1.732 -0.3659 -0.5421  0.5846
    3CHTO  H157  970   5.416  -0.810   1.711 -0.2977 -0.5872  0.8291
    3CHTO   C83  971   5.273  -0.684   1.801 -0.3130 -0.3731 -0.2000
    3CHTO  H155  972   5.202  -0.745   1.746 -0.6650  1.1680 -1.5028
    3CHTO   O56  973   5.234  -0.547   1.782 -0.1908 -0.6603  0.1717
    3CHTO  H135  974   5.264  -0.498   1.857  1.5213  0.9027 -1.4978
    3CHTO   C81  975   5.278  -0.740   1.946  0.1034 -0.1393 -0.1046
    3CHTO  H153  976   5.304  -0.845   1.935 -1.6407 -0.6682  0.6246
    3CHTO   N14  977   5.146  -0.761   2.011 -0.0944  0.9595  0.6964
    3CHTO  H141  978   5.162  -0.810   2.105  0.1299 -0.9388 -0.3080
    3CHTO  H142  979   5.084  -0.827   1.954  0.1559 -0.9975  2.6208
    3CHTO   C79  980   5.389  -0.663   2.028  0.1546 -0.5167 -0.5449
    3CHTO  H151  981   5.398  -0.711   2.126  1.2843  1.0352  0.1289
    3CHTO   O52  982   5.519  -0.674   1.962  0.4089  0.0073 -0.6322
    3CHTO   C86  983   5.531  -0.657   1.819  0.4041  0.2367  0.0323
    3CHTO  H158  984   5.561  -0.552   1.803 -0.3812  0.3414 -0.7258
    3CHTO   C90  985   5.651  -0.743   1.775  0.1644  0.2410 -0.2451
    3CHTO   O60  986   5.694  -0.714   1.644  0.2502 -0.3800 -0.1544
    3CHTO  H138  987   5.740  -0.634   1.632  2.1273 -1.6192 -1.6259
    3CHTO   O50  988   5.352  -0.529   2.050 -0.0940 -0.6907  0.0160
    3CHTO   C73  989   5.382  -0.430   2.149 -0.2480 -0.3841 -0.3879
    3CHTO  H145  990   5.457  -0.468   2.221 -0.1067 -1.0830 -0.8961
    3CHTO   C74  991   5.251  -0.413   2.228  0.4029  0.3086  0.7465
    3CHTO  H146  992   5.228  -0.509   2.276  1.6415 -0.6753 -0.5696
    3CHTO   O54  993   5.268  -0.316   2.335  0.1288  0.3760 -0.4727
    3CHTO  H133  994   5.203  -0.321   2.402  1.5097  1.5983  0.9812
    3CHTO   C75  995   5.141  -0.375   2.127 -0.0278  0.2992 -0.3926
    3CHTO  H147  996   5.134  -0.451   2.048  0.3794 -0.4338  0.2625
    3CHTO   N13  997   5.008  -0.364   2.191 -0.1249  0.1649  0.1514
    3CHTO  H139  998   4.949  -0.283   2.148  2.1490  1.4048 -0.7092
    3CHTO  H140  999   5.021  -0.351   2.298 -0.7407 -2.2570  0.5517
    3CHTO   C76 1000   5.187  -0.247   2.044 -0.2303 -0.4826  0.1883
    3CHTO  H148 1001   5.187  -0.157   2.107  0.0057 -0.8581  0.7264
    3CHTO   O49 1002   5.326  -0.258   1.988 -0.6093  0.5771  0.1391
    3CHTO   C77 1003   5.429  -0.297   2.078 -0.2411  0.5536 -0.5495
    3CHTO  H149 1004   5.453  -0.226   2.157  2.2461  0.2461 -0.9834
    3CHTO   C88 1005   5.557  -0.310   1.988 -0.3147 -0.0278 -0.2558
    3CHTO   O58 1006   5.594  -0.175   1.942  0.5939  0.1246 -0.5044
    3CHTO  H136 1007   5.680  -0.185   1.906  0.2755  0.1227 -1.2788
    3CHTO   O51 1008   5.099  -0.219   1.916 -0.1137 -0.1986 -0.0582
    3CHTO   C78 1009   5.093  -0.066   1.884  0.4487  1.1580 -0.0534
    3CHTO  H150 1010   5.182  -0.016   1.929 -0.2227 -1.1253  4.1158
    3CHTO   C80 1011   4.965  -0.003   1.944  0.1235  0.2405  0.9466
    3CHTO  H152 1012   4.877  -0.045   1.890 -0.5889  2.9891 -0.1045
    3CHTO   O55 1013   4.946  -0.049   2.079  0.2375 -0.2496  0.0152
    3CHTO  H134 1014   4.983  -0.135   2.084 -1.2423 -0.9960 -1.3187
    3CHTO   C84 1015   4.975   0.156   1.933 -0.0202  0.2298  0.1314
    3CHTO  H156 1016   5.071   0.199   1.962  0.5414 -0.4504 -0.6769
    3CHTO   N15 1017   4.874   0.234   2.003 -0.2526 -0.8974  0.1682
    3CHTO  H143 1018   4.917   0.279   2.089 -0.1868 -1.3601  0.3777
    3CHTO  H144 1019   4.800   0.165   2.036  0.4910 -2.5045 -1.4640
    3CHTO   C87 1020   4.979   0.190   1.786  0.7531 -0.0475 -0.3153
    3CHTO  H159 1021   4.889   0.171   1.729  2.0148 -2.3212 -1.6162
    3CHTO   O53 1022   5.106   0.108   1.705 -0.0545  0.6742 -0.4930
    3CHTO   C82 1023   5.093  -0.036   1.734  0.3205  0.5749  0.6303
    3CHTO  H154 1024   4.998  -0.065   1.690 -0.1194  2.3095  0.3799
    3CHTO   C89 1025   5.208  -0.117   1.659 -0.0650  0.3708 -0.2046
    3CHTO   O59 1026   5.343  -0.088   1.714  0.6847  0.2637 -0.3334
    3CHTO  H137 1027   5.383  -0.166   1.746 -1.3150 -1.8555 -2.8393
    3CHTO   O45 1028   4.996   0.359   1.757  0.2781  0.2777 -0.0810
    3CHTO   C67 1029   5.137   0.396   1.765  0.2460  0.1015  0.2720
    3CHTO  H124 1030   5.189   0.313   1.812 -0.7293  0.1488  1.4516
    3CHTO   C65 1031   5.188   0.425   1.620  0.1835 -0.1920 -0.6938
    3CHTO  H122 1032   5.107   0.435   1.548  0.6005 -2.1728 -1.4755
    3CHTO   O44 1033   5.263   0.308   1.588  0.0365  0.3330  0.1528
    3CHTO  H102 1034   5.308   0.313   1.506  0.3539 -3.4918  0.0333
    3CHTO   C63 1035   5.272   0.559   1.608  0.4620  0.1873 -0.2338
    3CHTO  H120 1036   5.205   0.644   1.616  1.7797  1.1624  0.5770
    3CHTO   N11 1037   5.342   0.579   1.472  0.7142 -0.2260 -0.0791
    3CHTO  H108 1038   5.285   0.537   1.393  0.7563  0.8799 -0.7032
    3CHTO  H109 1039   5.437   0.530   1.477  0.1147 -1.4207 -0.2153
    3CHTO   C61 1040   5.368   0.562   1.733 -0.2021 -1.1414  0.1365
    3CHTO  H118 1041   5.423   0.657   1.733 -0.2537 -1.1123 -0.1601
    3CHTO   O40 1042   5.299   0.553   1.861 -0.0466 -0.1515  0.3701
    3CHTO   C68 1043   5.157   0.520   1.858 -0.4986 -0.0311 -0.3474
    3CHTO  H125 1044   5.096   0.601   1.812  0.9716  1.6724  0.6253
    3CHTO   C72 1045   5.111   0.506   2.003  0.5056  0.3450 -0.2846
    3CHTO   O48 1046   5.109   0.640   2.057  0.7215 -0.0684  0.4320
    3CHTO  H105 1047   5.022   0.672   2.044  0.3516 -1.0825  0.3606
    3CHTO   O38 1048   5.468   0.459   1.710 -0.6339  0.7121  0.4022
    3CHTO   C55 1049   5.568   0.440   1.816  0.0883 -0.1242  0.0954
    3CHTO  H112 1050   5.533   0.486   1.909 -2.9729 -0.9783 -0.5693
    3CHTO   C56 1051   5.707   0.500   1.768 -0.6853  0.4333  0.6911
    3CHTO  H113 1052   5.724   0.472   1.663 -3.8088  0.1243  0.1930
    3CHTO   O42 1053   5.693   0.640   1.759 -0.5162 -0.4855  0.4775
    3CHTO  H100 1054   5.756   0.671   1.696 -0.3353 -0.3834  0.7112
    3CHTO   C57 1055   5.825   0.457   1.866 -0.6419 -0.2604  0.1571
    3CHTO  H114 1056   5.811   0.513   1.958  1.3653 -0.5110  0.6344
    3CHTO   N10 1057   5.966   0.491   1.824 -0.3455  0.0791 -0.2374
    3CHTO  H106 1058   5.971   0.575   1.758 -0.4323 -1.0910 -1.7550
    3CHTO  H107 1059   6.011   0.408   1.772  0.1299 -0.9796  1.7922
    3CHTO   C58 1060   5.808   0.306   1.899 -0.2534  0.2566  0.3427
    3CHTO  H115 1061   5.829   0.245   1.809  0.5588 -0.6155  1.1023
    3CHTO   O37 1062   5.676   0.272   1.945 -0.2198 -0.5384 -0.9427
    3CHTO   C59 1063   5.575   0.288   1.843 -0.1927  0.4147 -0.2199
    3CHTO  H116 1064   5.606   0.235   1.754  1.7208  0.9225  0.1297
    3CHTO   C70 1065   5.443   0.236   1.905  0.6887 -0.1590  0.0019
    3CHTO   O46 1066   5.446   0.104   1.947 -0.0663 -0.6243  0.3978
    3CHTO  H103 1067   5.502   0.096   2.022  1.7386 -1.2645 -0.9907
    3CHTO   O39 1068   5.924   0.248   2.014 -0.0215 -0.1863 -0.6354
    3CHTO   C60 1069   5.921   0.103   2.012 -0.0334  0.2736 -0.3069
    3CHTO  H117 1070   5.826   0.070   1.969  0.3681  0.9931 -1.7880
    3CHTO   C62 1071   6.032   0.042   1.930  0.9306 -0.0531 -0.6272
    3CHTO  H119 1072   6.014   0.088   1.830 -1.7584 -0.8324 -0.5360
    3CHTO   O43 1073   6.160   0.095   1.974  0.1203  0.1276 -0.1324
    3CHTO  H101 1074   6.228   0.059   1.920 -0.2036 -0.2225 -0.3049
    3CHTO   C66 1075   6.015  -0.114   1.928  0.1305 -0.0781  0.4464
    3CHTO  H123 1076   5.913  -0.135   1.897  0.0495  0.5191  0.2969
    3CHTO   N12 1077   6.108  -0.174   1.824  0.6382 -0.1116 -0.1435
    3CHTO  H110 1078   6.114  -0.282   1.825  2.5475 -0.0297 -1.0583
    3CHTO  H111 1079   6.202  -0.122   1.820  0.0173  1.0637  0.3243
    3CHTO   C69 1080   6.044  -0.181   2.067  0.2988 -0.2984  0.0796
    3CHTO  H126 1081   6.132  -0.156   2.130 -1.2167  2.0229  1.3841
    3CHTO   O41 1082   5.930  -0.135   2.154  0.3899  0.0056 -0.2990
    3CHTO   C64 1083   5.921   0.047   2.158  0.0810 -0.7851  0.0913
    3CHTO  H121 1084   6.013   0.084   2.209 -1.7980  0.7927  2.4685
    3CHTO   C71 1085   5.789   0.085   2.235 -0.7174 -0.2452 -0.2912
    3CHTO   O47 1086   5.782   0.027   2.363  0.3393  0.0639 -0.0036
    3CHTO  H104 1087   5.795   0.085   2.436 -3.0422 -1.0072  1.5580
    3CHTO   O34 1088   6.041  -0.346   2.061 -0.1732 -0.4704 -0.1767
    3CHTO   C49 1089   6.107  -0.483   2.007 -0.3632  0.0589 -0.1044
    3CHTO   H91 1090   6.201  -0.447   1.965  0.5753 -1.2846  0.7641
    3CHTO   C47 1091   6.019  -0.547   1.898 -0.5670 -0.3630 -0.5332
    3CHTO   H89 1092   6.044  -0.496   1.803  0.4012  0.9586  0.4145
    3CHTO   O33 1093   5.881  -0.528   1.930 -0.2821  0.7160  0.6126
    3CHTO   H70 1094   5.867  -0.441   1.961  0.3565  1.1741 -0.3686
    3CHTO   C45 1095   6.050  -0.707   1.887  0.4786  0.8698 -0.0479
    3CHTO   H87 1096   5.986  -0.760   1.959  0.5147  1.7999  0.6690
    3CHTO    N8 1097   6.015  -0.748   1.753  0.6255  0.1054 -0.0566
    3CHTO   H75 1098   6.091  -0.816   1.717 -1.2860 -1.5670 -1.0052
    3CHTO   H76 1099   5.924  -0.806   1.753  0.7814 -0.3093 -3.8390
    3CHTO   C43 1100   6.198  -0.744   1.939  0.3652 -0.4214  0.1036
    3CHTO   H85 1101   6.200  -0.852   1.925  1.1553 -0.4682  0.5525
    3CHTO   O29 1102   6.223  -0.698   2.071 -0.4938 -0.2548  0.1730
    3CHTO   C50 1103   6.143  -0.592   2.118  0.5781  0.3425 -0.3365
    3CHTO   H92 1104   6.052  -0.644   2.154 -0.3102  0.6233 -2.1432
    3CHTO   C54 1105   6.215  -0.537   2.244 -0.4721 -0.6007  0.7563
    3CHTO   O36 1106   6.243  -0.628   2.346 -0.0546  0.1132 -0.2933
    3CHTO   H72 1107   6.171  -0.630   2.406  0.9733 -1.0996  0.9386
    3CHTO   O27 1108   6.300  -0.696   1.849  0.2307 -0.5809 -0.4032
    3CHTO   C37 1109   6.406  -0.602   1.823 -0.5324  0.0810  0.4389
    3CHTO   H79 1110   6.396  -0.507   1.876  2.4073  0.2122  0.8552
    3CHTO   C38 1111   6.542  -0.654   1.873 -1.0227  0.4412 -0.3421
    3CHTO   H80 1112   6.557  -0.757   1.837 -0.6234  0.5840 -0.5890
    3CHTO   O31 1113   6.526  -0.652   2.014  0.1849 -0.2203  0.3284
    3CHTO   H68 1114   6.609  -0.656   2.058  1.5480 -1.2973 -2.2708
    3CHTO   C39 1115   6.667  -0.558   1.834 -0.1642  0.0243  0.0840
    3CHTO   H81 1116   6.659  -0.462   1.886  1.5377  0.1651  0.1144
    3CHTO    N7 1117   6.802  -0.612   1.863 -0.2346  0.2310  0.3735
    3CHTO   H73 1118   6.880  -0.548   1.826  0.4960  0.4525  2.2110
    3CHTO   H74 1119   6.821  -0.704   1.810 -1.5527 -0.1477  0.5479
    3CHTO   C40 1120   6.650  -0.508   1.688 -0.3173 -0.1272  0.2606
    3CHTO   H82 1121   6.681  -0.592   1.626 -1.7557 -0.2556 -0.2971
    3CHTO   O26 1122   6.512  -0.468   1.653 -0.4766 -0.9702 -0.2190
    3CHTO   C41 1123   6.402  -0.567   1.667 -0.2648  0.1148 -0.1333
    3CHTO   H83 1124   6.425  -0.661   1.615 -1.2910  1.1763 -2.5600
    3CHTO   C52 1125   6.272  -0.506   1.609 -0.6106  0.5502  0.0098
    3CHTO   O35 1126   6.275  -0.493   1.484 -0.3265  0.0395 -0.7008
    3CHTO   H71 1127   6.188  -0.468   1.461 -0.4553 -0.7260 -1.0711
    3CHTO   O28 1128   6.740  -0.399   1.659  0.1143 -0.2731  0.4129
    3CHTO   C42 1129   6.712  -0.281   1.584  0.1669 -0.0885  0.3620
    3CHTO   H84 1130   6.808  -0.229   1.583 -0.1023  0.4150  0.3845
    3CHTO   C44 1131   6.613  -0.185   1.655 -0.1381 -0.3607 -0.2755
    3CHTO   H86 1132   6.517  -0.235   1.653  0.2569 -1.1436 -0.0280
    3CHTO   O32 1133   6.680  -0.147   1.778 -0.5577 -0.2662 -0.1639
    3CHTO   H69 1134   6.704  -0.227   1.820 -0.4257 -0.0201  0.2390
    3CHTO   C48 1135   6.587  -0.055   1.568 -0.3345  0.3228  0.6680
    3CHTO   H90 1136   6.680   0.001   1.559 -0.9485  0.9732 -2.1208
    3CHTO    N9 1137   6.487   0.037   1.640 -0.4099 -0.3054  0.1156
    3CHTO   H77 1138   6.538   0.083   1.723  0.2262 -1.2492  0.2628
    3CHTO   H78 1139   6.394  -0.012   1.668 -0.6297 -0.1280 -0.3046
    3CHTO   C51 1140   6.542  -0.090   1.417 -0.3068 -0.5634 -0.4426
    3CHTO   H93 1141   6.447  -0.140   1.436  0.4857 -2.0565 -0.3397
    3CHTO   O30 1142   6.636  -0.178   1.352  0.1105  0.4179  0.1678
    3CHTO   C46 1143   6.666  -0.301   1.434 -0.2021  1.0359  0.0169
    3CHTO   H88 1144   6.584  -0.373   1.435  1.4796 -0.9227  0.8244
    3CHTO   C53 1145   6.783  -0.359   1.351  0.1497 -0.1717 -0.4743
    3CHTO   O72 1146   6.816  -0.496   1.393  0.0154 -0.5981 -0.1250
    3CHTO  H199 1147   6.771  -0.554   1.334 -0.4690 -0.0968 -0.2563
    3CHTO   O22 1148   6.543   0.031   1.344 -0.4726 -0.2051  0.6940
    3CHTO   C31 1149   6.453   0.068   1.228  0.3594 -0.2614 -0.3942
    3CHTO   H59 1150   6.453  -0.020   1.161 -1.5030 -2.0310  1.8683
    3CHTO   C29 1151   6.305   0.100   1.257 -0.0608  0.3641 -0.2181
    3CHTO   H57 1152   6.299   0.193   1.316  0.5141 -0.9099  1.8994
    3CHTO   O21 1153   6.251   0.003   1.351  0.0493  0.1149  0.0603
    3CHTO   H37 1154   6.309  -0.012   1.423 -1.7802 -1.4118  1.2958
    3CHTO   C27 1155   6.216   0.114   1.125 -0.2633 -0.1456  0.3395
    3CHTO   H55 1156   6.197   0.016   1.079 -3.3294  0.3603  0.3928
    3CHTO    N5 1157   6.080   0.169   1.151  0.6310  0.1478 -0.0634
    3CHTO   H43 1158   6.025   0.144   1.062  0.6147 -0.3251  0.0796
    3CHTO   H44 1159   6.025   0.113   1.225 -0.7899  1.5906  0.0063
    3CHTO   C25 1160   6.290   0.204   1.019 -0.4714 -0.1520  0.7049
    3CHTO   H53 1161   6.273   0.310   1.044  0.1954 -0.3571  2.0454
    3CHTO   O17 1162   6.436   0.170   1.018  0.1681 -0.0179 -0.1692
    3CHTO   C32 1163   6.506   0.186   1.143  0.2738  0.3869  0.0171
    3CHTO   H60 1164   6.474   0.280   1.187 -0.5593  0.1733 -0.1244
    3CHTO   C36 1165   6.659   0.179   1.105  0.1978  1.0731 -0.7505
    3CHTO   O25 1166   6.734   0.174   1.229 -0.2186 -0.8072 -0.0541
    3CHTO   H40 1167   6.803   0.110   1.216  0.0729 -0.3284 -0.8967
    3CHTO   O15 1168   6.245   0.187   0.883 -0.3946 -0.4269 -0.2491
    3CHTO   C19 1169   6.205   0.292   0.778 -0.0195  0.2100 -0.6751
    3CHTO   H47 1170   6.205   0.223   0.693  0.0357 -0.3781 -0.2058
    3CHTO   C20 1171   6.058   0.350   0.802 -0.2997  0.0661  0.0433
    3CHTO   H48 1172   6.046   0.399   0.900  0.1121  0.2804 -0.0112
    3CHTO   O19 1173   5.965   0.242   0.816 -0.0744  0.4405 -0.1251
    3CHTO   H35 1174   5.961   0.193   0.736  0.3938 -0.9737  0.6944
    3CHTO   C21 1175   6.026   0.440   0.672  0.5235 -0.3663 -0.0625
    3CHTO   H49 1176   6.014   0.378   0.583 -0.5801  0.0816 -0.2397
    3CHTO    N4 1177   5.895   0.509   0.683  0.3272  0.5733  0.2603
    3CHTO   H41 1178   5.890   0.559   0.779 -0.2355 -1.1456  1.1409
    3CHTO   H42 1179   5.824   0.428   0.685  1.7541 -0.6877  1.2159
    3CHTO   C22 1180   6.149   0.541   0.645 -0.2837  0.2126 -0.2982
    3CHTO   H50 1181   6.157   0.608   0.731  0.8535  0.9392 -0.9568
    3CHTO   O14 1182   6.279   0.473   0.635  0.3827 -0.0474 -0.0248
    3CHTO   C23 1183   6.314   0.404   0.752 -0.1282 -0.8352  0.0566
    3CHTO   H51 1184   6.327   0.474   0.836 -1.4638  0.4560 -0.7855
    3CHTO   C34 1185   6.452   0.349   0.736  0.1989 -0.2839 -0.7746
    3CHTO   O23 1186   6.552   0.450   0.716  0.1834 -0.1809  0.0355
    3CHTO   H38 1187   6.565   0.494   0.797 -0.9254 -0.5385  0.4271
    3CHTO   O16 1188   6.132   0.606   0.523  0.0086 -0.0815 -0.5554
    3CHTO   C24 1189   6.187   0.760   0.516  0.0767 -0.2563 -0.0312
    3CHTO   H52 1190   6.216   0.800   0.613  1.4475  0.9646 -0.9438
    3CHTO   C26 1191   6.076   0.858   0.470 -0.4306 -0.1788  0.1124
    3CHTO   H54 1192   6.038   0.819   0.373  0.9745 -0.8226 -0.1991
    3CHTO   O20 1193   5.963   0.848   0.558  0.1153 -0.2296 -0.5979
    3CHTO   H36 1194   5.958   0.761   0.593 -0.1518 -0.5199 -1.3577
    3CHTO   C30 1195   6.125   1.005   0.446 -0.0481  0.3675  0.0749
    3CHTO   H58 1196   6.163   1.047   0.540 -0.8376  0.6466  0.2734
    3CHTO    N6 1197   6.011   1.093   0.400  0.1292  0.2749  0.4989
    3CHTO   H45 1198   6.034   1.136   0.304 -0.4058 -1.5466 -0.4679
    3CHTO   H46 1199   5.919   1.037   0.392 -0.1008  0.8918 -1.3182
    3CHTO   C33 1200   6.240   0.999   0.341 -0.5474  0.3309  0.7619
    3CHTO   H61 1201   6.202   0.953   0.249  0.2018  0.5252  0.3520
    3CHTO   O18 1202   6.338   0.914   0.399 -0.1298  0.2304 -0.3450
    3CHTO   C28 1203   6.312   0.772   0.421  0.5068 -0.8799  0.1229
    3CHTO   H56 1204   6.282   0.722   0.329  0.7788  0.7700 -0.8732
    3CHTO   C35 1205   6.447   0.710   0.467 -0.0586  0.0547 -0.5603
    3CHTO   O24 1206   6.502   0.782   0.581 -0.2932 -0.4099  0.2439
    3CHTO   H39 1207   6.567   0.735   0.630  0.3558 -0.2389 -0.4319
    3CHTO    O9 1208   6.298   1.130   0.306 -0.2895  0.2628  0.7314
    3CHTO   C13 1209   6.420   1.181   0.424  0.8141 -0.7968  0.1990
    3CHTO   H26 1210   6.380   1.164   0.526 -0.6068  0.4453 -0.1279
    3CHTO   C11 1211   6.437   1.334   0.407  0.4931  0.1878  0.3421
    3CHTO   H24 1212   6.336   1.375   0.421 -0.4877 -1.9255 -0.2280
    3CHTO    O8 1213   6.457   1.360   0.270  0.1100  0.4721 -0.1969
    3CHTO    H3 1214   6.408   1.302   0.216 -1.1167  1.6205 -0.3435
    3CHTO    C9 1215   6.537   1.398   0.506 -0.5238  0.4260 -0.7486
    3CHTO   H22 1216   6.507   1.374   0.609  2.1316  0.7816  0.1463
    3CHTO    N2 1217   6.527   1.544   0.498  0.4169  0.2092 -0.0759
    3CHTO   H10 1218   6.595   1.586   0.570  1.1376  0.3938 -0.8570
    3CHTO   H11 1219   6.423   1.562   0.519  0.1165 -0.6106 -0.8114
    3CHTO    C7 1220   6.680   1.338   0.482 -0.6491 -0.7292 -0.4099
    3CHTO   H20 1221   6.731   1.363   0.578  1.7444  3.1542 -2.5998
    3CHTO    O4 1222   6.667   1.192   0.473 -0.4102  0.0080  0.1040
    3CHTO   C14 1223   6.561   1.120   0.411  0.5369 -0.0334 -0.3014
    3CHTO   H27 1224   6.551   1.025   0.467 -1.9163  1.2456  1.5205
    3CHTO   C18 1225   6.585   1.082   0.267  0.0829 -0.2265 -0.0935
    3CHTO   O13 1226   6.706   1.003   0.259  0.3023  0.3059  0.2564
    3CHTO    H7 1227   6.710   0.968   0.172  0.1917  1.2532 -0.1449
    3CHTO    O2 1228   6.747   1.386   0.348 -0.2864  0.0919  0.1742
    3CHTO    C1 1229   6.872   1.322   0.320 -0.4699 -0.5251  0.1029
    3CHTO   H14 1230   6.859   1.217   0.288  0.8861 -1.2689  1.8733
    3CHTO    C2 1231   6.992   1.325   0.422 -0.1968  0.1153 -0.2950
    3CHTO   H15 1232   7.004   1.430   0.453 -2.2423  0.5303 -0.8441
    3CHTO    O6 1233   6.961   1.255   0.541  0.4458 -0.1599 -0.1390
    3CHTO    H1 1234   6.930   1.167   0.525  2.5488 -0.8147 -0.7491
    3CHTO    C3 1235   7.130   1.276   0.369 -0.5119 -0.2670  0.1286
    3CHTO   H16 1236   7.146   1.168   0.378  1.4501 -0.1397 -1.4437
    3CHTO    N1 1237   7.240   1.340   0.453 -0.3948  0.2846 -0.2160
    3CHTO    H8 1238   7.214   1.443   0.468  1.6958  1.1571 -2.2417
    3CHTO    H9 1239   7.333   1.348   0.398 -0.6655  2.2294 -0.4401
    3CHTO    C4 1240   7.155   1.307   0.215  0.6093 -0.9730 -0.2337
    3CHTO   H17 1241   7.181   1.412   0.200  0.4662 -0.6649  1.5076
    3CHTO    O1 1242   7.037   1.290   0.136  0.2894  0.2850  0.1550
    3CHTO    C5 1243   6.929   1.372   0.177  0.0626 -0.0325  0.9304
    3CHTO   H18 1244   6.969   1.471   0.197  2.2260 -0.8318  0.6993
    3CHTO   C16 1245   6.807   1.385   0.079  0.1670  1.0881  0.8582
    3CHTO   O11 1246   6.833   1.463  -0.038  0.4650 -0.2661 -0.0883
    3CHTO    H5 1247   6.882   1.539  -0.013  0.1062  0.2376 -0.9026
    3CHTO    O3 1248   7.258   1.228   0.159 -0.3974 -0.2242  0.4846
    3CHTO    C6 1249   7.316   1.270   0.031  0.3384 -0.0192  0.6576
    3CHTO   H19 1250   7.244   1.318  -0.036 -0.5157 -1.3438  0.6094
    3CHTO    C8 1251   7.434   1.367   0.048 -0.0336 -0.0442 -0.0114
    3CHTO   H21 1252   7.487   1.332   0.137 -0.0276  0.0234  0.0122
    3CHTO    O7 1253   7.371   1.493   0.080  0.2918  0.6818 -0.1810
    3CHTO    H2 1254   7.352   1.542   0.002  0.0043 -1.1447 -1.2755
    3CHTO   C12 1255   7.522   1.377  -0.081 -0.2531  0.0620  0.0779
    3CHTO   H25 1256   7.458   1.425  -0.158 -0.4128 -0.5925 -0.1911
    3CHTO    N3 1257   7.629   1.480  -0.078 -0.0307  0.0627 -0.4423
    3CHTO   H12 1258   7.627   1.560  -0.006  1.2864  0.1722 -0.5181
    3CHTO   H13 1259   7.727   1.445  -0.105  0.5795  1.9884 -0.7825
    3CHTO   C15 1260   7.564   1.236  -0.122  0.5728 -0.0633 -0.3343
    3CHTO   H28 1261   7.636   1.188  -0.056  0.5207  0.5237  0.1506
    3CHTO   O10 1262   7.618   1.234  -0.260 -0.5724 -0.0649  0.0681
    3CHTO    H4 1263   7.570   1.294  -0.314 -0.7024 -1.1954 -1.0920
    3CHTO    O5 1264   7.443   1.158  -0.148 -0.0813 -0.4445  0.0774
    3CHTO   C10 1265   7.356   1.133  -0.036 -0.2791 -0.3297 -0.0786
    3CHTO   H23 1266   7.419   1.076   0.032 -0.8560 -2.3782 -1.2383
    3CHTO   C17 1267   7.238   1.058  -0.091 -1.0681  0.4535 -0.1648
    3CHTO   O12 1268   7.265   0.945  -0.178  0.1992 -0.3029 -0.0152
    3CHTO    H6 1269   7.308   0.971  -0.257 -0.2027 -0.5839 -0.3291
    4CHTO  H203 1270   6.085   6.773   2.202 -1.2232  1.4432 -1.3053
    4CHTO   O82 1271   6.164   6.823   2.198 -0.3123  0.1726  0.0798
    4CHTO  C123 1272   6.153   6.967   2.210 -0.4288 -0.0765  0.3992
    4CHTO  H227 1273   6.059   6.991   2.261 -0.7642  1.6088 -0.9434
    4CHTO   O77 1274   6.267   7.001   2.295 -0.1596 -0.1213  0.2548
    4CHTO  C118 1275   6.268   7.148   2.319 -0.7147  0.2248  0.0878
    4CHTO  H222 1276   6.177   7.172   2.377 -0.7583  0.2087  0.0259
    4CHTO  C125 1277   6.393   7.176   2.412  0.0896 -0.4755 -0.5866
    4CHTO   O84 1278   6.396   7.117   2.545  0.0756  0.0273 -0.2200
    4CHTO  H205 1279   6.438   7.034   2.539 -0.3452 -0.2636  0.6969
    4CHTO  C114 1280   6.289   7.231   2.193  0.1578  0.5245  0.4497
    4CHTO  H218 1281   6.385   7.208   2.146 -0.8554 -1.9904 -0.4847
    4CHTO  C116 1282   6.170   7.199   2.097 -0.1628  0.2585 -0.2266
    4CHTO  H220 1283   6.078   7.231   2.151  0.6173  0.8119  0.7851
    4CHTO   O79 1284   6.194   7.271   1.977 -0.6872  0.2346 -0.0908
    4CHTO  H201 1285   6.188   7.364   1.985  2.5360  0.4018  1.0699
    4CHTO  C120 1286   6.149   7.045   2.069  0.1234 -0.4253  0.6974
    4CHTO  H224 1287   6.232   7.002   2.010 -0.0514 -0.1218  0.2262
    4CHTO   N21 1288   6.020   7.010   2.006  0.5678 -0.0868 -0.1844
    4CHTO  H211 1289   6.005   7.093   1.938  1.2796  0.7835  0.7125
    4CHTO  H212 1290   6.034   6.914   1.957 -2.7276 -0.9350  0.4018
    4CHTO   O75 1291   6.292   7.364   2.240 -0.0634 -0.0159  0.0299
    4CHTO  C112 1292   6.360   7.477   2.153 -0.3913  0.3214 -0.1133
    4CHTO  H216 1293   6.354   7.435   2.051 -4.2037  1.5937 -0.4947
    4CHTO   O73 1294   6.494   7.493   2.200  0.1934 -0.3098  0.5727
    4CHTO  C113 1295   6.568   7.590   2.131  0.4505  0.6844  0.2723
    4CHTO  H217 1296   6.571   7.563   2.023 -0.2252 -0.7389  0.6135
    4CHTO  C124 1297   6.714   7.582   2.175  0.1616  0.1096  0.2102
    4CHTO   O83 1298   6.802   7.649   2.086 -0.0342 -0.2146 -0.7644
    4CHTO  H204 1299   6.802   7.603   2.004  3.8388 -1.3146 -0.2543
    4CHTO  C109 1300   6.511   7.732   2.148  0.8850  0.2260 -0.4420
    4CHTO  H213 1301   6.512   7.754   2.256  0.0757 -0.8022 -0.2124
    4CHTO  C110 1302   6.365   7.727   2.098  0.5546  0.4100 -0.5329
    4CHTO  H214 1303   6.361   7.711   1.991 -1.9225 -0.4775 -0.3211
    4CHTO   O78 1304   6.311   7.859   2.114 -0.2800  0.5580  0.4235
    4CHTO  H200 1305   6.220   7.842   2.102  0.3394 -1.2579 -2.0237
    4CHTO  C111 1306   6.283   7.613   2.164  0.5402 -0.2036  0.4912
    4CHTO  H215 1307   6.271   7.637   2.270  0.2089 -1.1281  0.6613
    4CHTO   N19 1308   6.143   7.606   2.111 -0.0301  0.1198  1.2018
    4CHTO  H207 1309   6.122   7.688   2.044  1.1877  0.3307  1.0786
    4CHTO  H208 1310   6.073   7.609   2.193  0.4633  1.4061  1.5869
    4CHTO   O74 1311   6.594   7.829   2.070  0.5317  0.0174 -0.3679
    4CHTO  C115 1312   6.623   7.965   2.120 -0.3776  0.3463 -0.5563
    4CHTO  H219 1313   6.557   7.993   2.203 -1.1105 -1.2343 -0.5827
    4CHTO   O76 1314   6.770   7.978   2.179 -0.1741  0.1300  0.5130
    4CHTO  C122 1315   6.875   7.987   2.084 -0.4113  0.8430  0.1197
    4CHTO  H226 1316   6.882   7.894   2.027 -0.1817  0.7094  0.3673
    4CHTO  C126 1317   7.006   7.994   2.172 -0.1905  0.2049 -0.4902
    4CHTO   O85 1318   7.030   7.886   2.263  0.2125 -0.4124 -0.5413
    4CHTO  H206 1319   6.948   7.860   2.301 -0.2277 -0.3260 -1.4239
    4CHTO  C121 1320   6.857   8.106   1.987 -0.0130 -0.1372  0.4935
    4CHTO  H225 1321   6.934   8.177   2.023  0.3067 -0.4122  0.3521
    4CHTO   O81 1322   6.897   8.060   1.859  0.3136  0.0938 -0.1928
    4CHTO  H202 1323   6.942   8.128   1.813  1.3719  0.1393  0.8622
    4CHTO  C119 1324   6.710   8.171   1.994  0.5148 -0.3316  0.0945
    4CHTO  H223 1325   6.706   8.226   2.088 -1.3548  0.2890 -0.3323
    4CHTO  C117 1326   6.588   8.062   2.001  0.7448 -0.0636  0.3045
    4CHTO  H221 1327   6.568   8.001   1.913  0.1859 -1.6753  1.5281
    4CHTO   N20 1328   6.463   8.136   2.028 -0.6294 -0.7415 -0.1716
    4CHTO  H209 1329   6.472   8.244   2.021  0.0690 -0.6865  1.4337
    4CHTO  H210 1330   6.377   8.079   1.996 -1.1241 -0.2504  0.2836
    4CHTO   O80 1331   6.694   8.285   1.896  0.0476 -0.6511  0.0742
    4CHTO  C103 1332   6.682   8.442   1.960 -0.0669  0.0507 -0.0065
    4CHTO  H190 1333   6.612   8.445   2.043  0.8305 -2.2964  0.9029
    4CHTO  C101 1334   6.821   8.491   2.010  0.7709  0.4709 -0.6884
    4CHTO  H188 1335   6.896   8.454   1.939 -0.2832  0.1325 -1.6353
    4CHTO   O68 1336   6.850   8.446   2.144 -0.3150 -0.2743  0.2401
    4CHTO  H168 1337   6.939   8.474   2.157 -0.3154  0.6424 -1.5733
    4CHTO   C99 1338   6.820   8.647   2.002  0.4098 -0.5583 -0.0779
    4CHTO  H186 1339   6.752   8.687   2.080 -0.4742 -1.0317 -0.5938
    4CHTO   N17 1340   6.954   8.716   2.024  0.0447 -0.1086 -0.0648
    4CHTO  H174 1341   7.032   8.645   2.002  0.8654  0.7692 -0.0254
    4CHTO  H175 1342   6.955   8.733   2.130 -0.2701  0.8067 -0.2014
    4CHTO   C97 1343   6.762   8.700   1.866 -0.5140 -0.0259 -0.1530
    4CHTO  H184 1344   6.826   8.660   1.786  0.6985  1.5149  0.0247
    4CHTO   O64 1345   6.626   8.654   1.854 -0.5101 -0.0738  0.2231
    4CHTO  C104 1346   6.617   8.514   1.836 -0.0314  0.5624  0.2718
    4CHTO  H191 1347   6.668   8.477   1.747  0.2582  1.4615  0.0635
    4CHTO  C108 1348   6.468   8.468   1.829 -0.7450  0.4199 -0.1349
    4CHTO   O71 1349   6.391   8.560   1.749 -0.1055 -0.4236  0.0184
    4CHTO  H171 1350   6.446   8.627   1.712  2.1288 -3.0688 -1.6000
    4CHTO   O62 1351   6.740   8.840   1.847 -0.1785  0.1779 -0.3555
    4CHTO   C91 1352   6.741   8.881   1.709  0.0368 -0.4006  0.1274
    4CHTO  H178 1353   6.760   8.793   1.648 -1.5086 -0.7890  0.1998
    4CHTO   C92 1354   6.866   8.982   1.691 -0.3320  0.3451 -0.1619
    4CHTO  H179 1355   6.856   9.066   1.762 -1.0073 -0.8772  1.2339
    4CHTO   O66 1356   6.993   8.920   1.737 -0.0843  0.2849 -0.2060
    4CHTO  H166 1357   6.994   8.895   1.828  1.6264 -0.8323 -0.5102
    4CHTO   C93 1358   6.873   9.037   1.546  0.7040 -0.1877  0.0922
    4CHTO  H180 1359   6.888   8.951   1.480 -0.2512 -0.5989  0.4021
    4CHTO   N16 1360   6.989   9.133   1.521 -0.2411  0.0462 -0.4901
    4CHTO  H172 1361   6.951   9.234   1.518 -0.3500 -0.0013 -0.6604
    4CHTO  H173 1362   7.069   9.122   1.593  0.0611 -0.0486 -0.8378
    4CHTO   C94 1363   6.735   9.102   1.515  0.0835  0.0441  0.2501
    4CHTO  H181 1364   6.714   9.192   1.573 -2.0710  0.1165 -0.5678
    4CHTO   O61 1365   6.627   9.008   1.534  0.1256 -0.5441  0.2316
    4CHTO   C95 1366   6.611   8.955   1.663 -0.0305 -0.7403  0.0225
    4CHTO  H182 1367   6.592   9.035   1.735  0.4462 -0.3232 -0.3125
    4CHTO  C106 1368   6.489   8.855   1.663  0.0707 -0.0489  0.8372
    4CHTO   O69 1369   6.365   8.925   1.684  0.7972 -0.4004  0.6891
    4CHTO  H169 1370   6.369   9.019   1.690 -1.5743 -0.3383  1.9501
    4CHTO   O63 1371   6.725   9.144   1.354  0.8517  0.3763  0.4971
    4CHTO   C96 1372   6.760   9.041   1.228 -0.8828 -0.1363  0.5372
    4CHTO  H183 1373   6.835   8.967   1.258 -0.5210 -0.3617 -0.9166
    4CHTO   C98 1374   6.817   9.118   1.112  0.3704 -0.3627 -0.7498
    4CHTO  H185 1375   6.745   9.198   1.089  0.3234 -0.0011  0.6581
    4CHTO   O67 1376   6.939   9.180   1.157  0.2402  0.5888 -0.0123
    4CHTO  H167 1377   6.967   9.247   1.098  0.2907  0.1246 -0.5193
    4CHTO  C102 1378   6.834   9.019   0.987  0.1223  0.1420  0.3271
    4CHTO  H189 1379   6.903   8.936   1.012  0.4125  0.1164 -0.5404
    4CHTO   N18 1380   6.896   9.088   0.870 -0.1994  0.1079  0.2460
    4CHTO  H176 1381   6.907   9.194   0.887 -1.1214 -0.1412  2.6603
    4CHTO  H177 1382   6.996   9.051   0.850 -0.6112 -0.5184 -0.6770
    4CHTO  C105 1383   6.694   8.953   0.950 -0.9547 -0.6808 -0.0926
    4CHTO  H192 1384   6.662   8.990   0.852 -0.0847 -0.5807 -0.3454
    4CHTO   O65 1385   6.588   8.977   1.047  0.4586  0.3096  0.5626
    4CHTO  C100 1386   6.624   8.969   1.184  0.5229  0.4361  0.6109
    4CHTO  H187 1387   6.544   9.022   1.239 -0.6539  0.0838 -0.7533
    4CHTO  C107 1388   6.619   8.828   1.244  0.2716 -0.0075 -0.0280
    4CHTO   O70 1389   6.482   8.786   1.247 -0.7719  0.3653 -0.1665
    4CHTO  H170 1390   6.479   8.696   1.271  0.3235  0.3442 -0.0545
    4CHTO   O57 1391   6.731   8.796   0.943 -0.5084  0.1546  0.7572
    4CHTO   C85 1392   6.658   8.705   0.852  0.1117  0.5780  0.2519
    4CHTO  H157 1393   6.565   8.760   0.823  0.9996  1.8898 -0.1535
    4CHTO   C83 1394   6.607   8.582   0.927 -0.7380 -0.4756  0.7209
    4CHTO  H155 1395   6.526   8.616   0.992 -0.7848  1.8625 -0.5115
    4CHTO   O56 1396   6.718   8.541   1.011 -0.1789  0.1375 -0.6463
    4CHTO  H135 1397   6.692   8.458   1.046  1.1048  0.3823  0.9612
    4CHTO   C81 1398   6.549   8.482   0.825  0.0816 -0.3669 -0.0673
    4CHTO  H153 1399   6.477   8.537   0.766  1.1373 -0.2140 -1.2358
    4CHTO   N14 1400   6.468   8.371   0.878 -0.0426 -0.0097  0.2895
    4CHTO  H141 1401   6.381   8.413   0.924 -0.4299  0.0892 -0.5340
    4CHTO  H142 1402   6.438   8.305   0.800 -2.5940 -0.2115  1.3923
    4CHTO   C79 1403   6.659   8.432   0.724 -0.1959  0.1254 -0.2256
    4CHTO  H151 1404   6.614   8.361   0.654 -0.3945 -1.7434  1.7370
    4CHTO   O52 1405   6.693   8.550   0.644  0.4299 -0.1525  0.2798
    4CHTO   C86 1406   6.745   8.662   0.723  0.0589 -0.1263 -0.2110
    4CHTO  H158 1407   6.844   8.629   0.760 -0.3877 -1.1947  0.0429
    4CHTO   C90 1408   6.781   8.776   0.620  0.2446 -0.3058  0.0885
    4CHTO   O60 1409   6.878   8.737   0.521 -0.1014 -0.6990 -0.5644
    4CHTO  H138 1410   6.870   8.803   0.455  0.0227  0.3583  0.4629
    4CHTO   O50 1411   6.775   8.376   0.785  0.0428 -0.1925  0.2032
    4CHTO   C73 1412   6.896   8.319   0.841 -0.1251 -1.2563 -0.1100
    4CHTO  H145 1413   6.895   8.326   0.950  0.9995  0.2002 -0.1798
    4CHTO   C74 1414   7.016   8.405   0.801 -0.1182 -0.9960  0.0554
    4CHTO  H146 1415   6.993   8.509   0.831 -0.0060 -0.6426 -1.0581
    4CHTO   O54 1416   7.139   8.363   0.867  0.0225  0.2410 -0.2174
    4CHTO  H133 1417   7.155   8.271   0.860 -1.9482 -0.4396  3.3877
    4CHTO   C75 1418   7.037   8.394   0.647 -0.2791 -0.4314 -0.4761
    4CHTO  H147 1419   6.948   8.428   0.594 -1.4523  0.2916  1.8660
    4CHTO   N13 1420   7.150   8.469   0.588 -0.6959 -0.0456  0.1468
    4CHTO  H139 1421   7.181   8.411   0.502  0.3023  0.5315  0.1202
    4CHTO  H140 1422   7.117   8.565   0.552 -3.3115 -0.4739  1.2943
    4CHTO   C76 1423   7.053   8.230   0.623 -0.4748 -0.2932  0.1562
    4CHTO  H148 1424   7.140   8.202   0.683 -1.3591 -1.3290  0.9647
    4CHTO   O49 1425   6.942   8.152   0.675 -0.1404 -0.3538 -0.3852
    4CHTO   C77 1426   6.920   8.171   0.816  0.8951 -0.8025 -0.0746
    4CHTO  H149 1427   7.010   8.140   0.869  2.2807  0.6887 -1.4819
    4CHTO   C88 1428   6.794   8.086   0.854  0.2692  0.7952 -0.1988
    4CHTO   O58 1429   6.758   8.097   0.983  0.0914 -0.4805  0.2719
    4CHTO  H136 1430   6.691   8.163   0.983  0.1447 -0.4121 -0.5214
    4CHTO   O51 1431   7.054   8.184   0.469  0.3428 -0.2310  0.4067
    4CHTO   C78 1432   7.191   8.096   0.402 -0.0240  0.5312  0.2287
    4CHTO  H150 1433   7.287   8.139   0.438 -0.2252  0.4201  0.9059
    4CHTO   C80 1434   7.187   8.113   0.250  0.0633  0.2556 -0.6171
    4CHTO  H152 1435   7.087   8.082   0.212 -0.4139  1.5079 -0.4012
    4CHTO   O55 1436   7.200   8.255   0.222 -0.1673 -0.1883 -0.4693
    4CHTO  H134 1437   7.179   8.268   0.131 -0.6413 -0.5999 -0.4247
    4CHTO   C84 1438   7.300   8.033   0.175  0.0064 -0.1721 -0.8099
    4CHTO  H156 1439   7.393   8.074   0.213  0.7174 -3.0521  0.7592
    4CHTO   N15 1440   7.293   8.053   0.022 -0.2341 -0.0264 -0.2063
    4CHTO  H143 1441   7.257   7.962  -0.021  2.0100 -2.2183  2.3207
    4CHTO  H144 1442   7.389   8.083  -0.015  0.2397 -1.8914 -0.5149
    4CHTO   C87 1443   7.298   7.882   0.220 -0.4154 -0.0947  0.0034
    4CHTO  H159 1444   7.209   7.838   0.175  0.5239  2.1968 -4.3211
    4CHTO   O53 1445   7.294   7.874   0.371 -0.4896 -0.0230 -0.1864
    4CHTO   C82 1446   7.177   7.945   0.425  0.2936  0.0740  0.1763
    4CHTO  H154 1447   7.087   7.898   0.387  0.3992 -0.6413  0.7983
    4CHTO   C89 1448   7.179   7.923   0.576 -0.1094 -0.2012  0.6077
    4CHTO   O59 1449   7.153   7.787   0.619 -0.4974 -0.2174  0.0988
    4CHTO  H137 1450   7.067   7.792   0.656 -1.0032  0.1901 -1.0955
    4CHTO   O45 1451   7.420   7.786   0.152 -0.8681  0.3466  0.4714
    4CHTO   C67 1452   7.453   7.666   0.224  0.1172  1.1120 -0.0950
    4CHTO  H124 1453   7.523   7.611   0.160  1.7360  0.7437  1.9623
    4CHTO   C65 1454   7.520   7.684   0.360  0.0700 -0.2616  0.3950
    4CHTO  H122 1455   7.508   7.790   0.382  0.9687 -0.3047  1.1025
    4CHTO   O44 1456   7.662   7.665   0.347  0.2222  0.1028 -0.7413
    4CHTO  H102 1457   7.702   7.667   0.432 -0.7769 -1.1789 -0.2277
    4CHTO   C63 1458   7.445   7.608   0.477 -0.0163  0.4132  0.1556
    4CHTO  H120 1459   7.344   7.650   0.483  0.2964  1.0542  0.9582
    4CHTO   N11 1460   7.494   7.640   0.618 -0.2494  0.0295  0.2005
    4CHTO  H108 1461   7.588   7.595   0.641  1.2366  1.8658 -2.0047
    4CHTO  H109 1462   7.424   7.601   0.689 -0.1069 -2.0309 -0.7519
    4CHTO   C61 1463   7.436   7.452   0.432  0.2983  0.0006  0.4245
    4CHTO  H118 1464   7.374   7.407   0.511 -0.2365  0.5849  0.3422
    4CHTO   O40 1465   7.358   7.443   0.302 -0.0738 -0.1655 -0.1189
    4CHTO   C68 1466   7.329   7.571   0.235  0.3449  0.4349 -0.2262
    4CHTO  H125 1467   7.242   7.617   0.286  1.1504 -0.1464  1.7168
    4CHTO   C72 1468   7.280   7.531   0.082 -0.0234 -0.5278  0.2903
    4CHTO   O48 1469   7.214   7.635   0.008  0.3109  0.1440  0.7357
    4CHTO  H105 1470   7.284   7.682  -0.034  0.7941 -1.0020  0.2239
    4CHTO   O38 1471   7.561   7.390   0.413 -0.2041 -0.2979  0.0632
    4CHTO   C55 1472   7.579   7.261   0.471 -0.0729 -0.2114  0.3267
    4CHTO  H112 1473   7.483   7.215   0.499  0.4867 -0.8337  1.2571
    4CHTO   C56 1474   7.677   7.270   0.595  0.1895  0.1158  0.1364
    4CHTO  H113 1475   7.762   7.330   0.560 -0.0393 -0.0389 -0.6922
    4CHTO   O42 1476   7.612   7.350   0.700  0.6014 -0.3545  0.1999
    4CHTO  H100 1477   7.643   7.320   0.783  1.7839  0.3744  0.0464
    4CHTO   C57 1478   7.709   7.121   0.641 -0.6837  0.1024  0.0905
    4CHTO  H114 1479   7.610   7.079   0.655 -0.8090  0.2942 -0.2303
    4CHTO   N10 1480   7.801   7.120   0.758 -0.1060 -0.5134 -0.9908
    4CHTO  H106 1481   7.749   7.100   0.851 -0.3907  0.6266 -0.9005
    4CHTO  H107 1482   7.855   7.213   0.765 -1.0327  0.0116 -0.8868
    4CHTO   C58 1483   7.768   7.040   0.522  0.6300 -0.2383 -0.6897
    4CHTO  H115 1484   7.871   7.075   0.503  0.3131  0.0129 -1.9784
    4CHTO   O37 1485   7.683   7.044   0.407  0.4062  0.2398 -0.3895
    4CHTO   C59 1486   7.649   7.178   0.360 -0.8451 -0.1879  0.1304
    4CHTO  H116 1487   7.737   7.232   0.326 -1.8915  2.4065  1.4658
    4CHTO   C70 1488   7.555   7.165   0.235 -0.5606 -0.0112 -0.3031
    4CHTO   O46 1489   7.428   7.097   0.261 -0.2268 -0.3638  0.3275
    4CHTO  H103 1490   7.441   7.004   0.263 -2.6600 -0.7199  1.7487
    4CHTO   O39 1491   7.778   6.873   0.570 -0.4962  0.4821 -0.1447
    4CHTO   C60 1492   7.686   6.776   0.534 -0.6480 -0.7865  0.2027
    4CHTO  H117 1493   7.592   6.824   0.506 -0.1206  0.5815  0.7562
    4CHTO   C62 1494   7.720   6.700   0.404 -0.0033  0.0723  0.1684
    4CHTO  H119 1495   7.731   6.774   0.322  2.8329 -0.8121 -0.3135
    4CHTO   O43 1496   7.843   6.624   0.428 -0.0311 -0.2433 -0.1716
    4CHTO  H101 1497   7.916   6.659   0.381 -1.1891  0.9675 -1.1259
    4CHTO   C66 1498   7.598   6.600   0.370  0.3124 -0.6069  0.3974
    4CHTO  H123 1499   7.509   6.662   0.367  2.0170  1.9197  0.4909
    4CHTO   N12 1500   7.622   6.544   0.235 -0.0382  0.6145 -0.1583
    4CHTO  H110 1501   7.661   6.622   0.171  0.3131 -0.2458 -0.9939
    4CHTO  H111 1502   7.680   6.454   0.239  1.3488  1.5558  1.2939
    4CHTO   C69 1503   7.588   6.498   0.488  0.0004 -0.5779 -0.0358
    4CHTO  H126 1504   7.682   6.440   0.503  0.0224 -1.0161 -1.8275
    4CHTO   O41 1505   7.555   6.580   0.623 -0.1251 -0.1481 -0.5938
    4CHTO   C64 1506   7.662   6.687   0.658  0.0426 -0.0324 -0.0047
    4CHTO  H121 1507   7.757   6.639   0.691  0.3462  1.4922  1.4247
    4CHTO   C71 1508   7.590   6.761   0.782  0.1117  0.2889  0.1860
    4CHTO   O47 1509   7.668   6.856   0.858  0.2913 -0.5246  0.1653
    4CHTO  H104 1510   7.694   6.916   0.791  1.1019 -0.1704  0.7939
    4CHTO   O34 1511   7.468   6.398   0.468  0.4399 -0.5634  0.1898
    4CHTO   C49 1512   7.457   6.256   0.423 -0.0969 -0.1102  0.8556
    4CHTO   H91 1513   7.528   6.235   0.343 -0.6918  1.6830 -0.1651
    4CHTO   C47 1514   7.311   6.238   0.377 -0.0970 -0.0709  0.1871
    4CHTO   H89 1515   7.309   6.284   0.276  0.1210 -1.0773 -0.2809
    4CHTO   O33 1516   7.219   6.306   0.464 -0.6344 -0.5146  0.2600
    4CHTO   H70 1517   7.187   6.244   0.527 -0.3121  0.0790  1.0083
    4CHTO   C45 1518   7.266   6.078   0.368 -0.2895 -0.4612 -0.6707
    4CHTO   H87 1519   7.212   6.055   0.461 -1.0052 -1.0943 -1.2365
    4CHTO    N8 1520   7.173   6.061   0.258 -0.5149 -0.1565  0.3103
    4CHTO   H75 1521   7.105   6.145   0.253 -2.1649 -1.5201 -0.7392
    4CHTO   H76 1522   7.114   5.971   0.266  0.1033 -0.4893  1.1993
    4CHTO   C43 1523   7.387   5.974   0.365  0.7907  0.4357 -0.1419
    4CHTO   H85 1524   7.338   5.877   0.378 -1.2301  0.9075 -3.6861
    4CHTO   O29 1525   7.475   6.011   0.469  0.1456  0.1504 -0.3582
    4CHTO   C50 1526   7.485   6.144   0.526  0.4017  0.1999  0.1011
    4CHTO   H92 1527   7.415   6.153   0.611  1.3445 -1.9722  1.1630
    4CHTO   C54 1528   7.623   6.155   0.595  1.1565 -0.0356  0.1093
    4CHTO   O36 1529   7.733   6.160   0.508 -0.1297  0.3124  0.0599
    4CHTO   H72 1530   7.742   6.245   0.471  1.2034  0.4133  0.5680
    4CHTO   O27 1531   7.464   5.976   0.241 -0.4360  0.0880 -0.5190
    4CHTO   C37 1532   7.580   5.923   0.179 -0.3030  0.5556  1.4230
    4CHTO   H79 1533   7.593   5.956   0.075  0.1953 -2.4300  0.4656
    4CHTO   C38 1534   7.715   5.955   0.251 -0.1562 -0.0924  0.1130
    4CHTO   H80 1535   7.691   5.957   0.358 -0.0326 -1.4648  0.1835
    4CHTO   O31 1536   7.751   6.091   0.216 -0.5796 -0.1765  0.0685
    4CHTO   H68 1537   7.813   6.135   0.270 -1.4563  0.8239  0.2861
    4CHTO   C39 1538   7.837   5.855   0.215 -0.2458 -0.1234  0.8706
    4CHTO   H81 1539   7.884   5.888   0.123 -0.9828  0.7060  0.7867
    4CHTO    N7 1540   7.953   5.858   0.315 -0.4258  0.3416 -0.3071
    4CHTO   H73 1541   8.032   5.795   0.275 -2.0788 -1.0102 -1.5520
    4CHTO   H74 1542   7.977   5.958   0.348 -0.7811  0.4892 -0.4975
    4CHTO   C40 1543   7.780   5.713   0.196 -0.7047 -0.1115 -0.2906
    4CHTO   H82 1544   7.766   5.664   0.293 -1.2550 -1.2419 -0.9285
    4CHTO   O26 1545   7.671   5.708   0.112  0.0119  0.0429 -0.0442
    4CHTO   C41 1546   7.553   5.770   0.168  0.6041 -0.0770  0.3873
    4CHTO   H83 1547   7.527   5.732   0.268 -1.0218  1.0869  0.4197
    4CHTO   C52 1548   7.435   5.737   0.074 -0.6134  0.1118 -0.9479
    4CHTO   O35 1549   7.409   5.607   0.095 -0.1434 -0.3956  0.5995
    4CHTO   H71 1550   7.376   5.560   0.022  0.2803  0.5216 -0.1936
    4CHTO   O28 1551   7.878   5.626   0.131  0.0773 -0.0094 -0.1470
    4CHTO   C42 1552   7.864   5.485   0.150 -0.2970  0.2473 -0.7539
    4CHTO   H84 1553   7.931   5.448   0.072  1.4266  1.8899 -0.1101
    4CHTO   C44 1554   7.724   5.420   0.124 -0.1846  0.0543  1.3585
    4CHTO   H86 1555   7.652   5.458   0.196 -1.3057  1.1932 -0.3281
    4CHTO   O32 1556   7.686   5.453  -0.014  0.1983  0.2086  0.1165
    4CHTO   H69 1557   7.596   5.437  -0.033  0.6815  0.7401 -2.9083
    4CHTO   C48 1558   7.711   5.267   0.152 -0.1671 -0.3356 -0.0931
    4CHTO   H90 1559   7.760   5.220   0.066  0.0890 -0.6200  0.2045
    4CHTO    N9 1560   7.573   5.218   0.150 -0.1381 -0.1265 -0.1924
    4CHTO   H77 1561   7.527   5.193   0.245  1.1658 -1.5138  0.1042
    4CHTO   H78 1562   7.518   5.294   0.096  0.3457 -0.0157 -0.5353
    4CHTO   C51 1563   7.784   5.224   0.288  0.1040 -0.4798  0.3748
    4CHTO   H93 1564   7.719   5.256   0.370  0.1322 -0.4486  0.3851
    4CHTO   O30 1565   7.914   5.283   0.299  0.1330 -0.5567 -0.1346
    4CHTO   C46 1566   7.922   5.430   0.290  0.4802 -0.1700 -0.5572
    4CHTO   H88 1567   7.872   5.474   0.377  1.2655  0.0282 -0.1946
    4CHTO   C53 1568   8.070   5.468   0.306  0.4864  0.2564  0.6342
    4CHTO   O72 1569   8.128   5.420   0.428 -0.3470  0.0934  0.0207
    4CHTO  H199 1570   8.219   5.406   0.411 -0.3596 -3.0108  2.1648
    4CHTO   O22 1571   7.810   5.084   0.308  0.1352 -0.4730  0.1343
    4CHTO   C31 1572   7.848   5.030   0.436 -0.5884  0.3307  0.3478
    4CHTO   H59 1573   7.886   5.114   0.498 -0.8135 -0.4208  1.5279
    4CHTO   C29 1574   7.730   4.968   0.516 -0.9025  0.1788  0.3998
    4CHTO   H57 1575   7.694   4.876   0.468  0.3330 -0.6166  0.9471
    4CHTO   O21 1576   7.625   5.065   0.520 -0.2273  0.2549  0.5875
    4CHTO   H37 1577   7.558   5.047   0.582 -0.2896  2.2426  1.1432
    4CHTO   C27 1578   7.771   4.926   0.662  0.6081  0.2307 -0.0728
    4CHTO   H55 1579   7.791   5.020   0.716  0.7406  0.5476 -0.6625
    4CHTO    N5 1580   7.667   4.854   0.736 -0.4732  0.0945 -0.0418
    4CHTO   H43 1581   7.582   4.921   0.734  1.4923  2.7320  0.6719
    4CHTO   H44 1582   7.698   4.845   0.839 -0.1339  1.1998 -0.0351
    4CHTO   C25 1583   7.906   4.834   0.656  0.0573 -0.2233 -0.4372
    4CHTO   H53 1584   7.874   4.739   0.611 -2.7289  0.3538  0.2081
    4CHTO   O17 1585   8.002   4.888   0.559  0.1404  0.3794 -0.0280
    4CHTO   C32 1586   7.961   4.921   0.423 -0.1118 -0.4930 -0.2175
    4CHTO   H60 1587   7.925   4.837   0.365 -1.6249 -0.4423  0.6463
    4CHTO   C36 1588   8.087   4.977   0.344 -0.2651 -0.2502 -0.0311
    4CHTO   O25 1589   8.146   5.087   0.413  0.0401  0.4284  0.3391
    4CHTO   H40 1590   8.237   5.085   0.392  0.0416  0.8509  0.3110
    4CHTO   O15 1591   7.972   4.828   0.801  0.2077  0.4957 -0.1603
    4CHTO   C19 1592   8.015   4.942   0.883  0.3885  0.2896 -0.5143
    4CHTO   H47 1593   8.104   4.901   0.933  0.9985  0.6820 -1.2928
    4CHTO   C20 1594   8.056   5.070   0.811  0.2903 -0.1673  0.1888
    4CHTO   H48 1595   7.976   5.104   0.744  1.7254  0.8680 -1.0191
    4CHTO   O19 1596   8.167   5.029   0.726  0.2229 -0.2501 -0.1710
    4CHTO   H35 1597   8.144   4.962   0.664 -0.8104 -0.0542 -0.0187
    4CHTO   C21 1598   8.105   5.176   0.916 -0.1522 -0.1514  0.0652
    4CHTO   H49 1599   8.189   5.130   0.967  0.9055  0.1097 -1.4011
    4CHTO    N4 1600   8.149   5.306   0.849 -0.1070 -0.0602  0.0735
    4CHTO   H41 1601   8.071   5.380   0.838 -1.3488 -1.5464 -1.4924
    4CHTO   H42 1602   8.236   5.350   0.896 -1.7698  1.5255  1.7627
    4CHTO   C22 1603   7.998   5.196   1.021  0.2292  0.2802  0.1081
    4CHTO   H50 1604   7.906   5.227   0.971  0.0440 -1.7658 -0.8675
    4CHTO   O14 1605   7.962   5.077   1.085 -0.1347 -0.3916 -0.0815
    4CHTO   C23 1606   7.912   4.973   0.998  0.0369 -0.2664  0.1886
    4CHTO   H51 1607   7.817   5.012   0.959  0.8616 -0.6785 -2.3641
    4CHTO   C34 1608   7.878   4.842   1.078  0.0922 -0.7559 -0.2154
    4CHTO   O23 1609   7.993   4.803   1.151  0.2790  0.2786 -0.0740
    4CHTO   H38 1610   7.972   4.724   1.197 -1.7255  0.7773 -0.0884
    4CHTO   O16 1611   8.029   5.296   1.127  0.3502  0.2743 -0.6298
    4CHTO   C24 1612   7.904   5.399   1.159  0.1387  0.4931  0.3643
    4CHTO   H52 1613   7.807   5.350   1.152 -0.1156  1.0992 -0.4637
    4CHTO   C26 1614   7.906   5.513   1.062  0.2116 -0.3822  0.1552
    4CHTO   H54 1615   8.009   5.551   1.043  0.5622 -0.5658  1.6617
    4CHTO   O20 1616   7.861   5.471   0.929 -0.6829  0.0731  0.0485
    4CHTO   H36 1617   7.933   5.474   0.869  0.7977  0.3292  1.7708
    4CHTO   C30 1618   7.810   5.633   1.102  0.3068 -0.0457  0.3604
    4CHTO   H58 1619   7.707   5.608   1.074  0.9889 -0.9125 -1.4966
    4CHTO    N6 1620   7.854   5.755   1.022  0.1805  0.3132 -0.3863
    4CHTO   H45 1621   7.851   5.723   0.919  1.4847 -1.7587  0.1851
    4CHTO   H46 1622   7.956   5.785   1.040  0.8419 -3.5598  3.1475
    4CHTO   C33 1623   7.804   5.657   1.256  0.3227  0.1370  0.2384
    4CHTO   H61 1624   7.888   5.721   1.289  0.5837 -0.4014  0.6213
    4CHTO   O18 1625   7.803   5.538   1.333 -0.1352  0.3030 -0.0518
    4CHTO   C28 1626   7.916   5.453   1.305  0.0699  0.0253 -0.3823
    4CHTO   H56 1627   8.012   5.504   1.315  0.3734 -0.6496  0.2617
    4CHTO   C35 1628   7.905   5.342   1.411 -0.4288 -0.4362  0.0706
    4CHTO   O24 1629   8.027   5.271   1.409 -0.3402 -0.4548 -0.6370
    4CHTO   H39 1630   8.097   5.306   1.461 -1.1433  0.9424 -0.4880
    4CHTO    O9 1631   7.687   5.742   1.285  0.0722 -0.0077 -0.4981
    4CHTO   C13 1632   7.679   5.785   1.457  0.8560 -0.2658  0.1525
    4CHTO   H26 1633   7.696   5.698   1.524  3.4693  0.2231  0.1908
    4CHTO   C11 1634   7.537   5.852   1.480  0.2028  0.4171 -0.5696
    4CHTO   H24 1635   7.460   5.778   1.457 -0.9052  0.7591  1.9057
    4CHTO    O8 1636   7.516   5.954   1.385  0.2668 -0.1640 -0.2109
    4CHTO    H3 1637   7.426   5.980   1.388 -0.2119 -1.8619  0.4636
    4CHTO    C9 1638   7.522   5.906   1.623  0.4197 -0.1016 -0.5328
    4CHTO   H22 1639   7.537   5.819   1.689 -1.1627 -1.1421 -1.5087
    4CHTO    N2 1640   7.380   5.957   1.648  0.0996 -0.4464  0.1864
    4CHTO   H10 1641   7.371   6.012   1.741 -0.2501 -1.0551  0.5174
    4CHTO   H11 1642   7.350   6.010   1.559  0.0969  4.2846  2.8856
    4CHTO    C7 1643   7.640   6.005   1.651 -0.3699  0.1913 -0.0480
    4CHTO   H20 1644   7.630   6.026   1.759  2.1330  1.5239 -0.0429
    4CHTO    O4 1645   7.767   5.947   1.627 -0.3042 -0.0722 -0.0552
    4CHTO   C14 1646   7.799   5.875   1.502  0.3440 -0.1622 -0.0055
    4CHTO   H27 1647   7.881   5.802   1.515 -0.4556 -1.5142 -2.2785
    4CHTO   C18 1648   7.853   5.982   1.407 -0.2544 -0.0116  0.3336
    4CHTO   O13 1649   7.980   6.036   1.435  0.1197  0.1969  0.4028
    4CHTO    H7 1650   7.979   6.075   1.520 -0.4412 -0.4973  0.7209
    4CHTO    O2 1651   7.631   6.149   1.561  0.0258  0.3491  0.3061
    4CHTO    C1 1652   7.678   6.271   1.623  0.1578  0.3590 -0.0139
    4CHTO   H14 1653   7.705   6.344   1.543  2.0767 -0.1475  0.1363
    4CHTO    C2 1654   7.810   6.256   1.714  0.5028 -0.3328 -0.4675
    4CHTO   H15 1655   7.791   6.176   1.786 -1.2171  1.1236  0.7417
    4CHTO    O6 1656   7.924   6.235   1.628 -0.0123 -0.1453 -0.3387
    4CHTO    H1 1657   7.989   6.190   1.678 -0.4296 -0.1165  0.2407
    4CHTO    C3 1658   7.831   6.394   1.792  0.2400  0.0696 -0.4079
    4CHTO   H16 1659   7.861   6.472   1.720  2.1072  0.1741  0.4542
    4CHTO    N1 1660   7.944   6.387   1.893 -0.0230  0.2755  0.1165
    4CHTO    H8 1661   7.917   6.315   1.969  0.3712  2.8149  2.7823
    4CHTO    H9 1662   7.941   6.488   1.932  0.2719  0.4968 -0.4365
    4CHTO    C4 1663   7.696   6.446   1.860 -0.0539 -0.3926  0.4708
    4CHTO   H17 1664   7.671   6.374   1.938  0.1948 -2.1438 -1.0162
    4CHTO    O1 1665   7.593   6.462   1.765 -0.0445  0.0757 -0.0557
    4CHTO    C5 1666   7.559   6.337   1.700  0.2123 -0.0315  0.1861
    4CHTO   H18 1667   7.530   6.266   1.778  1.8696 -0.2074  0.6626
    4CHTO   C16 1668   7.436   6.362   1.611  0.1872  0.7741  0.4821
    4CHTO   O11 1669   7.481   6.455   1.508 -0.0473 -0.3328 -0.1149
    4CHTO    H5 1670   7.492   6.534   1.558  1.3374 -1.5581  1.6074
    4CHTO    O3 1671   7.718   6.575   1.915 -0.8792  0.4703 -0.1086
    4CHTO    C6 1672   7.642   6.608   2.036  0.1601  0.4115  0.4837
    4CHTO   H19 1673   7.578   6.525   2.062 -1.6948  1.3740 -0.8806
    4CHTO    C8 1674   7.732   6.644   2.163  0.4175  0.1565  0.7857
    4CHTO   H21 1675   7.795   6.729   2.136 -0.3292  0.5723  0.3323
    4CHTO    O7 1676   7.796   6.526   2.204 -0.5165  0.2058  0.4253
    4CHTO    H2 1677   7.882   6.532   2.168 -0.7706  1.0133 -0.0556
    4CHTO   C12 1678   7.643   6.694   2.281 -0.0715  0.0198  0.4292
    4CHTO   H25 1679   7.596   6.602   2.320  0.8152 -0.3343  0.6733
    4CHTO    N3 1680   7.726   6.747   2.392 -0.1349 -0.2019  0.3551
    4CHTO   H12 1681   7.662   6.794   2.465 -0.5361 -0.6427  0.2864
    4CHTO   H13 1682   7.784   6.667   2.436  2.5254  1.1925 -0.4638
    4CHTO   C15 1683   7.536   6.794   2.236 -0.1762  0.4274  0.3583
    4CHTO   H28 1684   7.577   6.888   2.201 -0.2189  0.0900 -0.6238
    4CHTO   O10 1685   7.426   6.806   2.351  0.3498  0.1177  0.5827
    4CHTO    H4 1686   7.443   6.888   2.394 -1.7442  1.4718 -1.0871
    4CHTO    O5 1687   7.458   6.741   2.125  0.3058 -0.6082  0.0700
    4CHTO   C10 1688   7.543   6.728   2.007 -0.2496  0.4689 -0.0366
    4CHTO   H23 1689   7.601   6.820   2.006  1.0938 -0.3485  1.2882
    4CHTO   C17 1690   7.461   6.728   1.881 -0.0886 -0.1000 -0.1752
    4CHTO   O12 1691   7.361   6.631   1.875 -0.1402 -0.2809 -0.1648
    4CHTO    H6 1692   7.394   6.557   1.923 -0.8579  0.1634  1.0352
    5CHTO  H203 1693   8.124   3.475   0.980 -0.1529 -2.4556  0.1818
    5CHTO   O82 1694   8.157   3.476   1.068 -0.0294 -0.9909  0.1325
    5CHTO  C123 1695   8.099   3.362   1.140 -1.0405  0.1713  0.6264
    5CHTO  H227 1696   8.123   3.268   1.087 -0.3918  0.6349  0.0763
    5CHTO   O77 1697   8.151   3.377   1.278 -0.0163 -0.5126  0.0926
    5CHTO  C118 1698   8.136   3.259   1.358  0.3796 -0.4890  0.5517
    5CHTO  H222 1699   8.174   3.170   1.305  0.5461 -0.7355  1.0797
    5CHTO  C125 1700   8.217   3.268   1.498 -0.3764  0.4409 -0.1987
    5CHTO   O84 1701   8.352   3.308   1.463 -0.0073 -0.3209  0.6185
    5CHTO  H205 1702   8.341   3.391   1.422 -4.4745  0.1485  2.5232
    5CHTO  C114 1703   7.981   3.250   1.379 -0.4248 -0.2781 -0.1587
    5CHTO  H218 1704   7.950   3.335   1.440  1.3148  0.7793 -0.7158
    5CHTO  C116 1705   7.890   3.256   1.252  0.1464 -0.2626 -0.3203
    5CHTO  H220 1706   7.893   3.155   1.207  0.5323  0.0231 -0.9572
    5CHTO   O79 1707   7.754   3.277   1.284 -0.9642 -0.7119 -0.2451
    5CHTO  H201 1708   7.714   3.193   1.290  0.0787 -1.6450 -4.6062
    5CHTO  C120 1709   7.941   3.368   1.146 -0.5972 -0.1092  0.2476
    5CHTO  H224 1710   7.913   3.465   1.193  0.7834  1.6578 -2.3695
    5CHTO   N21 1711   7.868   3.366   1.013 -0.1339 -0.3237 -0.2447
    5CHTO  H211 1712   7.765   3.332   1.016 -0.7390  1.4123 -1.1169
    5CHTO  H212 1713   7.886   3.446   0.943 -3.0425  2.0125  1.5469
    5CHTO   O75 1714   7.981   3.123   1.450  0.7329  0.2051 -0.3553
    5CHTO  C112 1715   7.837   3.100   1.532  0.5991  0.2874  0.3569
    5CHTO  H216 1716   7.752   3.107   1.462  0.2533  0.0732  0.7499
    5CHTO   O73 1717   7.825   3.197   1.633  0.6343 -0.0619  0.8566
    5CHTO  C113 1718   7.700   3.177   1.703 -0.0381  0.5885  0.6251
    5CHTO  H217 1719   7.622   3.190   1.626  0.9361 -1.5812 -0.7684
    5CHTO  C124 1720   7.676   3.300   1.793  0.8813  0.3549  0.4904
    5CHTO   O83 1721   7.654   3.429   1.722  0.4546  0.0914  0.3134
    5CHTO  H204 1722   7.583   3.475   1.764 -1.1158 -2.7485  0.8870
    5CHTO  C109 1723   7.696   3.046   1.786 -0.7654  0.4663  0.0414
    5CHTO  H213 1724   7.769   3.051   1.868 -0.4326  1.8288 -0.3248
    5CHTO  C110 1725   7.717   2.926   1.692  0.3076 -0.2271 -0.6981
    5CHTO  H214 1726   7.630   2.913   1.627 -0.6099  0.7843  0.3121
    5CHTO   O78 1727   7.731   2.797   1.762 -0.1316 -0.0546  0.2603
    5CHTO  H200 1728   7.658   2.741   1.746  1.2295 -1.6357 -0.6191
    5CHTO  C111 1729   7.842   2.955   1.599  0.1336 -0.1619 -0.0578
    5CHTO  H215 1730   7.931   2.942   1.663 -0.4608  0.7478  0.9880
    5CHTO   N19 1731   7.851   2.854   1.492 -0.5679  0.1725 -0.4585
    5CHTO  H207 1732   7.897   2.765   1.532  0.2873  0.2859 -1.1816
    5CHTO  H208 1733   7.906   2.886   1.405  0.6796 -0.3309  0.1291
    5CHTO   O74 1734   7.560   3.036   1.845 -0.7490 -0.6729  0.2881
    5CHTO  C115 1735   7.550   2.940   1.967 -0.1731  0.5359 -0.7442
    5CHTO  H219 1736   7.639   2.880   1.981 -0.5278  0.1039 -0.3271
    5CHTO   O76 1737   7.535   3.028   2.107 -0.3883  0.1307 -0.2576
    5CHTO  C122 1738   7.421   3.120   2.107 -0.3396  0.0756  0.3500
    5CHTO  H226 1739   7.445   3.214   2.056 -2.7407  0.2688 -0.4846
    5CHTO  C126 1740   7.402   3.147   2.262  0.5360  0.3793  0.1841
    5CHTO   O85 1741   7.320   3.252   2.317 -0.0725 -0.2957  0.1537
    5CHTO  H206 1742   7.360   3.275   2.398  1.7587 -0.7222 -0.6008
    5CHTO  C121 1743   7.293   3.059   2.031  0.4820  0.1253 -0.2514
    5CHTO  H225 1744   7.205   3.082   2.095  0.3150 -1.0246 -0.0566
    5CHTO   O81 1745   7.274   3.118   1.898  0.1024 -0.3394 -0.1567
    5CHTO  H202 1746   7.269   3.212   1.900  1.2919 -0.2812  0.5769
    5CHTO  C119 1747   7.299   2.903   2.024  0.3129 -0.2690 -0.4965
    5CHTO  H223 1748   7.306   2.883   2.131 -4.0823 -0.9667 -0.2528
    5CHTO  C117 1749   7.419   2.843   1.942 -0.1536 -0.0178  0.1516
    5CHTO  H221 1750   7.409   2.843   1.834 -0.4326 -1.4098  0.1775
    5CHTO   N20 1751   7.449   2.707   1.982  0.3130 -0.0248 -0.6582
    5CHTO  H209 1752   7.466   2.701   2.089 -1.8959  1.2021 -0.2057
    5CHTO  H210 1753   7.384   2.633   1.937  1.3672 -1.3522 -0.0438
    5CHTO   O80 1754   7.145   2.814   1.991  0.2927  0.5482 -0.1526
    5CHTO  C103 1755   7.054   2.859   1.883 -0.0918 -0.0248 -0.0611
    5CHTO  H190 1756   7.080   2.958   1.847  2.2249 -0.6219 -0.0593
    5CHTO  C101 1757   7.051   2.755   1.770  0.1267 -0.5366  0.5328
    5CHTO  H188 1758   7.067   2.654   1.807 -1.1372 -0.9271  0.0463
    5CHTO   O68 1759   7.180   2.790   1.674  0.4479  0.5588 -0.7326
    5CHTO  H168 1760   7.218   2.708   1.649 -1.0972 -0.3938 -0.0305
    5CHTO   C99 1761   6.922   2.755   1.677 -0.5759  0.3312 -0.3211
    5CHTO  H186 1762   6.918   2.855   1.629 -2.7146  0.3417 -0.1704
    5CHTO   N17 1763   6.916   2.645   1.571 -1.0033  0.2890  1.0009
    5CHTO  H174 1764   6.926   2.670   1.467  0.1231  0.2472  1.0932
    5CHTO  H175 1765   6.844   2.568   1.593 -1.0428  0.5160  1.6737
    5CHTO   C97 1766   6.802   2.757   1.775  0.3624 -0.1097 -0.2490
    5CHTO  H184 1767   6.812   2.670   1.841 -1.1753 -0.7341 -0.8181
    5CHTO   O64 1768   6.811   2.884   1.849 -0.1356 -0.4527 -0.0762
    5CHTO  C104 1769   6.914   2.869   1.949  0.4393  0.2172  0.0749
    5CHTO  H191 1770   6.893   2.780   2.009  3.2262  0.1254  1.0012
    5CHTO  C108 1771   6.899   2.983   2.051 -0.8112 -0.8583 -0.3590
    5CHTO   O71 1772   6.981   2.965   2.171 -0.0109  0.3138 -0.6920
    5CHTO  H171 1773   6.962   2.881   2.208  0.5442  0.1949 -0.6744
    5CHTO   O62 1774   6.668   2.751   1.710 -0.0902  0.1847  0.0663
    5CHTO   C91 1775   6.562   2.754   1.803  0.0075 -0.6470 -0.2958
    5CHTO  H178 1776   6.596   2.796   1.898 -1.4118 -2.4506  1.0455
    5CHTO   C92 1777   6.510   2.609   1.836  0.1077  0.1104 -0.0217
    5CHTO  H179 1778   6.505   2.556   1.740 -1.0700 -1.3738  0.8429
    5CHTO   O66 1779   6.607   2.536   1.910  0.4551  0.0517  0.4059
    5CHTO  H166 1780   6.567   2.452   1.921 -0.7343  0.6023  0.3460
    5CHTO   C93 1781   6.373   2.602   1.919  0.1251  0.0023  0.6624
    5CHTO  H180 1782   6.395   2.643   2.018 -0.3266 -0.8304  1.1169
    5CHTO   N16 1783   6.309   2.473   1.930  0.1129  0.3211 -0.1596
    5CHTO  H172 1784   6.222   2.474   1.993  0.9959 -0.9909  1.1121
    5CHTO  H173 1785   6.281   2.449   1.828  1.8670  1.5541 -0.9632
    5CHTO   C94 1786   6.280   2.698   1.839  1.7753 -0.3891  0.4286
    5CHTO  H181 1787   6.267   2.668   1.735 -0.0278  0.6779  0.3355
    5CHTO   O61 1788   6.331   2.831   1.837 -0.3085 -0.7493 -0.1376
    5CHTO   C95 1789   6.442   2.844   1.750  0.3674  0.3583 -0.0241
    5CHTO  H182 1790   6.415   2.801   1.653  1.5362 -0.0731 -0.1547
    5CHTO  C106 1791   6.468   2.996   1.748  0.5193 -0.1647  0.5388
    5CHTO   O69 1792   6.557   3.033   1.641 -0.0493  0.1157 -0.1653
    5CHTO  H169 1793   6.647   3.014   1.660 -0.7063 -2.4872  0.5370
    5CHTO   O63 1794   6.127   2.716   1.913 -0.2801 -0.0063  0.1686
    5CHTO   C96 1795   6.008   2.681   1.796  0.0782 -0.0620  0.0002
    5CHTO  H183 1796   6.053   2.626   1.712  2.1454 -0.3925  1.2831
    5CHTO   C98 1797   5.941   2.803   1.730  0.5279  0.9374  0.0830
    5CHTO  H185 1798   5.895   2.865   1.808  1.5163  1.8812 -0.0791
    5CHTO   O67 1799   6.044   2.884   1.669 -0.5049  0.1275  0.8135
    5CHTO  H167 1800   6.099   2.922   1.735  1.0782 -0.7259 -0.0075
    5CHTO  C102 1801   5.841   2.759   1.618 -0.2782  0.2627 -0.0276
    5CHTO  H189 1802   5.903   2.728   1.533 -0.9789  0.9466 -0.8075
    5CHTO   N18 1803   5.756   2.870   1.567 -0.4670 -0.3809 -0.3295
    5CHTO  H176 1804   5.804   2.912   1.480 -0.1162  0.3895  0.2338
    5CHTO  H177 1805   5.658   2.835   1.536 -0.2199 -1.7851  0.4127
    5CHTO  C105 1806   5.753   2.640   1.654 -0.0910 -0.2454 -0.2055
    5CHTO  H192 1807   5.657   2.672   1.694 -0.1523  0.8178 -1.1743
    5CHTO   O65 1808   5.805   2.551   1.754  0.1487 -0.0665 -0.1661
    5CHTO  C100 1809   5.895   2.598   1.854  0.3031  0.4097 -0.0395
    5CHTO  H187 1810   5.841   2.646   1.937 -1.0242  0.3802 -0.8728
    5CHTO  C107 1811   5.957   2.469   1.907 -0.5373  0.1732  0.1498
    5CHTO   O70 1812   5.862   2.390   1.981  0.0018 -0.1619 -0.0133
    5CHTO  H170 1813   5.895   2.397   2.069  1.0404  0.8669 -0.4724
    5CHTO   O57 1814   5.731   2.564   1.502 -0.4333 -0.4086  0.0087
    5CHTO   C85 1815   5.606   2.495   1.479  0.3345  0.6658  0.0881
    5CHTO  H157 1816   5.528   2.563   1.519 -0.2066  0.5390 -0.7367
    5CHTO   C83 1817   5.599   2.361   1.563  0.2904  0.2066 -0.5277
    5CHTO  H155 1818   5.603   2.386   1.669  2.8171  0.1501 -0.5700
    5CHTO   O56 1819   5.720   2.282   1.539  0.7769 -0.1409  0.1258
    5CHTO  H135 1820   5.698   2.211   1.481 -0.4856  0.6544 -0.3793
    5CHTO   C81 1821   5.469   2.286   1.525 -0.8179 -0.7305 -0.1695
    5CHTO  H153 1822   5.387   2.358   1.533  0.9126  1.3926 -0.9309
    5CHTO   N14 1823   5.428   2.176   1.617  0.1427  0.7518  0.8092
    5CHTO  H141 1824   5.327   2.157   1.586  0.2214  1.6745 -0.0370
    5CHTO  H142 1825   5.423   2.202   1.721 -1.1246 -1.3085  1.2907
    5CHTO   C79 1826   5.483   2.241   1.377 -0.1666 -0.4057  0.5933
    5CHTO  H151 1827   5.393   2.185   1.352 -0.3374  0.6569 -1.2779
    5CHTO   O52 1828   5.489   2.357   1.287  0.2115  0.2934  0.0300
    5CHTO   C86 1829   5.582   2.465   1.321 -0.1452  0.4525  0.3222
    5CHTO  H158 1830   5.676   2.433   1.272  0.0510 -0.7196  1.4416
    5CHTO   C90 1831   5.539   2.592   1.247 -0.1535  0.2312  0.1176
    5CHTO   O60 1832   5.587   2.586   1.115  0.5172  0.2028  0.0810
    5CHTO  H138 1833   5.518   2.570   1.054  0.4871  0.2084  0.1135
    5CHTO   O50 1834   5.582   2.144   1.361  0.0656 -0.1162  0.1190
    5CHTO   C73 1835   5.608   2.070   1.247 -0.3049 -0.0096  0.1000
    5CHTO  H145 1836   5.534   2.090   1.169 -0.7374  1.8634  0.9765
    5CHTO   C74 1837   5.596   1.923   1.272 -0.7099  0.3295 -0.0704
    5CHTO  H146 1838   5.492   1.920   1.307  0.0347  1.5428  2.4051
    5CHTO   O54 1839   5.609   1.851   1.151  0.0663  0.3346  0.1178
    5CHTO  H133 1840   5.621   1.759   1.169  0.8959  0.6731  1.3103
    5CHTO   C75 1841   5.698   1.876   1.390  0.9964 -0.7108 -0.0403
    5CHTO  H147 1842   5.669   1.935   1.478 -0.9824 -0.8853 -0.5555
    5CHTO   N13 1843   5.681   1.735   1.434  0.0173  0.0264 -0.0203
    5CHTO  H139 1844   5.747   1.706   1.514 -4.3452 -2.2647  2.9554
    5CHTO  H140 1845   5.685   1.668   1.349 -0.1491  0.9006 -0.7272
    5CHTO   C76 1846   5.845   1.922   1.347 -0.0515 -0.0170  0.4743
    5CHTO  H148 1847   5.880   1.852   1.272  0.0664  1.9539 -1.3681
    5CHTO   O49 1848   5.851   2.056   1.291 -0.2792 -0.2012  0.0321
    5CHTO   C77 1849   5.754   2.095   1.194  0.5582  0.9387  0.1360
    5CHTO  H149 1850   5.768   2.029   1.108 -0.4482 -1.0037  1.4480
    5CHTO   C88 1851   5.780   2.239   1.146 -0.4566 -0.0741 -0.5674
    5CHTO   O58 1852   5.893   2.272   1.051 -0.0054  0.0383 -0.1872
    5CHTO  H136 1853   5.906   2.364   1.036 -0.6245 -0.1708 -2.1990
    5CHTO   O51 1854   5.939   1.929   1.464 -0.3496 -0.9548 -0.3542
    5CHTO   C78 1855   6.086   1.951   1.417 -0.5038 -0.2111 -0.3959
    5CHTO  H150 1856   6.092   1.986   1.313  0.4378 -0.6365 -0.4879
    5CHTO   C80 1857   6.160   1.817   1.419 -0.4515 -0.9583 -0.5631
    5CHTO  H152 1858   6.153   1.772   1.521  0.4928 -0.8518 -0.4540
    5CHTO   O55 1859   6.081   1.729   1.336 -0.0639  0.4301  0.1519
    5CHTO  H134 1860   6.030   1.674   1.392  2.9593 -2.3446  0.3193
    5CHTO   C84 1861   6.311   1.826   1.370  0.6622  0.0627  0.1957
    5CHTO  H156 1862   6.306   1.847   1.263  1.9212 -0.6610 -0.0042
    5CHTO   N15 1863   6.379   1.694   1.382  0.2684 -0.4500  0.1457
    5CHTO  H143 1864   6.314   1.609   1.383  0.7455 -0.8670  4.3666
    5CHTO  H144 1865   6.443   1.682   1.297 -0.9783 -1.8211 -0.6067
    5CHTO   C87 1866   6.377   1.933   1.461 -0.4042 -0.3416  0.1368
    5CHTO  H159 1867   6.377   1.901   1.565  1.8494  2.1887  0.9744
    5CHTO   O53 1868   6.293   2.081   1.447  0.8828  0.0246 -0.7760
    5CHTO   C82 1869   6.159   2.063   1.497 -0.0874  0.4339  0.1376
    5CHTO  H154 1870   6.157   2.035   1.602  1.2494  2.2783  0.6909
    5CHTO   C89 1871   6.079   2.198   1.489 -0.0564  0.0339 -0.1776
    5CHTO   O59 1872   6.127   2.294   1.582 -0.6969  0.0334  0.2355
    5CHTO  H137 1873   6.112   2.252   1.665 -0.6511 -1.6365 -0.5805
    5CHTO   O45 1874   6.534   1.964   1.431 -0.0392  0.0395 -0.1973
    5CHTO   C67 1875   6.604   2.020   1.545  0.1539  0.3043 -0.1846
    5CHTO  H124 1876   6.538   2.036   1.631 -0.8880 -1.2173 -0.6945
    5CHTO   C65 1877   6.725   1.926   1.584  0.2095  0.2862  0.4737
    5CHTO  H122 1878   6.726   1.852   1.505 -1.6639  0.8770 -0.1189
    5CHTO   O44 1879   6.688   1.865   1.708  0.6783  0.1194 -0.6458
    5CHTO  H102 1880   6.733   1.784   1.720 -0.2484 -0.2835  0.1321
    5CHTO   C63 1881   6.867   1.993   1.582 -0.4670 -0.6294  0.0400
    5CHTO  H120 1882   6.886   2.029   1.480 -1.3604 -2.4401 -0.7923
    5CHTO   N11 1883   6.990   1.912   1.613 -0.0126 -0.1951 -0.1817
    5CHTO  H108 1884   7.003   1.833   1.542  0.2796 -0.5528  0.2670
    5CHTO  H109 1885   7.077   1.973   1.617 -1.0047  1.2403 -0.0084
    5CHTO   C61 1886   6.859   2.124   1.664 -0.2994  0.2355  0.9131
    5CHTO  H118 1887   6.953   2.182   1.657 -1.1276  1.3190 -1.7051
    5CHTO   O40 1888   6.761   2.210   1.614 -0.4973 -0.8518 -0.0806
    5CHTO   C68 1889   6.664   2.159   1.514 -0.1856  0.2520 -0.0979
    5CHTO  H125 1890   6.708   2.151   1.412  3.3149 -2.1345  1.4994
    5CHTO   C72 1891   6.561   2.269   1.505 -0.1375  0.0632 -0.3132
    5CHTO   O48 1892   6.611   2.394   1.456  0.0894 -0.0577  0.4040
    5CHTO  H105 1893   6.556   2.450   1.508 -0.5252 -1.8171  1.7036
    5CHTO   O38 1894   6.829   2.099   1.808 -0.0451 -0.2775  0.5304
    5CHTO   C55 1895   6.780   2.203   1.897 -0.0107  0.4975 -0.1656
    5CHTO  H112 1896   6.710   2.268   1.844 -0.4126  0.2241  0.0294
    5CHTO   C56 1897   6.909   2.288   1.951 -0.0418  0.2908  0.2983
    5CHTO  H113 1898   6.986   2.210   1.964 -1.2795 -0.9007  0.6889
    5CHTO   O42 1899   6.951   2.361   1.836 -0.5257 -0.0674  0.1371
    5CHTO  H100 1900   7.023   2.419   1.850 -2.6755  2.3857  1.3949
    5CHTO   C57 1901   6.877   2.385   2.069 -0.2418 -0.4461  0.2902
    5CHTO  H114 1902   6.852   2.485   2.032  0.9851 -1.0207 -2.1606
    5CHTO   N10 1903   7.001   2.436   2.131  0.5024 -0.3350  0.1474
    5CHTO  H106 1904   7.080   2.447   2.058 -1.2677 -0.6420 -1.8915
    5CHTO  H107 1905   7.024   2.360   2.204 -0.6434  0.3891  1.2794
    5CHTO   C58 1906   6.773   2.333   2.172 -0.0473 -0.2989  0.9996
    5CHTO  H115 1907   6.820   2.257   2.238  0.7709 -3.9766 -3.4930
    5CHTO   O37 1908   6.660   2.274   2.096 -0.1200 -0.0779 -0.7535
    5CHTO   C59 1909   6.695   2.152   2.025 -0.4152 -0.2373 -0.4830
    5CHTO  H116 1910   6.749   2.083   2.089 -0.2160 -0.4284 -0.8565
    5CHTO   C70 1911   6.551   2.105   1.979 -0.5046 -0.1663 -0.2413
    5CHTO   O46 1912   6.481   2.193   1.893 -0.2476  0.2943  0.1275
    5CHTO  H103 1913   6.521   2.198   1.809 -1.8744 -0.8253 -0.7554
    5CHTO   O39 1914   6.717   2.470   2.254 -0.5958  0.2253 -0.2830
    5CHTO   C60 1915   6.576   2.492   2.262  0.0746  0.0465 -0.1113
    5CHTO  H117 1916   6.529   2.470   2.166  1.3104  0.2461 -0.7745
    5CHTO   C62 1917   6.508   2.396   2.372 -0.1358 -0.2534 -0.1086
    5CHTO  H119 1918   6.507   2.292   2.333 -1.7147  0.8030 -3.1084
    5CHTO   O43 1919   6.591   2.425   2.485  0.2649  0.1456 -0.1252
    5CHTO  H101 1920   6.585   2.513   2.519  0.7033  0.0817  0.1257
    5CHTO   C66 1921   6.346   2.438   2.386 -0.5058 -0.3371 -0.5159
    5CHTO  H123 1922   6.297   2.411   2.292  0.0918  0.2230 -0.9946
    5CHTO   N12 1923   6.271   2.355   2.486  0.3543  0.6272 -0.2335
    5CHTO  H110 1924   6.266   2.248   2.473 -1.6728  0.5953  0.5446
    5CHTO  H111 1925   6.170   2.393   2.486  1.3912  3.5638  1.7455
    5CHTO   C69 1926   6.338   2.591   2.418  0.2067  0.0181  0.3412
    5CHTO  H126 1927   6.401   2.603   2.508 -0.6093  0.6350  0.8359
    5CHTO   O41 1928   6.404   2.662   2.297  0.1993 -0.4128 -0.6553
    5CHTO   C64 1929   6.554   2.640   2.293  0.5501 -0.4039 -0.4858
    5CHTO  H121 1930   6.609   2.660   2.387  0.8431 -2.8140 -0.1220
    5CHTO   C71 1931   6.609   2.725   2.183 -0.5350 -0.5246  0.2684
    5CHTO   O47 1932   6.604   2.866   2.202 -0.4292 -0.8636  0.0728
    5CHTO  H104 1933   6.515   2.895   2.207  0.0720  0.8497 -0.6577
    5CHTO   O34 1934   6.202   2.653   2.461 -0.1750 -0.0951 -0.6771
    5CHTO   C49 1935   6.179   2.806   2.438  1.0159 -0.4464 -0.2477
    5CHTO   H91 1936   6.240   2.834   2.353  0.7049 -1.0238 -0.6608
    5CHTO   C47 1937   6.229   2.886   2.560  0.1101 -0.1772  0.7449
    5CHTO   H89 1938   6.224   2.992   2.527 -0.3365 -0.6752 -0.8513
    5CHTO   O33 1939   6.367   2.853   2.580 -0.0545 -0.3501  0.1590
    5CHTO   H70 1940   6.377   2.768   2.620 -0.6878 -0.1920  0.6477
    5CHTO   C45 1941   6.143   2.859   2.687 -0.2034  0.7394 -0.4578
    5CHTO   H87 1942   6.133   2.750   2.698  2.6521  0.7085  2.5040
    5CHTO    N8 1943   6.188   2.918   2.816  0.3785 -0.4061  0.1337
    5CHTO   H75 1944   6.281   2.966   2.790 -0.4214  0.3771 -1.2774
    5CHTO   H76 1945   6.108   2.982   2.851  0.3871 -0.5226  0.3704
    5CHTO   C43 1946   5.993   2.906   2.649 -0.2571  0.0775  0.2431
    5CHTO   H85 1947   5.930   2.881   2.734  0.7204 -0.5632  0.7929
    5CHTO   O29 1948   5.942   2.847   2.527  0.2492  0.2355  0.4318
    5CHTO   C50 1949   6.030   2.845   2.413 -0.0584 -0.2236  0.0144
    5CHTO   H92 1950   6.001   2.759   2.351  2.3100 -0.9237 -0.1828
    5CHTO   C54 1951   6.022   2.971   2.323  0.0359  0.8255 -0.4277
    5CHTO   O36 1952   5.891   2.988   2.278 -0.4367  0.2266 -0.1616
    5CHTO   H72 1953   5.897   3.044   2.203  0.7075  0.5986  0.2046
    5CHTO   O27 1954   5.989   3.050   2.627 -0.0891  0.9564 -0.8352
    5CHTO   C37 1955   5.908   3.162   2.645  0.5779 -0.0135 -0.9088
    5CHTO   H79 1956   5.903   3.226   2.556  0.1160 -1.0016 -1.5901
    5CHTO   C38 1957   5.761   3.125   2.672  0.3580  0.3141 -0.2910
    5CHTO   H80 1958   5.757   3.063   2.762 -0.8628  0.1174 -0.4744
    5CHTO   O31 1959   5.709   3.053   2.553 -0.3732 -0.3191  0.1038
    5CHTO   H68 1960   5.621   3.024   2.569 -0.6756 -0.4696 -1.7078
    5CHTO   C39 1961   5.672   3.251   2.714  0.8850 -0.0249  0.3855
    5CHTO   H81 1962   5.675   3.326   2.635 -0.1777  0.6305  0.9538
    5CHTO    N7 1963   5.528   3.231   2.743  0.3317  0.0380 -0.3237
    5CHTO   H73 1964   5.508   3.140   2.798 -2.2720  1.2869  0.8930
    5CHTO   H74 1965   5.463   3.217   2.657 -0.6002 -0.7791  0.5031
    5CHTO   C40 1966   5.738   3.321   2.832 -0.6968  0.2555 -0.0085
    5CHTO   H82 1967   5.741   3.262   2.924 -2.7276  0.9340  0.5036
    5CHTO   O26 1968   5.869   3.359   2.792  0.0282  0.2544 -0.5814
    5CHTO   C41 1969   5.964   3.253   2.764 -0.3846  0.4350 -0.2518
    5CHTO   H83 1970   5.972   3.195   2.858  0.5930  1.4884  0.3280
    5CHTO   C52 1971   6.109   3.314   2.738 -0.3845  0.3603  0.1093
    5CHTO   O35 1972   6.175   3.363   2.856  0.0515  0.3069  0.1237
    5CHTO   H71 1973   6.111   3.389   2.919  0.2972  1.8553 -0.2495
    5CHTO   O28 1974   5.685   3.453   2.864 -0.3617  0.4159  0.2101
    5CHTO   C42 1975   5.709   3.521   2.990 -0.4021  0.1661  0.0475
    5CHTO   H84 1976   5.671   3.620   2.965  0.6659 -0.1842 -3.1373
    5CHTO   C44 1977   5.861   3.532   3.046  0.4242 -0.4757  0.4601
    5CHTO   H86 1978   5.934   3.508   2.968  3.1363  2.1423  2.0651
    5CHTO   O32 1979   5.876   3.674   3.065  0.7719 -0.6235  0.6061
    5CHTO   H69 1980   5.819   3.706   3.133  2.5376  1.0501  1.3592
    5CHTO   C48 1981   5.903   3.445   3.176  0.1166  0.3255  0.5865
    5CHTO   H90 1982   5.865   3.489   3.268 -1.1737  1.8405 -0.6603
    5CHTO    N9 1983   6.056   3.419   3.198  0.3875 -0.3503 -0.0779
    5CHTO   H77 1984   6.105   3.516   3.202 -0.9805  0.3278  0.6194
    5CHTO   H78 1985   6.093   3.340   3.134  3.0527 -1.1576  2.3804
    5CHTO   C51 1986   5.828   3.313   3.169 -0.0330 -0.5292 -0.6572
    5CHTO   H93 1987   5.869   3.264   3.080  0.4462 -0.8388 -0.2738
    5CHTO   O30 1988   5.688   3.334   3.153 -0.1912  0.2894  0.1684
    5CHTO   C46 1989   5.617   3.459   3.099 -0.3764 -0.8253  0.6504
    5CHTO   H88 1990   5.532   3.415   3.046  0.5075 -1.2498 -0.4331
    5CHTO   C53 1991   5.583   3.560   3.207 -0.3623  0.0980  0.2980
    5CHTO   O72 1992   5.539   3.685   3.149  0.5448 -0.3714 -0.2754
    5CHTO  H199 1993   5.606   3.750   3.142  0.0612  0.2771  0.8881
    5CHTO   O22 1994   5.841   3.222   3.282  0.7907 -0.4949 -0.3125
    5CHTO   C31 1995   5.842   3.074   3.269 -0.0652  0.8070 -0.2076
    5CHTO   H59 1996   5.796   3.039   3.364  1.1728 -1.5620 -0.4481
    5CHTO   C29 1997   5.753   3.016   3.152  0.1697  0.0579 -0.0516
    5CHTO   H57 1998   5.784   3.072   3.063 -0.4190 -0.3955 -0.5430
    5CHTO   O21 1999   5.619   3.049   3.175 -0.3786  0.1155 -0.5416
    5CHTO   H37 2000   5.566   3.030   3.099  2.0434 -1.4757 -1.9035
    5CHTO   C27 2001   5.770   2.861   3.126  0.6018  0.8524 -0.2873
    5CHTO   H55 2002   5.705   2.803   3.194 -0.9120 -0.6350 -2.8914
    5CHTO    N5 2003   5.733   2.823   2.987  0.2186 -0.1549  0.1988
    5CHTO   H43 2004   5.773   2.884   2.907 -2.0821  1.7642  0.4373
    5CHTO   H44 2005   5.705   2.720   2.967  1.2912 -0.6713  1.3011
    5CHTO   C25 2006   5.919   2.804   3.149 -0.2163  0.0495 -0.0404
    5CHTO   H53 2007   5.978   2.832   3.061 -0.8575 -1.2163 -0.8997
    5CHTO   O17 2008   5.979   2.865   3.264 -0.1210 -0.3968 -0.2917
    5CHTO   C32 2009   5.981   3.009   3.254 -0.1786  0.5237 -0.3905
    5CHTO   H60 2010   6.019   3.036   3.155  2.4962  0.3749  0.5715
    5CHTO   C36 2011   6.080   3.064   3.358 -0.2632 -0.1531 -0.0885
    5CHTO   O25 2012   6.211   3.008   3.348 -0.7109 -0.3500 -0.3749
    5CHTO   H40 2013   6.194   2.937   3.407  0.4426  0.1603  0.6040
    5CHTO   O15 2014   5.918   2.647   3.162 -0.0505  0.1190 -0.1252
    5CHTO   C19 2015   5.996   2.527   3.174 -0.1319 -0.2349  0.3523
    5CHTO   H47 2016   6.074   2.546   3.249  0.3141 -0.1705 -0.1210
    5CHTO   C20 2017   5.912   2.405   3.216 -0.1582  0.4002 -0.2440
    5CHTO   H48 2018   5.818   2.400   3.159 -0.5939 -0.5014  0.5538
    5CHTO   O19 2019   5.868   2.428   3.351  0.5592  0.6853 -0.0284
    5CHTO   H35 2020   5.813   2.503   3.352  3.5997  3.0279 -0.2297
    5CHTO   C21 2021   5.984   2.268   3.209  0.2485 -0.4349 -0.1978
    5CHTO   H49 2022   6.054   2.264   3.292 -1.5747  1.1053  1.4536
    5CHTO    N4 2023   5.890   2.151   3.233  0.0041  0.2747 -0.2513
    5CHTO   H41 2024   5.919   2.059   3.184 -0.3052 -1.1799  2.2093
    5CHTO   H42 2025   5.885   2.132   3.339  2.2231 -0.3231 -0.2284
    5CHTO   C22 2026   6.076   2.262   3.085  0.0667  0.2811 -0.9949
    5CHTO   H50 2027   6.021   2.231   2.997  0.6557  1.5252 -1.8095
    5CHTO   O14 2028   6.150   2.378   3.062 -0.4424  0.2651 -0.3521
    5CHTO   C23 2029   6.077   2.500   3.044  0.0654 -0.0609 -0.4862
    5CHTO   H51 2030   6.014   2.489   2.955  1.8221 -0.8971 -1.6520
    5CHTO   C34 2031   6.179   2.607   3.009  0.0217 -0.4814  0.2001
    5CHTO   O23 2032   6.217   2.583   2.872 -0.2960  0.6561  0.2094
    5CHTO   H38 2033   6.287   2.637   2.840  1.1497 -1.0324  0.4293
    5CHTO   O16 2034   6.184   2.166   3.112  0.7182 -0.0062 -0.3347
    5CHTO   C24 2035   6.244   2.091   2.988  0.3120  0.2912  0.4041
    5CHTO   H52 2036   6.207   2.131   2.894  1.9235  0.6455 -0.1070
    5CHTO   C26 2037   6.214   1.935   3.009 -0.7375 -0.0020 -0.1683
    5CHTO   H54 2038   6.248   1.906   3.110 -1.7311  0.2687  0.2508
    5CHTO   O20 2039   6.077   1.917   2.997 -0.1418  0.0657 -0.4406
    5CHTO   H36 2040   6.045   1.846   3.049 -2.8060 -0.0181 -2.1384
    5CHTO   C30 2041   6.296   1.848   2.912 -0.4422 -0.5002 -0.3024
    5CHTO   H58 2042   6.248   1.855   2.813 -3.2603 -0.0239  1.0479
    5CHTO    N6 2043   6.290   1.704   2.943  0.1467 -0.1651  0.0105
    5CHTO   H45 2044   6.322   1.678   3.043 -1.6382 -1.5636  0.2484
    5CHTO   H46 2045   6.339   1.649   2.864  0.3529  0.2685 -0.1661
    5CHTO   C33 2046   6.444   1.903   2.911 -0.8269  0.1728  0.0192
    5CHTO   H61 2047   6.483   1.895   3.013  0.9388  1.1211 -0.5565
    5CHTO   O18 2048   6.442   2.040   2.872  0.0241 -0.3848 -0.4307
    5CHTO   C28 2049   6.398   2.119   2.986 -0.5686 -0.4086  0.5104
    5CHTO   H56 2050   6.441   2.085   3.080  0.2406 -0.4955  0.1090
    5CHTO   C35 2051   6.425   2.267   2.939  0.6783  0.0920  0.0323
    5CHTO   O24 2052   6.427   2.345   3.057  0.1459 -0.3810  0.1505
    5CHTO   H39 2053   6.467   2.427   3.036 -0.7137  0.0962  0.3527
    5CHTO    O9 2054   6.536   1.822   2.827  0.4034 -0.4778 -0.1979
    5CHTO   C13 2055   6.533   1.825   2.669  0.4502 -0.1629  0.0145
    5CHTO   H26 2056   6.431   1.797   2.635  0.6591 -1.4090  0.4072
    5CHTO   C11 2057   6.639   1.727   2.617 -0.0961  0.2852  0.2824
    5CHTO   H24 2058   6.608   1.627   2.650 -0.5979  0.5475  0.6140
    5CHTO    O8 2059   6.764   1.754   2.679 -0.2559  0.1163  0.0464
    5CHTO    H3 2060   6.818   1.678   2.677  1.1577  1.1090 -0.6815
    5CHTO    C9 2061   6.637   1.720   2.460 -0.0784 -0.1280 -0.4328
    5CHTO   H22 2062   6.532   1.700   2.435  0.3332 -0.5036 -1.8731
    5CHTO    N2 2063   6.713   1.611   2.396 -0.0722 -0.5960 -0.1638
    5CHTO   H10 2064   6.808   1.639   2.352  0.0002 -1.2714 -0.4395
    5CHTO   H11 2065   6.718   1.523   2.459 -0.6931  0.6735  1.7123
    5CHTO    C7 2066   6.682   1.861   2.409  0.8510  0.3765 -0.4546
    5CHTO   H20 2067   6.668   1.860   2.299  0.6795 -2.9053 -0.4694
    5CHTO    O4 2068   6.596   1.963   2.463 -0.7113 -0.3951  0.0506
    5CHTO   C14 2069   6.557   1.966   2.598 -0.5017 -0.1335  0.1827
    5CHTO   H27 2070   6.456   2.013   2.598  0.0137  0.9896 -0.5719
    5CHTO   C18 2071   6.657   2.065   2.675  0.1558 -0.0379  0.0422
    5CHTO   O13 2072   6.602   2.196   2.663 -0.2152  0.1823  0.3227
    5CHTO    H7 2073   6.563   2.210   2.579  0.9214 -1.7528 -0.5579
    5CHTO    O2 2074   6.842   1.903   2.444 -0.5565 -0.1000 -0.1846
    5CHTO    C1 2075   6.906   1.970   2.341  0.2271 -0.2672 -0.3416
    5CHTO   H14 2076   6.839   2.051   2.305 -0.1590  0.0872  1.1707
    5CHTO    C2 2077   6.957   1.883   2.215 -0.2921  0.1876  0.6320
    5CHTO   H15 2078   7.022   1.803   2.254 -0.5744 -0.3800 -0.0514
    5CHTO    O6 2079   6.844   1.819   2.147 -0.0822 -0.4774  0.4569
    5CHTO    H1 2080   6.760   1.825   2.189  0.8031  0.7029  2.1615
    5CHTO    C3 2081   7.052   1.975   2.119  0.0737  0.1452  0.0941
    5CHTO   H16 2082   6.998   2.050   2.059 -1.1808 -0.5678  0.3021
    5CHTO    N1 2083   7.104   1.881   2.014  0.2250 -0.1178 -0.5839
    5CHTO    H8 2084   7.019   1.870   1.948 -0.2040  1.0338 -0.2356
    5CHTO    H9 2085   7.129   1.788   2.063 -0.7766 -0.3373 -0.4681
    5CHTO    C4 2086   7.165   2.048   2.199 -0.5527 -0.7633 -0.0592
    5CHTO   H17 2087   7.242   1.976   2.224  0.0280  0.1961  0.9518
    5CHTO    O1 2088   7.097   2.121   2.304  0.1259  0.0134  0.1842
    5CHTO    C5 2089   7.028   2.047   2.407 -0.1198  0.1393 -0.0887
    5CHTO   H18 2090   7.092   1.974   2.456 -1.4163 -0.9098  0.0687
    5CHTO   C16 2091   6.978   2.150   2.514  0.3834 -0.4263  0.1702
    5CHTO   O11 2092   6.886   2.240   2.460 -0.1739 -0.5680 -0.1158
    5CHTO    H5 2093   6.820   2.196   2.410  1.0692  0.1843 -2.5421
    5CHTO    O3 2094   7.223   2.157   2.109 -0.9117  0.7579 -0.0160
    5CHTO    C6 2095   7.363   2.197   2.129 -0.3731 -0.8420  0.2215
    5CHTO   H19 2096   7.419   2.129   2.194 -4.2342 -1.9113  2.5897
    5CHTO    C8 2097   7.428   2.178   1.993 -0.0899  0.4072  0.5358
    5CHTO   H21 2098   7.371   2.235   1.920  0.9752  0.5709 -0.1760
    5CHTO    O7 2099   7.433   2.042   1.954 -0.4174 -0.6792  0.3300
    5CHTO    H2 2100   7.472   2.040   1.869  1.6385  2.2536  1.1400
    5CHTO   C12 2101   7.577   2.234   1.995 -0.3412 -0.2104  0.2898
    5CHTO   H25 2102   7.639   2.155   2.042  0.8857 -1.6382 -3.5059
    5CHTO    N3 2103   7.642   2.239   1.857 -0.1807 -0.6690  0.1857
    5CHTO   H12 2104   7.641   2.138   1.818 -1.7425  0.1400 -1.9824
    5CHTO   H13 2105   7.601   2.315   1.793  2.0398  2.2246  2.1021
    5CHTO   C15 2106   7.581   2.371   2.070 -0.4913 -0.5344  0.3880
    5CHTO   H28 2107   7.531   2.454   2.020 -1.7983 -1.1345  0.6695
    5CHTO   O10 2108   7.735   2.425   2.109  0.4091  0.1110 -0.2073
    5CHTO    H4 2109   7.747   2.475   2.187  0.4979 -1.2536  0.6869
    5CHTO    O5 2110   7.527   2.357   2.198 -0.1272 -0.1995  0.1767
    5CHTO   C10 2111   7.385   2.331   2.190 -0.2073  0.7629 -0.1944
    5CHTO   H23 2112   7.333   2.411   2.138 -1.4129  1.3511  1.8569
    5CHTO   C17 2113   7.330   2.324   2.335 -0.4314 -0.6562  0.2186
    5CHTO   O12 2114   7.326   2.454   2.400 -0.3398 -0.0536 -0.3533
    5CHTO    H6 2115   7.276   2.506   2.340 -0.7814  1.1692  1.0319
    6CHTO  H203 2116   7.319   4.130   0.308 -0.4507 -0.6249 -0.0700
    6CHTO   O82 2117   7.227   4.132   0.287 -0.5234 -0.2202  0.2701
    6CHTO  C123 2118   7.173   4.260   0.266  0.0386  0.1741  0.1787
    6CHTO  H227 2119   7.232   4.316   0.192 -0.1966  0.3293  0.1106
    6CHTO   O77 2120   7.044   4.227   0.200  0.3580  0.0862  0.0230
    6CHTO  C118 2121   6.971   4.343   0.156 -0.1193  0.0930  0.2694
    6CHTO  H222 2122   7.030   4.411   0.093 -0.1341  0.8609  1.0705
    6CHTO  C125 2123   6.849   4.293   0.073  0.2656 -0.1767  0.0782
    6CHTO   O84 2124   6.906   4.226  -0.040 -0.1271 -0.5293 -0.6615
    6CHTO  H205 2125   6.850   4.207  -0.113 -0.7548 -0.1493 -0.2826
    6CHTO  C114 2126   6.918   4.415   0.278  0.0339 -0.3047  0.0747
    6CHTO  H218 2127   6.861   4.344   0.337  0.5049 -1.7153 -1.1211
    6CHTO  C116 2128   7.041   4.450   0.375 -0.0813 -0.2634  0.0569
    6CHTO  H220 2129   7.097   4.539   0.339 -1.9632  0.5724 -0.8430
    6CHTO   O79 2130   6.977   4.488   0.499  0.1969 -0.0229  0.0598
    6CHTO  H201 2131   6.992   4.579   0.517  1.8752 -0.4263  0.8818
    6CHTO  C120 2132   7.144   4.335   0.401  0.0163 -0.6738  0.6853
    6CHTO  H224 2133   7.093   4.272   0.478  0.2725  0.1960  1.5830
    6CHTO   N21 2134   7.270   4.384   0.469  0.7559  0.6451 -0.2077
    6CHTO  H211 2135   7.293   4.487   0.445  2.7784  0.4177  0.6953
    6CHTO  H212 2136   7.256   4.372   0.576 -3.9919 -2.4802 -0.9909
    6CHTO   O75 2137   6.848   4.540   0.242  0.2520  0.5343 -0.5001
    6CHTO  C112 2138   6.733   4.576   0.350 -0.4756  0.2733 -0.2457
    6CHTO  H216 2139   6.776   4.582   0.450  0.3771 -1.0980 -0.5244
    6CHTO   O73 2140   6.634   4.469   0.347  0.1878 -0.1841  0.3989
    6CHTO  C113 2141   6.516   4.486   0.427  0.2683 -0.0996 -0.0413
    6CHTO  H217 2142   6.546   4.491   0.534 -0.1612 -1.7899  0.1645
    6CHTO  C124 2143   6.422   4.374   0.408  0.3739  0.4289 -0.1476
    6CHTO   O83 2144   6.438   4.265   0.498 -0.5206 -0.5188 -0.0731
    6CHTO  H204 2145   6.515   4.213   0.485 -0.7560 -0.6730 -0.8487
    6CHTO  C109 2146   6.442   4.617   0.390  0.4355 -0.2427  0.4501
    6CHTO  H213 2147   6.414   4.613   0.283 -0.7354  1.6822  0.6721
    6CHTO  C110 2148   6.538   4.745   0.406 -0.4354  0.0909  0.0086
    6CHTO  H214 2149   6.559   4.779   0.507 -2.2037  3.9854 -0.8273
    6CHTO   O78 2150   6.464   4.862   0.356  0.0499  0.1326 -0.0237
    6CHTO  H200 2151   6.389   4.889   0.406  0.3877  0.5768  0.2423
    6CHTO  C111 2152   6.667   4.717   0.320  0.1662  0.0280  0.2489
    6CHTO  H215 2153   6.636   4.720   0.214 -0.8912 -2.9200  0.4036
    6CHTO   N19 2154   6.763   4.827   0.341 -0.1130 -0.2790 -0.4323
    6CHTO  H207 2155   6.852   4.783   0.299 -0.3547 -1.6263  0.4541
    6CHTO  H208 2156   6.785   4.841   0.446 -0.1136 -0.3639 -0.4208
    6CHTO   O74 2157   6.313   4.626   0.459 -0.0107  0.1401  0.3529
    6CHTO  C115 2158   6.319   4.642   0.612  0.3201  0.0357 -0.3618
    6CHTO  H219 2159   6.412   4.606   0.657  0.1510  0.5423  0.3893
    6CHTO   O76 2160   6.315   4.796   0.656 -0.9132 -0.5607 -0.2747
    6CHTO  C122 2161   6.201   4.869   0.616  0.4777  0.2224  0.2582
    6CHTO  H226 2162   6.207   4.888   0.509 -0.2493 -1.8480 -0.1758
    6CHTO  C126 2163   6.204   5.008   0.690  0.2274  0.0005 -0.3159
    6CHTO   O85 2164   6.223   5.002   0.833 -0.1540 -0.1351  0.2294
    6CHTO  H206 2165   6.165   5.066   0.869  0.2563 -1.0129  2.5005
    6CHTO  C121 2166   6.068   4.796   0.654  0.2601 -0.6562  0.0742
    6CHTO  H225 2167   5.995   4.863   0.705 -0.1365  0.9456 -2.5421
    6CHTO   O81 2168   6.000   4.769   0.528 -0.1504  0.1854 -0.2234
    6CHTO  H202 2169   6.053   4.709   0.480  2.6815  1.0073  1.7449
    6CHTO  C119 2170   6.092   4.661   0.732  0.6088 -0.4489 -0.8770
    6CHTO  H223 2171   6.125   4.687   0.832  0.4170  1.6892 -1.3328
    6CHTO  C117 2172   6.201   4.565   0.666 -0.1086 -0.2117 -0.4275
    6CHTO  H221 2173   6.160   4.520   0.576 -1.2521 -0.8795  0.4137
    6CHTO   N20 2174   6.244   4.448   0.752  0.3858  0.6708  0.0439
    6CHTO  H209 2175   6.208   4.464   0.853 -1.6694 -0.1613 -0.5420
    6CHTO  H210 2176   6.194   4.360   0.715  0.1892  2.0545 -3.1181
    6CHTO   O80 2177   5.957   4.585   0.761  0.2892  0.4920  0.0835
    6CHTO  C103 2178   5.910   4.566   0.902 -0.3836  0.6403  0.3493
    6CHTO  H190 2179   5.989   4.521   0.963 -0.7135 -0.6278 -0.1367
    6CHTO  C101 2180   5.854   4.694   0.972  0.5524  0.2691 -0.5886
    6CHTO  H188 2181   5.788   4.742   0.900  0.3554 -0.3584 -0.8384
    6CHTO   O68 2182   5.979   4.796   0.998  0.1870  0.4408 -0.0280
    6CHTO  H168 2183   6.031   4.795   0.920 -1.4372 -1.1033 -1.1080
    6CHTO   C99 2184   5.768   4.650   1.104  0.5436  0.2640  0.6152
    6CHTO  H186 2185   5.837   4.612   1.183  0.4609 -1.0582  0.0554
    6CHTO   N17 2186   5.694   4.764   1.160 -0.1359  0.7338  0.4847
    6CHTO  H174 2187   5.699   4.770   1.268  0.0510 -1.5878  0.6260
    6CHTO  H175 2188   5.722   4.854   1.106 -1.2030  0.6078 -0.2758
    6CHTO   C97 2189   5.671   4.531   1.075 -0.8397  1.1077  0.0750
    6CHTO  H184 2190   5.591   4.562   1.005  0.9966 -0.1222 -2.6290
    6CHTO   O64 2191   5.743   4.425   1.022 -0.7026  0.3575 -0.0992
    6CHTO  C104 2192   5.796   4.457   0.891  0.0087  0.1880  0.4778
    6CHTO  H191 2193   5.727   4.490   0.813 -0.1431 -0.1510  0.4674
    6CHTO  C108 2194   5.854   4.326   0.829 -0.2133 -0.1214 -0.0410
    6CHTO   O71 2195   5.769   4.223   0.803 -0.6503  0.4085 -0.6685
    6CHTO  H171 2196   5.729   4.192   0.881 -2.0077  3.0110 -0.2688
    6CHTO   O62 2197   5.623   4.477   1.196 -0.1619 -0.1604 -0.0323
    6CHTO   C91 2198   5.502   4.406   1.208 -0.3283  0.1308 -0.2480
    6CHTO  H178 2199   5.424   4.479   1.231 -2.5880 -2.3328  0.1953
    6CHTO   C92 2200   5.511   4.332   1.344 -0.0496  0.2030 -0.2996
    6CHTO  H179 2201   5.568   4.390   1.417  0.0790 -1.3067  0.8120
    6CHTO   O66 2202   5.376   4.326   1.395 -0.4837  0.3985 -0.0723
    6CHTO  H166 2203   5.364   4.377   1.473  0.1772 -1.3920  1.2198
    6CHTO   C93 2204   5.575   4.191   1.325 -0.4125  0.2831  0.4109
    6CHTO  H180 2205   5.561   4.124   1.411 -0.3723 -0.2671 -0.0064
    6CHTO   N16 2206   5.726   4.190   1.304 -0.0914  0.1144 -0.4922
    6CHTO  H172 2207   5.763   4.153   1.209  0.4222 -1.3106  0.2478
    6CHTO  H173 2208   5.758   4.293   1.311 -1.9739  0.6181  1.0773
    6CHTO   C94 2209   5.509   4.112   1.204 -0.1003  0.1838 -0.6691
    6CHTO  H181 2210   5.579   4.096   1.122 -1.2281  2.5535 -2.1596
    6CHTO   O61 2211   5.402   4.186   1.139  0.4374  0.3051 -0.3390
    6CHTO   C95 2212   5.453   4.310   1.085 -0.0197  0.1821 -0.1361
    6CHTO  H182 2213   5.535   4.291   1.016 -1.1558  0.1288 -1.4939
    6CHTO  C106 2214   5.348   4.382   1.009 -0.2247  0.1501  0.0566
    6CHTO   O69 2215   5.295   4.317   0.891  0.0790 -0.3939 -0.4380
    6CHTO  H169 2216   5.242   4.241   0.904  0.2400 -0.5011 -0.4203
    6CHTO   O63 2217   5.454   3.974   1.267  0.2473 -0.1266 -0.4881
    6CHTO   C96 2218   5.460   3.859   1.174  0.4423  0.1757 -0.0344
    6CHTO  H183 2219   5.534   3.885   1.098  1.1725  0.4358  0.7487
    6CHTO   C98 2220   5.327   3.835   1.099 -0.6067  0.7924  0.7456
    6CHTO  H185 2221   5.247   3.801   1.166  0.4929 -1.0184  1.1824
    6CHTO   O67 2222   5.278   3.957   1.039  0.7435  0.0910  0.1984
    6CHTO  H167 2223   5.230   3.943   0.960  1.1192 -1.2577  0.1871
    6CHTO  C102 2224   5.360   3.723   0.985 -0.6064  0.1951  0.1642
    6CHTO  H189 2225   5.394   3.777   0.896 -0.1547  0.9643  0.7964
    6CHTO   N18 2226   5.234   3.657   0.944 -0.3609  0.8250 -0.3731
    6CHTO  H176 2227   5.190   3.595   1.020  2.9326 -0.1379  0.8360
    6CHTO  H177 2228   5.267   3.603   0.856  1.2028  0.2292  0.5595
    6CHTO  C105 2229   5.462   3.611   1.035  0.3823  0.1200  0.1452
    6CHTO  H192 2230   5.438   3.512   0.996  2.1181  0.1404 -1.0272
    6CHTO   O65 2231   5.471   3.600   1.180 -0.1878 -0.2354 -0.4149
    6CHTO  C100 2232   5.510   3.722   1.248  0.8985 -0.3897  0.1697
    6CHTO  H187 2233   5.457   3.710   1.343 -0.6108  0.2875 -0.5579
    6CHTO  C107 2234   5.664   3.721   1.282 -0.0094  0.2131  0.3914
    6CHTO   O70 2235   5.710   3.847   1.333 -0.3148 -0.0685 -0.1121
    6CHTO  H170 2236   5.683   3.917   1.277 -0.9957 -0.0763  0.1982
    6CHTO   O57 2237   5.593   3.652   0.978  0.0665 -0.0713 -0.2317
    6CHTO   C85 2238   5.646   3.580   0.866 -0.1422  0.2888  0.2594
    6CHTO  H157 2239   5.568   3.557   0.791  0.9487 -0.1305 -0.7732
    6CHTO   C83 2240   5.696   3.441   0.921  0.3967  0.2121 -0.8391
    6CHTO  H155 2241   5.606   3.382   0.942 -0.4505  1.7055 -0.2506
    6CHTO   O56 2242   5.764   3.455   1.051 -0.4630  0.7305 -0.3295
    6CHTO  H135 2243   5.819   3.530   1.045 -0.1207  0.4412 -0.8283
    6CHTO   C81 2244   5.775   3.369   0.817 -1.0709 -0.3005  1.0374
    6CHTO  H153 2245   5.714   3.365   0.727  1.1768  0.2850 -0.5672
    6CHTO   N14 2246   5.803   3.230   0.859 -0.5011 -0.0066  0.7078
    6CHTO  H141 2247   5.738   3.165   0.804  2.3246 -1.1157 -1.4482
    6CHTO  H142 2248   5.791   3.211   0.963 -2.6215 -0.8938  0.3375
    6CHTO   C79 2249   5.906   3.449   0.781 -0.0262  0.1523 -0.2306
    6CHTO  H151 2250   5.958   3.403   0.697  0.3609 -0.2691  0.2366
    6CHTO   O52 2251   5.871   3.585   0.734  0.0984 -0.1603  0.0320
    6CHTO   C86 2252   5.763   3.662   0.800  1.3163  0.0023  0.2975
    6CHTO  H158 2253   5.814   3.725   0.875  1.5406  0.2710 -0.0837
    6CHTO   C90 2254   5.703   3.763   0.701  0.5046 -0.2744 -0.2395
    6CHTO   O60 2255   5.806   3.846   0.648 -0.2023  0.2609 -0.0708
    6CHTO  H138 2256   5.861   3.785   0.601 -3.4020 -2.0721 -0.9807
    6CHTO   O50 2257   5.993   3.457   0.891 -0.4738 -0.6354  0.9104
    6CHTO   C73 2258   6.128   3.466   0.946 -0.0570 -0.0665 -0.1901
    6CHTO  H145 2259   6.174   3.367   0.942  0.4544  0.1754 -0.4381
    6CHTO   C74 2260   6.113   3.523   1.094 -0.2154 -0.5408  0.3304
    6CHTO  H146 2261   6.053   3.454   1.156  0.1787 -0.7966  0.4268
    6CHTO   O54 2262   6.243   3.503   1.158 -0.3161 -0.9571 -0.1429
    6CHTO  H133 2263   6.254   3.551   1.238  0.9305 -1.5164  0.0516
    6CHTO   C75 2264   6.055   3.668   1.095 -0.3432 -0.6125  0.1026
    6CHTO  H147 2265   5.957   3.663   1.046  0.8447 -2.2885 -2.2030
    6CHTO   N13 2266   6.026   3.724   1.228 -0.2147  0.1321 -0.3770
    6CHTO  H139 2267   6.119   3.739   1.281 -0.8499 -0.3171  0.8843
    6CHTO  H140 2268   5.952   3.665   1.279  0.1310  1.4528  1.7204
    6CHTO   C76 2269   6.154   3.754   1.004  0.1590  0.2334 -0.3278
    6CHTO  H148 2270   6.252   3.747   1.050  0.3088 -2.5857 -1.0089
    6CHTO   O49 2271   6.165   3.700   0.865 -0.0013  0.3041 -0.0768
    6CHTO   C77 2272   6.219   3.566   0.865 -0.2222  0.4965  0.6547
    6CHTO  H149 2273   6.323   3.558   0.896  0.2985  2.0209 -0.6367
    6CHTO   C88 2274   6.215   3.524   0.714  0.0415 -0.6779 -0.2808
    6CHTO   O58 2275   6.272   3.391   0.702 -0.5468  0.5232 -0.0917
    6CHTO  H136 2276   6.274   3.366   0.612  0.5176 -0.6927  0.2531
    6CHTO   O51 2277   6.111   3.890   0.988 -0.1091  0.1142 -0.4158
    6CHTO   C78 2278   6.199   4.006   1.071 -0.0819 -0.1653 -0.6530
    6CHTO  H150 2279   6.240   3.958   1.162  0.3817 -1.9510 -1.7797
    6CHTO   C80 2280   6.109   4.132   1.109  0.1560  0.2841 -0.0857
    6CHTO  H152 2281   6.082   4.179   1.012  0.0573 -0.6004 -0.4831
    6CHTO   O55 2282   5.990   4.075   1.170 -0.0086 -0.1157  0.2056
    6CHTO  H134 2283   6.004   4.064   1.262  2.1656 -0.8970 -0.1895
    6CHTO   C84 2284   6.184   4.242   1.198 -0.1992  0.0788  0.4394
    6CHTO  H156 2285   6.220   4.179   1.280  0.6410 -1.2835 -0.9314
    6CHTO   N15 2286   6.093   4.355   1.243  0.0254 -0.3817  0.5347
    6CHTO  H143 2287   6.015   4.368   1.171 -0.1439  2.8527  1.2303
    6CHTO  H144 2288   6.049   4.335   1.339 -1.5661 -0.1363 -0.1391
    6CHTO   C87 2289   6.306   4.286   1.121 -0.7291  0.0196 -0.5479
    6CHTO  H159 2290   6.275   4.329   1.026 -0.2008 -1.7367 -1.5422
    6CHTO   O53 2291   6.388   4.150   1.082 -0.3535  0.2404  0.0113
    6CHTO   C82 2292   6.315   4.058   0.994  0.2122 -0.0649  0.0640
    6CHTO  H154 2293   6.278   4.103   0.902  0.7989  0.0199 -0.1343
    6CHTO   C89 2294   6.425   3.959   0.953  0.1094 -0.3478  0.0074
    6CHTO   O59 2295   6.471   3.882   1.065  0.2397  0.0724 -0.1498
    6CHTO  H137 2296   6.541   3.830   1.030  0.4640 -2.7200  4.0945
    6CHTO   O45 2297   6.391   4.379   1.219  0.2325  0.3445  0.0591
    6CHTO   C67 2298   6.520   4.412   1.173  0.2022 -0.0917 -0.3808
    6CHTO  H124 2299   6.582   4.323   1.170  0.5186  0.0678  0.8268
    6CHTO   C65 2300   6.516   4.480   1.026  1.2656 -0.2668  0.3514
    6CHTO  H122 2301   6.413   4.510   1.006  1.0738 -1.1543  0.0368
    6CHTO   O44 2302   6.549   4.387   0.924 -0.1455 -0.2428 -0.3952
    6CHTO  H102 2303   6.638   4.359   0.931  0.0909  0.6383  0.0942
    6CHTO   C63 2304   6.589   4.620   1.023  0.2883 -0.7035  0.3180
    6CHTO  H120 2305   6.540   4.691   1.090  2.0584  0.8651 -0.0062
    6CHTO   N11 2306   6.580   4.712   0.902  0.0558 -0.3309 -0.1595
    6CHTO  H108 2307   6.662   4.780   0.911  1.7101 -1.9939 -2.2937
    6CHTO  H109 2308   6.486   4.763   0.894  0.3339  0.3155  0.6179
    6CHTO   C61 2309   6.734   4.607   1.073  0.3762 -0.0262  0.4629
    6CHTO  H118 2310   6.779   4.707   1.082  0.6995 -0.2048  0.8866
    6CHTO   O40 2311   6.733   4.555   1.212 -0.2579  0.5129 -0.4074
    6CHTO   C68 2312   6.607   4.509   1.273  0.0846  0.5845 -0.2166
    6CHTO  H125 2313   6.538   4.593   1.296 -0.8697 -0.3558  0.4221
    6CHTO   C72 2314   6.641   4.444   1.414 -0.1671  0.9173 -0.4525
    6CHTO   O48 2315   6.707   4.537   1.505  0.7427 -0.4397  0.4083
    6CHTO  H105 2316   6.733   4.499   1.587  2.1195  1.0564  0.6837
    6CHTO   O38 2317   6.811   4.526   0.982 -0.3222  0.0472 -0.0426
    6CHTO   C55 2318   6.953   4.553   0.990 -0.1648  0.3924  0.1088
    6CHTO  H112 2319   6.976   4.617   1.077  0.3185  1.2131 -0.6070
    6CHTO   C56 2320   6.989   4.623   0.857  0.1680  0.1599 -0.2000
    6CHTO  H113 2321   6.957   4.546   0.785  2.0681 -0.5480 -0.3284
    6CHTO   O42 2322   6.920   4.749   0.841 -0.5462  0.1440  0.6767
    6CHTO  H100 2323   6.946   4.804   0.912 -1.6583 -0.2055  1.3574
    6CHTO   C57 2324   7.143   4.650   0.839 -0.2668  0.2833  0.0483
    6CHTO  H114 2325   7.165   4.734   0.905 -1.9507 -0.4401  1.5627
    6CHTO   N10 2326   7.179   4.696   0.699  0.0147  0.2800 -0.2450
    6CHTO  H106 2327   7.098   4.750   0.651  1.0608  0.6004 -1.7088
    6CHTO  H107 2328   7.265   4.762   0.699  0.5036 -0.3306  2.0244
    6CHTO   C58 2329   7.224   4.525   0.881  0.1245 -0.0330  0.4375
    6CHTO  H115 2330   7.231   4.450   0.799  0.5569 -1.0925  1.4291
    6CHTO   O37 2331   7.173   4.461   1.002  0.1441  0.1861  0.3025
    6CHTO   C59 2332   7.033   4.421   1.010  0.3744 -0.1431  0.5447
    6CHTO  H116 2333   7.013   4.351   0.929 -0.7026  1.4332 -0.5859
    6CHTO   C70 2334   7.004   4.352   1.147 -0.3932  0.3271  0.1359
    6CHTO   O46 2335   6.869   4.306   1.150 -0.2482  0.5101  0.3191
    6CHTO  H103 2336   6.865   4.214   1.131  0.6246  0.3074  1.0814
    6CHTO   O39 2337   7.353   4.574   0.920  0.1584  0.5547 -0.0767
    6CHTO   C60 2338   7.469   4.481   0.915  0.0417 -0.0526 -0.4659
    6CHTO  H117 2339   7.427   4.400   0.974 -0.4639  1.4732  1.3236
    6CHTO   C62 2340   7.511   4.421   0.769 -0.4898 -0.3583  0.2385
    6CHTO  H119 2341   7.417   4.378   0.728 -0.8449  2.3268 -1.8812
    6CHTO   O43 2342   7.541   4.542   0.693  0.5662 -0.2442 -0.2154
    6CHTO  H101 2343   7.568   4.515   0.607  1.6474  0.1967 -0.0233
    6CHTO   C66 2344   7.636   4.326   0.780 -0.3610 -0.4902  0.0444
    6CHTO  H123 2345   7.612   4.248   0.852 -1.5043  0.5554  0.8274
    6CHTO   N12 2346   7.669   4.262   0.649 -0.0568 -0.4222 -0.2580
    6CHTO  H110 2347   7.751   4.193   0.657  0.6937  0.3380 -1.2617
    6CHTO  H111 2348   7.669   4.325   0.561 -1.3124  2.1537  1.5326
    6CHTO   C69 2349   7.756   4.419   0.824  0.0306  0.2283 -0.8031
    6CHTO  H126 2350   7.770   4.496   0.745  0.2762  0.1823 -0.8044
    6CHTO   O41 2351   7.729   4.490   0.977 -0.0694 -0.1517 -0.2889
    6CHTO   C64 2352   7.582   4.552   1.003  0.0719 -0.4850 -0.5897
    6CHTO  H121 2353   7.596   4.660   0.983  1.1205 -0.3190  0.9740
    6CHTO   C71 2354   7.562   4.533   1.154  0.6489  0.5737  0.4352
    6CHTO   O47 2355   7.439   4.587   1.203 -0.1313  0.0955  0.2354
    6CHTO  H104 2356   7.416   4.540   1.281 -1.7175  1.4241  0.6127
    6CHTO   O34 2357   7.895   4.328   0.851 -0.2701  0.5899 -0.2513
    6CHTO   C49 2358   8.035   4.356   0.817 -0.5152 -0.3807 -0.2136
    6CHTO   H91 2359   8.057   4.311   0.720  1.1727  0.2045 -0.1205
    6CHTO   C47 2360   8.120   4.284   0.923  0.2454 -0.6265 -0.1345
    6CHTO   H89 2361   8.223   4.287   0.883  0.2991 -2.6832 -0.1953
    6CHTO   O33 2362   8.075   4.150   0.938  0.8469 -0.1027 -0.3275
    6CHTO   H70 2363   7.984   4.136   0.918  0.6338  1.0691 -0.2367
    6CHTO   C45 2364   8.111   4.365   1.063 -0.3057 -0.2123 -0.4468
    6CHTO   H87 2365   8.004   4.377   1.088  0.0752  0.1037  1.0693
    6CHTO    N8 2366   8.176   4.306   1.182  0.3053 -0.1594  0.8236
    6CHTO   H75 2367   8.176   4.371   1.268 -0.4909  0.6953  0.1850
    6CHTO   H76 2368   8.282   4.291   1.167  0.4474  2.2847 -0.8633
    6CHTO   C43 2369   8.155   4.520   1.043  0.1640 -0.0814 -0.0940
    6CHTO   H85 2370   8.138   4.570   1.139 -1.1613 -1.3684  0.3639
    6CHTO   O29 2371   8.085   4.580   0.932 -0.2475  0.6971 -0.0245
    6CHTO   C50 2372   8.069   4.502   0.809 -0.7012 -0.8822  0.5806
    6CHTO   H92 2373   7.993   4.554   0.747  1.7241  1.5330 -0.4883
    6CHTO   C54 2374   8.199   4.507   0.724 -0.1329 -0.2630 -0.5111
    6CHTO   O36 2375   8.214   4.642   0.677  0.7633 -0.7745  0.2438
    6CHTO   H72 2376   8.283   4.657   0.616  0.2836  0.8757  0.0886
    6CHTO   O27 2377   8.298   4.525   1.030  0.6510 -0.0799  0.3044
    6CHTO   C37 2378   8.396   4.623   1.063 -0.5442 -0.1575  0.3470
    6CHTO   H79 2379   8.500   4.586   1.062 -0.9558 -1.3143 -0.8748
    6CHTO   C38 2380   8.401   4.742   0.955  0.3026  0.4227  0.2102
    6CHTO   H80 2381   8.299   4.773   0.926  0.1279 -1.1154 -0.8588
    6CHTO   O31 2382   8.468   4.694   0.839  0.0739 -0.2405 -0.0518
    6CHTO   H68 2383   8.471   4.751   0.764  0.8331 -2.7586 -2.0031
    6CHTO   C39 2384   8.478   4.868   1.011 -0.4407  0.0428 -0.4462
    6CHTO   H81 2385   8.585   4.850   1.015 -0.8194 -2.1264  0.1511
    6CHTO    N7 2386   8.462   4.985   0.924 -0.1941  0.1364 -0.1063
    6CHTO   H73 2387   8.534   5.061   0.949 -0.7347  0.5548  0.1825
    6CHTO   H74 2388   8.473   4.958   0.820  2.9733 -0.4337  0.3182
    6CHTO   C40 2389   8.456   4.901   1.167 -0.3349 -0.5256  0.0213
    6CHTO   H82 2390   8.360   4.950   1.179 -0.0524  0.0623 -0.0928
    6CHTO   O26 2391   8.466   4.786   1.253  0.3404  0.7524 -0.0573
    6CHTO   C41 2392   8.371   4.684   1.209 -0.2407  0.7482 -0.0351
    6CHTO   H83 2393   8.271   4.728   1.216 -0.2776  0.6604 -0.0173
    6CHTO   C52 2394   8.392   4.566   1.306 -0.1394 -0.1397 -0.2659
    6CHTO   O35 2395   8.394   4.579   1.453 -0.1797 -0.2440  0.2241
    6CHTO   H71 2396   8.307   4.558   1.481 -0.0304  0.2086  1.0215
    6CHTO   O28 2397   8.562   4.992   1.206 -0.0540 -0.0300 -0.1184
    6CHTO   C42 2398   8.550   5.083   1.322  0.5289  0.5011  0.1148
    6CHTO   H84 2399   8.640   5.145   1.317  0.5169  0.6179  1.1064
    6CHTO   C44 2400   8.557   5.017   1.474 -0.0475  0.0539  0.5054
    6CHTO   H86 2401   8.460   4.971   1.492  0.2712 -0.8071  0.0482
    6CHTO   O32 2402   8.663   4.920   1.467  0.2051  0.7811  0.2252
    6CHTO   H69 2403   8.648   4.849   1.408  0.4635  1.4428 -0.6474
    6CHTO   C48 2404   8.576   5.127   1.584  0.6102 -0.5856 -0.0334
    6CHTO   H90 2405   8.674   5.174   1.571  0.5927 -0.8075 -0.9634
    6CHTO    N9 2406   8.585   5.065   1.727  0.9737  0.1352  0.2701
    6CHTO   H77 2407   8.687   5.068   1.764  0.9896  2.1174  0.0948
    6CHTO   H78 2408   8.518   5.123   1.787  1.1984  0.1832  0.4774
    6CHTO   C51 2409   8.459   5.236   1.570 -0.5974  0.5643  0.0544
    6CHTO   H93 2410   8.369   5.181   1.598  0.5819 -1.7079 -0.5623
    6CHTO   O30 2411   8.455   5.290   1.431  0.4712  0.6653  0.0720
    6CHTO   C46 2412   8.427   5.180   1.318 -0.3975 -0.6424  0.1492
    6CHTO   H88 2413   8.336   5.124   1.338 -1.2760  0.3520 -0.9664
    6CHTO   C53 2414   8.411   5.247   1.180 -0.4360 -0.2351 -0.1330
    6CHTO   O72 2415   8.350   5.371   1.197  0.0259 -0.1972 -0.0887
    6CHTO  H199 2416   8.261   5.374   1.227  0.3718 -0.6546  1.0104
    6CHTO   O22 2417   8.485   5.344   1.664 -0.4194 -0.4028 -0.0235
    6CHTO   C31 2418   8.379   5.440   1.699  0.1141 -0.3505  0.9127
    6CHTO   H59 2419   8.415   5.498   1.787 -0.7688 -0.0217  1.0643
    6CHTO   C29 2420   8.339   5.547   1.588  0.7389  0.1236 -0.2923
    6CHTO   H57 2421   8.287   5.483   1.515 -1.7876  2.0860 -0.3072
    6CHTO   O21 2422   8.451   5.600   1.519  0.3674 -0.0850 -0.2486
    6CHTO   H37 2423   8.485   5.681   1.552 -1.4602  0.5765  0.1137
    6CHTO   C27 2424   8.236   5.653   1.646  0.0498  0.4023 -0.5391
    6CHTO   H55 2425   8.286   5.706   1.728  1.6787 -2.1375  0.1534
    6CHTO    N5 2426   8.199   5.750   1.537 -0.4031 -0.3835 -0.2304
    6CHTO   H43 2427   8.222   5.714   1.438  1.9586  1.9607 -0.5804
    6CHTO   H44 2428   8.221   5.851   1.567  0.9595 -1.0858  1.1944
    6CHTO   C25 2429   8.113   5.577   1.707  0.5556 -0.3742  0.1823
    6CHTO   H53 2430   8.058   5.527   1.626  1.4488  0.5837 -1.0389
    6CHTO   O17 2431   8.154   5.477   1.802  0.4550 -0.0669  0.1052
    6CHTO   C32 2432   8.240   5.378   1.747 -0.6919  0.3184 -0.6151
    6CHTO   H60 2433   8.191   5.316   1.672 -1.1157 -1.6903  1.2757
    6CHTO   C36 2434   8.262   5.279   1.863 -0.0249 -0.0354  1.0505
    6CHTO   O25 2435   8.135   5.230   1.914 -0.2027 -0.2643 -0.7231
    6CHTO   H40 2436   8.146   5.138   1.926 -1.1138 -0.3543 -0.5406
    6CHTO   O15 2437   8.015   5.674   1.779  0.2388 -0.4990  0.4773
    6CHTO   C19 2438   7.929   5.705   1.893 -0.0425  0.7423  1.0271
    6CHTO   H47 2439   7.952   5.624   1.963  2.7055  0.4446 -0.1512
    6CHTO   C20 2440   7.966   5.844   1.963 -0.1840 -0.9896  0.1043
    6CHTO   H48 2441   7.954   5.929   1.895 -0.4874 -0.3687  0.9260
    6CHTO   O19 2442   8.105   5.842   2.003 -0.3188  0.6078 -0.0589
    6CHTO   H35 2443   8.156   5.827   1.926 -0.3821 -0.5161  0.1165
    6CHTO   C21 2444   7.868   5.875   2.086  0.0669  0.1219  0.4525
    6CHTO   H49 2445   7.872   5.796   2.162 -1.3848 -0.3899  0.0135
    6CHTO    N4 2446   7.897   5.998   2.155  0.0861  0.0538 -0.2285
    6CHTO   H41 2447   7.828   6.037   2.228 -1.1809 -0.6626 -1.0449
    6CHTO   H42 2448   8.000   6.025   2.176  0.5788 -2.4128  0.7191
    6CHTO   C22 2449   7.729   5.869   2.020 -0.2963 -0.5864 -0.3739
    6CHTO   H50 2450   7.725   5.933   1.932  0.9052 -1.4122 -1.0475
    6CHTO   O14 2451   7.700   5.732   1.975  0.1618 -0.2810 -0.7613
    6CHTO   C23 2452   7.772   5.692   1.855 -0.4002 -0.3117 -0.0352
    6CHTO   H51 2453   7.735   5.773   1.790 -1.4176 -0.0456  0.8643
    6CHTO   C34 2454   7.721   5.556   1.815 -0.4698 -0.5899 -0.0866
    6CHTO   O23 2455   7.748   5.514   1.679  0.3008 -0.7343 -0.0124
    6CHTO   H38 2456   7.706   5.564   1.613  0.3580  0.6912  0.9987
    6CHTO   O16 2457   7.623   5.892   2.109  0.1762 -0.1064 -0.1158
    6CHTO   C24 2458   7.481   5.950   2.032  0.1040 -0.2999  0.1972
    6CHTO   H52 2459   7.485   5.943   1.924 -1.0211  1.1460  0.0420
    6CHTO   C26 2460   7.458   6.100   2.059  0.1286  0.2024 -0.3995
    6CHTO   H54 2461   7.451   6.115   2.169  1.8788  0.3929 -0.2887
    6CHTO   O20 2462   7.579   6.164   2.024  0.1376 -0.0332 -0.4807
    6CHTO   H36 2463   7.628   6.170   2.104 -1.1444 -0.7304  0.3808
    6CHTO   C30 2464   7.336   6.162   1.992  0.2782 -0.2865 -0.3342
    6CHTO   H58 2465   7.354   6.157   1.883 -0.7130  0.8425 -0.5590
    6CHTO    N6 2466   7.304   6.300   2.031 -0.2497  0.2640  0.3144
    6CHTO   H45 2467   7.302   6.365   1.945  2.5215  1.1645  0.8893
    6CHTO   H46 2468   7.219   6.312   2.097  0.8536 -1.2337  2.0832
    6CHTO   C33 2469   7.210   6.074   2.024  0.3637  0.5968  0.4711
    6CHTO   H61 2470   7.175   6.096   2.126  0.9405 -1.3969  1.1089
    6CHTO   O18 2471   7.237   5.930   2.018 -0.7247  0.0042  0.4424
    6CHTO   C28 2472   7.353   5.876   2.081 -0.2495 -0.5221  0.3938
    6CHTO   H56 2473   7.346   5.882   2.190  0.5272  0.1279  0.4073
    6CHTO   C35 2474   7.359   5.721   2.044  0.2558  0.1192  0.4185
    6CHTO   O24 2475   7.372   5.707   1.900 -0.0096  0.8403 -0.6682
    6CHTO   H39 2476   7.331   5.625   1.878  0.9992 -0.2040  1.1893
    6CHTO    O9 2477   7.100   6.111   1.935 -0.2458 -0.0729  0.0833
    6CHTO   C13 2478   6.941   6.121   2.016  0.1477 -0.1067 -0.5602
    6CHTO   H26 2479   6.955   6.198   2.095  1.0364 -0.5622 -0.2652
    6CHTO   C11 2480   6.901   5.978   2.074  0.0847 -0.5977  0.1330
    6CHTO   H24 2481   6.975   5.948   2.149  1.9832  0.0816 -1.4146
    6CHTO    O8 2482   6.898   5.873   1.979 -0.0068 -0.0904  0.2437
    6CHTO    H3 2483   6.854   5.796   2.010 -1.2111  0.6160  0.3249
    6CHTO    C9 2484   6.772   6.014   2.153 -0.5914 -0.5139 -0.4955
    6CHTO   H22 2485   6.799   6.100   2.217 -0.5000 -0.9881  0.1140
    6CHTO    N2 2486   6.735   5.916   2.252 -0.0200  0.5456  0.2452
    6CHTO   H10 2487   6.823   5.907   2.313 -0.2640 -1.5773  0.3253
    6CHTO   H11 2488   6.655   5.958   2.311 -0.7394 -0.2281 -0.1591
    6CHTO    C7 2489   6.653   6.063   2.061 -0.2474 -0.7781 -0.0626
    6CHTO   H20 2490   6.566   6.089   2.125  1.8562 -1.3491  3.0963
    6CHTO    O4 2491   6.685   6.182   1.981 -0.5152  0.0131 -0.4701
    6CHTO   C14 2492   6.822   6.193   1.923  0.4828 -0.4128 -0.3987
    6CHTO   H27 2493   6.828   6.303   1.922 -1.2399 -0.2973  0.2798
    6CHTO   C18 2494   6.812   6.135   1.777  0.2490 -1.1882  0.5116
    6CHTO   O13 2495   6.926   6.185   1.710  0.0231 -0.0338  0.0113
    6CHTO    H7 2496   6.943   6.142   1.629  0.1720 -0.8181  0.4463
    6CHTO    O2 2497   6.611   5.950   1.956  0.4595  0.3400 -0.0226
    6CHTO    C1 2498   6.475   5.934   1.910 -0.5107  0.2325 -0.0751
    6CHTO   H14 2499   6.482   5.867   1.821  2.9930  0.9249 -0.4056
    6CHTO    C2 2500   6.408   6.066   1.866 -0.2558 -0.1384  0.3391
    6CHTO   H15 2501   6.424   6.143   1.943 -1.0569  2.4645 -2.0145
    6CHTO    O6 2502   6.480   6.116   1.750 -0.3221  0.6440  0.4743
    6CHTO    H1 2503   6.569   6.139   1.767 -0.0641  1.4790 -1.8618
    6CHTO    C3 2504   6.247   6.042   1.833  0.1230 -0.1451  0.5536
    6CHTO   H16 2505   6.241   5.994   1.735  1.0721 -0.5599  0.6979
    6CHTO    N1 2506   6.168   6.165   1.803 -0.6108 -0.7704  0.4502
    6CHTO    H8 2507   6.113   6.195   1.891 -0.8748 -0.2597  0.1168
    6CHTO    H9 2508   6.235   6.247   1.783 -1.2804 -0.0932  0.9761
    6CHTO    C4 2509   6.176   5.938   1.929 -0.1314  0.5875  0.1384
    6CHTO   H17 2510   6.156   5.984   2.025  1.8452 -0.7241  1.2021
    6CHTO    O1 2511   6.259   5.827   1.959 -0.0833 -0.5530 -0.2364
    6CHTO    C5 2512   6.393   5.856   2.013  0.3306  0.1054 -0.0013
    6CHTO   H18 2513   6.375   5.914   2.104  2.0933 -0.1706  0.5355
    6CHTO   C16 2514   6.452   5.723   2.057  0.3359 -0.2293  0.2800
    6CHTO   O11 2515   6.485   5.631   1.952  0.0365 -0.4487  0.3828
    6CHTO    H5 2516   6.507   5.550   1.994  4.4706  0.5266  0.1781
    6CHTO    O3 2517   6.055   5.881   1.872 -0.5338  0.1347 -0.3655
    6CHTO    C6 2518   5.940   5.859   1.963 -0.0879  0.0894  0.0730
    6CHTO   H19 2519   5.970   5.862   2.067 -0.8280  1.2626  0.2616
    6CHTO    C8 2520   5.812   5.949   1.929 -0.0873  0.2526  0.5503
    6CHTO   H21 2521   5.798   5.951   1.821  1.5314 -1.1042  0.3090
    6CHTO    O7 2522   5.848   6.078   1.978  0.4276  0.2228  0.2882
    6CHTO    H2 2523   5.789   6.137   1.935  0.0665 -0.2174  0.1799
    6CHTO   C12 2524   5.682   5.904   2.000  0.1510  0.4011  0.5691
    6CHTO   H25 2525   5.697   5.928   2.108  1.2174 -1.8442  0.9344
    6CHTO    N3 2526   5.568   5.984   1.953 -0.0369 -0.5415 -0.3398
    6CHTO   H12 2527   5.589   6.038   1.862  2.0277 -0.6178  0.0651
    6CHTO   H13 2528   5.487   5.913   1.952 -1.2195  0.7381  1.0229
    6CHTO   C15 2529   5.663   5.747   1.983  0.3754 -0.4804 -0.0780
    6CHTO   H28 2530   5.622   5.723   1.885 -1.0804 -0.5251  0.5255
    6CHTO   O10 2531   5.569   5.679   2.086  0.5698 -0.4450  0.4057
    6CHTO    H4 2532   5.531   5.601   2.050 -0.9051  0.4742 -0.1220
    6CHTO    O5 2533   5.785   5.676   2.014 -0.1909  0.4156  0.4509
    6CHTO   C10 2534   5.901   5.714   1.934  0.6607  0.1325 -0.1572
    6CHTO   H23 2535   5.865   5.705   1.831 -0.1974  0.6489  0.0876
    6CHTO   C17 2536   6.015   5.610   1.955 -0.0069 -0.0807  0.0649
    6CHTO   O12 2537   6.020   5.571   2.093 -0.1724 -0.4355  0.0095
    6CHTO    H6 2538   6.109   5.558   2.121 -0.1466 -0.3613 -0.0401
    7CHTO  H203 2539   4.924   1.550   2.048  0.2809  0.5371  0.1654
    7CHTO   O82 2540   4.945   1.562   2.139 -0.0472  0.7111  0.2188
    7CHTO  C123 2541   5.010   1.689   2.157  0.4397 -0.6516  0.1321
    7CHTO  H227 2542   4.931   1.765   2.163  0.8192 -0.3603  1.5344
    7CHTO   O77 2543   5.082   1.686   2.287 -0.3457 -0.6487  0.2793
    7CHTO  C118 2544   5.148   1.814   2.320 -0.0754 -0.1368  0.0804
    7CHTO  H222 2545   5.077   1.896   2.335  0.5851  0.2475  1.1774
    7CHTO  C125 2546   5.233   1.801   2.452  0.1629 -0.2292  0.3262
    7CHTO   O84 2547   5.147   1.761   2.560 -0.0365  0.6310 -0.2703
    7CHTO  H205 2548   5.179   1.795   2.640 -0.2921 -2.1308  1.0862
    7CHTO  C114 2549   5.256   1.855   2.211  0.5679  0.5305  0.7284
    7CHTO  H218 2550   5.317   1.766   2.199 -1.4998 -0.7581 -0.5134
    7CHTO  C116 2551   5.189   1.855   2.071 -0.5278 -0.7129  1.0200
    7CHTO  H220 2552   5.122   1.942   2.057  0.5624 -0.0127 -0.0083
    7CHTO   O79 2553   5.300   1.886   1.979  0.1457  0.5180 -0.5276
    7CHTO  H201 2554   5.267   1.934   1.906 -0.7800  0.8172  0.0676
    7CHTO  C120 2555   5.120   1.715   2.049 -0.4432  0.2346  0.3238
    7CHTO  H224 2556   5.201   1.640   2.048 -1.0615 -0.4436  0.5911
    7CHTO   N21 2557   5.063   1.711   1.912 -0.1274  0.0472 -0.4417
    7CHTO  H211 2558   5.065   1.614   1.865  0.1346 -0.6749  1.0125
    7CHTO  H212 2559   4.963   1.752   1.905 -0.2013  0.0998  0.8360
    7CHTO   O75 2560   5.336   1.971   2.248 -0.4112  0.0247  0.4508
    7CHTO  C112 2561   5.493   1.939   2.222 -0.5183 -0.2001  1.0581
    7CHTO  H216 2562   5.504   1.890   2.124  0.5308  0.2203  0.9513
    7CHTO   O73 2563   5.530   1.854   2.326  0.7188  0.5358  0.4280
    7CHTO  C113 2564   5.658   1.793   2.312 -0.1209  0.1229 -0.0211
    7CHTO  H217 2565   5.676   1.733   2.220  1.1479 -0.5014  0.6208
    7CHTO  C124 2566   5.668   1.696   2.432 -0.3374 -0.0263 -0.7122
    7CHTO   O83 2567   5.589   1.585   2.398 -0.0147 -0.1268 -0.0668
    7CHTO  H204 2568   5.634   1.530   2.337  0.3500  0.4907 -0.3578
    7CHTO  C109 2569   5.772   1.896   2.312 -0.7749  0.3945  0.0007
    7CHTO  H213 2570   5.772   1.938   2.414  0.5939 -2.0006  1.0225
    7CHTO  C110 2571   5.735   2.004   2.201 -0.5065  0.1699 -0.6983
    7CHTO  H214 2572   5.742   1.952   2.105  2.6206  1.1269 -1.0338
    7CHTO   O78 2573   5.836   2.100   2.201  0.4511  0.3107  0.1252
    7CHTO  H200 2574   5.922   2.076   2.171  0.8732  2.9987 -1.0254
    7CHTO  C111 2575   5.593   2.057   2.222  0.1014  0.9359  0.6211
    7CHTO  H215 2576   5.583   2.103   2.322 -0.5244 -0.5261  1.2510
    7CHTO   N19 2577   5.548   2.158   2.123 -0.8167  0.5346 -0.5046
    7CHTO  H207 2578   5.606   2.248   2.114  0.4286 -0.0987  0.8965
    7CHTO  H208 2579   5.537   2.112   2.026 -0.1928 -0.6067 -0.0445
    7CHTO   O74 2580   5.906   1.844   2.283  0.6205 -0.0036 -0.3392
    7CHTO  C115 2581   6.017   1.911   2.367  0.1883 -0.0653  0.0831
    7CHTO  H219 2582   6.021   2.017   2.347 -1.0961 -0.1683 -0.7490
    7CHTO   O76 2583   5.989   1.900   2.528 -0.2764 -0.3135 -0.6098
    7CHTO  C122 2584   6.011   1.768   2.573 -0.2734  0.2915 -0.4079
    7CHTO  H226 2585   5.942   1.699   2.526 -0.5329  0.0620  0.3020
    7CHTO  C126 2586   5.977   1.772   2.728 -0.0241 -0.4442  0.0745
    7CHTO   O85 2587   5.834   1.785   2.758 -0.1270 -0.1086 -0.3103
    7CHTO  H206 2588   5.807   1.863   2.802  1.7107  0.2917  0.1564
    7CHTO  C121 2589   6.160   1.723   2.550 -0.1528 -0.0663  0.2464
    7CHTO  H225 2590   6.233   1.788   2.602  0.2811 -1.4780  1.4648
    7CHTO   O81 2591   6.193   1.598   2.605 -0.0781  0.4468 -0.5788
    7CHTO  H202 2592   6.178   1.598   2.697  0.2793  1.3652 -0.5154
    7CHTO  C119 2593   6.189   1.720   2.399  0.1029 -0.0619 -0.1943
    7CHTO  H223 2594   6.290   1.684   2.382 -0.7238 -2.2534 -0.6338
    7CHTO  C117 2595   6.157   1.855   2.324  0.7531 -0.4683  0.2994
    7CHTO  H221 2596   6.153   1.834   2.217  0.1938 -0.0937  0.2452
    7CHTO   N20 2597   6.265   1.956   2.346  0.2036  0.2627 -0.1808
    7CHTO  H209 2598   6.295   1.973   2.448 -0.4298  0.1460  0.0268
    7CHTO  H210 2599   6.235   2.054   2.312 -0.1868  0.3992  0.5542
    7CHTO   O80 2600   6.099   1.595   2.337 -0.4166  0.1658 -0.4243
    7CHTO  C103 2601   6.147   1.520   2.210 -0.3039  0.2692 -0.3559
    7CHTO  H190 2602   6.125   1.577   2.119 -0.2512  0.3764 -0.3009
    7CHTO  C101 2603   6.300   1.480   2.205 -0.1637  0.7292  0.2708
    7CHTO  H188 2604   6.331   1.454   2.307 -1.9063 -1.6578  0.2337
    7CHTO   O68 2605   6.379   1.616   2.172 -0.3625 -0.0218 -0.1461
    7CHTO  H168 2606   6.379   1.633   2.079 -0.2658  4.2913  0.5832
    7CHTO   C99 2607   6.336   1.359   2.109 -0.5922 -0.4592  0.4561
    7CHTO  H186 2608   6.303   1.383   2.006 -2.6250 -4.2525  0.1541
    7CHTO   N17 2609   6.478   1.314   2.100 -0.7869  0.5114  0.3675
    7CHTO  H174 2610   6.483   1.260   2.007  1.6579  1.4110 -0.0802
    7CHTO  H175 2611   6.500   1.247   2.181  0.5744 -1.5158 -1.6088
    7CHTO   C97 2612   6.242   1.239   2.153 -0.3083 -0.3037  0.3661
    7CHTO  H184 2613   6.248   1.210   2.259  0.5971  0.5961  0.5682
    7CHTO   O64 2614   6.111   1.280   2.119  0.1278 -0.2837 -0.3724
    7CHTO  C104 2615   6.056   1.386   2.206 -0.1913 -0.7848  0.1813
    7CHTO  H191 2616   6.044   1.346   2.307 -0.0427 -0.3744  0.3632
    7CHTO  C108 2617   5.921   1.431   2.161  0.3861  0.0019 -0.6322
    7CHTO   O71 2618   5.826   1.330   2.170  0.3433  0.0253  0.6665
    7CHTO  H171 2619   5.741   1.359   2.143 -0.7861 -1.9962  1.8881
    7CHTO   O62 2620   6.269   1.113   2.077  0.2608 -0.4034 -0.2301
    7CHTO   C91 2621   6.162   1.018   2.058 -0.0514 -0.4507 -0.1091
    7CHTO  H178 2622   6.217   0.927   2.035 -2.4050 -1.7223 -0.8315
    7CHTO   C92 2623   6.068   1.045   1.934  0.4969  0.3601  0.5215
    7CHTO  H179 2624   6.024   1.145   1.943 -2.7161 -0.8121 -1.3508
    7CHTO   O66 2625   6.155   1.037   1.816 -0.3129 -0.0522 -0.1613
    7CHTO  H166 2626   6.113   1.071   1.739  0.6811  1.3108 -0.1208
    7CHTO   C93 2627   5.957   0.933   1.917  0.1530  0.3496 -0.0111
    7CHTO  H180 2628   6.017   0.845   1.889 -1.3800 -0.0358 -2.2588
    7CHTO   N16 2629   5.870   0.961   1.802 -0.2290  0.1719  0.0062
    7CHTO  H172 2630   5.902   0.905   1.716 -0.3936 -0.2972  0.2507
    7CHTO  H173 2631   5.860   1.066   1.779  1.6541 -0.0015 -1.7468
    7CHTO   C94 2632   5.881   0.909   2.051 -0.4349 -0.5922  0.4032
    7CHTO  H181 2633   5.827   0.999   2.078  0.3953 -0.0304  0.2114
    7CHTO   O61 2634   5.978   0.878   2.156 -0.0283  0.1669  0.0616
    7CHTO   C95 2635   6.070   0.984   2.183 -0.6143 -0.7010 -0.1448
    7CHTO  H182 2636   6.010   1.069   2.213  0.6881  0.8660 -1.8502
    7CHTO  C106 2637   6.154   0.943   2.311 -0.0384  0.3641 -0.0922
    7CHTO   O69 2638   6.083   0.961   2.438 -0.0804  0.0456  0.2904
    7CHTO  H169 2639   6.071   1.054   2.444  2.6002  0.5000 -0.3216
    7CHTO   O63 2640   5.794   0.779   2.045  0.0673 -0.0456 -0.4783
    7CHTO   C96 2641   5.676   0.793   2.153  0.4570 -0.8969 -0.1235
    7CHTO  H183 2642   5.658   0.900   2.162  0.5810 -0.7299 -1.7332
    7CHTO   C98 2643   5.721   0.744   2.293 -0.1811  0.1261  0.5667
    7CHTO  H185 2644   5.809   0.803   2.321  0.3998 -1.5560  2.3932
    7CHTO   O67 2645   5.626   0.784   2.394 -0.2226 -0.4096 -0.7368
    7CHTO  H167 2646   5.640   0.742   2.477 -0.9833  0.0302 -0.3780
    7CHTO  C102 2647   5.746   0.584   2.293  0.2879  0.0205 -0.1316
    7CHTO  H189 2648   5.720   0.543   2.393  4.7945 -0.0305  1.1312
    7CHTO   N18 2649   5.884   0.540   2.274  0.1088  0.1504  0.2398
    7CHTO  H176 2650   5.895   0.443   2.321  1.2150  0.6353  1.0147
    7CHTO  H177 2651   5.913   0.532   2.170  0.4276  0.3823  0.3100
    7CHTO  C105 2652   5.640   0.512   2.207 -0.0313  0.1026 -0.0466
    7CHTO  H192 2653   5.680   0.483   2.110 -2.2096 -1.0725 -0.6144
    7CHTO   O65 2654   5.527   0.592   2.180  0.1532  0.0923 -0.2042
    7CHTO  C100 2655   5.554   0.707   2.102 -0.0410  0.4735  0.0906
    7CHTO  H187 2656   5.580   0.674   2.001 -0.7470  0.5094 -0.1065
    7CHTO  C107 2657   5.435   0.793   2.083  0.1419 -0.0524 -0.1102
    7CHTO   O70 2658   5.450   0.929   2.034  0.0857 -0.2234 -0.0007
    7CHTO  H170 2659   5.461   0.982   2.111  0.8276  1.4678 -1.2286
    7CHTO   O57 2660   5.581   0.377   2.287 -0.2479  0.0137 -0.4882
    7CHTO   C85 2661   5.472   0.387   2.382  1.1818  0.8179  0.6646
    7CHTO  H157 2662   5.411   0.478   2.361 -1.4068 -1.1013 -0.4203
    7CHTO   C83 2663   5.523   0.416   2.531  0.2316 -0.7000 -0.2852
    7CHTO  H155 2664   5.570   0.514   2.531 -1.7530  0.3049 -2.5001
    7CHTO   O56 2665   5.634   0.331   2.566  0.0907 -0.1230 -0.1020
    7CHTO  H135 2666   5.632   0.250   2.519 -0.0403 -0.6094  0.7264
    7CHTO   C81 2667   5.404   0.414   2.636  0.5722 -0.3630 -0.2105
    7CHTO  H153 2668   5.329   0.488   2.606  1.5192  1.3552  1.5349
    7CHTO   N14 2669   5.445   0.452   2.771  0.5006 -0.3945  0.6175
    7CHTO  H141 2670   5.539   0.405   2.793  0.0586 -0.6513  1.9786
    7CHTO  H142 2671   5.374   0.420   2.844  1.3082 -1.6411  0.8721
    7CHTO   C79 2672   5.335   0.272   2.626  0.1777  0.2229 -0.8439
    7CHTO  H151 2673   5.246   0.278   2.689  1.5005  0.4565  1.0522
    7CHTO   O52 2674   5.281   0.248   2.493 -0.5286 -0.3073 -0.1393
    7CHTO   C86 2675   5.377   0.255   2.383 -0.2664  0.0223  0.5334
    7CHTO  H158 2676   5.441   0.167   2.404  1.4880  0.9870 -0.6789
    7CHTO   C90 2677   5.318   0.237   2.243 -0.1452  0.0941  0.1103
    7CHTO   O60 2678   5.232   0.124   2.242  0.8643 -0.4627 -0.0653
    7CHTO  H138 2679   5.280   0.050   2.212  0.8360 -0.4348 -0.1786
    7CHTO   O50 2680   5.407   0.160   2.680 -0.1240 -0.2428 -0.5810
    7CHTO   C73 2681   5.396   0.027   2.732  0.4795  0.2101  0.7906
    7CHTO  H145 2682   5.496  -0.018   2.733 -0.6363 -2.4601 -2.1540
    7CHTO   C74 2683   5.311  -0.063   2.642 -0.7137 -0.8524 -0.2188
    7CHTO  H146 2684   5.358  -0.058   2.542 -0.8108  0.8668 -0.1936
    7CHTO   O54 2685   5.330  -0.195   2.695  0.5624 -0.6403  0.4462
    7CHTO  H133 2686   5.258  -0.213   2.753  1.2176 -2.0156  0.8608
    7CHTO   C75 2687   5.154  -0.020   2.635 -0.2596  0.1216  0.6680
    7CHTO  H147 2688   5.143   0.075   2.581 -1.5804 -0.0215  0.6592
    7CHTO   N13 2689   5.066  -0.110   2.553 -0.3323  0.1167 -0.5519
    7CHTO  H139 2690   5.051  -0.079   2.451 -0.9469  2.2304  0.1524
    7CHTO  H140 2691   5.079  -0.217   2.565  0.1357  0.2072 -0.2105
    7CHTO   C76 2692   5.099  -0.001   2.784  0.2099 -0.9498  1.0419
    7CHTO  H148 2693   5.099  -0.096   2.838  0.8975 -0.4891  1.8837
    7CHTO   O49 2694   5.198   0.075   2.859  0.2721  0.1352 -0.1164
    7CHTO   C77 2695   5.332   0.031   2.875 -0.9182  0.3638 -0.1332
    7CHTO  H149 2696   5.344  -0.068   2.919  0.4300 -0.6372 -2.6251
    7CHTO   C88 2697   5.402   0.127   2.976  0.0306 -0.3208 -0.6099
    7CHTO   O58 2698   5.380   0.090   3.109 -0.1387  0.5605 -0.2887
    7CHTO  H136 2699   5.424   0.008   3.124 -2.4506 -0.9383 -1.5375
    7CHTO   O51 2700   4.982   0.074   2.803 -0.3506 -0.4406 -0.4256
    7CHTO   C78 2701   4.913   0.054   2.947 -0.0462 -0.3642  0.6507
    7CHTO  H150 2702   4.992   0.025   3.020  0.0262 -0.8866  0.3645
    7CHTO   C80 2703   4.806  -0.054   2.946  0.0671 -0.3726 -0.4527
    7CHTO  H152 2704   4.731  -0.033   2.866 -2.3533 -1.1578  1.5341
    7CHTO   O55 2705   4.872  -0.175   2.911 -0.3860 -0.8084 -0.0327
    7CHTO  H134 2706   4.815  -0.238   2.872 -0.9506  0.3776 -1.1829
    7CHTO   C84 2707   4.739  -0.072   3.084  0.1329 -0.1536 -0.2160
    7CHTO  H156 2708   4.815  -0.099   3.159 -1.0786  2.0517  1.8670
    7CHTO   N15 2709   4.639  -0.184   3.085  0.3226  0.6945 -0.4990
    7CHTO  H143 2710   4.684  -0.279   3.064 -2.2851 -0.6709 -0.0464
    7CHTO  H144 2711   4.551  -0.172   3.026 -0.3300 -0.5683  0.1952
    7CHTO   C87 2712   4.680   0.060   3.129  0.2049  0.4504  0.6442
    7CHTO  H159 2713   4.603   0.095   3.060  0.9822  0.8276 -0.0393
    7CHTO   O53 2714   4.798   0.171   3.133 -0.4406  0.4109 -0.2929
    7CHTO   C82 2715   4.853   0.186   3.000 -0.3348 -0.9358  0.1682
    7CHTO  H154 2716   4.776   0.225   2.934  1.8238  2.6227 -0.3903
    7CHTO   C89 2717   4.966   0.300   3.001  0.0078 -0.2693  0.1754
    7CHTO   O59 2718   4.903   0.428   3.006 -0.7196 -0.0140  0.0185
    7CHTO  H137 2719   4.902   0.473   2.924 -0.0022  1.4390  0.7918
    7CHTO   O45 2720   4.626   0.047   3.285 -0.0217 -0.0172 -0.1487
    7CHTO   C67 2721   4.654   0.160   3.367 -0.3906 -0.2977 -0.1205
    7CHTO  H124 2722   4.748   0.208   3.342 -1.5431  1.6923 -0.8230
    7CHTO   C65 2723   4.544   0.271   3.360  0.2072 -0.9857 -0.0793
    7CHTO  H122 2724   4.448   0.218   3.353 -0.6385  0.3088  1.4002
    7CHTO   O44 2725   4.569   0.337   3.234 -0.3101 -0.1695 -0.6357
    7CHTO  H102 2726   4.516   0.414   3.223 -0.5269 -0.0333  1.1098
    7CHTO   C63 2727   4.517   0.352   3.494  0.9017  0.3291 -0.0564
    7CHTO  H120 2728   4.447   0.294   3.553  2.2467 -1.9882 -0.6530
    7CHTO   N11 2729   4.433   0.475   3.468 -0.1562  0.0412  0.2735
    7CHTO  H108 2730   4.334   0.439   3.452  0.4830 -0.9810 -1.5770
    7CHTO  H109 2731   4.428   0.530   3.559  1.4552  1.2138 -0.3288
    7CHTO   C61 2732   4.651   0.358   3.578 -0.5751  0.0792  0.2883
    7CHTO  H118 2733   4.637   0.413   3.672  2.3884  0.1726  0.7219
    7CHTO   O40 2734   4.694   0.221   3.615  0.4592  0.1069  0.1526
    7CHTO   C68 2735   4.669   0.113   3.513 -0.5822  0.3435  0.4450
    7CHTO  H125 2736   4.577   0.065   3.552 -0.8825 -1.3590 -2.2393
    7CHTO   C72 2737   4.781   0.009   3.526  0.6602  0.2814  0.0483
    7CHTO   O48 2738   4.753  -0.126   3.484  0.1682 -0.1029 -0.1617
    7CHTO  H105 2739   4.697  -0.173   3.543 -1.4872  2.9906  0.8473
    7CHTO   O38 2740   4.747   0.427   3.497 -0.0517 -0.0238  0.2185
    7CHTO   C55 2741   4.860   0.478   3.566  0.1624 -0.1374 -0.4260
    7CHTO  H112 2742   4.882   0.434   3.665  0.2234 -0.6756 -0.6752
    7CHTO   C56 2743   4.850   0.634   3.572 -0.0307 -0.6822  0.5061
    7CHTO  H113 2744   4.833   0.659   3.466 -0.8198  1.0264  1.0256
    7CHTO   O42 2745   4.733   0.671   3.647 -0.2695 -0.3007 -0.4497
    7CHTO  H100 2746   4.758   0.674   3.738  2.7136 -1.7312 -1.1555
    7CHTO   C57 2747   4.987   0.696   3.611  0.0446  0.8865  0.2030
    7CHTO  H114 2748   5.006   0.650   3.708  0.4594 -0.8032 -0.6741
    7CHTO   N10 2749   4.977   0.842   3.630 -0.3634 -0.0795 -0.4274
    7CHTO  H106 2750   4.912   0.880   3.553  0.1518 -1.2480 -1.4579
    7CHTO  H107 2751   4.933   0.860   3.727  0.4214 -0.8512  0.0826
    7CHTO   C58 2752   5.102   0.652   3.520 -0.0817  0.0906  0.2373
    7CHTO  H115 2753   5.081   0.687   3.417  0.3327  1.8247  0.7195
    7CHTO   O37 2754   5.106   0.508   3.523 -0.7034  1.1180 -0.5438
    7CHTO   C59 2755   4.988   0.441   3.483  0.1883 -0.5979 -0.4653
    7CHTO  H116 2756   4.969   0.473   3.381  0.5556 -3.7554 -1.5653
    7CHTO   C70 2757   5.024   0.294   3.487 -0.2200 -0.0192 -0.3830
    7CHTO   O46 2758   5.118   0.263   3.384  0.0555 -0.0441 -0.4939
    7CHTO  H103 2759   5.203   0.248   3.422 -0.9476 -1.4318  1.2831
    7CHTO   O39 2760   5.252   0.712   3.577 -0.4133 -0.1218 -0.8663
    7CHTO   C60 2761   5.357   0.662   3.491 -0.6333 -0.5001 -0.2973
    7CHTO  H117 2762   5.360   0.553   3.487 -2.6966 -0.5962  0.4312
    7CHTO   C62 2763   5.352   0.720   3.347 -0.4902 -0.0359 -0.9058
    7CHTO  H119 2764   5.257   0.695   3.296 -0.3035 -2.3462 -0.1660
    7CHTO   O43 2765   5.375   0.860   3.355  0.0196  0.0326  0.2630
    7CHTO  H101 2766   5.467   0.878   3.346  0.6368 -2.7022  0.6488
    7CHTO   C66 2767   5.462   0.633   3.258  0.5820 -0.0535 -0.4003
    7CHTO  H123 2768   5.444   0.526   3.270 -2.2589  0.5056  0.8488
    7CHTO   N12 2769   5.440   0.657   3.113 -0.0092  0.3907 -1.0300
    7CHTO  H110 2770   5.528   0.617   3.065  1.2325 -0.1440  1.5800
    7CHTO  H111 2771   5.423   0.762   3.093 -1.4302  0.6972  1.6186
    7CHTO   C69 2772   5.605   0.668   3.303  0.5993 -0.2333  0.2521
    7CHTO  H126 2773   5.628   0.775   3.289 -1.5869 -0.1030 -2.8481
    7CHTO   O41 2774   5.617   0.630   3.459 -0.2493 -0.0293  0.3062
    7CHTO   C64 2775   5.502   0.707   3.547  0.1573  0.1234  0.3992
    7CHTO  H121 2776   5.514   0.816   3.528  0.6802  0.0444  0.2644
    7CHTO   C71 2777   5.526   0.677   3.686  0.1629  0.3504 -0.0787
    7CHTO   O47 2778   5.658   0.728   3.731 -0.0393 -0.1201  0.5492
    7CHTO  H104 2779   5.661   0.693   3.819 -0.5390  0.1594  0.6733
    7CHTO   O34 2780   5.711   0.588   3.217  0.4051 -0.1815 -0.1955
    7CHTO   C49 2781   5.822   0.489   3.138  0.3842 -0.1905 -0.3326
    7CHTO   H91 2782   5.887   0.445   3.213  1.1260 -1.4262 -1.6764
    7CHTO   C47 2783   5.922   0.576   3.057 -0.0929 -0.1723 -0.5032
    7CHTO   H89 2784   5.999   0.610   3.129  0.5383 -2.1822 -0.2088
    7CHTO   O33 2785   5.854   0.690   3.002 -0.0420 -0.3969  0.0250
    7CHTO   H70 2786   5.777   0.655   2.960  0.4944  0.0234 -1.3242
    7CHTO   C45 2787   5.992   0.495   2.936 -0.2052  0.2724  0.6898
    7CHTO   H87 2788   5.933   0.519   2.846  1.2128 -1.7999 -0.8440
    7CHTO    N8 2789   6.123   0.552   2.914 -0.0593  0.4299 -0.1990
    7CHTO   H75 2790   6.190   0.539   2.997  1.4290 -0.5823 -1.5163
    7CHTO   H76 2791   6.121   0.659   2.897 -0.0236  0.1233 -2.2416
    7CHTO   C43 2792   5.972   0.340   2.952  0.0947  0.3067 -0.3590
    7CHTO   H85 2793   6.009   0.299   2.858 -0.5965 -0.1322 -0.4476
    7CHTO   O29 2794   5.834   0.309   2.961  0.2513  0.3104  0.1978
    7CHTO   C50 2795   5.752   0.375   3.058 -0.3014 -0.7896  0.3536
    7CHTO   H92 2796   5.667   0.425   3.010 -0.6059 -0.3596  1.3248
    7CHTO   C54 2797   5.687   0.266   3.154 -0.3852  0.1774 -0.0392
    7CHTO   O36 2798   5.599   0.321   3.246  0.1499 -0.3242  0.0234
    7CHTO   H72 2799   5.521   0.353   3.205  0.0645  1.6709  1.6407
    7CHTO   O27 2800   6.038   0.291   3.067 -0.2974 -0.1524  0.1501
    7CHTO   C37 2801   6.091   0.167   3.111  0.1344  0.5645 -0.2899
    7CHTO   H79 2802   6.069   0.148   3.217  4.2039 -0.4812  0.4584
    7CHTO   C38 2803   6.032   0.038   3.037 -0.5910 -1.3564  0.5996
    7CHTO   H80 2804   6.040   0.050   2.928 -2.6781 -0.7395  0.5030
    7CHTO   O31 2805   5.890   0.023   3.055 -0.0534 -0.2235  0.7743
    7CHTO   H68 2806   5.859  -0.048   3.003  1.4242 -0.7343  0.5695
    7CHTO   C39 2807   6.115  -0.090   3.077 -0.3134 -0.0823  0.2049
    7CHTO   H81 2808   6.086  -0.108   3.181  0.6758 -0.8568  0.3516
    7CHTO    N7 2809   6.078  -0.216   2.995  0.0628 -0.0911  0.0574
    7CHTO   H73 2810   6.113  -0.184   2.898 -0.5743 -0.2906 -0.2470
    7CHTO   H74 2811   5.970  -0.227   2.996 -0.0420  0.7102 -1.0153
    7CHTO   C40 2812   6.268  -0.074   3.082 -0.0933  0.0188  0.3291
    7CHTO   H82 2813   6.311  -0.063   2.983  1.7473 -0.6932  1.0284
    7CHTO   O26 2814   6.291   0.047   3.159 -0.5787 -0.5576  0.5095
    7CHTO   C41 2815   6.246   0.167   3.097 -0.2115  0.3310  0.5376
    7CHTO   H83 2816   6.271   0.170   2.990 -0.0232 -0.9245  0.5350
    7CHTO   C52 2817   6.308   0.279   3.188  0.0072  0.4200  0.0873
    7CHTO   O35 2818   6.432   0.287   3.200  0.1351 -0.5230 -0.0155
    7CHTO   H71 2819   6.461   0.215   3.253 -0.9704 -1.5622 -0.7722
    7CHTO   O28 2820   6.337  -0.169   3.160  0.5961  0.1165 -0.3262
    7CHTO   C42 2821   6.466  -0.214   3.136 -0.7936 -0.4080 -0.6663
    7CHTO   H84 2822   6.481  -0.286   3.217  2.6550 -1.2844 -1.9830
    7CHTO   C44 2823   6.578  -0.103   3.150 -0.4731 -0.7119  0.3025
    7CHTO   H86 2824   6.532  -0.013   3.108 -0.7640 -0.7048  0.6337
    7CHTO   O32 2825   6.589  -0.083   3.289 -0.1716 -0.1015  0.3199
    7CHTO   H69 2826   6.533  -0.015   3.321  0.2990  1.4777 -2.0497
    7CHTO   C48 2827   6.723  -0.137   3.095  0.0496 -0.4023  0.1085
    7CHTO   H90 2828   6.771  -0.207   3.164 -0.7922 -1.0034  0.0960
    7CHTO    N9 2829   6.819  -0.023   3.091  0.3235 -0.0601  0.0353
    7CHTO   H77 2830   6.877  -0.028   2.999 -0.9997  0.0896 -0.8145
    7CHTO   H78 2831   6.767   0.071   3.102  0.0951 -0.4325  2.3131
    7CHTO   C51 2832   6.715  -0.211   2.966 -0.3850  0.0889 -0.1208
    7CHTO   H93 2833   6.670  -0.136   2.900  0.0902  0.9846  0.5581
    7CHTO   O30 2834   6.634  -0.329   2.980 -0.1714  0.5447  0.0443
    7CHTO   C46 2835   6.485  -0.286   3.000 -0.4931  0.1060 -0.1761
    7CHTO   H88 2836   6.461  -0.219   2.917  0.7230 -1.2283 -1.6331
    7CHTO   C53 2837   6.390  -0.406   2.990  0.6791 -0.5007 -0.1836
    7CHTO   O72 2838   6.387  -0.470   2.864 -0.1279 -0.1288  0.0027
    7CHTO  H199 2839   6.320  -0.450   2.800 -0.8823  0.3252  0.9165
    7CHTO   O22 2840   6.842  -0.263   2.921 -0.6704 -0.1324 -0.1547
    7CHTO   C31 2841   6.873  -0.321   2.783  0.1166 -0.8301 -0.1922
    7CHTO   H59 2842   6.973  -0.368   2.783  0.0371 -1.0213  1.3124
    7CHTO   C29 2843   6.772  -0.433   2.745 -0.5539 -0.1968 -0.0668
    7CHTO   H57 2844   6.667  -0.402   2.756 -0.6356 -0.4190 -0.2256
    7CHTO   O21 2845   6.780  -0.545   2.836  0.2332  0.4932  0.0241
    7CHTO   H37 2846   6.704  -0.598   2.846 -0.5198  1.2985 -1.3038
    7CHTO   C27 2847   6.794  -0.479   2.592  0.3002  0.2934  0.7118
    7CHTO   H55 2848   6.891  -0.530   2.582  0.7657  1.3344 -0.2874
    7CHTO    N5 2849   6.684  -0.572   2.552  0.0778 -0.6492  0.4908
    7CHTO   H43 2850   6.597  -0.526   2.596  0.5906 -1.6710  2.6868
    7CHTO   H44 2851   6.688  -0.672   2.594  0.4433 -0.5262  0.7548
    7CHTO   C25 2852   6.798  -0.348   2.508  0.3118 -0.2737  0.0882
    7CHTO   H53 2853   6.707  -0.287   2.512  0.1631 -0.3063 -2.1268
    7CHTO   O17 2854   6.904  -0.257   2.554  0.0129 -0.0415 -0.1552
    7CHTO   C32 2855   6.873  -0.207   2.678  0.1781 -0.3002 -0.2430
    7CHTO   H60 2856   6.775  -0.158   2.683 -0.0062 -0.7233  0.2715
    7CHTO   C36 2857   6.989  -0.115   2.723 -0.0623  0.1458  0.0311
    7CHTO   O25 2858   7.001   0.011   2.652 -0.2440 -0.4936  0.0337
    7CHTO   H40 2859   6.938   0.073   2.682  0.3021  1.3999 -2.6105
    7CHTO   O15 2860   6.835  -0.382   2.350 -0.1639 -0.2721 -0.5068
    7CHTO   C19 2861   6.797  -0.289   2.243  1.0721  0.5738 -0.2320
    7CHTO   H47 2862   6.820  -0.337   2.147  1.1554  0.5976 -0.2240
    7CHTO   C20 2863   6.642  -0.245   2.238  0.6645 -0.2617  0.6598
    7CHTO   H48 2864   6.615  -0.185   2.326  0.8360  2.8771 -1.3428
    7CHTO   O19 2865   6.559  -0.360   2.235 -0.0134  0.5690 -0.2698
    7CHTO   H35 2866   6.467  -0.343   2.247  0.1301  1.2509 -0.0931
    7CHTO   C21 2867   6.609  -0.156   2.112 -0.4372  0.1793 -0.8156
    7CHTO   H49 2868   6.636  -0.212   2.023 -2.6405 -0.5317 -1.0618
    7CHTO    N4 2869   6.467  -0.116   2.101  1.0657 -0.0653 -0.2844
    7CHTO   H41 2870   6.457  -0.014   2.133 -0.6489 -0.6012  0.9704
    7CHTO   H42 2871   6.435  -0.125   1.998  1.0951 -0.6255 -0.2498
    7CHTO   C22 2872   6.707  -0.034   2.115  0.4344  0.2375  0.3342
    7CHTO   H50 2873   6.695   0.028   2.203 -0.2386  0.4499  0.0974
    7CHTO   O14 2874   6.842  -0.087   2.111  0.4452 -0.0724  0.5123
    7CHTO   C23 2875   6.875  -0.153   2.236 -0.2940  0.5325  0.1681
    7CHTO   H51 2876   6.853  -0.088   2.322  3.4107 -2.8202  3.8214
    7CHTO   C34 2877   7.027  -0.174   2.235  0.1767  0.4210  0.2501
    7CHTO   O23 2878   7.092  -0.051   2.194  0.2362 -0.1144  0.0059
    7CHTO   H38 2879   7.112  -0.000   2.270  1.6041 -0.3296 -0.2052
    7CHTO   O16 2880   6.705   0.047   2.001 -0.7064  0.1887 -0.0268
    7CHTO   C24 2881   6.716   0.227   2.031 -0.4041 -0.0533  0.3498
    7CHTO   H52 2882   6.737   0.247   2.136  0.5077 -0.2180  0.2049
    7CHTO   C26 2883   6.582   0.288   1.991 -0.1395 -0.3810  0.3377
    7CHTO   H54 2884   6.556   0.261   1.887  0.9738  0.7023 -0.2389
    7CHTO   O20 2885   6.475   0.224   2.067  0.2726 -0.0351 -0.1117
    7CHTO   H36 2886   6.391   0.265   2.066 -0.2913 -1.2001 -2.0597
    7CHTO   C30 2887   6.584   0.444   2.002  0.3035 -0.0041  0.1847
    7CHTO   H58 2888   6.593   0.483   2.105  2.6201  0.7189 -0.2785
    7CHTO    N6 2889   6.456   0.501   1.959  0.3204 -0.2835  0.4628
    7CHTO   H45 2890   6.373   0.459   2.013  1.3655 -0.5322  1.9210
    7CHTO   H46 2891   6.441   0.479   1.855 -0.0807 -2.5473  0.9550
    7CHTO   C33 2892   6.702   0.498   1.921 -0.2094  0.0261  0.4463
    7CHTO   H61 2893   6.692   0.464   1.817  0.7032  0.3891  0.2347
    7CHTO   O18 2894   6.819   0.437   1.968  0.0504  0.4914 -0.6166
    7CHTO   C28 2895   6.822   0.296   1.944  0.5982 -0.2317 -0.1299
    7CHTO   H56 2896   6.803   0.271   1.840 -1.3413  1.8883 -0.3240
    7CHTO   C35 2897   6.967   0.257   1.976 -0.0861 -0.1461 -0.1287
    7CHTO   O24 2898   6.995   0.121   1.945  0.1606 -0.1895  0.4544
    7CHTO   H39 2899   6.965   0.058   2.008  0.4679 -0.8161 -0.0119
    7CHTO    O9 2900   6.713   0.645   1.915  0.0030  1.0995 -0.1304
    7CHTO   C13 2901   6.822   0.711   2.009 -0.0275  0.0045  0.2890
    7CHTO   H26 2902   6.912   0.646   2.011 -0.0815 -0.0406  3.1147
    7CHTO   C11 2903   6.762   0.734   2.147  0.3441 -0.3254 -0.0824
    7CHTO   H24 2904   6.748   0.636   2.193  0.4237  0.5431  1.8496
    7CHTO    O8 2905   6.631   0.802   2.131 -0.6592 -0.0291  0.5273
    7CHTO    H3 2906   6.572   0.730   2.137  0.1752 -0.6713  1.2757
    7CHTO    C9 2907   6.865   0.814   2.234  0.0935  0.2092  0.5684
    7CHTO   H22 2908   6.953   0.749   2.243 -0.9810 -1.6977 -2.1448
    7CHTO    N2 2909   6.812   0.829   2.371  0.0443 -0.4000  0.4136
    7CHTO   H10 2910   6.816   0.928   2.412 -0.5222 -0.3506  0.3553
    7CHTO   H11 2911   6.849   0.754   2.439  2.3014 -0.2759 -0.6461
    7CHTO    C7 2912   6.907   0.955   2.163  0.0358  0.5984 -0.0852
    7CHTO   H20 2913   7.003   0.978   2.214 -0.3252  1.0575  0.3971
    7CHTO    O4 2914   6.937   0.935   2.019  0.1001 -0.1940  0.0591
    7CHTO   C14 2915   6.860   0.847   1.936 -0.4303 -0.5409  0.0614
    7CHTO   H27 2916   6.934   0.822   1.857  0.4465  2.0223 -0.0085
    7CHTO   C18 2917   6.751   0.936   1.868  0.0726  0.3435 -0.1823
    7CHTO   O13 2918   6.813   1.009   1.758  0.2832 -0.0395 -0.4340
    7CHTO    H7 2919   6.834   1.097   1.784 -0.8628  0.1420 -0.1109
    7CHTO    O2 2920   6.808   1.070   2.185  0.7814  0.1378 -0.2718
    7CHTO    C1 2921   6.864   1.211   2.193 -0.2387 -0.4848  0.7855
    7CHTO   H14 2922   6.778   1.278   2.213 -1.3574 -1.9933  1.0542
    7CHTO    C2 2923   6.930   1.266   2.062 -0.2901 -0.3096 -0.1176
    7CHTO   H15 2924   7.003   1.193   2.024  1.4272  1.2647  0.0844
    7CHTO    O6 2925   6.833   1.285   1.962 -0.1470 -0.1028  0.6246
    7CHTO    H1 2926   6.793   1.210   1.924 -0.2077  1.4750 -2.6141
    7CHTO    C3 2927   7.008   1.410   2.086 -0.7231 -0.1971  0.0049
    7CHTO   H16 2928   6.926   1.483   2.094 -1.9529 -1.3576 -1.4278
    7CHTO    N1 2929   7.091   1.445   1.961  0.7941  0.1745 -0.4936
    7CHTO    H8 2930   7.043   1.403   1.874  0.7966  0.3343 -0.5725
    7CHTO    H9 2931   7.195   1.418   1.967  0.7343 -0.1889 -1.0573
    7CHTO    C4 2932   7.092   1.410   2.221  0.2262  0.2519 -0.1438
    7CHTO   H17 2933   7.181   1.349   2.206  0.2904 -0.0125  1.2570
    7CHTO    O1 2934   7.014   1.359   2.328 -0.5180 -0.4446 -0.4557
    7CHTO    C5 2935   6.968   1.226   2.309  0.3253 -0.1590 -0.2518
    7CHTO   H18 2936   7.053   1.158   2.303  0.2540 -0.4404  1.4467
    7CHTO   C16 2937   6.895   1.189   2.446 -0.0797  0.0413 -0.1839
    7CHTO   O11 2938   6.988   1.198   2.562 -0.3635 -0.5229 -0.4376
    7CHTO    H5 2939   6.937   1.192   2.641  1.2598 -1.6341  0.5580
    7CHTO    O3 2940   7.130   1.542   2.267  0.1646  0.5744 -0.0672
    7CHTO    C6 2941   7.264   1.559   2.327 -0.1945  0.0236 -0.0139
    7CHTO   H19 2942   7.311   1.466   2.359  1.3979  1.2629  1.3739
    7CHTO    C8 2943   7.362   1.625   2.220  0.6318 -0.0534  0.3900
    7CHTO   H21 2944   7.298   1.686   2.156  1.0382  0.4594  0.4651
    7CHTO    O7 2945   7.400   1.516   2.137 -0.3197  0.1802 -0.0461
    7CHTO    H2 2946   7.325   1.477   2.097  0.6469 -2.3255  0.4999
    7CHTO   C12 2947   7.474   1.706   2.289 -0.6259  0.1810  0.1696
    7CHTO   H25 2948   7.549   1.630   2.321  1.1083  2.0075  0.5792
    7CHTO    N3 2949   7.550   1.783   2.187  0.3486 -0.0228 -0.3942
    7CHTO   H12 2950   7.484   1.855   2.142 -0.7670 -0.1118  1.0653
    7CHTO   H13 2951   7.628   1.836   2.238  0.8307 -1.2941  0.2091
    7CHTO   C15 2952   7.420   1.786   2.410 -0.0610  0.5849  0.3967
    7CHTO   H28 2953   7.342   1.857   2.382 -0.8072 -1.5198 -3.2389
    7CHTO   O10 2954   7.525   1.853   2.482 -0.0958 -0.7462 -0.5067
    7CHTO    H4 2955   7.599   1.797   2.498  0.2835 -0.1487 -0.1618
    7CHTO    O5 2956   7.365   1.698   2.501  0.4546 -0.2771 -0.0289
    7CHTO   C10 2957   7.242   1.640   2.452 -0.0443 -0.2194 -0.0908
    7CHTO   H23 2958   7.176   1.723   2.430  0.5487  0.3925  0.4253
    7CHTO   C17 2959   7.182   1.569   2.577 -0.1730 -0.0114  0.2006
    7CHTO   O12 2960   7.050   1.532   2.573  0.0902 -0.3914 -0.1542
    7CHTO    H6 2961   7.033   1.475   2.646  0.7826 -1.1490 -0.5802
    8CHTO  H203 2962   7.401   8.338   1.310 -1.1341  0.8038 -1.8116
    8CHTO   O82 2963   7.354   8.397   1.367  0.6314  0.2619  0.2650
    8CHTO  C123 2964   7.252   8.316   1.433  0.1298 -0.1380  0.2648
    8CHTO  H227 2965   7.296   8.256   1.513 -0.4884 -0.7891  0.1186
    8CHTO   O77 2966   7.166   8.412   1.497  0.3340 -0.4079  0.6569
    8CHTO  C118 2967   7.053   8.347   1.566  0.3669  0.0753  0.1868
    8CHTO  H222 2968   7.088   8.279   1.645 -0.6238  0.1845  0.7322
    8CHTO  C125 2969   6.961   8.461   1.639 -0.2039 -0.4663 -0.2664
    8CHTO   O84 2970   6.882   8.543   1.550  0.2308 -0.0041  0.5153
    8CHTO  H205 2971   6.798   8.572   1.581 -0.0530  0.7666 -0.9265
    8CHTO  C114 2972   6.963   8.261   1.467 -0.3483 -0.0527 -0.6528
    8CHTO  H218 2973   6.921   8.330   1.394  0.0412  1.6018  0.6274
    8CHTO  C116 2974   7.053   8.167   1.384 -0.1361 -0.5933 -0.1148
    8CHTO  H220 2975   7.085   8.082   1.448  1.7300  0.0914 -0.0910
    8CHTO   O79 2976   6.975   8.108   1.284  0.0397 -0.0717 -0.3607
    8CHTO  H201 2977   6.904   8.064   1.327  1.0532  0.0459  1.4718
    8CHTO  C120 2978   7.180   8.230   1.320  0.3666 -0.4728 -0.0267
    8CHTO  H224 2979   7.144   8.293   1.236 -0.7696  1.9713  2.2120
    8CHTO   N21 2980   7.278   8.132   1.261  0.0165  0.4140 -0.2456
    8CHTO  H211 2981   7.217   8.055   1.217 -0.1843  0.8684 -0.7535
    8CHTO  H212 2982   7.348   8.172   1.190 -0.7143 -2.4016 -2.6582
    8CHTO   O75 2983   6.863   8.197   1.548  0.5823  0.8060  0.3815
    8CHTO  C112 2984   6.719   8.173   1.462 -0.4281  0.4275 -0.1711
    8CHTO  H216 2985   6.739   8.122   1.366  1.8397 -0.3182  0.6647
    8CHTO   O73 2986   6.658   8.302   1.452 -0.2134  0.3332  0.2333
    8CHTO  C113 2987   6.534   8.298   1.374 -0.1197  0.7712  0.3141
    8CHTO  H217 2988   6.565   8.253   1.278 -0.8683 -0.5371  0.6803
    8CHTO  C124 2989   6.488   8.439   1.338  0.1277  0.1614 -0.1886
    8CHTO   O83 2990   6.439   8.514   1.451  0.3131  0.2682  0.0533
    8CHTO  H204 2991   6.345   8.505   1.452  0.2652  0.6835 -0.5105
    8CHTO  C109 2992   6.421   8.215   1.441 -0.2924  0.3636  0.1269
    8CHTO  H213 2993   6.395   8.268   1.534  0.6943  1.7599 -0.3737
    8CHTO  C110 2994   6.488   8.076   1.477  0.1718 -0.2473  0.2472
    8CHTO  H214 2995   6.497   8.012   1.389 -0.3744  0.7729 -0.5488
    8CHTO   O78 2996   6.393   7.997   1.553  0.6790 -0.5343 -0.2085
    8CHTO  H200 2997   6.440   7.920   1.579 -0.3132 -0.0620  3.2168
    8CHTO  C111 2998   6.625   8.085   1.551 -0.4782 -0.0030 -0.5297
    8CHTO  H215 2999   6.608   8.131   1.649 -0.4074 -0.1571 -0.4449
    8CHTO   N19 3000   6.685   7.949   1.572 -0.3976 -0.0691  0.3185
    8CHTO  H207 3001   6.676   7.881   1.488 -1.8644 -0.7071  0.9798
    8CHTO  H208 3002   6.630   7.917   1.660  0.1144 -1.9025  0.0051
    8CHTO   O74 3003   6.305   8.217   1.352 -0.0032 -0.0399 -0.1784
    8CHTO  C115 3004   6.170   8.152   1.404  0.0853 -0.7671  0.1298
    8CHTO  H219 3005   6.161   8.052   1.362 -1.1346 -0.1576 -1.1052
    8CHTO   O76 3006   6.161   8.139   1.576 -0.3646  0.2677  0.0145
    8CHTO  C122 3007   6.118   8.254   1.655 -0.3183 -0.4296 -0.0132
    8CHTO  H226 3008   6.199   8.327   1.665  0.4456 -1.4978  1.7484
    8CHTO  C126 3009   6.087   8.211   1.803 -0.0179 -0.1486  0.4166
    8CHTO   O85 3010   5.971   8.123   1.820 -0.1751 -0.4582  0.2005
    8CHTO  H206 3011   5.997   8.042   1.781 -0.4945 -0.8116  0.7158
    8CHTO  C121 3012   5.994   8.327   1.585 -0.1465 -0.1950 -0.5792
    8CHTO  H225 3013   5.910   8.255   1.592  0.8257 -1.2455  0.3468
    8CHTO   O81 3014   5.961   8.441   1.663 -0.6581 -0.0963 -0.4358
    8CHTO  H202 3015   5.878   8.478   1.641 -0.3949  0.3647 -0.6719
    8CHTO  C119 3016   6.022   8.363   1.430 -0.0920 -0.3732 -1.0210
    8CHTO  H223 3017   5.936   8.413   1.385  0.2724  0.3384 -0.9390
    8CHTO  C117 3018   6.054   8.237   1.342  0.4639 -0.0582  0.2057
    8CHTO  H221 3019   6.094   8.261   1.244 -0.9030 -1.4217 -0.7088
    8CHTO   N20 3020   5.931   8.155   1.322 -0.2439 -0.2137 -0.0270
    8CHTO  H209 3021   5.927   8.066   1.383 -0.8694 -0.3089 -0.1951
    8CHTO  H210 3022   5.933   8.122   1.219  0.2545 -0.9872  0.2240
    8CHTO   O80 3023   6.122   8.474   1.423 -0.2516  0.1158 -0.6007
    8CHTO  C103 3024   6.077   8.628   1.348  0.1707 -0.0319 -0.1515
    8CHTO  H190 3025   5.968   8.629   1.341  0.1709  1.5256  0.0367
    8CHTO  C101 3026   6.122   8.752   1.437 -0.0624 -0.1887 -0.8187
    8CHTO  H188 3027   6.230   8.752   1.454  0.4033  0.8827 -3.5841
    8CHTO   O68 3028   6.044   8.742   1.581 -0.3858 -0.4003  0.1245
    8CHTO  H168 3029   6.033   8.823   1.627 -2.7645  0.1862 -1.3950
    8CHTO   C99 3030   6.086   8.896   1.368  0.2074  0.8361 -0.3492
    8CHTO  H186 3031   5.976   8.908   1.357 -0.0909 -1.3215  0.0305
    8CHTO   N17 3032   6.135   9.020   1.440  0.1020 -0.2826  0.3138
    8CHTO  H174 3033   6.201   8.997   1.523 -0.5780 -0.2894  0.8634
    8CHTO  H175 3034   6.048   9.073   1.477  0.0082 -0.3183  0.1434
    8CHTO   C97 3035   6.140   8.893   1.222  0.3821 -0.0078 -0.7041
    8CHTO  H184 3036   6.249   8.900   1.217  0.1918  1.7836 -2.7776
    8CHTO   O64 3037   6.092   8.775   1.154  0.2170  0.1897  0.3513
    8CHTO  C104 3038   6.134   8.648   1.205 -0.8727 -0.3373  0.0575
    8CHTO  H191 3039   6.243   8.655   1.207 -0.8547 -0.5476 -0.0824
    8CHTO  C108 3040   6.107   8.532   1.111 -0.0197 -0.5903 -0.0900
    8CHTO   O71 3041   6.162   8.554   0.982  0.0360  0.4032  0.2626
    8CHTO  H171 3042   6.252   8.533   0.968 -0.0308 -0.3619  0.9581
    8CHTO   O62 3043   6.081   8.995   1.140  0.0349 -0.1614 -0.1356
    8CHTO   C91 3044   6.146   9.023   1.021 -0.0848  0.0096 -0.0910
    8CHTO  H178 3045   6.206   8.938   0.988  0.3095  0.1581  0.2355
    8CHTO   C92 3046   6.249   9.148   1.030  0.2552 -0.1897 -0.2544
    8CHTO  H179 3047   6.186   9.233   1.059  0.1164 -0.8135  1.3029
    8CHTO   O66 3048   6.334   9.121   1.144 -0.6129 -0.1933 -0.9656
    8CHTO  H166 3049   6.404   9.065   1.115 -0.6467 -1.0345  0.5199
    8CHTO   C93 3050   6.317   9.157   0.884 -0.1101 -0.3857 -0.3756
    8CHTO  H180 3051   6.374   9.065   0.864  0.6226 -0.2720  1.1256
    8CHTO   N16 3052   6.420   9.268   0.879 -0.2519  0.1199 -0.0914
    8CHTO  H172 3053   6.505   9.260   0.944  0.5165  3.0248 -0.6871
    8CHTO  H173 3054   6.448   9.299   0.780  0.5241 -0.3476 -0.0184
    8CHTO   C94 3055   6.209   9.175   0.776  0.4470  0.0997 -0.1806
    8CHTO  H181 3056   6.140   9.256   0.800  1.0423  0.1933  1.2732
    8CHTO   O61 3057   6.124   9.057   0.778 -0.0573  0.8374  0.5293
    8CHTO   C95 3058   6.054   9.032   0.900  0.2805  0.2564  0.0015
    8CHTO  H182 3059   5.979   9.110   0.913  0.0181 -0.2105  1.3274
    8CHTO  C106 3060   5.977   8.899   0.883  0.0694 -0.2572  0.1005
    8CHTO   O69 3061   5.873   8.907   0.787 -0.1497  0.0118 -0.1682
    8CHTO  H169 3062   5.898   8.939   0.702 -0.7407  0.0060 -0.3468
    8CHTO   O63 3063   6.280   9.209   0.618 -0.0453  0.2763 -0.2630
    8CHTO   C96 3064   6.170   9.263   0.502  0.3099 -0.3038 -0.3904
    8CHTO  H183 3065   6.075   9.217   0.527  0.1233  1.5039  2.4924
    8CHTO   C98 3066   6.219   9.214   0.366  0.3666  0.9685 -0.3803
    8CHTO  H185 3067   6.320   9.252   0.346  1.2878  0.1292  2.4403
    8CHTO   O67 3068   6.227   9.067   0.376  0.8825  0.1134  0.2528
    8CHTO  H167 3069   6.269   9.031   0.452  0.3421 -0.7063  0.1659
    8CHTO  C102 3070   6.119   9.257   0.245  0.0324  0.5671 -0.2524
    8CHTO  H189 3071   6.045   9.175   0.240  1.0720 -0.3276 -1.1873
    8CHTO   N18 3072   6.190   9.253   0.116  0.0721  0.3379  0.2208
    8CHTO  H176 3073   6.193   9.152   0.079 -0.7886  0.9661 -1.5900
    8CHTO  H177 3074   6.287   9.301   0.122  0.6362 -0.2060 -3.2537
    8CHTO  C105 3075   6.042   9.388   0.270 -0.5517  0.7399  0.4453
    8CHTO  H192 3076   6.093   9.469   0.219  1.3972 -0.6796  0.0681
    8CHTO   O65 3077   6.024   9.436   0.409  0.5620 -0.1215  0.1241
    8CHTO  C100 3078   6.140   9.418   0.491 -0.1780 -0.3896 -0.3699
    8CHTO  H187 3079   6.228   9.469   0.449 -0.3531 -1.6099 -2.2533
    8CHTO  C107 3080   6.109   9.471   0.632  0.6204 -0.1540 -0.3767
    8CHTO   O70 3081   6.228   9.499   0.704  0.0663  0.1277 -0.0000
    8CHTO  H170 3082   6.214   9.520   0.794  0.8590 -1.0692  0.4232
    8CHTO   O57 3083   5.899   9.373   0.211 -0.3001  0.1367  0.5248
    8CHTO   C85 3084   5.837   9.480   0.148  0.1221  0.0343  0.0391
    8CHTO  H157 3085   5.913   9.544   0.097  1.9923 -1.8047  0.4327
    8CHTO   C83 3086   5.772   9.566   0.263 -0.0034  0.1340 -0.2635
    8CHTO  H155 3087   5.852   9.603   0.327  0.6570  0.0407 -1.0236
    8CHTO   O56 3088   5.688   9.477   0.342 -0.4048 -0.6976 -0.5641
    8CHTO  H135 3089   5.730   9.403   0.382 -2.3548 -1.9669 -0.8010
    8CHTO   C81 3090   5.692   9.681   0.196 -0.4707 -0.4764  0.0300
    8CHTO  H153 3091   5.752   9.739   0.126 -2.4523  0.1162 -1.1790
    8CHTO   N14 3092   5.646   9.784   0.294  0.2517 -0.0710  0.0840
    8CHTO  H141 3093   5.590   9.866   0.256  2.5439  0.3977 -2.4471
    8CHTO  H142 3094   5.723   9.824   0.357  0.2827  1.9311 -1.2146
    8CHTO   C79 3095   5.580   9.624   0.112  0.0899  0.2066  0.0033
    8CHTO  H151 3096   5.533   9.708   0.061  0.6819 -0.0799 -1.0309
    8CHTO   O52 3097   5.631   9.535   0.007  0.1971  0.0536 -0.4061
    8CHTO   C86 3098   5.724   9.430   0.052 -0.0259  0.2684 -0.0157
    8CHTO  H158 3099   5.671   9.345   0.099  0.0463  0.1343 -0.1776
    8CHTO   C90 3100   5.791   9.378  -0.073 -0.1034 -0.3238 -0.2881
    8CHTO   O60 3101   5.703   9.333  -0.174  0.4140  0.6826  0.0281
    8CHTO  H138 3102   5.670   9.403  -0.227  2.4694 -0.0809 -2.3820
    8CHTO   O50 3103   5.482   9.550   0.189  0.3928  0.2965 -0.3007
    8CHTO   C73 3104   5.345   9.499   0.177 -0.8046  0.0358  0.0666
    8CHTO  H145 3105   5.330   9.452   0.079 -2.2242 -2.0918  1.2653
    8CHTO   C74 3106   5.245   9.614   0.191  0.1275  0.2423  0.7822
    8CHTO  H146 3107   5.273   9.680   0.107  0.6844  0.9547  1.5257
    8CHTO   O54 3108   5.117   9.557   0.165 -0.3104  0.0721 -0.0171
    8CHTO  H133 3109   5.061   9.624   0.131  2.2984  3.4625  2.0470
    8CHTO   C75 3110   5.255   9.682   0.330 -0.9044 -0.0273  0.3411
    8CHTO  H147 3111   5.355   9.728   0.341 -0.9016  0.4543 -1.5070
    8CHTO   N13 3112   5.161   9.799   0.344 -0.4506  0.2564 -0.2168
    8CHTO  H139 3113   5.215   9.869   0.406  1.6351  1.0346 -2.7974
    8CHTO  H140 3114   5.074   9.767   0.400  0.3728 -1.0760  0.3023
    8CHTO   C76 3115   5.242   9.573   0.446 -0.0332  0.8637 -0.9400
    8CHTO  H148 3116   5.142   9.534   0.461 -0.1039  0.7222 -1.7262
    8CHTO   O49 3117   5.328   9.458   0.420  0.1692  0.4191  0.6847
    8CHTO   C77 3118   5.315   9.402   0.287 -0.9942  0.1719 -0.1951
    8CHTO  H149 3119   5.214   9.369   0.264 -0.2923 -1.7083 -0.6814
    8CHTO   C88 3120   5.408   9.278   0.265 -0.6232  0.0586 -0.5095
    8CHTO   O58 3121   5.380   9.208   0.109 -0.0123 -0.6986 -0.1566
    8CHTO  H136 3122   5.352   9.279   0.054  2.0151 -0.1365 -0.4985
    8CHTO   O51 3123   5.293   9.636   0.566  0.3091 -0.2683 -0.2962
    8CHTO   C78 3124   5.338   9.540   0.684  0.2542  0.2311 -0.9995
    8CHTO  H150 3125   5.373   9.444   0.641  0.9624  0.7898 -1.6661
    8CHTO   C80 3126   5.219   9.517   0.781 -0.5795  0.4475  0.1181
    8CHTO  H152 3127   5.177   9.616   0.807 -3.5642 -0.3696 -1.3634
    8CHTO   O55 3128   5.126   9.441   0.700  0.0632 -0.2396 -0.5127
    8CHTO  H134 3129   5.071   9.501   0.653  0.0378 -1.6497 -2.2896
    8CHTO   C84 3130   5.262   9.436   0.912 -0.6585 -0.1201 -0.3004
    8CHTO  H156 3131   5.283   9.332   0.889 -1.2198 -0.4037  0.4837
    8CHTO   N15 3132   5.145   9.425   1.006 -0.6054  0.8935 -0.4794
    8CHTO  H143 3133   5.054   9.400   0.955 -0.2101  1.1242 -1.3067
    8CHTO  H144 3134   5.163   9.348   1.078 -3.1789  1.3961  0.7468
    8CHTO   C87 3135   5.393   9.502   0.970  0.1590 -0.1911 -0.2838
    8CHTO  H159 3136   5.375   9.599   1.017 -0.7747 -1.0495  1.1954
    8CHTO   O53 3137   5.504   9.516   0.850 -0.2504  0.1682 -0.9446
    8CHTO   C82 3138   5.455   9.607   0.751 -0.5572  0.2245  0.2391
    8CHTO  H154 3139   5.430   9.703   0.795 -2.9697 -1.3604  2.5046
    8CHTO   C89 3140   5.564   9.633   0.637  0.2724  0.5266  0.0249
    8CHTO   O59 3141   5.688   9.573   0.667 -0.3159  0.0512 -0.1374
    8CHTO  H137 3142   5.747   9.644   0.680  0.7563 -0.9484  0.5375
    8CHTO   O45 3143   5.468   9.414   1.107  0.0247  0.1230 -0.1948
    8CHTO   C67 3144   5.505   9.282   1.068  0.0326  0.6830 -0.5165
    8CHTO  H124 3145   5.479   9.267   0.963  3.0981 -2.1822 -0.9438
    8CHTO   C65 3146   5.663   9.257   1.086  0.3731 -0.0613 -0.1730
    8CHTO  H122 3147   5.710   9.347   1.047 -0.4021  0.2122 -0.4808
    8CHTO   O44 3148   5.706   9.140   1.013  0.0796 -0.0792 -0.0103
    8CHTO  H102 3149   5.791   9.112   1.041 -0.1543 -1.2359 -0.4307
    8CHTO   C63 3150   5.685   9.273   1.237  0.2478  0.0403 -0.4185
    8CHTO  H120 3151   5.626   9.361   1.265  0.2400  0.4187 -1.5793
    8CHTO   N11 3152   5.829   9.299   1.277 -0.1577  0.3792 -0.1883
    8CHTO  H108 3153   5.886   9.223   1.227 -0.6264  0.3570 -0.6848
    8CHTO  H109 3154   5.848   9.272   1.379  1.2568 -0.3638 -0.6336
    8CHTO   C61 3155   5.636   9.148   1.303  0.5338 -0.5603 -0.5876
    8CHTO  H118 3156   5.652   9.152   1.412 -0.9906 -2.7636 -0.2504
    8CHTO   O40 3157   5.490   9.143   1.283 -1.1575 -0.0319  0.7478
    8CHTO   C68 3158   5.422   9.179   1.154 -0.3904  0.4043  0.2350
    8CHTO  H125 3159   5.324   9.228   1.171 -1.1142 -1.1134  0.5202
    8CHTO   C72 3160   5.396   9.053   1.068  0.2816 -0.0786  0.0118
    8CHTO   O48 3161   5.312   8.953   1.125  0.1408  0.1134 -0.3938
    8CHTO  H105 3162   5.366   8.895   1.175  0.8634  1.6293  0.6282
    8CHTO   O38 3163   5.694   9.019   1.269 -0.0426  0.0845 -0.4624
    8CHTO   C55 3164   5.629   8.900   1.318 -0.6375 -0.3004 -0.0344
    8CHTO  H112 3165   5.525   8.888   1.285 -1.2878 -1.1869  2.2887
    8CHTO   C56 3166   5.649   8.878   1.474 -0.0459  0.1313 -0.1724
    8CHTO  H113 3167   5.753   8.888   1.509 -0.4413 -0.1613  1.1298
    8CHTO   O42 3168   5.576   8.986   1.545 -0.3756  0.0840  0.0915
    8CHTO  H100 3169   5.620   8.989   1.628 -1.2059 -0.2096  0.5431
    8CHTO   C57 3170   5.588   8.741   1.522  0.2806 -0.4793 -0.4412
    8CHTO  H114 3171   5.481   8.749   1.507  0.4854 -1.8529 -2.9151
    8CHTO   N10 3172   5.615   8.720   1.669 -0.3936 -0.3394  0.4750
    8CHTO  H106 3173   5.536   8.763   1.729  0.8845  0.1884  1.7996
    8CHTO  H107 3174   5.615   8.613   1.690  0.2930 -0.4859 -0.2595
    8CHTO   C58 3175   5.637   8.629   1.428  0.2659 -0.3842 -0.0790
    8CHTO  H115 3176   5.744   8.608   1.447  0.1441 -2.0144 -1.0525
    8CHTO   O37 3177   5.625   8.662   1.297 -0.2989 -0.2485  0.1301
    8CHTO   C59 3178   5.708   8.774   1.262  0.0941 -0.3751  0.1546
    8CHTO  H116 3179   5.809   8.765   1.301 -0.1608  1.5543  1.3452
    8CHTO   C70 3180   5.717   8.782   1.111 -0.2228  0.9103  0.3074
    8CHTO   O46 3181   5.789   8.674   1.047 -0.3528  0.4756 -0.0774
    8CHTO  H103 3182   5.875   8.664   1.085 -0.2207 -0.6896 -0.6601
    8CHTO   O39 3183   5.535   8.492   1.445  0.5527 -0.0046 -0.1268
    8CHTO   C60 3184   5.394   8.507   1.407  0.1554  0.2732  0.5305
    8CHTO  H117 3185   5.348   8.590   1.461  0.4417  1.0599 -0.4410
    8CHTO   C62 3186   5.375   8.530   1.256 -0.3320 -0.5127 -0.3280
    8CHTO  H119 3187   5.427   8.625   1.231  2.8442 -1.1923  3.2378
    8CHTO   O43 3188   5.450   8.422   1.193 -0.0634 -0.0996  0.1166
    8CHTO  H101 3189   5.406   8.346   1.162 -2.5183  1.5789 -0.6893
    8CHTO   C66 3190   5.225   8.536   1.203 -0.0988  0.6429  0.5303
    8CHTO  H123 3191   5.172   8.617   1.253 -0.1100  1.5284 -0.8979
    8CHTO   N12 3192   5.211   8.556   1.055  0.0833 -0.2433 -0.2449
    8CHTO  H110 3193   5.233   8.465   1.002  0.9128 -0.1873  0.0045
    8CHTO  H111 3194   5.276   8.635   1.019 -0.9872  0.2538 -1.1345
    8CHTO   C69 3195   5.149   8.407   1.246 -0.2087 -0.4969  0.9222
    8CHTO  H126 3196   5.194   8.316   1.202 -0.4742 -0.8256  1.3329
    8CHTO   O41 3197   5.172   8.393   1.409  0.4366  0.3802 -0.3286
    8CHTO   C64 3198   5.319   8.386   1.455 -0.0007  0.4252 -0.8380
    8CHTO  H121 3199   5.369   8.296   1.414 -0.6994  0.9435 -2.9127
    8CHTO   C71 3200   5.328   8.374   1.604 -0.4141  0.0587  0.0570
    8CHTO   O47 3201   5.277   8.251   1.650  0.0636 -0.0827  0.3915
    8CHTO  H104 3202   5.208   8.221   1.594  0.3238 -1.3544  0.7554
    8CHTO   O34 3203   4.985   8.410   1.217 -0.2905 -0.3688  0.1008
    8CHTO   C49 3204   4.877   8.438   1.334 -0.1857 -0.5032  0.3815
    8CHTO   H91 3205   4.886   8.356   1.405 -0.8874 -1.4623 -0.6221
    8CHTO   C47 3206   4.743   8.427   1.259 -0.4474 -0.0357  0.1213
    8CHTO   H89 3207   4.661   8.440   1.334 -2.2497  2.3788 -2.1689
    8CHTO   O33 3208   4.730   8.294   1.204  0.0502  0.2697 -0.4053
    8CHTO   H70 3209   4.805   8.271   1.153  0.1306 -0.9170  0.2242
    8CHTO   C45 3210   4.721   8.552   1.156  0.2090 -0.2017 -0.5364
    8CHTO   H87 3211   4.797   8.537   1.078  0.5494 -0.5439 -0.1452
    8CHTO    N8 3212   4.591   8.551   1.095 -0.2263 -0.1043  0.4229
    8CHTO   H75 3213   4.516   8.561   1.172 -0.3019 -0.3804  0.3870
    8CHTO   H76 3214   4.582   8.459   1.039  1.1973  0.5206 -0.8848
    8CHTO   C43 3215   4.756   8.691   1.225  0.1657 -0.3170 -0.0100
    8CHTO   H85 3216   4.759   8.763   1.143 -0.7094  0.9593  1.0558
    8CHTO   O29 3217   4.880   8.688   1.301 -0.0187 -0.1648 -0.7490
    8CHTO   C50 3218   4.901   8.577   1.392  0.7259 -0.1638  0.1326
    8CHTO   H92 3219   5.008   8.578   1.416  0.7456 -0.5144  0.0523
    8CHTO   C54 3220   4.831   8.607   1.533 -0.0718 -0.3654  0.1888
    8CHTO   O36 3221   4.864   8.496   1.621 -0.2788 -0.1843 -0.1271
    8CHTO   H72 3222   4.783   8.452   1.636 -2.7302  3.8883 -0.6005
    8CHTO   O27 3223   4.658   8.738   1.316  0.0351 -0.2137  0.2607
    8CHTO   C37 3224   4.607   8.870   1.342 -0.2197 -0.2949 -0.3316
    8CHTO   H79 3225   4.541   8.854   1.429 -2.6735 -1.2755 -2.2846
    8CHTO   C38 3226   4.720   8.978   1.355 -0.0414 -0.0259 -0.2775
    8CHTO   H80 3227   4.792   8.961   1.273  0.1161 -1.3890  0.1283
    8CHTO   O31 3228   4.781   8.955   1.486 -0.6180 -0.0723  0.1053
    8CHTO   H68 3229   4.725   8.962   1.560 -1.8370  1.7581 -0.9308
    8CHTO   C39 3230   4.672   9.129   1.356  0.5235  1.1154 -0.1541
    8CHTO   H81 3231   4.613   9.147   1.446 -0.7469  1.2027 -0.9895
    8CHTO    N7 3232   4.777   9.230   1.363  0.3885  0.5175  0.4390
    8CHTO   H73 3233   4.733   9.328   1.366 -1.9635 -0.4720 -1.0726
    8CHTO   H74 3234   4.842   9.212   1.448 -0.3360 -2.2348  0.4555
    8CHTO   C40 3235   4.577   9.158   1.240 -0.5338 -0.4674 -0.3803
    8CHTO   H82 3236   4.633   9.162   1.146  0.8972  1.6294  0.5227
    8CHTO   O26 3237   4.471   9.061   1.240  0.0209  0.7992 -0.1820
    8CHTO   C41 3238   4.515   8.917   1.228 -0.4301 -0.5622  0.0508
    8CHTO   H83 3239   4.569   8.896   1.135 -2.6388  1.5035 -1.7570
    8CHTO   C52 3240   4.383   8.835   1.226 -0.5074  0.1962  0.0660
    8CHTO   O35 3241   4.297   8.856   1.102 -0.1292 -0.1798 -0.2387
    8CHTO   H71 3242   4.285   8.771   1.065 -0.6168  0.3746 -1.3768
    8CHTO   O28 3243   4.506   9.279   1.246 -0.1882  0.1496  0.0856
    8CHTO   C42 3244   4.455   9.337   1.122  0.4137 -0.3642 -0.1584
    8CHTO   H84 3245   4.406   9.428   1.157  0.3903 -1.6356  3.3412
    8CHTO   C44 3246   4.346   9.259   1.037  0.5102 -0.0785 -0.4687
    8CHTO   H86 3247   4.387   9.165   1.001  0.0222 -0.4600 -0.0308
    8CHTO   O32 3248   4.234   9.226   1.126  0.2648  0.5370  0.1703
    8CHTO   H69 3249   4.175   9.163   1.091  0.7083  1.0754 -1.5894
    8CHTO   C48 3250   4.286   9.341   0.906  0.1525 -0.0806 -0.1447
    8CHTO   H90 3251   4.227   9.427   0.938  1.9961  1.5589 -1.0622
    8CHTO    N9 3252   4.191   9.253   0.826 -0.1210 -0.4216 -0.0378
    8CHTO   H77 3253   4.232   9.226   0.731 -0.9766  1.4506 -0.9730
    8CHTO   H78 3254   4.101   9.312   0.814  0.6250  0.6797 -0.2943
    8CHTO   C51 3255   4.406   9.384   0.821 -0.8374 -0.5655  0.6694
    8CHTO   H93 3256   4.459   9.298   0.781  0.2304 -1.0783  3.1093
    8CHTO   O30 3257   4.494   9.465   0.901  0.1387 -0.8044  0.1458
    8CHTO   C46 3258   4.566   9.386   1.023 -0.3395  0.0453 -0.6525
    8CHTO   H88 3259   4.625   9.310   0.972 -0.8837 -0.1993 -0.9193
    8CHTO   C53 3260   4.664   9.486   1.085  0.7596  0.5618 -0.1966
    8CHTO   O72 3261   4.756   9.538   0.986 -0.5131 -0.2588  0.4829
    8CHTO  H199 3262   4.801   9.614   1.018 -0.0480 -0.4523  0.2908
    8CHTO   O22 3263   4.372   9.478   0.711  1.0938 -0.0610  0.2472
    8CHTO   C31 3264   4.463   9.501   0.598  0.2098  0.1753  0.2801
    8CHTO   H59 3265   4.412   9.575   0.533 -0.4117  0.9236  1.6123
    8CHTO   C29 3266   4.601   9.559   0.637  0.2695  0.8012  0.0773
    8CHTO   H57 3267   4.640   9.489   0.713 -1.0174 -0.2218 -0.1888
    8CHTO   O21 3268   4.568   9.682   0.708  0.3178  0.0622  0.4143
    8CHTO   H37 3269   4.628   9.684   0.780  0.2483  0.8954  0.4458
    8CHTO   C27 3270   4.710   9.567   0.524 -0.1257  0.1340 -0.5295
    8CHTO   H55 3271   4.687   9.656   0.463 -3.3645  0.5192  1.1362
    8CHTO    N5 3272   4.846   9.578   0.583  0.2505  0.3316  0.0412
    8CHTO   H43 3273   4.873   9.679   0.612  2.9166 -0.8281  1.8347
    8CHTO   H44 3274   4.879   9.507   0.658  0.6130  0.1761 -0.2651
    8CHTO   C25 3275   4.700   9.433   0.436 -0.3551 -0.2241 -0.0955
    8CHTO   H53 3276   4.729   9.351   0.503 -2.1324 -1.5467 -0.8837
    8CHTO   O17 3277   4.565   9.405   0.398  0.3151 -0.1593  0.2885
    8CHTO   C32 3278   4.478   9.371   0.512 -0.8159  0.6004  0.6727
    8CHTO   H60 3279   4.524   9.293   0.572 -0.6816  0.4528  0.3819
    8CHTO   C36 3280   4.345   9.316   0.451 -0.1227 -0.3785 -0.0587
    8CHTO   O25 3281   4.370   9.208   0.366  0.0165  0.2718 -0.3849
    8CHTO   H40 3282   4.369   9.233   0.276  1.0698 -1.7785 -0.9895
    8CHTO   O15 3283   4.791   9.445   0.303 -0.3117  0.0318  1.1301
    8CHTO   C19 3284   4.807   9.365   0.174 -0.1468  0.2643  0.0934
    8CHTO   H47 3285   4.722   9.295   0.178 -0.3240  0.5795  2.3185
    8CHTO   C20 3286   4.800   9.460   0.051  0.4744  0.2841  0.9917
    8CHTO   H48 3287   4.862   9.550   0.062  0.8158  0.1554  0.1602
    8CHTO   O19 3288   4.668   9.507   0.045 -0.2767  0.1371 -0.2451
    8CHTO   H35 3289   4.654   9.559  -0.032  0.4908 -0.2550 -0.6473
    8CHTO   C21 3290   4.846   9.389  -0.085  0.2607  0.4171 -0.3006
    8CHTO   H49 3291   4.769   9.321  -0.123  2.1377 -1.3143 -1.0629
    8CHTO    N4 3292   4.871   9.493  -0.191 -0.5056  0.2586 -0.3432
    8CHTO   H41 3293   4.865   9.594  -0.154 -1.5294  0.2108 -0.3609
    8CHTO   H42 3294   4.804   9.486  -0.276 -0.3161  0.1498 -0.4816
    8CHTO   C22 3295   4.979   9.308  -0.064 -0.0517  0.4290  0.7355
    8CHTO   H50 3296   5.062   9.373  -0.038  1.3878 -0.1578 -2.1762
    8CHTO   O14 3297   4.961   9.217   0.043 -0.1131 -0.3460  0.1591
    8CHTO   C23 3298   4.933   9.284   0.169  0.0052  0.6154 -0.2453
    8CHTO   H51 3299   5.021   9.344   0.193 -0.0781  1.5814 -2.2812
    8CHTO   C34 3300   4.931   9.162   0.264  0.1034 -0.2597  0.6668
    8CHTO   O23 3301   4.919   9.212   0.401  0.0768  0.2493  0.2069
    8CHTO   H38 3302   4.998   9.250   0.435  0.7219  1.3833 -2.4560
    8CHTO   O16 3303   5.011   9.226  -0.179  0.0048  0.3496 -0.6366
    8CHTO   C24 3304   5.154   9.201  -0.193 -0.0953 -0.1604 -0.3965
    8CHTO   H52 3305   5.199   9.191  -0.095 -1.4906 -1.2674  0.1485
    8CHTO   C26 3306   5.232   9.311  -0.271  0.2360  0.4484  0.2437
    8CHTO   H54 3307   5.179   9.344  -0.363  0.3828 -0.7950 -0.2974
    8CHTO   O20 3308   5.239   9.430  -0.188  0.3785 -0.3253 -0.2247
    8CHTO   H36 3309   5.287   9.421  -0.108  0.5285 -1.8950 -0.4716
    8CHTO   C30 3310   5.378   9.260  -0.301  0.9585 -0.5826  0.0790
    8CHTO   H58 3311   5.426   9.237  -0.205  0.1875 -0.5359  0.4822
    8CHTO    N6 3312   5.451   9.362  -0.376 -0.2189  0.1649 -0.1761
    8CHTO   H45 3313   5.552   9.342  -0.410 -0.7476 -2.4478 -0.2887
    8CHTO   H46 3314   5.442   9.463  -0.339 -2.9492  0.2357 -0.9549
    8CHTO   C33 3315   5.370   9.125  -0.369 -0.0508 -0.0474 -0.0733
    8CHTO   H61 3316   5.316   9.139  -0.464  1.8443 -0.4241 -1.2365
    8CHTO   O18 3317   5.303   9.027  -0.285  0.5438  0.2012 -0.0217
    8CHTO   C28 3318   5.160   9.060  -0.259 -0.8414  0.1304 -0.5894
    8CHTO   H56 3319   5.105   9.060  -0.353  1.0581 -1.3925 -1.7454
    8CHTO   C35 3320   5.102   8.955  -0.157 -0.5778  0.4308  0.5276
    8CHTO   O24 3321   5.131   8.827  -0.194 -0.4599  0.2645  0.1764
    8CHTO   H39 3322   5.064   8.767  -0.166  0.2923 -1.0315 -0.7806
    8CHTO    O9 3323   5.496   9.074  -0.415 -0.1635 -0.3630 -0.3837
    8CHTO   C13 3324   5.476   8.951  -0.529  0.8521  0.2568  0.7910
    8CHTO   H26 3325   5.389   8.977  -0.594 -0.1469 -1.4580  1.4196
    8CHTO   C11 3326   5.453   8.809  -0.462 -0.6732 -0.0352 -0.0307
    8CHTO   H24 3327   5.345   8.796  -0.447 -0.6840 -1.1750 -0.9526
    8CHTO    O8 3328   5.516   8.802  -0.334 -0.4341  0.5207 -0.3727
    8CHTO    H3 3329   5.592   8.747  -0.332  0.7668  2.1600  0.1504
    8CHTO    C9 3330   5.502   8.704  -0.573  0.4538  0.0947  0.0176
    8CHTO   H22 3331   5.441   8.720  -0.663  1.7228  0.7049 -0.7548
    8CHTO    N2 3332   5.471   8.564  -0.532  0.0903 -0.2351  0.0300
    8CHTO   H10 3333   5.431   8.506  -0.614 -0.1949  1.5426 -1.1077
    8CHTO   H11 3334   5.556   8.525  -0.477  1.5216  0.1846 -1.8191
    8CHTO    C7 3335   5.657   8.730  -0.612  0.0271  0.6174  0.1048
    8CHTO   H20 3336   5.661   8.715  -0.722 -1.0985 -0.1137  0.1513
    8CHTO    O4 3337   5.705   8.864  -0.585 -0.1277  0.8795  0.3053
    8CHTO   C14 3338   5.607   8.957  -0.628  0.8907 -0.1789 -0.2867
    8CHTO   H27 3339   5.568   8.924  -0.727 -0.9672  1.8039 -0.2390
    8CHTO   C18 3340   5.672   9.099  -0.647  0.7323  0.2045  0.2776
    8CHTO   O13 3341   5.777   9.099  -0.741 -0.0567  0.4039 -0.3721
    8CHTO    H7 3342   5.799   9.189  -0.759  1.6185 -0.1186 -1.0868
    8CHTO    O2 3343   5.774   8.611  -0.548  0.3148 -0.6573  0.0785
    8CHTO    C1 3344   5.905   8.651  -0.507  0.3378 -0.4238 -0.3104
    8CHTO   H14 3345   5.905   8.761  -0.494 -0.5253 -0.4440 -0.1133
    8CHTO    C2 3346   6.012   8.622  -0.624  0.7517 -0.3277 -0.1522
    8CHTO   H15 3347   5.992   8.518  -0.654  0.0335 -1.2026  3.2378
    8CHTO    O6 3348   5.973   8.710  -0.736 -0.1162  0.2336 -0.3613
    8CHTO    H1 3349   6.009   8.685  -0.820 -0.3935  1.9008 -1.0048
    8CHTO    C3 3350   6.162   8.640  -0.566  0.2226 -0.3219 -0.6591
    8CHTO   H16 3351   6.180   8.747  -0.547 -0.0370 -0.6763  1.7636
    8CHTO    N1 3352   6.256   8.591  -0.669 -0.0529  0.6120 -0.0492
    8CHTO    H8 3353   6.205   8.564  -0.760 -0.3711 -1.6786  0.7798
    8CHTO    H9 3354   6.316   8.514  -0.623  0.3350  1.3591  0.7166
    8CHTO    C4 3355   6.170   8.565  -0.433 -0.3018 -0.0938 -0.5350
    8CHTO   H17 3356   6.166   8.458  -0.453 -0.9041  0.0496 -1.1761
    8CHTO    O1 3357   6.073   8.601  -0.336  0.9133 -0.3704  0.1948
    8CHTO    C5 3358   5.940   8.569  -0.379 -0.1369  0.1142  0.4051
    8CHTO   H18 3359   5.926   8.464  -0.403 -1.0326  0.5781 -1.1655
    8CHTO   C16 3360   5.850   8.599  -0.250 -0.2557  0.0544  0.3582
    8CHTO   O11 3361   5.854   8.486  -0.158 -0.0151 -0.0518  0.0374
    8CHTO    H5 3362   5.932   8.491  -0.106  0.7975 -3.0114 -0.8423
    8CHTO    O3 3363   6.289   8.606  -0.362  0.2545  0.0818 -0.0180
    8CHTO    C6 3364   6.356   8.503  -0.278  0.2353  0.1983  0.2860
    8CHTO   H19 3365   6.293   8.420  -0.245 -0.1302  0.6236  0.6632
    8CHTO    C8 3366   6.476   8.428  -0.345 -0.3598 -0.2484 -0.3365
    8CHTO   H21 3367   6.549   8.504  -0.372 -1.2542  0.9077  0.4951
    8CHTO    O7 3368   6.440   8.352  -0.464  0.6945  0.0092 -0.1213
    8CHTO    H2 3369   6.370   8.290  -0.451  0.4630  0.1967 -0.4604
    8CHTO   C12 3370   6.542   8.328  -0.240 -0.2712 -0.1954  0.3026
    8CHTO   H25 3371   6.466   8.248  -0.232 -0.3065 -0.0932  1.0188
    8CHTO    N3 3372   6.673   8.264  -0.282  0.0310  0.2205 -0.0062
    8CHTO   H12 3373   6.663   8.182  -0.352  1.9780  1.9240 -2.3372
    8CHTO   H13 3374   6.725   8.224  -0.196  1.1809  1.6410 -0.0265
    8CHTO   C15 3375   6.557   8.400  -0.099 -0.3774 -0.3112 -0.0349
    8CHTO   H28 3376   6.643   8.466  -0.092  1.3833 -2.4956 -0.4178
    8CHTO   O10 3377   6.574   8.274   0.022 -0.3617 -0.0942 -0.0082
    8CHTO    H4 3378   6.650   8.220   0.013 -0.7298 -0.4529 -0.9958
    8CHTO    O5 3379   6.438   8.465  -0.054  0.3681  0.2023  0.4878
    8CHTO   C10 3380   6.404   8.568  -0.151  0.3773  0.0429 -0.3137
    8CHTO   H23 3381   6.495   8.626  -0.165  1.1595 -1.6273 -2.3737
    8CHTO   C17 3382   6.306   8.651  -0.081 -0.1157  0.0173 -0.1393
    8CHTO   O12 3383   6.356   8.725   0.036  0.1990 -0.4582 -0.2837
    8CHTO    H6 3384   6.298   8.796   0.056 -0.0198 -1.0946  1.3730
    9CHTO  H203 3385   7.970   3.660   0.991  0.7635  0.3302  0.1317
    9CHTO   O82 3386   7.983   3.750   0.967 -0.2929  0.3380 -0.4369
    9CHTO  C123 3387   8.073   3.774   0.861 -0.4011 -0.0683  0.7800
    9CHTO  H227 3388   8.092   3.882   0.858  1.1487 -0.3596 -0.5860
    9CHTO   O77 3389   8.189   3.710   0.901 -0.6748 -0.2891  0.0132
    9CHTO  C118 3390   8.303   3.711   0.810  0.1599 -0.1577 -0.0842
    9CHTO  H222 3391   8.341   3.814   0.799  0.5963 -0.1650  1.3329
    9CHTO  C125 3392   8.417   3.629   0.876  0.4115 -0.0273 -0.1546
    9CHTO   O84 3393   8.469   3.691   0.997 -0.3437 -0.2990  0.5527
    9CHTO  H205 3394   8.454   3.633   1.070  0.8707 -1.6821 -0.2608
    9CHTO  C114 3395   8.259   3.662   0.670  0.1174  0.7171  0.5455
    9CHTO  H218 3396   8.240   3.555   0.673 -2.0452  1.0214 -1.2683
    9CHTO  C116 3397   8.135   3.746   0.627  0.4270 -0.4309  0.0518
    9CHTO  H220 3398   8.154   3.855   0.621  0.0194 -0.3924 -0.5974
    9CHTO   O79 3399   8.105   3.719   0.488  0.5927  0.1940  0.9980
    9CHTO  H201 3400   8.178   3.735   0.433 -0.8418 -0.1626 -1.0587
    9CHTO  C120 3401   8.018   3.725   0.723  0.4843  0.4921 -0.3019
    9CHTO  H224 3402   7.979   3.621   0.722 -0.2653  0.7689 -0.8564
    9CHTO   N21 3403   7.894   3.796   0.676  0.3839  0.0596  0.0347
    9CHTO  H211 3404   7.832   3.830   0.757 -0.4812 -1.4153  0.0008
    9CHTO  H212 3405   7.828   3.745   0.607  2.5990 -1.7560 -0.8232
    9CHTO   O75 3406   8.377   3.698   0.595  0.2705 -0.2395  0.0446
    9CHTO  C112 3407   8.401   3.619   0.456 -0.4376  0.3692 -0.0335
    9CHTO  H216 3408   8.312   3.621   0.391  0.1401  0.1855 -0.8526
    9CHTO   O73 3409   8.438   3.487   0.489  0.3108  0.3854 -0.0057
    9CHTO  C113 3410   8.432   3.402   0.383  0.0698 -0.7220 -0.3954
    9CHTO  H217 3411   8.329   3.401   0.343 -0.5743  0.7338  1.1853
    9CHTO  C124 3412   8.471   3.264   0.439  0.4803  0.1324  0.1707
    9CHTO   O83 3413   8.387   3.233   0.552  0.1355  0.2071  0.3188
    9CHTO  H204 3414   8.320   3.297   0.567 -0.3477  0.1581 -1.4859
    9CHTO  C109 3415   8.523   3.443   0.264  0.8092  0.2039 -0.1768
    9CHTO  H213 3416   8.626   3.418   0.294  1.1446  0.7072 -0.8907
    9CHTO  C110 3417   8.520   3.599   0.234 -0.5723 -0.1639  0.0720
    9CHTO  H214 3418   8.424   3.619   0.187 -1.1368  0.5528  1.4874
    9CHTO   O78 3419   8.627   3.635   0.148  0.6253 -0.3463 -0.0787
    9CHTO  H200 3420   8.710   3.633   0.191  0.5751 -1.2717  0.0031
    9CHTO  C111 3421   8.517   3.678   0.366  0.1119  0.3876 -0.7316
    9CHTO  H215 3422   8.610   3.656   0.420 -0.9752 -1.1583  0.5442
    9CHTO   N19 3423   8.507   3.825   0.353  0.5141  0.4747  0.3597
    9CHTO  H207 3424   8.525   3.887   0.439 -0.8924  2.0706 -0.4689
    9CHTO  H208 3425   8.558   3.859   0.264 -0.7311 -0.0669 -0.5757
    9CHTO   O74 3426   8.500   3.371   0.137  0.2132 -0.2451 -0.8179
    9CHTO  C115 3427   8.614   3.297   0.083 -0.3024 -0.1407  0.0099
    9CHTO  H219 3428   8.709   3.338   0.119 -0.6350 -0.0818  0.8270
    9CHTO   O76 3429   8.616   3.159   0.135 -0.7576 -0.2679 -0.0203
    9CHTO  C122 3430   8.530   3.070   0.064 -0.2708 -0.6040 -0.5240
    9CHTO  H226 3431   8.430   3.086   0.104  0.6255 -0.3858  1.6933
    9CHTO  C126 3432   8.573   2.922   0.107 -1.1648 -0.5909  0.0664
    9CHTO   O85 3433   8.504   2.888   0.229  0.1845 -0.9282  0.5520
    9CHTO  H206 3434   8.424   2.846   0.202  0.6002 -0.0379 -2.2667
    9CHTO  C121 3435   8.520   3.081  -0.096 -0.4867  0.2636  0.8453
    9CHTO  H225 3436   8.615   3.046  -0.140 -1.2734  0.2015 -0.8083
    9CHTO   O81 3437   8.418   2.996  -0.153 -0.1552  0.5717  0.2128
    9CHTO  H202 3438   8.436   2.985  -0.244 -2.7007 -1.5641 -0.1070
    9CHTO  C119 3439   8.499   3.232  -0.136  0.8007  0.8238 -0.1217
    9CHTO  H223 3440   8.512   3.240  -0.244  2.3769 -1.3565 -0.1184
    9CHTO  C117 3441   8.612   3.322  -0.072 -0.2943 -0.0310  0.1776
    9CHTO  H221 3442   8.594   3.429  -0.083  0.9993  0.1622 -0.0963
    9CHTO   N20 3443   8.749   3.296  -0.132 -0.0622  0.0923  0.3169
    9CHTO  H209 3444   8.787   3.202  -0.094 -0.1202 -0.2332 -0.4306
    9CHTO  H210 3445   8.818   3.377  -0.115 -1.1005  1.2079 -0.7519
    9CHTO   O80 3446   8.356   3.287  -0.115  0.3235 -0.2227  0.5671
    9CHTO  C103 3447   8.300   3.410  -0.200  0.0244 -0.1908  0.7921
    9CHTO  H190 3448   8.210   3.455  -0.158 -0.8954 -0.8901 -0.3833
    9CHTO  C101 3449   8.394   3.524  -0.235  0.1582 -0.2368  0.2010
    9CHTO  H188 3450   8.483   3.482  -0.281 -0.3517 -0.7484 -0.3215
    9CHTO   O68 3451   8.434   3.593  -0.092  0.5926  0.3795 -0.0738
    9CHTO  H168 3452   8.496   3.545  -0.041 -0.7260  0.4776  1.6378
    9CHTO   C99 3453   8.330   3.630  -0.340  0.6328 -0.1336 -0.2054
    9CHTO  H186 3454   8.238   3.665  -0.289 -0.3235 -0.6923 -1.5278
    9CHTO   N17 3455   8.412   3.748  -0.374 -0.1411  0.4642  0.0384
    9CHTO  H174 3456   8.404   3.823  -0.296 -2.2606  1.9387 -1.5378
    9CHTO  H175 3457   8.515   3.727  -0.398 -0.1096  1.1968 -0.4840
    9CHTO   C97 3458   8.273   3.549  -0.461 -0.4245  0.2182  0.3178
    9CHTO  H184 3459   8.357   3.507  -0.518  0.1310  0.5531  0.8771
    9CHTO   O64 3460   8.187   3.448  -0.410  0.2655 -0.0483  0.1092
    9CHTO  C104 3461   8.252   3.343  -0.336 -0.2495 -0.2979  0.1127
    9CHTO  H191 3462   8.333   3.299  -0.394  1.1260 -0.4706  2.0856
    9CHTO  C108 3463   8.147   3.235  -0.315 -0.0198  0.1959  0.4567
    9CHTO   O71 3464   8.216   3.109  -0.301  0.2428  0.0989 -0.0859
    9CHTO  H171 3465   8.176   3.042  -0.353  0.8349 -1.9119  1.9575
    9CHTO   O62 3466   8.193   3.629  -0.540 -0.4396 -0.1979  0.0483
    9CHTO   C91 3467   8.184   3.604  -0.680  0.9589 -0.0119  0.4368
    9CHTO  H178 3468   8.241   3.520  -0.721  0.0220 -0.5840  0.2936
    9CHTO   C92 3469   8.238   3.730  -0.756  0.3325  0.2199  0.2895
    9CHTO  H179 3470   8.340   3.749  -0.720 -0.0922  2.0855  0.5983
    9CHTO   O66 3471   8.250   3.690  -0.901 -0.2851 -0.3287 -0.5299
    9CHTO  H166 3472   8.316   3.625  -0.909  0.8204  0.7146 -0.0580
    9CHTO   C93 3473   8.147   3.859  -0.747  0.3506  0.0584 -0.1081
    9CHTO  H180 3474   8.160   3.926  -0.833  3.1581  2.3397  2.0019
    9CHTO   N16 3475   8.175   3.950  -0.633 -0.1347 -0.7068 -0.0479
    9CHTO  H172 3476   8.203   4.047  -0.671  1.8750 -0.5767  1.6911
    9CHTO  H173 3477   8.259   3.907  -0.581  1.6580  0.8822 -1.5561
    9CHTO   C94 3478   7.998   3.820  -0.738  0.2709 -0.0776  0.4381
    9CHTO  H181 3479   7.965   3.796  -0.636  1.4882 -2.4302  0.3069
    9CHTO   O61 3480   7.973   3.698  -0.812 -0.6796  0.0794  0.3786
    9CHTO   C95 3481   8.029   3.589  -0.734 -0.7365 -0.2358  0.3302
    9CHTO  H182 3482   7.966   3.572  -0.647 -2.7881  1.4637 -0.8005
    9CHTO  C106 3483   8.013   3.456  -0.813 -0.1477 -0.4322  1.1001
    9CHTO   O69 3484   8.019   3.341  -0.735 -0.0261 -0.0573  0.7440
    9CHTO  H169 3485   7.957   3.338  -0.664 -1.6181 -3.0786 -0.6824
    9CHTO   O63 3486   7.909   3.923  -0.785  0.5219  0.6004 -0.3596
    9CHTO   C96 3487   7.756   3.913  -0.735  0.5297 -0.5489  0.1691
    9CHTO  H183 3488   7.747   3.871  -0.635 -0.9416 -2.0822 -0.5875
    9CHTO   C98 3489   7.665   3.836  -0.836 -0.0466  0.3079  0.2916
    9CHTO  H185 3490   7.696   3.874  -0.935 -1.2988  2.5775  0.7615
    9CHTO   O67 3491   7.697   3.695  -0.831  0.1069 -0.0898  0.2606
    9CHTO  H167 3492   7.636   3.655  -0.771  1.5803 -1.2018  1.0507
    9CHTO  C102 3493   7.507   3.861  -0.824 -0.1611  0.3685  0.1332
    9CHTO  H189 3494   7.467   3.805  -0.738  0.1709 -2.4265 -1.4787
    9CHTO   N18 3495   7.419   3.811  -0.937 -0.8517 -0.2112  0.6604
    9CHTO  H176 3496   7.432   3.704  -0.942  1.1795 -0.0019  1.1411
    9CHTO  H177 3497   7.319   3.826  -0.897 -1.6595 -0.7676 -1.0883
    9CHTO  C105 3498   7.472   4.004  -0.783  0.2924  0.3771 -0.5981
    9CHTO  H192 3499   7.487   4.072  -0.866 -1.3900 -0.1869 -1.4060
    9CHTO   O65 3500   7.564   4.057  -0.686 -0.5390  0.4690 -0.3125
    9CHTO  C100 3501   7.703   4.062  -0.722  0.2858  0.8032 -0.1164
    9CHTO  H187 3502   7.712   4.114  -0.818 -1.2034 -1.4583 -1.5545
    9CHTO  C107 3503   7.787   4.131  -0.617 -0.0761 -0.7242  0.2884
    9CHTO   O70 3504   7.762   4.272  -0.628  0.0098  0.5985  0.6099
    9CHTO  H170 3505   7.793   4.311  -0.548 -0.8366  1.0517  0.7277
    9CHTO   O57 3506   7.325   4.004  -0.721  0.1621  0.2391  0.4422
    9CHTO   C85 3507   7.240   4.120  -0.717 -0.6355  0.3008 -0.2278
    9CHTO  H157 3508   7.225   4.120  -0.827  0.1774  0.8309 -0.3400
    9CHTO   C83 3509   7.315   4.248  -0.675 -0.0139  0.2694 -0.3670
    9CHTO  H155 3510   7.399   4.259  -0.743 -0.2218  1.0601 -0.5007
    9CHTO   O56 3511   7.380   4.233  -0.546 -0.2283 -0.3379 -0.3166
    9CHTO  H135 3512   7.312   4.223  -0.482  1.3353  2.9393  1.9706
    9CHTO   C81 3513   7.227   4.376  -0.692 -0.0223  0.2434  0.2704
    9CHTO  H153 3514   7.186   4.370  -0.793 -0.8029  2.8594  0.3921
    9CHTO   N14 3515   7.311   4.501  -0.696 -0.0110  0.0197 -0.3957
    9CHTO  H141 3516   7.258   4.579  -0.745  0.1460  0.0690 -0.4869
    9CHTO  H142 3517   7.321   4.526  -0.592 -0.1135  2.5623 -0.9590
    9CHTO   C79 3518   7.110   4.363  -0.593  0.3782 -0.7154  0.0657
    9CHTO  H151 3519   7.050   4.454  -0.594  1.4679  0.0020  0.0944
    9CHTO   O52 3520   7.029   4.242  -0.627 -0.0494  0.1861  0.3867
    9CHTO   C86 3521   7.099   4.117  -0.637  0.7947  0.5082 -0.2692
    9CHTO  H158 3522   7.121   4.091  -0.531 -1.1376  0.7216  0.1960
    9CHTO   C90 3523   7.008   4.006  -0.686 -0.0418  0.5960  0.2379
    9CHTO   O60 3524   6.908   3.973  -0.591 -0.4483 -0.1447 -0.0869
    9CHTO  H138 3525   6.939   3.913  -0.526 -1.7978 -0.6581  0.0883
    9CHTO   O50 3526   7.149   4.361  -0.460 -0.3738  0.6330 -0.4928
    9CHTO   C73 3527   7.123   4.388  -0.322  0.2789 -0.2630 -0.5043
    9CHTO  H145 3528   7.015   4.375  -0.305 -0.2985  1.0303 -2.9530
    9CHTO   C74 3529   7.153   4.538  -0.300 -0.3420 -0.2111  0.0398
    9CHTO  H146 3530   7.098   4.597  -0.375  0.0308 -0.4954 -0.4512
    9CHTO   O54 3531   7.099   4.574  -0.167  0.1787  0.1677 -0.0331
    9CHTO  H133 3532   7.018   4.619  -0.182  0.7039  1.2822  0.4697
    9CHTO   C75 3533   7.308   4.567  -0.304  0.1300 -0.4223  0.1922
    9CHTO  H147 3534   7.344   4.540  -0.404  0.2393 -0.2321  0.1811
    9CHTO   N13 3535   7.337   4.704  -0.264 -0.4706 -0.5250  0.3080
    9CHTO  H139 3536   7.352   4.762  -0.354 -1.1409 -1.1204 -0.1950
    9CHTO  H140 3537   7.251   4.742  -0.210  0.2852 -0.1038  1.2207
    9CHTO   C76 3538   7.385   4.467  -0.205 -0.7531  0.7289 -0.1013
    9CHTO  H148 3539   7.360   4.490  -0.101 -0.9622  0.9522 -0.1989
    9CHTO   O49 3540   7.342   4.330  -0.224 -0.3689 -0.6199  0.4548
    9CHTO   C77 3541   7.201   4.304  -0.216 -0.0486  0.0765 -0.5897
    9CHTO  H149 3542   7.168   4.328  -0.115 -0.0903  0.6197 -0.7294
    9CHTO   C88 3543   7.176   4.158  -0.248  0.2433 -0.3547  0.1544
    9CHTO   O58 3544   7.252   4.078  -0.135 -0.2601  0.2434 -0.1569
    9CHTO  H136 3545   7.221   3.992  -0.117 -1.5873  0.2184 -2.4125
    9CHTO   O51 3546   7.539   4.465  -0.243 -0.2119 -0.1407  0.0052
    9CHTO   C78 3547   7.624   4.422  -0.110  0.0308 -0.2866 -0.1937
    9CHTO  H150 3548   7.561   4.390  -0.024  0.3118  1.3934  0.6456
    9CHTO   C80 3549   7.711   4.539  -0.065 -0.0454  0.2903 -0.5109
    9CHTO  H152 3550   7.775   4.568  -0.151  1.6480  2.1808  1.3362
    9CHTO   O55 3551   7.621   4.644  -0.034 -0.0525  0.0745 -0.1369
    9CHTO  H134 3552   7.596   4.691  -0.111 -1.0510 -0.5626 -0.2157
    9CHTO   C84 3553   7.796   4.498   0.058 -0.4143 -0.1466  0.9355
    9CHTO  H156 3554   7.733   4.464   0.141 -0.0347 -2.8057  0.1899
    9CHTO   N15 3555   7.883   4.601   0.121  0.0211 -0.4830  0.2789
    9CHTO  H143 3556   7.849   4.616   0.221 -1.3980  1.0803 -0.3949
    9CHTO  H144 3557   7.988   4.584   0.118  0.0403 -0.2747 -3.0536
    9CHTO   C87 3558   7.877   4.377   0.015 -0.3792 -0.2843  0.0382
    9CHTO  H159 3559   7.957   4.403  -0.054 -0.0398  0.0499  0.5533
    9CHTO   O53 3560   7.786   4.260  -0.041 -0.0361  0.0095  0.4693
    9CHTO   C82 3561   7.710   4.304  -0.155 -0.6219  0.7159 -0.7244
    9CHTO  H154 3562   7.775   4.333  -0.238 -0.1755 -1.6046 -1.1970
    9CHTO   C89 3563   7.625   4.189  -0.208  0.1326  0.4524 -0.2534
    9CHTO   O59 3564   7.536   4.134  -0.109  0.0855  0.4436 -0.2933
    9CHTO  H137 3565   7.585   4.072  -0.059  1.0948  1.1130 -0.4483
    9CHTO   O45 3566   7.969   4.309   0.137  0.2612  0.1688  0.2855
    9CHTO   C67 3567   8.040   4.183   0.106 -0.6899 -0.7578 -0.1414
    9CHTO  H124 3568   7.977   4.118   0.045 -0.3244 -3.3009  2.0946
    9CHTO   C65 3569   8.165   4.218   0.018  0.2462  0.2343 -0.1971
    9CHTO  H122 3570   8.207   4.316   0.044 -2.1742  1.3696 -0.4388
    9CHTO   O44 3571   8.125   4.210  -0.123  0.7010 -0.0909 -0.4317
    9CHTO  H102 3572   8.079   4.288  -0.146 -0.6778 -0.2884  1.4957
    9CHTO   C63 3573   8.294   4.131   0.060 -0.0190  0.5054 -0.1444
    9CHTO  H120 3574   8.337   4.178   0.149  1.8302 -0.5845 -0.4304
    9CHTO   N11 3575   8.409   4.144  -0.034 -0.8001  0.4444 -0.5536
    9CHTO  H108 3576   8.505   4.136   0.012 -1.7458  2.1865  1.7983
    9CHTO  H109 3577   8.406   4.237  -0.087  0.9640  1.5873  1.2674
    9CHTO   C61 3578   8.247   3.984   0.091 -0.0803 -0.0522 -0.1818
    9CHTO  H118 3579   8.333   3.925   0.127 -0.8616 -1.2369 -0.2168
    9CHTO   O40 3580   8.148   3.986   0.202 -0.0059  0.2702  0.5070
    9CHTO   C68 3581   8.075   4.104   0.240  0.3847 -0.4267  0.4113
    9CHTO  H125 3582   8.138   4.161   0.312  1.7552  0.8896 -1.7780
    9CHTO   C72 3583   7.949   4.050   0.315 -0.0365  0.3255  0.6812
    9CHTO   O48 3584   7.881   4.159   0.376 -0.1467  0.1624 -0.3124
    9CHTO  H105 3585   7.796   4.165   0.338  0.2942 -1.5222 -1.6488
    9CHTO   O38 3586   8.187   3.927  -0.026  0.2545  0.2880  0.4819
    9CHTO   C55 3587   8.081   3.829  -0.026  0.2632  0.5372  0.3628
    9CHTO  H112 3588   8.005   3.872   0.042 -0.7071 -0.6201  0.0281
    9CHTO   C56 3589   8.139   3.686   0.021 -0.3020  0.0891 -0.5938
    9CHTO  H113 3590   8.215   3.655  -0.052  1.4908 -1.6102  1.9065
    9CHTO   O42 3591   8.213   3.695   0.145 -0.7860 -0.7200  0.1871
    9CHTO  H100 3592   8.283   3.758   0.139 -1.6111  0.4928  2.4704
    9CHTO   C57 3593   8.019   3.586   0.026  0.4414  0.0386  0.2351
    9CHTO  H114 3594   7.948   3.630   0.096 -0.8439 -0.1069 -0.9697
    9CHTO   N10 3595   8.042   3.445   0.067 -0.3465 -0.2879  0.5932
    9CHTO  H106 3596   8.143   3.415   0.043 -0.3989  0.8489 -1.1598
    9CHTO  H107 3597   8.031   3.445   0.174  0.0483 -0.1841  0.6361
    9CHTO   C58 3598   7.953   3.582  -0.119 -0.1551 -0.3354 -0.0650
    9CHTO  H115 3599   8.022   3.532  -0.191  1.3282  0.3956  0.8227
    9CHTO   O37 3600   7.920   3.714  -0.165  0.5623 -0.0114 -0.2136
    9CHTO   C59 3601   8.016   3.813  -0.162  0.7159  0.1764  0.4408
    9CHTO  H116 3602   8.096   3.790  -0.233 -0.5249 -1.1168 -0.5678
    9CHTO   C70 3603   7.954   3.945  -0.210 -0.1066  0.0619 -0.3339
    9CHTO   O46 3604   7.909   3.943  -0.348 -0.5356 -0.2197 -0.3552
    9CHTO  H103 3605   7.976   3.945  -0.413  0.7765 -0.8213  0.9723
    9CHTO   O39 3606   7.789   3.511  -0.126 -0.2689  0.1531  0.5568
    9CHTO   C60 3607   7.770   3.376  -0.163  0.2598 -0.3609  0.2236
    9CHTO  H117 3608   7.861   3.316  -0.159  0.9852  0.7824  0.8957
    9CHTO   C62 3609   7.677   3.303  -0.063  0.1827 -0.5703  0.2654
    9CHTO  H119 3610   7.721   3.307   0.039  1.3979  0.3521 -0.2792
    9CHTO   O43 3611   7.551   3.373  -0.065 -0.0145 -0.0114  0.1686
    9CHTO  H101 3612   7.490   3.310  -0.035 -1.4825  0.3240 -2.0053
    9CHTO   C66 3613   7.665   3.151  -0.105  0.5090 -0.2227 -0.5309
    9CHTO  H123 3614   7.763   3.104  -0.114  0.2235 -0.6824 -1.2445
    9CHTO   N12 3615   7.589   3.074   0.000  0.5312 -0.2150  0.0334
    9CHTO  H110 3616   7.628   3.078   0.101  0.6548 -0.3612 -0.0093
    9CHTO  H111 3617   7.481   3.071  -0.008  0.4478  0.1408  0.8893
    9CHTO   C69 3618   7.598   3.148  -0.246 -0.1813 -0.6259 -0.0270
    9CHTO  H126 3619   7.497   3.194  -0.247  1.1595  2.4943  1.7523
    9CHTO   O41 3620   7.686   3.222  -0.348  0.1161  0.4375 -0.1271
    9CHTO   C64 3621   7.708   3.365  -0.304 -0.0970 -0.4043  0.2905
    9CHTO  H121 3622   7.615   3.424  -0.319 -0.5152 -0.9903  0.5342
    9CHTO   C71 3623   7.803   3.426  -0.409 -0.1212  0.2798 -0.4336
    9CHTO   O47 3624   7.764   3.394  -0.547  0.4875 -0.5830  0.1868
    9CHTO  H104 3625   7.760   3.302  -0.562 -0.8087 -0.4322 -0.4556
    9CHTO   O34 3626   7.578   2.984  -0.286  0.2880  0.4783  0.5548
    9CHTO   C49 3627   7.657   2.908  -0.410  0.4841  0.3118  0.4746
    9CHTO   H91 3628   7.620   2.959  -0.499  1.4918  1.5601  0.7632
    9CHTO   C47 3629   7.620   2.758  -0.419  0.1515 -0.2740  0.4905
    9CHTO   H89 3630   7.667   2.729  -0.515 -0.9741 -0.2284 -0.0916
    9CHTO   O33 3631   7.482   2.736  -0.437 -0.1652 -0.1615  0.3298
    9CHTO   H70 3632   7.455   2.757  -0.524  1.6807 -2.9249 -0.9745
    9CHTO   C45 3633   7.673   2.674  -0.297 -0.0620  0.3325  0.2071
    9CHTO   H87 3634   7.598   2.672  -0.217 -0.8456 -0.0386 -0.5215
    9CHTO    N8 3635   7.693   2.531  -0.336  0.2738 -0.1832  0.2218
    9CHTO   H75 3636   7.600   2.479  -0.318 -1.6758  2.3604 -2.0909
    9CHTO   H76 3637   7.777   2.484  -0.287 -0.5710 -0.1677  1.7257
    9CHTO   C43 3638   7.797   2.756  -0.230  0.0123 -0.0371 -0.2596
    9CHTO   H85 3639   7.750   2.838  -0.176  2.4106  1.3059 -0.1581
    9CHTO   O29 3640   7.879   2.807  -0.339 -0.0697 -0.2552  0.3817
    9CHTO   C50 3641   7.813   2.918  -0.402 -0.1994  0.3608  0.1966
    9CHTO   H92 3642   7.849   3.006  -0.347 -0.1451  1.4152 -1.5220
    9CHTO   C54 3643   7.871   2.938  -0.542  0.1249  0.4448 -0.2354
    9CHTO   O36 3644   7.943   2.821  -0.596  0.6290  0.4332  0.1976
    9CHTO   H72 3645   8.030   2.837  -0.626 -0.0207  0.9984 -1.3995
    9CHTO   O27 3646   7.875   2.681  -0.136 -0.4656 -0.5251 -0.4686
    9CHTO   C37 3647   7.950   2.721  -0.019  0.1209 -0.2917 -0.3569
    9CHTO   H79 3648   8.035   2.652  -0.013 -0.4561 -0.8524  1.3995
    9CHTO   C38 3649   8.018   2.862  -0.041  0.5185 -0.0632 -0.6884
    9CHTO   H80 3650   7.943   2.928  -0.087 -0.7010 -0.5546  0.5737
    9CHTO   O31 3651   8.125   2.856  -0.139  0.2169 -0.3271  0.2530
    9CHTO   H68 3652   8.200   2.811  -0.103  0.4214 -0.1394  0.0602
    9CHTO   C39 3653   8.070   2.923   0.100  0.1699 -0.1167 -0.2387
    9CHTO   H81 3654   8.154   2.867   0.143  0.1915  1.1784  1.4392
    9CHTO    N7 3655   8.121   3.065   0.086  0.2019 -0.1944  0.1179
    9CHTO   H73 3656   8.190   3.092   0.164 -0.2564  0.3946  0.3221
    9CHTO   H74 3657   8.038   3.132   0.104  1.9101  2.1683 -0.4922
    9CHTO   C40 3658   7.961   2.911   0.213 -0.0019 -0.2964  0.2546
    9CHTO   H82 3659   7.872   2.972   0.193 -0.8744 -1.7398 -0.4073
    9CHTO   O26 3660   7.931   2.773   0.226  0.1088  0.0140  0.3073
    9CHTO   C41 3661   7.867   2.712   0.105 -0.0580  0.2904 -0.4099
    9CHTO   H83 3662   7.778   2.773   0.085  0.5678  0.5845 -2.4167
    9CHTO   C52 3663   7.816   2.571   0.144 -0.8405  0.9379 -0.4244
    9CHTO   O35 3664   7.682   2.591   0.222  0.3477 -0.0354  0.1985
    9CHTO   H71 3665   7.618   2.625   0.162 -0.9345 -0.5698  1.2475
    9CHTO   O28 3666   8.002   2.931   0.350  0.0731  0.2393 -0.2233
    9CHTO   C42 3667   7.910   3.011   0.433 -0.1505 -0.4866 -0.4146
    9CHTO   H84 3668   7.949   2.989   0.533 -1.0710  1.1185  0.3095
    9CHTO   C44 3669   7.760   2.971   0.438 -0.4634 -0.4514 -0.1687
    9CHTO   H86 3670   7.722   2.959   0.337 -0.3784 -1.7974 -0.0547
    9CHTO   O32 3671   7.751   2.834   0.493  0.0277  0.3997 -1.0242
    9CHTO   H69 3672   7.665   2.800   0.478  0.4695 -1.1901 -0.0524
    9CHTO   C48 3673   7.667   3.067   0.526  0.3627  0.1078  0.1572
    9CHTO   H90 3674   7.703   3.079   0.628  0.0745  0.1011  0.2621
    9CHTO    N9 3675   7.522   3.026   0.525 -1.0677 -0.3790  0.0222
    9CHTO   H77 3676   7.526   2.918   0.521  1.1605 -0.2940 -0.9692
    9CHTO   H78 3677   7.476   3.058   0.432  0.4543 -1.8446 -1.2653
    9CHTO   C51 3678   7.686   3.206   0.464  0.7048  0.0540  0.0790
    9CHTO   H93 3679   7.669   3.200   0.356 -1.4885  4.1956  0.0995
    9CHTO   O30 3680   7.820   3.244   0.494  0.7172  0.3636 -0.1975
    9CHTO   C46 3681   7.916   3.165   0.417  0.0541  0.3302 -0.0054
    9CHTO   H88 3682   7.910   3.198   0.313 -1.8104  1.9660  0.6020
    9CHTO   C53 3683   8.059   3.215   0.463 -0.4556 -0.0184 -0.7555
    9CHTO   O72 3684   8.077   3.352   0.427  0.1200 -0.1309  0.1586
    9CHTO  H199 3685   8.126   3.399   0.491 -0.9435  0.2776  0.6761
    9CHTO   O22 3686   7.601   3.309   0.522  0.0873 -0.0672 -0.3667
    9CHTO   C31 3687   7.572   3.430   0.447 -0.4166  0.1159  0.5825
    9CHTO   H59 3688   7.532   3.498   0.526 -0.8328 -0.0040  0.4780
    9CHTO   C29 3689   7.693   3.502   0.378 -0.2124  0.0421 -0.0941
    9CHTO   H57 3690   7.737   3.440   0.299  0.2870 -1.0179  1.0098
    9CHTO   O21 3691   7.791   3.525   0.477 -0.0741 -0.6193  0.2213
    9CHTO   H37 3692   7.867   3.473   0.457  0.2596 -0.2563  0.5523
    9CHTO   C27 3693   7.645   3.636   0.311  0.5472 -0.0859  0.2979
    9CHTO   H55 3694   7.593   3.696   0.387 -1.0495  1.3723 -1.8764
    9CHTO    N5 3695   7.753   3.722   0.254  0.4822  0.0233 -0.1945
    9CHTO   H43 3696   7.820   3.656   0.202 -0.6367 -1.4503  0.1894
    9CHTO   H44 3697   7.796   3.763   0.344 -0.9455  1.4970 -0.1446
    9CHTO   C25 3698   7.541   3.593   0.201  0.6499  0.2632 -0.0080
    9CHTO   H53 3699   7.589   3.522   0.133 -0.1654  1.1213 -1.5008
    9CHTO   O17 3700   7.423   3.536   0.274  0.3643  0.5591 -0.5200
    9CHTO   C32 3701   7.459   3.413   0.348  0.2672  0.3807 -0.6542
    9CHTO   H60 3702   7.482   3.340   0.270 -1.9638 -1.0690 -0.0154
    9CHTO   C36 3703   7.324   3.363   0.419 -0.0503  0.5849  0.4468
    9CHTO   O25 3704   7.234   3.313   0.313 -0.4223  0.8625 -0.0527
    9CHTO   H40 3705   7.269   3.263   0.242 -1.2032 -1.4794  1.1251
    9CHTO   O15 3706   7.494   3.712   0.107  0.3272 -0.1928  0.1535
    9CHTO   C19 3707   7.442   3.758  -0.025  0.2245  0.1107 -0.0339
    9CHTO   H47 3708   7.421   3.865  -0.009  1.3588  0.3680 -0.1710
    9CHTO   C20 3709   7.548   3.752  -0.139 -0.3167  0.3551  0.7214
    9CHTO   H48 3710   7.602   3.655  -0.138 -0.4802  0.1654 -2.9004
    9CHTO   O19 3711   7.651   3.850  -0.105  0.6577 -0.4742 -0.1571
    9CHTO   H35 3712   7.716   3.803  -0.056  0.1562 -1.5902 -0.5335
    9CHTO   C21 3713   7.484   3.785  -0.283 -0.0229 -0.1799 -0.9960
    9CHTO   H49 3714   7.463   3.892  -0.286 -0.8347 -0.1950  2.0516
    9CHTO    N4 3715   7.577   3.746  -0.392  0.1417  0.3391  0.1230
    9CHTO   H41 3716   7.586   3.820  -0.470 -0.8968  0.5599  0.1952
    9CHTO   H42 3717   7.677   3.719  -0.362  0.1501  0.7215  0.4397
    9CHTO   C22 3718   7.350   3.708  -0.297 -0.3343 -0.2472 -0.6142
    9CHTO   H50 3719   7.375   3.602  -0.299  1.7161  0.2142 -0.9598
    9CHTO   O14 3720   7.262   3.726  -0.182  0.5082  0.2370  0.0681
    9CHTO   C23 3721   7.315   3.683  -0.057  0.3425  0.0484  0.2250
    9CHTO   H51 3722   7.338   3.576  -0.056  0.2178  0.0078  2.6735
    9CHTO   C34 3723   7.201   3.722   0.038  0.1259 -0.4861  0.1602
    9CHTO   O23 3724   7.171   3.859   0.037 -0.0039 -0.1350 -0.1327
    9CHTO   H38 3725   7.147   3.882  -0.051 -2.2901 -1.8047  0.0009
    9CHTO   O16 3726   7.277   3.758  -0.411 -0.0556  0.5595  0.3035
    9CHTO   C24 3727   7.196   3.625  -0.476  0.0437 -0.8856  0.3152
    9CHTO   H52 3728   7.202   3.538  -0.411 -1.7388 -0.5936  0.9115
    9CHTO   C26 3729   7.245   3.588  -0.617 -0.1124 -0.1490 -0.3967
    9CHTO   H54 3730   7.233   3.681  -0.676  3.3202 -0.0230 -1.0412
    9CHTO   O20 3731   7.384   3.544  -0.607 -0.2343 -0.4956  0.3169
    9CHTO   H36 3732   7.447   3.600  -0.567  0.8169 -0.5497 -1.2174
    9CHTO   C30 3733   7.157   3.483  -0.690  0.3786 -0.0275 -0.7297
    9CHTO   H58 3734   7.166   3.383  -0.646  0.4413  0.5497  0.6062
    9CHTO    N6 3735   7.196   3.471  -0.830  0.3986 -0.3492 -0.0199
    9CHTO   H45 3736   7.271   3.395  -0.845  0.4865 -0.5334  1.2561
    9CHTO   H46 3737   7.232   3.564  -0.871 -0.2324 -0.6033 -1.1474
    9CHTO   C33 3738   7.007   3.520  -0.664 -0.0766  0.1500 -0.5886
    9CHTO   H61 3739   6.980   3.612  -0.717 -0.5186  2.3685  3.3059
    9CHTO   O18 3740   6.982   3.548  -0.530  0.0799 -0.4726  0.1247
    9CHTO   C28 3741   7.047   3.668  -0.483 -0.1842  0.7036  0.9077
    9CHTO   H56 3742   7.034   3.759  -0.541  0.8265  0.4527  0.2829
    9CHTO   C35 3743   6.993   3.689  -0.345 -0.1868 -0.0546  0.1825
    9CHTO   O24 3744   7.015   3.826  -0.302 -0.2254 -0.2095 -0.4024
    9CHTO   H39 3745   7.103   3.848  -0.326 -1.1168  1.4594 -2.2022
    9CHTO    O9 3746   6.920   3.416  -0.710  0.0847 -0.0635 -0.1876
    9CHTO   C13 3747   6.765   3.490  -0.750  0.1817 -0.0202  0.0891
    9CHTO   H26 3748   6.781   3.548  -0.843 -0.5743  1.0388  0.6141
    9CHTO   C11 3749   6.711   3.587  -0.630 -0.5334  0.1778 -0.1704
    9CHTO   H24 3750   6.782   3.670  -0.626 -1.8911  1.2897  3.7171
    9CHTO    O8 3751   6.707   3.520  -0.499 -0.0761  0.6321 -0.1475
    9CHTO    H3 3752   6.650   3.446  -0.499 -1.2008  1.3146 -4.5953
    9CHTO    C9 3753   6.576   3.639  -0.678  0.3399  0.0947  0.0801
    9CHTO   H22 3754   6.597   3.686  -0.775  0.6276 -0.2565 -0.0296
    9CHTO    N2 3755   6.531   3.755  -0.595  0.1443  0.3695  0.0560
    9CHTO   H10 3756   6.435   3.735  -0.549 -0.7212 -0.7677 -2.1048
    9CHTO   H11 3757   6.601   3.768  -0.515  0.8862  0.1359 -0.5484
    9CHTO    C7 3758   6.473   3.522  -0.698 -0.0814  0.4663 -0.2349
    9CHTO   H20 3759   6.381   3.567  -0.740  0.7068  0.4239 -2.0189
    9CHTO    O4 3760   6.525   3.432  -0.800  0.0256  0.1437 -0.7390
    9CHTO   C14 3761   6.657   3.375  -0.788  0.2440  0.6746 -0.0762
    9CHTO   H27 3762   6.690   3.334  -0.886  0.7849  2.6457 -0.7254
    9CHTO   C18 3763   6.665   3.258  -0.687  0.2541 -0.3674  0.0944
    9CHTO   O13 3764   6.568   3.158  -0.719  0.2089 -0.3363  0.1961
    9CHTO    H7 3765   6.598   3.115  -0.797 -1.8275  0.9555 -1.3668
    9CHTO    O2 3766   6.447   3.443  -0.557  0.0212 -0.1685 -0.3211
    9CHTO    C1 3767   6.318   3.418  -0.500 -0.1697 -0.6697  0.1253
    9CHTO   H14 3768   6.340   3.339  -0.426  1.8431  0.4293  0.7313
    9CHTO    C2 3769   6.205   3.373  -0.599  0.6285  0.7635 -0.1207
    9CHTO   H15 3770   6.190   3.460  -0.664 -1.6316  2.0233  2.0008
    9CHTO    O6 3771   6.240   3.251  -0.667  0.2531  0.1588 -0.4266
    9CHTO    H1 3772   6.160   3.221  -0.705  0.0284  1.8948 -1.3585
    9CHTO    C3 3773   6.060   3.357  -0.517 -0.1242 -0.4065 -0.0402
    9CHTO   H16 3774   6.080   3.281  -0.440  0.3367  1.0860  1.3242
    9CHTO    N1 3775   5.941   3.319  -0.591 -0.1388 -0.3029  0.1702
    9CHTO    H8 3776   5.973   3.243  -0.660  0.1530  0.9725 -1.1091
    9CHTO    H9 3777   5.861   3.277  -0.532 -1.1240 -0.3481 -1.1766
    9CHTO    C4 3778   6.037   3.490  -0.438 -0.5066  0.2359  0.3410
    9CHTO   H17 3779   6.039   3.572  -0.510 -0.3390  0.1820  0.2833
    9CHTO    O1 3780   6.143   3.529  -0.363 -0.0070  0.2145  0.4057
    9CHTO    C5 3781   6.271   3.546  -0.424 -0.4943  0.2015  0.2711
    9CHTO   H18 3782   6.272   3.626  -0.498  0.1128  1.8179  1.9867
    9CHTO   C16 3783   6.370   3.579  -0.310 -0.1281  0.0618 -0.1338
    9CHTO   O11 3784   6.336   3.694  -0.232 -0.1161 -0.2295 -0.0740
    9CHTO    H5 3785   6.414   3.722  -0.188  0.2709 -1.8878  0.3467
    9CHTO    O3 3786   5.923   3.485  -0.354 -0.2123  0.3980 -0.0882
    9CHTO    C6 3787   5.840   3.601  -0.340  0.4371 -0.2668 -0.3528
    9CHTO   H19 3788   5.877   3.685  -0.399  0.7849 -0.6408 -0.6714
    9CHTO    C8 3789   5.697   3.560  -0.392  0.0943 -0.1505 -0.0067
    9CHTO   H21 3790   5.671   3.462  -0.351 -2.9477  1.2518  1.6071
    9CHTO    O7 3791   5.698   3.549  -0.532  0.7187 -0.0826 -0.0012
    9CHTO    H2 3792   5.756   3.479  -0.556 -0.4876 -0.5708 -1.5991
    9CHTO   C12 3793   5.577   3.660  -0.350  0.5709 -0.1558 -0.3885
    9CHTO   H25 3794   5.591   3.743  -0.422  1.5391  0.9937  1.0881
    9CHTO    N3 3795   5.444   3.599  -0.361 -0.8276  0.0931 -0.2628
    9CHTO   H12 3796   5.425   3.560  -0.460  1.6288 -0.3028 -0.6060
    9CHTO   H13 3797   5.427   3.522  -0.287  0.2547 -0.5928 -0.7014
    9CHTO   C15 3798   5.599   3.714  -0.202  0.1135 -0.5939 -0.2065
    9CHTO   H28 3799   5.580   3.643  -0.122  0.0875 -2.1672 -1.5696
    9CHTO   O10 3800   5.523   3.845  -0.177  0.2149 -0.0525 -0.4744
    9CHTO    H4 3801   5.526   3.899  -0.254 -0.2942 -0.6101 -0.8924
    9CHTO    O5 3802   5.739   3.759  -0.188  0.1110  0.0105 -0.2171
    9CHTO   C10 3803   5.832   3.645  -0.194 -0.5698 -0.4717 -0.3289
    9CHTO   H23 3804   5.794   3.570  -0.126  1.2682  0.6444  1.9757
    9CHTO   C17 3805   5.973   3.686  -0.147 -0.8588 -0.0661 -0.1005
    9CHTO   O12 3806   5.963   3.784  -0.046 -0.1734  0.3004 -0.1252
    9CHTO    H6 3807   6.035   3.843  -0.062 -0.3684  0.4510 -0.4615
   10CHTO  H203 3808   5.289   6.044   2.152 -2.1307 -0.6796 -0.8639
   10CHTO   O82 3809   5.259   6.098   2.223  0.4790  0.1363 -0.3274
   10CHTO  C123 3810   5.123   6.124   2.189 -0.5404 -0.6629  0.0344
   10CHTO  H227 3811   5.109   6.106   2.082 -1.6393 -0.6687  0.1744
   10CHTO   O77 3812   5.049   6.022   2.269  0.1568 -0.2103 -0.3852
   10CHTO  C118 3813   4.911   6.021   2.240 -0.4593 -1.0879 -0.3547
   10CHTO  H222 3814   4.879   6.012   2.135 -0.3788  2.0708 -0.7061
   10CHTO  C125 3815   4.867   5.888   2.314 -0.1973  0.1303  0.2405
   10CHTO   O84 3816   4.728   5.868   2.316  0.0228 -0.0929  0.5290
   10CHTO  H205 3817   4.707   5.807   2.384  1.2176 -0.1536  0.8516
   10CHTO  C114 3818   4.857   6.151   2.302  0.0211 -0.1602  0.2409
   10CHTO  H218 3819   4.894   6.157   2.404  0.8944 -1.0777 -0.0090
   10CHTO  C116 3820   4.921   6.275   2.225 -0.1499 -0.3406 -0.1804
   10CHTO  H220 3821   4.903   6.264   2.116  1.0340 -1.3417 -0.2815
   10CHTO   O79 3822   4.870   6.402   2.268 -0.0845  0.4979  0.4474
   10CHTO  H201 3823   4.858   6.401   2.361  1.3137  0.8418  0.6462
   10CHTO  C120 3824   5.080   6.264   2.247  0.0052  0.3217 -0.6914
   10CHTO  H224 3825   5.106   6.269   2.355 -1.9745  0.3140 -0.1926
   10CHTO   N21 3826   5.150   6.379   2.189 -0.0895  0.0274 -0.2142
   10CHTO  H211 3827   5.167   6.461   2.256  1.0891  0.1165 -0.6203
   10CHTO  H212 3828   5.246   6.350   2.149 -0.3026 -0.7176 -0.1922
   10CHTO   O75 3829   4.713   6.149   2.296  0.6902  0.3017  0.3992
   10CHTO  C112 3830   4.646   6.166   2.435  0.4364  0.0483  0.9487
   10CHTO  H216 3831   4.720   6.201   2.508  0.1231 -1.1904  1.8918
   10CHTO   O73 3832   4.588   6.037   2.480 -0.2738  0.5318 -0.2719
   10CHTO  C113 3833   4.529   6.038   2.612 -0.4206 -0.2470 -0.2811
   10CHTO  H217 3834   4.610   6.049   2.687 -1.1943 -1.4005  0.7358
   10CHTO  C124 3835   4.463   5.904   2.629  0.2292 -0.3829  0.3312
   10CHTO   O83 3836   4.561   5.792   2.635  0.1518  0.1802  0.3352
   10CHTO  H204 3837   4.587   5.760   2.551 -0.0069 -3.7068  1.6541
   10CHTO  C109 3838   4.413   6.152   2.634 -0.0717 -0.7966  0.7036
   10CHTO  H213 3839   4.325   6.128   2.573  0.3341  0.2370 -0.3210
   10CHTO  C110 3840   4.470   6.290   2.580  0.0832  0.4947 -0.2700
   10CHTO  H214 3841   4.553   6.325   2.641 -0.8654  0.1708  1.2346
   10CHTO   O78 3842   4.365   6.390   2.599 -0.1106 -0.0178  0.2243
   10CHTO  H200 3843   4.335   6.385   2.688 -0.8703 -3.0435 -0.1492
   10CHTO  C111 3844   4.515   6.267   2.434 -0.1380 -1.0387  0.4225
   10CHTO  H215 3845   4.437   6.218   2.374  1.6885 -1.6417 -1.5173
   10CHTO   N19 3846   4.549   6.395   2.366  0.4732 -0.1133 -0.1000
   10CHTO  H207 3847   4.456   6.421   2.316 -0.0420  0.3046  1.0760
   10CHTO  H208 3848   4.568   6.476   2.434  0.4513  1.5437 -1.9982
   10CHTO   O74 3849   4.379   6.163   2.776 -0.4452 -0.5505 -0.5561
   10CHTO  C115 3850   4.224   6.153   2.797 -0.1705 -0.1642 -0.1587
   10CHTO  H219 3851   4.170   6.180   2.707  0.5260  1.3494 -0.1455
   10CHTO   O76 3852   4.179   5.998   2.830  0.0326  0.7200  0.2057
   10CHTO  C122 3853   4.229   5.949   2.956 -0.9878 -0.2795  0.0100
   10CHTO  H226 3854   4.337   5.934   2.946 -0.8652 -0.6142  1.6255
   10CHTO  C126 3855   4.177   5.802   2.996  0.6622 -0.6916 -0.3789
   10CHTO   O85 3856   4.219   5.748   3.118 -0.0343  0.2469 -0.4691
   10CHTO  H206 3857   4.148   5.767   3.176 -1.5514  0.2622 -2.2935
   10CHTO  C121 3858   4.188   6.052   3.071 -0.5113  0.2996 -0.1890
   10CHTO  H225 3859   4.122   6.006   3.148 -1.8410  0.7947 -1.0055
   10CHTO   O81 3860   4.289   6.094   3.149 -0.2138 -0.2333  0.0893
   10CHTO  H202 3861   4.326   6.035   3.212 -1.0401  0.3682  1.1761
   10CHTO  C119 3862   4.109   6.181   3.027 -0.3407  0.3743  0.3282
   10CHTO  H223 3863   4.018   6.133   2.991 -1.8042  0.6041  3.5925
   10CHTO  C117 3864   4.202   6.251   2.915  0.7802 -0.0659  1.0857
   10CHTO  H221 3865   4.302   6.283   2.945  0.9083 -0.5159  1.1399
   10CHTO   N20 3866   4.131   6.375   2.864  0.2053 -0.6184 -0.5707
   10CHTO  H209 3867   4.040   6.337   2.819 -0.1553  0.0864 -0.4495
   10CHTO  H210 3868   4.110   6.433   2.953  1.3129 -0.2396 -0.5541
   10CHTO   O80 3869   4.052   6.275   3.162  0.1563  0.4836  0.4785
   10CHTO  C103 3870   3.899   6.267   3.211 -1.0485  0.4582 -0.7486
   10CHTO  H190 3871   3.886   6.337   3.293  0.4961 -0.0380 -0.0521
   10CHTO  C101 3872   3.796   6.297   3.089  0.7162 -0.6114  0.9032
   10CHTO  H188 3873   3.822   6.242   2.998 -0.9125 -1.1403  0.7455
   10CHTO   O68 3874   3.808   6.442   3.044  0.8652 -0.4925  0.5589
   10CHTO  H168 3875   3.736   6.483   3.087 -0.2297  0.7336 -2.3058
   10CHTO   C99 3876   3.655   6.258   3.126  0.6013  0.3567 -1.0807
   10CHTO  H186 3877   3.626   6.321   3.213 -0.0144  0.5125 -1.4025
   10CHTO   N17 3878   3.547   6.267   3.025 -0.1908 -0.0323  0.2545
   10CHTO  H174 3879   3.539   6.208   2.935 -3.4071  0.3015  0.2651
   10CHTO  H175 3880   3.531   6.370   2.997  3.3026  0.8490  1.2646
   10CHTO   C97 3881   3.657   6.108   3.181 -0.0509 -0.0353  0.3219
   10CHTO  H184 3882   3.689   6.036   3.103 -0.8766 -1.7046  1.4886
   10CHTO   O64 3883   3.746   6.101   3.292 -0.2933 -0.1006  0.0803
   10CHTO  C104 3884   3.882   6.121   3.264 -0.2571 -0.0797 -0.2020
   10CHTO  H191 3885   3.919   6.049   3.192 -0.6439  0.0312 -0.5111
   10CHTO  C108 3886   3.959   6.084   3.396 -0.3940  0.2410 -0.1081
   10CHTO   O71 3887   3.977   5.950   3.417  0.4537 -0.5825 -0.4344
   10CHTO  H171 3888   4.022   5.944   3.499  1.2071 -0.7163 -0.8486
   10CHTO   O62 3889   3.531   6.073   3.243 -0.4371  0.6216  0.0044
   10CHTO   C91 3890   3.503   5.932   3.263 -0.1657 -0.2088  0.7119
   10CHTO  H178 3891   3.509   5.878   3.169 -2.5042  2.0659 -0.8130
   10CHTO   C92 3892   3.354   5.920   3.300 -0.4579 -0.1000  0.4525
   10CHTO  H179 3893   3.296   5.982   3.231  2.3139  2.2734  0.1628
   10CHTO   O66 3894   3.314   5.779   3.279 -0.1345 -0.3761 -0.4200
   10CHTO  H166 3895   3.374   5.721   3.322  1.2872  1.3598 -0.0233
   10CHTO   C93 3896   3.322   5.944   3.453 -0.4556 -0.6996  0.7817
   10CHTO  H180 3897   3.220   5.907   3.463  0.4529 -2.8946  2.4078
   10CHTO   N16 3898   3.324   6.091   3.491  0.0085  0.3946  0.2345
   10CHTO  H172 3899   3.413   6.136   3.451 -0.5007 -0.7920 -2.3718
   10CHTO  H173 3900   3.230   6.138   3.467 -0.3419  0.4898  1.7541
   10CHTO   C94 3901   3.418   5.862   3.541 -0.8271  0.3128  1.0049
   10CHTO  H181 3902   3.476   5.921   3.612 -0.5231 -0.3199  1.2898
   10CHTO   O61 3903   3.510   5.789   3.469 -0.8551  0.5176 -0.1707
   10CHTO   C95 3904   3.598   5.856   3.368 -0.2901 -0.2271  1.2854
   10CHTO  H182 3905   3.663   5.927   3.419 -1.8817  1.3024  1.2381
   10CHTO  C106 3906   3.689   5.756   3.289 -0.0200  0.5184  0.8970
   10CHTO   O69 3907   3.611   5.660   3.211  0.5256 -0.1565 -0.7014
   10CHTO  H169 3908   3.666   5.612   3.152  1.0560 -0.3263 -0.0726
   10CHTO   O63 3909   3.322   5.751   3.615  0.2622  0.3734  0.1611
   10CHTO   C96 3910   3.392   5.668   3.743  0.3564  0.6867 -0.1230
   10CHTO  H183 3911   3.499   5.659   3.725  0.3074 -2.2031  0.7179
   10CHTO   C98 3912   3.335   5.525   3.767 -0.6694 -0.3648 -0.1671
   10CHTO  H185 3913   3.226   5.529   3.761 -0.5434  1.1805 -1.6400
   10CHTO   O67 3914   3.378   5.445   3.650 -0.0055  0.2947  0.1286
   10CHTO  H167 3915   3.455   5.471   3.603  0.4132  2.1397  1.7578
   10CHTO  C102 3916   3.392   5.464   3.908 -0.5226 -0.0639  0.3002
   10CHTO  H189 3917   3.501   5.479   3.910 -0.5045  0.3167 -1.8710
   10CHTO   N18 3918   3.376   5.314   3.930 -0.4936 -0.1464  0.1163
   10CHTO  H176 3919   3.418   5.289   4.026  1.3339 -1.0600 -0.9043
   10CHTO  H177 3920   3.274   5.283   3.915 -0.5683  1.0787 -2.2088
   10CHTO  C105 3921   3.332   5.557   4.015  0.1069 -1.0584  0.0132
   10CHTO  H192 3922   3.237   5.514   4.046 -0.0628 -1.6198 -1.2685
   10CHTO   O65 3923   3.300   5.697   3.975 -0.5078 -0.3992  0.0040
   10CHTO  C100 3924   3.376   5.759   3.865  0.2057 -0.6299  0.6358
   10CHTO  H187 3925   3.316   5.846   3.832 -0.3695 -0.5441  1.8827
   10CHTO  C107 3926   3.513   5.810   3.920 -0.1688  0.4756 -0.4493
   10CHTO   O70 3927   3.598   5.864   3.819 -0.1881  0.4695 -0.1908
   10CHTO  H170 3928   3.572   5.949   3.789 -1.3104  0.4889  0.8007
   10CHTO   O57 3929   3.430   5.553   4.133 -0.1180 -0.4529  0.3187
   10CHTO   C85 3930   3.389   5.556   4.273  0.1416 -0.4508  0.1906
   10CHTO  H157 3931   3.290   5.507   4.278 -0.2140  0.3432  1.1355
   10CHTO   C83 3932   3.365   5.704   4.321 -0.3902 -0.4090 -0.5465
   10CHTO  H155 3933   3.275   5.734   4.269 -1.4479 -1.0944  0.8569
   10CHTO   O56 3934   3.468   5.792   4.269  0.2450  0.3983  0.8030
   10CHTO  H135 3935   3.486   5.787   4.177 -3.4152  1.7657 -0.0398
   10CHTO   C81 3936   3.327   5.706   4.472 -0.0374  0.3656  0.3480
   10CHTO  H153 3937   3.239   5.643   4.484  0.5971 -0.5198  0.4296
   10CHTO   N14 3938   3.283   5.839   4.519 -0.0882  1.0094  0.7182
   10CHTO  H141 3939   3.204   5.832   4.591 -0.8055 -2.2480 -0.3150
   10CHTO  H142 3940   3.366   5.893   4.560  0.5894  1.6544 -1.4414
   10CHTO   C79 3941   3.445   5.642   4.555 -0.1145  1.1937 -0.1555
   10CHTO  H151 3942   3.410   5.644   4.658  1.7436  2.2078  0.4740
   10CHTO   O52 3943   3.466   5.506   4.510 -0.2932  0.1135 -0.2109
   10CHTO   C86 3944   3.496   5.493   4.369 -0.2725  0.3373  0.6361
   10CHTO  H158 3945   3.591   5.549   4.362  0.6904 -1.1915  1.0755
   10CHTO   C90 3946   3.525   5.348   4.321 -0.6408  0.5797  0.0548
   10CHTO   O60 3947   3.424   5.256   4.368  0.4985  0.7607 -0.5831
   10CHTO  H138 3948   3.458   5.175   4.399 -0.8082  0.2351 -0.4779
   10CHTO   O50 3949   3.566   5.713   4.560  0.0866 -0.1335 -0.0828
   10CHTO   C73 3950   3.685   5.679   4.643 -0.8734 -0.1564 -0.2593
   10CHTO  H145 3951   3.713   5.575   4.624  1.2148  0.8036 -2.7361
   10CHTO   C74 3952   3.670   5.698   4.802  0.1129 -0.1945 -0.3495
   10CHTO  H146 3953   3.579   5.640   4.824  0.6793 -0.9935 -0.0769
   10CHTO   O54 3954   3.778   5.632   4.869 -0.2392 -0.4197 -0.2915
   10CHTO  H133 3955   3.792   5.667   4.955 -1.4397 -0.3600 -0.1074
   10CHTO   C75 3956   3.654   5.847   4.827  0.0114 -0.0218 -0.8821
   10CHTO  H147 3957   3.559   5.882   4.783  0.3709 -0.4051 -1.9780
   10CHTO   N13 3958   3.642   5.879   4.973 -0.3800 -0.3336  0.0580
   10CHTO  H139 3959   3.671   5.981   4.993 -0.6020  0.0095 -1.3771
   10CHTO  H140 3960   3.714   5.818   5.026 -0.1961  0.0663  0.2685
   10CHTO   C76 3961   3.778   5.927   4.762 -0.0791 -0.1155  0.1672
   10CHTO  H148 3962   3.860   5.884   4.818 -1.2164 -1.9487  0.4779
   10CHTO   O49 3963   3.788   5.907   4.619 -0.9788  0.4365  0.3380
   10CHTO   C77 3964   3.807   5.769   4.597 -0.3896  0.1659  0.4335
   10CHTO  H149 3965   3.899   5.735   4.643  0.4607  0.2972 -1.1243
   10CHTO   C88 3966   3.850   5.753   4.454  0.5020 -0.0558  0.1535
   10CHTO   O58 3967   3.899   5.615   4.430 -0.4930  0.6421  0.4451
   10CHTO  H136 3968   3.833   5.561   4.391 -0.4635 -0.9787  2.5364
   10CHTO   O51 3969   3.763   6.078   4.776  0.7231 -0.3652  0.1149
   10CHTO   C78 3970   3.914   6.148   4.808 -0.0918 -0.0036  0.0951
   10CHTO  H150 3971   3.994   6.072   4.815  0.2338  0.3827  0.5595
   10CHTO   C80 3972   3.902   6.208   4.950 -0.5134 -0.0119 -0.7752
   10CHTO  H152 3973   3.824   6.287   4.949  0.3482  0.8874  1.0835
   10CHTO   O55 3974   3.870   6.098   5.037  0.3283  0.4385  0.0924
   10CHTO  H134 3975   3.781   6.108   5.065  1.2926  0.7573  3.1954
   10CHTO   C84 3976   4.035   6.269   4.989  0.6707 -0.6953  0.1284
   10CHTO  H156 3977   4.103   6.186   4.970 -0.6818 -1.7282 -0.3119
   10CHTO   N15 3978   4.037   6.327   5.131 -0.2410  0.0544 -0.2728
   10CHTO  H143 3979   4.126   6.385   5.147 -1.2267  0.5639  3.9805
   10CHTO  H144 3980   4.041   6.243   5.197  1.8521 -0.1649 -0.6378
   10CHTO   C87 3981   4.077   6.379   4.883  0.3230  0.7443 -0.3547
   10CHTO  H159 3982   4.009   6.464   4.887  0.6027  0.9511  0.0682
   10CHTO   O53 3983   4.072   6.319   4.738 -0.3013 -0.1336 -0.4471
   10CHTO   C82 3984   3.947   6.256   4.704  0.3584  0.1155  0.0929
   10CHTO  H154 3985   3.863   6.326   4.696 -0.4672 -0.8691  0.0274
   10CHTO   C89 3986   3.972   6.212   4.564 -0.2175 -0.0841  0.3432
   10CHTO   O59 3987   4.056   6.094   4.556 -0.0032 -0.4812 -0.0213
   10CHTO  H137 3988   4.001   6.018   4.554  0.5447 -0.8938  0.5949
   10CHTO   O45 3989   4.217   6.407   4.898  0.1142  0.3242 -0.5972
   10CHTO   C67 3990   4.246   6.542   4.866 -0.3867 -0.0405  0.1689
   10CHTO  H124 3991   4.189   6.575   4.779  1.8066  0.0640 -1.2569
   10CHTO   C65 3992   4.211   6.634   4.984  0.2604  0.3402  0.3381
   10CHTO  H122 3993   4.210   6.573   5.074 -0.0332  0.4805  0.4289
   10CHTO   O44 3994   4.080   6.686   4.963  0.3395  0.1783  0.0557
   10CHTO  H102 3995   4.065   6.752   5.028 -0.8565 -1.1782  1.1829
   10CHTO   C63 3996   4.322   6.740   5.009 -0.2913 -0.2213 -0.2644
   10CHTO  H120 3997   4.404   6.696   5.065  0.5476 -1.0421 -2.0948
   10CHTO   N11 3998   4.297   6.841   5.119 -0.3570 -0.0503  0.2568
   10CHTO  H108 3999   4.272   6.791   5.210 -2.6827 -1.3508 -1.0469
   10CHTO  H109 4000   4.393   6.886   5.132 -0.4985  0.3774 -0.1706
   10CHTO   C61 4001   4.377   6.794   4.881 -0.9231 -0.2146 -0.1090
   10CHTO  H118 4002   4.460   6.855   4.918 -0.0137 -0.4600 -1.6953
   10CHTO   O40 4003   4.430   6.692   4.795  0.3314 -0.1374 -0.0767
   10CHTO   C68 4004   4.390   6.551   4.826  0.1537  0.0795 -0.3975
   10CHTO  H125 4005   4.443   6.509   4.914  1.4800  1.5661 -0.4651
   10CHTO   C72 4006   4.415   6.453   4.707 -0.1331 -0.0343  0.2125
   10CHTO   O48 4007   4.533   6.467   4.630  0.1114  0.1023 -0.2057
   10CHTO  H105 4008   4.530   6.454   4.537 -1.1130  1.1570 -0.3314
   10CHTO   O38 4009   4.287   6.870   4.800 -0.1234  0.2908  0.2361
   10CHTO   C55 4010   4.335   6.988   4.725  0.0520 -0.0093 -0.3976
   10CHTO  H112 4011   4.265   6.992   4.641  1.6190  2.1049 -1.6633
   10CHTO   C56 4012   4.488   6.987   4.669  0.4780 -0.1916  0.3912
   10CHTO  H113 4013   4.548   6.972   4.760 -2.1429 -2.9492  1.7429
   10CHTO   O42 4014   4.514   6.869   4.593 -0.6622  0.4617 -0.2398
   10CHTO  H100 4015   4.603   6.874   4.563 -1.1078  0.8072 -1.5431
   10CHTO   C57 4016   4.524   7.121   4.583 -0.1331 -0.6327 -0.1249
   10CHTO  H114 4017   4.468   7.113   4.490  1.2650 -1.0271 -0.9515
   10CHTO   N10 4018   4.671   7.134   4.552 -0.7407 -0.0141 -0.3747
   10CHTO  H106 4019   4.724   7.106   4.642  2.6075  1.6015 -1.7584
   10CHTO  H107 4020   4.701   7.072   4.469  0.1203  0.9018 -0.7496
   10CHTO   C58 4021   4.471   7.236   4.661 -0.3946 -0.6094 -0.3689
   10CHTO  H115 4022   4.525   7.243   4.758  1.4788 -2.0107 -1.2884
   10CHTO   O37 4023   4.334   7.220   4.704  0.3849 -0.2073  0.2995
   10CHTO   C59 4024   4.311   7.119   4.802  0.0927 -0.5270  0.3423
   10CHTO  H116 4025   4.372   7.132   4.891 -0.0433 -0.0873  0.3700
   10CHTO   C70 4026   4.161   7.124   4.838  0.2989 -0.2847  0.1038
   10CHTO   O46 4027   4.143   7.168   4.974 -0.3234 -0.0385  0.0569
   10CHTO  H103 4028   4.187   7.250   4.989  0.6363 -0.5541  0.1163
   10CHTO   O39 4029   4.486   7.385   4.575  0.0089  0.2650  0.7160
   10CHTO   C60 4030   4.532   7.492   4.659  0.1307 -0.0523  0.0546
   10CHTO  H117 4031   4.466   7.489   4.746  0.7329 -0.2115  0.5105
   10CHTO   C62 4032   4.674   7.481   4.718 -0.5944 -0.4311  0.4219
   10CHTO  H119 4033   4.683   7.391   4.782  2.1972 -0.3221  0.2315
   10CHTO   O43 4034   4.755   7.454   4.604  0.0561  0.2142 -0.8541
   10CHTO  H101 4035   4.845   7.465   4.630 -0.3520 -0.3728  0.9088
   10CHTO   C66 4036   4.710   7.613   4.798 -0.2784 -0.0134  0.2518
   10CHTO  H123 4037   4.640   7.625   4.881  0.2253  1.8343  0.4308
   10CHTO   N12 4038   4.850   7.607   4.855 -0.6847 -0.8952  0.2162
   10CHTO  H110 4039   4.920   7.531   4.823 -0.3997 -0.3308 -0.4958
   10CHTO  H111 4040   4.854   7.628   4.961  1.9114  1.5678 -0.3135
   10CHTO   C69 4041   4.679   7.731   4.706 -0.7310 -0.9538 -0.5662
   10CHTO  H126 4042   4.738   7.723   4.613 -0.1525  0.4562 -0.3407
   10CHTO   O41 4043   4.542   7.730   4.673 -0.3758  0.2786  0.9062
   10CHTO   C64 4044   4.510   7.627   4.580 -0.0500  0.3511 -0.7685
   10CHTO  H121 4045   4.575   7.632   4.490 -0.7452 -0.0276 -1.3023
   10CHTO   C71 4046   4.364   7.653   4.538 -0.0587 -0.4270  0.9143
   10CHTO   O47 4047   4.324   7.573   4.427  0.2849  0.0850 -0.1505
   10CHTO  H104 4048   4.272   7.499   4.452  1.3481 -0.1695  1.3683
   10CHTO   O34 4049   4.702   7.852   4.768  0.4500 -0.1824  0.4971
   10CHTO   C49 4050   4.740   7.978   4.735 -0.7372  0.8943 -0.0351
   10CHTO   H91 4051   4.849   7.982   4.740 -0.6805 -0.3121 -0.2141
   10CHTO   C47 4052   4.682   8.079   4.837  0.4782 -0.4229 -0.2349
   10CHTO   H89 4053   4.722   8.181   4.814 -0.7915 -0.1343 -1.1785
   10CHTO   O33 4054   4.730   8.046   4.967 -0.6506  0.2585  0.0924
   10CHTO   H70 4055   4.697   7.961   4.986 -1.2119 -0.0270 -2.0964
   10CHTO   C45 4056   4.524   8.084   4.831  0.3587 -0.0403  0.0828
   10CHTO   H87 4057   4.492   7.980   4.840  2.3442 -0.6276  0.5180
   10CHTO    N8 4058   4.453   8.171   4.936  0.5268  0.7843 -0.0802
   10CHTO   H75 4059   4.467   8.144   5.039  0.0462 -0.7957 -0.4113
   10CHTO   H76 4060   4.484   8.274   4.923  0.0461  1.0315  0.7353
   10CHTO   C43 4061   4.485   8.136   4.681  0.3218  0.2376  0.2400
   10CHTO   H85 4062   4.376   8.130   4.675  0.3325 -0.4416  0.7052
   10CHTO   O29 4063   4.549   8.054   4.584  0.3057  0.6336  0.2013
   10CHTO   C50 4064   4.693   8.019   4.592  0.3962 -0.7690 -0.2962
   10CHTO   H92 4065   4.697   7.934   4.523  1.5835 -2.0505  1.3011
   10CHTO   C54 4066   4.787   8.130   4.538 -0.3708 -0.6645 -0.5322
   10CHTO   O36 4067   4.767   8.150   4.398 -0.4314  0.1659 -0.3943
   10CHTO   H72 4068   4.795   8.081   4.342  0.7964 -0.2179  0.6630
   10CHTO   O27 4069   4.525   8.273   4.666 -0.0145 -0.7656  0.7700
   10CHTO   C37 4070   4.546   8.399   4.600  0.2595 -0.0761 -0.2460
   10CHTO   H79 4071   4.641   8.402   4.546  0.4692 -2.5642 -0.0710
   10CHTO   C38 4072   4.428   8.441   4.505 -0.1006 -0.3223 -0.5117
   10CHTO   H80 4073   4.337   8.437   4.567  0.1059  1.0141 -0.1038
   10CHTO   O31 4074   4.424   8.341   4.401  0.0352 -0.1592 -0.2998
   10CHTO   H68 4075   4.345   8.353   4.351 -0.7810  0.0619  1.0242
   10CHTO   C39 4076   4.450   8.589   4.447  0.0161  0.2507  0.0045
   10CHTO   H81 4077   4.540   8.578   4.387  0.2482 -2.4113  0.7672
   10CHTO    N7 4078   4.331   8.639   4.367  0.3350  0.0486  0.1968
   10CHTO   H73 4079   4.353   8.701   4.282 -0.0206 -1.6108 -1.1315
   10CHTO   H74 4080   4.244   8.665   4.425 -0.2517 -1.2959 -0.0673
   10CHTO   C40 4081   4.489   8.694   4.557  0.2718  0.0773 -0.1030
   10CHTO   H82 4082   4.400   8.724   4.612  1.2467  2.9415 -0.0016
   10CHTO   O26 4083   4.587   8.641   4.644  0.1077 -0.3871 -0.4103
   10CHTO   C41 4084   4.550   8.515   4.706 -0.2237 -0.9006 -0.0565
   10CHTO   H83 4085   4.458   8.536   4.761 -0.9661 -1.3891 -1.1012
   10CHTO   C52 4086   4.655   8.493   4.819 -0.3400 -0.0659  0.1188
   10CHTO   O35 4087   4.812   8.509   4.761 -0.3054  0.4298 -0.1161
   10CHTO   H71 4088   4.808   8.565   4.686  0.3309 -0.8624 -1.1537
   10CHTO   O28 4089   4.560   8.812   4.518  0.3555 -0.5477 -0.2042
   10CHTO   C42 4090   4.530   8.948   4.572 -0.5424  0.3076 -0.5708
   10CHTO   H84 4091   4.489   8.928   4.671  0.9345  1.0828  0.2217
   10CHTO   C44 4092   4.421   9.029   4.499 -0.8308 -0.3893 -0.0164
   10CHTO   H86 4093   4.466   9.055   4.403  0.0639  1.4236  0.8644
   10CHTO   O32 4094   4.316   8.939   4.472  0.3083 -0.2228  0.8146
   10CHTO   H69 4095   4.349   8.877   4.410  0.8643 -1.0327  1.9004
   10CHTO   C48 4096   4.378   9.156   4.570 -0.2382 -0.2130 -0.2292
   10CHTO   H90 4097   4.316   9.157   4.659 -1.8165  1.9700 -1.3029
   10CHTO    N9 4098   4.293   9.242   4.480 -0.1735 -0.3515 -0.2594
   10CHTO   H77 4099   4.203   9.192   4.449 -1.4367  2.4853 -1.3836
   10CHTO   H78 4100   4.265   9.331   4.535  0.1353 -0.0465 -0.5885
   10CHTO   C51 4101   4.512   9.243   4.597 -0.0652  0.6001 -0.3791
   10CHTO   H93 4102   4.544   9.275   4.498  1.5694  0.3384  0.0502
   10CHTO   O30 4103   4.613   9.174   4.667 -0.3374 -0.3890 -0.2145
   10CHTO   C46 4104   4.652   9.039   4.591 -0.4530  0.7221 -0.1259
   10CHTO   H88 4105   4.698   9.062   4.495  0.7176 -2.8448 -0.4935
   10CHTO   C53 4106   4.768   8.975   4.672 -0.0506  0.1323  0.6484
   10CHTO   O72 4107   4.819   8.845   4.627 -0.0297  0.4057  0.0877
   10CHTO  H199 4108   4.911   8.837   4.644  0.5318  1.5563 -2.2446
   10CHTO   O22 4109   4.479   9.353   4.682 -0.7286  0.0177 -0.0455
   10CHTO   C31 4110   4.552   9.478   4.675 -0.2460  0.5051 -0.3330
   10CHTO   H59 4111   4.546   9.517   4.779 -2.0159  2.0448 -0.9967
   10CHTO   C29 4112   4.702   9.474   4.634  0.0420 -0.0587  0.1744
   10CHTO   H57 4113   4.722   9.417   4.543  1.4192  0.7106 -0.0254
   10CHTO   O21 4114   4.779   9.408   4.739 -0.2745  0.0705  0.4831
   10CHTO   H37 4115   4.761   9.316   4.734  2.4411 -0.4057 -2.4530
   10CHTO   C27 4116   4.759   9.617   4.608 -0.3547  0.4328  0.3493
   10CHTO   H55 4117   4.753   9.679   4.699 -1.4455  0.3385  0.3470
   10CHTO    N5 4118   4.897   9.617   4.557  0.2395 -0.0683 -0.6000
   10CHTO   H43 4119   4.974   9.594   4.629  1.0678  0.1705 -1.4012
   10CHTO   H44 4120   4.906   9.559   4.466  1.8400 -0.3770 -0.2536
   10CHTO   C25 4121   4.659   9.685   4.505  0.0919 -0.2619  0.6332
   10CHTO   H53 4122   4.641   9.607   4.429  1.1607  0.1130 -0.0225
   10CHTO   O17 4123   4.531   9.698   4.572  0.3077 -0.4340 -0.6206
   10CHTO   C32 4124   4.457   9.575   4.593  0.2452 -0.8078  0.3217
   10CHTO   H60 4125   4.436   9.523   4.500  0.2400 -0.6145  0.2143
   10CHTO   C36 4126   4.328   9.611   4.680  0.0654 -0.1570  0.7636
   10CHTO   O25 4127   4.232   9.678   4.602  0.2427 -0.3880 -0.4205
   10CHTO   H40 4128   4.165   9.618   4.577  1.4714 -1.5029 -1.1024
   10CHTO   O15 4129   4.697   9.811   4.460  0.0705 -0.5602  0.1275
   10CHTO   C19 4130   4.686   9.885   4.335  0.3343 -0.3293  0.0816
   10CHTO   H47 4131   4.606   9.832   4.282 -0.0437  1.1401 -0.8590
   10CHTO   C20 4132   4.651  10.039   4.360  0.0257  0.1231 -0.0322
   10CHTO   H48 4133   4.712  10.085   4.438  0.2135 -1.6788  0.9291
   10CHTO   O19 4134   4.513  10.038   4.403  0.0624 -0.1849 -0.1204
   10CHTO   H35 4135   4.478  10.125   4.397 -1.4489 -0.8000 -0.2982
   10CHTO   C21 4136   4.670  10.122   4.224  0.3325 -0.6808 -0.5816
   10CHTO   H49 4137   4.599  10.093   4.146 -1.3039 -0.9281  0.9762
   10CHTO    N4 4138   4.639  10.266   4.247  0.6507  0.7403 -0.4141
   10CHTO   H41 4139   4.715  10.328   4.201  3.5524 -2.5434 -0.2614
   10CHTO   H42 4140   4.541  10.289   4.210 -1.1059 -1.4901  2.6142
   10CHTO   C22 4141   4.812  10.092   4.171  0.1276  0.0644  0.1721
   10CHTO   H50 4142   4.894  10.104   4.242  0.9004 -3.7625  0.0145
   10CHTO   O14 4143   4.803   9.954   4.137 -0.2666  0.0220 -0.1011
   10CHTO   C23 4144   4.808   9.861   4.247  0.2992 -0.7953  0.8203
   10CHTO   H51 4145   4.901   9.871   4.304  0.9644 -1.2629 -0.1538
   10CHTO   C34 4146   4.819   9.725   4.183 -0.2412 -0.1456 -0.4969
   10CHTO   O23 4147   4.952   9.678   4.143  0.4604  0.4310 -0.1741
   10CHTO   H38 4148   4.945   9.607   4.083  0.6582 -0.7971  1.2254
   10CHTO   O16 4149   4.840  10.160   4.049 -0.4025 -0.0482 -0.1295
   10CHTO   C24 4150   4.988  10.185   4.027 -0.1235  0.0515 -0.9958
   10CHTO   H52 4151   5.052  10.141   4.103  0.3765  0.8546 -0.9410
   10CHTO   C26 4152   5.011  10.341   4.019  0.1627 -0.2980 -0.2721
   10CHTO   H54 4153   4.937  10.384   3.948  0.1430 -0.1232 -0.1455
   10CHTO   O20 4154   4.966  10.403   4.148 -0.0690 -0.5737 -0.5242
   10CHTO   H36 4155   5.021  10.379   4.220 -0.4168  1.1325  0.3381
   10CHTO   C30 4156   5.156  10.376   3.982 -0.4420  0.3074  0.5154
   10CHTO   H58 4157   5.226  10.343   4.060  0.6520  2.2877  0.3900
   10CHTO    N6 4158   5.176  10.521   3.969  0.0145 -0.3987  0.3907
   10CHTO   H45 4159   5.163  10.562   4.068 -4.2647 -1.1094  0.2406
   10CHTO   H46 4160   5.096  10.561   3.909 -0.2939  0.9636  1.6911
   10CHTO   C33 4161   5.205  10.294   3.854 -0.2712  0.2976 -0.7058
   10CHTO   H61 4162   5.152  10.336   3.767  0.6202  0.0955 -1.3512
   10CHTO   O18 4163   5.167  10.156   3.872 -0.0150  0.0015  0.7381
   10CHTO   C28 4164   5.030  10.117   3.894 -0.5401 -0.1857  0.4766
   10CHTO   H56 4165   4.975  10.155   3.808  0.8648 -2.5404 -1.5004
   10CHTO   C35 4166   5.008   9.975   3.894  0.3833  0.0615 -0.1608
   10CHTO   O24 4167   5.052   9.913   3.781 -0.4386  0.6765 -0.2433
   10CHTO   H39 4168   4.982   9.925   3.720 -1.4329 -1.2785  0.4917
   10CHTO    O9 4169   5.347  10.307   3.820  0.0686  0.0026 -0.1365
   10CHTO   C13 4170   5.374  10.257   3.680 -0.8474 -0.1379  0.2814
   10CHTO   H26 4171   5.318  10.327   3.614  0.2157 -1.2961 -1.9170
   10CHTO   C11 4172   5.342  10.114   3.642  0.7110  0.0240  0.0522
   10CHTO   H24 4173   5.233  10.105   3.639  0.6818 -0.2743  1.6279
   10CHTO    O8 4174   5.388  10.026   3.745 -0.2953 -0.1928  0.0531
   10CHTO    H3 4175   5.369   9.935   3.733  2.6304 -0.6305 -2.0291
   10CHTO    C9 4176   5.398  10.088   3.500 -0.2015 -0.3675 -0.8394
   10CHTO   H22 4177   5.368  10.178   3.443  1.6758  1.2119  0.5834
   10CHTO    N2 4178   5.342   9.970   3.430  0.8005 -0.4861  0.1867
   10CHTO   H10 4179   5.379   9.956   3.330 -1.7582 -1.5605 -0.6531
   10CHTO   H11 4180   5.245   9.930   3.456  0.7785  0.1472  1.0968
   10CHTO    C7 4181   5.551  10.098   3.504  0.1350  0.9650  0.2902
   10CHTO   H20 4182   5.574  10.104   3.395 -1.7961 -1.7608 -0.3196
   10CHTO    O4 4183   5.602  10.216   3.563  0.5957  0.2439  0.3005
   10CHTO   C14 4184   5.531  10.297   3.654 -0.4023  0.2141  0.6603
   10CHTO   H27 4185   5.537  10.396   3.605 -2.3680 -0.4103 -0.9367
   10CHTO   C18 4186   5.613  10.311   3.787  0.0109 -0.0309  0.0959
   10CHTO   O13 4187   5.727  10.388   3.752  0.1023 -0.3529  0.1764
   10CHTO    H7 4188   5.795  10.391   3.816  0.6044 -1.4490 -0.2871
   10CHTO    O2 4189   5.617   9.961   3.569 -0.2480  0.4367  0.0787
   10CHTO    C1 4190   5.751   9.957   3.614  0.2890  0.4165  0.0379
   10CHTO   H14 4191   5.775  10.052   3.666  0.9010  1.4891 -2.1550
   10CHTO    C2 4192   5.858   9.929   3.495 -0.1980  0.2032  0.3457
   10CHTO   H15 4193   5.822   9.841   3.440  1.3679 -0.4296  0.3101
   10CHTO    O6 4194   5.857  10.033   3.394  0.2184 -0.1575 -0.4266
   10CHTO    H1 4195   5.882   9.995   3.312 -0.2132 -1.1389 -0.1207
   10CHTO    C3 4196   6.005   9.913   3.557  0.3278 -0.0414 -0.0400
   10CHTO   H16 4197   6.049  10.009   3.589 -2.4096  0.5922  2.0514
   10CHTO    N1 4198   6.107   9.862   3.455 -0.2124  0.0710  0.3189
   10CHTO    H8 4199   6.077   9.912   3.364  0.9077 -0.7899 -0.5371
   10CHTO    H9 4200   6.205   9.896   3.485 -0.3088 -0.7322  1.5776
   10CHTO    C4 4201   6.004   9.820   3.690  0.8382 -0.2788  0.0608
   10CHTO   H17 4202   5.996   9.715   3.661  1.1366 -0.4758  0.6699
   10CHTO    O1 4203   5.895   9.854   3.776 -0.3949  0.1764 -0.3508
   10CHTO    C5 4204   5.766   9.853   3.717  0.1140 -0.5072 -0.3260
   10CHTO   H18 4205   5.762   9.756   3.666  1.7262 -0.1504 -1.1386
   10CHTO   C16 4206   5.664   9.852   3.838  0.3197  0.2502 -0.0405
   10CHTO   O11 4207   5.656   9.721   3.895 -1.0945  0.2580 -0.3907
   10CHTO    H5 4208   5.599   9.669   3.841 -0.4419 -2.5222  1.5692
   10CHTO    O3 4209   6.117   9.847   3.773 -0.5238 -0.0664  0.0477
   10CHTO    C6 4210   6.189   9.730   3.812 -0.3711  0.2444 -0.7681
   10CHTO   H19 4211   6.169   9.641   3.752  0.0885  0.3669 -1.1045
   10CHTO    C8 4212   6.339   9.766   3.787 -0.7044  0.4184 -0.3851
   10CHTO   H21 4213   6.369   9.853   3.844  1.9553 -1.5797  1.3876
   10CHTO    O7 4214   6.360   9.800   3.650 -0.0649  0.1038 -0.4680
   10CHTO    H2 4215   6.335   9.890   3.640  0.0693  0.0123 -1.8144
   10CHTO   C12 4216   6.420   9.642   3.836 -0.5423 -0.0920  0.1811
   10CHTO   H25 4217   6.387   9.551   3.780 -0.1555 -0.8073  1.1070
   10CHTO    N3 4218   6.570   9.665   3.812  0.1604 -0.1162 -0.1433
   10CHTO   H12 4219   6.618   9.581   3.859 -0.5857  0.3400  1.4504
   10CHTO   H13 4220   6.595   9.758   3.860  0.7662  0.1499 -0.9517
   10CHTO   C15 4221   6.396   9.621   3.988 -0.3690  0.6976 -0.5548
   10CHTO   H28 4222   6.425   9.705   4.051 -0.3277  0.7644 -0.6640
   10CHTO   O10 4223   6.474   9.496   4.053 -0.2917 -0.1297  0.1297
   10CHTO    H4 4224   6.523   9.520   4.129  0.3599 -1.5660  0.1796
   10CHTO    O5 4225   6.261   9.581   4.000  0.5863  0.2608 -0.1610
   10CHTO   C10 4226   6.169   9.693   3.965  0.0442  0.2988 -0.1166
   10CHTO   H23 4227   6.183   9.784   4.024  0.6471 -0.2960  0.6675
   10CHTO   C17 4228   6.033   9.633   4.007 -0.1858 -0.6200  0.0463
   10CHTO   O12 4229   5.964   9.540   3.919  0.6738 -0.9157  0.5896
   10CHTO    H6 4230   5.893   9.582   3.874  0.7057 -2.1660 -0.6714
   11CHTO  H203 4231   7.345   4.586   0.027  1.0295  2.1737  0.1579
   11CHTO   O82 4232   7.328   4.591   0.119  0.0002 -0.5387  0.1763
   11CHTO  C123 4233   7.352   4.723   0.166 -0.4999 -0.6751 -0.4680
   11CHTO  H227 4234   7.441   4.767   0.119  0.7117 -1.4747  0.9911
   11CHTO   O77 4235   7.232   4.785   0.113 -0.7697  0.1802  0.6416
   11CHTO  C118 4236   7.219   4.925   0.142 -0.8401 -0.4227  0.1191
   11CHTO  H222 4237   7.299   4.976   0.087 -0.4079  0.0184  1.1483
   11CHTO  C125 4238   7.084   4.976   0.091  0.1803  0.1376 -0.1490
   11CHTO   O84 4239   7.081   4.969  -0.053 -0.1086  0.5226  0.0723
   11CHTO  H205 4240   7.021   5.033  -0.086  1.1997  0.6806 -2.0677
   11CHTO  C114 4241   7.230   4.965   0.295 -0.2180 -0.3673 -0.1558
   11CHTO  H218 4242   7.150   4.919   0.353  0.1347 -0.6776  0.0842
   11CHTO  C116 4243   7.363   4.896   0.347 -0.5196  0.5605 -0.5553
   11CHTO  H220 4244   7.454   4.945   0.305 -0.0064  0.2689  0.2206
   11CHTO   O79 4245   7.356   4.930   0.489  0.1402 -0.1872 -0.4609
   11CHTO  H201 4246   7.390   4.856   0.536 -0.8048 -0.8852 -0.8591
   11CHTO  C120 4247   7.360   4.742   0.320 -0.2639 -0.4631 -1.1593
   11CHTO  H224 4248   7.269   4.696   0.364  1.3087 -1.6104  0.9883
   11CHTO   N21 4249   7.480   4.675   0.381  0.1117  0.3364 -0.2380
   11CHTO  H211 4250   7.460   4.658   0.486 -1.2941  0.7236 -0.4441
   11CHTO  H212 4251   7.506   4.582   0.333 -0.6107  0.2907 -0.5389
   11CHTO   O75 4252   7.239   5.107   0.304 -0.6121  0.1597  0.7273
   11CHTO  C112 4253   7.124   5.172   0.400 -0.2973 -0.0717  0.1328
   11CHTO  H216 4254   7.121   5.109   0.490 -0.4096  0.6377  0.6357
   11CHTO   O73 4255   6.995   5.163   0.328 -0.9557  0.0603 -0.7663
   11CHTO  C113 4256   6.890   5.244   0.371 -0.8823  0.0968 -0.6262
   11CHTO  H217 4257   6.862   5.208   0.473 -0.7413  0.1033 -0.5857
   11CHTO  C124 4258   6.768   5.209   0.284  0.2106 -0.2815 -0.3849
   11CHTO   O83 4259   6.646   5.233   0.349 -0.6832  0.0983  0.0043
   11CHTO  H204 4260   6.577   5.238   0.286  0.9420 -0.2836 -1.8608
   11CHTO  C109 4261   6.936   5.394   0.386 -0.6794  0.2845 -0.1590
   11CHTO  H213 4262   6.972   5.428   0.288  1.6591  1.2157  0.9856
   11CHTO  C110 4263   7.043   5.403   0.491  0.4737 -0.1370  0.2952
   11CHTO  H214 4264   7.003   5.356   0.581  0.6734 -1.0478 -0.0854
   11CHTO   O78 4265   7.070   5.543   0.514  0.0945 -0.3072  0.1661
   11CHTO  H200 4266   7.102   5.589   0.439  0.4667  2.2521  1.8505
   11CHTO  C111 4267   7.164   5.321   0.439 -0.4942 -0.3338 -0.4909
   11CHTO  H215 4268   7.196   5.376   0.349  0.6602  1.0027  0.7181
   11CHTO   N19 4269   7.284   5.314   0.522  0.1114  0.4493 -0.3570
   11CHTO  H207 4270   7.267   5.265   0.617 -1.2700  1.3413 -0.1348
   11CHTO  H208 4271   7.374   5.282   0.473 -0.3485 -1.9088  0.2783
   11CHTO   O74 4272   6.823   5.481   0.421  0.0829 -0.0157 -0.4539
   11CHTO  C115 4273   6.816   5.613   0.337  0.7717 -0.5571 -0.3786
   11CHTO  H219 4274   6.912   5.631   0.289  1.7031 -1.3058  1.1437
   11CHTO   O76 4275   6.706   5.603   0.213 -0.4269  0.4274 -0.0728
   11CHTO  C122 4276   6.578   5.570   0.256 -0.5138  0.1497 -0.4889
   11CHTO  H226 4277   6.571   5.465   0.285 -0.5774  0.5596  1.0134
   11CHTO  C126 4278   6.491   5.593   0.135 -0.3118 -0.7182 -0.7886
   11CHTO   O85 4279   6.503   5.484   0.045 -0.3262 -0.3810  0.0267
   11CHTO  H206 4280   6.592   5.477   0.019  0.1077 -1.3835  1.6609
   11CHTO  C121 4281   6.531   5.647   0.389 -0.1610  0.2412  0.0625
   11CHTO  H225 4282   6.432   5.688   0.362  0.0823 -0.0886 -1.3728
   11CHTO   O81 4283   6.524   5.562   0.501  0.0046 -0.2870  0.4078
   11CHTO  H202 4284   6.498   5.605   0.581 -0.5274 -0.3758  0.2813
   11CHTO  C119 4285   6.630   5.770   0.423 -0.1930  0.2649 -0.1793
   11CHTO  H223 4286   6.622   5.831   0.333 -2.3176  1.9423  1.0856
   11CHTO  C117 4287   6.784   5.732   0.435 -0.0397 -0.0616 -0.1154
   11CHTO  H221 4288   6.810   5.693   0.534  1.3288  1.4488  0.1358
   11CHTO   N20 4289   6.884   5.838   0.417 -0.0606 -0.2278 -0.0214
   11CHTO  H209 4290   6.865   5.888   0.323  0.7890  0.3966  0.1385
   11CHTO  H210 4291   6.906   5.898   0.504  0.1362 -0.2906 -0.0274
   11CHTO   O80 4292   6.585   5.868   0.537  0.0683 -0.2504 -0.3352
   11CHTO  C103 4293   6.574   5.814   0.688 -0.5410  0.0188  0.0085
   11CHTO  H190 4294   6.530   5.715   0.692  1.3318 -0.8006  1.6398
   11CHTO  C101 4295   6.706   5.814   0.773  0.3282 -1.1698 -0.2381
   11CHTO  H188 4296   6.776   5.884   0.729 -2.6902  1.2606 -1.3703
   11CHTO   O68 4297   6.768   5.662   0.770  0.5052 -0.1591 -0.0492
   11CHTO  H168 4298   6.834   5.646   0.706  1.2273  1.8401  0.1499
   11CHTO   C99 4299   6.670   5.843   0.922 -0.0025  0.2134  0.2412
   11CHTO  H186 4300   6.626   5.753   0.970 -0.0866 -0.3877 -0.9377
   11CHTO   N17 4301   6.798   5.864   0.997  0.4856 -0.1925  0.0725
   11CHTO  H174 4302   6.878   5.795   0.976  1.7852  1.3268 -0.1473
   11CHTO  H175 4303   6.835   5.966   0.994  0.2384 -0.0751  0.8520
   11CHTO   C97 4304   6.572   5.956   0.941  0.6645 -0.0706 -0.3125
   11CHTO  H184 4305   6.608   6.048   0.894  2.3417 -2.2318 -3.3672
   11CHTO   O64 4306   6.452   5.908   0.880 -0.1289 -0.3987  0.5404
   11CHTO  C104 4307   6.462   5.918   0.738 -0.1740  0.0832  0.0590
   11CHTO  H191 4308   6.494   6.018   0.706 -0.1783 -0.7752 -2.8120
   11CHTO  C108 4309   6.321   5.893   0.682  0.0551  0.1982 -0.0552
   11CHTO   O71 4310   6.240   6.009   0.686  0.3579 -0.4836  0.4045
   11CHTO  H171 4311   6.160   6.009   0.637  0.3641  2.6668  0.3207
   11CHTO   O62 4312   6.524   5.965   1.080 -0.2054  0.6961  0.4002
   11CHTO   C91 4313   6.484   6.095   1.122  0.4408  0.0571 -0.1969
   11CHTO  H178 4314   6.494   6.167   1.041  1.5404  0.6133  0.4277
   11CHTO   C92 4315   6.577   6.138   1.236 -0.1176 -0.1156 -0.3903
   11CHTO  H179 4316   6.581   6.059   1.312 -1.2901 -0.0826 -0.2895
   11CHTO   O66 4317   6.713   6.142   1.186  0.1105  0.1367  0.3101
   11CHTO  H166 4318   6.714   6.148   1.092  1.3070 -0.4093  0.2728
   11CHTO   C93 4319   6.535   6.279   1.304 -0.5139 -0.4845  0.0295
   11CHTO  H180 4320   6.573   6.354   1.234 -0.9480  0.7739  1.1199
   11CHTO   N16 4321   6.609   6.295   1.429 -0.0810 -0.0736  0.2440
   11CHTO  H172 4322   6.577   6.389   1.471 -1.0031 -0.1522 -0.2654
   11CHTO  H173 4323   6.716   6.302   1.417 -0.0831  1.1467  0.9004
   11CHTO   C94 4324   6.386   6.299   1.318 -0.1210 -0.1694 -0.1242
   11CHTO  H181 4325   6.346   6.240   1.401 -1.2989  0.3243 -0.3265
   11CHTO   O61 4326   6.317   6.245   1.207  0.7795 -0.0161  0.5537
   11CHTO   C95 4327   6.341   6.104   1.184  0.4450 -0.3036 -0.3585
   11CHTO  H182 4328   6.329   6.041   1.272  2.2416  1.1929  0.9944
   11CHTO  C106 4329   6.223   6.058   1.080  0.9339  0.0384  0.0416
   11CHTO   O69 4330   6.216   6.139   0.968  0.1104  0.0161  0.0064
   11CHTO  H169 4331   6.269   6.103   0.898 -0.2586 -0.8236  0.1510
   11CHTO   O63 4332   6.349   6.458   1.331  0.4831  0.4510 -0.6475
   11CHTO   C96 4333   6.348   6.525   1.474  0.0642  0.7136 -0.1337
   11CHTO  H183 4334   6.414   6.472   1.543 -0.7617 -0.2826 -0.1008
   11CHTO   C98 4335   6.206   6.519   1.535  0.0500  0.6885 -0.2660
   11CHTO  H185 4336   6.134   6.579   1.477 -1.1253  0.6147  1.0877
   11CHTO   O67 4337   6.154   6.386   1.544 -0.2602  0.0853  0.1151
   11CHTO  H167 4338   6.222   6.332   1.579 -0.3683 -0.0663  0.0851
   11CHTO  C102 4339   6.218   6.582   1.685  0.4166  0.1887  0.6231
   11CHTO  H189 4340   6.261   6.500   1.743 -0.4037 -0.3731  0.4436
   11CHTO   N18 4341   6.094   6.618   1.761  0.0445  0.1266  0.0494
   11CHTO  H176 4342   6.028   6.534   1.776  0.3001  0.0606  0.8012
   11CHTO  H177 4343   6.042   6.697   1.709 -1.2102 -0.5687  0.2350
   11CHTO  C105 4344   6.312   6.705   1.691 -0.1074  0.0975 -0.2732
   11CHTO  H192 4345   6.264   6.789   1.740 -1.2814 -0.8899  0.3132
   11CHTO   O65 4346   6.344   6.760   1.562 -0.2211 -0.2040 -0.0777
   11CHTO  C100 4347   6.400   6.672   1.465 -0.4796 -0.2556  0.1193
   11CHTO  H187 4348   6.375   6.693   1.360  0.4558 -0.1183 -0.0815
   11CHTO  C107 4349   6.554   6.687   1.484 -0.2557  0.0202  0.2916
   11CHTO   O70 4350   6.597   6.820   1.455 -0.2705 -0.1092 -0.1817
   11CHTO  H170 4351   6.686   6.848   1.462 -0.8718  1.5622  1.1177
   11CHTO   O57 4352   6.444   6.653   1.783  0.4123 -0.3093  1.0998
   11CHTO   C85 4353   6.462   6.721   1.913 -0.3139  0.2178 -0.5222
   11CHTO  H157 4354   6.360   6.744   1.950  0.5945  0.5053  1.8609
   11CHTO   C83 4355   6.539   6.856   1.891 -0.3046  0.3914  0.5652
   11CHTO  H155 4356   6.474   6.924   1.835  0.5096 -0.3000 -1.2676
   11CHTO   O56 4357   6.664   6.841   1.817 -0.0964  0.4068 -0.6411
   11CHTO  H135 4358   6.652   6.816   1.727 -0.3907 -1.2448 -0.1678
   11CHTO   C81 4359   6.567   6.920   2.028  0.3254 -0.4362 -0.5275
   11CHTO  H153 4360   6.471   6.930   2.078  0.2897  1.2248 -0.9197
   11CHTO   N14 4361   6.620   7.059   2.015  0.1903 -0.5491 -0.2410
   11CHTO  H141 4362   6.552   7.137   2.041 -1.9453 -2.0694 -1.1514
   11CHTO  H142 4363   6.665   7.075   1.919  1.5319  1.5318  0.7048
   11CHTO   C79 4364   6.667   6.823   2.114 -0.0060  0.6756 -0.1794
   11CHTO  H151 4365   6.676   6.866   2.213 -0.4116 -0.1424  0.2168
   11CHTO   O52 4366   6.589   6.696   2.139 -0.0210 -0.0037  0.2705
   11CHTO   C86 4367   6.542   6.631   2.018  0.3832  0.1387  0.8410
   11CHTO  H158 4368   6.631   6.588   1.968 -0.0217  0.4056 -0.1383
   11CHTO   C90 4369   6.447   6.507   2.038 -0.5618 -0.8517  0.0304
   11CHTO   O60 4370   6.507   6.396   2.100  0.0812  0.2869  0.3137
   11CHTO  H138 4371   6.435   6.353   2.142  0.2135  0.6111  0.8863
   11CHTO   O50 4372   6.798   6.795   2.064 -0.2943 -0.3050 -0.1853
   11CHTO   C73 4373   6.923   6.726   2.092  0.0288  0.6144  0.0358
   11CHTO  H145 4374   6.895   6.638   2.153  1.4484  0.3888  0.3848
   11CHTO   C74 4375   7.017   6.815   2.184 -0.2249 -0.4913 -0.0591
   11CHTO  H146 4376   6.952   6.853   2.264 -0.5902 -1.2251 -0.0028
   11CHTO   O54 4377   7.132   6.743   2.238 -0.3496  0.2096  0.1597
   11CHTO  H133 4378   7.172   6.790   2.308 -0.5207  1.2592 -0.4439
   11CHTO   C75 4379   7.064   6.936   2.097  0.3422  0.4595 -0.0729
   11CHTO  H147 4380   6.977   7.000   2.081 -0.2234 -0.1609  0.4984
   11CHTO   N13 4381   7.163   7.021   2.160  0.1752  0.5686 -0.0013
   11CHTO  H139 4382   7.197   7.098   2.092 -1.7102  1.9130  0.5413
   11CHTO  H140 4383   7.246   6.968   2.204  0.4897  0.1589 -1.0783
   11CHTO   C76 4384   7.128   6.891   1.956 -0.3857 -0.0894  0.0109
   11CHTO  H148 4385   7.228   6.849   1.967 -0.1084  0.8196  0.9351
   11CHTO   O49 4386   7.053   6.789   1.881  0.2035  0.0870 -0.3233
   11CHTO   C77 4387   7.002   6.684   1.963 -0.3119  0.4571  0.2852
   11CHTO  H149 4388   7.085   6.619   1.991  0.2117  0.6347 -0.8008
   11CHTO   C88 4389   6.915   6.599   1.857 -0.5379 -0.2862 -0.3301
   11CHTO   O58 4390   7.013   6.526   1.748 -0.1252  0.6895  0.2923
   11CHTO  H136 4391   6.964   6.509   1.670 -0.1592  0.2790  0.4038
   11CHTO   O51 4392   7.112   7.017   1.850 -0.5551  0.1406  0.6932
   11CHTO   C78 4393   7.241   7.044   1.757  0.0909 -0.0729 -0.0185
   11CHTO  H150 4394   7.315   6.968   1.791 -0.2269 -0.4333 -0.1263
   11CHTO   C80 4395   7.293   7.184   1.784  0.6601  0.0081  0.4537
   11CHTO  H152 4396   7.206   7.253   1.776 -1.0362 -2.1450 -0.3519
   11CHTO   O55 4397   7.342   7.183   1.918 -0.1404  0.2003 -0.0987
   11CHTO  H134 4398   7.266   7.195   1.971  0.1998  0.6670  0.2968
   11CHTO   C84 4399   7.410   7.223   1.683  0.0731  0.1679 -0.5174
   11CHTO  H156 4400   7.493   7.156   1.708  0.0408 -0.5752 -2.3291
   11CHTO   N15 4401   7.453   7.364   1.707  0.4960 -0.3125 -0.1443
   11CHTO  H143 4402   7.368   7.427   1.690  0.3969 -0.1774  0.7808
   11CHTO  H144 4403   7.534   7.395   1.644  1.2007 -0.3945  0.7073
   11CHTO   C87 4404   7.366   7.198   1.537 -0.0472  0.2213  0.1689
   11CHTO  H159 4405   7.291   7.269   1.503 -1.6180 -1.1465  0.7256
   11CHTO   O53 4406   7.313   7.055   1.522 -0.1712  0.1215  0.0213
   11CHTO   C82 4407   7.199   7.024   1.610  0.0270  0.2574 -0.4777
   11CHTO  H154 4408   7.113   7.090   1.602 -0.9657 -1.1320 -1.4564
   11CHTO   C89 4409   7.144   6.888   1.589  0.0859  0.1716  0.0622
   11CHTO   O59 4410   7.247   6.786   1.616 -0.1945 -0.3152 -0.1160
   11CHTO  H137 4411   7.206   6.703   1.631 -0.3356 -0.1946  0.1718
   11CHTO   O45 4412   7.480   7.232   1.436 -0.3976  0.2090  0.2092
   11CHTO   C67 4413   7.450   7.223   1.300  0.3865 -0.2867  0.1296
   11CHTO  H124 4414   7.393   7.133   1.279 -2.1827  1.3258 -0.0533
   11CHTO   C65 4415   7.370   7.349   1.254  0.0063 -0.1752 -0.0343
   11CHTO  H122 4416   7.383   7.426   1.330  0.4654 -1.3211  1.0571
   11CHTO   O44 4417   7.231   7.304   1.254 -0.0258  0.1484 -0.0229
   11CHTO  H102 4418   7.198   7.277   1.338  0.6550 -0.6793 -0.0193
   11CHTO   C63 4419   7.425   7.403   1.119 -0.3184 -0.6373 -0.8209
   11CHTO  H120 4420   7.522   7.451   1.131 -1.2232  0.8786  0.5171
   11CHTO   N11 4421   7.344   7.516   1.058 -0.8895 -0.0195 -0.5197
   11CHTO  H108 4422   7.342   7.591   1.134 -0.1867 -1.3110  0.8039
   11CHTO  H109 4423   7.244   7.485   1.035 -0.5018 -1.3099 -0.5103
   11CHTO   C61 4424   7.447   7.285   1.025 -0.0112  0.8203 -1.0982
   11CHTO  H118 4425   7.484   7.331   0.931  2.3989 -0.0522 -0.6134
   11CHTO   O40 4426   7.559   7.197   1.077  0.4295  0.3552  0.6601
   11CHTO   C68 4427   7.590   7.216   1.223  0.0620 -0.0244 -0.1862
   11CHTO  H125 4428   7.656   7.303   1.243  0.6885 -0.4923 -0.2088
   11CHTO   C72 4429   7.672   7.086   1.254  0.6773  0.0309  0.2349
   11CHTO   O48 4430   7.765   7.103   1.360 -0.0488  0.5505 -0.0366
   11CHTO  H105 4431   7.794   7.192   1.365 -1.0933  0.8745  0.3353
   11CHTO   O38 4432   7.333   7.194   1.006 -0.2464 -0.2075  0.0154
   11CHTO   C55 4433   7.340   7.109   0.891  0.2647 -0.1738 -0.2275
   11CHTO  H112 4434   7.443   7.087   0.861  0.4088 -1.5673  1.2314
   11CHTO   C56 4435   7.257   7.181   0.773  0.1245  0.4629 -0.7402
   11CHTO  H113 4436   7.159   7.203   0.817 -0.5450 -1.6941 -1.0650
   11CHTO   O42 4437   7.320   7.310   0.758  0.0688  0.0753  0.0390
   11CHTO  H100 4438   7.410   7.299   0.734 -0.0173 -0.0780 -0.2163
   11CHTO   C57 4439   7.256   7.087   0.646 -0.4326  0.5568 -0.3344
   11CHTO  H114 4440   7.353   7.075   0.599 -1.5159  0.4450 -2.5885
   11CHTO   N10 4441   7.176   7.138   0.528  0.0038  0.3160  0.0131
   11CHTO  H106 4442   7.171   7.246   0.534  1.7679  0.3526  1.2827
   11CHTO  H107 4443   7.203   7.110   0.427 -0.7465 -1.0662  0.1882
   11CHTO   C58 4444   7.206   6.949   0.688 -0.4461  0.4098 -0.0833
   11CHTO  H115 4445   7.096   6.947   0.703 -0.3259 -3.1145  0.7377
   11CHTO   O37 4446   7.275   6.895   0.805 -0.4597  0.0292  0.2447
   11CHTO   C59 4447   7.274   6.975   0.926 -0.1191  0.4000 -0.1471
   11CHTO  H116 4448   7.171   7.000   0.953 -0.1142  1.2600 -0.8974
   11CHTO   C70 4449   7.345   6.885   1.031  0.0409  0.2944 -0.5507
   11CHTO   O46 4450   7.304   6.928   1.156 -0.4995 -0.1129 -0.4440
   11CHTO  H103 4451   7.231   6.883   1.194 -1.9095  2.1200 -0.4333
   11CHTO   O39 4452   7.242   6.830   0.579 -0.5068 -0.3075  0.1465
   11CHTO   C60 4453   7.130   6.765   0.521 -0.1351 -0.0349 -0.1876
   11CHTO  H117 4454   7.038   6.793   0.571 -1.6680 -3.4884 -0.9176
   11CHTO   C62 4455   7.111   6.796   0.369  0.2274  0.6631 -0.6089
   11CHTO  H119 4456   7.083   6.904   0.366  0.4493  0.7481  0.1910
   11CHTO   O43 4457   7.227   6.759   0.296 -0.7859  0.4266  0.1975
   11CHTO  H101 4458   7.257   6.680   0.337  2.3433  1.8165  0.6816
   11CHTO   C66 4459   6.985   6.715   0.309 -0.1030  0.6698  0.6147
   11CHTO  H123 4460   6.900   6.747   0.369 -0.7910 -0.8162  0.4500
   11CHTO   N12 4461   6.955   6.745   0.165 -0.9781 -0.0709  0.5424
   11CHTO  H110 4462   7.039   6.718   0.103 -0.0789 -0.3247  1.8495
   11CHTO  H111 4463   6.862   6.699   0.134 -1.1466  1.2524 -0.9633
   11CHTO   C69 4464   7.001   6.563   0.334  0.3833  0.3115  0.3303
   11CHTO  H126 4465   7.084   6.529   0.269 -0.4467 -0.9124 -0.1165
   11CHTO   O41 4466   7.033   6.527   0.478 -0.0654 -0.1753  0.4462
   11CHTO   C64 4467   7.155   6.607   0.540 -0.4610 -0.3190 -0.3183
   11CHTO  H121 4468   7.247   6.569   0.491 -1.2712 -1.0960 -1.2500
   11CHTO   C71 4469   7.174   6.564   0.686  0.1956 -0.4789  0.1252
   11CHTO   O47 4470   7.056   6.585   0.769  0.1910  0.2550 -0.1703
   11CHTO  H104 4471   7.026   6.674   0.772  0.4599  0.3576 -0.5063
   11CHTO   O34 4472   6.862   6.497   0.292 -0.3509 -0.1727 -0.4223
   11CHTO   C49 4473   6.765   6.377   0.325 -0.7679  0.5736 -0.6911
   11CHTO   H91 4474   6.832   6.291   0.336 -0.9766  0.4051 -0.7215
   11CHTO   C47 4475   6.676   6.354   0.208 -0.1425 -0.6529  0.1589
   11CHTO   H89 4476   6.633   6.254   0.228 -0.9410 -0.1552  0.9483
   11CHTO   O33 4477   6.756   6.344   0.085 -0.0687  0.1738  0.6319
   11CHTO   H70 4478   6.818   6.274   0.096  1.0485  1.2354  1.2547
   11CHTO   C45 4479   6.564   6.465   0.200  0.0102  0.7028  0.2289
   11CHTO   H87 4480   6.616   6.562   0.200  2.2735 -0.4609  1.3448
   11CHTO    N8 4481   6.477   6.456   0.077  0.2130 -0.0693 -0.2386
   11CHTO   H75 4482   6.382   6.411   0.099 -0.0052 -0.1996 -1.4038
   11CHTO   H76 4483   6.469   6.550   0.025 -0.0479  0.1366  0.1781
   11CHTO   C43 4484   6.476   6.461   0.338 -0.1231 -0.3504 -0.2389
   11CHTO   H85 4485   6.402   6.540   0.328 -0.1938 -0.3860 -0.0209
   11CHTO   O29 4486   6.564   6.484   0.448 -0.3467 -0.1631  0.2567
   11CHTO   C50 4487   6.680   6.399   0.461  0.8634  0.1818 -0.0451
   11CHTO   H92 4488   6.741   6.447   0.539  2.1578  0.7905 -1.3921
   11CHTO   C54 4489   6.649   6.260   0.525  0.3181  0.3168  0.1115
   11CHTO   O36 4490   6.569   6.281   0.640  0.3727 -0.2846 -0.1210
   11CHTO   H72 4491   6.593   6.216   0.703 -0.4706 -0.4998 -0.0106
   11CHTO   O27 4492   6.404   6.340   0.354  0.2805  0.1300 -0.0700
   11CHTO   C37 4493   6.304   6.252   0.405 -0.4405 -0.1653  0.2809
   11CHTO   H79 4494   6.337   6.218   0.505  0.1646  0.6939  0.3821
   11CHTO   C38 4495   6.160   6.314   0.417 -0.1742  0.0680  0.0310
   11CHTO   H80 4496   6.131   6.351   0.318 -1.3018  0.3503  0.4558
   11CHTO   O31 4497   6.166   6.429   0.501 -0.5609  0.2139  0.0008
   11CHTO   H68 4498   6.125   6.413   0.583 -1.0980  0.1498 -0.2797
   11CHTO   C39 4499   6.057   6.203   0.461 -0.1626 -0.8386  0.0413
   11CHTO   H81 4500   6.073   6.181   0.567  2.5352  2.4705  0.4199
   11CHTO    N7 4501   5.913   6.254   0.451  0.1937  0.0439 -0.5150
   11CHTO   H73 4502   5.843   6.215   0.523  0.7472  1.0647  0.5984
   11CHTO   H74 4503   5.920   6.361   0.434  2.7739  0.2593  1.5636
   11CHTO   C40 4504   6.077   6.067   0.384 -0.4768  0.1253  0.0610
   11CHTO   H82 4505   6.024   6.066   0.289  3.7008  2.0216 -2.4288
   11CHTO   O26 4506   6.214   6.028   0.368 -0.2028 -0.4787  0.2423
   11CHTO   C41 4507   6.302   6.128   0.308  0.3957  0.5503  0.4793
   11CHTO   H83 4508   6.256   6.150   0.210  1.1222 -1.1205 -0.2648
   11CHTO   C52 4509   6.442   6.070   0.270  0.2162  0.4706  0.2589
   11CHTO   O35 4510   6.436   5.946   0.213 -1.0457  0.3600  0.0358
   11CHTO   H71 4511   6.367   5.946   0.150 -0.4762 -1.0673 -0.6045
   11CHTO   O28 4512   6.043   5.959   0.476  0.2869 -0.0554 -0.1822
   11CHTO   C42 4513   5.958   5.853   0.427 -0.1470  0.0003  0.1986
   11CHTO   H84 4514   5.959   5.857   0.318 -1.5716  0.9463  0.2187
   11CHTO   C44 4515   5.806   5.870   0.469 -0.0087  0.0516  0.3297
   11CHTO   H86 4516   5.802   5.889   0.576  0.5945 -0.5212  0.4531
   11CHTO   O32 4517   5.754   5.978   0.395  0.3967 -0.4812 -0.0643
   11CHTO   H69 4518   5.661   5.983   0.403  0.4971 -0.0810  0.8492
   11CHTO   C48 4519   5.715   5.740   0.439  0.6218  0.2627 -0.0417
   11CHTO   H90 4520   5.702   5.717   0.333  0.8324 -1.1629  0.2197
   11CHTO    N9 4521   5.577   5.755   0.498 -0.2986 -0.2048  0.7310
   11CHTO   H77 4522   5.513   5.669   0.496 -1.3658  0.6230 -1.6488
   11CHTO   H78 4523   5.528   5.841   0.455 -0.1615 -0.8164 -0.6698
   11CHTO   C51 4524   5.790   5.619   0.498  0.1803  0.0502 -0.0037
   11CHTO   H93 4525   5.808   5.628   0.606 -1.6160  2.1223  0.1699
   11CHTO   O30 4526   5.907   5.606   0.422  0.2517 -0.3836 -0.0834
   11CHTO   C46 4527   6.009   5.708   0.469  0.7868 -0.9363 -0.0467
   11CHTO   H88 4528   6.014   5.709   0.578 -2.4028 -2.8815  0.1720
   11CHTO   C53 4529   6.150   5.689   0.416  0.3273 -0.6552  0.0536
   11CHTO   O72 4530   6.197   5.553   0.426 -0.0610 -0.4794  0.3294
   11CHTO  H199 4531   6.151   5.483   0.383 -2.1320 -0.0637  1.7704
   11CHTO   O22 4532   5.727   5.496   0.462 -0.4249 -0.2159  0.1483
   11CHTO   C31 4533   5.714   5.383   0.560  0.2726 -0.2044  0.0724
   11CHTO   H59 4534   5.765   5.411   0.654 -0.4601 -1.2576  0.7835
   11CHTO   C29 4535   5.568   5.363   0.597  0.7997  0.9374 -0.5401
   11CHTO   H57 4536   5.507   5.336   0.510 -0.7339  1.6116  0.3165
   11CHTO   O21 4537   5.519   5.488   0.652 -0.0723 -0.0697  0.1016
   11CHTO   H37 4538   5.577   5.515   0.721  0.5738 -0.5392 -0.2571
   11CHTO   C27 4539   5.552   5.253   0.705  0.1597  0.3452  0.2685
   11CHTO   H55 4540   5.608   5.281   0.796  2.3584 -2.6573 -0.0880
   11CHTO    N5 4541   5.407   5.231   0.741 -0.0749  0.3885  0.6184
   11CHTO   H43 4542   5.380   5.152   0.809  0.1445 -0.4131 -0.2253
   11CHTO   H44 4543   5.360   5.323   0.774  1.7226  1.5014  0.1258
   11CHTO   C25 4544   5.617   5.125   0.655 -0.1443 -0.2783  0.2611
   11CHTO   H53 4545   5.561   5.076   0.574  0.8363 -1.8092  0.4954
   11CHTO   O17 4546   5.760   5.146   0.610  0.1074 -0.0823 -0.2655
   11CHTO   C32 4547   5.773   5.252   0.510 -0.1719 -0.1803  0.2315
   11CHTO   H60 4548   5.725   5.221   0.417 -1.5966  1.5806  0.3326
   11CHTO   C36 4549   5.923   5.273   0.488 -0.1137  0.3021  0.0924
   11CHTO   O25 4550   5.986   5.146   0.459  0.6018 -0.0697  0.2786
   11CHTO   H40 4551   6.079   5.145   0.447  0.5663  2.2183 -0.4915
   11CHTO   O15 4552   5.626   5.018   0.778  0.4559 -0.1542 -0.3874
   11CHTO   C19 4553   5.542   4.894   0.790  0.4454  0.0408  0.5949
   11CHTO   H47 4554   5.602   4.840   0.864 -1.5221  0.1223  2.3001
   11CHTO   C20 4555   5.398   4.921   0.855  0.3149  0.2513 -0.4928
   11CHTO   H48 4556   5.331   4.977   0.787 -1.5915  0.7932  1.7799
   11CHTO   O19 4557   5.420   5.006   0.966  0.0403 -0.3128  0.1379
   11CHTO   H35 4558   5.440   4.965   1.048  0.3928  0.9742  0.7032
   11CHTO   C21 4559   5.319   4.785   0.874  0.4223  0.6205  0.1562
   11CHTO   H49 4560   5.376   4.722   0.942 -0.6789  0.0026  0.5258
   11CHTO    N4 4561   5.184   4.800   0.924 -0.4004  0.0474 -0.4387
   11CHTO   H41 4562   5.115   4.738   0.869 -0.6138 -0.4189  0.3421
   11CHTO   H42 4563   5.160   4.903   0.904 -0.5691  0.2279  0.6733
   11CHTO   C22 4564   5.315   4.711   0.736 -0.0645  0.1801  0.2959
   11CHTO   H50 4565   5.267   4.780   0.666 -2.8969 -1.3126  0.6735
   11CHTO   O14 4566   5.448   4.687   0.697  0.0466 -0.0042  0.5336
   11CHTO   C23 4567   5.528   4.804   0.669  0.6318  0.3558  0.6308
   11CHTO   H51 4568   5.483   4.858   0.584  1.9765 -0.3315 -0.5361
   11CHTO   C34 4569   5.670   4.762   0.628  0.1805 -0.4435 -0.2927
   11CHTO   O23 4570   5.663   4.631   0.565 -0.3560 -0.3904 -0.4452
   11CHTO   H38 4571   5.629   4.566   0.623  1.7579  0.2440  1.6041
   11CHTO   O16 4572   5.255   4.582   0.745  0.2067 -0.2980 -0.1742
   11CHTO   C24 4573   5.184   4.552   0.586  0.2075 -0.4987  0.3248
   11CHTO   H52 4574   5.210   4.629   0.513  0.3282 -3.8554 -3.3213
   11CHTO   C26 4575   5.032   4.529   0.610  0.0599 -0.1163 -1.1022
   11CHTO   H54 4576   5.018   4.449   0.685 -0.7952  0.8646 -0.2016
   11CHTO   O20 4577   4.967   4.643   0.676 -0.0674  0.3331 -0.3247
   11CHTO   H36 4578   4.999   4.645   0.764  0.3239  0.3726 -0.4674
   11CHTO   C30 4579   4.958   4.482   0.482 -0.1718 -0.0769  0.4897
   11CHTO   H58 4580   4.949   4.575   0.424 -0.2573  0.7243  1.7775
   11CHTO    N6 4581   4.815   4.437   0.506  0.2482  0.8937 -0.2955
   11CHTO   H45 4582   4.763   4.469   0.417 -0.4170 -1.3795 -0.7543
   11CHTO   H46 4583   4.775   4.481   0.596 -0.1625 -2.2635  1.1323
   11CHTO   C33 4584   5.038   4.377   0.398 -0.2854 -0.7443  0.8578
   11CHTO   H61 4585   5.016   4.276   0.437 -1.2041 -0.6487  0.5949
   11CHTO   O18 4586   5.181   4.397   0.410 -0.0512  0.4595 -0.1767
   11CHTO   C28 4587   5.244   4.422   0.532 -0.4029 -0.8059 -0.5705
   11CHTO   H56 4588   5.226   4.339   0.601 -2.7218  0.3286  0.2490
   11CHTO   C35 4589   5.397   4.433   0.505  0.7803  0.0779  0.2142
   11CHTO   O24 4590   5.469   4.309   0.522 -0.2839 -0.6355 -0.2445
   11CHTO   H39 4591   5.453   4.248   0.452 -1.8386 -1.2486  0.6202
   11CHTO    O9 4592   4.991   4.377   0.260  0.5236 -0.5010  0.3714
   11CHTO   C13 4593   5.034   4.491   0.178 -1.3852 -0.4132  0.4032
   11CHTO   H26 4594   5.073   4.567   0.248 -1.0952 -0.7382  0.5961
   11CHTO   C11 4595   4.903   4.544   0.094 -0.2364 -0.1101  0.2993
   11CHTO   H24 4596   4.824   4.575   0.164  0.3940  1.6512  0.2708
   11CHTO    O8 4597   4.860   4.435   0.005 -0.0872  0.5830  0.7379
   11CHTO    H3 4598   4.787   4.476  -0.036 -0.0428  0.8269  0.8991
   11CHTO    C9 4599   4.952   4.672   0.013 -0.4668  0.5259  0.3705
   11CHTO   H22 4600   4.958   4.752   0.088 -0.0274  1.0843 -0.2567
   11CHTO    N2 4601   4.852   4.729  -0.080 -0.3721  0.4126 -0.0418
   11CHTO   H10 4602   4.854   4.661  -0.164  0.1477 -0.1540  0.4213
   11CHTO   H11 4603   4.759   4.727  -0.026 -0.0583 -0.3585  0.4792
   11CHTO    C7 4604   5.098   4.651  -0.046 -0.2645 -0.5348  0.1851
   11CHTO   H20 4605   5.157   4.711   0.026 -1.4902  0.1530  0.6117
   11CHTO    O4 4606   5.138   4.513  -0.053  0.0655 -0.1953  1.1594
   11CHTO   C14 4607   5.148   4.450   0.079 -0.2416 -1.2043  0.5560
   11CHTO   H27 4608   5.242   4.490   0.123 -0.5225 -0.1989  0.2578
   11CHTO   C18 4609   5.172   4.300   0.049  0.4598 -0.0312  0.2879
   11CHTO   O13 4610   5.286   4.266  -0.030  0.0287 -0.1877  0.7162
   11CHTO    H7 4611   5.280   4.307  -0.115  0.2087  0.4931  1.0350
   11CHTO    O2 4612   5.128   4.719  -0.195  0.6310 -0.1824  0.2810
   11CHTO    C1 4613   5.218   4.832  -0.201 -0.9039  0.6115 -0.0829
   11CHTO   H14 4614   5.245   4.852  -0.096 -0.8220  4.4447 -0.7401
   11CHTO    C2 4615   5.158   4.964  -0.264 -0.4652 -0.0640 -0.3367
   11CHTO   H15 4616   5.129   4.946  -0.368  0.7574  1.0335 -0.8829
   11CHTO    O6 4617   5.037   5.006  -0.194  0.4476  0.1811  0.2902
   11CHTO    H1 4618   5.052   5.015  -0.102 -3.0841  0.3592  0.9004
   11CHTO    C3 4619   5.276   5.074  -0.267 -0.8376  0.5784  0.1958
   11CHTO   H16 4620   5.305   5.100  -0.165  1.0454 -0.7534  0.0368
   11CHTO    N1 4621   5.221   5.197  -0.330 -0.3608 -0.2434 -0.3978
   11CHTO    H8 4622   5.143   5.237  -0.267  0.8694 -0.5899  1.4073
   11CHTO    H9 4623   5.287   5.280  -0.352 -1.5358  2.0822  4.1571
   11CHTO    C4 4624   5.404   5.013  -0.334  0.5089  0.2456 -0.7429
   11CHTO   H17 4625   5.392   5.001  -0.442  0.9758 -1.2982 -0.6320
   11CHTO    O1 4626   5.442   4.882  -0.281  0.0136  0.0788 -0.2529
   11CHTO    C5 4627   5.338   4.790  -0.287  0.6053 -0.4545 -0.2231
   11CHTO   H18 4628   5.297   4.779  -0.388 -1.1810 -0.0605  0.4390
   11CHTO   C16 4629   5.399   4.663  -0.230  0.6871  0.5590 -0.1989
   11CHTO   O11 4630   5.483   4.582  -0.316  0.1138  0.6275 -0.1973
   11CHTO    H5 4631   5.509   4.511  -0.262  4.1059  0.5838 -2.0551
   11CHTO    O3 4632   5.518   5.096  -0.317  0.1627 -0.2696 -0.1093
   11CHTO    C6 4633   5.621   5.097  -0.422  0.2663  1.0872 -0.4217
   11CHTO   H19 4634   5.600   5.019  -0.495  1.8131  1.2776 -1.1029
   11CHTO    C8 4635   5.620   5.239  -0.490 -0.1089 -0.1329  0.0002
   11CHTO   H21 4636   5.626   5.311  -0.408  1.7552  0.5115 -0.6662
   11CHTO    O7 4637   5.493   5.260  -0.551  0.0983  0.0530  0.2954
   11CHTO    H2 4638   5.487   5.345  -0.591  1.3283  1.2728  2.6132
   11CHTO   C12 4639   5.736   5.254  -0.596  0.2290 -0.3709 -0.2049
   11CHTO   H25 4640   5.708   5.194  -0.685  1.4312  0.9089 -1.4763
   11CHTO    N3 4641   5.745   5.392  -0.655 -0.2977 -0.2410 -0.0225
   11CHTO   H12 4642   5.752   5.469  -0.580  0.1195 -0.7412  0.4598
   11CHTO   H13 4643   5.666   5.408  -0.727 -2.1133 -0.3172  1.8998
   11CHTO   C15 4644   5.871   5.205  -0.531 -0.0841 -0.1227  0.0335
   11CHTO   H28 4645   5.911   5.280  -0.463 -1.1665 -0.7919  1.4316
   11CHTO   O10 4646   5.977   5.173  -0.630  0.1655  0.1092  0.2325
   11CHTO    H4 4647   6.059   5.204  -0.596 -0.3462  0.3426  1.2570
   11CHTO    O5 4648   5.861   5.076  -0.474  0.3526 -1.1543  0.2416
   11CHTO   C10 4649   5.767   5.063  -0.364 -0.2584 -0.3757  0.1320
   11CHTO   H23 4650   5.787   5.139  -0.289 -0.3965 -0.3436  0.1363
   11CHTO   C17 4651   5.771   4.930  -0.293 -0.0389  0.2520 -0.4977
   11CHTO   O12 4652   5.893   4.924  -0.220  0.0197 -0.0767  0.0696
   11CHTO    H6 4653   5.938   4.842  -0.228  0.3020 -0.0196  1.0357
   12CHTO  H203 4654   5.444   1.490   2.201  0.4602 -0.9185  0.4015
   12CHTO   O82 4655   5.360   1.448   2.197  0.0687 -0.1209  0.0483
   12CHTO  C123 4656   5.364   1.357   2.305 -0.5525  0.0538  0.0749
   12CHTO  H227 4657   5.418   1.398   2.391  0.5050 -1.9539  0.3984
   12CHTO   O77 4658   5.219   1.370   2.332  0.3102  0.4214 -0.1958
   12CHTO  C118 4659   5.176   1.284   2.443 -0.6364 -0.4464  0.1854
   12CHTO  H222 4660   5.225   1.306   2.538 -0.0433 -0.8959 -0.0125
   12CHTO  C125 4661   5.022   1.302   2.461 -0.8306  0.3616 -0.1406
   12CHTO   O84 4662   4.977   1.436   2.497  0.3971  0.2845  0.0201
   12CHTO  H205 4663   5.027   1.467   2.571 -1.1192  0.1561  1.1254
   12CHTO  C114 4664   5.205   1.137   2.398  0.4120 -0.2784 -0.1173
   12CHTO  H218 4665   5.149   1.113   2.307  1.4477  0.0560 -0.8465
   12CHTO  C116 4666   5.359   1.117   2.378  0.1945  0.2287 -0.2469
   12CHTO  H220 4667   5.404   1.143   2.476 -0.6454 -0.2626  0.2778
   12CHTO   O79 4668   5.388   0.976   2.351  0.1678 -0.0750 -0.1378
   12CHTO  H201 4669   5.458   0.942   2.403  0.4676 -2.5569 -2.1035
   12CHTO  C120 4670   5.410   1.211   2.266  0.2472  0.3089  0.0993
   12CHTO  H224 4671   5.366   1.180   2.169  1.4683 -1.1784 -0.0069
   12CHTO   N21 4672   5.553   1.206   2.239 -0.1691 -0.7107 -0.4224
   12CHTO  H211 4673   5.608   1.282   2.293 -2.6874 -0.2911  1.6385
   12CHTO  H212 4674   5.572   1.213   2.133  1.9408  0.4197 -0.0115
   12CHTO   O75 4675   5.158   1.051   2.504 -0.3407 -0.1354  0.0262
   12CHTO  C112 4676   5.107   0.894   2.448 -0.0060 -0.1582 -0.4294
   12CHTO  H216 4677   5.172   0.860   2.366  0.3588 -0.3850 -0.0480
   12CHTO   O73 4678   4.969   0.908   2.405 -0.2303 -0.3629 -0.0730
   12CHTO  C113 4679   4.911   0.786   2.350  0.2836  0.5833 -0.4062
   12CHTO  H217 4680   4.964   0.771   2.253  0.3457  2.1048 -0.6149
   12CHTO  C124 4681   4.766   0.813   2.312 -0.2992  0.1492 -0.0148
   12CHTO   O83 4682   4.731   0.906   2.215  0.0399  0.3582 -0.0777
   12CHTO  H204 4683   4.639   0.891   2.208  0.1844 -1.1508  1.0420
   12CHTO  C109 4684   4.916   0.673   2.457  0.0471 -0.1629  0.8486
   12CHTO  H213 4685   4.860   0.710   2.543 -0.4130 -1.2116  1.0097
   12CHTO  C110 4686   5.063   0.660   2.506  0.1618  0.4643  0.0843
   12CHTO  H214 4687   5.123   0.622   2.425  0.6515 -0.6637  0.9663
   12CHTO   O78 4688   5.063   0.565   2.615  0.2044  0.0731  0.0561
   12CHTO  H200 4689   5.033   0.480   2.589  2.6669 -0.4410 -1.2389
   12CHTO  C111 4690   5.121   0.790   2.560 -0.0434 -0.0632 -0.5620
   12CHTO  H215 4691   5.071   0.826   2.650  0.4877  2.4041 -1.2318
   12CHTO   N19 4692   5.265   0.775   2.598 -0.4364  0.7351  0.3886
   12CHTO  H207 4693   5.321   0.856   2.643 -0.7411  0.7522  0.7378
   12CHTO  H208 4694   5.311   0.680   2.575 -1.1651  0.0598  1.6620
   12CHTO   O74 4695   4.866   0.548   2.410 -0.2696 -0.2321  0.0008
   12CHTO  C115 4696   4.798   0.461   2.524  0.1439  0.9792  0.2327
   12CHTO  H219 4697   4.857   0.456   2.616  0.1085 -1.2790  0.1668
   12CHTO   O76 4698   4.653   0.508   2.567 -0.3155  0.0898 -0.5941
   12CHTO  C122 4699   4.574   0.426   2.659  0.0362  0.4846  0.4703
   12CHTO  H226 4700   4.469   0.454   2.657 -0.4550 -1.3093 -1.4838
   12CHTO  C126 4701   4.623   0.456   2.800 -0.4691 -0.4191 -0.3204
   12CHTO   O85 4702   4.564   0.386   2.911 -0.3281 -0.0643  0.3480
   12CHTO  H206 4703   4.590   0.427   2.991  0.2314 -2.0239  1.2178
   12CHTO  C121 4704   4.575   0.273   2.622 -0.5357 -0.2745 -0.3115
   12CHTO  H225 4705   4.536   0.221   2.713  0.5156  1.1075  0.9596
   12CHTO   O81 4706   4.491   0.257   2.511  0.6131 -0.0681 -0.2553
   12CHTO  H202 4707   4.489   0.166   2.488  0.3142  0.2946 -1.7390
   12CHTO  C119 4708   4.726   0.231   2.589  0.3247 -0.1543 -0.3657
   12CHTO  H223 4709   4.776   0.247   2.684  0.2076 -0.7645 -0.1981
   12CHTO  C117 4710   4.798   0.311   2.479 -0.4429  0.2870  0.3226
   12CHTO  H221 4711   4.746   0.307   2.384 -2.5925  2.9584  1.3092
   12CHTO   N20 4712   4.932   0.259   2.451 -0.2172 -0.6747  0.5958
   12CHTO  H209 4713   4.929   0.203   2.359  3.3728  1.9551 -1.2629
   12CHTO  H210 4714   4.970   0.198   2.532 -3.6051 -0.0049  2.7671
   12CHTO   O80 4715   4.757   0.058   2.562  0.3353 -0.2426  0.0048
   12CHTO  C103 4716   4.648  -0.034   2.477 -0.7573  0.4235 -0.0167
   12CHTO  H190 4717   4.558   0.027   2.463 -1.0251  0.6477  2.4174
   12CHTO  C101 4718   4.701  -0.081   2.334  0.3659 -0.6135  0.0429
   12CHTO  H188 4719   4.799  -0.129   2.340  0.2201 -0.8060  0.9233
   12CHTO   O68 4720   4.694   0.035   2.247 -0.1168 -0.3640  0.0515
   12CHTO  H168 4721   4.726   0.017   2.160 -0.3472  2.7656 -0.7197
   12CHTO   C99 4722   4.606  -0.195   2.280  0.1510  0.1567  0.7019
   12CHTO  H186 4723   4.503  -0.154   2.275 -0.6952 -1.6939  2.2796
   12CHTO   N17 4724   4.636  -0.247   2.143  0.2372 -0.1513 -0.5590
   12CHTO  H174 4725   4.665  -0.163   2.083 -0.0439 -0.3517 -0.9797
   12CHTO  H175 4726   4.717  -0.316   2.126  0.5041 -0.3558  1.4410
   12CHTO   C97 4727   4.593  -0.309   2.389  0.0168 -0.0708  0.1152
   12CHTO  H184 4728   4.686  -0.365   2.406 -1.2086 -1.0465  4.3181
   12CHTO   O64 4729   4.539  -0.254   2.511  0.0825 -0.4297 -0.3101
   12CHTO  C104 4730   4.622  -0.156   2.571  0.0184  0.1060  0.4153
   12CHTO  H191 4731   4.714  -0.199   2.609  0.6738 -0.9205 -2.1968
   12CHTO  C108 4732   4.544  -0.108   2.695 -0.1460 -0.6713 -0.1587
   12CHTO   O71 4733   4.517  -0.218   2.784 -0.2649  0.0974 -0.1054
   12CHTO  H171 4734   4.516  -0.186   2.872 -1.9158  0.3898 -0.2190
   12CHTO   O62 4735   4.509  -0.420   2.342  0.0550  0.3213 -0.4144
   12CHTO   C91 4736   4.523  -0.544   2.415  0.2905  0.3179  0.6621
   12CHTO  H178 4737   4.587  -0.526   2.501  1.1331  0.2574  0.0508
   12CHTO   C92 4738   4.594  -0.644   2.320 -0.2440 -0.1387  0.1157
   12CHTO  H179 4739   4.532  -0.641   2.229 -0.1137 -0.8937 -0.0039
   12CHTO   O66 4740   4.728  -0.592   2.289 -0.2065  0.4329  0.1781
   12CHTO  H166 4741   4.795  -0.654   2.307  1.5483  2.3942  0.5686
   12CHTO   C93 4742   4.602  -0.788   2.384  0.3431  0.3340  0.2447
   12CHTO  H180 4743   4.664  -0.788   2.475 -1.2208 -1.1519  1.3354
   12CHTO   N16 4744   4.662  -0.881   2.288  0.2434 -0.1429  0.0923
   12CHTO  H172 4745   4.644  -0.873   2.181 -0.1666  1.9986  0.2890
   12CHTO  H173 4746   4.670  -0.984   2.318 -0.4979 -0.4074 -0.5878
   12CHTO   C94 4747   4.460  -0.840   2.426  0.0649  0.2451  0.3617
   12CHTO  H181 4748   4.393  -0.843   2.340  1.8790 -2.1706 -1.0261
   12CHTO   O61 4749   4.395  -0.739   2.507  0.4646  0.0523 -0.4051
   12CHTO   C95 4750   4.389  -0.602   2.466  0.3369  0.6805  0.8382
   12CHTO  H182 4751   4.321  -0.597   2.382  1.1740 -2.2979 -0.0605
   12CHTO  C106 4752   4.328  -0.507   2.568 -0.1642 -0.2565 -0.4628
   12CHTO   O69 4753   4.202  -0.558   2.602 -0.0784  0.0477  0.0863
   12CHTO  H169 4754   4.167  -0.503   2.670  1.3494  0.1510  0.7581
   12CHTO   O63 4755   4.476  -0.989   2.518  0.0202  0.0592  0.0042
   12CHTO   C96 4756   4.526  -0.984   2.678 -0.2981 -0.4404  0.8297
   12CHTO  H183 4757   4.560  -0.883   2.701  1.5601 -0.8793  0.1772
   12CHTO   C98 4758   4.640  -1.081   2.691 -0.3595 -0.3321 -0.0070
   12CHTO  H185 4759   4.612  -1.182   2.658 -3.3491  0.0608  1.1677
   12CHTO   O67 4760   4.733  -1.034   2.593 -0.3489 -0.0964  0.5812
   12CHTO  H167 4761   4.817  -1.063   2.623 -0.8986 -2.8960 -0.4292
   12CHTO  C102 4762   4.686  -1.083   2.845  0.6703 -0.0859 -0.0957
   12CHTO  H189 4763   4.717  -0.981   2.872  1.1180 -1.0447  3.1628
   12CHTO   N18 4764   4.802  -1.169   2.866 -0.1627  0.3378 -0.6358
   12CHTO  H176 4765   4.778  -1.262   2.917  2.6991 -0.6238 -0.9999
   12CHTO  H177 4766   4.868  -1.109   2.926  0.3920  0.3823 -1.2909
   12CHTO  C105 4767   4.567  -1.112   2.942  0.5053 -0.1609 -0.3974
   12CHTO  H192 4768   4.538  -1.216   2.927  1.5316 -0.4021 -0.7840
   12CHTO   O65 4769   4.453  -1.034   2.905 -0.4772 -0.1684  0.1365
   12CHTO  C100 4770   4.405  -1.028   2.775 -0.1745 -0.3065  0.4046
   12CHTO  H187 4771   4.378  -1.132   2.751  0.9945 -0.7769  1.0821
   12CHTO  C107 4772   4.284  -0.941   2.784  0.1358  0.4189  0.6344
   12CHTO   O70 4773   4.300  -0.802   2.818 -0.1152 -0.4871 -0.5232
   12CHTO  H170 4774   4.391  -0.790   2.839 -0.0593 -0.5013 -0.7521
   12CHTO   O57 4775   4.616  -1.093   3.080 -0.0730 -0.4389 -0.6069
   12CHTO   C85 4776   4.572  -1.167   3.195 -0.5537  0.0078 -0.0943
   12CHTO  H157 4777   4.494  -1.234   3.155  0.2176 -1.6426  1.1064
   12CHTO   C83 4778   4.510  -1.068   3.293  0.1369 -0.6300 -0.2157
   12CHTO  H155 4779   4.434  -1.005   3.247 -0.5171 -0.8017  0.6354
   12CHTO   O56 4780   4.598  -0.968   3.347  0.4281  0.0250  0.2500
   12CHTO  H135 4781   4.556  -0.889   3.377  2.4705  1.0139  0.6226
   12CHTO   C81 4782   4.446  -1.146   3.410 -0.1083 -0.3942 -0.2167
   12CHTO  H153 4783   4.377  -1.219   3.368 -0.9795  1.0001 -1.2743
   12CHTO   N14 4784   4.349  -1.069   3.490 -0.2949  0.0298 -0.4046
   12CHTO  H141 4785   4.379  -0.991   3.557 -0.9945 -0.3445  0.3556
   12CHTO  H142 4786   4.280  -1.138   3.534 -0.9511  0.0412 -1.3979
   12CHTO   C79 4787   4.555  -1.222   3.494  0.1656  0.2558  0.7139
   12CHTO  H151 4788   4.500  -1.292   3.557  0.0623 -1.0783 -0.8326
   12CHTO   O52 4789   4.627  -1.304   3.403  0.0536  0.5244  0.1617
   12CHTO   C86 4790   4.684  -1.244   3.275 -0.3045  0.4588  0.3029
   12CHTO  H158 4791   4.766  -1.182   3.316 -2.0470  2.0550  1.4738
   12CHTO   C90 4792   4.744  -1.359   3.195  0.2838 -0.7627 -0.2930
   12CHTO   O60 4793   4.826  -1.435   3.283 -0.5613  0.3969 -1.3117
   12CHTO  H138 4794   4.916  -1.418   3.260 -0.0686  0.9694  0.8670
   12CHTO   O50 4795   4.651  -1.140   3.561 -0.3777 -0.0092 -1.0077
   12CHTO   C73 4796   4.737  -1.131   3.676  0.5264  0.2867 -0.0678
   12CHTO  H145 4797   4.683  -1.170   3.764 -0.5455 -2.5829 -1.9076
   12CHTO   C74 4798   4.775  -0.981   3.710  0.2988 -0.2982 -0.1752
   12CHTO  H146 4799   4.686  -0.919   3.726  1.9454  1.8664  0.8379
   12CHTO   O54 4800   4.840  -0.991   3.831  0.1250 -0.3269  0.0891
   12CHTO  H133 4801   4.901  -0.920   3.830 -0.1146 -0.1122  0.4718
   12CHTO   C75 4802   4.866  -0.928   3.584  0.1395 -0.1365  0.4555
   12CHTO  H147 4803   4.804  -0.931   3.492 -1.2494 -1.5574  1.4212
   12CHTO   N13 4804   4.907  -0.786   3.608 -0.1877  0.4530  0.0498
   12CHTO  H139 4805   4.836  -0.706   3.591 -1.3176 -0.5771 -0.1527
   12CHTO  H140 4806   4.948  -0.784   3.708  0.0516  0.0697 -0.0382
   12CHTO   C76 4807   4.985  -1.031   3.549  0.3238 -0.2892  0.4650
   12CHTO  H148 4808   5.057  -1.033   3.631 -0.4281  1.6194  1.1976
   12CHTO   O49 4809   4.942  -1.175   3.536 -0.6187  0.3329  0.0801
   12CHTO   C77 4810   4.868  -1.212   3.654 -0.6523 -0.1544 -0.3204
   12CHTO  H149 4811   4.933  -1.203   3.741  0.9645 -0.5062 -1.4834
   12CHTO   C88 4812   4.830  -1.364   3.648  0.1186 -0.3512 -1.0181
   12CHTO   O58 4813   4.964  -1.453   3.655  0.0106 -0.0788 -0.3160
   12CHTO  H136 4814   4.980  -1.462   3.747 -1.9318  0.5335  0.0912
   12CHTO   O51 4815   5.054  -0.994   3.417  0.1655  0.6313  0.3641
   12CHTO   C78 4816   5.204  -1.058   3.399 -0.1401 -0.1451  0.0826
   12CHTO  H150 4817   5.215  -1.153   3.455 -1.9480 -0.6488 -0.4094
   12CHTO   C80 4818   5.314  -0.965   3.462  0.8668  0.1285  0.6831
   12CHTO  H152 4819   5.296  -0.862   3.427  0.5662  0.4706  1.8368
   12CHTO   O55 4820   5.295  -0.957   3.601  0.1594 -0.2429 -0.2390
   12CHTO  H134 4821   5.371  -0.982   3.650 -0.4952 -1.9746 -0.0417
   12CHTO   C84 4822   5.460  -1.004   3.415 -0.1338 -0.3955 -0.5687
   12CHTO  H156 4823   5.491  -1.096   3.465 -0.0472  1.1841  2.3971
   12CHTO   N15 4824   5.558  -0.894   3.452 -0.1194  1.2102  0.0847
   12CHTO  H143 4825   5.567  -0.899   3.559 -1.0899 -1.4952  0.0773
   12CHTO  H144 4826   5.508  -0.802   3.431 -0.5662  0.3878 -2.5896
   12CHTO   C87 4827   5.470  -1.041   3.265  0.6756 -0.0821 -0.9243
   12CHTO  H159 4828   5.467  -0.954   3.199  0.0816  1.1060  0.6504
   12CHTO   O53 4829   5.362  -1.136   3.231 -0.2074  0.3669 -0.0728
   12CHTO   C82 4830   5.231  -1.070   3.243  0.3949  0.1448  0.0628
   12CHTO  H154 4831   5.241  -0.970   3.201  0.3101  1.0427  2.1182
   12CHTO   C89 4832   5.127  -1.147   3.156 -0.3426  0.2408 -0.4783
   12CHTO   O59 4833   5.158  -1.150   3.015  0.3603 -0.1267  0.1541
   12CHTO  H137 4834   5.241  -1.194   3.011  0.9634  0.7860  2.1922
   12CHTO   O45 4835   5.619  -1.136   3.247 -0.1021 -0.7106  0.7638
   12CHTO   C67 4836   5.691  -1.117   3.120 -0.2078 -0.1742  0.2192
   12CHTO  H124 4837   5.790  -1.164   3.120 -0.1638 -0.1211  2.2481
   12CHTO   C65 4838   5.616  -1.175   2.993 -0.2691 -0.0112 -0.4021
   12CHTO  H122 4839   5.526  -1.210   3.045 -0.4153  0.5349 -0.2797
   12CHTO   O44 4840   5.683  -1.284   2.927 -0.4606 -0.4792  0.2329
   12CHTO  H102 4841   5.699  -1.353   2.988  0.0731  0.0333  0.6858
   12CHTO   C63 4842   5.562  -1.059   2.902  0.3543 -0.3599 -0.3377
   12CHTO  H120 4843   5.501  -0.996   2.967 -0.2202 -2.6150  1.3840
   12CHTO   N11 4844   5.457  -1.093   2.801 -0.5283 -0.0802  0.0753
   12CHTO  H108 4845   5.477  -1.050   2.705  0.3969 -0.2635  0.1812
   12CHTO  H109 4846   5.439  -1.198   2.793 -1.5147  0.2333 -2.5172
   12CHTO   C61 4847   5.689  -0.977   2.856 -0.2361 -0.7683 -0.5354
   12CHTO  H118 4848   5.670  -0.882   2.802 -1.2527 -0.7436 -0.1423
   12CHTO   O40 4849   5.777  -0.949   2.961  0.4973  0.2342  0.1084
   12CHTO   C68 4850   5.729  -0.968   3.096 -0.0236  0.7338  0.4353
   12CHTO  H125 4851   5.645  -0.895   3.097 -0.5825  0.0979  0.5388
   12CHTO   C72 4852   5.835  -0.914   3.197 -0.2445 -0.2731 -0.5953
   12CHTO   O48 4853   5.943  -1.004   3.224  0.5822 -0.4205  0.5311
   12CHTO  H105 4854   5.974  -0.992   3.312  0.8696 -1.9461  0.6436
   12CHTO   O38 4855   5.764  -1.066   2.769  0.6319 -0.0904  0.8568
   12CHTO   C55 4856   5.891  -1.002   2.719  0.0217  0.2289 -0.0794
   12CHTO  H112 4857   5.911  -0.906   2.769  1.6759  0.7908 -1.7621
   12CHTO   C56 4858   5.894  -0.980   2.559  0.6734  0.6300  0.6291
   12CHTO  H113 4859   5.889  -1.082   2.517  0.0193  0.6210  0.7133
   12CHTO   O42 4860   5.778  -0.907   2.511  0.3387 -0.5014  0.2150
   12CHTO  H100 4861   5.778  -0.903   2.418 -0.5188 -0.3232  0.2161
   12CHTO   C57 4862   6.031  -0.919   2.518 -0.8934 -0.1689  0.7024
   12CHTO  H114 4863   6.027  -0.815   2.548 -1.1817 -0.3200  1.1903
   12CHTO   N10 4864   6.056  -0.916   2.369 -1.0262 -0.0039  0.3703
   12CHTO  H106 4865   6.080  -1.013   2.328 -1.1109  0.4419 -0.7693
   12CHTO  H107 4866   6.120  -0.840   2.327  0.0103 -0.9913  0.1301
   12CHTO   C58 4867   6.147  -1.000   2.585 -0.5420  0.1574 -0.0573
   12CHTO  H115 4868   6.155  -1.101   2.539 -1.7194 -1.1373  2.4793
   12CHTO   O37 4869   6.132  -1.017   2.726 -0.0940  0.0163 -0.2117
   12CHTO   C59 4870   6.010  -1.096   2.749  0.7585 -0.2060  0.2194
   12CHTO  H116 4871   6.013  -1.182   2.681 -0.7371  0.6380 -0.9424
   12CHTO   C70 4872   6.013  -1.142   2.895  0.5074  0.2734  0.1517
   12CHTO   O46 4873   5.973  -1.276   2.901 -0.1606  0.2532  0.2476
   12CHTO  H103 4874   5.936  -1.303   2.982  0.2734 -0.4406  0.2134
   12CHTO   O39 4875   6.281  -0.924   2.562 -0.3994  0.1458 -0.1683
   12CHTO   C60 4876   6.396  -1.008   2.563 -0.4013  0.1434  0.0526
   12CHTO  H117 4877   6.378  -1.091   2.631  0.9028  0.2388  0.5165
   12CHTO   C62 4878   6.416  -1.063   2.414 -0.0094  0.1962  0.4470
   12CHTO  H119 4879   6.323  -1.117   2.387  0.0743 -0.2033  0.9634
   12CHTO   O43 4880   6.428  -0.949   2.327  0.0379  0.2947 -0.5185
   12CHTO  H101 4881   6.347  -0.907   2.305 -0.2181  0.2055  0.2552
   12CHTO   C66 4882   6.545  -1.160   2.407 -0.0150  0.2484 -0.6884
   12CHTO  H123 4883   6.526  -1.244   2.474 -1.4119  1.1019 -0.0010
   12CHTO   N12 4884   6.564  -1.221   2.270  0.2278  0.0700 -0.0485
   12CHTO  H110 4885   6.512  -1.166   2.193 -0.0404  0.4425  0.3987
   12CHTO  H111 4886   6.520  -1.317   2.291  0.3710 -0.3390 -1.5289
   12CHTO   C69 4887   6.665  -1.088   2.461 -0.6052  0.6901  0.0468
   12CHTO  H126 4888   6.700  -1.006   2.395  0.0370  0.4120  0.0449
   12CHTO   O41 4889   6.625  -1.034   2.611 -0.0236  0.0626  0.5605
   12CHTO   C64 4890   6.523  -0.938   2.612 -0.2483  0.0122 -1.0186
   12CHTO  H121 4891   6.545  -0.850   2.548  2.1808  0.1027 -0.1091
   12CHTO   C71 4892   6.497  -0.900   2.759  0.6153  0.3330 -0.4507
   12CHTO   O47 4893   6.619  -0.849   2.818  0.3396 -0.5339  0.5706
   12CHTO  H104 4894   6.587  -0.800   2.891 -0.7587 -0.8060  0.2943
   12CHTO   O34 4895   6.776  -1.191   2.487  0.6077  0.0302 -0.3015
   12CHTO   C49 4896   6.929  -1.173   2.519  0.0045  0.1929 -0.4693
   12CHTO   H91 4897   6.974  -1.114   2.439 -0.2559  0.1949 -0.6128
   12CHTO   C47 4898   6.986  -1.315   2.518  0.6531  0.5525 -0.2936
   12CHTO   H89 4899   7.096  -1.306   2.523  0.6937  0.4696 -1.0212
   12CHTO   O33 4900   6.947  -1.395   2.404 -0.4987 -0.1736 -0.2056
   12CHTO   H70 4901   6.967  -1.487   2.411 -0.2013  0.0423  2.3113
   12CHTO   C45 4902   6.939  -1.404   2.651  1.0479  0.2761 -0.0352
   12CHTO   H87 4903   6.853  -1.470   2.630  0.3583  1.1196  0.0932
   12CHTO    N8 4904   7.054  -1.493   2.692 -0.0858  0.3163 -0.0589
   12CHTO   H75 4905   7.019  -1.552   2.776 -0.7030 -1.3218 -1.4291
   12CHTO   H76 4906   7.069  -1.564   2.612 -0.3016 -2.6805  2.4492
   12CHTO   C43 4907   6.886  -1.306   2.765  0.0879  0.3946  0.1406
   12CHTO   H85 4908   6.783  -1.286   2.736  0.3368  0.3514 -0.8061
   12CHTO   O29 4909   6.965  -1.182   2.772  0.2583  0.3651 -0.4143
   12CHTO   C50 4910   6.960  -1.105   2.655 -0.2196 -0.0364 -0.2682
   12CHTO   H92 4911   6.879  -1.036   2.683 -0.8172 -0.8140 -0.0396
   12CHTO   C54 4912   7.075  -1.010   2.655  0.1602  0.4234  0.0299
   12CHTO   O36 4913   7.088  -0.930   2.765 -0.1767  0.4163 -0.4196
   12CHTO   H72 4914   7.155  -0.867   2.746 -0.8533  0.6838 -1.9743
   12CHTO   O27 4915   6.876  -1.369   2.895 -0.3578  0.3157 -0.2940
   12CHTO   C37 4916   6.790  -1.342   3.006 -0.5022 -0.2069 -0.3376
   12CHTO   H79 4917   6.854  -1.308   3.089 -1.5893  0.7892  0.1151
   12CHTO   C38 4918   6.686  -1.229   2.979  0.4292 -0.3620 -0.0271
   12CHTO   H80 4919   6.633  -1.255   2.887 -1.4915  0.7010  0.7531
   12CHTO   O31 4920   6.753  -1.105   2.953  0.4026 -0.4757 -0.0303
   12CHTO   H68 4921   6.701  -1.049   2.899 -1.2797 -3.5888 -1.7887
   12CHTO   C39 4922   6.593  -1.208   3.110  0.7552  0.0768 -0.0607
   12CHTO   H81 4923   6.649  -1.179   3.199 -0.6338  2.5521  0.0475
   12CHTO    N7 4924   6.492  -1.100   3.091 -0.0812  1.1101 -0.3415
   12CHTO   H73 4925   6.412  -1.130   3.025 -0.0710  0.4577 -0.0531
   12CHTO   H74 4926   6.537  -1.003   3.071  0.4343  0.8687 -0.3613
   12CHTO   C40 4927   6.528  -1.351   3.132 -0.2997  0.1824 -0.1985
   12CHTO   H82 4928   6.466  -1.376   3.046  0.3482  0.7961 -0.8561
   12CHTO   O26 4929   6.630  -1.450   3.157 -0.0851  0.4589  0.0979
   12CHTO   C41 4930   6.726  -1.474   3.048  0.2931 -0.4147  0.3976
   12CHTO   H83 4931   6.667  -1.516   2.965  1.3557  2.4529 -1.8719
   12CHTO   C52 4932   6.841  -1.567   3.097 -0.5986  0.7338  0.1624
   12CHTO   O35 4933   6.787  -1.701   3.107  0.0096 -0.4518 -0.0845
   12CHTO   H71 4934   6.855  -1.748   3.150  1.1896  0.6838 -0.6784
   12CHTO   O28 4935   6.444  -1.354   3.252 -0.1470  0.1088 -0.3888
   12CHTO   C42 4936   6.334  -1.453   3.271  0.4801 -0.4732  0.0131
   12CHTO   H84 4937   6.337  -1.479   3.377 -0.7566  1.3324  0.5118
   12CHTO   C44 4938   6.345  -1.582   3.194 -0.7408 -0.0808 -0.3425
   12CHTO   H86 4939   6.350  -1.559   3.088 -0.1041 -0.0673 -0.3111
   12CHTO   O32 4940   6.469  -1.636   3.234 -0.1476  0.6266  0.0322
   12CHTO   H69 4941   6.501  -1.701   3.174 -2.9964  0.5911 -1.4956
   12CHTO   C48 4942   6.225  -1.680   3.217  0.0539 -0.2567 -0.3280
   12CHTO   H90 4943   6.239  -1.718   3.318  1.2703  0.2419 -0.3004
   12CHTO    N9 4944   6.224  -1.794   3.116  0.4281 -0.1538 -0.8575
   12CHTO   H77 4945   6.123  -1.831   3.105 -0.7027  3.0234 -1.8994
   12CHTO   H78 4946   6.256  -1.762   3.018  1.0549 -1.5780 -1.1236
   12CHTO   C51 4947   6.092  -1.596   3.206 -0.3971 -0.3721  0.1527
   12CHTO   H93 4948   6.061  -1.580   3.103  1.0334 -3.1127 -0.7450
   12CHTO   O30 4949   6.091  -1.475   3.285  0.2442 -0.1888 -0.3984
   12CHTO   C46 4950   6.201  -1.381   3.251  0.1984 -0.0966  0.2772
   12CHTO   H88 4951   6.197  -1.356   3.145  1.4591 -1.6277 -0.1631
   12CHTO   C53 4952   6.179  -1.256   3.344  0.3562 -0.2843 -0.1880
   12CHTO   O72 4953   6.149  -1.283   3.481  0.1227  0.0611  0.1089
   12CHTO  H199 4954   6.208  -1.348   3.514 -0.4149 -0.0427  0.8535
   12CHTO   O22 4955   5.988  -1.668   3.264 -0.1424 -0.4971 -0.0483
   12CHTO   C31 4956   5.841  -1.633   3.258 -0.6543 -0.0998 -0.7124
   12CHTO   H59 4957   5.785  -1.716   3.306 -3.2002  0.7902 -2.0733
   12CHTO   C29 4958   5.793  -1.505   3.336 -0.1540 -0.0956  0.1534
   12CHTO   H57 4959   5.824  -1.413   3.283 -1.0948  0.6767  0.9308
   12CHTO   O21 4960   5.860  -1.504   3.458 -0.1460 -0.2996 -0.0676
   12CHTO   H37 4961   5.949  -1.476   3.445  0.2774 -1.0706  1.1724
   12CHTO   C27 4962   5.635  -1.514   3.353  0.1374  0.3085 -0.4020
   12CHTO   H55 4963   5.607  -1.611   3.394  1.3469  0.5867  1.1191
   12CHTO    N5 4964   5.565  -1.414   3.437  0.2057  0.3676  0.2399
   12CHTO   H43 4965   5.463  -1.440   3.458  0.5999  0.9621  3.2565
   12CHTO   H44 4966   5.588  -1.315   3.400  1.5376  0.7161  1.8957
   12CHTO   C25 4967   5.585  -1.500   3.201 -0.3975  0.1701 -0.1708
   12CHTO   H53 4968   5.601  -1.397   3.166  0.6414  0.5546  1.3753
   12CHTO   O17 4969   5.645  -1.596   3.105 -0.1454  0.4801  0.3971
   12CHTO   C32 4970   5.788  -1.623   3.110 -0.0827 -0.2422 -0.2685
   12CHTO   H60 4971   5.832  -1.531   3.071 -0.0019  0.6432  1.8937
   12CHTO   C36 4972   5.833  -1.749   3.033  0.5258 -0.1960  0.1389
   12CHTO   O25 4973   5.796  -1.732   2.891  0.0341  0.5934  0.6480
   12CHTO   H40 4974   5.707  -1.756   2.878 -0.2336  0.4271  2.6051
   12CHTO   O15 4975   5.434  -1.528   3.199  0.5146  0.5980 -0.0375
   12CHTO   C19 4976   5.328  -1.485   3.112  0.4246  0.6887  0.4725
   12CHTO   H47 4977   5.316  -1.379   3.137 -1.2286  0.6028  0.1417
   12CHTO   C20 4978   5.350  -1.522   2.964  0.4934 -0.4710 -0.0198
   12CHTO   H48 4979   5.380  -1.627   2.956  0.4454 -0.5669  0.9707
   12CHTO   O19 4980   5.459  -1.439   2.915  0.1132 -0.3271 -0.3636
   12CHTO   H35 4981   5.532  -1.448   2.973 -2.0491 -0.2571  2.4623
   12CHTO   C21 4982   5.225  -1.498   2.876  0.0704  0.9034 -0.4436
   12CHTO   H49 4983   5.200  -1.392   2.873  0.9984  1.1792  1.1242
   12CHTO    N4 4984   5.235  -1.527   2.733  0.5933  0.3327  0.5774
   12CHTO   H41 4985   5.245  -1.633   2.714  0.1206  0.5483 -0.8902
   12CHTO   H42 4986   5.315  -1.472   2.685  0.0144  0.8955  0.2591
   12CHTO   C22 4987   5.095  -1.551   2.938 -0.1191  0.0815 -0.0429
   12CHTO   H50 4988   5.087  -1.659   2.939  1.8707 -0.1049 -0.9618
   12CHTO   O14 4989   5.093  -1.496   3.075 -0.3309 -0.3669 -0.0902
   12CHTO   C23 4990   5.196  -1.553   3.153  0.4610  0.1658  0.0741
   12CHTO   H51 4991   5.201  -1.662   3.136 -0.6588  0.0926  0.1314
   12CHTO   C34 4992   5.162  -1.542   3.302  0.2800  0.6200 -0.0493
   12CHTO   O23 4993   5.154  -1.403   3.335 -0.3030  0.6989 -0.0869
   12CHTO   H38 4994   5.098  -1.382   3.407  1.3538 -0.1375  1.4765
   12CHTO   O16 4995   4.969  -1.501   2.897  0.0225 -0.0440 -0.4099
   12CHTO   C24 4996   4.885  -1.592   2.801 -0.9362 -0.1778 -0.1752
   12CHTO   H52 4997   4.941  -1.677   2.761  0.2176  0.2290  0.5605
   12CHTO   C26 4998   4.826  -1.511   2.689 -0.0224 -0.6676  0.5151
   12CHTO   H54 4999   4.756  -1.440   2.738 -0.0529  0.4680 -1.1500
   12CHTO   O20 5000   4.928  -1.442   2.626  0.1261  0.4363  0.8315
   12CHTO   H36 5001   4.889  -1.390   2.559  2.2876  0.5465 -0.3526
   12CHTO   C30 5002   4.743  -1.600   2.588  0.5104 -0.0770 -0.1249
   12CHTO   H58 5003   4.803  -1.678   2.540  0.1655  0.8384 -2.0711
   12CHTO    N6 5004   4.674  -1.529   2.470 -0.1743 -0.2410 -0.4015
   12CHTO   H45 5005   4.740  -1.454   2.429 -1.2251 -0.3487 -2.3715
   12CHTO   H46 5006   4.588  -1.477   2.508  0.0881 -1.0993  1.4127
   12CHTO   C33 5007   4.644  -1.682   2.674  0.0354 -0.7769  0.2672
   12CHTO   H61 5008   4.560  -1.618   2.707  0.0734 -0.7013  0.2166
   12CHTO   O18 5009   4.699  -1.738   2.794 -0.1595 -0.0529 -0.4976
   12CHTO   C28 5010   4.769  -1.653   2.882  0.3542  0.3552  0.4688
   12CHTO   H56 5011   4.709  -1.567   2.910  1.3529  1.6528 -1.2016
   12CHTO   C35 5012   4.811  -1.747   3.000 -0.1162 -0.0887 -0.1768
   12CHTO   O24 5013   4.892  -1.701   3.105 -0.0799 -0.1886 -0.1675
   12CHTO   H39 5014   4.846  -1.634   3.151 -0.2113 -0.0009 -0.5705
   12CHTO    O9 5015   4.565  -1.784   2.601 -0.0249  0.3195  0.1816
   12CHTO   C13 5016   4.634  -1.926   2.585 -0.3585  0.1125  1.0573
   12CHTO   H26 5017   4.743  -1.911   2.579 -0.2777 -0.6954  0.4933
   12CHTO   C11 5018   4.580  -1.999   2.460 -0.1487  0.1089 -0.0337
   12CHTO   H24 5019   4.610  -1.942   2.371 -1.1919  0.4683 -0.1571
   12CHTO    O8 5020   4.439  -1.998   2.468 -0.2669 -0.0487  0.0401
   12CHTO    H3 5021   4.415  -2.060   2.535 -0.0371  0.3328  0.4789
   12CHTO    C9 5022   4.656  -2.137   2.450 -0.1138 -0.1338  0.4283
   12CHTO   H22 5023   4.764  -2.115   2.454 -0.1535  0.1414  0.0121
   12CHTO    N2 5024   4.640  -2.201   2.315 -0.0448  0.3508 -0.2838
   12CHTO   H10 5025   4.657  -2.134   2.233 -1.7227 -0.1160 -1.0344
   12CHTO   H11 5026   4.693  -2.295   2.322 -0.4623  0.1216 -0.1569
   12CHTO    C7 5027   4.614  -2.226   2.570 -0.4636  0.4775  0.2084
   12CHTO   H20 5028   4.661  -2.326   2.556 -0.4320  0.7831 -1.9607
   12CHTO    O4 5029   4.656  -2.165   2.688  0.2197  0.2084  0.2151
   12CHTO   C14 5030   4.622  -2.028   2.718  0.1508 -0.4064  0.2092
   12CHTO   H27 5031   4.702  -1.991   2.786  1.0028  0.1355 -1.0691
   12CHTO   C18 5032   4.488  -1.997   2.788  0.0989 -0.7096  0.2623
   12CHTO   O13 5033   4.484  -2.056   2.919 -0.3685 -0.0927  0.5199
   12CHTO    H7 5034   4.561  -2.041   2.969 -0.6149 -0.4005  1.0022
   12CHTO    O2 5035   4.440  -2.250   2.584 -0.2267 -0.1219  0.2987
   12CHTO    C1 5036   4.405  -2.391   2.601 -0.9017 -0.1759  0.5814
   12CHTO   H14 5037   4.497  -2.452   2.605 -1.9608 -1.9568 -1.3949
   12CHTO    C2 5038   4.317  -2.436   2.477 -0.5232  0.3303 -0.2881
   12CHTO   H15 5039   4.246  -2.354   2.458 -2.0326 -0.8211  0.3844
   12CHTO    O6 5040   4.401  -2.445   2.357  0.6081  0.6098 -0.7561
   12CHTO    H1 5041   4.356  -2.477   2.280 -0.9169  2.2123 -0.5695
   12CHTO    C3 5042   4.238  -2.571   2.514 -0.8269  0.2739 -0.6125
   12CHTO   H16 5043   4.304  -2.659   2.520 -1.9416 -0.4391  1.6119
   12CHTO    N1 5044   4.138  -2.611   2.398  0.2791  0.0621  0.2055
   12CHTO    H8 5045   4.051  -2.547   2.388 -0.7801 -1.6484 -1.9445
   12CHTO    H9 5046   4.183  -2.627   2.302  0.2757  1.3868 -0.0208
   12CHTO    C4 5047   4.170  -2.559   2.651  0.6554  0.4447  0.1776
   12CHTO   H17 5048   4.108  -2.470   2.651 -0.4962 -0.3456  1.1955
   12CHTO    O1 5049   4.275  -2.538   2.750  0.2055 -0.1824  0.0401
   12CHTO    C5 5050   4.330  -2.405   2.736 -0.3772  0.1321 -0.0435
   12CHTO   H18 5051   4.251  -2.331   2.734 -1.9900 -1.5439  0.0615
   12CHTO   C16 5052   4.422  -2.380   2.860  0.2753 -0.2887 -0.0109
   12CHTO   O11 5053   4.543  -2.457   2.850  0.3581 -0.2854 -0.0152
   12CHTO    H5 5054   4.546  -2.523   2.916 -0.0415 -0.9923 -0.7086
   12CHTO    O3 5055   4.116  -2.682   2.697 -0.3022 -0.3234  0.2088
   12CHTO    C6 5056   3.994  -2.684   2.778  0.5092 -0.4349  0.2759
   12CHTO   H19 5057   3.966  -2.597   2.838  2.1056 -0.4284  1.0318
   12CHTO    C8 5058   3.876  -2.701   2.674 -0.3343  0.3489  0.2798
   12CHTO   H21 5059   3.900  -2.790   2.616  1.5961  1.0580 -0.0278
   12CHTO    O7 5060   3.874  -2.582   2.591 -0.0159  0.8199  0.5698
   12CHTO    H2 5061   3.871  -2.510   2.651  1.0291 -0.3417  2.0519
   12CHTO   C12 5062   3.740  -2.726   2.744 -0.0401  0.3670 -0.2413
   12CHTO   H25 5063   3.723  -2.631   2.799  0.6166 -0.0767  0.7500
   12CHTO    N3 5064   3.629  -2.753   2.652 -0.1394  0.2800 -0.6918
   12CHTO   H12 5065   3.608  -2.859   2.655 -2.0137  0.6273 -0.8859
   12CHTO   H13 5066   3.654  -2.732   2.549  0.5675 -1.7133 -0.9447
   12CHTO   C15 5067   3.754  -2.840   2.851 -0.1432 -0.4705 -0.0545
   12CHTO   H28 5068   3.760  -2.939   2.807 -1.2844 -0.4225 -0.3339
   12CHTO   O10 5069   3.618  -2.830   2.964 -0.5832  0.0793  0.2199
   12CHTO    H4 5070   3.623  -2.912   3.010  2.4768 -0.1152 -0.3501
   12CHTO    O5 5071   3.865  -2.819   2.945 -0.3251 -0.2987  0.4553
   12CHTO   C10 5072   3.992  -2.804   2.873 -0.4088  0.3085  0.3373
   12CHTO   H23 5073   4.017  -2.893   2.815  0.5274  0.1965  0.9063
   12CHTO   C17 5074   4.102  -2.790   2.977  0.4287  0.1816  1.0757
   12CHTO   O12 5075   4.105  -2.893   3.072 -0.2509 -0.3238  0.0670
   12CHTO    H6 5076   4.181  -2.895   3.127 -0.9259  0.9271  1.0702
   13CHTO  H203 5077   8.404   3.936   1.807 -0.2073 -0.4510 -0.3811
   13CHTO   O82 5078   8.311   3.946   1.820 -0.0665  0.3103  0.0818
   13CHTO  C123 5079   8.252   4.012   1.708  0.1039 -0.1021 -0.1393
   13CHTO  H227 5080   8.280   3.954   1.619  1.1655 -0.0800  0.1631
   13CHTO   O77 5081   8.108   3.999   1.727 -0.4614 -0.0452 -0.5911
   13CHTO  C118 5082   8.020   4.065   1.630 -0.3079 -0.0004 -0.4069
   13CHTO  H222 5083   8.040   4.023   1.531  0.8535  0.9307 -0.5770
   13CHTO  C125 5084   7.872   4.034   1.675 -0.2043 -0.4622  0.7857
   13CHTO   O84 5085   7.826   4.089   1.799  0.2597  0.1971 -0.4394
   13CHTO  H205 5086   7.741   4.127   1.782 -0.5034 -1.7607 -1.1304
   13CHTO  C114 5087   8.053   4.214   1.634  0.3048 -0.2532 -0.4288
   13CHTO  H218 5088   8.029   4.256   1.732 -0.9260 -0.0769 -0.7972
   13CHTO  C116 5089   8.207   4.241   1.597  0.4619  0.0389 -0.4958
   13CHTO  H220 5090   8.218   4.208   1.492 -0.7320 -1.1588 -0.2523
   13CHTO   O79 5091   8.236   4.380   1.596  0.2365 -0.0290 -0.5100
   13CHTO  H201 5092   8.319   4.397   1.555 -1.1547  0.4359 -3.2459
   13CHTO  C120 5093   8.296   4.166   1.695 -0.2091 -0.4837  0.0147
   13CHTO  H224 5094   8.289   4.211   1.796 -1.8278  0.2933 -0.4228
   13CHTO   N21 5095   8.437   4.174   1.647 -0.2888  0.4527  0.0978
   13CHTO  H211 5096   8.456   4.274   1.612 -2.6603  1.5393  1.7677
   13CHTO  H212 5097   8.511   4.146   1.721  1.5418  2.3660 -0.9500
   13CHTO   O75 5098   7.969   4.278   1.541 -0.0859 -0.1220  0.4419
   13CHTO  C112 5099   7.909   4.420   1.592  0.4569  1.1778 -0.0900
   13CHTO  H216 5100   7.981   4.460   1.665  0.6517  1.3666 -0.3869
   13CHTO   O73 5101   7.777   4.392   1.653 -0.7488 -0.6141  0.0746
   13CHTO  C113 5102   7.720   4.510   1.712  0.2098 -0.5461  0.3495
   13CHTO  H217 5103   7.796   4.552   1.782 -0.1593 -0.3028  0.6000
   13CHTO  C124 5104   7.596   4.470   1.790 -0.0050 -0.4434 -0.7109
   13CHTO   O83 5105   7.644   4.389   1.901 -0.3617 -0.5295  0.1846
   13CHTO  H204 5106   7.605   4.422   1.979 -1.4931 -2.1366  0.3382
   13CHTO  C109 5107   7.687   4.620   1.607 -0.1609  0.7575 -0.0684
   13CHTO  H213 5108   7.618   4.577   1.534 -1.2505  0.2214  1.2499
   13CHTO  C110 5109   7.816   4.659   1.530 -0.5287 -0.1886  0.4685
   13CHTO  H214 5110   7.883   4.715   1.595  0.7595 -0.3881 -0.6767
   13CHTO   O78 5111   7.781   4.749   1.423  0.4384  0.1633  0.2727
   13CHTO  H200 5112   7.848   4.815   1.421  0.5977  0.1264  2.5610
   13CHTO  C111 5113   7.888   4.532   1.477  0.2688  0.1549 -0.0270
   13CHTO  H215 5114   7.822   4.479   1.406  0.6040 -2.2176  1.3625
   13CHTO   N19 5115   8.010   4.557   1.405  0.3904 -0.3947  0.0920
   13CHTO  H207 5116   8.091   4.577   1.473  1.7914 -2.7595 -0.8103
   13CHTO  H208 5117   7.997   4.637   1.332  0.5883  1.3050  1.8762
   13CHTO   O74 5118   7.615   4.737   1.663 -0.4853 -0.0476  0.1656
   13CHTO  C115 5119   7.506   4.824   1.573 -0.2945 -0.0478 -0.2889
   13CHTO  H219 5120   7.557   4.896   1.509 -1.1137  0.0645 -0.8219
   13CHTO   O76 5121   7.413   4.727   1.473 -0.7563 -0.4493 -0.3441
   13CHTO  C122 5122   7.318   4.652   1.548 -0.1335 -0.8031 -0.1862
   13CHTO  H226 5123   7.374   4.566   1.584 -0.5624 -0.2170  1.9074
   13CHTO  C126 5124   7.218   4.595   1.443  0.1845  0.4346  0.0049
   13CHTO   O85 5125   7.138   4.700   1.381  0.2548 -0.1226  0.1033
   13CHTO  H206 5126   7.082   4.741   1.443  2.1788 -0.3536  2.0609
   13CHTO  C121 5127   7.246   4.724   1.672  0.5109 -0.3228  0.2346
   13CHTO  H225 5128   7.137   4.702   1.681  0.1938  0.2814 -1.8011
   13CHTO   O81 5129   7.294   4.671   1.796 -0.8331  0.0086  0.6388
   13CHTO  H202 5130   7.267   4.583   1.812 -0.0441 -0.1384  1.1859
   13CHTO  C119 5131   7.268   4.881   1.661  0.1533  0.2195  0.1216
   13CHTO  H223 5132   7.239   4.921   1.564 -0.5673  0.2269  0.3332
   13CHTO  C117 5133   7.419   4.911   1.679 -0.9475  0.0906 -0.8042
   13CHTO  H221 5134   7.460   4.869   1.772 -0.8705 -1.0125 -1.3270
   13CHTO   N20 5135   7.458   5.059   1.683 -0.6576  0.4774 -0.0680
   13CHTO  H209 5136   7.461   5.101   1.783  1.8183  2.6498 -1.0047
   13CHTO  H210 5137   7.539   5.098   1.623  0.0909  1.4194  1.5256
   13CHTO   O80 5138   7.173   4.961   1.764  0.1534 -0.1797  0.3820
   13CHTO  C103 5139   7.015   5.018   1.715  0.0337  0.7207 -0.0658
   13CHTO  H190 5140   6.973   5.076   1.797  0.4967 -0.0610  0.7320
   13CHTO  C101 5141   7.010   5.103   1.580  0.0652  0.4867 -0.9635
   13CHTO  H188 5142   7.054   5.044   1.499  0.4333 -0.8154  0.1760
   13CHTO   O68 5143   7.103   5.234   1.613 -0.2188  0.1385  0.3138
   13CHTO  H168 5144   7.061   5.296   1.669 -0.6416 -1.0584  1.3658
   13CHTO   C99 5145   6.859   5.143   1.547  0.5311 -0.2202 -0.0369
   13CHTO  H186 5146   6.815   5.197   1.633  0.4201 -1.1311  0.4902
   13CHTO   N17 5147   6.851   5.240   1.436  0.1721 -0.0498  0.2282
   13CHTO  H174 5148   6.748   5.274   1.437 -0.1950 -1.1265  0.4639
   13CHTO  H175 5149   6.932   5.311   1.446  0.1020  0.2033 -0.9780
   13CHTO   C97 5150   6.772   5.013   1.527  0.0939 -0.5004 -0.5998
   13CHTO  H184 5151   6.788   4.954   1.436  1.4042  1.0797 -1.4112
   13CHTO   O64 5152   6.788   4.935   1.650 -0.3198  0.1032  0.2470
   13CHTO  C104 5153   6.921   4.895   1.691  0.0860  0.1650  0.1095
   13CHTO  H191 5154   6.971   4.825   1.624 -2.1550 -0.2698 -1.1601
   13CHTO  C108 5155   6.913   4.815   1.817 -0.5060  0.0742  0.0956
   13CHTO   O71 5156   6.875   4.684   1.787 -0.1616 -0.5885 -0.0758
   13CHTO  H171 5157   6.843   4.641   1.864 -0.0223  0.1625  0.3956
   13CHTO   O62 5158   6.638   5.046   1.531 -0.2535 -0.0063 -0.7037
   13CHTO   C91 5159   6.542   4.952   1.490  0.4611  0.1566  0.5563
   13CHTO  H178 5160   6.589   4.855   1.500 -1.8803 -1.0810 -0.2090
   13CHTO   C92 5161   6.502   4.961   1.334  0.6345 -0.0394  0.2794
   13CHTO  H179 5162   6.464   5.062   1.314  0.1597 -0.4984 -1.1985
   13CHTO   O66 5163   6.610   4.938   1.243  0.7632 -0.1833 -0.1302
   13CHTO  H166 5164   6.575   4.930   1.156  1.1598 -0.2377 -0.2867
   13CHTO   C93 5165   6.388   4.862   1.300  0.2803 -0.7268  0.2585
   13CHTO  H180 5166   6.430   4.760   1.306  1.8069 -0.1480 -0.2728
   13CHTO   N16 5167   6.335   4.875   1.159 -0.0597 -0.1594 -0.7382
   13CHTO  H172 5168   6.266   4.958   1.151 -1.5787 -1.2474  0.7741
   13CHTO  H173 5169   6.288   4.787   1.118 -0.8214  0.7854 -1.9266
   13CHTO   C94 5170   6.268   4.875   1.401 -0.0713 -0.1307  0.3756
   13CHTO  H181 5171   6.227   4.976   1.398  1.1521  0.3433 -0.7892
   13CHTO   O61 5172   6.320   4.857   1.533 -0.1174  0.7234  0.3373
   13CHTO   C95 5173   6.407   4.957   1.580  0.2467  0.7907 -0.4849
   13CHTO  H182 5174   6.365   5.055   1.558  0.8736  1.0784 -0.4206
   13CHTO  C106 5175   6.428   4.946   1.731 -0.3455 -0.2426  0.2830
   13CHTO   O69 5176   6.310   4.991   1.795 -0.0211  0.0216  0.1611
   13CHTO  H169 5177   6.310   4.982   1.889  0.5843 -1.0390  0.0705
   13CHTO   O63 5178   6.148   4.752   1.368  0.5399 -0.6902 -0.0772
   13CHTO   C96 5179   5.998   4.783   1.437  0.3038  0.6152 -0.2914
   13CHTO  H183 5180   5.933   4.715   1.383  0.0675  0.5934  0.0182
   13CHTO   C98 5181   5.936   4.922   1.453 -0.1427  0.1919  0.1945
   13CHTO  H185 5182   6.013   4.989   1.493 -0.6267  0.9013 -0.0506
   13CHTO   O67 5183   5.919   4.969   1.317  0.1329 -0.6569  0.0698
   13CHTO  H167 5184   5.857   4.919   1.269  1.9321 -0.1755 -2.9155
   13CHTO  C102 5185   5.797   4.918   1.542 -0.6682  0.7162 -0.0894
   13CHTO  H189 5186   5.724   4.865   1.480 -1.3983  1.5308  0.0637
   13CHTO   N18 5187   5.742   5.049   1.575  0.9117  0.1801  0.2056
   13CHTO  H176 5188   5.756   5.110   1.488 -0.1532  0.2179  0.0611
   13CHTO  H177 5189   5.644   5.061   1.619  1.7172  2.0195  1.5890
   13CHTO  C105 5190   5.812   4.826   1.664  0.6372 -0.1828 -0.8347
   13CHTO  H192 5191   5.863   4.876   1.747 -0.1276 -1.0845  0.1978
   13CHTO   O65 5192   5.881   4.706   1.640 -0.2486  0.1185  0.4125
   13CHTO  C100 5193   6.013   4.726   1.591  0.6041 -0.5071 -0.2003
   13CHTO  H187 5194   6.063   4.802   1.653  0.7286 -1.7895  1.2845
   13CHTO  C107 5195   6.091   4.591   1.610  0.0976 -0.1072  0.2560
   13CHTO   O70 5196   6.042   4.494   1.522  0.1705  0.2561  0.0098
   13CHTO  H170 5197   6.084   4.513   1.440  1.4900  1.8520  1.0171
   13CHTO   O57 5198   5.648   4.788   1.717  0.1634  0.0554  0.5699
   13CHTO   C85 5199   5.565   4.698   1.641  0.0617  0.7116 -0.3472
   13CHTO  H157 5200   5.620   4.671   1.549 -0.1266  0.6982 -0.4548
   13CHTO   C83 5201   5.442   4.776   1.591 -0.1238  0.0803  0.0289
   13CHTO  H155 5202   5.472   4.868   1.541  0.7302  0.3087  0.9451
   13CHTO   O56 5203   5.368   4.813   1.715 -0.2834 -0.4335 -0.0396
   13CHTO  H135 5204   5.305   4.881   1.702 -1.1985 -0.9080  1.8082
   13CHTO   C81 5205   5.357   4.690   1.499  0.0537 -0.3872 -0.5328
   13CHTO  H153 5206   5.423   4.653   1.420 -0.1679 -0.0715 -0.8673
   13CHTO   N14 5207   5.248   4.764   1.439 -0.0151 -0.1288 -0.4753
   13CHTO  H141 5208   5.221   4.728   1.342  0.8737 -0.0563 -0.7519
   13CHTO  H142 5209   5.276   4.866   1.423 -1.5423 -0.1423 -3.6030
   13CHTO   C79 5210   5.304   4.567   1.577  0.7737 -0.0651 -0.2726
   13CHTO  H151 5211   5.253   4.504   1.504 -1.1223  0.8149  0.2675
   13CHTO   O52 5212   5.417   4.490   1.633 -0.0814  0.2902 -0.3343
   13CHTO   C86 5213   5.512   4.566   1.713 -0.0624  0.0691  0.0757
   13CHTO  H158 5214   5.459   4.588   1.808 -1.0793 -1.5537 -0.0969
   13CHTO   C90 5215   5.638   4.477   1.752  0.1178 -0.5885  0.2777
   13CHTO   O60 5216   5.720   4.441   1.642 -0.5941 -0.1756  0.2256
   13CHTO  H138 5217   5.793   4.499   1.642  0.6695 -1.7391 -0.1671
   13CHTO   O50 5218   5.216   4.592   1.690  0.5977 -0.0958 -0.2697
   13CHTO   C73 5219   5.074   4.566   1.700  0.0023 -0.0060 -0.1982
   13CHTO  H145 5220   5.036   4.503   1.618 -1.1635 -1.6684  1.5584
   13CHTO   C74 5221   4.998   4.700   1.705 -0.0741  0.0088  0.4916
   13CHTO  H146 5222   5.019   4.753   1.611  1.5383  1.3218  1.5510
   13CHTO   O54 5223   4.856   4.676   1.704 -0.1976 -0.0158 -0.4839
   13CHTO  H133 5224   4.809   4.757   1.713  1.7637  1.0428  0.5517
   13CHTO   C75 5225   5.038   4.780   1.830 -0.0428  0.5028 -0.4842
   13CHTO  H147 5226   5.144   4.807   1.820  0.0959  1.3274  2.7154
   13CHTO   N13 5227   4.978   4.914   1.841  0.1045  0.5493  0.1076
   13CHTO  H139 5228   4.873   4.901   1.860  0.0351 -1.4434 -1.5081
   13CHTO  H140 5229   5.024   4.968   1.922 -0.9262 -0.5660  1.4433
   13CHTO   C76 5230   5.007   4.691   1.968  0.2124 -0.2896  1.1497
   13CHTO  H148 5231   4.900   4.675   1.980 -0.1182 -0.4349 -1.8012
   13CHTO   O49 5232   5.079   4.565   1.953  0.5086 -0.2027 -0.2414
   13CHTO   C77 5233   5.044   4.492   1.834  0.0349 -0.4882 -0.1205
   13CHTO  H149 5234   4.937   4.470   1.837  0.0380 -0.4302  0.6425
   13CHTO   C88 5235   5.118   4.356   1.836 -0.6283 -0.7200 -0.0339
   13CHTO   O58 5236   5.089   4.270   1.698  0.3796 -0.2257 -0.0245
   13CHTO  H136 5237   5.153   4.202   1.688  1.6512  0.9830 -0.1887
   13CHTO   O51 5238   5.067   4.764   2.094  0.2361  0.0566  0.4924
   13CHTO   C78 5239   5.234   4.801   2.125 -0.7282 -0.5133  0.0364
   13CHTO  H150 5240   5.232   4.846   2.227 -1.5615 -1.6055  0.5085
   13CHTO   C80 5241   5.299   4.907   2.027  0.3006  0.3160 -0.1576
   13CHTO  H152 5242   5.284   4.867   1.924 -2.2040  1.2641 -0.1764
   13CHTO   O55 5243   5.227   5.027   2.052  0.5604  0.0746  0.4179
   13CHTO  H134 5244   5.273   5.097   2.010 -0.0330  0.4311  0.3610
   13CHTO   C84 5245   5.450   4.928   2.065 -0.0677  0.1414 -0.1388
   13CHTO  H156 5246   5.464   4.969   2.165 -0.7842 -2.2067  0.9542
   13CHTO   N15 5247   5.531   5.009   1.971  0.8162 -0.0383  0.0647
   13CHTO  H143 5248   5.578   5.100   2.001  1.1518 -0.1890 -0.0013
   13CHTO  H144 5249   5.480   5.027   1.878  0.3519 -2.5551 -0.2257
   13CHTO   C87 5250   5.518   4.788   2.080  0.3143  0.5030 -0.3650
   13CHTO  H159 5251   5.519   4.742   1.982  1.4927  0.0074 -0.1276
   13CHTO   O53 5252   5.452   4.712   2.181 -0.4200  0.6433 -0.1828
   13CHTO   C82 5253   5.320   4.673   2.141  0.0222 -0.4216  0.1777
   13CHTO  H154 5254   5.327   4.619   2.046  1.6973  2.0350 -1.1343
   13CHTO   C89 5255   5.248   4.581   2.243 -0.3659 -0.0307 -0.1584
   13CHTO   O59 5256   5.325   4.458   2.234  0.2907  0.5856  0.5200
   13CHTO  H137 5257   5.287   4.388   2.284 -2.0022 -0.6032 -2.7064
   13CHTO   O45 5258   5.658   4.798   2.138  0.1485 -0.3161 -0.5743
   13CHTO   C67 5259   5.735   4.683   2.116 -0.4545 -0.4076  0.0096
   13CHTO  H124 5260   5.674   4.601   2.079  2.3423 -2.9897  0.9055
   13CHTO   C65 5261   5.838   4.723   2.007 -0.5553 -0.1495  0.7550
   13CHTO  H122 5262   5.789   4.782   1.930  1.4098 -0.3862 -0.7163
   13CHTO   O44 5263   5.896   4.605   1.951  0.2542  0.7789  0.1266
   13CHTO  H102 5264   5.968   4.566   1.997  0.4252 -1.0909 -1.6386
   13CHTO   C63 5265   5.938   4.827   2.063 -0.7650 -0.7047  0.4823
   13CHTO  H120 5266   5.881   4.918   2.082  0.2977  0.3553 -1.2699
   13CHTO   N11 5267   6.039   4.875   1.966 -0.2654 -0.9572 -0.1312
   13CHTO  H108 5268   6.134   4.885   2.013 -0.8565  0.8916  0.7165
   13CHTO  H109 5269   6.051   4.805   1.885 -1.1799  0.4808 -1.5254
   13CHTO   C61 5270   5.996   4.785   2.202 -0.8354 -0.5765 -0.2630
   13CHTO  H118 5271   6.030   4.882   2.241 -1.5666 -0.4066 -0.0348
   13CHTO   O40 5272   5.899   4.734   2.293  0.4587 -0.0925 -0.4544
   13CHTO   C68 5273   5.797   4.633   2.249 -0.5180  0.1254  0.5184
   13CHTO  H125 5274   5.722   4.626   2.330 -0.5846 -1.7534  0.2970
   13CHTO   C72 5275   5.860   4.491   2.236 -0.1913 -0.2207 -0.1420
   13CHTO   O48 5276   5.773   4.379   2.247  0.0147  0.4506 -0.2345
   13CHTO  H105 5277   5.687   4.405   2.219 -0.4389  0.7296  1.3819
   13CHTO   O38 5278   6.105   4.686   2.201  0.1688 -0.1413  0.0728
   13CHTO   C55 5279   6.210   4.703   2.300 -0.5952 -0.1838  0.7661
   13CHTO  H112 5280   6.256   4.603   2.295  2.2905  1.1517 -1.0934
   13CHTO   C56 5281   6.162   4.745   2.445 -0.1023 -0.1017 -0.6533
   13CHTO  H113 5282   6.108   4.840   2.436  2.0540  1.2236  0.2374
   13CHTO   O42 5283   6.072   4.644   2.497  0.2287 -0.5415  0.4108
   13CHTO  H100 5284   6.064   4.663   2.589 -0.7697  1.3147 -0.0283
   13CHTO   C57 5285   6.280   4.771   2.549 -0.1045 -0.4278 -0.9129
   13CHTO  H114 5286   6.315   4.675   2.587  1.4580  0.7155  0.5903
   13CHTO   N10 5287   6.240   4.853   2.670  0.4143  0.4746 -0.0119
   13CHTO  H106 5288   6.208   4.785   2.747  0.5402  0.3745 -0.0486
   13CHTO  H107 5289   6.153   4.915   2.649  0.5122  0.6076 -0.0276
   13CHTO   C58 5290   6.399   4.849   2.486 -0.2967 -0.2188 -0.4058
   13CHTO  H115 5291   6.379   4.958   2.483  1.8510  0.2418  0.6196
   13CHTO   O37 5292   6.436   4.795   2.354  0.0685  0.3258 -0.5155
   13CHTO   C59 5293   6.327   4.798   2.260  0.0096  0.9341 -0.3221
   13CHTO  H116 5294   6.289   4.900   2.254  0.2381  0.8775 -4.1127
   13CHTO   C70 5295   6.384   4.757   2.124  0.1294  0.5939 -0.4734
   13CHTO   O46 5296   6.473   4.853   2.076  0.3013 -0.1502 -0.2146
   13CHTO  H103 5297   6.427   4.934   2.067  1.3816  0.5422  0.3737
   13CHTO   O39 5298   6.543   4.823   2.577  0.1572 -0.7784 -0.2186
   13CHTO   C60 5299   6.642   4.938   2.563  1.0395 -0.4543 -0.0145
   13CHTO  H117 5300   6.635   4.980   2.463  0.9584 -1.4849 -0.4418
   13CHTO   C62 5301   6.606   5.053   2.667 -0.1462 -0.5175  0.4659
   13CHTO  H119 5302   6.497   5.074   2.661  0.0270  1.2583  2.7057
   13CHTO   O43 5303   6.625   5.012   2.802  0.0157  0.4592 -0.2810
   13CHTO  H101 5304   6.548   4.975   2.841  1.2635 -1.1330  0.7940
   13CHTO   C66 5305   6.694   5.173   2.619 -0.6471  0.1658 -0.5933
   13CHTO  H123 5306   6.673   5.185   2.512  2.1335  3.5258 -0.8312
   13CHTO   N12 5307   6.662   5.309   2.666  0.0122  0.4326 -0.3708
   13CHTO  H110 5308   6.565   5.338   2.626 -0.4395 -0.5197  0.0263
   13CHTO  H111 5309   6.739   5.374   2.627  0.2051  0.1845 -0.4037
   13CHTO   C69 5310   6.842   5.144   2.636  0.1747 -0.2000  0.0631
   13CHTO  H126 5311   6.882   5.144   2.739  1.2531 -3.3609 -0.2884
   13CHTO   O41 5312   6.889   4.991   2.566  0.8941  0.0466 -0.2608
   13CHTO   C64 5313   6.790   4.886   2.584  0.7153 -0.6819 -0.2291
   13CHTO  H121 5314   6.808   4.845   2.686  0.4496  0.0227  0.1032
   13CHTO   C71 5315   6.809   4.775   2.488 -0.5729 -0.0394 -0.7006
   13CHTO   O47 5316   6.770   4.644   2.547  0.0296 -0.2375 -0.0626
   13CHTO  H104 5317   6.814   4.636   2.629  1.1884  0.6989 -0.5760
   13CHTO   O34 5318   6.948   5.255   2.572  0.1369 -0.1473  0.1686
   13CHTO   C49 5319   7.087   5.311   2.614 -0.6865  0.0589 -0.0879
   13CHTO   H91 5320   7.153   5.224   2.619  1.3895  1.4586 -1.9739
   13CHTO   C47 5321   7.088   5.377   2.757 -0.2562 -0.1775 -0.4590
   13CHTO   H89 5322   7.198   5.387   2.772  0.0598 -1.8437 -1.5301
   13CHTO   O33 5323   7.042   5.282   2.855  0.1704  0.0672 -0.5798
   13CHTO   H70 5324   6.950   5.273   2.864  0.1620 -0.7998 -1.4423
   13CHTO   C45 5325   7.001   5.516   2.773  0.3102  0.0614 -0.4400
   13CHTO   H87 5326   6.903   5.481   2.809  1.1506  0.3862  2.2838
   13CHTO    N8 5327   7.062   5.618   2.864  0.1272 -0.6824 -0.3612
   13CHTO   H75 5328   7.031   5.597   2.965  0.2344 -0.8488 -0.3622
   13CHTO   H76 5329   7.033   5.718   2.835 -1.5081 -1.8359 -2.8777
   13CHTO   C43 5330   6.973   5.571   2.624  0.0548 -0.2530  0.5267
   13CHTO   H85 5331   6.893   5.512   2.580  0.6736 -1.3449  0.8487
   13CHTO   O29 5332   7.095   5.568   2.540  0.2531  0.0619  0.0549
   13CHTO   C50 5333   7.133   5.429   2.513 -0.5477  0.0790 -0.7798
   13CHTO   H92 5334   7.085   5.412   2.416 -2.3969  0.8797 -0.0327
   13CHTO   C54 5335   7.284   5.433   2.495 -0.1331  0.6211 -0.3525
   13CHTO   O36 5336   7.315   5.502   2.369 -0.1725 -0.3763  0.6248
   13CHTO   H72 5337   7.261   5.470   2.299 -0.4986  0.3609  0.5322
   13CHTO   O27 5338   6.907   5.702   2.625 -0.1954  0.1008  0.5027
   13CHTO   C37 5339   6.935   5.845   2.642 -0.1168  0.7282  0.1003
   13CHTO   H79 5340   7.004   5.860   2.726 -0.8376  3.0140  0.3142
   13CHTO   C38 5341   7.007   5.909   2.522  0.1097 -0.3606  0.1780
   13CHTO   H80 5342   6.955   5.880   2.430  3.4654  0.0919 -1.9182
   13CHTO   O31 5343   7.142   5.859   2.508  0.2931  0.4481  0.1600
   13CHTO   H68 5344   7.175   5.825   2.589  0.7160  1.6126  0.4947
   13CHTO   C39 5345   7.006   6.071   2.533 -0.9457  0.2574  1.1580
   13CHTO   H81 5346   7.079   6.097   2.609  0.5405 -0.8593  0.1474
   13CHTO    N7 5347   7.056   6.137   2.408  0.6906 -0.3906  0.4305
   13CHTO   H73 5348   6.978   6.199   2.367  1.0443 -0.1319  0.1312
   13CHTO   H74 5349   7.091   6.081   2.322  1.5555  2.1103 -0.9261
   13CHTO   C40 5350   6.861   6.120   2.573 -0.1043  0.0704  0.0202
   13CHTO   H82 5351   6.796   6.088   2.492  0.9158 -1.1633 -0.3293
   13CHTO   O26 5352   6.826   6.055   2.699 -0.1546 -0.5590  0.0739
   13CHTO   C41 5353   6.806   5.911   2.683 -0.1377  0.1370 -0.2493
   13CHTO   H83 5354   6.735   5.891   2.601 -0.4829  1.4448 -0.2930
   13CHTO   C52 5355   6.741   5.858   2.818 -0.9611 -0.3062  0.0175
   13CHTO   O35 5356   6.841   5.864   2.927  0.2212 -0.3714  0.1784
   13CHTO   H71 5357   6.805   5.878   3.012  1.7300 -0.6470  0.8776
   13CHTO   O28 5358   6.846   6.257   2.608  0.6469 -0.4771 -0.1412
   13CHTO   C42 5359   6.773   6.350   2.520 -0.4669  0.6547 -0.5225
   13CHTO   H84 5360   6.770   6.303   2.422 -1.7062 -0.4685  0.0403
   13CHTO   C44 5361   6.849   6.487   2.498  0.4234 -0.2428  0.0991
   13CHTO   H86 5362   6.895   6.513   2.593  1.3761 -1.7275  0.0621
   13CHTO   O32 5363   6.955   6.474   2.401  0.0897 -0.4604  0.2268
   13CHTO   H69 5364   7.009   6.551   2.398 -0.1405 -0.3524 -1.5980
   13CHTO   C48 5365   6.749   6.604   2.454  0.0410 -0.4878 -0.1366
   13CHTO   H90 5366   6.741   6.603   2.346 -0.1791 -1.1346 -0.1167
   13CHTO    N9 5367   6.808   6.741   2.475  0.1986 -0.2671 -0.5495
   13CHTO   H77 5368   6.837   6.767   2.576 -0.3008  2.0860 -0.9948
   13CHTO   H78 5369   6.892   6.753   2.408  0.1365 -2.0576 -0.9672
   13CHTO   C51 5370   6.611   6.594   2.518  0.4747 -0.1779 -0.0228
   13CHTO   H93 5371   6.622   6.614   2.624 -0.0904 -0.6356  0.1268
   13CHTO   O30 5372   6.560   6.462   2.495 -0.4564 -0.7333 -0.2625
   13CHTO   C46 5373   6.629   6.361   2.569  0.2586  0.0359 -0.4905
   13CHTO   H88 5374   6.622   6.378   2.677  2.0040 -2.5693  0.0756
   13CHTO   C53 5375   6.535   6.244   2.538  0.0481 -0.8300  0.3074
   13CHTO   O72 5376   6.548   6.182   2.409  0.8594  0.3177 -0.1201
   13CHTO  H199 5377   6.497   6.224   2.342  0.4845 -1.2392 -0.8138
   13CHTO   O22 5378   6.523   6.678   2.446  0.2300  0.4260  0.1064
   13CHTO   C31 5379   6.397   6.728   2.506  0.1084  0.1961  0.4245
   13CHTO   H59 5380   6.373   6.826   2.460 -1.1809 -0.1708  0.2971
   13CHTO   C29 5381   6.279   6.626   2.470 -0.1813 -0.1715  0.8619
   13CHTO   H57 5382   6.297   6.528   2.515 -0.3362  0.0370  1.3779
   13CHTO   O21 5383   6.289   6.603   2.327  0.1909 -0.2912 -0.4890
   13CHTO   H37 5384   6.262   6.516   2.304  0.2614 -0.0336 -1.5782
   13CHTO   C27 5385   6.135   6.670   2.516  0.3559 -0.3077  0.6372
   13CHTO   H55 5386   6.108   6.762   2.462 -0.7749 -1.2021 -0.3671
   13CHTO    N5 5387   6.023   6.573   2.496 -0.2562  0.0110  0.1195
   13CHTO   H43 5388   5.926   6.611   2.464  0.0057  0.5138 -0.0839
   13CHTO   H44 5389   6.051   6.493   2.429 -0.6055  0.5917 -0.7381
   13CHTO   C25 5390   6.146   6.728   2.662  0.3775 -0.5024 -0.8516
   13CHTO   H53 5391   6.151   6.637   2.723  0.2590  0.9947  1.4620
   13CHTO   O17 5392   6.258   6.816   2.689 -0.0448 -0.0947  0.4707
   13CHTO   C32 5393   6.383   6.749   2.660 -0.1007 -0.2426 -0.0310
   13CHTO   H60 5394   6.386   6.653   2.711 -2.1655 -0.0388  0.5077
   13CHTO   C36 5395   6.488   6.847   2.726 -0.0869 -0.4661 -0.3385
   13CHTO   O25 5396   6.474   6.846   2.869 -0.9686 -0.2010  0.1607
   13CHTO   H40 5397   6.519   6.925   2.894 -0.3834 -0.3187 -0.5091
   13CHTO   O15 5398   6.002   6.811   2.700 -0.7872 -0.1364 -1.1229
   13CHTO   C19 5399   5.899   6.900   2.654  0.0823 -0.3479  0.0195
   13CHTO   H47 5400   5.876   6.971   2.734 -1.8912 -0.7021 -0.1952
   13CHTO   C20 5401   5.935   6.975   2.522  0.1383  0.2612  0.4699
   13CHTO   H48 5402   5.960   6.904   2.442 -2.0334 -0.1317  0.1001
   13CHTO   O19 5403   6.053   7.049   2.544  0.1685  0.6154 -0.0769
   13CHTO   H35 5404   6.034   7.139   2.565  0.5995  0.3577  1.5361
   13CHTO   C21 5405   5.805   7.066   2.479  0.0062  0.4483  0.0526
   13CHTO   H49 5406   5.791   7.134   2.563  0.8155  0.2527  0.3536
   13CHTO    N4 5407   5.827   7.149   2.353  0.5831  0.0188  0.1398
   13CHTO   H41 5408   5.824   7.253   2.380  0.5755  0.3678 -1.1676
   13CHTO   H42 5409   5.922   7.125   2.307  0.4897 -1.3998  0.6518
   13CHTO   C22 5410   5.683   6.974   2.470  0.0430 -0.2629  0.6279
   13CHTO   H50 5411   5.686   6.911   2.382  0.8944 -1.7607  1.7073
   13CHTO   O14 5412   5.665   6.899   2.591 -0.5390  0.4366 -0.2996
   13CHTO   C23 5413   5.770   6.813   2.638 -0.6328 -0.3311  0.1695
   13CHTO   H51 5414   5.787   6.732   2.566  0.0498 -0.7027  0.7497
   13CHTO   C34 5415   5.728   6.757   2.776 -0.1100 -0.0570  0.3788
   13CHTO   O23 5416   5.681   6.620   2.777 -0.0413 -0.0992  0.0936
   13CHTO   H38 5417   5.631   6.612   2.856 -0.2516  0.9251  0.0762
   13CHTO   O16 5418   5.565   7.057   2.473 -0.6571 -0.0461  0.4751
   13CHTO   C24 5419   5.406   6.978   2.486  0.7845 -0.2370 -0.0461
   13CHTO   H52 5420   5.403   6.912   2.573  0.1177  0.7134  0.6715
   13CHTO   C26 5421   5.371   6.905   2.354 -0.1823 -0.3386 -0.4378
   13CHTO   H54 5422   5.377   6.973   2.267  0.4021 -0.5946 -0.6002
   13CHTO   O20 5423   5.466   6.799   2.327 -0.3853  0.3949 -0.5729
   13CHTO   H36 5424   5.454   6.769   2.239  0.1928  2.3458 -1.3510
   13CHTO   C30 5425   5.228   6.840   2.357 -0.2147  0.4655  0.1787
   13CHTO   H58 5426   5.223   6.763   2.434 -2.3610  0.7726  0.3755
   13CHTO    N6 5427   5.192   6.776   2.228  0.3818 -0.3303 -0.2627
   13CHTO   H45 5428   5.090   6.742   2.232  0.0853  0.5512 -0.2202
   13CHTO   H46 5429   5.204   6.850   2.151  0.0069 -0.7216 -0.6980
   13CHTO   C33 5430   5.129   6.946   2.415  0.8675 -0.1893 -0.5910
   13CHTO   H61 5431   5.122   7.023   2.336  0.2006 -1.4768 -1.8024
   13CHTO   O18 5432   5.171   7.021   2.532  0.2500 -0.1001  0.2496
   13CHTO   C28 5433   5.293   7.084   2.512  0.0237 -0.4231  0.8752
   13CHTO   H56 5434   5.281   7.149   2.425 -1.4543  1.4279  2.4059
   13CHTO   C35 5435   5.318   7.174   2.637 -0.2162  0.3248  0.0239
   13CHTO   O24 5436   5.222   7.278   2.640  0.0843  0.2506  0.4461
   13CHTO   H39 5437   5.136   7.242   2.634  1.1263 -1.8941 -2.2839
   13CHTO    O9 5438   5.000   6.892   2.431 -0.2932 -0.2080  0.5339
   13CHTO   C13 5439   4.985   6.801   2.551 -0.2586 -0.1280  0.4337
   13CHTO   H26 5440   5.086   6.797   2.598 -0.1598 -1.0999  0.1496
   13CHTO   C11 5441   4.932   6.657   2.514  0.4187 -0.5119  0.1066
   13CHTO   H24 5442   5.006   6.598   2.457 -1.6819 -0.5083 -2.7525
   13CHTO    O8 5443   4.814   6.667   2.429  0.3605 -0.2459 -0.1198
   13CHTO    H3 5444   4.827   6.737   2.368 -1.4512 -0.3654 -0.6549
   13CHTO    C9 5445   4.903   6.580   2.644  0.8295  0.1961 -0.2212
   13CHTO   H22 5446   4.995   6.580   2.705  1.0266 -1.8836 -0.5091
   13CHTO    N2 5447   4.879   6.438   2.613  0.3133 -0.7988  0.0775
   13CHTO   H10 5448   4.777   6.408   2.632  0.6648 -1.4547  0.9587
   13CHTO   H11 5449   4.951   6.381   2.668  1.9479  1.7588  0.6612
   13CHTO    C7 5450   4.797   6.657   2.730 -0.0207  0.1082 -0.2242
   13CHTO   H20 5451   4.832   6.663   2.835 -1.8825  0.7908  0.3861
   13CHTO    O4 5452   4.778   6.794   2.695  0.7565 -0.5659  0.0971
   13CHTO   C14 5453   4.899   6.869   2.663 -0.7128  0.3946 -0.1024
   13CHTO   H27 5454   4.965   6.872   2.752  0.5963 -0.1719 -1.0340
   13CHTO   C18 5455   4.857   7.010   2.632 -0.8772  0.2155 -0.1334
   13CHTO   O13 5456   4.799   7.085   2.743  0.2531 -0.4934 -0.5442
   13CHTO    H7 5457   4.768   7.028   2.811  0.4822  0.1025  0.0712
   13CHTO    O2 5458   4.647   6.585   2.739  0.1647  0.5949 -0.2222
   13CHTO    C1 5459   4.545   6.628   2.831 -0.7741  0.4384 -0.0495
   13CHTO   H14 5460   4.451   6.600   2.780 -0.2075 -1.7266  0.0621
   13CHTO    C2 5461   4.537   6.780   2.877 -0.1540 -0.2457  0.4645
   13CHTO   H15 5462   4.634   6.818   2.911  0.3659 -1.4580  0.3631
   13CHTO    O6 5463   4.503   6.859   2.763  0.1365 -0.1267 -0.4913
   13CHTO    H1 5464   4.418   6.844   2.728 -0.7431  0.2607  1.4023
   13CHTO    C3 5465   4.420   6.791   2.985  0.3849  0.3445 -0.5637
   13CHTO   H16 5466   4.328   6.754   2.938  1.0204 -1.8963 -0.1052
   13CHTO    N1 5467   4.407   6.932   3.044  0.2732 -0.3183  0.0546
   13CHTO    H8 5468   4.487   6.941   3.115  0.4086  1.5414 -0.3023
   13CHTO    H9 5469   4.308   6.941   3.086 -0.2314 -1.6996 -0.7722
   13CHTO    C4 5470   4.440   6.682   3.106 -0.2434  0.7142 -0.7567
   13CHTO   H17 5471   4.531   6.711   3.159 -0.2613  2.2234 -1.5239
   13CHTO    O1 5472   4.454   6.551   3.051 -0.2203  0.9756  0.2080
   13CHTO    C5 5473   4.566   6.541   2.963  0.2169  0.1582  0.0898
   13CHTO   H18 5474   4.652   6.574   3.021  0.6407 -0.8608  0.0475
   13CHTO   C16 5475   4.575   6.390   2.942 -0.7141 -0.5833 -0.5483
   13CHTO   O11 5476   4.607   6.305   3.052 -0.3936 -0.0529  0.5734
   13CHTO    H5 5477   4.700   6.305   3.062 -0.1553 -0.7498 -1.3854
   13CHTO    O3 5478   4.328   6.676   3.200  0.3114  0.3583 -0.0611
   13CHTO    C6 5479   4.258   6.558   3.248  0.1769  0.3298  0.2577
   13CHTO   H19 5480   4.246   6.486   3.167  0.7134 -0.9273  1.2727
   13CHTO    C8 5481   4.343   6.486   3.362  0.3751 -0.1286  0.4720
   13CHTO   H21 5482   4.391   6.566   3.418 -1.3573  0.8016  0.6872
   13CHTO    O7 5483   4.450   6.406   3.303 -0.3181 -0.0716  0.0721
   13CHTO    H2 5484   4.508   6.373   3.369  0.0012 -0.6378 -0.4950
   13CHTO   C12 5485   4.239   6.401   3.449  0.5506 -0.1430  0.7591
   13CHTO   H25 5486   4.204   6.317   3.385  1.6348  0.2994 -0.4376
   13CHTO    N3 5487   4.308   6.355   3.573 -0.3973 -0.8716  0.4350
   13CHTO   H12 5488   4.385   6.283   3.546  0.7489  0.2402  0.7184
   13CHTO   H13 5489   4.362   6.438   3.614 -0.1678  0.6951 -2.9457
   13CHTO   C15 5490   4.110   6.481   3.489 -0.2227 -0.4037 -0.3106
   13CHTO   H28 5491   4.138   6.572   3.542 -0.7452 -1.2116  1.3967
   13CHTO   O10 5492   3.996   6.399   3.570 -0.4615 -0.2499  0.2749
   13CHTO    H4 5493   3.940   6.460   3.615 -0.1451  0.6175 -0.4708
   13CHTO    O5 5494   4.041   6.508   3.369 -0.4539  0.2932  0.0979
   13CHTO   C10 5495   4.115   6.602   3.290  0.1706  0.4466  0.0823
   13CHTO   H23 5496   4.116   6.692   3.353 -0.3439  0.5456 -0.0467
   13CHTO   C17 5497   4.021   6.635   3.180 -0.1545  0.6283  0.0329
   13CHTO   O12 5498   4.079   6.744   3.102  0.4482 -0.5933 -0.1220
   13CHTO    H6 5499   4.012   6.800   3.067  2.5579  2.5892  0.6942
   14CHTO  H203 5500   6.835   4.583   2.069 -0.1953  0.0605 -1.0658
   14CHTO   O82 5501   6.750   4.607   2.102  0.3546  0.4338  0.1081
   14CHTO  C123 5502   6.651   4.506   2.087  0.8706  0.6294 -0.6027
   14CHTO  H227 5503   6.559   4.538   2.137  0.7362  0.9499 -1.0487
   14CHTO   O77 5504   6.623   4.505   1.946  0.1475 -0.5437  0.1915
   14CHTO  C118 5505   6.512   4.428   1.907 -0.4690  0.2781 -0.3807
   14CHTO  H222 5506   6.418   4.444   1.962 -0.0570 -1.7746  0.9694
   14CHTO  C125 5507   6.491   4.461   1.758 -0.1430 -0.1773  0.9513
   14CHTO   O84 5508   6.435   4.590   1.757  0.2898 -0.4358  0.0612
   14CHTO  H205 5509   6.344   4.582   1.779  0.4073 -1.7646  0.1542
   14CHTO  C114 5510   6.549   4.275   1.927 -0.7336 -0.4140  0.0538
   14CHTO  H218 5511   6.628   4.251   1.855  0.3621  0.7778  0.8392
   14CHTO  C116 5512   6.594   4.250   2.074 -0.7142  0.1087 -0.0424
   14CHTO  H220 5513   6.505   4.240   2.140 -1.2483 -0.5110 -0.8427
   14CHTO   O79 5514   6.650   4.119   2.069  0.5480  0.0796 -0.3318
   14CHTO  H201 5515   6.647   4.086   2.157 -1.3074 -0.3590 -0.5489
   14CHTO  C120 5516   6.694   4.363   2.132 -0.5033  0.2783  0.9177
   14CHTO  H224 5517   6.796   4.338   2.097 -0.8638 -1.1383  0.8631
   14CHTO   N21 5518   6.704   4.354   2.281 -0.4325 -0.0275 -0.1543
   14CHTO  H211 5519   6.770   4.274   2.312 -1.1585 -0.7314 -0.3861
   14CHTO  H212 5520   6.609   4.356   2.332 -2.1912 -2.5774 -3.1394
   14CHTO   O75 5521   6.437   4.210   1.880  0.8313  0.2582 -0.3807
   14CHTO  C112 5522   6.299   4.147   1.981  0.8957 -0.3112 -0.3415
   14CHTO  H216 5523   6.307   4.180   2.086  1.3621 -0.7450 -0.2400
   14CHTO   O73 5524   6.299   4.006   1.967  0.0626 -0.0707 -0.4525
   14CHTO  C113 5525   6.182   3.931   2.018  0.5328 -0.0907  0.5162
   14CHTO  H217 5526   6.160   3.964   2.122  0.0452  1.8807 -0.2132
   14CHTO  C124 5527   6.204   3.777   2.018 -0.5078 -0.1536 -0.1509
   14CHTO   O83 5528   6.086   3.709   2.059  0.3653 -0.2749 -0.1725
   14CHTO  H204 5529   6.079   3.714   2.153 -0.9934  1.6671 -0.3329
   14CHTO  C109 5530   6.067   3.968   1.919 -0.6143 -0.5853 -0.6161
   14CHTO  H213 5531   6.103   3.942   1.819  0.7539 -0.1856 -0.2454
   14CHTO  C110 5532   6.045   4.127   1.934 -0.6831  0.2675  0.0198
   14CHTO  H214 5533   6.015   4.148   2.037  0.4397 -2.9554  1.0508
   14CHTO   O78 5534   5.931   4.164   1.862 -0.4528  0.1970  0.1892
   14CHTO  H200 5535   5.921   4.255   1.840 -0.4561  0.1328 -0.0689
   14CHTO  C111 5536   6.177   4.208   1.907  0.0769  0.1749  0.4264
   14CHTO  H215 5537   6.197   4.209   1.799 -0.6513  2.2300  0.2832
   14CHTO   N19 5538   6.167   4.349   1.940 -0.1428  0.0253  0.1874
   14CHTO  H207 5539   6.235   4.404   1.876  1.8718  0.0067  2.2508
   14CHTO  H208 5540   6.066   4.375   1.912 -0.1680  1.1615  1.2700
   14CHTO   O74 5541   5.944   3.899   1.946 -0.2204  0.0109 -0.6752
   14CHTO  C115 5542   5.867   3.845   1.798  0.1479 -0.2000 -0.2144
   14CHTO  H219 5543   5.925   3.872   1.709 -0.9000 -1.2298 -1.2368
   14CHTO   O76 5544   5.867   3.685   1.787  0.3093  0.0486  0.2723
   14CHTO  C122 5545   5.791   3.620   1.886  0.0343 -0.7472 -0.2200
   14CHTO  H226 5546   5.839   3.646   1.980 -1.6882  0.7227  0.2867
   14CHTO  C126 5547   5.811   3.466   1.859 -0.9358 -0.2725  0.4496
   14CHTO   O85 5548   5.944   3.410   1.882  0.1721 -0.6035 -0.1126
   14CHTO  H206 5549   5.939   3.324   1.844 -2.7990 -0.8198  0.6399
   14CHTO  C121 5550   5.643   3.676   1.894 -0.5163  0.5960 -0.2302
   14CHTO  H225 5551   5.576   3.589   1.886  0.8287 -0.6895  2.0080
   14CHTO   O81 5552   5.610   3.730   2.025 -0.1888 -0.1044  0.1054
   14CHTO  H202 5553   5.528   3.694   2.053 -0.1340 -1.1124 -0.9694
   14CHTO  C119 5554   5.614   3.779   1.788  0.1663 -0.7936 -0.2316
   14CHTO  H223 5555   5.634   3.720   1.698  2.2177  0.7953 -0.8485
   14CHTO  C117 5556   5.717   3.896   1.792 -1.2944  0.0097  0.7251
   14CHTO  H221 5557   5.714   3.965   1.876 -0.6431  1.2412 -0.2471
   14CHTO   N20 5558   5.690   3.982   1.671 -0.0066  0.0916  0.5449
   14CHTO  H209 5559   5.586   3.999   1.651  0.1703  1.0040  0.3751
   14CHTO  H210 5560   5.739   4.075   1.696 -1.0892  0.4622  1.2973
   14CHTO   O80 5561   5.453   3.822   1.771  0.3740 -0.2744  0.1208
   14CHTO  C103 5562   5.374   3.789   1.633  0.1617 -0.1039  0.0393
   14CHTO  H190 5563   5.442   3.822   1.555  1.1318 -1.4987  0.2569
   14CHTO  C101 5564   5.330   3.629   1.627 -0.1049  0.0154  0.4020
   14CHTO  H188 5565   5.295   3.601   1.726  0.1595 -2.6664 -0.2204
   14CHTO   O68 5566   5.461   3.527   1.597  0.2533  0.5728 -0.1977
   14CHTO  H168 5567   5.488   3.531   1.508 -0.6786  2.5803 -0.4203
   14CHTO   C99 5568   5.219   3.616   1.507  0.5241 -0.6511 -0.1629
   14CHTO  H186 5569   5.273   3.630   1.411  0.0447  0.7907 -0.2252
   14CHTO   N17 5570   5.151   3.483   1.489 -0.4101 -0.4633  0.5629
   14CHTO  H174 5571   5.207   3.391   1.503  0.3665  0.2208  2.1607
   14CHTO  H175 5572   5.052   3.474   1.531 -0.2892 -1.1921  0.7033
   14CHTO   C97 5573   5.118   3.734   1.513 -0.4949 -0.2579  0.7162
   14CHTO  H184 5574   5.049   3.720   1.598 -1.7137 -1.0346 -0.3721
   14CHTO   O64 5575   5.176   3.865   1.512  0.2546  0.1374  0.6183
   14CHTO  C104 5576   5.252   3.885   1.633  0.4429  0.2202 -0.0566
   14CHTO  H191 5577   5.190   3.866   1.720  2.2906  1.0766  1.4832
   14CHTO  C108 5578   5.283   4.035   1.638  0.0821  0.5154  0.2097
   14CHTO   O71 5579   5.346   4.078   1.757  0.3210  0.0140  0.7555
   14CHTO  H171 5580   5.403   4.150   1.739  0.2175  0.0870  0.7238
   14CHTO   O62 5581   5.033   3.736   1.392  0.0562  0.0148  0.2251
   14CHTO   C91 5582   4.893   3.745   1.409 -0.0976 -1.0106  0.1772
   14CHTO  H178 5583   4.866   3.651   1.458 -1.0435 -1.3043 -0.8695
   14CHTO   C92 5584   4.824   3.737   1.271 -0.0712  0.2441 -0.0111
   14CHTO  H179 5585   4.876   3.654   1.221 -1.2114 -0.9685  0.8211
   14CHTO   O66 5586   4.687   3.692   1.300  0.0376  0.3749  0.4114
   14CHTO  H166 5587   4.651   3.667   1.217 -0.5138 -0.3319  0.8560
   14CHTO   C93 5588   4.806   3.869   1.184 -0.3048 -0.6249  0.0868
   14CHTO  H180 5589   4.712   3.870   1.126  0.5325 -1.1090 -1.2948
   14CHTO   N16 5590   4.915   3.897   1.085 -0.5463  0.3333  0.1403
   14CHTO  H172 5591   4.893   3.989   1.031  1.2190  0.3195 -0.6246
   14CHTO  H173 5592   4.999   3.921   1.148 -0.1218  0.7209 -0.5647
   14CHTO   C94 5593   4.792   3.998   1.275  0.3735 -0.4050  0.4553
   14CHTO  H181 5594   4.891   4.040   1.294  1.9193 -3.4284 -0.5781
   14CHTO   O61 5595   4.747   3.954   1.407 -0.2230  0.4861  0.1663
   14CHTO   C95 5596   4.840   3.872   1.484 -0.2294 -0.1727 -0.7907
   14CHTO  H182 5597   4.927   3.931   1.511  0.9924 -0.9805 -2.8416
   14CHTO  C106 5598   4.769   3.829   1.618  0.1184  0.3112 -0.6062
   14CHTO   O69 5599   4.868   3.813   1.720 -0.3625  0.2040  0.5076
   14CHTO  H169 5600   4.904   3.727   1.708  1.1148  0.4950  2.6169
   14CHTO   O63 5601   4.702   4.089   1.207 -0.2914 -0.1555 -0.0361
   14CHTO   C96 5602   4.723   4.253   1.236 -0.0211  0.2371 -0.0471
   14CHTO  H183 5603   4.660   4.305   1.164  1.1115  0.6923 -0.7292
   14CHTO   C98 5604   4.871   4.295   1.205 -0.6636  0.4368 -0.4251
   14CHTO  H185 5605   4.947   4.227   1.248  0.9390  0.2044 -3.4452
   14CHTO   O67 5606   4.889   4.295   1.064  0.4504 -0.1326  0.3486
   14CHTO  H167 5607   4.892   4.211   1.021 -2.0202  0.1454 -0.4528
   14CHTO  C102 5608   4.894   4.445   1.260 -0.6341 -0.0479 -0.5961
   14CHTO  H189 5609   4.842   4.510   1.188 -0.3781  1.7511  0.8063
   14CHTO   N18 5610   5.038   4.488   1.270  0.5086  0.3743  0.2690
   14CHTO  H176 5611   5.042   4.584   1.220 -0.0637  0.1638 -0.1865
   14CHTO  H177 5612   5.075   4.485   1.372  1.8198  0.9697 -0.1770
   14CHTO  C105 5613   4.821   4.481   1.392 -0.0062  1.2272  0.0542
   14CHTO  H192 5614   4.875   4.432   1.474 -0.9259  0.7184  0.3644
   14CHTO   O65 5615   4.683   4.439   1.388  0.0940  0.2996  0.6733
   14CHTO  C100 5616   4.682   4.297   1.387  0.1149 -0.2903 -0.4986
   14CHTO  H187 5617   4.766   4.257   1.445  1.3586  1.3682 -1.1138
   14CHTO  C107 5618   4.532   4.249   1.418 -0.5876 -0.0654 -0.1471
   14CHTO   O70 5619   4.444   4.279   1.310 -0.6458 -0.1924 -0.0600
   14CHTO  H170 5620   4.495   4.280   1.231  1.8172 -0.3261  1.5038
   14CHTO   O57 5621   4.825   4.644   1.405  0.6220  0.7387 -0.7233
   14CHTO   C85 5622   4.737   4.727   1.327  0.1082  0.2594 -0.5840
   14CHTO  H157 5623   4.661   4.674   1.267  1.3854 -0.9818 -1.1330
   14CHTO   C83 5624   4.828   4.791   1.213 -1.0434 -0.0493 -0.0618
   14CHTO  H155 5625   4.860   4.706   1.152 -2.7339  0.2006 -1.3236
   14CHTO   O56 5626   4.942   4.850   1.275  0.1152  0.4057 -0.8894
   14CHTO  H135 5627   5.022   4.823   1.233 -0.1988  0.1065 -1.2993
   14CHTO   C81 5628   4.740   4.884   1.124  0.7136  0.0418 -0.0176
   14CHTO  H153 5629   4.655   4.827   1.087 -0.2195  1.4040 -0.0337
   14CHTO   N14 5630   4.811   4.920   0.999 -0.6425  0.0114  0.4119
   14CHTO  H141 5631   4.899   4.979   1.019 -0.4417  0.1413 -0.7870
   14CHTO  H142 5632   4.750   4.977   0.932 -0.2156  0.5649  0.4842
   14CHTO   C79 5633   4.686   5.003   1.207 -0.0033  0.9508 -0.4724
   14CHTO  H151 5634   4.605   5.049   1.150 -1.3058  1.2449  1.5574
   14CHTO   O52 5635   4.616   4.955   1.325  0.3025 -0.1389 -0.5476
   14CHTO   C86 5636   4.679   4.851   1.412 -0.0784 -0.1354  0.1427
   14CHTO  H158 5637   4.766   4.899   1.462  0.5022  0.9644 -1.8780
   14CHTO   C90 5638   4.582   4.796   1.518 -0.1156  0.5281 -0.5583
   14CHTO   O60 5639   4.553   4.904   1.608 -0.3814  0.4109  0.1642
   14CHTO  H138 5640   4.520   4.868   1.688  2.3542 -0.6337  0.8658
   14CHTO   O50 5641   4.790   5.093   1.242  0.0306 -0.4398 -0.0370
   14CHTO   C73 5642   4.769   5.231   1.289 -0.2005 -0.2194 -0.0514
   14CHTO  H145 5643   4.668   5.243   1.331  0.5135 -1.4549  2.1376
   14CHTO   C74 5644   4.778   5.337   1.174 -0.6072  0.0967  0.0951
   14CHTO  H146 5645   4.703   5.311   1.096 -0.1430  2.0370 -1.0215
   14CHTO   O54 5646   4.741   5.466   1.226  0.1896  0.2346 -0.1874
   14CHTO  H133 5647   4.769   5.540   1.176  1.7207  0.4188  0.9272
   14CHTO   C75 5648   4.924   5.332   1.118  0.4657  1.1824 -0.2810
   14CHTO  H147 5649   4.934   5.234   1.069  0.1759  0.7033  0.6165
   14CHTO   N13 5650   4.954   5.427   1.008 -0.9656 -0.1545  0.2322
   14CHTO  H139 5651   4.963   5.530   1.038 -0.1621  0.4449 -1.9756
   14CHTO  H140 5652   5.026   5.390   0.936 -0.9370 -0.5854  0.4832
   14CHTO   C76 5653   5.035   5.352   1.233  0.2062 -0.3364  0.1273
   14CHTO  H148 5654   5.049   5.456   1.261  0.7467  0.0102 -1.4184
   14CHTO   O49 5655   5.010   5.269   1.351 -0.4337 -0.4506 -0.1341
   14CHTO   C77 5656   4.875   5.266   1.398  0.0720 -0.2873  0.6938
   14CHTO  H149 5657   4.851   5.367   1.432 -1.0566 -0.1431 -0.4900
   14CHTO   C88 5658   4.884   5.172   1.517 -0.5830  0.4535 -0.6653
   14CHTO   O58 5659   4.769   5.181   1.609 -0.8526  0.0235  0.1064
   14CHTO  H136 5660   4.694   5.149   1.564  0.6752 -1.6059 -1.3872
   14CHTO   O51 5661   5.185   5.287   1.158  0.1141  0.1953  0.1389
   14CHTO   C78 5662   5.316   5.367   1.203 -0.0371  0.3103  0.9936
   14CHTO  H150 5663   5.301   5.394   1.310 -0.1689  0.3443  0.9658
   14CHTO   C80 5664   5.330   5.495   1.119  0.0826  0.0520  0.2521
   14CHTO  H152 5665   5.291   5.475   1.017 -1.4499 -0.3217  0.9026
   14CHTO   O55 5666   5.242   5.597   1.170  0.4015 -0.0641  0.2572
   14CHTO  H134 5667   5.237   5.584   1.263 -2.1907 -1.9624 -0.0943
   14CHTO   C84 5668   5.484   5.541   1.103 -0.0912 -0.0050  0.0286
   14CHTO  H156 5669   5.504   5.586   1.200  0.9213 -1.2295  0.3874
   14CHTO   N15 5670   5.516   5.644   0.997  0.3315 -0.0133 -0.3407
   14CHTO  H143 5671   5.476   5.741   1.017  0.4119  0.0631 -0.5504
   14CHTO  H144 5672   5.620   5.655   0.974  0.8432  0.4931  2.0949
   14CHTO   C87 5673   5.578   5.420   1.090  0.7512 -0.1671  0.0674
   14CHTO  H159 5674   5.566   5.378   0.990  1.5844  1.5881 -0.8039
   14CHTO   O53 5675   5.554   5.340   1.200  0.0237  0.2157  0.1977
   14CHTO   C82 5676   5.433   5.263   1.189 -0.0693 -0.0035 -0.0896
   14CHTO  H154 5677   5.414   5.208   1.098 -0.5879  2.1561 -1.3340
   14CHTO   C89 5678   5.436   5.159   1.307  0.0987 -0.0896  0.9054
   14CHTO   O59 5679   5.323   5.074   1.306 -0.2716  0.0157 -0.2703
   14CHTO  H137 5680   5.336   5.007   1.241 -0.2912 -1.2964  1.0509
   14CHTO   O45 5681   5.736   5.469   1.100  0.1407  0.2508  0.5493
   14CHTO   C67 5682   5.834   5.385   1.036  0.3709  0.2093  0.3102
   14CHTO  H124 5683   5.799   5.291   0.993 -0.1170  0.2849  0.5430
   14CHTO   C65 5684   5.910   5.462   0.911 -0.2330  0.1996  0.0261
   14CHTO  H122 5685   5.832   5.503   0.846  1.6935  1.6427 -1.4407
   14CHTO   O44 5686   5.972   5.357   0.837  0.1735  0.2680  0.4395
   14CHTO  H102 5687   5.966   5.379   0.746 -0.5818  1.6975  0.8252
   14CHTO   C63 5688   6.006   5.578   0.961  0.1648 -0.1573  0.3932
   14CHTO  H120 5689   5.939   5.653   1.004  0.3688  1.1482 -1.5077
   14CHTO   N11 5690   6.070   5.665   0.848 -0.3603  0.2138 -0.4050
   14CHTO  H108 5691   6.108   5.763   0.870  0.8192  0.1178 -1.9153
   14CHTO  H109 5692   6.153   5.613   0.806  0.7355  1.3034  0.3871
   14CHTO   C61 5693   6.117   5.522   1.064 -0.1087  0.1405  0.3721
   14CHTO  H118 5694   6.166   5.610   1.109 -2.0607 -0.2202  3.3842
   14CHTO   O40 5695   6.053   5.450   1.175 -0.4892 -0.1662 -0.7230
   14CHTO   C68 5696   5.946   5.345   1.145  0.5240  0.3405  0.4152
   14CHTO  H125 5697   5.896   5.326   1.242 -0.0636 -0.1785  0.0144
   14CHTO   C72 5698   6.018   5.210   1.108 -0.0066 -0.0068  0.4292
   14CHTO   O48 5699   6.120   5.178   1.200 -0.2808  0.1956 -0.5801
   14CHTO  H105 5700   6.197   5.216   1.164  0.7281 -1.4638 -0.1917
   14CHTO   O38 5701   6.218   5.431   1.019 -0.0650  0.0947  0.0696
   14CHTO   C55 5702   6.340   5.463   0.947 -0.6014  0.0368  0.5149
   14CHTO  H112 5703   6.335   5.566   0.908 -2.8858 -0.6202 -1.1128
   14CHTO   C56 5704   6.367   5.358   0.823  0.6085  0.4831 -0.6585
   14CHTO  H113 5705   6.335   5.259   0.857  0.4047  0.8465  0.2274
   14CHTO   O42 5706   6.282   5.393   0.715  0.3007  0.1896 -0.0586
   14CHTO  H100 5707   6.296   5.473   0.669 -0.6946  0.6510  0.4194
   14CHTO   C57 5708   6.522   5.353   0.772 -0.2007 -0.1055 -0.2822
   14CHTO  H114 5709   6.534   5.452   0.728 -1.1569 -0.5228 -1.5168
   14CHTO   N10 5710   6.542   5.249   0.667 -0.0466  0.4713 -0.6817
   14CHTO  H106 5711   6.478   5.164   0.685 -1.0204  1.2078 -0.6297
   14CHTO  H107 5712   6.522   5.296   0.572  0.4571 -0.2269 -1.1365
   14CHTO   C58 5713   6.608   5.331   0.895  0.3719  0.2457 -0.2793
   14CHTO  H115 5714   6.571   5.241   0.949 -0.3666 -0.1289 -1.3991
   14CHTO   O37 5715   6.587   5.448   0.980 -0.4704  0.4268  0.1940
   14CHTO   C59 5716   6.455   5.450   1.049 -0.3721 -0.0474 -0.2610
   14CHTO  H116 5717   6.453   5.358   1.107  1.8712  0.3288  0.4329
   14CHTO   C70 5718   6.443   5.573   1.142 -0.9769  0.0665  0.2154
   14CHTO   O46 5719   6.547   5.581   1.238 -0.0762 -0.0095  0.3144
   14CHTO  H103 5720   6.568   5.671   1.255 -0.2788 -0.3226  2.3536
   14CHTO   O39 5721   6.765   5.333   0.857  0.2983 -0.4785 -0.2624
   14CHTO   C60 5722   6.863   5.294   0.956  0.1580 -0.0398  0.2252
   14CHTO  H117 5723   6.853   5.343   1.053  0.5737 -1.3576  0.9355
   14CHTO   C62 5724   6.851   5.141   0.992 -0.2608  0.6252  0.3279
   14CHTO  H119 5725   6.756   5.134   1.048 -1.2084 -0.0961 -1.3297
   14CHTO   O43 5726   6.848   5.068   0.869 -0.2192 -0.3812 -0.6205
   14CHTO  H101 5727   6.771   5.015   0.864 -1.5159  1.2376  1.6071
   14CHTO   C66 5728   6.976   5.102   1.087 -0.8826 -0.1132 -0.2433
   14CHTO  H123 5729   6.974   5.162   1.178  0.2986 -2.0274  1.0859
   14CHTO   N12 5730   6.966   4.964   1.126  0.3928  0.4150  0.3712
   14CHTO  H110 5731   6.993   4.952   1.230  0.3539  1.2040  0.4766
   14CHTO  H111 5732   6.877   4.909   1.099 -0.2217  1.1825  0.8274
   14CHTO   C69 5733   7.109   5.129   1.009 -0.2468  0.2084  0.6351
   14CHTO  H126 5734   7.117   5.092   0.904 -0.5136  0.1865  0.6216
   14CHTO   O41 5735   7.121   5.267   0.996  0.2528  0.7233  0.6675
   14CHTO   C64 5736   7.005   5.329   0.901  0.3595  0.7401  0.6350
   14CHTO  H121 5737   7.017   5.289   0.798  0.2131 -0.1197  0.9469
   14CHTO   C71 5738   7.030   5.484   0.896 -0.0377  0.3235  0.3304
   14CHTO   O47 5739   7.144   5.505   0.813 -0.3987  0.1277 -0.1975
   14CHTO  H104 5740   7.151   5.598   0.806 -1.9667  0.3281  0.7467
   14CHTO   O34 5741   7.244   5.080   1.079 -0.1701  0.5737 -0.2224
   14CHTO   C49 5742   7.389   5.074   0.998  0.7744 -0.0037  0.1806
   14CHTO   H91 5743   7.375   4.998   0.922  0.1720 -0.7128  0.9861
   14CHTO   C47 5744   7.504   5.028   1.095 -0.3129  0.4481  0.5554
   14CHTO   H89 5745   7.595   5.021   1.033  0.2628  0.1898  1.4140
   14CHTO   O33 5746   7.469   4.891   1.142 -0.4835  0.2234 -0.0600
   14CHTO   H70 5747   7.515   4.829   1.088 -1.7410  0.6200 -1.6314
   14CHTO   C45 5748   7.519   5.132   1.219 -0.4895  0.2200 -0.2301
   14CHTO   H87 5749   7.459   5.096   1.304 -0.6559  0.1389 -0.3838
   14CHTO    N8 5750   7.661   5.135   1.266  0.3581  0.1902  0.0271
   14CHTO   H75 5751   7.684   5.032   1.285  1.3720  0.1026 -1.6918
   14CHTO   H76 5752   7.682   5.196   1.353  0.1717  0.4034 -0.0766
   14CHTO   C43 5753   7.453   5.277   1.179 -0.4342 -0.3873  0.2848
   14CHTO   H85 5754   7.345   5.272   1.188 -0.7760  1.0045 -2.5610
   14CHTO   O29 5755   7.486   5.313   1.045 -0.3543 -0.3191 -0.3242
   14CHTO   C50 5756   7.434   5.219   0.946  0.0480  0.2554  0.4619
   14CHTO   H92 5757   7.340   5.265   0.911 -0.0093 -1.9149 -2.3635
   14CHTO   C54 5758   7.523   5.202   0.820 -0.1343 -0.1448  0.4823
   14CHTO   O36 5759   7.529   5.333   0.765  0.9169  0.5097 -0.7808
   14CHTO   H72 5760   7.593   5.334   0.697  2.6271  1.1146  0.7948
   14CHTO   O27 5761   7.482   5.394   1.265 -0.0529 -0.4462 -0.3739
   14CHTO   C37 5762   7.416   5.515   1.309 -0.2626 -0.5555 -0.1701
   14CHTO   H79 5763   7.491   5.591   1.336  0.8514 -1.6595 -0.1032
   14CHTO   C38 5764   7.330   5.576   1.197  0.1307 -0.2846  0.7789
   14CHTO   H80 5765   7.257   5.507   1.153 -0.2060  1.8573 -2.2218
   14CHTO   O31 5766   7.433   5.612   1.092  0.2781 -0.4781  0.0168
   14CHTO   H68 5767   7.487   5.681   1.125  1.4769 -1.7036  0.6638
   14CHTO   C39 5768   7.252   5.697   1.251 -0.4271  0.3639  0.0619
   14CHTO   H81 5769   7.326   5.776   1.261 -0.8545  0.6408  1.0869
   14CHTO    N7 5770   7.143   5.745   1.162  0.2199  0.3251 -0.2872
   14CHTO   H73 5771   7.074   5.663   1.150  0.0417  0.2554  1.1718
   14CHTO   H74 5772   7.181   5.771   1.064 -1.3020  1.7044 -0.5288
   14CHTO   C40 5773   7.182   5.648   1.391  0.1828  0.0534  0.1414
   14CHTO   H82 5774   7.102   5.576   1.374  1.6228 -1.9506  1.6608
   14CHTO   O26 5775   7.274   5.595   1.482  0.7284  0.2425  0.0188
   14CHTO   C41 5776   7.340   5.478   1.439  0.2047 -0.0189 -0.1225
   14CHTO   H83 5777   7.275   5.392   1.419  0.2104  0.2547 -1.3773
   14CHTO   C52 5778   7.444   5.434   1.541 -0.5146 -0.0550 -0.1632
   14CHTO   O35 5779   7.421   5.461   1.675 -0.1991  0.0178  0.0758
   14CHTO   H71 5780   7.448   5.549   1.689 -1.6511  1.2649 -4.0828
   14CHTO   O28 5781   7.132   5.762   1.465  0.1221  0.1662 -0.4070
   14CHTO   C42 5782   7.010   5.751   1.545 -0.0418  0.1558 -0.4273
   14CHTO   H84 5783   7.021   5.844   1.600 -0.9457 -0.6888  1.2394
   14CHTO   C44 5784   7.000   5.636   1.647 -0.4551 -0.4131  0.4952
   14CHTO   H86 5785   7.003   5.541   1.594  0.3163 -0.7174  1.0618
   14CHTO   O32 5786   7.121   5.653   1.729  0.5969  0.5977 -0.1447
   14CHTO   H69 5787   7.106   5.715   1.798 -0.8231 -0.0770  0.1753
   14CHTO   C48 5788   6.866   5.634   1.727 -0.0929  0.0412 -0.1279
   14CHTO   H90 5789   6.866   5.719   1.796 -0.8587 -0.5236  0.5717
   14CHTO    N9 5790   6.851   5.517   1.822 -0.0415 -0.2176 -0.2237
   14CHTO   H77 5791   6.909   5.495   1.910  0.0172 -0.2810 -0.2787
   14CHTO   H78 5792   6.749   5.502   1.854  0.1574 -0.6450  0.2070
   14CHTO   C51 5793   6.750   5.631   1.620 -0.2159  0.2623  0.0492
   14CHTO   H93 5794   6.760   5.537   1.567  1.6069  0.1120  0.6475
   14CHTO   O30 5795   6.762   5.750   1.536  0.6465  0.4917 -0.9854
   14CHTO   C46 5796   6.877   5.756   1.458  0.6117  0.2082  0.6373
   14CHTO   H88 5797   6.871   5.674   1.387 -1.1610  1.6609 -0.9427
   14CHTO   C53 5798   6.853   5.894   1.372 -0.5454 -0.0124 -0.3203
   14CHTO   O72 5799   6.896   6.013   1.439  0.2180  0.3437 -0.3470
   14CHTO  H199 5800   6.853   6.016   1.523 -1.8396 -0.4540 -1.3331
   14CHTO   O22 5801   6.613   5.641   1.668  0.2869  0.7655  0.3359
   14CHTO   C31 5802   6.501   5.608   1.577 -0.0472  0.3475  0.5526
   14CHTO   H59 5803   6.539   5.607   1.473 -0.9717 -3.2988  0.1933
   14CHTO   C29 5804   6.441   5.468   1.607  0.2836  0.2452  0.3651
   14CHTO   H57 5805   6.409   5.482   1.711 -4.5670  0.7725 -1.0320
   14CHTO   O21 5806   6.552   5.371   1.600  0.3331  0.2232  0.0718
   14CHTO   H37 5807   6.519   5.284   1.598 -1.7859  1.0399 -1.7496
   14CHTO   C27 5808   6.308   5.442   1.521  1.0739 -0.1863  0.3220
   14CHTO   H55 5809   6.331   5.430   1.414  0.6330 -0.1937  0.2283
   14CHTO    N5 5810   6.233   5.321   1.562  0.0835 -0.2672 -0.1630
   14CHTO   H43 5811   6.202   5.338   1.665  0.3769  0.3736 -0.1759
   14CHTO   H44 5812   6.299   5.235   1.560 -0.2294 -0.4753 -1.8011
   14CHTO   C25 5813   6.207   5.568   1.528  0.2487 -0.3677 -0.0931
   14CHTO   H53 5814   6.171   5.579   1.631 -2.0143  0.8658 -0.9899
   14CHTO   O17 5815   6.280   5.683   1.495 -0.2209  0.1898 -0.2006
   14CHTO   C32 5816   6.390   5.717   1.581  0.9390 -0.0515 -0.3503
   14CHTO   H60 5817   6.360   5.727   1.685 -1.3407 -2.1576 -0.7659
   14CHTO   C36 5818   6.435   5.855   1.533 -0.3315 -0.3440  0.1556
   14CHTO   O25 5819   6.478   5.849   1.396 -0.5795  0.5957 -0.0720
   14CHTO   H40 5820   6.408   5.824   1.339 -0.6077 -0.0169  0.2348
   14CHTO   O15 5821   6.072   5.553   1.436  0.0697 -0.3761  0.2258
   14CHTO   C19 5822   5.933   5.601   1.421 -0.0437 -0.3144 -0.4068
   14CHTO   H47 5823   5.914   5.572   1.317  1.7688  0.0725 -0.8614
   14CHTO   C20 5824   5.832   5.540   1.519  0.1456 -0.5378  0.2596
   14CHTO   H48 5825   5.863   5.550   1.624 -1.2438 -0.7104  0.7077
   14CHTO   O19 5826   5.814   5.400   1.478 -0.2273 -0.1305 -0.1835
   14CHTO   H35 5827   5.898   5.360   1.467 -0.3054  0.4551 -3.2720
   14CHTO   C21 5828   5.688   5.604   1.513 -0.0918 -0.5741 -0.8104
   14CHTO   H49 5829   5.648   5.589   1.412  1.1695 -0.3983 -1.3355
   14CHTO    N4 5830   5.591   5.547   1.607  0.3590  0.3290 -0.1946
   14CHTO   H41 5831   5.623   5.562   1.709  1.8117  0.8539 -0.7226
   14CHTO   H42 5832   5.573   5.441   1.590 -0.1512  0.3371  0.2891
   14CHTO   C22 5833   5.703   5.755   1.519  1.0025  0.0739 -0.4887
   14CHTO   H50 5834   5.741   5.777   1.619  2.5676 -1.1543 -0.8022
   14CHTO   O14 5835   5.790   5.799   1.417 -0.4188  0.2696 -1.2583
   14CHTO   C23 5836   5.923   5.753   1.426 -0.4982 -0.2025 -0.0226
   14CHTO   H51 5837   5.965   5.797   1.517 -2.0929  1.4534 -0.0607
   14CHTO   C34 5838   6.005   5.822   1.313  1.0397  0.7185 -0.1438
   14CHTO   O23 5839   6.009   5.962   1.331 -0.0990 -0.0232  0.1549
   14CHTO   H38 5840   6.007   5.980   1.423  0.9622 -1.0244  0.3918
   14CHTO   O16 5841   5.578   5.816   1.485 -0.2146  0.6531  0.7898
   14CHTO   C24 5842   5.542   5.979   1.515 -0.4841  0.0923  0.2103
   14CHTO   H52 5843   5.529   6.033   1.422 -2.8895 -0.8204 -0.0244
   14CHTO   C26 5844   5.647   6.055   1.595 -0.3963 -0.0712  0.0857
   14CHTO   H54 5845   5.654   6.013   1.697 -0.3694 -1.2324 -0.3825
   14CHTO   O20 5846   5.772   6.040   1.528  0.2543 -0.0141 -0.1939
   14CHTO   H36 5847   5.843   6.028   1.589  0.1387  0.6957  0.0873
   14CHTO   C30 5848   5.610   6.206   1.616 -0.0871  0.3289  0.3127
   14CHTO   H58 5849   5.601   6.262   1.521 -2.0237  1.6811  1.2537
   14CHTO    N6 5850   5.713   6.280   1.702  0.2396 -0.0516 -0.3797
   14CHTO   H45 5851   5.673   6.373   1.739 -0.3496 -0.1906 -0.6603
   14CHTO   H46 5852   5.739   6.216   1.785  1.1611 -1.1331 -1.4766
   14CHTO   C33 5853   5.466   6.210   1.679  0.0676 -0.5585  0.1842
   14CHTO   H61 5854   5.464   6.174   1.783 -2.4527  1.5555  0.9270
   14CHTO   O18 5855   5.372   6.126   1.607 -0.8443 -0.1380 -0.7832
   14CHTO   C28 5856   5.407   5.987   1.592 -0.3199 -0.0976 -0.0116
   14CHTO   H56 5857   5.419   5.942   1.691  0.4174 -1.3597 -0.6634
   14CHTO   C35 5858   5.290   5.915   1.521 -0.6029 -0.1739  0.0128
   14CHTO   O24 5859   5.167   5.937   1.589  0.4525 -0.8289 -0.1875
   14CHTO   H39 5860   5.093   5.926   1.532 -1.6180 -1.2222  2.4392
   14CHTO    O9 5861   5.414   6.345   1.688  0.1207  0.0601 -0.0252
   14CHTO   C13 5862   5.284   6.373   1.801 -0.2614  0.6417  0.0100
   14CHTO   H26 5863   5.305   6.326   1.900 -1.2813  0.2516  0.0391
   14CHTO   C11 5864   5.145   6.332   1.740  0.3119 -0.4663  0.3263
   14CHTO   H24 5865   5.131   6.223   1.738  0.3341 -0.4685  0.2982
   14CHTO    O8 5866   5.145   6.379   1.603 -0.1834  0.8803 -0.3583
   14CHTO    H3 5867   5.169   6.310   1.544 -2.8776 -1.0111  0.6477
   14CHTO    C9 5868   5.036   6.391   1.830 -0.0938 -0.6660  0.3917
   14CHTO   H22 5869   5.045   6.338   1.927 -3.2067  0.0168  1.1148
   14CHTO    N2 5870   4.901   6.352   1.794  0.0290 -0.1642  0.5239
   14CHTO   H10 5871   4.893   6.246   1.776 -0.4506  0.1222 -1.0103
   14CHTO   H11 5872   4.829   6.378   1.871 -2.2186  0.1722 -1.6093
   14CHTO    C7 5873   5.051   6.547   1.850  0.0468 -0.4861 -0.2973
   14CHTO   H20 5874   5.087   6.548   1.955  0.8857  0.7753 -0.5870
   14CHTO    O4 5875   5.165   6.594   1.780  0.2551  0.1082  0.2157
   14CHTO   C14 5876   5.284   6.533   1.835 -0.0808  0.7930 -0.1942
   14CHTO   H27 5877   5.285   6.549   1.945  3.5605  0.2819 -0.0913
   14CHTO   C18 5878   5.408   6.605   1.781 -0.2015 -0.1762  0.2101
   14CHTO   O13 5879   5.403   6.737   1.831  0.4153 -0.9602  0.5318
   14CHTO    H7 5880   5.396   6.796   1.758 -0.7482 -1.8634 -0.1049
   14CHTO    O2 5881   4.928   6.633   1.812  0.5003  0.2513  0.1546
   14CHTO    C1 5882   4.917   6.770   1.858 -0.0849 -0.3757 -0.3873
   14CHTO   H14 5883   4.837   6.824   1.803 -0.5064  2.2979  2.6824
   14CHTO    C2 5884   5.049   6.866   1.836 -0.2982 -0.1120 -0.0567
   14CHTO   H15 5885   5.133   6.812   1.882  0.3600  1.7013  0.9340
   14CHTO    O6 5886   5.066   6.869   1.689  0.1218  0.3030  0.0820
   14CHTO    H1 5887   5.126   6.809   1.648  0.0139  0.5156 -0.3899
   14CHTO    C3 5888   5.021   7.011   1.895 -0.1449 -0.5417 -0.2155
   14CHTO   H16 5889   4.947   7.060   1.829  0.5911  0.6028 -0.2127
   14CHTO    N1 5890   5.144   7.095   1.888  0.0758 -0.1738 -0.3211
   14CHTO    H8 5891   5.118   7.190   1.933 -2.7855 -0.6214 -0.9491
   14CHTO    H9 5892   5.175   7.107   1.785  1.2970  0.5662  0.1205
   14CHTO    C4 5893   4.954   7.005   2.034 -0.1393  0.0840 -0.6125
   14CHTO   H17 5894   5.037   6.985   2.103 -0.7850 -1.6576 -0.3127
   14CHTO    O1 5895   4.842   6.917   2.048  0.0853  0.1934  0.6036
   14CHTO    C5 5896   4.871   6.779   2.007  0.7502 -0.4629 -0.0475
   14CHTO   H18 5897   4.945   6.736   2.073  0.5708  0.2667  0.6260
   14CHTO   C16 5898   4.739   6.703   2.024 -0.0567 -0.4336 -0.2477
   14CHTO   O11 5899   4.676   6.722   2.150  0.3590 -0.3469  0.0307
   14CHTO    H5 5900   4.704   6.795   2.202  1.4636 -1.3186  0.8130
   14CHTO    O3 5901   4.895   7.135   2.080 -0.1558 -0.1708  0.0853
   14CHTO    C6 5902   4.868   7.151   2.219 -0.0831  0.3359  0.3258
   14CHTO   H19 5903   4.897   7.063   2.276 -0.0887 -0.2826 -0.6143
   14CHTO    C8 5904   4.935   7.280   2.261  0.7273  0.2728 -0.1345
   14CHTO   H21 5905   4.905   7.359   2.193  1.3380 -0.1785 -0.9266
   14CHTO    O7 5906   5.079   7.265   2.263  0.0609  0.3647  0.5568
   14CHTO    H2 5907   5.100   7.204   2.331 -0.9077 -3.1383 -2.1392
   14CHTO   C12 5908   4.887   7.336   2.405 -0.4738 -0.5821  0.2815
   14CHTO   H25 5909   4.938   7.272   2.481  1.7437  1.5035  0.6400
   14CHTO    N3 5910   4.940   7.475   2.432 -0.2398 -0.0807 -0.1275
   14CHTO   H12 5911   4.901   7.512   2.526 -2.5643  1.8695 -1.7862
   14CHTO   H13 5912   4.925   7.549   2.355  1.5850 -0.3179 -0.7310
   14CHTO   C15 5913   4.731   7.325   2.415  0.0384 -0.4364  0.1839
   14CHTO   H28 5914   4.685   7.397   2.347 -0.0642  0.0403  0.7577
   14CHTO   O10 5915   4.670   7.327   2.550  0.2175  0.3205  0.1141
   14CHTO    H4 5916   4.662   7.410   2.591 -1.1756  0.9236 -1.3386
   14CHTO    O5 5917   4.690   7.196   2.382 -0.0031  0.4321 -0.8121
   14CHTO   C10 5918   4.716   7.176   2.240  0.0778 -0.5037 -0.1928
   14CHTO   H23 5919   4.682   7.259   2.179  1.3060 -0.7308 -1.2088
   14CHTO   C17 5920   4.620   7.061   2.204  0.3830  0.0201  0.6996
   14CHTO   O12 5921   4.647   6.953   2.293  0.3175 -0.0174 -0.5226
   14CHTO    H6 5922   4.651   6.872   2.246  2.4336 -0.5999  0.5706
   15CHTO  H203 5923   7.464   4.198   1.813 -0.8616  0.9292 -2.0518
   15CHTO   O82 5924   7.385   4.249   1.822 -0.6918  0.8358  0.4612
   15CHTO  C123 5925   7.287   4.196   1.733 -0.7546 -0.1870 -0.7620
   15CHTO  H227 5926   7.272   4.089   1.754  1.3508 -0.2143  0.7208
   15CHTO   O77 5927   7.160   4.265   1.761 -0.1497 -0.5640  0.0163
   15CHTO  C118 5928   7.046   4.211   1.692  0.3367  1.3167 -0.3288
   15CHTO  H222 5929   7.029   4.104   1.710 -0.7083  1.7993  1.7492
   15CHTO  C125 5930   6.911   4.286   1.736  0.0393  0.0982  0.7814
   15CHTO   O84 5931   6.872   4.245   1.872 -0.1226 -0.0630 -0.1039
   15CHTO  H205 5932   6.933   4.287   1.930  0.5395 -0.5987 -0.4036
   15CHTO  C114 5933   7.063   4.245   1.542  0.4263  0.1214  0.5803
   15CHTO  H218 5934   7.078   4.353   1.536  0.5968  0.1029  0.6584
   15CHTO  C116 5935   7.201   4.173   1.492 -0.0855  0.8131 -0.1152
   15CHTO  H220 5936   7.182   4.064   1.499  0.4854  0.7628  0.7358
   15CHTO   O79 5937   7.226   4.208   1.352 -0.2037 -0.1278 -0.1200
   15CHTO  H201 5938   7.218   4.136   1.293  0.3503  0.0639 -0.4379
   15CHTO  C120 5939   7.325   4.213   1.580 -1.1882  0.2663  0.0780
   15CHTO  H224 5940   7.345   4.321   1.566 -0.9154 -0.1504 -2.9733
   15CHTO   N21 5941   7.450   4.133   1.555  0.4095  0.0971 -0.3752
   15CHTO  H211 5942   7.427   4.029   1.541 -3.5976  0.9922 -0.9993
   15CHTO  H212 5943   7.498   4.169   1.465 -0.6185  2.1069 -0.1672
   15CHTO   O75 5944   6.943   4.205   1.475 -0.6568  0.1248 -0.0454
   15CHTO  C112 5945   6.908   4.059   1.454  0.1343  0.7800  0.4070
   15CHTO  H216 5946   6.922   4.003   1.548 -0.0866  0.7137  0.4007
   15CHTO   O73 5947   7.005   4.013   1.356  0.0380 -0.0659 -0.3476
   15CHTO  C113 5948   7.001   3.874   1.328  0.2755  0.0301  0.2582
   15CHTO  H217 5949   7.008   3.811   1.419 -0.1887 -0.1904  0.1418
   15CHTO  C124 5950   7.131   3.844   1.252  0.3686  0.1429 -1.0405
   15CHTO   O83 5951   7.249   3.849   1.336  0.2504  0.3160  0.4826
   15CHTO  H204 5952   7.245   3.794   1.412 -1.0118 -0.1198  0.1107
   15CHTO  C109 5953   6.871   3.837   1.259  0.1811  0.2711  0.4824
   15CHTO  H213 5954   6.870   3.884   1.160 -0.8377 -0.9499 -0.0991
   15CHTO  C110 5955   6.753   3.884   1.351 -0.2622 -0.1652  0.4501
   15CHTO  H214 5956   6.742   3.817   1.436  1.9444  0.7511  1.4761
   15CHTO   O78 5957   6.633   3.871   1.270  1.0904 -0.1939 -0.4748
   15CHTO  H200 5958   6.555   3.886   1.320  1.5792 -1.9214  0.8400
   15CHTO  C111 5959   6.767   4.031   1.393  0.1898  0.0647  0.0010
   15CHTO  H215 5960   6.752   4.095   1.305 -4.1597 -0.6307  0.0918
   15CHTO   N19 5961   6.660   4.077   1.492  0.1852 -0.1741  0.2712
   15CHTO  H207 5962   6.701   4.157   1.551 -0.9207  1.6363 -1.3338
   15CHTO  H208 5963   6.565   4.118   1.462  0.1501  0.0637  0.7110
   15CHTO   O74 5964   6.869   3.693   1.243  0.2886 -0.2259  0.2708
   15CHTO  C115 5965   6.806   3.635   1.100  0.1830 -0.1561  0.3924
   15CHTO  H219 5966   6.745   3.709   1.047  0.1378  0.1378  0.8474
   15CHTO   O76 5967   6.930   3.590   0.996 -0.3592  0.4800 -0.0669
   15CHTO  C122 5968   7.011   3.502   1.072  0.0918  0.0930  0.1898
   15CHTO  H226 5969   7.056   3.562   1.151 -0.1740  0.6139 -0.0519
   15CHTO  C126 5970   7.136   3.442   0.988  0.0325 -0.1757  0.3076
   15CHTO   O85 5971   7.235   3.536   0.990 -0.2845 -0.6155  0.4071
   15CHTO  H206 5972   7.301   3.523   0.925  0.2325  1.3716  0.5217
   15CHTO  C121 5973   6.932   3.380   1.136  0.2144  0.0082  0.0677
   15CHTO  H225 5974   6.978   3.287   1.096  2.1944  1.3879 -0.9298
   15CHTO   O81 5975   6.944   3.372   1.281 -0.3128 -0.1458 -0.1166
   15CHTO  H202 5976   7.034   3.363   1.305 -0.0791  0.2317 -0.8406
   15CHTO  C119 5977   6.783   3.382   1.096  0.2008 -0.1256  0.2031
   15CHTO  H223 5978   6.771   3.365   0.989 -0.1106 -0.5402  0.3030
   15CHTO  C117 5979   6.709   3.519   1.134  0.1113 -0.4484 -0.0007
   15CHTO  H221 5980   6.685   3.526   1.240  0.7014 -0.3196  0.1256
   15CHTO   N20 5981   6.576   3.533   1.062  0.1585 -0.3228  0.0556
   15CHTO  H209 5982   6.539   3.633   1.080 -1.6369 -1.0464  0.5157
   15CHTO  H210 5983   6.592   3.515   0.957 -2.1323 -1.4801 -0.1319
   15CHTO   O80 5984   6.714   3.255   1.150 -0.0722  0.1566 -0.1006
   15CHTO  C103 5985   6.649   3.136   1.050  0.2065 -0.0678 -0.7094
   15CHTO  H190 5986   6.587   3.076   1.117  1.9160 -0.3387  0.6502
   15CHTO  C101 5987   6.568   3.176   0.925 -0.4392 -0.0514  0.1822
   15CHTO  H188 5988   6.627   3.250   0.872  1.4218 -1.1354  0.7202
   15CHTO   O68 5989   6.450   3.242   0.969 -0.3425 -0.3588 -0.0480
   15CHTO  H168 5990   6.380   3.179   0.976 -0.6928  0.0810  0.4488
   15CHTO   C99 5991   6.523   3.046   0.835  0.3221 -0.5655 -0.6744
   15CHTO  H186 5992   6.452   2.983   0.893 -1.1101  1.9527  0.4135
   15CHTO   N17 5993   6.456   3.075   0.708 -0.0558 -0.2564 -0.5492
   15CHTO  H174 5994   6.430   3.180   0.703  2.0787  0.2763 -1.0038
   15CHTO  H175 5995   6.510   3.040   0.621  0.2740 -0.6564 -0.1875
   15CHTO   C97 5996   6.648   2.960   0.806  0.2194 -0.3615 -0.0342
   15CHTO  H184 5997   6.717   3.015   0.740  0.1932 -1.3324 -0.8878
   15CHTO   O64 5998   6.715   2.931   0.932 -0.4720 -0.2384  0.4570
   15CHTO  C104 5999   6.771   3.043   1.008 -0.1053  0.2365  0.6548
   15CHTO  H191 6000   6.848   3.101   0.957 -1.3975  0.9030 -0.5644
   15CHTO  C108 6001   6.827   2.988   1.133 -0.4277 -0.8694  0.5886
   15CHTO   O71 6002   6.926   2.886   1.102 -0.6288 -0.6491 -0.0285
   15CHTO  H171 6003   6.880   2.820   1.053  1.4608 -1.0173 -1.5833
   15CHTO   O62 6004   6.613   2.830   0.750  0.7836  0.1182  0.0952
   15CHTO   C91 6005   6.719   2.769   0.682 -0.2179  0.0991  0.0051
   15CHTO  H178 6006   6.814   2.823   0.689 -0.8290  1.2868 -0.7533
   15CHTO   C92 6007   6.669   2.781   0.529 -0.4373  0.3424 -0.3734
   15CHTO  H179 6008   6.644   2.886   0.507  0.2102  0.3551 -1.0753
   15CHTO   O66 6009   6.771   2.754   0.433  0.2993 -0.1821 -0.0949
   15CHTO  H166 6010   6.839   2.819   0.441  0.7067 -0.4990 -0.8910
   15CHTO   C93 6011   6.550   2.682   0.489 -0.0062 -0.7287 -0.6019
   15CHTO  H180 6012   6.562   2.656   0.383  0.7924  1.5068 -1.1003
   15CHTO   N16 6013   6.422   2.753   0.492  0.2096 -0.9394 -0.2270
   15CHTO  H172 6014   6.430   2.856   0.462 -1.6305  0.6368  4.3267
   15CHTO  H173 6015   6.350   2.693   0.438 -0.5877 -0.0584 -0.1555
   15CHTO   C94 6016   6.552   2.552   0.585 -0.3040 -0.0502  0.0621
   15CHTO  H181 6017   6.481   2.560   0.667 -1.6734 -1.5867 -0.9326
   15CHTO   O61 6018   6.689   2.531   0.624 -0.1305 -0.2729  0.0747
   15CHTO   C95 6019   6.735   2.618   0.729  0.5980 -0.0782  0.0682
   15CHTO  H182 6020   6.673   2.598   0.817 -1.4921 -0.6938 -1.5052
   15CHTO  C106 6021   6.885   2.580   0.770 -0.4833  0.3993  0.2236
   15CHTO   O69 6022   6.925   2.650   0.883 -0.6132 -0.2795 -0.2266
   15CHTO  H169 6023   7.015   2.634   0.904 -0.9223  0.3343  1.6858
   15CHTO   O63 6024   6.503   2.446   0.506  0.1657 -0.3137  0.2631
   15CHTO   C96 6025   6.484   2.301   0.593 -0.1665 -0.0171  0.3246
   15CHTO  H183 6026   6.505   2.326   0.697 -0.1218  2.0179 -0.1464
   15CHTO   C98 6027   6.572   2.173   0.547 -0.1862  0.3111  0.4955
   15CHTO  H185 6028   6.580   2.179   0.438  0.2145  1.2853  0.5701
   15CHTO   O67 6029   6.707   2.188   0.601 -0.1067  0.1810  0.5734
   15CHTO  H167 6030   6.750   2.245   0.540  0.3985 -1.1504 -0.3294
   15CHTO  C102 6031   6.522   2.025   0.579  0.5927  0.5739  0.4726
   15CHTO  H189 6032   6.542   2.001   0.684 -0.2154 -1.3396  0.2056
   15CHTO   N18 6033   6.589   1.919   0.499 -0.4349 -0.8231 -0.0785
   15CHTO  H176 6034   6.684   1.892   0.544  0.3721  0.3425 -1.0686
   15CHTO  H177 6035   6.526   1.831   0.504 -1.1504 -0.3757 -1.1441
   15CHTO  C105 6036   6.367   2.021   0.557  0.3490  0.1554 -0.2799
   15CHTO  H192 6037   6.348   2.029   0.450 -0.8664  0.5415 -0.0433
   15CHTO   O65 6038   6.297   2.130   0.625  0.0765 -0.1594  0.1508
   15CHTO  C100 6039   6.330   2.264   0.584  0.4551 -0.0075  0.0952
   15CHTO  H187 6040   6.305   2.279   0.477 -1.4549 -2.2193  0.1977
   15CHTO  C107 6041   6.249   2.358   0.666 -0.0137  0.4023  0.1292
   15CHTO   O70 6042   6.236   2.494   0.620  0.4953 -0.2532 -0.3415
   15CHTO  H170 6043   6.286   2.552   0.674 -0.6868  0.2537  0.2244
   15CHTO   O57 6044   6.300   1.870   0.610 -0.0275  0.1593 -0.7271
   15CHTO   C85 6045   6.274   1.856   0.751  0.0097 -0.0748  0.5074
   15CHTO  H157 6046   6.309   1.949   0.800 -2.0326  0.4770  0.9742
   15CHTO   C83 6047   6.359   1.742   0.798 -0.6046  0.1220  0.2664
   15CHTO  H155 6048   6.462   1.765   0.769 -0.4752 -0.6286  0.1136
   15CHTO   O56 6049   6.322   1.632   0.726 -0.4764 -0.2765  0.3472
   15CHTO  H135 6050   6.246   1.590   0.762 -1.3610 -1.2155 -2.4153
   15CHTO   C81 6051   6.360   1.735   0.955  0.3672  0.1454  0.0018
   15CHTO  H153 6052   6.393   1.831   0.994  0.7893  0.4819 -1.1581
   15CHTO   N14 6053   6.456   1.637   1.010 -0.5498 -0.3857  0.0234
   15CHTO  H141 6054   6.559   1.668   1.004 -0.3754 -1.0649 -0.5578
   15CHTO  H142 6055   6.436   1.610   1.112 -0.1004 -0.6295  0.0529
   15CHTO   C79 6056   6.211   1.712   1.001 -0.4803  0.0472  0.0028
   15CHTO  H151 6057   6.204   1.724   1.109 -1.3882 -0.5415  0.0155
   15CHTO   O52 6058   6.114   1.807   0.937  0.1981 -0.3917 -0.0227
   15CHTO   C86 6059   6.131   1.824   0.789 -0.3798  0.5884  0.6067
   15CHTO  H158 6060   6.089   1.726   0.758  0.2809 -0.7133  3.6413
   15CHTO   C90 6061   6.033   1.934   0.740 -0.4466 -0.1290  0.1987
   15CHTO   O60 6062   5.899   1.872   0.753 -0.1334  0.0852 -0.1399
   15CHTO  H138 6063   5.879   1.877   0.844  1.1850 -0.3119  0.1881
   15CHTO   O50 6064   6.162   1.576   0.983  0.0668 -0.2538 -0.3994
   15CHTO   C73 6065   6.053   1.483   1.015 -0.3232 -0.1974  0.2005
   15CHTO  H145 6066   5.959   1.540   1.011 -0.4354 -0.4812 -1.6151
   15CHTO   C74 6067   6.055   1.432   1.162 -0.3539  0.1533 -0.5045
   15CHTO  H146 6068   6.055   1.525   1.220 -0.9461  1.4117 -2.4718
   15CHTO   O54 6069   5.934   1.361   1.193  0.0151 -0.1236 -0.1401
   15CHTO  H133 6070   5.876   1.348   1.121  1.5027  0.8781 -1.5392
   15CHTO   C75 6071   6.190   1.351   1.182 -0.2097  0.8094 -0.3454
   15CHTO  H147 6072   6.275   1.415   1.157 -0.5287  1.2493 -0.3080
   15CHTO   N13 6073   6.207   1.300   1.321 -0.0104  1.0073 -0.2833
   15CHTO  H139 6074   6.301   1.329   1.366  0.5005  0.0656 -0.7190
   15CHTO  H140 6075   6.119   1.327   1.378  1.7098  1.4142  2.2595
   15CHTO   C76 6076   6.183   1.225   1.074 -0.4347 -0.8917 -0.2858
   15CHTO  H148 6077   6.113   1.151   1.113  1.4511 -1.9543  1.2193
   15CHTO   O49 6078   6.155   1.271   0.940  0.2675 -0.2659  0.3450
   15CHTO   C77 6079   6.044   1.366   0.916 -0.0432  0.2084  0.3991
   15CHTO  H149 6080   5.948   1.320   0.938  0.0579  0.2512  0.9326
   15CHTO   C88 6081   6.055   1.400   0.768  0.1790  0.2300 -0.8481
   15CHTO   O58 6082   6.013   1.284   0.673 -0.1204  0.2234 -0.1589
   15CHTO  H136 6083   5.993   1.325   0.591  1.4159  4.1121  1.3114
   15CHTO   O51 6084   6.318   1.171   1.061  0.0448 -0.1094 -0.2740
   15CHTO   C78 6085   6.346   1.036   0.965  0.1017 -0.3034  0.4458
   15CHTO  H150 6086   6.281   1.040   0.875  1.2413 -1.1105 -0.4290
   15CHTO   C80 6087   6.315   0.901   1.035 -0.6446  0.4511  0.1483
   15CHTO  H152 6088   6.356   0.904   1.138  0.3467 -1.7522 -0.1597
   15CHTO   O55 6089   6.171   0.878   1.042 -0.0714 -0.1641  0.1492
   15CHTO  H134 6090   6.143   0.808   1.098  1.1636 -0.1073  0.8578
   15CHTO   C84 6091   6.395   0.779   0.976  0.2322  0.2929 -0.0977
   15CHTO  H156 6092   6.350   0.759   0.879  0.3241  0.3837 -0.1589
   15CHTO   N15 6093   6.370   0.650   1.052  0.1674  0.0983  0.1908
   15CHTO  H143 6094   6.462   0.610   1.089  0.2441 -0.2626 -0.3836
   15CHTO  H144 6095   6.328   0.576   0.987  1.0590  1.2066 -1.7250
   15CHTO   C87 6096   6.543   0.816   0.961  0.0927  0.1771  0.1561
   15CHTO  H159 6097   6.575   0.850   1.059  2.3470  3.2540 -1.5885
   15CHTO   O53 6098   6.539   0.932   0.870 -0.0444 -0.2742  0.5970
   15CHTO   C82 6099   6.492   1.054   0.931 -0.6176 -0.0259  0.5623
   15CHTO  H154 6100   6.548   1.084   1.020 -1.7584  0.7333  1.0392
   15CHTO   C89 6101   6.515   1.163   0.822  0.3297 -1.0343 -0.4607
   15CHTO   O59 6102   6.508   1.299   0.865  0.0343 -0.5175  0.0771
   15CHTO  H137 6103   6.552   1.353   0.802 -0.7504  0.6978  0.5479
   15CHTO   O45 6104   6.642   0.707   0.870 -0.0439 -0.6101  0.3200
   15CHTO   C67 6105   6.779   0.749   0.900  0.2676 -0.0821 -0.5926
   15CHTO  H124 6106   6.778   0.855   0.926  2.4212 -0.7242  2.2893
   15CHTO   C65 6107   6.841   0.673   1.024  0.4464  0.2597 -0.1607
   15CHTO  H122 6108   6.808   0.569   1.022 -1.2488  0.7406  1.3026
   15CHTO   O44 6109   6.783   0.736   1.140 -0.6891 -0.0800  0.1870
   15CHTO  H102 6110   6.821   0.694   1.215 -0.8155  0.6826  0.6895
   15CHTO   C63 6111   7.001   0.662   1.026 -0.5699 -0.0034  0.4735
   15CHTO  H120 6112   7.025   0.580   0.958 -1.1057  0.6570 -0.5409
   15CHTO   N11 6113   7.077   0.625   1.145 -0.8459 -0.0306  0.6661
   15CHTO  H108 6114   7.076   0.699   1.223  1.0722  1.9168 -1.0842
   15CHTO  H109 6115   7.020   0.537   1.167  0.1633 -0.8932 -0.1672
   15CHTO   C61 6116   7.059   0.797   0.958 -0.1511  0.5229 -0.3714
   15CHTO  H118 6117   7.169   0.788   0.951 -0.1751 -1.9455  1.6995
   15CHTO   O40 6118   7.003   0.817   0.823 -0.4263 -0.0487 -0.2315
   15CHTO   C68 6119   6.879   0.744   0.784 -0.0080  0.5719 -0.4912
   15CHTO  H125 6120   6.907   0.639   0.766 -0.6890  0.0540  1.3319
   15CHTO   C72 6121   6.831   0.807   0.649  0.5348 -0.3163  0.2529
   15CHTO   O48 6122   6.811   0.953   0.656 -0.1524  0.1287  0.6872
   15CHTO  H105 6123   6.901   0.978   0.654 -0.0840 -0.2060 -0.5230
   15CHTO   O38 6124   7.024   0.915   1.029  0.4620  0.6014  0.1169
   15CHTO   C55 6125   7.090   1.041   1.001  0.5321 -0.7271  0.3889
   15CHTO  H112 6126   7.118   1.030   0.895  2.6799  0.8758  0.7612
   15CHTO   C56 6127   7.216   1.057   1.094  0.6211  0.6616  0.0968
   15CHTO  H113 6128   7.181   1.042   1.197  2.3522  0.8834  0.7386
   15CHTO   O42 6129   7.316   0.957   1.062  0.3383 -0.5348 -0.1676
   15CHTO  H100 6130   7.277   0.879   1.026 -1.7012  0.6318 -0.5737
   15CHTO   C57 6131   7.282   1.195   1.068 -0.2085  0.2554 -0.1857
   15CHTO  H114 6132   7.319   1.196   0.965  0.3644  0.7384  0.0251
   15CHTO   N10 6133   7.390   1.229   1.162 -0.5455  0.0217 -0.2261
   15CHTO  H106 6134   7.346   1.259   1.256 -0.2312  0.7063 -0.2928
   15CHTO  H107 6135   7.450   1.142   1.185 -1.0686 -0.4533 -0.6428
   15CHTO   C58 6136   7.174   1.308   1.079 -0.4486  0.0668  0.5487
   15CHTO  H115 6137   7.133   1.311   1.182 -1.1772  1.8869  0.2159
   15CHTO   O37 6138   7.064   1.289   0.989 -0.4758 -0.6810 -0.4258
   15CHTO   C59 6139   6.997   1.167   1.021  0.1190  0.2797  0.0805
   15CHTO  H116 6140   6.958   1.161   1.123  1.3329  1.1031  0.6058
   15CHTO   C70 6141   6.878   1.168   0.930 -0.1697  0.0293 -0.4207
   15CHTO   O46 6142   6.780   1.269   0.959 -0.3373  0.4516  0.3581
   15CHTO  H103 6143   6.727   1.253   1.035  0.8195 -0.9504  0.8921
   15CHTO   O39 6144   7.235   1.463   1.035 -0.2926  0.2453  0.5056
   15CHTO   C60 6145   7.217   1.495   0.895 -0.2349 -0.6048  0.8669
   15CHTO  H117 6146   7.227   1.407   0.831  1.7514  0.4358 -0.3287
   15CHTO   C62 6147   7.085   1.571   0.859 -0.0169  0.5112  0.0769
   15CHTO  H119 6148   7.007   1.502   0.899  0.6642  0.5594  1.5121
   15CHTO   O43 6149   7.087   1.698   0.923 -0.1226 -0.0746 -0.2668
   15CHTO  H101 6150   7.143   1.759   0.879 -0.3717  1.8313  1.9503
   15CHTO   C66 6151   7.066   1.578   0.706 -0.0790 -0.2158  0.0679
   15CHTO  H123 6152   7.082   1.479   0.661 -2.1429 -1.3877  1.8689
   15CHTO   N12 6153   6.933   1.619   0.664  0.0658  0.1095  0.1566
   15CHTO  H110 6154   6.886   1.532   0.620  0.3036  0.4285 -0.7351
   15CHTO  H111 6155   6.880   1.659   0.749  0.5093  0.2862  0.3472
   15CHTO   C69 6156   7.177   1.672   0.652  0.5992 -0.2965  0.1910
   15CHTO  H126 6157   7.170   1.768   0.706 -1.5656 -0.5474  0.4004
   15CHTO   O41 6158   7.319   1.604   0.690 -0.1051 -0.4153  0.5719
   15CHTO   C64 6159   7.333   1.587   0.850  0.1079 -0.0653  0.3498
   15CHTO  H121 6160   7.324   1.679   0.911 -1.4964 -1.4249  2.2567
   15CHTO   C71 6161   7.475   1.528   0.876  0.0171  0.0023 -0.2556
   15CHTO   O47 6162   7.574   1.630   0.909  0.0835  0.2264 -0.3225
   15CHTO  H104 6163   7.645   1.591   0.956 -1.1883  0.2072  1.6606
   15CHTO   O34 6164   7.179   1.692   0.515 -0.2013 -0.2165 -0.0834
   15CHTO   C49 6165   7.183   1.739   0.382  0.6684  0.1782 -0.4678
   15CHTO   H91 6166   7.209   1.653   0.321 -2.0851 -0.7653 -0.3976
   15CHTO   C47 6167   7.297   1.842   0.369  0.0640  0.6254 -0.2407
   15CHTO   H89 6168   7.302   1.858   0.259 -1.1319 -1.4474 -0.6335
   15CHTO   O33 6169   7.416   1.774   0.413  0.3874 -0.4470 -0.4288
   15CHTO   H70 6170   7.443   1.799   0.499 -3.5570  0.5444  0.6388
   15CHTO   C45 6171   7.254   1.980   0.438  0.1210  0.3780  0.2306
   15CHTO   H87 6172   7.230   1.956   0.543 -1.4351  4.1686  0.8239
   15CHTO    N8 6173   7.367   2.072   0.431 -0.7655  0.4064 -0.8275
   15CHTO   H75 6174   7.403   2.068   0.329 -2.0804  0.1652 -1.2946
   15CHTO   H76 6175   7.429   2.039   0.513 -0.6402  1.3323 -0.5461
   15CHTO   C43 6176   7.114   2.039   0.377 -0.1856  0.3490 -0.7382
   15CHTO   H85 6177   7.087   2.118   0.446 -2.5219 -1.1003  0.1008
   15CHTO   O29 6178   7.020   1.930   0.384 -0.1175  0.9166  0.1656
   15CHTO   C50 6179   7.044   1.792   0.339 -0.3402 -0.6099 -0.1164
   15CHTO   H92 6180   6.968   1.729   0.387 -0.1397 -0.5191  0.3311
   15CHTO   C54 6181   7.027   1.767   0.192 -0.1566  0.3551 -0.1708
   15CHTO   O36 6182   6.888   1.774   0.151 -0.1037 -0.5730  0.3225
   15CHTO   H72 6183   6.881   1.758   0.059 -1.3181  0.2159  0.2714
   15CHTO   O27 6184   7.123   2.098   0.248 -0.1052 -0.5765  0.6558
   15CHTO   C37 6185   7.026   2.166   0.165 -0.0424 -0.4652  0.0437
   15CHTO   H79 6186   6.966   2.093   0.110 -1.0359  0.9248 -0.7676
   15CHTO   C38 6187   6.930   2.265   0.245 -0.1770 -0.4536 -0.0838
   15CHTO   H80 6188   6.992   2.327   0.312 -1.4108  1.1418 -0.3911
   15CHTO   O31 6189   6.845   2.186   0.335 -0.2066 -0.0584 -0.4169
   15CHTO   H68 6190   6.778   2.244   0.367  0.6409 -0.6043  2.4008
   15CHTO   C39 6191   6.851   2.357   0.148  0.0140 -0.1850  0.1832
   15CHTO   H81 6192   6.787   2.295   0.085  1.3467  0.4118 -1.8249
   15CHTO    N7 6193   6.765   2.460   0.217 -0.2160  0.7000 -0.0707
   15CHTO   H73 6194   6.672   2.472   0.162  1.1244 -0.8870 -2.8389
   15CHTO   H74 6195   6.811   2.558   0.213 -1.6636  1.3551 -1.8306
   15CHTO   C40 6196   6.948   2.421   0.046 -0.0981  0.0828 -0.4631
   15CHTO   H82 6197   7.010   2.501   0.086  0.3146 -0.6528  0.3921
   15CHTO   O26 6198   7.027   2.321  -0.021  0.8564 -0.4266  0.2346
   15CHTO   C41 6199   7.112   2.246   0.068 -0.1045 -0.0134 -0.7608
   15CHTO   H83 6200   7.170   2.327   0.116  0.9528 -1.4567  0.4541
   15CHTO   C52 6201   7.201   2.159  -0.019 -0.0733 -0.6305 -0.1757
   15CHTO   O35 6202   7.272   2.219  -0.144 -0.2738  0.1211 -0.6008
   15CHTO   H71 6203   7.295   2.152  -0.205 -0.0800  1.1924 -1.7375
   15CHTO   O28 6204   6.870   2.462  -0.069 -0.0795  0.3610 -0.3613
   15CHTO   C42 6205   6.867   2.563  -0.177 -0.7587 -0.3888  0.3922
   15CHTO   H84 6206   6.819   2.505  -0.255  1.1334 -0.5842 -0.6501
   15CHTO   C44 6207   6.999   2.621  -0.234 -0.4261 -0.4590 -0.2095
   15CHTO   H86 6208   7.072   2.638  -0.154  0.8571 -1.8899 -1.0445
   15CHTO   O32 6209   7.054   2.508  -0.299  0.3584  0.7722  0.2630
   15CHTO   H69 6210   7.091   2.518  -0.385 -1.4863 -1.2493 -0.8128
   15CHTO   C48 6211   6.983   2.740  -0.333 -0.2749  0.2780  0.3528
   15CHTO   H90 6212   6.931   2.703  -0.420  0.1877 -0.8347  0.5450
   15CHTO    N9 6213   7.124   2.796  -0.369  0.0447  0.3634  0.2231
   15CHTO   H77 6214   7.181   2.840  -0.289  1.5576  0.5618 -0.9311
   15CHTO   H78 6215   7.188   2.723  -0.415  1.0767  2.4870 -1.8591
   15CHTO   C51 6216   6.879   2.842  -0.279  0.4167  0.2030 -0.9682
   15CHTO   H93 6217   6.917   2.898  -0.193  0.2551  0.7602 -1.2602
   15CHTO   O30 6218   6.756   2.769  -0.248  0.1978 -0.5282  0.4261
   15CHTO   C46 6219   6.773   2.684  -0.139 -0.4998  0.1234  0.6113
   15CHTO   H88 6220   6.813   2.735  -0.051  0.9128  1.1661 -0.6117
   15CHTO   C53 6221   6.622   2.640  -0.093 -0.5614 -0.1017 -0.0936
   15CHTO   O72 6222   6.543   2.748  -0.044  0.4578 -0.4329  0.0180
   15CHTO  H199 6223   6.451   2.733  -0.046  0.3558  0.1313  0.4560
   15CHTO   O22 6224   6.841   2.942  -0.369 -0.3661  0.4409  0.7444
   15CHTO   C31 6225   6.794   3.085  -0.353 -0.0632  0.0705 -0.1251
   15CHTO   H59 6226   6.769   3.127  -0.452 -1.6863 -0.6511 -0.0440
   15CHTO   C29 6227   6.663   3.082  -0.274  0.3965  0.0309  0.4454
   15CHTO   H57 6228   6.671   3.022  -0.182 -2.0516 -0.7549  0.1989
   15CHTO   O21 6229   6.567   3.020  -0.363 -0.1040 -0.0462  0.0335
   15CHTO   H37 6230   6.484   3.024  -0.319  0.6429  0.7349  1.3942
   15CHTO   C27 6231   6.612   3.227  -0.229 -0.3252 -0.1942 -0.2944
   15CHTO   H55 6232   6.590   3.282  -0.321  0.6498 -0.1985 -0.5343
   15CHTO    N5 6233   6.490   3.221  -0.144  0.3196  0.3319 -0.2552
   15CHTO   H43 6234   6.403   3.193  -0.201 -1.5308 -0.3363  2.7923
   15CHTO   H44 6235   6.474   3.324  -0.114  2.3188 -0.0556  2.3724
   15CHTO   C25 6236   6.732   3.306  -0.158 -0.3483  0.0347 -0.3369
   15CHTO   H53 6237   6.751   3.243  -0.070  0.2015 -0.1090 -0.5609
   15CHTO   O17 6238   6.853   3.312  -0.243 -0.3054 -0.2623 -0.0169
   15CHTO   C32 6239   6.901   3.184  -0.284  0.1931  0.2468  0.4789
   15CHTO   H60 6240   6.940   3.132  -0.196  0.6313  0.4614  0.4153
   15CHTO   C36 6241   7.030   3.213  -0.371  0.2020 -0.3223 -0.1073
   15CHTO   O25 6242   7.122   3.289  -0.295 -0.3757  0.8041 -0.0066
   15CHTO   H40 6243   7.191   3.316  -0.353  0.6414 -1.7024 -0.0238
   15CHTO   O15 6244   6.694   3.451  -0.123  1.0396 -0.4465  0.1065
   15CHTO   C19 6245   6.758   3.571  -0.069  0.1015  0.3096 -0.0516
   15CHTO   H47 6246   6.848   3.587  -0.131  1.4958 -0.4706  1.7162
   15CHTO   C20 6247   6.668   3.692  -0.067 -0.3560 -0.1676 -0.3629
   15CHTO   H48 6248   6.572   3.672  -0.017 -0.0476 -0.0840  0.2608
   15CHTO   O19 6249   6.650   3.714  -0.209 -0.1842 -0.0059 -0.3910
   15CHTO   H35 6250   6.616   3.795  -0.242 -0.9738 -0.1459  0.0890
   15CHTO   C21 6251   6.728   3.818  -0.009 -0.0784 -0.1084 -0.8131
   15CHTO   H49 6252   6.814   3.847  -0.069  0.7091 -2.2645 -0.7575
   15CHTO    N4 6253   6.641   3.941  -0.012 -0.2283  0.5762  0.2707
   15CHTO   H41 6254   6.690   4.028   0.030 -0.2921  1.3383 -1.2049
   15CHTO   H42 6255   6.611   3.974  -0.111 -2.3058  0.9904  1.0090
   15CHTO   C22 6256   6.778   3.784   0.131 -0.0417  0.1488 -0.2782
   15CHTO   H50 6257   6.686   3.753   0.180 -1.1701  2.8644 -0.5650
   15CHTO   O14 6258   6.870   3.675   0.126  0.8095 -0.0890  0.1914
   15CHTO   C23 6259   6.816   3.551   0.076 -0.2619  0.5588  0.3507
   15CHTO   H51 6260   6.739   3.516   0.145  0.1211 -1.4996 -0.2291
   15CHTO   C34 6261   6.925   3.442   0.080  0.1901 -0.0452  0.4296
   15CHTO   O23 6262   6.969   3.418   0.216 -0.2286  0.4693  0.5532
   15CHTO   H38 6263   7.006   3.332   0.221  0.7532  0.8596  0.1447
   15CHTO   O16 6264   6.863   3.886   0.193 -0.5969 -0.2218  0.1631
   15CHTO   C24 6265   6.860   3.887   0.346  0.1869  0.8872  0.1707
   15CHTO   H52 6266   6.792   3.812   0.386 -2.0681  2.5587 -0.4456
   15CHTO   C26 6267   6.819   4.025   0.381  0.2547  0.6038  0.0602
   15CHTO   H54 6268   6.880   4.095   0.320  0.0837  0.1321 -0.6419
   15CHTO   O20 6269   6.683   4.060   0.343  0.2402 -0.7032 -0.6543
   15CHTO   H36 6270   6.672   4.152   0.332 -0.5774 -0.8896 -1.4881
   15CHTO   C30 6271   6.843   4.056   0.537  0.4944 -0.3982 -0.1780
   15CHTO   H58 6272   6.776   3.985   0.588  0.8727 -0.1881  0.6264
   15CHTO    N6 6273   6.812   4.200   0.582 -0.2852  0.1801 -0.3213
   15CHTO   H45 6274   6.810   4.199   0.690  0.4009  0.5931 -0.3006
   15CHTO   H46 6275   6.894   4.260   0.546 -1.3548  0.7773 -1.7933
   15CHTO   C33 6276   6.988   4.012   0.569  0.3891 -1.1020 -0.2897
   15CHTO   H61 6277   7.054   4.064   0.498 -0.3831  0.1604 -0.1075
   15CHTO   O18 6278   6.995   3.874   0.542 -0.2480 -0.2672 -0.2426
   15CHTO   C28 6279   6.998   3.849   0.401 -0.2069 -0.1321 -0.6145
   15CHTO   H56 6280   7.076   3.908   0.352  1.4790 -3.1925 -1.7905
   15CHTO   C35 6281   7.030   3.690   0.388 -0.1056 -0.3504 -0.4263
   15CHTO   O24 6282   7.155   3.663   0.445 -0.2193 -0.5080  0.3138
   15CHTO   H39 6283   7.176   3.572   0.453 -0.0651 -0.6424 -1.5298
   15CHTO    O9 6284   7.030   4.045   0.701  0.1076  0.0019 -0.0717
   15CHTO   C13 6285   7.190   4.062   0.707  0.1982  0.3261 -0.5502
   15CHTO   H26 6286   7.217   4.128   0.622 -0.7584  1.6718  0.1671
   15CHTO   C11 6287   7.260   3.916   0.695  0.8250 -0.0440  0.3567
   15CHTO   H24 6288   7.241   3.875   0.595 -0.4374 -0.5550  0.8073
   15CHTO    O8 6289   7.192   3.827   0.786  0.0373  0.5147 -0.0969
   15CHTO    H3 6290   7.263   3.784   0.832 -0.9621 -2.0545 -0.8793
   15CHTO    C9 6291   7.416   3.920   0.699  0.2267 -0.5965  0.1425
   15CHTO   H22 6292   7.447   3.982   0.614  1.4004  1.0227  1.7228
   15CHTO    N2 6293   7.487   3.787   0.687 -0.0831  0.1217 -0.2719
   15CHTO   H10 6294   7.464   3.729   0.774 -1.7858 -0.6500 -1.2042
   15CHTO   H11 6295   7.452   3.737   0.598  1.0258 -0.6858 -0.2575
   15CHTO    C7 6296   7.458   4.001   0.834  0.6561 -0.0997  0.8631
   15CHTO   H20 6297   7.566   4.022   0.817  0.2410  0.8677 -0.7155
   15CHTO    O4 6298   7.391   4.128   0.846  0.4037  0.2606 -0.1068
   15CHTO   C14 6299   7.246   4.137   0.838  0.7854 -0.1908  0.3529
   15CHTO   H27 6300   7.208   4.240   0.820  0.7104 -0.5337 -1.5166
   15CHTO   C18 6301   7.187   4.084   0.973  0.6616  0.0137 -0.2719
   15CHTO   O13 6302   7.048   4.094   0.992 -0.3374  0.3080 -0.2336
   15CHTO    H7 6303   7.032   4.058   1.077 -1.6085  2.9186  0.7067
   15CHTO    O2 6304   7.444   3.916   0.977  0.6774  0.1928 -0.4051
   15CHTO    C1 6305   7.542   3.930   1.081  0.3030 -0.5510  0.1953
   15CHTO   H14 6306   7.496   3.886   1.173  1.9968  0.2941  1.4709
   15CHTO    C2 6307   7.592   4.070   1.111 -0.6113  0.2373  0.1487
   15CHTO   H15 6308   7.635   4.110   1.018 -0.7353 -1.2997 -0.5936
   15CHTO    O6 6309   7.482   4.152   1.157  0.1040  0.0738 -0.6228
   15CHTO    H1 6310   7.506   4.240   1.180 -0.6805  0.3332 -0.7924
   15CHTO    C3 6311   7.694   4.065   1.234 -0.1654  0.0603 -0.2633
   15CHTO   H16 6312   7.645   4.032   1.327  1.6568  1.0943  1.0961
   15CHTO    N1 6313   7.752   4.197   1.283 -0.3020  0.3254 -0.0441
   15CHTO    H8 6314   7.674   4.254   1.330 -1.4575 -2.8204  2.0375
   15CHTO    H9 6315   7.806   4.254   1.209 -2.0132 -2.7009 -3.7810
   15CHTO    C4 6316   7.809   3.958   1.202  0.2357 -0.0413 -0.1699
   15CHTO   H17 6317   7.862   3.996   1.115 -1.2137 -0.5733 -1.3154
   15CHTO    O1 6318   7.746   3.833   1.166 -0.0752  0.1930  0.0507
   15CHTO    C5 6319   7.663   3.835   1.049 -0.3468  0.3898 -0.1543
   15CHTO   H18 6320   7.712   3.867   0.957  1.6090  1.2360  1.1587
   15CHTO   C16 6321   7.618   3.690   1.033  0.2550 -0.9330  0.1699
   15CHTO   O11 6322   7.690   3.630   0.924  0.3783  1.0545  0.4673
   15CHTO    H5 6323   7.675   3.681   0.847 -0.1164 -0.7466 -0.6658
   15CHTO    O3 6324   7.889   3.924   1.316  0.1622 -0.5319  0.0427
   15CHTO    C6 6325   7.995   3.828   1.295  0.0709  0.4242 -0.2268
   15CHTO   H19 6326   7.981   3.757   1.214 -0.2183 -0.4278  0.5685
   15CHTO    C8 6327   8.131   3.901   1.269  0.6690  0.3052  0.3702
   15CHTO   H21 6328   8.144   3.976   1.347 -2.6791  0.0714  1.2072
   15CHTO    O7 6329   8.119   3.954   1.139 -0.5932  0.3306 -0.2084
   15CHTO    H2 6330   8.071   4.033   1.154  0.9438  1.0181  1.2168
   15CHTO   C12 6331   8.257   3.802   1.274 -0.5202  0.4957  0.3069
   15CHTO   H25 6332   8.243   3.736   1.186 -0.2333 -0.3157  0.8621
   15CHTO    N3 6333   8.387   3.881   1.267  0.4673  0.2309  0.1621
   15CHTO   H12 6334   8.439   3.873   1.173 -0.2199  0.8759 -0.2757
   15CHTO   H13 6335   8.458   3.841   1.338 -2.1006 -1.6580  1.7278
   15CHTO   C15 6336   8.245   3.716   1.403  0.0785  0.3224  0.6028
   15CHTO   H28 6337   8.254   3.779   1.491 -0.9133  1.2471  0.0519
   15CHTO   O10 6338   8.353   3.587   1.408  0.2807  0.1468 -0.5792
   15CHTO    H4 6339   8.362   3.551   1.494 -0.1778 -2.6335 -1.6165
   15CHTO    O5 6340   8.116   3.653   1.403  0.2181  0.5877 -0.8231
   15CHTO   C10 6341   8.010   3.746   1.427  1.1305  0.4162  0.7839
   15CHTO   H23 6342   8.039   3.809   1.511  0.4004  1.9309 -0.0737
   15CHTO   C17 6343   7.888   3.654   1.445  0.5929 -0.1042 -0.0921
   15CHTO   O12 6344   7.876   3.583   1.570 -0.5062  0.9241 -0.5905
   15CHTO    H6 6345   7.804   3.523   1.567  1.2199 -1.1694 -3.5634
   16CHTO  H203 6346   6.009   4.088   0.083  0.6219 -0.3230 -1.1621
   16CHTO   O82 6347   6.060   4.141   0.142  0.3805 -0.6151 -0.6874
   16CHTO  C123 6348   6.179   4.081   0.192 -0.2834  0.6581 -0.3172
   16CHTO  H227 6349   6.267   4.146   0.186 -0.3170  0.9977  2.4746
   16CHTO   O77 6350   6.137   4.058   0.329 -0.2283 -0.2697 -0.3564
   16CHTO  C118 6351   6.227   3.985   0.412 -0.6613  0.0131 -0.0882
   16CHTO  H222 6352   6.318   4.047   0.416 -0.2853 -0.4818 -0.7173
   16CHTO  C125 6353   6.168   3.970   0.555 -0.5421  0.5468  0.1133
   16CHTO   O84 6354   6.183   4.096   0.629  0.3250 -0.1207 -0.1009
   16CHTO  H205 6355   6.178   4.087   0.722 -0.6409 -0.9007 -0.2198
   16CHTO  C114 6356   6.255   3.845   0.348 -0.2857 -0.6068 -0.0571
   16CHTO  H218 6357   6.164   3.786   0.349 -1.1127  0.6334  1.9853
   16CHTO  C116 6358   6.312   3.856   0.206  0.7902 -0.1052  0.6539
   16CHTO  H220 6359   6.417   3.894   0.204  1.1921 -1.2555 -0.8364
   16CHTO   O79 6360   6.311   3.722   0.157  0.3366  0.4084 -0.1013
   16CHTO  H201 6361   6.394   3.683   0.175  0.0901 -1.7424 -3.2368
   16CHTO  C120 6362   6.212   3.944   0.120 -0.3318 -0.3987 -0.1930
   16CHTO  H224 6363   6.122   3.880   0.107 -0.7552  0.0259  0.6082
   16CHTO   N21 6364   6.258   3.965  -0.018 -0.1561 -0.3678  0.1010
   16CHTO  H211 6365   6.177   3.981  -0.088  0.4866  0.1130 -0.5350
   16CHTO  H212 6366   6.326   4.047  -0.032  0.9878 -1.2175  0.6253
   16CHTO   O75 6367   6.341   3.793   0.449 -0.4457 -0.0424  0.5361
   16CHTO  C112 6368   6.472   3.694   0.428  0.1729  0.1126 -0.1113
   16CHTO  H216 6369   6.543   3.739   0.356  1.9190 -1.6825  0.4288
   16CHTO   O73 6370   6.416   3.572   0.377  0.0903  0.1644 -0.0022
   16CHTO  C113 6371   6.514   3.481   0.341  0.0787  0.2017 -0.0115
   16CHTO  H217 6372   6.585   3.534   0.274 -2.5809  0.4404 -2.7389
   16CHTO  C124 6373   6.454   3.363   0.263 -0.4240  0.1912 -0.2917
   16CHTO   O83 6374   6.345   3.303   0.331  0.0043 -0.4972  0.1388
   16CHTO  H204 6375   6.355   3.313   0.424  1.2650  1.0077 -0.1323
   16CHTO  C109 6376   6.587   3.438   0.465 -0.1108  0.0928  0.5576
   16CHTO  H213 6377   6.516   3.373   0.519  0.1692  1.3107  2.4609
   16CHTO  C110 6378   6.647   3.548   0.550  0.7164 -0.8246 -0.0655
   16CHTO  H214 6379   6.738   3.574   0.497  1.3126 -1.3195  0.6852
   16CHTO   O78 6380   6.693   3.505   0.677  0.4622  0.8187  0.2658
   16CHTO  H200 6381   6.740   3.428   0.651 -0.8756 -0.3188  1.0646
   16CHTO  C111 6382   6.545   3.660   0.564 -0.0274 -0.0395 -0.0655
   16CHTO  H215 6383   6.464   3.615   0.624  0.2609  0.2927  0.5784
   16CHTO   N19 6384   6.575   3.790   0.632  0.1416  0.2708 -0.4660
   16CHTO  H207 6385   6.672   3.829   0.609  0.2833 -0.7859 -1.7435
   16CHTO  H208 6386   6.559   3.797   0.738  0.1543 -1.7143 -0.3044
   16CHTO   O74 6387   6.698   3.361   0.420 -0.3559  0.0156 -0.5797
   16CHTO  C115 6388   6.726   3.215   0.484  0.5598 -0.5212 -0.2518
   16CHTO  H219 6389   6.662   3.199   0.571 -0.4220 -1.3335 -1.1087
   16CHTO   O76 6390   6.685   3.099   0.383  0.0558  0.0792  0.1988
   16CHTO  C122 6391   6.771   3.086   0.276  0.1365  0.0736  0.4762
   16CHTO  H226 6392   6.783   3.185   0.232  0.9969 -1.5858 -3.2218
   16CHTO  C126 6393   6.696   3.000   0.172 -0.4722 -1.0704 -0.0770
   16CHTO   O85 6394   6.775   2.984   0.055  0.0514 -0.4230  0.2351
   16CHTO  H206 6395   6.775   2.894   0.028  1.8009  0.1902 -1.9258
   16CHTO  C121 6396   6.904   3.021   0.322  0.5750 -0.1026 -0.3026
   16CHTO  H225 6397   6.898   2.911   0.312  2.3643 -0.1272 -1.2030
   16CHTO   O81 6398   7.020   3.072   0.246 -0.0839 -0.1838  0.0145
   16CHTO  H202 6399   7.099   3.023   0.257  0.6740  0.8793 -0.6537
   16CHTO  C119 6400   6.935   3.059   0.474 -0.4376  0.9826 -0.4518
   16CHTO  H223 6401   6.876   2.987   0.531 -0.2273 -0.7007 -2.2918
   16CHTO  C117 6402   6.879   3.206   0.514 -0.3318 -0.1609 -0.0794
   16CHTO  H221 6403   6.926   3.288   0.460  1.6692 -0.7198  0.7810
   16CHTO   N20 6404   6.895   3.233   0.657 -0.2043  0.3190 -0.1114
   16CHTO  H209 6405   6.825   3.181   0.721 -0.2799 -3.2936 -2.9176
   16CHTO  H210 6406   6.891   3.339   0.676  2.7697  0.9326 -2.4558
   16CHTO   O80 6407   7.071   3.026   0.521  0.3608 -0.1628  0.2656
   16CHTO  C103 6408   7.112   2.876   0.558  0.1449 -0.7051  0.1012
   16CHTO  H190 6409   7.018   2.823   0.575 -0.0984  0.0747  1.2857
   16CHTO  C101 6410   7.185   2.797   0.449  0.0449 -0.4220  0.8744
   16CHTO  H188 6411   7.282   2.844   0.436 -0.8819  1.3485  0.1187
   16CHTO   O68 6412   7.118   2.797   0.311  0.3702 -0.3709 -0.0301
   16CHTO  H168 6413   7.178   2.770   0.244  2.0950  1.2864  0.8208
   16CHTO   C99 6414   7.209   2.648   0.502  0.4993  0.0755 -0.1981
   16CHTO  H186 6415   7.113   2.594   0.515 -1.6030  3.7512  0.0127
   16CHTO   N17 6416   7.287   2.552   0.409 -0.5913  0.3413 -0.4821
   16CHTO  H174 6417   7.227   2.471   0.371 -0.4501 -0.1138  0.2601
   16CHTO  H175 6418   7.328   2.605   0.324  2.0362  3.0386  2.3310
   16CHTO   C97 6419   7.260   2.654   0.648  0.0513  0.4821 -0.1725
   16CHTO  H184 6420   7.365   2.685   0.637 -0.6031  2.4513 -1.0251
   16CHTO   O64 6421   7.185   2.742   0.734 -0.2466 -0.0556 -0.7197
   16CHTO  C104 6422   7.185   2.880   0.695  0.4282  0.8987 -0.4827
   16CHTO  H191 6423   7.291   2.904   0.687  0.4879  0.7653 -0.1084
   16CHTO  C108 6424   7.117   2.962   0.806 -0.2491 -0.4755  0.1658
   16CHTO   O71 6425   7.181   2.950   0.927  0.3106  0.1433 -0.2755
   16CHTO  H171 6426   7.227   3.029   0.946 -0.1539  0.4697 -0.5147
   16CHTO   O62 6427   7.240   2.524   0.710 -0.4789  0.0572  0.6113
   16CHTO   C91 6428   7.330   2.490   0.815  0.1471  0.1173 -0.3542
   16CHTO  H178 6429   7.423   2.541   0.792  0.3539 -0.7818 -1.5289
   16CHTO   C92 6430   7.362   2.337   0.805 -0.0060  0.3669  0.2545
   16CHTO  H179 6431   7.391   2.311   0.702  1.3548  0.2560  0.6510
   16CHTO   O66 6432   7.479   2.302   0.878  0.1584 -0.5279  0.0808
   16CHTO  H166 6433   7.463   2.325   0.968 -0.2461  1.0615 -0.3807
   16CHTO   C93 6434   7.241   2.249   0.857 -0.1796  0.3805  0.1330
   16CHTO  H180 6435   7.285   2.152   0.882 -0.8837  0.5632  2.1732
   16CHTO   N16 6436   7.134   2.218   0.753 -0.1960 -0.3255 -0.8042
   16CHTO  H172 6437   7.167   2.248   0.654  1.9321  0.2019  0.0423
   16CHTO  H173 6438   7.105   2.114   0.753 -1.5760  0.0331 -1.8603
   16CHTO   C94 6439   7.183   2.314   0.992 -0.4476  0.6558 -0.4502
   16CHTO  H181 6440   7.089   2.366   0.972  0.0054  1.0230 -1.7403
   16CHTO   O61 6441   7.272   2.417   1.043 -0.3241  0.1319 -0.0850
   16CHTO   C95 6442   7.273   2.534   0.958  0.7641 -0.3236  0.1416
   16CHTO  H182 6443   7.173   2.578   0.961 -0.4905 -2.9805 -1.2804
   16CHTO  C106 6444   7.367   2.633   1.031 -0.4226  0.3752 -1.1850
   16CHTO   O69 6445   7.389   2.753   0.960 -0.3591  0.0257  0.5278
   16CHTO  H169 6446   7.309   2.796   0.937  1.1707  2.6539 -0.1239
   16CHTO   O63 6447   7.162   2.214   1.103  0.0740  0.1309  0.3729
   16CHTO   C96 6448   7.018   2.191   1.149  0.7772  0.2964 -0.1700
   16CHTO  H183 6449   7.007   2.132   1.241  0.3178  3.6989  2.0544
   16CHTO   C98 6450   6.938   2.115   1.034  0.2090 -0.2147  0.2045
   16CHTO  H185 6451   6.945   2.174   0.941  0.9188 -1.4022 -0.4997
   16CHTO   O67 6452   7.008   1.996   1.001  0.4162 -0.0709 -0.5461
   16CHTO  H167 6453   6.984   1.925   1.058 -1.8167  0.5708 -0.6236
   16CHTO  C102 6454   6.785   2.094   1.078  0.0977 -0.3534  0.1576
   16CHTO  H189 6455   6.792   2.043   1.175 -0.3341 -0.5624  0.0805
   16CHTO   N18 6456   6.703   2.011   0.991  0.4563  0.8735  0.1849
   16CHTO  H176 6457   6.601   2.003   1.026  1.0371  0.1915  1.7832
   16CHTO  H177 6458   6.694   2.056   0.893  0.7319  0.6109  0.0370
   16CHTO  C105 6459   6.725   2.241   1.096  0.2764  0.7629 -0.4128
   16CHTO  H192 6460   6.731   2.297   1.003  1.6209  0.3649 -0.5710
   16CHTO   O65 6461   6.789   2.317   1.205  0.1385 -0.3392  0.3559
   16CHTO  C100 6462   6.934   2.327   1.181  0.4308 -0.3822  0.5033
   16CHTO  H187 6463   6.940   2.396   1.096 -0.1659 -1.1549 -0.1765
   16CHTO  C107 6464   6.984   2.402   1.309 -0.2375  0.5404 -0.3423
   16CHTO   O70 6465   7.122   2.435   1.320 -0.8605 -0.5749 -0.0095
   16CHTO  H170 6466   7.161   2.394   1.394 -1.2254 -1.4694 -0.3097
   16CHTO   O57 6467   6.582   2.231   1.136 -0.0602  0.0465  0.0450
   16CHTO   C85 6468   6.485   2.297   1.051  0.0705  0.4143 -0.8232
   16CHTO  H157 6469   6.505   2.274   0.945 -0.3172  0.6297 -0.9443
   16CHTO   C83 6470   6.511   2.452   1.056 -0.2910 -0.0954  0.0468
   16CHTO  H155 6471   6.608   2.471   1.011  0.0724 -2.8067 -0.4036
   16CHTO   O56 6472   6.524   2.490   1.197 -0.2124 -0.4875 -0.2220
   16CHTO  H135 6473   6.607   2.468   1.234  1.1551  1.4017 -2.0117
   16CHTO   C81 6474   6.401   2.535   0.983  0.2059 -0.0971 -0.5538
   16CHTO  H153 6475   6.414   2.517   0.876  0.8314 -0.3925 -0.4281
   16CHTO   N14 6476   6.418   2.680   0.995  0.1822  0.3209  0.0099
   16CHTO  H141 6477   6.333   2.736   0.963 -0.8579 -0.5884  1.1391
   16CHTO  H142 6478   6.444   2.709   1.095  0.6977 -0.3870  0.0873
   16CHTO   C79 6479   6.253   2.481   1.023 -0.4055  0.8765 -0.7057
   16CHTO  H151 6480   6.189   2.505   0.938 -0.5894 -0.5235 -0.9676
   16CHTO   O52 6481   6.236   2.335   1.028 -0.7550  0.0113 -0.1129
   16CHTO   C86 6482   6.338   2.262   1.090  0.0896  0.0541 -0.2891
   16CHTO  H158 6483   6.325   2.282   1.199  1.8707 -1.2807  0.1767
   16CHTO   C90 6484   6.307   2.107   1.072 -0.0454 -0.1990 -0.0139
   16CHTO   O60 6485   6.168   2.073   1.096 -0.1850 -0.3563 -0.3719
   16CHTO  H138 6486   6.138   2.021   1.024  0.8767  0.6642 -1.5864
   16CHTO   O50 6487   6.203   2.535   1.151  0.2958  0.3534 -0.3003
   16CHTO   C73 6488   6.091   2.541   1.237 -0.1958 -0.0627  0.7482
   16CHTO  H145 6489   6.057   2.442   1.272 -0.2390 -0.1055  0.5831
   16CHTO   C74 6490   5.977   2.619   1.164 -0.8177  0.1821 -0.0575
   16CHTO  H146 6491   5.963   2.556   1.075 -1.3516 -0.4934  0.4974
   16CHTO   O54 6492   5.861   2.604   1.242  0.1012  0.9168 -0.0785
   16CHTO  H133 6493   5.780   2.620   1.197 -0.2368  0.6845  0.4424
   16CHTO   C75 6494   6.020   2.763   1.129  0.6368  0.2504  0.5242
   16CHTO  H147 6495   6.114   2.762   1.073  0.4984 -1.6150  0.2847
   16CHTO   N13 6496   5.929   2.838   1.037 -0.1324  0.2461 -0.1711
   16CHTO  H139 6497   5.939   2.798   0.937  0.7066 -1.2723  0.4914
   16CHTO  H140 6498   5.961   2.941   1.044  0.5144  0.0375  0.0036
   16CHTO   C76 6499   6.044   2.838   1.260  0.5372 -0.2131 -0.1439
   16CHTO  H148 6500   5.953   2.838   1.321  0.1117  0.5658 -0.7677
   16CHTO   O49 6501   6.153   2.773   1.331  0.4650  0.4562 -0.0110
   16CHTO   C77 6502   6.138   2.630   1.363  0.0550  0.7724 -0.1085
   16CHTO  H149 6503   6.061   2.621   1.439 -1.3514 -1.0747 -1.6891
   16CHTO   C88 6504   6.279   2.607   1.415  0.5273 -0.6594 -0.2826
   16CHTO   O58 6505   6.306   2.452   1.432 -0.3048  0.2768 -0.4546
   16CHTO  H136 6506   6.368   2.443   1.501 -0.5157  0.8090 -0.1995
   16CHTO   O51 6507   6.085   2.981   1.234  0.3608 -0.1223 -0.7312
   16CHTO   C78 6508   6.074   3.067   1.345  0.3925 -0.3746  0.3946
   16CHTO  H150 6509   6.067   3.017   1.444 -1.4731 -1.2689 -0.1621
   16CHTO   C80 6510   5.957   3.159   1.332 -0.0612 -0.1114 -0.2924
   16CHTO  H152 6511   5.972   3.221   1.241 -0.4347 -1.4671 -1.2835
   16CHTO   O55 6512   5.837   3.082   1.329  0.2641 -0.4873 -0.4775
   16CHTO  H134 6513   5.817   3.055   1.416 -1.5495 -1.1802 -1.0968
   16CHTO   C84 6514   5.941   3.267   1.449  0.0526  0.0891 -0.0352
   16CHTO  H156 6515   5.934   3.208   1.540  1.4809 -1.0912 -0.6594
   16CHTO   N15 6516   5.833   3.373   1.433  0.0813  0.3246  0.6583
   16CHTO  H143 6517   5.755   3.357   1.504  0.8238  0.2406  1.4797
   16CHTO  H144 6518   5.790   3.374   1.336  1.9527 -2.4787 -0.2580
   16CHTO   C87 6519   6.078   3.338   1.456 -0.4872  0.0865 -0.4847
   16CHTO  H159 6520   6.086   3.404   1.369  0.5313  1.2512  0.4721
   16CHTO   O53 6521   6.190   3.229   1.464  0.0595 -0.2525 -0.8355
   16CHTO   C82 6522   6.201   3.150   1.349 -0.2064  0.5916 -0.0196
   16CHTO  H154 6523   6.201   3.208   1.257 -0.1898  0.2077 -0.2646
   16CHTO   C89 6524   6.330   3.069   1.351  0.4050  0.6902  0.6032
   16CHTO   O59 6525   6.433   3.157   1.299 -0.4752 -0.1555 -0.0311
   16CHTO  H137 6526   6.408   3.195   1.217  0.3771  1.2910  0.3623
   16CHTO   O45 6527   6.092   3.422   1.596 -0.1962 -0.3637  0.2430
   16CHTO   C67 6528   6.222   3.480   1.613  0.1987 -0.0507  0.7449
   16CHTO  H124 6529   6.293   3.402   1.589 -1.0110 -0.1502 -2.8252
   16CHTO   C65 6530   6.247   3.602   1.514  0.4574 -0.1771 -0.3298
   16CHTO  H122 6531   6.152   3.623   1.464  0.8682  0.5702 -0.8198
   16CHTO   O44 6532   6.340   3.558   1.420 -0.2125 -0.5069  0.6609
   16CHTO  H102 6533   6.326   3.596   1.335  0.9403 -0.6724  0.3812
   16CHTO   C63 6534   6.287   3.731   1.603  0.5230 -0.9408  0.0147
   16CHTO  H120 6535   6.208   3.749   1.676 -0.5842 -0.7257 -1.2184
   16CHTO   N11 6536   6.303   3.858   1.522  0.1900 -0.4078 -0.1837
   16CHTO  H108 6537   6.394   3.900   1.560  0.6110 -1.0152 -0.5130
   16CHTO  H109 6538   6.327   3.833   1.421 -2.7707  0.0281 -1.0530
   16CHTO   C61 6539   6.405   3.697   1.693 -0.2093 -0.4928  0.1799
   16CHTO  H118 6540   6.411   3.776   1.769 -2.0902 -0.9204  0.8090
   16CHTO   O40 6541   6.383   3.576   1.771  0.3108  0.0256  0.0070
   16CHTO   C68 6542   6.253   3.516   1.766  0.1046  0.3352 -0.2037
   16CHTO  H125 6543   6.180   3.584   1.815 -1.5957 -1.8230  0.3605
   16CHTO   C72 6544   6.261   3.386   1.856 -0.3620  0.2338 -0.1379
   16CHTO   O48 6545   6.373   3.306   1.820  0.2664  0.4487 -0.3719
   16CHTO  H105 6546   6.451   3.347   1.851  0.1198 -0.5706  1.4353
   16CHTO   O38 6547   6.527   3.687   1.613 -0.1204 -0.2594 -0.2916
   16CHTO   C55 6548   6.642   3.635   1.683 -0.2475 -0.7054 -0.4055
   16CHTO  H112 6549   6.617   3.586   1.778  0.9652 -1.3955 -0.4309
   16CHTO   C56 6550   6.743   3.759   1.708  0.0881  0.3096  0.0194
   16CHTO  H113 6551   6.751   3.815   1.613  0.0015  0.0613 -0.1329
   16CHTO   O42 6552   6.689   3.859   1.791  0.1984 -0.2833  0.4240
   16CHTO  H100 6553   6.677   3.836   1.881 -0.7239  1.6593  0.8293
   16CHTO   C57 6554   6.884   3.712   1.749 -1.0274 -0.4956  0.0570
   16CHTO  H114 6555   6.879   3.667   1.848 -0.9570  1.4456  0.9519
   16CHTO   N10 6556   6.990   3.816   1.759  1.0298 -0.2270  0.0669
   16CHTO  H106 6557   7.059   3.786   1.836  0.6274 -1.6021 -0.0941
   16CHTO  H107 6558   7.043   3.836   1.666  1.3572  1.0601  0.5168
   16CHTO   C58 6559   6.933   3.601   1.649 -0.2620 -0.1583  0.2817
   16CHTO  H115 6560   6.946   3.641   1.546  1.8109  0.8176  0.9163
   16CHTO   O37 6561   6.833   3.496   1.659  0.3016  0.2796 -0.0686
   16CHTO   C59 6562   6.711   3.527   1.589  0.6086  0.7616 -0.3364
   16CHTO  H116 6563   6.734   3.567   1.490  0.7454  1.7158  0.0703
   16CHTO   C70 6564   6.615   3.406   1.579  0.0611 -0.7445  0.0651
   16CHTO   O46 6565   6.660   3.290   1.508 -0.2787 -0.3023 -0.3837
   16CHTO  H103 6566   6.596   3.226   1.532 -1.4889  0.9240 -0.2886
   16CHTO   O39 6567   7.066   3.531   1.690 -0.4292  0.1808  0.1906
   16CHTO   C60 6568   7.125   3.446   1.590 -0.1055 -0.5945 -0.2558
   16CHTO  H117 6569   7.060   3.428   1.504  1.7147 -1.3492 -1.5020
   16CHTO   C62 6570   7.249   3.525   1.527  0.1004  0.4115 -0.9043
   16CHTO  H119 6571   7.204   3.615   1.479 -0.3127  1.6043  1.6606
   16CHTO   O43 6572   7.332   3.567   1.633  0.4095 -0.1839 -0.6755
   16CHTO  H101 6573   7.405   3.511   1.648  0.4532 -0.3685 -1.5723
   16CHTO   C66 6574   7.322   3.430   1.418  0.1434  0.4403 -0.0614
   16CHTO  H123 6575   7.245   3.393   1.351  0.6571 -2.0967  0.7122
   16CHTO   N12 6576   7.416   3.508   1.334 -0.0238  0.1294  0.2484
   16CHTO  H110 6577   7.377   3.575   1.259 -0.1263 -0.9100 -0.6316
   16CHTO  H111 6578   7.500   3.546   1.392 -0.6234  0.2143  1.0618
   16CHTO   C69 6579   7.383   3.310   1.498  0.3120 -0.1316 -0.0519
   16CHTO  H126 6580   7.447   3.344   1.582  0.8677 -0.4607 -0.3432
   16CHTO   O41 6581   7.258   3.225   1.562  0.1017 -0.0417  0.5396
   16CHTO   C64 6582   7.165   3.307   1.655  0.0295  0.3138 -0.0363
   16CHTO  H121 6583   7.229   3.324   1.744 -0.3923  0.7692  0.1839
   16CHTO   C71 6584   7.038   3.228   1.699  0.4209 -0.2112 -0.4836
   16CHTO   O47 6585   6.956   3.188   1.593  0.5004  0.4956 -0.3869
   16CHTO  H104 6586   6.941   3.096   1.595 -2.5769  0.9408 -0.6486
   16CHTO   O34 6587   7.471   3.207   1.400  0.0739  0.1494 -0.8629
   16CHTO   C49 6588   7.450   3.145   1.260  0.5066  0.0323 -0.1748
   16CHTO   H91 6589   7.450   3.231   1.193  1.2628  0.3438  0.2153
   16CHTO   C47 6590   7.316   3.073   1.252  0.2959  0.1952  0.1755
   16CHTO   H89 6591   7.298   3.039   1.148 -2.6492  0.2825  0.5951
   16CHTO   O33 6592   7.206   3.160   1.286 -0.1653 -0.0865 -0.5167
   16CHTO   H70 6593   7.205   3.249   1.257 -0.5235  0.1634  0.2269
   16CHTO   C45 6594   7.311   2.941   1.358 -0.9039 -0.3968 -1.1288
   16CHTO   H87 6595   7.294   2.984   1.458  1.1973  1.8897 -1.7130
   16CHTO    N8 6596   7.196   2.848   1.320 -0.0298 -0.4105 -0.0699
   16CHTO   H75 6597   7.120   2.835   1.395  0.1851  1.3628  0.4910
   16CHTO   H76 6598   7.145   2.856   1.225 -0.7903  0.2346  0.3826
   16CHTO   C43 6599   7.455   2.870   1.369 -0.6830 -0.1445 -0.0399
   16CHTO   H85 6600   7.507   2.918   1.452  1.7788 -2.7509  0.0062
   16CHTO   O29 6601   7.525   2.894   1.243  0.2621  0.4256  0.6333
   16CHTO   C50 6602   7.555   3.031   1.222 -0.7243 -0.4101  0.2481
   16CHTO   H92 6603   7.643   3.053   1.284 -0.4836  0.3062 -0.3383
   16CHTO   C54 6604   7.616   3.046   1.078 -0.2066  0.3705  0.2104
   16CHTO   O36 6605   7.749   2.991   1.067  0.5141  0.0515 -0.0663
   16CHTO   H72 6606   7.784   3.001   0.981  1.0878  0.9952  0.2742
   16CHTO   O27 6607   7.455   2.730   1.413 -0.4279  0.0489  0.0841
   16CHTO   C37 6608   7.511   2.604   1.463  0.3194 -0.1838  0.8147
   16CHTO   H79 6609   7.602   2.631   1.519  1.1910 -0.7113 -0.3215
   16CHTO   C38 6610   7.399   2.536   1.544  0.0461 -0.4448  0.3483
   16CHTO   H80 6611   7.304   2.546   1.488 -0.6986 -0.6044  1.5701
   16CHTO   O31 6612   7.382   2.603   1.663  0.0500  0.4131 -0.3859
   16CHTO   H68 6613   7.458   2.600   1.718 -0.1647  1.3907 -0.0162
   16CHTO   C39 6614   7.422   2.387   1.577  0.4735  0.3915 -0.1279
   16CHTO   H81 6615   7.501   2.378   1.652 -1.2596 -1.4901  1.5329
   16CHTO    N7 6616   7.299   2.313   1.640 -0.6835  0.8872  0.2188
   16CHTO   H73 6617   7.224   2.281   1.569 -0.3369 -1.7328  0.9815
   16CHTO   H74 6618   7.255   2.373   1.718  0.8758  1.2471  0.8598
   16CHTO   C40 6619   7.460   2.316   1.451  0.1455 -0.2398  0.0893
   16CHTO   H82 6620   7.382   2.307   1.375  1.9759  1.8901 -2.1232
   16CHTO   O26 6621   7.576   2.371   1.401  0.2623 -0.1524 -0.0277
   16CHTO   C41 6622   7.549   2.502   1.349  0.0919 -0.2193  0.6206
   16CHTO   H83 6623   7.465   2.501   1.278  1.0325 -1.9605 -0.5010
   16CHTO   C52 6624   7.672   2.543   1.269 -0.4470 -0.5382 -0.1755
   16CHTO   O35 6625   7.656   2.660   1.199 -0.1092 -0.2744  0.1198
   16CHTO   H71 6626   7.616   2.730   1.248 -1.4778  0.6461 -2.2626
   16CHTO   O28 6627   7.529   2.189   1.473  0.3026 -0.1807  0.2891
   16CHTO   C42 6628   7.497   2.054   1.414  0.3601  0.5247 -0.1458
   16CHTO   H84 6629   7.595   2.006   1.416  0.3613  0.4329 -1.6105
   16CHTO   C44 6630   7.451   2.055   1.275 -0.7649  0.0600  0.4199
   16CHTO   H86 6631   7.375   2.133   1.267 -0.0677  0.7003 -0.0714
   16CHTO   O32 6632   7.562   2.108   1.206 -0.1704 -0.0443  0.2097
   16CHTO   H69 6633   7.552   2.110   1.113 -1.5968 -0.9432  0.3145
   16CHTO   C48 6634   7.399   1.920   1.211  0.1791 -0.1514 -0.1587
   16CHTO   H90 6635   7.488   1.858   1.201  0.1645 -0.0494 -0.9454
   16CHTO    N9 6636   7.342   1.933   1.076 -0.5527  0.2020  0.4577
   16CHTO   H77 6637   7.252   1.873   1.082 -0.1665 -0.4831 -0.4310
   16CHTO   H78 6638   7.326   2.036   1.049  1.1090 -0.1542 -1.9277
   16CHTO   C51 6639   7.305   1.848   1.317  0.6714 -0.4457  0.2369
   16CHTO   H93 6640   7.215   1.908   1.327  0.4740 -0.5493 -0.8607
   16CHTO   O30 6641   7.385   1.840   1.441  0.1648 -0.0954  0.4596
   16CHTO   C46 6642   7.403   1.971   1.503  0.3271 -0.1026 -0.1044
   16CHTO   H88 6643   7.305   2.019   1.510  0.5558  0.1903  1.3976
   16CHTO   C53 6644   7.451   1.953   1.655  0.8982  0.0257  0.1434
   16CHTO   O72 6645   7.366   1.868   1.727  0.3253  0.1099 -0.8284
   16CHTO  H199 6646   7.361   1.898   1.816  2.9056 -1.1362 -0.2203
   16CHTO   O22 6647   7.273   1.708   1.293 -0.5197 -0.1981  0.2370
   16CHTO   C31 6648   7.150   1.660   1.361  0.2113 -0.3503  0.1043
   16CHTO   H59 6649   7.135   1.720   1.453  1.7327  0.1634  0.0348
   16CHTO   C29 6650   7.023   1.676   1.273 -0.5641  0.4381 -0.4089
   16CHTO   H57 6651   7.038   1.623   1.177  0.3191 -1.5653  0.8040
   16CHTO   O21 6652   7.009   1.818   1.236 -0.0435  0.4490 -0.3345
   16CHTO   H37 6653   6.974   1.824   1.150  1.5238  0.6464 -0.9842
   16CHTO   C27 6654   6.893   1.618   1.344  1.2592  0.1576  0.0220
   16CHTO   H55 6655   6.868   1.679   1.432  0.8497 -1.1900  0.8525
   16CHTO    N5 6656   6.774   1.628   1.247  0.2335 -0.7533 -0.4083
   16CHTO   H43 6657   6.693   1.683   1.293  1.6708  0.6803  0.4733
   16CHTO   H44 6658   6.737   1.532   1.216 -1.9110 -0.2171  0.3648
   16CHTO   C25 6659   6.923   1.476   1.395  0.1310 -0.8681 -0.0835
   16CHTO   H53 6660   6.933   1.408   1.309  1.1325  1.0259 -1.5394
   16CHTO   O17 6661   7.040   1.473   1.471  0.0538 -0.4034  0.0458
   16CHTO   C32 6662   7.154   1.520   1.410 -1.0009 -0.0200 -0.1022
   16CHTO   H60 6663   7.185   1.456   1.327  0.2708 -0.1311  0.4567
   16CHTO   C36 6664   7.283   1.498   1.494 -0.2008  0.0846  0.4380
   16CHTO   O25 6665   7.275   1.571   1.621 -0.4869  0.2403 -0.0267
   16CHTO   H40 6666   7.345   1.634   1.614  1.4367 -1.8976 -1.0392
   16CHTO   O15 6667   6.805   1.419   1.475  0.5138 -0.6949 -0.0205
   16CHTO   C19 6668   6.708   1.421   1.577  0.6923  0.0018 -0.2447
   16CHTO   H47 6669   6.712   1.322   1.625 -2.4321 -0.5169 -0.9373
   16CHTO   C20 6670   6.733   1.532   1.683 -0.2253 -0.2087  0.4090
   16CHTO   H48 6671   6.740   1.630   1.633 -1.2714 -0.7600 -0.8478
   16CHTO   O19 6672   6.862   1.500   1.731  0.2861  0.3324  0.2575
   16CHTO   H35 6673   6.856   1.453   1.812 -0.2371 -0.5638 -0.2798
   16CHTO   C21 6674   6.619   1.525   1.794  0.3468  1.4158 -0.3983
   16CHTO   H49 6675   6.622   1.425   1.837  0.2089  1.3629 -0.5144
   16CHTO    N4 6676   6.639   1.624   1.906 -0.1927  0.5999 -0.0818
   16CHTO   H41 6677   6.563   1.624   1.982 -0.4533  1.8818 -0.3402
   16CHTO   H42 6678   6.740   1.617   1.946  0.4937 -0.9653 -2.0063
   16CHTO   C22 6679   6.484   1.541   1.721 -0.0921 -0.9515 -0.5484
   16CHTO   H50 6680   6.488   1.637   1.670  1.1010 -0.4999  0.3715
   16CHTO   O14 6681   6.468   1.440   1.615 -0.0159  0.2574 -0.1202
   16CHTO   C23 6682   6.570   1.429   1.514 -0.1325 -0.3579  0.5014
   16CHTO   H51 6683   6.561   1.511   1.441 -2.1091  0.2637  1.3887
   16CHTO   C34 6684   6.532   1.297   1.443  0.3332  0.2376 -0.3685
   16CHTO   O23 6685   6.546   1.190   1.533 -0.0232  0.1345  0.3699
   16CHTO   H38 6686   6.497   1.117   1.502 -0.4073  0.3751  0.4090
   16CHTO   O16 6687   6.373   1.521   1.818  0.1063 -0.1525  0.5736
   16CHTO   C24 6688   6.231   1.606   1.774  0.5603  0.1516  0.3727
   16CHTO   H52 6689   6.230   1.636   1.669 -1.8026 -2.7478 -0.4930
   16CHTO   C26 6690   6.214   1.735   1.859  0.1772 -0.4401  0.2602
   16CHTO   H54 6691   6.206   1.708   1.966  0.8810 -2.3885 -0.1709
   16CHTO   O20 6692   6.336   1.812   1.848  0.0963 -0.1788  0.3457
   16CHTO   H36 6693   6.334   1.887   1.905 -1.2188 -0.3111  0.5014
   16CHTO   C30 6694   6.083   1.807   1.818 -0.3463  0.0442  0.1822
   16CHTO   H58 6695   6.085   1.840   1.713  0.1328 -0.6346 -0.0232
   16CHTO    N6 6696   6.070   1.936   1.887 -0.2895 -0.2237  0.0394
   16CHTO   H45 6697   6.151   2.007   1.877 -1.5544  1.1645 -0.5716
   16CHTO   H46 6698   5.977   1.982   1.859  0.5879  0.8907 -1.0915
   16CHTO   C33 6699   5.969   1.701   1.833 -0.0377 -0.2223  0.3597
   16CHTO   H61 6700   5.968   1.670   1.938 -0.5120 -0.3540  0.3205
   16CHTO   O18 6701   6.000   1.587   1.755 -0.6725 -0.1151 -0.1658
   16CHTO   C28 6702   6.114   1.513   1.793  0.4752  0.3114  0.2304
   16CHTO   H56 6703   6.106   1.488   1.899  0.7291  1.0818  0.4339
   16CHTO   C35 6704   6.138   1.387   1.710 -0.2944 -0.2034  0.3730
   16CHTO   O24 6705   6.016   1.315   1.675 -0.5821  0.1847  0.0805
   16CHTO   H39 6706   6.035   1.260   1.601  0.9585  0.4191  0.2767
   16CHTO    O9 6707   5.835   1.753   1.805  0.6365 -0.0486  0.0576
   16CHTO   C13 6708   5.695   1.661   1.883  0.0552 -0.4961 -0.4632
   16CHTO   H26 6709   5.716   1.666   1.992  2.0872  0.3295 -0.8817
   16CHTO   C11 6710   5.697   1.511   1.829 -0.0077 -0.5046 -1.3272
   16CHTO   H24 6711   5.793   1.463   1.855 -0.6308 -1.0798 -0.0576
   16CHTO    O8 6712   5.696   1.510   1.684 -0.5299  0.2187  0.5982
   16CHTO    H3 6713   5.675   1.596   1.653 -0.3520  0.3047  0.7188
   16CHTO    C9 6714   5.563   1.445   1.882 -0.4307 -0.3537 -0.1954
   16CHTO   H22 6715   5.556   1.471   1.989  2.1684  0.7673 -0.2464
   16CHTO    N2 6716   5.577   1.295   1.883  0.9710 -0.2539  0.1674
   16CHTO   H10 6717   5.678   1.259   1.898  0.9844  0.0578  0.8629
   16CHTO   H11 6718   5.513   1.254   1.960  1.1895  0.1380  0.5642
   16CHTO    C7 6719   5.432   1.502   1.817 -0.6527  0.0289  0.3318
   16CHTO   H20 6720   5.356   1.495   1.897 -1.7874  2.5240 -0.4861
   16CHTO    O4 6721   5.456   1.640   1.780 -0.1436  0.0255  0.1644
   16CHTO   C14 6722   5.547   1.726   1.858 -0.4949  0.0581 -0.1941
   16CHTO   H27 6723   5.501   1.755   1.955 -0.7412 -1.3925  0.1275
   16CHTO   C18 6724   5.572   1.860   1.787  0.9177  0.6708  0.5974
   16CHTO   O13 6725   5.613   1.960   1.883  0.3768  0.0358  0.3480
   16CHTO    H7 6726   5.564   2.038   1.865  1.1529  0.3528 -0.3701
   16CHTO    O2 6727   5.370   1.419   1.685 -0.6573 -0.2008  0.0974
   16CHTO    C1 6728   5.238   1.455   1.648 -0.4877 -0.5663  0.2462
   16CHTO   H14 6729   5.211   1.547   1.705 -1.5384 -0.7759  0.1085
   16CHTO    C2 6730   5.136   1.340   1.676 -0.4232 -0.2465 -0.0257
   16CHTO   H15 6731   5.165   1.253   1.615 -0.0133  0.2167 -0.4920
   16CHTO    O6 6732   5.134   1.302   1.819 -0.8030 -0.5544 -0.7213
   16CHTO    H1 6733   5.079   1.229   1.837 -1.9613  0.6562  0.6942
   16CHTO    C3 6734   4.990   1.386   1.619 -0.0058  0.2133  0.6988
   16CHTO   H16 6735   4.959   1.486   1.656 -1.0868  0.6430 -1.2617
   16CHTO    N1 6736   4.877   1.286   1.650 -0.3432  0.0978  0.4496
   16CHTO    H8 6737   4.815   1.244   1.573  0.4683  1.7779 -1.1685
   16CHTO    H9 6738   4.913   1.201   1.706 -0.9510  0.3531  1.2429
   16CHTO    C4 6739   5.015   1.411   1.467 -0.1692  0.2789  0.0270
   16CHTO   H17 6740   5.036   1.314   1.420 -2.0435 -1.1098  1.9902
   16CHTO    O1 6741   5.119   1.504   1.441  0.2240 -0.5706 -0.0419
   16CHTO    C5 6742   5.250   1.487   1.491 -0.4814 -0.9915 -0.0436
   16CHTO   H18 6743   5.307   1.407   1.444  1.7022 -0.1934  1.1789
   16CHTO   C16 6744   5.333   1.621   1.471 -0.0377  0.4621 -0.2985
   16CHTO   O11 6745   5.263   1.742   1.517  0.1323 -0.2368  0.7114
   16CHTO    H5 6746   5.324   1.810   1.537  1.0726 -0.7158 -0.4553
   16CHTO    O3 6747   4.899   1.468   1.404  0.7289  0.3744  0.1660
   16CHTO    C6 6748   4.903   1.483   1.256  0.4059 -0.0128 -0.0656
   16CHTO   H19 6749   5.006   1.470   1.222 -1.0457 -1.4515 -4.2644
   16CHTO    C8 6750   4.809   1.382   1.181  0.3851  0.5039 -0.0983
   16CHTO   H21 6751   4.706   1.403   1.207  0.0759 -1.8319  0.5937
   16CHTO    O7 6752   4.831   1.239   1.201  0.2915  0.0030 -0.2499
   16CHTO    H2 6753   4.820   1.217   1.292 -0.6668 -2.5164 -0.9398
   16CHTO   C12 6754   4.817   1.418   1.025 -0.1710  0.0123 -0.0459
   16CHTO   H25 6755   4.925   1.401   1.006  0.5576 -0.4420  4.0934
   16CHTO    N3 6756   4.741   1.317   0.938 -0.4940  0.0022 -0.0676
   16CHTO   H12 6757   4.689   1.363   0.856  1.7573  2.2472 -0.2640
   16CHTO   H13 6758   4.663   1.278   1.002  0.7082 -1.9256  0.2645
   16CHTO   C15 6759   4.786   1.568   0.997 -0.4589  0.3075  0.0492
   16CHTO   H28 6760   4.683   1.605   1.000 -0.5637 -0.0487  1.0733
   16CHTO   O10 6761   4.825   1.599   0.848 -0.7829  0.1337 -0.6387
   16CHTO    H4 6762   4.902   1.556   0.818 -1.7140 -1.8976 -0.1739
   16CHTO    O5 6763   4.865   1.657   1.072  0.3224  0.0369  0.6824
   16CHTO   C10 6764   4.860   1.635   1.219  0.3126  0.2452 -0.0869
   16CHTO   H23 6765   4.763   1.646   1.267  0.5967  0.1326  0.5181
   16CHTO   C17 6766   4.961   1.729   1.290  0.5532 -0.1894  0.1043
   16CHTO   O12 6767   4.926   1.861   1.262  0.3199 -0.4229  0.1436
   16CHTO    H6 6768   4.867   1.894   1.327 -0.4340 -0.7640 -0.3627
   17CHTO  H203 6769   5.795   3.860   0.294 -0.3322  0.0435  1.6896
   17CHTO   O82 6770   5.846   3.934   0.323  0.4665  0.1190  0.1166
   17CHTO  C123 6771   5.763   4.048   0.326 -0.5775 -0.8660 -0.4470
   17CHTO  H227 6772   5.688   4.042   0.406 -0.4052  1.4340 -0.0747
   17CHTO   O77 6773   5.851   4.155   0.369 -0.2725  0.1503 -0.2300
   17CHTO  C118 6774   5.787   4.284   0.396 -0.0650 -0.2443 -0.1334
   17CHTO  H222 6775   5.706   4.274   0.470  0.7003 -1.4829  0.5496
   17CHTO  C125 6776   5.909   4.369   0.458  0.2210  0.6065 -0.5660
   17CHTO   O84 6777   5.998   4.396   0.345  0.3313 -0.2748 -0.4241
   17CHTO  H205 6778   5.954   4.461   0.294 -1.2374  0.5271  1.8341
   17CHTO  C114 6779   5.728   4.348   0.271  0.1066  0.2604  0.4899
   17CHTO  H218 6780   5.810   4.365   0.201  0.8376  0.3399  1.3643
   17CHTO  C116 6781   5.630   4.242   0.213 -0.1074  0.0367  0.2789
   17CHTO  H220 6782   5.550   4.215   0.286  2.0040  0.2020  2.7086
   17CHTO   O79 6783   5.564   4.296   0.095  0.0051  0.1248 -0.3203
   17CHTO  H201 6784   5.499   4.361   0.110 -0.2239  0.1324 -1.3076
   17CHTO  C120 6785   5.701   4.099   0.188 -0.2703 -0.4165 -0.3303
   17CHTO  H224 6786   5.784   4.117   0.116 -0.3094  1.1242 -0.0180
   17CHTO   N21 6787   5.616   3.998   0.124  0.1486 -0.4363  0.0691
   17CHTO  H211 6788   5.565   3.939   0.199  0.6680  0.2656  0.9804
   17CHTO  H212 6789   5.557   4.025   0.037  0.8292 -1.1088 -0.6118
   17CHTO   O75 6790   5.671   4.473   0.311  0.9594 -0.5058  0.3103
   17CHTO  C112 6791   5.707   4.596   0.192 -0.6201 -0.0285 -0.7013
   17CHTO  H216 6792   5.691   4.558   0.090  0.2148 -0.7507 -0.5666
   17CHTO   O73 6793   5.849   4.630   0.210 -0.4699  0.1980  0.2178
   17CHTO  C113 6794   5.897   4.736   0.130  0.3760  0.3498 -0.1243
   17CHTO  H217 6795   5.888   4.704   0.024  1.4217 -0.4131  0.0090
   17CHTO  C124 6796   6.042   4.766   0.166  0.1570 -0.2750  0.4101
   17CHTO   O83 6797   6.135   4.656   0.135 -0.4001 -0.2474 -0.2753
   17CHTO  H204 6798   6.152   4.655   0.042 -1.9126  3.0747 -0.6619
   17CHTO  C109 6799   5.822   4.869   0.152  0.7896 -0.3315 -0.0701
   17CHTO  H213 6800   5.848   4.904   0.252  1.6413 -0.9465 -0.0678
   17CHTO  C110 6801   5.669   4.850   0.143  0.1775  0.0538  0.1415
   17CHTO  H214 6802   5.650   4.839   0.036 -0.4947 -0.1748  0.2820
   17CHTO   O78 6803   5.600   4.968   0.192  0.2194 -0.4137 -1.0669
   17CHTO  H200 6804   5.603   5.032   0.123 -1.0581 -0.3383 -1.0605
   17CHTO  C111 6805   5.617   4.725   0.216 -0.7232 -0.2475 -0.3763
   17CHTO  H215 6806   5.617   4.746   0.324 -0.7191  0.3052 -0.4831
   17CHTO   N19 6807   5.476   4.692   0.179  0.2236 -0.4983 -0.5398
   17CHTO  H207 6808   5.469   4.686   0.072 -0.7794  1.6948 -0.6209
   17CHTO  H208 6809   5.399   4.757   0.219  0.2490 -0.1071 -1.1219
   17CHTO   O74 6810   5.871   4.966   0.056 -0.1326 -0.0215 -0.6794
   17CHTO  C115 6811   5.898   5.114   0.124 -0.2539  0.2829  0.3526
   17CHTO  H219 6812   5.838   5.129   0.213 -1.5490  2.0720 -0.7716
   17CHTO   O76 6813   6.050   5.125   0.180  0.2717 -0.0936  0.1737
   17CHTO  C122 6814   6.145   5.195   0.096  0.0928 -0.1106  0.1215
   17CHTO  H226 6815   6.165   5.143   0.002  1.2994 -1.0548  0.8790
   17CHTO  C126 6816   6.285   5.196   0.166 -0.6053  0.6554  0.2916
   17CHTO   O85 6817   6.342   5.069   0.171 -0.8134 -0.1631  0.5353
   17CHTO  H206 6818   6.317   5.030   0.252 -1.3123  0.3853  0.6420
   17CHTO  C121 6819   6.102   5.340   0.070 -0.5254  0.3532  0.1335
   17CHTO  H225 6820   6.137   5.393   0.161 -0.5870  0.9437 -0.1845
   17CHTO   O81 6821   6.176   5.384  -0.043  0.0408  0.0892 -0.3072
   17CHTO  H202 6822   6.117   5.447  -0.081  0.7088  1.4932  0.9549
   17CHTO  C119 6823   5.944   5.364   0.048  0.0693 -0.2171  0.5929
   17CHTO  H223 6824   5.902   5.392   0.145 -1.8277 -1.1431  0.0624
   17CHTO  C117 6825   5.876   5.220   0.010 -0.2815 -0.1820 -0.4630
   17CHTO  H221 6826   5.915   5.172  -0.079  2.1879 -0.4138  0.6992
   17CHTO   N20 6827   5.731   5.240  -0.020  0.4564 -0.6664 -0.1992
   17CHTO  H209 6828   5.685   5.268   0.074  1.3056  0.2730 -0.0464
   17CHTO  H210 6829   5.692   5.147  -0.059 -0.2839  0.3877 -2.0421
   17CHTO   O80 6830   5.912   5.495  -0.046  0.6912 -0.0904 -0.1881
   17CHTO  C103 6831   5.934   5.639   0.018  0.4192 -0.2363  0.2107
   17CHTO  H190 6832   5.919   5.627   0.125  0.7640  1.6185  0.4969
   17CHTO  C101 6833   6.074   5.717  -0.010  0.0635 -0.1378 -0.0501
   17CHTO  H188 6834   6.096   5.713  -0.117 -0.3965 -1.4851 -0.1020
   17CHTO   O68 6835   6.184   5.655   0.059  0.2290  0.0408 -0.0252
   17CHTO  H168 6836   6.164   5.650   0.150  1.4207  3.0389  0.4469
   17CHTO   C99 6837   6.062   5.875   0.031  0.3731 -0.0427  0.2271
   17CHTO  H186 6838   6.067   5.885   0.141 -2.8287  0.0076  0.4124
   17CHTO   N17 6839   6.174   5.954  -0.025  0.1413 -0.2663  0.0875
   17CHTO  H174 6840   6.267   5.898  -0.033 -1.0360 -2.1671 -0.8379
   17CHTO  H175 6841   6.192   6.049   0.023  0.0707 -1.0456  1.6861
   17CHTO   C97 6842   5.932   5.946  -0.011 -0.1283 -0.1238 -0.0123
   17CHTO  H184 6843   5.931   5.953  -0.121 -1.9988  0.6705  0.0284
   17CHTO   O64 6844   5.826   5.860   0.034  0.1875 -0.3342 -0.6144
   17CHTO  C104 6845   5.820   5.726  -0.030 -0.5810  0.0380  0.0943
   17CHTO  H191 6846   5.829   5.739  -0.138  1.6676 -2.6767 -0.1165
   17CHTO  C108 6847   5.687   5.664  -0.015  0.2784 -0.4704 -0.2470
   17CHTO   O71 6848   5.644   5.659   0.118 -0.1628 -0.0810  0.6439
   17CHTO  H171 6849   5.646   5.746   0.153 -1.8687 -0.2419  1.1939
   17CHTO   O62 6850   5.899   6.069   0.064  0.1386 -0.1469  0.0725
   17CHTO   C91 6851   5.803   6.164   0.018 -0.4905  0.4904  0.4030
   17CHTO  H178 6852   5.731   6.103  -0.037  0.3825 -1.8307  1.7487
   17CHTO   C92 6853   5.864   6.263  -0.094  0.0302  0.2972  0.1658
   17CHTO  H179 6854   5.921   6.205  -0.168 -0.9717 -0.1528 -0.2466
   17CHTO   O66 6855   5.763   6.329  -0.167 -0.0056 -0.1004 -0.5646
   17CHTO  H166 6856   5.688   6.275  -0.157  0.4507 -0.6452 -0.0662
   17CHTO   C93 6857   5.956   6.372  -0.024 -0.1219 -0.4665 -0.5384
   17CHTO  H180 6858   5.963   6.461  -0.088 -2.7628 -1.3441 -2.1162
   17CHTO   N16 6859   6.099   6.332  -0.026  0.4027 -0.0975  0.1641
   17CHTO  H172 6860   6.118   6.277  -0.117 -1.2400 -1.3669  0.5541
   17CHTO  H173 6861   6.160   6.420  -0.015 -0.8591  0.9083 -0.7968
   17CHTO   C94 6862   5.896   6.418   0.117  0.2388 -0.3265  0.8481
   17CHTO  H181 6863   5.945   6.366   0.199 -0.0383 -0.5494  0.8747
   17CHTO   O61 6864   5.755   6.397   0.124 -0.2583 -0.2075  0.1586
   17CHTO   C95 6865   5.725   6.253   0.122 -0.3828 -0.4709  0.1726
   17CHTO  H182 6866   5.759   6.209   0.216 -1.1068  0.3958  0.8584
   17CHTO  C106 6867   5.572   6.238   0.116 -0.3534 -0.0507  0.2860
   17CHTO   O69 6868   5.515   6.310   0.229 -0.4013  0.1523 -0.3850
   17CHTO  H169 6869   5.515   6.258   0.306 -0.8563 -0.0046 -0.4870
   17CHTO   O63 6870   5.925   6.582   0.136 -0.2021 -0.6691  0.4228
   17CHTO   C96 6871   5.897   6.641   0.286  0.5096  0.4950  0.1636
   17CHTO  H183 6872   5.917   6.567   0.364 -0.3470  0.9089  0.7917
   17CHTO   C98 6873   5.762   6.705   0.308 -0.1549 -0.2911 -0.0076
   17CHTO  H185 6874   5.745   6.771   0.221 -1.7666 -1.3672 -0.5339
   17CHTO   O67 6875   5.658   6.601   0.300  0.0233  0.3442  0.4784
   17CHTO  H167 6876   5.576   6.645   0.297 -0.3846 -0.4565 -0.4541
   17CHTO  C102 6877   5.748   6.784   0.445  0.1767  0.1011 -0.1604
   17CHTO  H189 6878   5.752   6.708   0.525 -2.8909 -1.1767 -1.1569
   17CHTO   N18 6879   5.622   6.853   0.468  0.3608 -0.6911 -0.2342
   17CHTO  H176 6880   5.622   6.961   0.480  1.0890 -0.4376 -2.3716
   17CHTO  H177 6881   5.560   6.816   0.548  0.3003  2.4824  1.2697
   17CHTO  C105 6882   5.876   6.872   0.472  0.8290 -0.0024  0.1907
   17CHTO  H192 6883   5.870   6.961   0.411 -0.6986  0.1343  0.5107
   17CHTO   O65 6884   5.997   6.799   0.444 -0.2134 -0.4665  0.2166
   17CHTO  C100 6885   6.013   6.743   0.310  0.0192 -0.1366  0.5276
   17CHTO  H187 6886   6.007   6.828   0.241  0.5298 -1.3499 -1.0708
   17CHTO  C107 6887   6.157   6.688   0.306 -0.6282 -0.1531 -0.3549
   17CHTO   O70 6888   6.202   6.654   0.174  0.3041 -0.3186  0.6986
   17CHTO  H170 6889   6.157   6.582   0.135 -0.6558 -0.1469  1.4978
   17CHTO   O57 6890   5.869   6.911   0.639  0.1656  0.6959 -0.0689
   17CHTO   C85 6891   5.956   7.004   0.700  0.4066 -0.0378  0.1975
   17CHTO  H157 6892   5.930   7.091   0.636 -1.8492  0.2748  1.5105
   17CHTO   C83 6893   6.108   6.970   0.678  0.2494 -0.4276 -0.3271
   17CHTO  H155 6894   6.130   6.964   0.572  0.1482  0.2141 -0.3858
   17CHTO   O56 6895   6.130   6.838   0.733 -0.2938  0.0039 -0.0808
   17CHTO  H135 6896   6.059   6.783   0.702  0.8929 -0.9184 -1.2200
   17CHTO   C81 6897   6.185   7.086   0.735 -0.5910  0.3633  0.3523
   17CHTO  H153 6898   6.158   7.174   0.678  0.2836 -0.5981 -1.6017
   17CHTO   N14 6899   6.333   7.055   0.719 -0.1057  0.8447 -0.0010
   17CHTO  H141 6900   6.397   7.140   0.729 -0.5949  1.3630 -1.1232
   17CHTO  H142 6901   6.356   6.993   0.802  0.8484  1.0100 -0.1369
   17CHTO   C79 6902   6.151   7.110   0.889 -0.7446  0.4823 -0.1708
   17CHTO  H151 6903   6.192   7.209   0.913 -1.6643  0.7525  0.2955
   17CHTO   O52 6904   6.011   7.140   0.901  0.1230 -1.0004 -0.1358
   17CHTO   C86 6905   5.926   7.031   0.847 -0.0437 -0.6473 -0.2927
   17CHTO  H158 6906   5.958   6.945   0.910 -2.8555 -1.1990  0.4703
   17CHTO   C90 6907   5.771   7.042   0.865 -0.2124  0.9221 -0.7181
   17CHTO   O60 6908   5.733   7.026   1.004  0.9355 -0.4361 -0.3319
   17CHTO  H138 6909   5.774   6.952   1.044  1.0911  0.3751  1.0551
   17CHTO   O50 6910   6.185   7.011   0.988  0.4694 -0.1724  0.5114
   17CHTO   C73 6911   6.248   6.962   1.108 -0.0869  0.5919  0.2738
   17CHTO  H145 6912   6.281   7.045   1.172  0.4712  0.6513 -0.0883
   17CHTO   C74 6913   6.368   6.875   1.075  0.3303 -0.0531 -0.0047
   17CHTO  H146 6914   6.444   6.935   1.021  0.2799 -0.1898 -0.2233
   17CHTO   O54 6915   6.437   6.851   1.198 -0.1407  0.2872 -0.0903
   17CHTO  H133 6916   6.373   6.826   1.262  1.4238  0.2696  1.5106
   17CHTO   C75 6917   6.328   6.748   0.996 -0.1637 -0.3930 -0.2303
   17CHTO  H147 6918   6.282   6.773   0.899  1.2802 -1.6988 -1.2775
   17CHTO   N13 6919   6.450   6.665   0.965  0.4044  0.3410  0.0179
   17CHTO  H139 6920   6.503   6.627   1.051  1.5314  0.1885 -0.7471
   17CHTO  H140 6921   6.427   6.584   0.897  1.1080  0.0724  0.1000
   17CHTO   C76 6922   6.204   6.674   1.073 -0.0391  0.1642  0.2856
   17CHTO  H148 6923   6.248   6.631   1.163  0.0008  0.4672  0.4104
   17CHTO   O49 6924   6.105   6.772   1.104  0.0515  0.6437 -0.5297
   17CHTO   C77 6925   6.142   6.877   1.191  0.4372 -0.0295  0.1131
   17CHTO  H149 6926   6.190   6.831   1.277  1.3136  0.9326  0.1565
   17CHTO   C88 6927   6.009   6.948   1.233 -0.4138  0.2810  0.0056
   17CHTO   O58 6928   6.027   7.059   1.336 -0.1563 -0.0547 -0.5344
   17CHTO  H136 6929   5.948   7.108   1.350 -0.6342 -1.2534  1.1854
   17CHTO   O51 6930   6.141   6.568   0.978  0.6136  0.0939  0.2518
   17CHTO   C78 6931   6.003   6.529   1.022  0.2374 -0.1630  0.2654
   17CHTO  H150 6932   5.942   6.614   1.059  0.8887 -0.0562  1.1040
   17CHTO   C80 6933   6.006   6.425   1.136 -0.4736  0.4208  0.4975
   17CHTO  H152 6934   6.089   6.355   1.112 -0.4507  1.0017 -1.2054
   17CHTO   O55 6935   6.055   6.488   1.257 -0.4318  0.2906 -1.2040
   17CHTO  H134 6936   6.019   6.573   1.275 -0.2511 -0.0126  0.6896
   17CHTO   C84 6937   5.871   6.354   1.168  0.2448  0.1310  0.2383
   17CHTO  H156 6938   5.813   6.433   1.215 -0.5568 -0.6011  0.5083
   17CHTO   N15 6939   5.882   6.241   1.271  0.5980 -0.0436 -0.6351
   17CHTO  H143 6940   5.987   6.229   1.288  0.9449  1.3492 -1.6843
   17CHTO  H144 6941   5.838   6.278   1.361  0.9780 -0.6726 -0.1835
   17CHTO   C87 6942   5.807   6.310   1.039 -0.5109 -0.2619 -1.0181
   17CHTO  H159 6943   5.857   6.222   1.000 -1.5515 -1.7000  0.8025
   17CHTO   O53 6944   5.808   6.428   0.932  0.4735  0.1859  0.3672
   17CHTO   C82 6945   5.935   6.481   0.896 -0.2075  0.6426 -0.4698
   17CHTO  H154 6946   5.991   6.401   0.849 -0.3969 -0.1423  0.6228
   17CHTO   C89 6947   5.926   6.591   0.788 -0.6707 -0.2326  0.0136
   17CHTO   O59 6948   5.862   6.542   0.676 -0.6857  0.4257  0.2962
   17CHTO  H137 6949   5.915   6.470   0.647  0.3836  1.2507  0.1475
   17CHTO   O45 6950   5.647   6.284   1.061  0.1251 -0.3521  0.4105
   17CHTO   C67 6951   5.577   6.197   0.966  0.8390  0.3345 -0.2188
   17CHTO  H124 6952   5.475   6.186   1.001  1.4285  0.2604  1.5802
   17CHTO   C65 6953   5.575   6.262   0.824 -0.6237  0.0823  0.2012
   17CHTO  H122 6954   5.674   6.302   0.802 -0.2740 -0.9676 -0.1611
   17CHTO   O44 6955   5.483   6.370   0.837  0.1518 -0.0384  0.2194
   17CHTO  H102 6956   5.500   6.440   0.897 -0.4575  0.4587 -0.1705
   17CHTO   C63 6957   5.556   6.156   0.702  0.2106  0.1007 -0.5046
   17CHTO  H120 6958   5.653   6.118   0.672  1.1539  1.1517  1.0896
   17CHTO   N11 6959   5.511   6.212   0.574  0.0658  0.8520  0.1605
   17CHTO  H108 6960   5.413   6.188   0.538  0.1693  0.5734  0.0610
   17CHTO  H109 6961   5.526   6.317   0.585  3.2420  0.5558 -0.5675
   17CHTO   C61 6962   5.481   6.036   0.760 -0.2462  0.7162  0.6094
   17CHTO  H118 6963   5.483   5.960   0.680  1.8063 -0.2792  1.5686
   17CHTO   O40 6964   5.559   5.975   0.870 -0.4815 -0.1548  0.0081
   17CHTO   C68 6965   5.639   6.057   0.960 -0.2566 -0.0581  0.4195
   17CHTO  H125 6966   5.744   6.055   0.924  0.0511 -0.4879  1.3350
   17CHTO   C72 6967   5.638   5.992   1.099  0.2129  0.1321 -0.2063
   17CHTO   O48 6968   5.704   5.865   1.096  0.2287  0.0411 -0.9344
   17CHTO  H105 6969   5.756   5.852   1.172 -0.5646  2.2431  0.0153
   17CHTO   O38 6970   5.343   6.064   0.795 -0.2720 -0.5904  0.4961
   17CHTO   C55 6971   5.265   5.974   0.876  0.2515  0.1378  0.3028
   17CHTO  H112 6972   5.331   5.942   0.958  0.5658  1.5082  0.5993
   17CHTO   C56 6973   5.209   5.853   0.787 -0.0087 -0.4825  0.3784
   17CHTO  H113 6974   5.168   5.894   0.693 -0.8370  1.4282  1.5469
   17CHTO   O42 6975   5.323   5.779   0.751  0.5011 -0.0741  0.8333
   17CHTO  H100 6976   5.305   5.714   0.685 -2.8206  1.2514  0.3680
   17CHTO   C57 6977   5.096   5.766   0.854  0.1864  0.8538  0.3303
   17CHTO  H114 6978   5.142   5.709   0.935 -0.2743  0.4567  0.3089
   17CHTO   N10 6979   5.023   5.680   0.752  0.2861 -0.2287  0.4269
   17CHTO  H106 6980   5.104   5.646   0.689 -1.0009 -2.1135 -0.2630
   17CHTO  H107 6981   4.984   5.599   0.813 -0.8510  0.0561  0.0947
   17CHTO   C58 6982   4.999   5.863   0.919  0.5012  1.1915  0.2091
   17CHTO  H115 6983   4.949   5.923   0.839  0.0483  0.6672  0.1000
   17CHTO   O37 6984   5.062   5.955   1.006 -0.0361  0.0598  0.3669
   17CHTO   C59 6985   5.144   6.047   0.930  0.0806  0.5209  1.0159
   17CHTO  H116 6986   5.086   6.101   0.856 -1.4036 -0.5902  1.3592
   17CHTO   C70 6987   5.184   6.171   1.020  0.0258 -0.1140  0.2120
   17CHTO   O46 6988   5.094   6.284   1.020 -0.6687  0.3029  0.0918
   17CHTO  H103 6989   5.138   6.358   0.983 -0.9321  1.0036  1.1729
   17CHTO   O39 6990   4.897   5.778   1.019 -0.5496  0.3901  0.2380
   17CHTO   C60 6991   4.796   5.868   1.066  0.5370 -0.1528 -0.7624
   17CHTO  H117 6992   4.846   5.960   1.095  0.3791  0.1085 -1.3156
   17CHTO   C62 6993   4.692   5.885   0.951 -0.6352 -0.0337 -1.2710
   17CHTO  H119 6994   4.750   5.938   0.872  1.9236  0.6605  1.0245
   17CHTO   O43 6995   4.646   5.752   0.908  0.0008  0.3859  0.6996
   17CHTO  H101 6996   4.717   5.691   0.919 -0.3076 -0.1167 -0.0874
   17CHTO   C66 6997   4.567   5.977   1.004 -0.7235 -0.4707  0.0113
   17CHTO  H123 6998   4.604   6.070   1.049 -0.7525  0.4184 -1.7691
   17CHTO   N12 6999   4.469   6.014   0.896  0.2986 -0.0578 -0.2042
   17CHTO  H110 7000   4.399   5.934   0.878  0.7535 -0.5607  0.2843
   17CHTO  H111 7001   4.523   6.043   0.807  2.1474 -0.5724  0.7307
   17CHTO   C69 7002   4.497   5.916   1.126  0.2949  0.4714  0.2160
   17CHTO  H126 7003   4.443   5.823   1.098  0.7573 -0.4218  2.2399
   17CHTO   O41 7004   4.592   5.903   1.242  0.1784 -0.8841  0.1137
   17CHTO   C64 7005   4.721   5.817   1.191 -0.5896 -0.5429  0.6733
   17CHTO  H121 7006   4.676   5.717   1.170 -1.2894 -0.5663  2.2265
   17CHTO   C71 7007   4.815   5.803   1.317 -0.1103  0.1175  0.3629
   17CHTO   O47 7008   4.863   5.922   1.377 -0.4065 -0.0671 -0.2958
   17CHTO  H104 7009   4.895   5.973   1.305  0.1432 -1.3445 -0.9803
   17CHTO   O34 7010   4.379   6.006   1.169  0.0267  0.6769  0.0718
   17CHTO   C49 7011   4.235   6.069   1.239 -0.2647 -0.9316  0.5396
   17CHTO   H91 7012   4.267   6.150   1.305  1.3457 -2.9658  2.3609
   17CHTO   C47 7013   4.154   5.960   1.309  0.2202 -0.0314  0.3033
   17CHTO   H89 7014   4.072   6.010   1.365  0.9855  0.5351  0.9267
   17CHTO   O33 7015   4.250   5.911   1.404 -0.0622  0.1306 -0.5756
   17CHTO   H70 7016   4.207   5.871   1.478 -0.4122  2.3202  0.4334
   17CHTO   C45 7017   4.098   5.847   1.203 -0.5105  0.5308 -0.1034
   17CHTO   H87 7018   4.163   5.758   1.205 -1.4629 -0.2692 -2.8774
   17CHTO    N8 7019   3.969   5.793   1.264 -0.2600 -0.3791 -0.0239
   17CHTO   H75 7020   3.971   5.766   1.369 -1.1057  2.2558  0.6856
   17CHTO   H76 7021   3.903   5.731   1.206  0.1069 -1.2983  0.5068
   17CHTO   C43 7022   4.089   5.907   1.060  0.0738 -0.2631 -0.0699
   17CHTO   H85 7023   4.191   5.900   1.023 -0.0925 -1.7556 -0.2875
   17CHTO   O29 7024   4.044   6.044   1.063 -0.3221  0.5905  0.7427
   17CHTO   C50 7025   4.143   6.127   1.125 -0.6962 -0.2919  0.1921
   17CHTO   H92 7026   4.212   6.145   1.041  0.9395 -1.0375  1.3576
   17CHTO   C54 7027   4.085   6.256   1.166 -0.4194 -0.0680  0.4652
   17CHTO   O36 7028   3.998   6.245   1.275  0.7154  0.3600  0.8889
   17CHTO   H72 7029   3.987   6.332   1.309 -0.4791  1.8596 -3.0373
   17CHTO   O27 7030   4.021   5.822   0.967 -0.3636  0.2693 -0.4750
   17CHTO   C37 7031   4.014   5.691   0.910 -0.3023 -0.2051  0.2059
   17CHTO   H79 7032   4.066   5.618   0.973  1.8809  1.5066  0.4329
   17CHTO   C38 7033   3.863   5.642   0.900 -0.5649  0.2794  0.4509
   17CHTO   H80 7034   3.810   5.714   0.837  0.3706 -0.2712 -0.9844
   17CHTO   O31 7035   3.794   5.639   1.028 -0.1142  0.1574 -0.1806
   17CHTO   H68 7036   3.825   5.711   1.079 -0.2236 -1.3993  2.1963
   17CHTO   C39 7037   3.857   5.501   0.833  0.4672  0.1834  0.6650
   17CHTO   H81 7038   3.895   5.430   0.906 -0.0012 -0.5612  0.2030
   17CHTO    N7 7039   3.718   5.456   0.797 -0.0920 -0.4107 -0.1797
   17CHTO   H73 7040   3.736   5.351   0.775  2.5191  0.3254 -1.8176
   17CHTO   H74 7041   3.655   5.482   0.880  0.0385 -0.3270 -0.1049
   17CHTO   C40 7042   3.953   5.485   0.701 -0.4457 -0.0822  0.0449
   17CHTO   H82 7043   3.905   5.528   0.613  3.1679  0.1916 -1.8679
   17CHTO   O26 7044   4.079   5.547   0.724 -0.3435 -0.1564 -0.5209
   17CHTO   C41 7045   4.082   5.688   0.773 -0.4752  0.0082  0.2093
   17CHTO   H83 7046   4.016   5.745   0.706  0.5297  0.8526 -0.0641
   17CHTO   C52 7047   4.226   5.740   0.766  0.1902  0.1014 -0.0947
   17CHTO   O35 7048   4.320   5.651   0.852  0.3247 -0.1083  0.5827
   17CHTO   H71 7049   4.381   5.600   0.803  0.6726  1.7108 -0.9257
   17CHTO   O28 7050   3.953   5.342   0.661  0.3738  0.3415  0.3202
   17CHTO   C42 7051   4.062   5.250   0.696 -0.2701 -0.0374  0.1925
   17CHTO   H84 7052   4.022   5.153   0.668  2.3577 -0.9178 -0.6697
   17CHTO   C44 7053   4.108   5.236   0.845 -0.3073  0.5374 -0.1076
   17CHTO   H86 7054   4.116   5.337   0.883 -1.8085  0.7986 -0.4456
   17CHTO   O32 7055   3.999   5.171   0.911  0.0597  0.3724  0.7121
   17CHTO   H69 7056   3.923   5.224   0.925  0.1792  0.3386  1.4721
   17CHTO   C48 7057   4.239   5.155   0.875 -0.0274 -0.2468  0.0231
   17CHTO   H90 7058   4.199   5.055   0.861 -1.6686 -0.0349  2.8161
   17CHTO    N9 7059   4.297   5.153   1.014  0.1483  0.1212 -0.1111
   17CHTO   H77 7060   4.269   5.246   1.061  0.4066  0.5819 -0.8513
   17CHTO   H78 7061   4.249   5.070   1.063 -3.0073  0.8764 -1.8035
   17CHTO   C51 7062   4.349   5.194   0.768 -0.1326 -0.5101 -0.0112
   17CHTO   H93 7063   4.367   5.300   0.786  3.0281 -1.0490  0.2775
   17CHTO   O30 7064   4.284   5.172   0.643 -0.3539 -0.2067 -0.5374
   17CHTO   C46 7065   4.183   5.279   0.605 -0.0275 -0.1856  0.5167
   17CHTO   H88 7066   4.226   5.378   0.620  1.4119 -0.7610  0.2692
   17CHTO   C53 7067   4.166   5.261   0.458  0.1730  0.3891  1.0509
   17CHTO   O72 7068   4.268   5.307   0.373 -0.2889 -0.0166 -0.2061
   17CHTO  H199 7069   4.310   5.385   0.403  0.2161  0.1593 -1.3430
   17CHTO   O22 7070   4.478   5.124   0.768  0.2443  0.0985 -0.6262
   17CHTO   C31 7071   4.586   5.158   0.678 -0.0629 -0.0254  0.0125
   17CHTO   H59 7072   4.679   5.115   0.721  0.5470 -0.1133 -1.3738
   17CHTO   C29 7073   4.567   5.092   0.542  0.6520  0.2512 -0.1750
   17CHTO   H57 7074   4.460   5.086   0.514  0.4371  0.3537  0.6149
   17CHTO   O21 7075   4.601   4.955   0.562  0.9285  0.1430 -0.3157
   17CHTO   H37 7076   4.528   4.901   0.584  1.6142 -1.0950 -1.0321
   17CHTO   C27 7077   4.652   5.146   0.418 -0.4589  0.2792  0.7280
   17CHTO   H55 7078   4.752   5.101   0.417 -0.6091 -0.0701 -0.8751
   17CHTO    N5 7079   4.590   5.110   0.286 -0.0522 -0.2326 -0.0803
   17CHTO   H43 7080   4.633   5.178   0.214  1.5584 -0.3204  0.7634
   17CHTO   H44 7081   4.594   5.011   0.244 -1.9139 -0.1391 -0.5119
   17CHTO   C25 7082   4.670   5.300   0.424 -0.0991 -0.3861 -0.6435
   17CHTO   H53 7083   4.576   5.352   0.400 -0.5749  0.4763  2.8325
   17CHTO   O17 7084   4.717   5.326   0.565  0.5050 -0.2470  0.7129
   17CHTO   C32 7085   4.613   5.308   0.665 -0.1897 -0.0842 -0.1067
   17CHTO   H60 7086   4.520   5.360   0.642  0.1566  0.9975  0.8856
   17CHTO   C36 7087   4.666   5.374   0.792  0.5844 -0.4412 -0.6426
   17CHTO   O25 7088   4.560   5.410   0.883 -0.1071 -0.0429 -0.0613
   17CHTO   H40 7089   4.545   5.338   0.941  1.1463  1.2181  1.8600
   17CHTO   O15 7090   4.771   5.359   0.326  0.3002 -1.1716  0.7335
   17CHTO   C19 7091   4.813   5.490   0.289  0.3982 -0.0012 -0.3304
   17CHTO   H47 7092   4.880   5.483   0.202  0.6625 -1.2552 -0.0413
   17CHTO   C20 7093   4.694   5.580   0.252  0.0662  0.0766 -0.0866
   17CHTO   H48 7094   4.619   5.579   0.332 -0.8392 -0.2397 -0.9173
   17CHTO   O19 7095   4.629   5.530   0.138  0.0598 -0.5341 -0.4433
   17CHTO   H35 7096   4.557   5.473   0.158  0.1504 -0.8349 -0.9621
   17CHTO   C21 7097   4.751   5.729   0.230  0.2072  0.4482  0.2468
   17CHTO   H49 7098   4.804   5.729   0.134 -1.8506 -1.4085 -0.9511
   17CHTO    N4 7099   4.634   5.823   0.218 -0.1956  0.0813  0.3861
   17CHTO   H41 7100   4.534   5.789   0.239 -0.7316  0.8889 -0.8226
   17CHTO   H42 7101   4.634   5.870   0.120 -0.3598 -1.1561 -0.2213
   17CHTO   C22 7102   4.830   5.770   0.360  0.2293 -0.2185 -0.4474
   17CHTO   H50 7103   4.765   5.774   0.447  1.0773  0.6574  0.1487
   17CHTO   O14 7104   4.944   5.678   0.382 -0.2197 -0.5130  0.4965
   17CHTO   C23 7105   4.898   5.545   0.411 -0.0751  0.2073 -0.0263
   17CHTO   H51 7106   4.848   5.528   0.507  1.8314 -2.1212  0.6261
   17CHTO   C34 7107   5.027   5.461   0.430  0.9441 -0.5754  0.1767
   17CHTO   O23 7108   4.998   5.340   0.501 -0.3337 -0.0148  0.0325
   17CHTO   H38 7109   5.050   5.269   0.469 -1.4002 -1.0040  0.4705
   17CHTO   O16 7110   4.904   5.892   0.333 -0.1692 -0.3064 -0.1989
   17CHTO   C24 7111   4.918   5.983   0.476 -0.0280  0.0971 -0.6872
   17CHTO   H52 7112   4.938   5.920   0.563 -3.0166 -0.8950 -0.6731
   17CHTO   C26 7113   4.793   6.068   0.507  0.0730  0.4576  0.2219
   17CHTO   H54 7114   4.771   6.136   0.423 -0.6392 -1.9511 -1.5924
   17CHTO   O20 7115   4.680   5.974   0.525 -0.2670 -0.2938 -0.0555
   17CHTO   H36 7116   4.656   5.932   0.445 -2.5181  0.4749  0.1736
   17CHTO   C30 7117   4.811   6.155   0.636 -0.1129 -0.9723  0.1690
   17CHTO   H58 7118   4.828   6.084   0.718 -1.0407  0.5519  1.7276
   17CHTO    N6 7119   4.687   6.232   0.676 -0.1105 -0.2498  0.0370
   17CHTO   H45 7120   4.690   6.281   0.773 -0.2464 -1.1896  0.5207
   17CHTO   H46 7121   4.599   6.170   0.667 -0.2687  0.1825 -1.5347
   17CHTO   C33 7122   4.942   6.240   0.611 -0.2250  0.0038  0.0186
   17CHTO   H61 7123   4.924   6.307   0.525 -1.1473 -0.4752 -0.1632
   17CHTO   O18 7124   5.057   6.152   0.578 -0.2473 -0.3988 -0.0684
   17CHTO   C28 7125   5.039   6.078   0.452 -0.3693 -0.0534 -0.6730
   17CHTO   H56 7126   5.013   6.143   0.368  3.7922  1.5608 -0.8606
   17CHTO   C35 7127   5.164   5.993   0.412  0.3167 -0.0626  0.0022
   17CHTO   O24 7128   5.275   6.070   0.373 -0.1822 -0.0485  0.3794
   17CHTO   H39 7129   5.305   6.036   0.291  0.0050 -1.2781  0.9515
   17CHTO    O9 7130   4.972   6.327   0.722 -0.4707  0.1003 -0.5268
   17CHTO   C13 7131   5.053   6.454   0.664 -0.1384  0.4414 -0.7146
   17CHTO   H26 7132   5.087   6.432   0.561  0.1149  1.1660 -0.7913
   17CHTO   C11 7133   5.172   6.507   0.756 -0.0532 -0.1380  0.3345
   17CHTO   H24 7134   5.239   6.421   0.765 -0.2762 -0.6848 -2.6784
   17CHTO    O8 7135   5.122   6.542   0.887 -0.3932  0.3141 -0.4226
   17CHTO    H3 7136   5.121   6.636   0.893  1.7249  0.4171 -1.0076
   17CHTO    C9 7137   5.239   6.621   0.671 -0.1082 -0.1777 -0.0539
   17CHTO   H22 7138   5.246   6.582   0.568 -1.6442  2.6594 -1.2988
   17CHTO    N2 7139   5.372   6.664   0.709 -0.5914 -0.0955  0.1979
   17CHTO   H10 7140   5.443   6.663   0.628 -1.4929  0.8067 -0.6164
   17CHTO   H11 7141   5.385   6.757   0.762  1.5085  0.5220 -1.3439
   17CHTO    C7 7142   5.142   6.750   0.663  0.1008  0.0664 -0.3029
   17CHTO   H20 7143   5.187   6.818   0.587  0.4233  0.4945  0.2711
   17CHTO    O4 7144   5.009   6.706   0.615  0.5586 -0.0575  0.4397
   17CHTO   C14 7145   4.954   6.574   0.628 -0.1593 -0.2010 -0.1208
   17CHTO   H27 7146   4.913   6.548   0.529  2.8526  1.3987 -1.8835
   17CHTO   C18 7147   4.833   6.585   0.727  0.3908 -0.0582 -0.5941
   17CHTO   O13 7148   4.737   6.675   0.672  0.6516  0.1229  0.0789
   17CHTO    H7 7149   4.784   6.749   0.638  0.8104  0.7914  1.7194
   17CHTO    O2 7150   5.114   6.815   0.803  0.0179  0.0845 -0.1055
   17CHTO    C1 7151   5.093   6.956   0.820 -0.3899 -0.8379  0.1435
   17CHTO   H14 7152   5.011   6.996   0.757  0.3830  4.2573  2.0868
   17CHTO    C2 7153   5.225   7.053   0.799  0.2164 -0.7960 -0.0721
   17CHTO   H15 7154   5.309   7.012   0.856  1.1948  1.5961  0.2441
   17CHTO    O6 7155   5.250   7.050   0.657  0.5469 -0.1846 -0.0798
   17CHTO    H1 7156   5.293   6.969   0.637  1.3910  0.6216 -1.6392
   17CHTO    C3 7157   5.212   7.206   0.847  0.4234  0.0856  0.0289
   17CHTO   H16 7158   5.151   7.259   0.773  0.1377  1.1901  1.0458
   17CHTO    N1 7159   5.343   7.279   0.842  0.1444 -0.2652 -0.1561
   17CHTO    H8 7160   5.384   7.267   0.743  0.1379  1.6790 -0.4230
   17CHTO    H9 7161   5.410   7.255   0.923  0.0101 -1.3073 -0.3591
   17CHTO    C4 7162   5.138   7.206   0.981 -0.0171 -0.3582  0.5768
   17CHTO   H17 7163   5.208   7.173   1.059  1.3987 -0.2922 -0.6443
   17CHTO    O1 7164   5.020   7.121   0.982 -0.5728 -0.0864  0.0234
   17CHTO    C5 7165   5.039   6.979   0.963  0.4771  0.4122 -0.0846
   17CHTO   H18 7166   5.112   6.947   1.038 -0.1983  1.2186  0.9279
   17CHTO   C16 7167   4.900   6.914   0.990  0.3970 -0.0660  0.6934
   17CHTO   O11 7168   4.865   6.946   1.124  0.0075  0.6495  0.3893
   17CHTO    H5 7169   4.778   6.977   1.115  0.6108  2.1167 -0.4797
   17CHTO    O3 7170   5.092   7.339   1.015  0.2119 -0.1781  0.5938
   17CHTO    C6 7171   5.081   7.385   1.157  0.0249 -0.3130  0.8473
   17CHTO   H19 7172   5.020   7.475   1.162  0.8407  0.2453  0.7340
   17CHTO    C8 7173   5.032   7.277   1.257  0.3461  0.2487 -0.3154
   17CHTO   H21 7174   5.101   7.193   1.252 -1.1238 -0.9132 -1.9985
   17CHTO    O7 7175   4.892   7.244   1.230  0.1874  0.1491 -0.2706
   17CHTO    H2 7176   4.873   7.214   1.143 -0.4857 -1.2938  0.3645
   17CHTO   C12 7177   5.050   7.333   1.407  0.1401  0.0764  0.8099
   17CHTO   H25 7178   4.987   7.424   1.410  1.6495  1.1638  0.0481
   17CHTO    N3 7179   5.016   7.228   1.508 -0.2645 -0.2991  0.4464
   17CHTO   H12 7180   5.095   7.202   1.577 -0.5034 -2.6598 -0.1124
   17CHTO   H13 7181   4.924   7.253   1.560 -0.7921 -1.5939  0.1601
   17CHTO   C15 7182   5.197   7.377   1.429  0.7537  0.1654  0.2264
   17CHTO   H28 7183   5.271   7.298   1.424  1.0464  0.4586 -0.1540
   17CHTO   O10 7184   5.221   7.445   1.558  0.0413 -0.2294 -0.2012
   17CHTO    H4 7185   5.308   7.481   1.554 -0.4603  1.3441  2.1684
   17CHTO    O5 7186   5.230   7.483   1.335 -0.5316  0.8687  0.3019
   17CHTO   C10 7187   5.221   7.433   1.196  0.2371 -0.0211 -0.0229
   17CHTO   H23 7188   5.296   7.357   1.178  2.1418  1.8384 -0.0987
   17CHTO   C17 7189   5.272   7.540   1.099  0.0482  0.1445 -0.0458
   17CHTO   O12 7190   5.200   7.660   1.110  0.5419  0.1160 -0.2060
   17CHTO    H6 7191   5.245   7.734   1.146  0.0525  1.2251 -1.8117
   18CHTO  H203 7192   6.369   7.421   1.810 -0.0528 -2.3697  0.8209
   18CHTO   O82 7193   6.461   7.407   1.798  0.3189  0.0928  0.4761
   18CHTO  C123 7194   6.478   7.422   1.655  0.2605  0.0144  0.0571
   18CHTO  H227 7195   6.583   7.445   1.632  0.5861 -1.3864  0.1068
   18CHTO   O77 7196   6.440   7.287   1.608  0.2239  0.0809 -0.0667
   18CHTO  C118 7197   6.464   7.267   1.466  0.5648  0.7597 -0.2409
   18CHTO  H222 7198   6.567   7.292   1.434  1.1594 -0.5470  0.6547
   18CHTO  C125 7199   6.439   7.108   1.448 -0.1252 -0.3959  0.2139
   18CHTO   O84 7200   6.302   7.079   1.436  0.2182 -0.2068  0.2824
   18CHTO  H205 7201   6.276   7.090   1.346 -2.9062 -1.7818  0.9327
   18CHTO  C114 7202   6.368   7.355   1.387  0.3850  0.4752 -0.0029
   18CHTO  H218 7203   6.267   7.333   1.420  0.8373 -0.8146  0.5667
   18CHTO  C116 7204   6.393   7.500   1.429 -1.0149 -0.2282 -0.3946
   18CHTO  H220 7205   6.496   7.525   1.397 -1.2388 -0.1897 -1.0979
   18CHTO   O79 7206   6.306   7.584   1.352 -0.5130 -0.2754 -0.0017
   18CHTO  H201 7207   6.346   7.615   1.273  0.3273 -2.7752 -0.5922
   18CHTO  C120 7208   6.374   7.520   1.586  0.1203  0.1263  0.2845
   18CHTO  H224 7209   6.273   7.489   1.620  0.6862 -1.0122  0.9370
   18CHTO   N21 7210   6.412   7.663   1.616 -0.0951 -0.1526  0.4185
   18CHTO  H211 7211   6.358   7.705   1.700 -1.1709  1.9835 -1.3047
   18CHTO  H212 7212   6.518   7.677   1.629  0.7566 -3.0903 -2.5909
   18CHTO   O75 7213   6.380   7.317   1.252 -0.4198  0.0131  0.3723
   18CHTO  C112 7214   6.501   7.394   1.161 -0.0650 -0.3968  0.4915
   18CHTO  H216 7215   6.595   7.368   1.212 -0.7407  0.1547  2.0332
   18CHTO   O73 7216   6.484   7.540   1.152 -0.0851 -0.0117 -0.3453
   18CHTO  C113 7217   6.597   7.598   1.095 -0.0908  0.0195  0.1764
   18CHTO  H217 7218   6.687   7.553   1.140  0.0207  0.6484  0.5894
   18CHTO  C124 7219   6.591   7.748   1.134  0.0744 -0.7738  0.3807
   18CHTO   O83 7220   6.702   7.828   1.078  0.4816 -0.0006 -0.0842
   18CHTO  H204 7221   6.666   7.902   1.032 -3.4084 -2.5809 -1.4877
   18CHTO  C109 7222   6.590   7.573   0.944 -0.2992  0.0395 -0.5575
   18CHTO  H213 7223   6.493   7.612   0.910 -0.3678  0.0705 -0.3265
   18CHTO  C110 7224   6.597   7.417   0.924  0.1791 -0.1170  0.3311
   18CHTO  H214 7225   6.701   7.389   0.936  0.1586 -0.4307 -0.2120
   18CHTO   O78 7226   6.569   7.388   0.787 -0.0230 -0.0569 -0.1241
   18CHTO  H200 7227   6.621   7.435   0.724  0.2930  1.4467  1.2270
   18CHTO  C111 7228   6.498   7.337   1.017 -0.6872  0.4884  0.7248
   18CHTO  H215 7229   6.395   7.352   0.981  0.3279  0.9600 -2.0970
   18CHTO   N19 7230   6.526   7.189   1.004 -0.2726 -0.1497 -0.2424
   18CHTO  H207 7231   6.453   7.145   1.070  0.1182  0.0462  0.3236
   18CHTO  H208 7232   6.628   7.163   1.029 -0.2396  0.5253  0.3429
   18CHTO   O74 7233   6.698   7.629   0.865  0.5363  0.8544  0.1873
   18CHTO  C115 7234   6.655   7.666   0.705  0.2032  0.1643 -0.4862
   18CHTO  H219 7235   6.592   7.590   0.661  1.2200 -0.3528 -1.0507
   18CHTO   O76 7236   6.567   7.800   0.694  0.1784 -0.2516 -0.0174
   18CHTO  C122 7237   6.559   7.862   0.560 -0.3948 -0.1496 -0.0860
   18CHTO  H226 7238   6.526   7.964   0.578 -0.6363 -0.3110  0.3782
   18CHTO  C126 7239   6.448   7.799   0.467 -0.0271  0.6068 -0.3631
   18CHTO   O85 7240   6.432   7.857   0.342  0.2948  0.0351 -0.0345
   18CHTO  H206 7241   6.495   7.820   0.284 -0.1269  0.5755 -0.8587
   18CHTO  C121 7242   6.695   7.869   0.477  0.0847  0.1430 -0.3369
   18CHTO  H225 7243   6.676   7.898   0.372  0.0188  1.0981 -0.0735
   18CHTO   O81 7244   6.781   7.976   0.521  0.2318 -0.3012  0.3924
   18CHTO  H202 7245   6.829   7.942   0.595  1.7046  4.0426  1.5936
   18CHTO  C119 7246   6.768   7.731   0.478 -0.1638 -0.0856  0.3397
   18CHTO  H223 7247   6.693   7.665   0.436 -0.9506  0.1883  1.2981
   18CHTO  C117 7248   6.795   7.678   0.628  0.2231 -0.1068  0.7351
   18CHTO  H221 7249   6.863   7.741   0.684 -0.3138  0.4160  0.8079
   18CHTO   N20 7250   6.867   7.544   0.629 -0.1314  0.2273  0.0993
   18CHTO  H209 7251   6.960   7.554   0.682  1.5975 -1.0210 -2.5902
   18CHTO  H210 7252   6.809   7.463   0.672  0.0860  0.3369  0.5950
   18CHTO   O80 7253   6.897   7.714   0.372  0.0846 -0.0045 -0.0037
   18CHTO  C103 7254   6.876   7.640   0.232 -0.3856 -0.5918  1.2144
   18CHTO  H190 7255   6.972   7.644   0.179 -0.6881  0.5175  0.7494
   18CHTO  C101 7256   6.844   7.484   0.235 -0.5270  0.1372  0.0655
   18CHTO  H188 7257   6.747   7.464   0.281  0.3422  0.7918  2.2334
   18CHTO   O68 7258   6.953   7.408   0.305 -0.0650 -0.1964 -0.2600
   18CHTO  H168 7259   7.034   7.425   0.259 -1.3349  1.4689 -1.9767
   18CHTO   C99 7260   6.822   7.432   0.089  0.3331  0.3968 -0.1481
   18CHTO  H186 7261   6.911   7.454   0.026 -0.8293  1.1401 -1.5586
   18CHTO   N17 7262   6.794   7.284   0.072 -0.1299  0.1444 -0.0712
   18CHTO  H174 7263   6.885   7.226   0.080  0.3745  0.4350 -3.0783
   18CHTO  H175 7264   6.720   7.246   0.140  0.6895 -0.3041  0.5869
   18CHTO   C97 7265   6.701   7.520   0.030 -0.1000 -0.2447  0.4319
   18CHTO  H184 7266   6.617   7.517   0.102 -0.4463  2.5728  0.1962
   18CHTO   O64 7267   6.755   7.655   0.015 -0.0407  0.0165 -0.3950
   18CHTO  C104 7268   6.763   7.709   0.143  0.0883  0.2319  0.2631
   18CHTO  H191 7269   6.670   7.704   0.200 -0.6591  0.5654 -0.9157
   18CHTO  C108 7270   6.793   7.859   0.123 -0.4363  0.0376 -0.5277
   18CHTO   O71 7271   6.911   7.890   0.042 -0.3211 -0.2491  0.1518
   18CHTO  H171 7272   6.894   7.957  -0.021  1.1828  1.1074  1.1555
   18CHTO   O62 7273   6.653   7.482  -0.100 -0.1295 -0.0057  0.2200
   18CHTO   C91 7274   6.532   7.539  -0.143  0.2792  0.4374  0.3682
   18CHTO  H178 7275   6.511   7.620  -0.074 -2.0843  1.0450 -0.9886
   18CHTO   C92 7276   6.427   7.430  -0.130 -0.2860 -0.4013 -0.0111
   18CHTO  H179 7277   6.459   7.351  -0.199 -0.5183  1.7070 -2.6238
   18CHTO   O66 7278   6.431   7.369   0.004  0.3402  0.2774 -0.2530
   18CHTO  H166 7279   6.507   7.315   0.013  0.1584  0.0572 -0.0386
   18CHTO   C93 7280   6.281   7.488  -0.170  0.3560  0.4850 -0.0559
   18CHTO  H180 7281   6.235   7.531  -0.080  1.0008  0.6540  0.2000
   18CHTO   N16 7282   6.180   7.385  -0.212 -0.3820  0.0489  0.2443
   18CHTO  H172 7283   6.212   7.282  -0.207  0.9765  0.4302 -0.3754
   18CHTO  H173 7284   6.166   7.399  -0.318  0.1960  1.9933  0.3926
   18CHTO   C94 7285   6.290   7.601  -0.276 -0.5901 -0.4333 -0.2346
   18CHTO  H181 7286   6.203   7.600  -0.343 -0.0266 -1.9841 -0.9725
   18CHTO   O61 7287   6.406   7.589  -0.363 -0.4784  0.5149  0.2450
   18CHTO   C95 7288   6.535   7.592  -0.297 -0.0761  0.5684 -0.7292
   18CHTO  H182 7289   6.599   7.525  -0.355 -1.2082 -0.8358 -0.3954
   18CHTO  C106 7290   6.595   7.738  -0.299 -0.3683 -0.5191  0.6132
   18CHTO   O69 7291   6.550   7.844  -0.213  0.1001  0.0311  0.1701
   18CHTO  H169 7292   6.465   7.820  -0.181 -0.3377 -1.3785 -1.9639
   18CHTO   O63 7293   6.295   7.745  -0.182  0.3184  0.0760 -0.6984
   18CHTO   C96 7294   6.197   7.829  -0.212 -0.1907  0.0829 -0.7976
   18CHTO  H183 7295   6.121   7.782  -0.275  0.4252 -0.7376 -0.9452
   18CHTO   C98 7296   6.241   7.954  -0.298  0.0926 -0.2852 -0.7031
   18CHTO  H185 7297   6.318   8.009  -0.242  0.3559 -0.7319 -0.6265
   18CHTO   O67 7298   6.311   7.912  -0.414  0.1300 -0.2607  0.1632
   18CHTO  H167 7299   6.257   7.865  -0.475  0.3255  0.7399 -0.8170
   18CHTO  C102 7300   6.112   8.049  -0.334 -0.2534 -0.0985 -0.2044
   18CHTO  H189 7301   6.069   8.005  -0.425  0.6256 -0.2057 -0.5650
   18CHTO   N18 7302   6.146   8.183  -0.378 -0.0680 -0.0762 -0.3055
   18CHTO  H176 7303   6.216   8.173  -0.459 -0.6692 -0.6212 -0.7639
   18CHTO  H177 7304   6.198   8.235  -0.299  0.0965 -1.7243  0.7041
   18CHTO  C105 7305   6.009   8.051  -0.221 -0.1681  0.2938  0.7521
   18CHTO  H192 7306   5.969   8.150  -0.199 -2.6121 -0.4770 -0.0522
   18CHTO   O65 7307   6.050   8.000  -0.095 -0.5925  0.3444  0.1777
   18CHTO  C100 7308   6.127   7.885  -0.082 -0.0629  0.1521  0.2908
   18CHTO  H187 7309   6.208   7.913  -0.013  1.2020 -0.5984 -0.8550
   18CHTO  C107 7310   6.051   7.762  -0.017  0.0603  0.4830  0.2689
   18CHTO   O70 7311   5.922   7.742  -0.072  0.0815  0.5712 -0.0649
   18CHTO  H170 7312   5.905   7.655  -0.102 -1.1272  0.3397  1.2291
   18CHTO   O57 7313   5.884   7.967  -0.270 -0.2335  0.3875  0.1535
   18CHTO   C85 7314   5.780   8.025  -0.352 -0.0630  0.0416 -0.0790
   18CHTO  H157 7315   5.828   8.099  -0.420  0.0066 -1.8390 -2.1380
   18CHTO   C83 7316   5.674   8.100  -0.262 -0.1990 -0.0008  0.1226
   18CHTO  H155 7317   5.720   8.181  -0.206 -0.5575  0.3000 -0.0143
   18CHTO   O56 7318   5.626   8.007  -0.166  0.1361  0.5892  0.0689
   18CHTO  H135 7319   5.557   8.045  -0.115  1.1524  0.2530  1.7304
   18CHTO   C81 7320   5.567   8.158  -0.359 -0.3614 -0.4509  0.8295
   18CHTO  H153 7321   5.626   8.216  -0.430  0.3002 -1.1520  0.7927
   18CHTO   N14 7322   5.472   8.252  -0.291 -0.3421  0.4474 -0.1142
   18CHTO  H141 7323   5.429   8.321  -0.360  0.9311  1.1883 -0.1788
   18CHTO  H142 7324   5.528   8.307  -0.219 -0.1248  1.6862 -1.2132
   18CHTO   C79 7325   5.498   8.044  -0.443  0.4122 -0.1332 -0.4455
   18CHTO  H151 7326   5.434   8.095  -0.515  1.7314  1.5727 -0.4245
   18CHTO   O52 7327   5.603   7.970  -0.524  0.2792  0.1366  0.0065
   18CHTO   C86 7328   5.706   7.917  -0.438 -0.7338  0.7195  0.5079
   18CHTO  H158 7329   5.650   7.839  -0.383  0.4605 -1.2718 -1.0327
   18CHTO   C90 7330   5.807   7.839  -0.535  0.4365  0.2243 -0.5741
   18CHTO   O60 7331   5.886   7.942  -0.601 -0.0911  0.4402 -0.6388
   18CHTO  H138 7332   5.958   7.900  -0.643 -0.5638 -0.4803 -0.5399
   18CHTO   O50 7333   5.418   7.953  -0.370  0.0719 -0.3571  0.0971
   18CHTO   C73 7334   5.309   7.861  -0.380 -0.5082 -0.3110 -0.2881
   18CHTO  H145 7335   5.334   7.791  -0.461  1.9194  1.1906 -0.9115
   18CHTO   C74 7336   5.182   7.943  -0.417 -0.2613 -0.1704  0.1288
   18CHTO  H146 7337   5.185   7.998  -0.512  0.1119 -0.3918  0.0126
   18CHTO   O54 7338   5.080   7.854  -0.436 -0.4484 -0.0094  0.1263
   18CHTO  H133 7339   5.013   7.881  -0.496 -1.8431 -0.2587  1.5383
   18CHTO   C75 7340   5.153   8.038  -0.298  0.7971  0.2459  0.5157
   18CHTO  H147 7341   5.226   8.120  -0.290 -0.5206  1.9722 -3.7623
   18CHTO   N13 7342   5.022   8.111  -0.315  0.3364  0.1870  0.3231
   18CHTO  H139 7343   4.935   8.050  -0.293  0.3764 -0.7499 -2.0297
   18CHTO  H140 7344   5.017   8.142  -0.418  0.3746 -0.3603  0.1553
   18CHTO   C76 7345   5.160   7.962  -0.152  0.3893 -0.5822  0.0324
   18CHTO  H148 7346   5.070   7.902  -0.136 -0.3861  0.6313  0.3328
   18CHTO   O49 7347   5.272   7.876  -0.136  0.3196  0.5492 -0.5526
   18CHTO   C77 7348   5.298   7.782  -0.243  0.4947  0.0357 -0.4441
   18CHTO  H149 7349   5.215   7.712  -0.255  0.2953  0.5073 -1.9549
   18CHTO   C88 7350   5.420   7.699  -0.212  0.6577  0.5827 -0.4410
   18CHTO   O58 7351   5.440   7.599  -0.307  0.4978 -0.0352  0.3283
   18CHTO  H136 7352   5.364   7.546  -0.314 -0.6542  1.5341  0.6930
   18CHTO   O51 7353   5.184   8.063  -0.032 -0.2566 -0.0313 -0.0313
   18CHTO   C78 7354   5.198   7.989   0.121  0.4093  0.2093  0.0210
   18CHTO  H150 7355   5.223   7.881   0.115 -0.6037 -0.0399  0.1809
   18CHTO   C80 7356   5.069   8.004   0.204  0.1630 -0.3774 -0.0074
   18CHTO  H152 7357   5.039   8.110   0.206 -0.7913 -0.6075 -1.3286
   18CHTO   O55 7358   4.960   7.940   0.134 -0.2216  0.3383  0.3742
   18CHTO  H134 7359   4.875   7.960   0.169 -0.2807  0.4447  0.1687
   18CHTO   C84 7360   5.076   7.952   0.349 -0.3937  0.6803 -0.0719
   18CHTO  H156 7361   5.087   7.844   0.338  0.2483  0.6434  0.8763
   18CHTO   N15 7362   4.951   7.973   0.431  0.8202 -0.1884 -0.4151
   18CHTO  H143 7363   4.947   7.897   0.506  3.1658 -0.3533 -0.4075
   18CHTO  H144 7364   4.965   8.069   0.476 -1.2891  0.4265 -1.0359
   18CHTO   C87 7365   5.200   8.016   0.421 -0.3135 -0.0186 -0.7345
   18CHTO  H159 7366   5.186   8.124   0.429  2.5864  0.3364 -0.0380
   18CHTO   O53 7367   5.319   7.992   0.331 -0.9629 -0.0492 -0.4554
   18CHTO   C82 7368   5.310   8.053   0.203  0.1304 -0.2692 -0.1732
   18CHTO  H154 7369   5.295   8.160   0.218  1.5578 -0.3273  1.9069
   18CHTO   C89 7370   5.444   8.041   0.123  0.7329 -0.1234 -0.4237
   18CHTO   O59 7371   5.493   7.910   0.116 -0.2205  0.1270 -0.4923
   18CHTO  H137 7372   5.425   7.854   0.083 -0.2147 -0.4638  0.5042
   18CHTO   O45 7373   5.234   7.950   0.573 -0.1067  0.0513  0.3681
   18CHTO   C67 7374   5.362   7.986   0.624 -0.1242  0.1413  0.0758
   18CHTO  H124 7375   5.435   7.970   0.545 -0.5803  0.1269 -0.3467
   18CHTO   C65 7376   5.367   8.134   0.672  0.0912  0.4356 -0.1186
   18CHTO  H122 7377   5.265   8.158   0.701  0.4519 -0.4972  2.0409
   18CHTO   O44 7378   5.397   8.218   0.562  0.0204  0.2497 -0.1476
   18CHTO  H102 7379   5.340   8.190   0.493  1.0995 -0.5632 -0.7277
   18CHTO   C63 7380   5.438   8.159   0.805 -0.3114  0.4226 -0.3737
   18CHTO  H120 7381   5.370   8.127   0.883 -0.6919  1.9599 -0.0658
   18CHTO   N11 7382   5.470   8.302   0.842  0.0931  0.3870 -0.5586
   18CHTO  H108 7383   5.481   8.356   0.751 -0.3071  0.5416 -0.5152
   18CHTO  H109 7384   5.400   8.342   0.913 -1.2153 -1.7625 -0.5888
   18CHTO   C61 7385   5.566   8.065   0.809  0.0520  0.1305 -0.2308
   18CHTO  H118 7386   5.629   8.075   0.899 -0.3289 -0.2882  0.0822
   18CHTO   O40 7387   5.523   7.928   0.806 -0.0042  0.4933  0.3831
   18CHTO   C68 7388   5.401   7.887   0.730 -0.0453 -0.1388 -0.1477
   18CHTO  H125 7389   5.319   7.887   0.805 -0.7284 -0.0751 -0.8830
   18CHTO   C72 7390   5.418   7.744   0.683  0.1022 -0.3578 -0.2321
   18CHTO   O48 7391   5.436   7.652   0.792  0.4870  0.3038 -0.2291
   18CHTO  H105 7392   5.354   7.608   0.802 -0.0572  1.2683 -0.3816
   18CHTO   O38 7393   5.654   8.083   0.694  0.2586 -0.0762 -0.0399
   18CHTO   C55 7394   5.787   8.038   0.721 -0.8361 -0.7600  0.0400
   18CHTO  H112 7395   5.780   7.959   0.798 -1.2959  1.0538  1.8909
   18CHTO   C56 7396   5.880   8.161   0.768 -0.3537 -0.1283  0.0630
   18CHTO  H113 7397   5.877   8.238   0.689  0.2553 -1.2673 -1.0882
   18CHTO   O42 7398   5.826   8.217   0.880  0.3425  0.0488 -0.2366
   18CHTO  H100 7399   5.748   8.270   0.875 -0.4619 -0.5214  4.1776
   18CHTO   C57 7400   6.025   8.108   0.799  0.3473 -0.7495 -0.0687
   18CHTO  H114 7401   6.013   8.054   0.893 -2.1877  0.9497  0.6306
   18CHTO   N10 7402   6.114   8.222   0.824  0.4372  0.6951 -0.5752
   18CHTO  H106 7403   6.104   8.246   0.929 -1.0277 -0.5124 -0.4178
   18CHTO  H107 7404   6.217   8.211   0.794  0.6400  1.6094 -0.2425
   18CHTO   C58 7405   6.083   8.012   0.689  0.7013  0.4310  0.2936
   18CHTO  H115 7406   6.125   8.070   0.604  3.3431  0.0354  1.2951
   18CHTO   O37 7407   5.986   7.921   0.637 -0.7440  0.1654 -0.0864
   18CHTO   C59 7408   5.858   7.967   0.594  0.0825 -0.3724  0.2597
   18CHTO  H116 7409   5.863   8.026   0.502 -2.5245  0.9050  0.9096
   18CHTO   C70 7410   5.779   7.835   0.555  0.5120  0.0571  0.4111
   18CHTO   O46 7411   5.650   7.860   0.481  0.1313  0.7316 -0.0796
   18CHTO  H103 7412   5.608   7.940   0.507 -0.2525  0.3129  0.6240
   18CHTO   O39 7413   6.211   7.931   0.757  0.4110  0.6521  0.2059
   18CHTO   C60 7414   6.174   7.815   0.836 -0.6709 -0.5213 -0.1124
   18CHTO  H117 7415   6.067   7.820   0.858 -0.3615 -1.8214  1.7942
   18CHTO   C62 7416   6.190   7.681   0.753 -0.4058  0.3797  0.0994
   18CHTO  H119 7417   6.137   7.702   0.658 -0.0260  1.7412  0.1787
   18CHTO   O43 7418   6.329   7.661   0.721 -0.3444  0.1804 -0.2458
   18CHTO  H101 7419   6.329   7.584   0.667  0.0794  0.6865 -0.9787
   18CHTO   C66 7420   6.111   7.573   0.840  0.0028  0.2922 -0.0099
   18CHTO  H123 7421   6.016   7.618   0.869  0.0276  1.4237 -1.6217
   18CHTO   N12 7422   6.080   7.452   0.759  0.0890 -0.1909  0.5611
   18CHTO  H110 7423   6.021   7.383   0.818  1.4645 -1.2316  0.7313
   18CHTO  H111 7424   6.038   7.480   0.663  1.6040 -0.7684 -0.2760
   18CHTO   C69 7425   6.186   7.548   0.970 -0.0044  0.4764 -0.0064
   18CHTO  H126 7426   6.282   7.495   0.955 -0.1831 -0.7239  2.7074
   18CHTO   O41 7427   6.219   7.694   1.050  0.2060 -0.4132 -0.4503
   18CHTO   C64 7428   6.253   7.809   0.966  0.1698 -0.4092  0.4751
   18CHTO  H121 7429   6.359   7.798   0.935  0.2071 -0.9804  0.8103
   18CHTO   C71 7430   6.232   7.933   1.052  0.1463  0.0026  0.1022
   18CHTO   O47 7431   6.320   7.926   1.166  0.4424 -0.1331 -0.1721
   18CHTO  H104 7432   6.409   7.941   1.140  0.0558  1.2766 -0.7135
   18CHTO   O34 7433   6.092   7.452   1.083 -0.0906 -0.3035 -0.0790
   18CHTO   C49 7434   6.000   7.484   1.213 -0.6997  0.3506  0.5325
   18CHTO   H91 7435   6.052   7.440   1.298  0.9521  0.5746 -0.3508
   18CHTO   C47 7436   5.859   7.421   1.203  0.2135  0.0804 -0.1312
   18CHTO   H89 7437   5.801   7.429   1.297 -2.1966 -0.0997 -1.5797
   18CHTO   O33 7438   5.877   7.283   1.172  0.8361  0.7080  0.2130
   18CHTO   H70 7439   5.795   7.245   1.146 -0.1616  2.6281  0.4945
   18CHTO   C45 7440   5.779   7.498   1.085  0.1997  0.0941  0.4837
   18CHTO   H87 7441   5.840   7.488   0.994 -0.1243  1.7244  0.0751
   18CHTO    N8 7442   5.653   7.441   1.054  0.1166 -0.0418 -0.6003
   18CHTO   H75 7443   5.616   7.477   0.959 -1.6646 -0.1298  0.0352
   18CHTO   H76 7444   5.588   7.457   1.139  2.0872 -1.4466  1.1954
   18CHTO   C43 7445   5.768   7.658   1.105  0.6922  0.6137 -0.3723
   18CHTO   H85 7446   5.734   7.696   1.008  0.2926  0.1024 -0.4344
   18CHTO   O29 7447   5.900   7.708   1.145 -0.4243  0.6551 -0.2143
   18CHTO   C50 7448   5.979   7.636   1.245  0.1158  0.6540  0.0685
   18CHTO   H92 7449   6.075   7.686   1.262  0.5751  0.0090 -0.6156
   18CHTO   C54 7450   5.927   7.654   1.391 -0.2956  0.4721 -0.0493
   18CHTO   O36 7451   5.921   7.797   1.425 -0.6018 -0.4334  0.0594
   18CHTO   H72 7452   5.856   7.807   1.491 -0.5654  1.2680 -0.1217
   18CHTO   O27 7453   5.667   7.685   1.205  0.3041  0.2538 -0.0640
   18CHTO   C37 7454   5.609   7.787   1.277  0.6678  0.0122  0.0321
   18CHTO   H79 7455   5.683   7.836   1.341 -0.9372  0.7394  1.3793
   18CHTO   C38 7456   5.546   7.897   1.179 -0.1831  0.0271  0.1521
   18CHTO   H80 7457   5.496   7.843   1.097  0.9809  0.2560 -0.7229
   18CHTO   O31 7458   5.655   7.963   1.115 -0.2804  0.1493 -0.4201
   18CHTO   H68 7459   5.721   7.993   1.174 -2.0895  1.3564  1.0459
   18CHTO   C39 7460   5.463   8.002   1.264  0.0754 -0.1674  0.4494
   18CHTO   H81 7461   5.532   8.056   1.329  0.4623 -1.1566  0.8831
   18CHTO    N7 7462   5.391   8.099   1.179 -0.0482 -0.3670 -0.0525
   18CHTO   H73 7463   5.310   8.148   1.231  0.4707  0.6480 -0.2053
   18CHTO   H74 7464   5.459   8.169   1.134  0.4126 -0.4276  0.5613
   18CHTO   C40 7465   5.357   7.927   1.355 -0.2975 -0.8359 -0.0368
   18CHTO   H82 7466   5.288   7.875   1.288  1.2499 -0.9095 -1.6101
   18CHTO   O26 7467   5.421   7.842   1.445 -0.3929 -0.2317 -0.7984
   18CHTO   C41 7468   5.488   7.733   1.369 -0.0894  0.3675 -0.2206
   18CHTO   H83 7469   5.416   7.677   1.308 -1.2409 -0.7259  2.0801
   18CHTO   C52 7470   5.537   7.633   1.479 -0.2817  0.1358 -0.4386
   18CHTO   O35 7471   5.552   7.509   1.429  0.1139  0.0145 -0.0791
   18CHTO   H71 7472   5.645   7.494   1.436  0.1344  0.2150  0.0885
   18CHTO   O28 7473   5.274   8.013   1.442 -0.0997 -0.0831  0.0821
   18CHTO   C42 7474   5.150   7.964   1.497  0.5797  0.0936 -0.4577
   18CHTO   H84 7475   5.120   8.040   1.569 -0.6886 -1.0139  0.2177
   18CHTO   C44 7476   5.151   7.828   1.574 -0.2666 -0.3349  0.4977
   18CHTO   H86 7477   5.188   7.749   1.509 -0.8828 -1.0794  1.0372
   18CHTO   O32 7478   5.249   7.848   1.677  0.4302  0.5984 -0.0863
   18CHTO   H69 7479   5.334   7.851   1.637  0.1645 -0.1786 -0.7199
   18CHTO   C48 7480   5.009   7.783   1.615  0.2596 -0.5909 -0.2657
   18CHTO   H90 7481   4.969   7.856   1.686  2.1299  0.5728 -0.3666
   18CHTO    N9 7482   5.006   7.658   1.695 -0.1446  0.3837 -0.0764
   18CHTO   H77 7483   4.909   7.610   1.686  0.1122 -0.6770  2.4815
   18CHTO   H78 7484   5.022   7.676   1.800  3.4523 -1.4794 -0.2347
   18CHTO   C51 7485   4.918   7.778   1.479  0.0873  0.1518  1.1412
   18CHTO   H93 7486   4.963   7.712   1.405  1.4421  1.4447  0.7781
   18CHTO   O30 7487   4.923   7.918   1.440 -0.3359 -0.0659 -0.2358
   18CHTO   C46 7488   5.037   7.958   1.390  0.2624  0.6847  0.1943
   18CHTO   H88 7489   5.065   7.876   1.324 -2.9851 -0.6981  0.4597
   18CHTO   C53 7490   5.018   8.087   1.309 -0.3125 -0.6830  1.1501
   18CHTO   O72 7491   4.934   8.072   1.197  0.1770  0.9587 -0.0626
   18CHTO  H199 7492   4.849   8.043   1.225  0.3340 -0.2243 -0.7924
   18CHTO   O22 7493   4.781   7.744   1.507  0.7796 -0.9202 -0.0562
   18CHTO   C31 7494   4.676   7.746   1.401 -0.4960  0.7103  0.1237
   18CHTO   H59 7495   4.590   7.695   1.449  0.4633 -0.4743  0.6078
   18CHTO   C29 7496   4.621   7.884   1.357  0.6368 -0.4417  0.0461
   18CHTO   H57 7497   4.704   7.953   1.337  0.7052 -0.4921  0.1589
   18CHTO   O21 7498   4.545   7.940   1.464  0.0166  0.6591 -0.2363
   18CHTO   H37 7499   4.466   7.985   1.441 -1.2158 -1.0101  0.6135
   18CHTO   C27 7500   4.528   7.877   1.221 -0.1777  0.0063 -0.6745
   18CHTO   H55 7501   4.432   7.827   1.246  0.7631 -0.4769  2.1620
   18CHTO    N5 7502   4.495   8.013   1.172 -0.6910  0.1449 -0.1347
   18CHTO   H43 7503   4.449   8.072   1.250  0.1927  1.0690 -0.3004
   18CHTO   H44 7504   4.581   8.061   1.128 -0.8047  0.8030  0.3389
   18CHTO   C25 7505   4.618   7.801   1.117  0.2445 -0.0346  0.3001
   18CHTO   H53 7506   4.715   7.854   1.115 -0.5850  1.5847  2.2928
   18CHTO   O17 7507   4.642   7.667   1.159 -0.1165 -0.4443  0.8122
   18CHTO   C32 7508   4.714   7.656   1.282 -0.1956 -0.4760  0.0621
   18CHTO   H60 7509   4.820   7.668   1.260 -0.3133  1.5573  0.5529
   18CHTO   C36 7510   4.694   7.502   1.316  0.3705  0.3420 -0.0817
   18CHTO   O25 7511   4.552   7.466   1.330 -0.3385 -0.3444  0.6625
   18CHTO   H40 7512   4.551   7.374   1.349  0.1425 -0.6235 -0.5840
   18CHTO   O15 7513   4.568   7.803   0.972 -0.4101  0.0124  0.4446
   18CHTO   C19 7514   4.624   7.732   0.852  0.0392 -0.2569 -0.6897
   18CHTO   H47 7515   4.650   7.632   0.887 -3.2407 -0.7913  0.4073
   18CHTO   C20 7516   4.524   7.723   0.728 -0.1732 -0.9097  0.6075
   18CHTO   H48 7517   4.506   7.822   0.684  0.1110 -1.3000 -0.3847
   18CHTO   O19 7518   4.394   7.680   0.770 -0.0363 -0.1839  0.9800
   18CHTO   H35 7519   4.383   7.588   0.785 -2.6893  0.0230  0.6525
   18CHTO   C21 7520   4.587   7.631   0.615  0.0090 -0.2924 -0.3499
   18CHTO   H49 7521   4.590   7.529   0.655 -0.6409 -0.4108 -0.5875
   18CHTO    N4 7522   4.499   7.611   0.495 -0.4186 -0.1298 -0.2442
   18CHTO   H41 7523   4.554   7.561   0.416  0.8572  0.2748  0.3803
   18CHTO   H42 7524   4.409   7.560   0.528 -0.5002 -0.6325 -1.2141
   18CHTO   C22 7525   4.727   7.680   0.577 -0.2282 -0.1493 -0.4151
   18CHTO   H50 7526   4.713   7.770   0.518  0.5666 -0.5952 -1.3109
   18CHTO   O14 7527   4.812   7.704   0.689  0.3597  0.6369 -0.2061
   18CHTO   C23 7528   4.752   7.785   0.786 -0.3145  0.4733  0.3140
   18CHTO   H51 7529   4.736   7.881   0.735 -0.2559  0.4552  0.2623
   18CHTO   C34 7530   4.866   7.797   0.891 -0.0790  0.5302 -0.3776
   18CHTO   O23 7531   4.881   7.667   0.957  0.3414  0.1530  0.5342
   18CHTO   H38 7532   4.884   7.597   0.895 -0.2018  0.0790  0.5921
   18CHTO   O16 7533   4.789   7.575   0.498  0.1527 -0.2122  1.0915
   18CHTO   C24 7534   4.927   7.606   0.440 -0.1474  0.9776  0.6134
   18CHTO   H52 7535   4.963   7.704   0.473  1.3149  0.2476  1.2145
   18CHTO   C26 7536   4.923   7.595   0.289  0.0218 -0.7591  0.4677
   18CHTO   H54 7537   4.857   7.510   0.262  0.7757 -0.7912 -1.3225
   18CHTO   O20 7538   4.835   7.704   0.234  0.5569  0.4324  0.0905
   18CHTO   H36 7539   4.866   7.789   0.259  0.7694 -0.1538  1.9081
   18CHTO   C30 7540   5.059   7.583   0.214  0.5130  0.2946 -0.3111
   18CHTO   H58 7541   5.117   7.677   0.216  3.1042 -1.2686  2.9415
   18CHTO    N6 7542   5.034   7.555   0.073 -0.0479 -0.2521 -0.5095
   18CHTO   H45 7543   5.000   7.456   0.047  1.4246 -0.6862 -0.8299
   18CHTO   H46 7544   5.115   7.582   0.006  0.7871 -1.9365 -0.2229
   18CHTO   C33 7545   5.146   7.476   0.291 -0.2302  0.2791 -0.1341
   18CHTO   H61 7546   5.113   7.373   0.272  1.9131 -0.5980  0.7437
   18CHTO   O18 7547   5.144   7.496   0.434 -0.1282  0.5008  0.2353
   18CHTO   C28 7548   5.022   7.499   0.505  0.0650 -0.1851  0.3094
   18CHTO   H56 7549   4.969   7.404   0.502 -1.2402  0.5641 -0.6867
   18CHTO   C35 7550   5.069   7.507   0.658 -0.8770 -0.2443 -0.7256
   18CHTO   O24 7551   5.148   7.617   0.699  0.0745 -0.5200  0.9070
   18CHTO   H39 7552   5.204   7.601   0.772  1.0974 -1.9307 -0.1359
   18CHTO    O9 7553   5.276   7.471   0.242 -0.2322  0.2369 -0.5493
   18CHTO   C13 7554   5.384   7.359   0.302  0.4239 -0.1723  0.2259
   18CHTO   H26 7555   5.325   7.282   0.356 -1.1287  0.0516 -1.1339
   18CHTO   C11 7556   5.491   7.431   0.396 -0.1553  0.5360 -0.0225
   18CHTO   H24 7557   5.434   7.456   0.487  0.3539  2.5715 -0.2261
   18CHTO    O8 7558   5.547   7.551   0.337 -0.1973 -0.0670 -0.0521
   18CHTO    H3 7559   5.605   7.526   0.268 -0.2672 -1.9650  0.5344
   18CHTO    C9 7560   5.594   7.331   0.442 -0.0094 -0.1408 -0.1428
   18CHTO   H22 7561   5.532   7.255   0.492 -1.5875 -0.2820 -2.1856
   18CHTO    N2 7562   5.683   7.381   0.546 -0.5563 -0.0557 -0.5967
   18CHTO   H10 7563   5.659   7.478   0.585  2.4966  0.2866  0.5654
   18CHTO   H11 7564   5.691   7.314   0.630 -2.1012  0.9888  0.4033
   18CHTO    C7 7565   5.673   7.270   0.315 -0.0058  0.9293 -0.3315
   18CHTO   H20 7566   5.718   7.181   0.364 -1.0105  0.2679 -0.6004
   18CHTO    O4 7567   5.582   7.221   0.216  0.0939 -0.0351  0.0112
   18CHTO   C14 7568   5.461   7.290   0.183  0.4820 -0.3382  0.1184
   18CHTO   H27 7569   5.393   7.215   0.137 -1.4404  0.1952  1.9990
   18CHTO   C18 7570   5.495   7.390   0.068  0.1015 -0.4560  0.1300
   18CHTO   O13 7571   5.554   7.316  -0.039 -0.0193 -0.6300  0.5066
   18CHTO    H7 7572   5.567   7.377  -0.109  0.7170 -1.9950 -0.5709
   18CHTO    O2 7573   5.773   7.384   0.243 -0.4284  0.1546  0.0048
   18CHTO    C1 7574   5.913   7.350   0.213  0.0797  0.1195  0.6137
   18CHTO   H14 7575   5.955   7.419   0.137 -0.1182 -0.1000  0.3033
   18CHTO    C2 7576   5.936   7.197   0.166  0.2984 -0.2399 -0.2636
   18CHTO   H15 7577   5.889   7.131   0.242 -0.0319 -0.2921 -0.5115
   18CHTO    O6 7578   5.873   7.171   0.041  0.4526  0.0799 -0.5891
   18CHTO    H1 7579   5.909   7.226  -0.026  0.6110 -0.1901 -0.7237
   18CHTO    C3 7580   6.098   7.172   0.148  0.1874 -0.8550  0.0737
   18CHTO   H16 7581   6.134   7.236   0.066  0.4374 -2.5892 -1.2134
   18CHTO    N1 7582   6.131   7.030   0.101  0.0922 -0.1949 -0.0455
   18CHTO    H8 7583   6.039   6.972   0.105  0.5598 -1.0165 -0.9560
   18CHTO    H9 7584   6.146   7.040  -0.006  0.2521 -1.3342 -0.1401
   18CHTO    C4 7585   6.176   7.210   0.281 -0.2291 -0.3828 -0.1676
   18CHTO   H17 7586   6.159   7.137   0.361  1.4155  0.3701  0.8919
   18CHTO    O1 7587   6.141   7.340   0.331 -0.2045 -1.0914  0.3041
   18CHTO    C5 7588   6.000   7.376   0.339 -1.3855 -0.1834  0.7536
   18CHTO   H18 7589   5.961   7.320   0.424 -1.2735 -0.8818  0.3509
   18CHTO   C16 7590   6.010   7.529   0.368 -0.0515 -0.0960 -0.1923
   18CHTO   O11 7591   5.895   7.604   0.347  0.2422  0.1430 -0.2625
   18CHTO    H5 7592   5.908   7.650   0.266  4.3802  0.5146  0.4973
   18CHTO    O3 7593   6.318   7.224   0.257  0.0700  0.1858  0.5798
   18CHTO    C6 7594   6.415   7.206   0.366  0.1944 -0.1359 -0.4896
   18CHTO   H19 7595   6.373   7.217   0.466  1.1660 -1.1927  0.0394
   18CHTO    C8 7596   6.474   7.066   0.356 -0.0303  0.6013  0.1241
   18CHTO   H21 7597   6.525   7.056   0.259 -0.4194 -1.0297  0.0755
   18CHTO    O7 7598   6.372   6.973   0.375 -0.2582  0.4222  0.4274
   18CHTO    H2 7599   6.353   6.958   0.465  0.4457  0.9378  0.6636
   18CHTO   C12 7600   6.586   7.043   0.459  0.6848 -0.2120  1.1447
   18CHTO   H25 7601   6.538   7.061   0.557  0.7183  2.3720  0.7142
   18CHTO    N3 7602   6.651   6.913   0.451  0.1933 -0.2403 -0.0100
   18CHTO   H12 7603   6.582   6.830   0.457  0.7940 -0.6728  1.1023
   18CHTO   H13 7604   6.699   6.896   0.356 -1.0400 -2.8566 -0.2296
   18CHTO   C15 7605   6.690   7.154   0.449  0.3244  0.2916 -0.3011
   18CHTO   H28 7606   6.741   7.145   0.353 -0.2989  1.6831 -0.7786
   18CHTO   O10 7607   6.794   7.167   0.573 -0.2160 -0.5969 -0.0409
   18CHTO    H4 7608   6.872   7.204   0.538 -0.9001  1.3696  0.4774
   18CHTO    O5 7609   6.625   7.284   0.459 -0.0912  0.4827  0.4441
   18CHTO   C10 7610   6.525   7.316   0.357  0.5365 -0.0190 -0.1369
   18CHTO   H23 7611   6.557   7.325   0.254  0.8107  0.1366 -0.0396
   18CHTO   C17 7612   6.459   7.453   0.384  0.6972  0.3762 -0.2670
   18CHTO   O12 7613   6.409   7.463   0.520 -0.1753  0.0757  0.5211
   18CHTO    H6 7614   6.334   7.408   0.535 -1.1144  1.6838  2.1376
   19CHTO  H203 7615   5.080   9.062   2.246 -0.6226 -0.8706 -2.0294
   19CHTO   O82 7616   5.110   8.975   2.264 -0.0406 -0.2405  0.2000
   19CHTO  C123 7617   5.030   8.876   2.200  0.2121 -0.3439 -0.4766
   19CHTO  H227 7618   4.932   8.919   2.173  0.0670 -0.9218 -0.8707
   19CHTO   O77 7619   5.119   8.866   2.076  0.6372 -0.1026  0.1293
   19CHTO  C118 7620   5.141   8.746   1.998  0.5596 -0.1229 -0.0373
   19CHTO  H222 7621   5.070   8.738   1.914  0.6156  0.9657 -0.1985
   19CHTO  C125 7622   5.290   8.762   1.938 -0.1017  0.2407 -0.5029
   19CHTO   O84 7623   5.315   8.893   1.881  0.4960  0.1043 -0.1540
   19CHTO  H205 7624   5.405   8.893   1.854  0.6108 -1.8473  0.1837
   19CHTO  C114 7625   5.138   8.624   2.085 -0.1260  0.3574  0.6492
   19CHTO  H218 7626   5.224   8.634   2.153 -0.2835  0.6333  0.8082
   19CHTO  C116 7627   5.029   8.619   2.199 -0.0583 -0.5203  0.7792
   19CHTO  H220 7628   4.933   8.602   2.147  0.5631 -0.8613 -0.2793
   19CHTO   O79 7629   5.057   8.507   2.285  0.2804  0.0852  0.7375
   19CHTO  H201 7630   5.061   8.424   2.241 -0.9267 -0.4598  1.6087
   19CHTO  C120 7631   5.024   8.748   2.293 -0.5023 -0.1691 -0.0330
   19CHTO  H224 7632   5.119   8.749   2.351 -0.8141 -1.4400  0.5234
   19CHTO   N21 7633   4.908   8.753   2.381  0.0352 -0.0281 -0.7258
   19CHTO  H211 7634   4.825   8.705   2.331  2.1805 -3.1804 -1.4148
   19CHTO  H212 7635   4.934   8.719   2.480 -3.4051  1.3429  0.7007
   19CHTO   O75 7636   5.139   8.505   1.997 -0.2399  0.3595 -0.0648
   19CHTO  C112 7637   5.226   8.382   2.043  0.5113 -0.0703 -0.0056
   19CHTO  H216 7638   5.239   8.395   2.152 -0.6050  0.2673  0.0877
   19CHTO   O73 7639   5.351   8.378   1.970 -0.1210  0.4036 -0.1663
   19CHTO  C113 7640   5.440   8.280   2.017 -0.0365 -0.0449 -0.4828
   19CHTO  H217 7641   5.444   8.282   2.128 -3.3236 -2.5433 -0.2449
   19CHTO  C124 7642   5.581   8.301   1.960 -0.0285 -0.3869  0.6073
   19CHTO   O83 7643   5.647   8.420   2.007 -0.7124 -0.2055 -0.5715
   19CHTO  H204 7644   5.709   8.453   1.944 -0.0385  1.6225  1.0122
   19CHTO  C109 7645   5.374   8.140   1.978 -0.5699 -0.1008 -0.1631
   19CHTO  H213 7646   5.376   8.136   1.868 -2.8567  1.1438 -0.2825
   19CHTO  C110 7647   5.229   8.126   2.046  0.5254  0.4693  0.1112
   19CHTO  H214 7648   5.233   8.109   2.154  0.9639 -1.3424 -0.1623
   19CHTO   O78 7649   5.165   8.007   1.997 -0.1383  0.0646  0.2332
   19CHTO  H200 7650   5.140   8.023   1.908 -0.3385 -1.7913 -0.0620
   19CHTO  C111 7651   5.142   8.251   2.023  0.5450  0.2430  0.3483
   19CHTO  H215 7652   5.119   8.248   1.916  2.9712 -2.2315 -0.1787
   19CHTO   N19 7653   5.018   8.250   2.101 -0.2448 -0.3127  0.0555
   19CHTO  H207 7654   4.999   8.157   2.153  0.4551 -0.2724  0.3809
   19CHTO  H208 7655   4.933   8.281   2.043 -0.3422 -0.6311  0.0260
   19CHTO   O74 7656   5.446   8.025   2.027  0.1597 -0.2273 -0.0354
   19CHTO  C115 7657   5.457   7.891   1.915 -0.2067  0.3396  0.2847
   19CHTO  H219 7658   5.358   7.852   1.893 -0.5709  1.5915 -0.3789
   19CHTO   O76 7659   5.511   7.933   1.771 -0.0683  0.1664  0.0179
   19CHTO  C122 7660   5.651   7.941   1.766  0.2550  0.1797  0.5553
   19CHTO  H226 7661   5.681   8.023   1.832 -1.1479  1.0118  0.1752
   19CHTO  C126 7662   5.701   7.985   1.632 -0.3055 -0.1065 -0.5491
   19CHTO   O85 7663   5.636   8.102   1.584 -0.0689  0.3925  0.2793
   19CHTO  H206 7664   5.542   8.093   1.590  0.1061 -0.4228  2.1179
   19CHTO  C121 7665   5.719   7.805   1.803  0.0572 -0.0510 -0.2291
   19CHTO  H225 7666   5.763   7.762   1.711 -0.6256 -0.3444 -0.4260
   19CHTO   O81 7667   5.831   7.838   1.891  0.1559  0.6556 -0.0595
   19CHTO  H202 7668   5.828   7.791   1.972 -0.2536  0.7157 -0.0389
   19CHTO  C119 7669   5.620   7.701   1.863 -0.1076  0.9850  0.0712
   19CHTO  H223 7670   5.544   7.673   1.790 -0.2836 -2.9816  1.6640
   19CHTO  C117 7671   5.541   7.776   1.979 -1.1774  0.2186  0.1216
   19CHTO  H221 7672   5.597   7.821   2.062 -0.0986 -0.3844 -0.2687
   19CHTO   N20 7673   5.458   7.671   2.050  0.5422 -0.3858 -0.2627
   19CHTO  H209 7674   5.508   7.615   2.126 -0.2257 -1.4742 -0.5529
   19CHTO  H210 7675   5.420   7.610   1.969  1.2904  0.8306 -1.5667
   19CHTO   O80 7676   5.684   7.569   1.892  0.1646 -0.7050 -0.5201
   19CHTO  C103 7677   5.734   7.476   1.782  0.1761  0.6921  0.1375
   19CHTO  H190 7678   5.716   7.526   1.687  0.8144  0.2453 -0.2187
   19CHTO  C101 7679   5.886   7.431   1.787 -0.0669  0.7693 -0.5987
   19CHTO  H188 7680   5.903   7.373   1.878 -4.8110  0.9436  0.5528
   19CHTO   O68 7681   5.976   7.539   1.794 -0.3212  0.2684  0.0535
   19CHTO  H168 7682   6.051   7.531   1.737 -1.3105 -1.9844 -0.9870
   19CHTO   C99 7683   5.915   7.338   1.652 -0.1825 -0.6155 -0.9220
   19CHTO  H186 7684   5.900   7.394   1.557  1.3465  1.1156 -0.1953
   19CHTO   N17 7685   6.056   7.284   1.645  0.0636  0.3583 -0.0141
   19CHTO  H174 7686   6.099   7.307   1.549 -0.5073 -1.6050 -0.7701
   19CHTO  H175 7687   6.117   7.317   1.728  0.3573  0.9801 -0.4756
   19CHTO   C97 7688   5.818   7.210   1.657  0.0071  0.1199 -0.4628
   19CHTO  H184 7689   5.845   7.141   1.739 -1.6032 -2.0473 -1.6978
   19CHTO   O64 7690   5.683   7.262   1.669  0.5859  0.0627 -0.3210
   19CHTO  C104 7691   5.645   7.350   1.776 -0.2024  0.3694  0.1874
   19CHTO  H191 7692   5.644   7.294   1.869 -1.3112 -1.4300 -0.8835
   19CHTO  C108 7693   5.499   7.390   1.758 -0.8221  0.2081  0.5966
   19CHTO   O71 7694   5.395   7.289   1.769  0.0802  0.4729 -0.1541
   19CHTO  H171 7695   5.312   7.330   1.784  0.2213  0.8745 -0.4564
   19CHTO   O62 7696   5.817   7.133   1.537 -0.0510 -0.6741 -0.3275
   19CHTO   C91 7697   5.724   7.024   1.521  0.1247  0.4643 -0.1991
   19CHTO  H178 7698   5.651   7.033   1.602  1.4171 -0.1124  1.0461
   19CHTO   C92 7699   5.793   6.887   1.547 -0.9278  0.2286  0.3293
   19CHTO  H179 7700   5.878   6.875   1.478  0.2033  0.7034  1.6072
   19CHTO   O66 7701   5.852   6.888   1.678 -0.3389 -0.2938  0.6725
   19CHTO  H166 7702   5.946   6.882   1.678 -0.2381  0.9851  2.4418
   19CHTO   C93 7703   5.686   6.772   1.532  0.3265 -0.4941 -0.0218
   19CHTO  H180 7704   5.615   6.791   1.614 -0.6317  1.2015 -1.2232
   19CHTO   N16 7705   5.746   6.642   1.554 -0.4705  0.9420  0.3988
   19CHTO  H172 7706   5.823   6.614   1.484  0.1615 -3.1828  2.5865
   19CHTO  H173 7707   5.672   6.564   1.560  1.1584 -0.7349 -0.9172
   19CHTO   C94 7708   5.609   6.779   1.396 -0.0404  0.3444 -0.2090
   19CHTO  H181 7709   5.674   6.758   1.311 -0.0165 -0.5786  0.0368
   19CHTO   O61 7710   5.561   6.916   1.367 -0.1848 -0.0165 -0.1611
   19CHTO   C95 7711   5.657   7.023   1.382  0.2617  0.2158  0.3310
   19CHTO  H182 7712   5.739   7.012   1.310  0.9383  1.0520  0.9675
   19CHTO  C106 7713   5.590   7.166   1.346  0.2521  0.4011  0.1466
   19CHTO   O69 7714   5.515   7.168   1.229 -0.0651  0.1226  0.6588
   19CHTO  H169 7715   5.499   7.255   1.198  1.5448  0.7691  1.6001
   19CHTO   O63 7716   5.485   6.672   1.411  0.1809 -0.4897  0.3888
   19CHTO   C96 7717   5.422   6.618   1.295 -0.2869 -0.1810  0.4756
   19CHTO  H183 7718   5.499   6.576   1.230  0.8067  2.0775  0.2649
   19CHTO   C98 7719   5.343   6.715   1.210  0.7110 -0.3793  0.6825
   19CHTO  H185 7720   5.399   6.807   1.189  0.7444 -0.5279  0.1141
   19CHTO   O67 7721   5.320   6.657   1.082 -0.4584 -0.5031 -0.4369
   19CHTO  H167 7722   5.400   6.642   1.034 -0.8689  1.8213 -1.9287
   19CHTO  C102 7723   5.210   6.769   1.273 -0.1375  0.7410 -0.2505
   19CHTO  H189 7724   5.143   6.785   1.187 -0.2971 -1.4531 -0.5622
   19CHTO   N18 7725   5.208   6.893   1.356 -0.3139  0.2621  0.1866
   19CHTO  H176 7726   5.117   6.928   1.402 -0.9049 -2.0044  0.8222
   19CHTO  H177 7727   5.256   6.972   1.300 -1.0496 -0.2863 -1.2604
   19CHTO  C105 7728   5.140   6.652   1.352 -0.2110  0.4969 -0.1439
   19CHTO  H192 7729   5.153   6.663   1.460 -1.0014  0.6643 -0.0632
   19CHTO   O65 7730   5.190   6.520   1.313 -0.1899  0.6066 -0.4146
   19CHTO  C100 7731   5.331   6.497   1.349  0.0031 -0.4550  0.1088
   19CHTO  H187 7732   5.344   6.500   1.459 -0.4386  1.8343  0.1295
   19CHTO  C107 7733   5.375   6.357   1.302  0.0918 -0.0939  0.0807
   19CHTO   O70 7734   5.311   6.248   1.363 -0.2652  0.1129  0.4771
   19CHTO  H170 7735   5.218   6.251   1.352 -0.1698 -0.2180 -0.4212
   19CHTO   O57 7736   4.981   6.675   1.322 -0.7926  0.4296 -0.0978
   19CHTO   C85 7737   4.904   6.596   1.416 -0.6311 -0.1179 -0.4351
   19CHTO  H157 7738   4.958   6.568   1.508  0.7486 -1.6832 -1.6880
   19CHTO   C83 7739   4.868   6.457   1.356 -0.5358  0.1778 -0.3127
   19CHTO  H155 7740   4.952   6.389   1.342 -0.8165 -0.4073  0.7996
   19CHTO   O56 7741   4.807   6.475   1.229 -0.1319 -0.3586  0.5661
   19CHTO  H135 7742   4.787   6.392   1.191 -3.5447  1.7641 -2.6261
   19CHTO   C81 7743   4.766   6.382   1.446  0.5581 -0.6627 -0.8571
   19CHTO  H153 7744   4.824   6.368   1.538  1.5008  2.7447 -0.8610
   19CHTO   N14 7745   4.746   6.242   1.400 -0.2731  0.8904 -0.3770
   19CHTO  H141 7746   4.838   6.206   1.360 -0.6573  0.1935 -0.6464
   19CHTO  H142 7747   4.719   6.190   1.489  0.5969 -1.0568 -1.2275
   19CHTO   C79 7748   4.630   6.461   1.477 -0.2211  0.0137  0.1848
   19CHTO  H151 7749   4.582   6.409   1.560 -0.0647 -0.3046  0.0737
   19CHTO   O52 7750   4.670   6.595   1.533  0.4604  0.4918  0.0836
   19CHTO   C86 7751   4.769   6.663   1.448 -0.3938 -0.7130  0.2997
   19CHTO  H158 7752   4.714   6.675   1.352  0.8613  0.4120 -0.2890
   19CHTO   C90 7753   4.795   6.808   1.499 -0.3513 -0.1477 -0.1338
   19CHTO   O60 7754   4.682   6.890   1.479 -0.3886 -0.0368 -0.0506
   19CHTO  H138 7755   4.611   6.846   1.435  0.0466 -1.2493  0.4293
   19CHTO   O50 7756   4.536   6.471   1.368  0.1782 -0.5394  0.0392
   19CHTO   C73 7757   4.408   6.473   1.290  0.5840  0.1059 -0.0366
   19CHTO  H145 7758   4.361   6.374   1.290  0.2116  0.2634 -1.8726
   19CHTO   C74 7759   4.455   6.508   1.148 -0.7466 -0.2497  0.3688
   19CHTO  H146 7760   4.534   6.437   1.122  0.4995  1.6072 -1.0065
   19CHTO   O54 7761   4.343   6.471   1.069  0.2655 -0.1302 -0.1897
   19CHTO  H133 7762   4.369   6.490   0.981  2.4967  1.0710  0.6881
   19CHTO   C75 7763   4.505   6.658   1.139  0.5494  0.2068  0.3012
   19CHTO  H147 7764   4.597   6.669   1.200  0.1510  1.6592  0.6558
   19CHTO   N13 7765   4.531   6.693   0.996 -0.3776 -0.4338 -0.5303
   19CHTO  H139 7766   4.595   6.779   0.985  1.2438 -1.4904  0.5643
   19CHTO  H140 7767   4.436   6.709   0.947  0.2565  1.7160 -1.0748
   19CHTO   C76 7768   4.386   6.754   1.192  0.0479  0.2638 -0.0636
   19CHTO  H148 7769   4.297   6.739   1.132 -0.4719 -1.7150  1.1752
   19CHTO   O49 7770   4.366   6.720   1.337  0.1801  0.2240  0.6454
   19CHTO   C77 7771   4.313   6.589   1.348  0.7586  0.1075 -0.0410
   19CHTO  H149 7772   4.218   6.586   1.296  0.7875  0.8091 -0.1394
   19CHTO   C88 7773   4.287   6.558   1.497  0.1136  0.4267 -0.1074
   19CHTO   O58 7774   4.198   6.429   1.514  0.2168 -0.0061 -0.1721
   19CHTO  H136 7775   4.133   6.420   1.447 -0.6827  2.3890  0.3425
   19CHTO   O51 7776   4.442   6.913   1.202 -0.1175  0.3364  0.1344
   19CHTO   C78 7777   4.363   7.019   1.130 -0.5915 -0.0584  0.3946
   19CHTO  H150 7778   4.316   6.984   1.036  1.7317  0.7982 -1.1309
   19CHTO   C80 7779   4.461   7.133   1.087 -0.2460 -0.5511 -0.0018
   19CHTO  H152 7780   4.509   7.179   1.176  2.5808 -0.6324 -1.4358
   19CHTO   O55 7781   4.574   7.082   1.016  0.0493  0.2250 -0.7792
   19CHTO  H134 7782   4.567   7.104   0.926 -0.9127  1.3308 -0.4380
   19CHTO   C84 7783   4.375   7.246   1.014 -0.2360 -0.0573  0.2278
   19CHTO  H156 7784   4.328   7.189   0.934  2.0190 -0.6708 -0.6948
   19CHTO   N15 7785   4.467   7.355   0.952 -0.1059  0.8273  0.2707
   19CHTO  H143 7786   4.519   7.322   0.865  2.3106 -0.2622  2.0869
   19CHTO  H144 7787   4.405   7.441   0.934 -2.0796 -0.9067 -1.4335
   19CHTO   C87 7788   4.270   7.296   1.109 -0.2510 -0.2871  0.2184
   19CHTO  H159 7789   4.326   7.332   1.196 -0.7763 -1.1252  0.9106
   19CHTO   O53 7790   4.182   7.180   1.158  0.6125 -0.0114 -0.1878
   19CHTO   C82 7791   4.251   7.069   1.223 -0.8400  0.1273  0.1834
   19CHTO  H154 7792   4.288   7.098   1.321  0.3949  2.6387 -0.9750
   19CHTO   C89 7793   4.145   6.963   1.239 -0.3290  0.5335 -0.0925
   19CHTO   O59 7794   4.040   6.981   1.333 -0.5672 -0.4825  0.0613
   19CHTO  H137 7795   4.085   6.964   1.413 -0.3361  1.2668  0.3232
   19CHTO   O45 7796   4.181   7.410   1.045  0.5266 -0.0268  0.1144
   19CHTO   C67 7797   4.107   7.478   1.146 -0.1329 -0.4978 -0.0111
   19CHTO  H124 7798   4.108   7.415   1.235 -0.3998 -2.0961 -1.1386
   19CHTO   C65 7799   4.157   7.619   1.186 -0.2825 -0.3121  0.3051
   19CHTO  H122 7800   4.192   7.657   1.090  0.8552 -2.0630 -0.0038
   19CHTO   O44 7801   4.255   7.606   1.289 -0.3017  0.3731  0.5772
   19CHTO  H102 7802   4.343   7.625   1.261 -0.3469  0.2514  0.3447
   19CHTO   C63 7803   4.040   7.719   1.226 -0.0879  0.5358 -0.5859
   19CHTO  H120 7804   3.993   7.756   1.135 -0.5655 -1.8455 -1.3425
   19CHTO   N11 7805   4.076   7.855   1.291  0.4242 -0.1246 -0.1480
   19CHTO  H108 7806   4.076   7.945   1.234  1.7761 -1.0487 -1.6722
   19CHTO  H109 7807   4.054   7.861   1.395 -1.2671 -1.0404 -0.4321
   19CHTO   C61 7808   3.926   7.635   1.299  0.2644  0.1548 -0.2269
   19CHTO  H118 7809   3.846   7.709   1.314  1.4576  1.2668  0.7762
   19CHTO   O40 7810   3.876   7.534   1.212  0.1187 -0.0806 -0.0386
   19CHTO   C68 7811   3.955   7.482   1.103 -0.3310 -0.1148  0.7935
   19CHTO  H125 7812   3.926   7.540   1.014 -2.3962  0.4242  1.7922
   19CHTO   C72 7813   3.896   7.335   1.080 -0.1569 -0.1603 -0.0266
   19CHTO   O48 7814   3.877   7.274   1.211 -0.4796 -0.5488 -0.6035
   19CHTO  H105 7815   3.805   7.214   1.202  0.4038 -2.0641  1.8352
   19CHTO   O38 7816   3.960   7.577   1.424  0.0359  0.4213 -0.9437
   19CHTO   C55 7817   3.870   7.483   1.494 -0.0972 -0.0309  0.3039
   19CHTO  H112 7818   3.822   7.402   1.439  1.5592  0.2367 -1.5831
   19CHTO   C56 7819   3.766   7.566   1.584 -0.0400  0.2324 -0.3171
   19CHTO  H113 7820   3.820   7.654   1.622 -2.4326  2.6052 -2.1352
   19CHTO   O42 7821   3.666   7.613   1.488  0.6652 -0.4405 -0.2846
   19CHTO  H100 7822   3.691   7.694   1.448 -0.6168  0.8589  1.4672
   19CHTO   C57 7823   3.696   7.481   1.702  0.0266 -0.3645  0.2755
   19CHTO  H114 7824   3.616   7.415   1.666 -0.8478  0.5196  0.5936
   19CHTO   N10 7825   3.620   7.566   1.790 -0.0186  0.2332 -0.1276
   19CHTO  H106 7826   3.564   7.641   1.736 -0.5751 -0.9108 -1.1662
   19CHTO  H107 7827   3.691   7.618   1.853 -1.2059  0.0547  1.3592
   19CHTO   C58 7828   3.795   7.395   1.782 -0.2175 -1.0046 -0.5464
   19CHTO  H115 7829   3.855   7.461   1.848 -1.0003 -0.0697 -0.7719
   19CHTO   O37 7830   3.878   7.326   1.681 -0.0866  0.0816  0.1318
   19CHTO   C59 7831   3.967   7.408   1.598 -0.1066  0.4792 -0.4110
   19CHTO  H116 7832   4.015   7.478   1.666 -0.1482  0.8304 -0.7373
   19CHTO   C70 7833   4.066   7.307   1.534 -0.2915  0.3437  0.3427
   19CHTO   O46 7834   4.161   7.268   1.631  0.2546 -0.3469 -0.2584
   19CHTO  H103 7835   4.216   7.343   1.649 -2.3756  1.1492  2.0189
   19CHTO   O39 7836   3.710   7.275   1.860  0.7627  0.2085  0.4442
   19CHTO   C60 7837   3.652   7.167   1.786  0.3038 -0.5246 -0.2867
   19CHTO  H117 7838   3.624   7.214   1.691 -3.8850  0.0244  1.1036
   19CHTO   C62 7839   3.757   7.059   1.766 -0.2719 -0.1045 -0.0608
   19CHTO  H119 7840   3.856   7.100   1.737 -0.6415  0.5456 -0.4037
   19CHTO   O43 7841   3.790   6.998   1.894  0.6938 -0.1350 -0.0674
   19CHTO  H101 7842   3.712   6.954   1.922  0.6905  0.9233  1.6161
   19CHTO   C66 7843   3.705   6.960   1.650  0.0745  0.0699  0.8427
   19CHTO  H123 7844   3.670   7.019   1.565 -1.0159 -0.7111  0.7307
   19CHTO   N12 7845   3.817   6.871   1.602  0.1939  0.1773 -0.3964
   19CHTO  H110 7846   3.837   6.894   1.498  1.2467  0.4630 -0.1361
   19CHTO  H111 7847   3.903   6.906   1.657 -0.5899  0.8500  0.4089
   19CHTO   C69 7848   3.578   6.883   1.707 -0.1313  0.3439  0.8232
   19CHTO  H126 7849   3.615   6.833   1.799  1.6014  0.0426 -0.0116
   19CHTO   O41 7850   3.460   6.992   1.745 -0.2128  0.1312  0.2963
   19CHTO   C64 7851   3.516   7.108   1.840  0.2481  0.2313  0.0602
   19CHTO  H121 7852   3.539   7.051   1.933 -3.2735 -1.3214  0.0727
   19CHTO   C71 7853   3.410   7.221   1.864  0.0430  0.0275  0.3219
   19CHTO   O47 7854   3.309   7.159   1.945 -0.6957  0.8164 -0.0902
   19CHTO  H104 7855   3.272   7.081   1.908  1.7169  0.0129 -0.9169
   19CHTO   O34 7856   3.523   6.770   1.605 -0.0072 -0.0673  0.4704
   19CHTO   C49 7857   3.455   6.770   1.470  0.2212 -0.0259  0.3854
   19CHTO   H91 7858   3.348   6.789   1.485  0.2891  0.6773  0.0305
   19CHTO   C47 7859   3.477   6.634   1.403 -0.1160 -0.4973  0.2035
   19CHTO   H89 7860   3.421   6.637   1.308 -0.7022  1.8045  0.5812
   19CHTO   O33 7861   3.419   6.530   1.490 -0.5118 -0.2460  0.1606
   19CHTO   H70 7862   3.408   6.453   1.437  2.6895 -0.0569 -0.8584
   19CHTO   C45 7863   3.645   6.623   1.374  0.6018  0.3184  0.0659
   19CHTO   H87 7864   3.703   6.644   1.465 -0.4186  2.3832  0.2688
   19CHTO    N8 7865   3.700   6.496   1.318  0.8083  0.3685  0.0115
   19CHTO   H75 7866   3.643   6.409   1.347 -2.5999  1.7405 -2.3296
   19CHTO   H76 7867   3.736   6.491   1.217  2.4724  0.4435  0.5779
   19CHTO   C43 7868   3.698   6.751   1.287  0.6856  0.8504  0.4747
   19CHTO   H85 7869   3.806   6.752   1.295  0.7250 -1.0199  0.5348
   19CHTO   O29 7870   3.646   6.876   1.333  0.0247 -0.4501  0.4037
   19CHTO   C50 7871   3.505   6.886   1.377 -0.8808 -0.1856  0.0534
   19CHTO   H92 7872   3.496   6.971   1.446  0.4109  0.5451 -0.6549
   19CHTO   C54 7873   3.415   6.913   1.263 -0.4749 -0.2257 -0.1880
   19CHTO   O36 7874   3.433   7.042   1.193  0.4197 -0.0925  0.1988
   19CHTO   H72 7875   3.479   7.112   1.236 -0.7145  1.8755 -1.6698
   19CHTO   O27 7876   3.662   6.736   1.142  0.1166 -0.2616  0.4522
   19CHTO   C37 7877   3.726   6.755   1.019  0.0229 -1.2231 -0.0371
   19CHTO   H79 7878   3.715   6.668   0.953 -1.8740  0.1814 -1.6243
   19CHTO   C38 7879   3.658   6.865   0.921  0.2184  0.0060 -0.2616
   19CHTO   H80 7880   3.645   6.957   0.980  0.2406 -0.6118  0.7277
   19CHTO   O31 7881   3.524   6.819   0.892  0.5123  0.2057  0.6019
   19CHTO   H68 7882   3.531   6.738   0.846  1.2568  1.6958 -2.0587
   19CHTO   C39 7883   3.741   6.905   0.794  0.4356  0.2865 -0.3444
   19CHTO   H81 7884   3.751   6.817   0.731 -0.2423 -0.0185 -0.0262
   19CHTO    N7 7885   3.674   7.017   0.710  0.3175  0.3314  0.3737
   19CHTO   H73 7886   3.649   6.972   0.615  1.0055  1.2993 -0.2810
   19CHTO   H74 7887   3.585   7.053   0.760 -0.0855 -1.3469  0.8949
   19CHTO   C40 7888   3.887   6.936   0.832 -0.9942  0.1992  0.6346
   19CHTO   H82 7889   3.891   7.036   0.875  0.9703  0.1343  0.6565
   19CHTO   O26 7890   3.943   6.832   0.922 -0.2749 -0.7714  0.0160
   19CHTO   C41 7891   3.874   6.792   1.039 -1.1558  0.6790  0.7323
   19CHTO   H83 7892   3.876   6.868   1.119 -0.1626  0.3665  1.0079
   19CHTO   C52 7893   3.962   6.670   1.092  0.0199  0.2723  0.2610
   19CHTO   O35 7894   3.973   6.541   1.011  0.4848  1.1817  0.0748
   19CHTO   H71 7895   4.047   6.538   0.953 -0.0213  0.0236 -0.5118
   19CHTO   O28 7896   3.978   6.940   0.720 -0.7933 -0.5647  0.3549
   19CHTO   C42 7897   4.093   7.037   0.719  0.3663 -0.0305 -0.0078
   19CHTO   H84 7898   4.121   7.034   0.825 -0.8302  0.7028  0.3510
   19CHTO   C44 7899   4.061   7.192   0.683 -1.1196  0.6843 -0.0409
   19CHTO   H86 7900   4.015   7.192   0.584  0.9255  0.1995 -1.0354
   19CHTO   O32 7901   3.961   7.245   0.768  0.5149 -0.0395 -0.0005
   19CHTO   H69 7902   3.995   7.243   0.856  0.3986 -0.2386  0.0423
   19CHTO   C48 7903   4.194   7.279   0.671  0.1245 -0.3513 -0.9102
   19CHTO   H90 7904   4.237   7.294   0.770 -1.5738  0.8426 -0.3315
   19CHTO    N9 7905   4.165   7.419   0.622 -0.2815 -0.2430 -0.2072
   19CHTO   H77 7906   4.096   7.467   0.689  1.3053 -0.4930  1.6373
   19CHTO   H78 7907   4.121   7.419   0.523 -0.8327  1.9563  0.0219
   19CHTO   C51 7908   4.305   7.219   0.581 -0.5062  0.1041  0.1670
   19CHTO   H93 7909   4.263   7.203   0.482 -1.3172  0.1110  0.4990
   19CHTO   O30 7910   4.345   7.095   0.642  0.6743 -1.0113 -0.0201
   19CHTO   C46 7911   4.212   6.979   0.636 -0.0808  0.1810  0.3286
   19CHTO   H88 7912   4.177   6.955   0.535 -1.2350  1.3642  0.4356
   19CHTO   C53 7913   4.256   6.858   0.710  0.0706 -0.1012 -0.4762
   19CHTO   O72 7914   4.389   6.829   0.684 -0.0485 -0.3341 -0.4953
   19CHTO  H199 7915   4.445   6.885   0.734 -2.0995  2.1812 -0.9079
   19CHTO   O22 7916   4.433   7.291   0.582 -0.1659  0.2693 -0.3158
   19CHTO   C31 7917   4.543   7.234   0.494  0.3218 -0.2862 -0.1287
   19CHTO   H59 7918   4.515   7.128   0.479  0.9061 -0.8434  2.5308
   19CHTO   C29 7919   4.556   7.299   0.355 -0.1210  0.4873 -0.4256
   19CHTO   H57 7920   4.593   7.402   0.371 -0.1243  0.4495 -0.1674
   19CHTO   O21 7921   4.431   7.322   0.295  0.1968  0.3608 -0.0680
   19CHTO   H37 7922   4.390   7.394   0.339 -0.0614 -0.1651  0.5680
   19CHTO   C27 7923   4.663   7.218   0.273  0.4648  0.1806  0.0796
   19CHTO   H55 7924   4.630   7.114   0.262  0.9043 -0.0830  1.2168
   19CHTO    N5 7925   4.677   7.274   0.140  0.0206 -0.1428  0.5594
   19CHTO   H43 7926   4.602   7.349   0.122 -0.3867 -0.5097  0.7159
   19CHTO   H44 7927   4.650   7.196   0.070 -0.0881 -0.5725  1.0741
   19CHTO   C25 7928   4.792   7.228   0.356  0.3631 -0.4029 -0.3991
   19CHTO   H53 7929   4.829   7.331   0.370  2.7720 -1.0278 -1.8102
   19CHTO   O17 7930   4.781   7.170   0.491 -0.0894 -0.5694  0.0520
   19CHTO   C32 7931   4.685   7.247   0.568 -0.0359  0.3350  1.1151
   19CHTO   H60 7932   4.714   7.352   0.580  0.6593  0.0504  2.0044
   19CHTO   C36 7933   4.678   7.175   0.705 -0.1048  0.0295  0.3570
   19CHTO   O25 7934   4.746   7.258   0.804  0.0510  0.4586  0.4594
   19CHTO   H40 7935   4.746   7.204   0.880 -1.6080  0.8272  0.7336
   19CHTO   O15 7936   4.917   7.149   0.281 -0.1322 -0.1738  0.0826
   19CHTO   C19 7937   4.995   7.035   0.233  0.0499  0.2977  0.1925
   19CHTO   H47 7938   4.942   7.013   0.139  2.7872 -0.7323 -1.1763
   19CHTO   C20 7939   5.142   7.063   0.190 -0.4480  0.0798 -0.7268
   19CHTO   H48 7940   5.204   7.095   0.275  1.1148  0.1318 -1.8759
   19CHTO   O19 7941   5.145   7.174   0.102  0.0153 -0.3853  0.3903
   19CHTO   H35 7942   5.093   7.161   0.025  0.0869  0.6157  0.1560
   19CHTO   C21 7943   5.208   6.940   0.119  0.7436  0.2220 -0.5498
   19CHTO   H49 7944   5.156   6.930   0.024 -0.8305  0.8213  0.2085
   19CHTO    N4 7945   5.356   6.938   0.094  0.0952  0.1835 -0.5570
   19CHTO   H41 7946   5.380   7.026   0.036 -0.6608  1.5223  1.1148
   19CHTO   H42 7947   5.409   6.943   0.188 -1.3596  0.3304  0.2799
   19CHTO   C22 7948   5.168   6.804   0.184  0.1552 -0.4654 -0.2315
   19CHTO   H50 7949   5.245   6.781   0.257 -0.4755  2.4414  1.4608
   19CHTO   O14 7950   5.034   6.799   0.245  0.4468 -0.0789 -0.8059
   19CHTO   C23 7951   4.989   6.909   0.320  0.3667  0.6713  0.2340
   19CHTO   H51 7952   5.067   6.910   0.398 -1.0859 -0.1916  1.7521
   19CHTO   C34 7953   4.857   6.875   0.380 -0.6774  0.5125  0.3684
   19CHTO   O23 7954   4.757   6.838   0.288  0.8624 -0.1308  0.2077
   19CHTO   H38 7955   4.763   6.753   0.250  1.4680  0.5743 -1.3173
   19CHTO   O16 7956   5.151   6.710   0.082 -0.1940  0.7290  0.2180
   19CHTO   C24 7957   5.241   6.600   0.059 -0.5911 -0.1258  0.0847
   19CHTO   H52 7958   5.329   6.603   0.123 -0.2722  1.9046 -0.3993
   19CHTO   C26 7959   5.287   6.609  -0.088  0.5110  0.5273  0.0139
   19CHTO   H54 7960   5.197   6.614  -0.152  1.1186 -1.8849 -1.0641
   19CHTO   O20 7961   5.364   6.726  -0.113 -0.1884  0.0270  0.2187
   19CHTO   H36 7962   5.315   6.796  -0.152  0.1134 -0.2027 -0.5930
   19CHTO   C30 7963   5.362   6.484  -0.143 -0.4144  0.7554  0.3901
   19CHTO   H58 7964   5.463   6.476  -0.101 -0.0903  2.6551 -0.0155
   19CHTO    N6 7965   5.385   6.485  -0.289 -0.4236 -0.5251  0.1342
   19CHTO   H45 7966   5.454   6.565  -0.311 -1.0195 -0.1833 -0.5211
   19CHTO   H46 7967   5.291   6.510  -0.335 -2.2650 -1.1217  3.4229
   19CHTO   C33 7968   5.281   6.356  -0.102 -0.4189  0.5075 -0.5546
   19CHTO   H61 7969   5.187   6.353  -0.158 -0.7766  0.2215  0.0524
   19CHTO   O18 7970   5.248   6.358   0.042 -0.7386 -0.0069 -0.0276
   19CHTO   C28 7971   5.166   6.470   0.087  0.2077  0.2210 -0.3985
   19CHTO   H56 7972   5.075   6.468   0.027  0.4198  1.0674 -0.7597
   19CHTO   C35 7973   5.143   6.458   0.232  0.0508 -0.2402 -0.4728
   19CHTO   O24 7974   5.074   6.335   0.250  0.1643 -0.1652 -0.1037
   19CHTO   H39 7975   5.138   6.267   0.246 -0.7717 -1.0815  0.0598
   19CHTO    O9 7976   5.342   6.233  -0.138  0.1764  0.5801  0.0349
   19CHTO   C13 7977   5.223   6.125  -0.180  0.1057  0.1838 -0.8378
   19CHTO   H26 7978   5.182   6.178  -0.269 -2.6144 -0.0982  0.2092
   19CHTO   C11 7979   5.113   6.107  -0.060  0.2502 -0.4670  0.4522
   19CHTO   H24 7980   5.070   6.204  -0.032 -1.3676 -0.4268 -2.0327
   19CHTO    O8 7981   5.177   6.061   0.062  0.5829 -0.1422  0.0123
   19CHTO    H3 7982   5.249   6.116   0.087  0.1298  0.8297 -0.7541
   19CHTO    C9 7983   5.001   6.008  -0.117  0.6354  0.1899  0.3204
   19CHTO   H22 7984   4.963   6.052  -0.211  0.3016 -0.6987  0.0337
   19CHTO    N2 7985   4.882   5.995  -0.035  0.0428 -0.8863 -0.0597
   19CHTO   H10 7986   4.806   6.058  -0.080  0.3053 -0.4025  0.1652
   19CHTO   H11 7987   4.890   6.041   0.062 -0.7817  1.4943 -1.0683
   19CHTO    C7 7988   5.069   5.872  -0.165 -0.0266  0.8484  0.0310
   19CHTO   H20 7989   4.988   5.830  -0.229  0.5666 -1.2730  0.6342
   19CHTO    O4 7990   5.179   5.886  -0.253  0.5498 -0.4748  0.3621
   19CHTO   C14 7991   5.279   5.989  -0.233  0.7272 -0.5638 -0.1896
   19CHTO   H27 7992   5.314   6.001  -0.338  0.6846 -0.9941 -0.2549
   19CHTO   C18 7993   5.399   5.944  -0.145 -0.0506  0.6173 -0.4440
   19CHTO   O13 7994   5.453   5.821  -0.203 -0.0142  0.3571  0.0158
   19CHTO    H7 7995   5.521   5.840  -0.266  1.3568  1.2329  1.7132
   19CHTO    O2 7996   5.109   5.781  -0.044  0.1449 -0.6007  0.4398
   19CHTO    C1 7997   5.104   5.641  -0.059  0.1919  0.0879  0.0472
   19CHTO   H14 7998   5.163   5.617  -0.150  1.4432  2.3772  0.2112
   19CHTO    C2 7999   4.965   5.564  -0.066 -0.0503 -0.1353 -0.3450
   19CHTO   H15 8000   4.926   5.602   0.029  2.8611  1.2798  0.3657
   19CHTO    O6 8001   4.886   5.603  -0.183  0.4783 -0.4783 -0.4450
   19CHTO    H1 8002   4.842   5.683  -0.160 -1.8959 -1.8991  0.0620
   19CHTO    C3 8003   4.991   5.406  -0.074  0.5582  0.4429 -0.4060
   19CHTO   H16 8004   5.044   5.380  -0.166  2.0285 -0.6326  0.7269
   19CHTO    N1 8005   4.861   5.328  -0.073  0.2405  0.3253 -0.0245
   19CHTO    H8 8006   4.765   5.372  -0.094  0.9763  2.2508  0.5368
   19CHTO    H9 8007   4.859   5.249   0.001  0.8981  0.2169 -0.1241
   19CHTO    C4 8008   5.089   5.369   0.039  0.5635  0.1707 -0.5561
   19CHTO   H17 8009   5.039   5.391   0.133  0.2799  1.7199 -1.0565
   19CHTO    O1 8010   5.206   5.451   0.018  0.3815 -0.1819 -0.1963
   19CHTO    C5 8011   5.186   5.583   0.059 -0.0247  0.5994 -0.5165
   19CHTO   H18 8012   5.129   5.574   0.152 -2.3131 -1.5217 -2.0434
   19CHTO   C16 8013   5.318   5.652   0.091 -0.6894  0.0476 -0.4567
   19CHTO   O11 8014   5.318   5.696   0.226  0.0424 -0.1585 -0.4296
   19CHTO    H5 8015   5.409   5.711   0.242 -0.3880 -0.2050  2.1819
   19CHTO    O3 8016   5.122   5.228   0.042  0.2173 -0.0235 -0.3875
   19CHTO    C6 8017   5.133   5.170   0.181 -0.2966  0.0657  0.5686
   19CHTO   H19 8018   5.100   5.237   0.260  1.6215  0.3137  1.1686
   19CHTO    C8 8019   5.046   5.040   0.187  0.0653  0.4500 -0.1890
   19CHTO   H21 8020   5.094   4.964   0.125  0.2510  0.8977 -0.5943
   19CHTO    O7 8021   4.918   5.056   0.130 -0.3689 -0.1675  0.6499
   19CHTO    H2 8022   4.915   5.092   0.043  0.3508 -0.3730  0.5412
   19CHTO   C12 8023   5.044   4.996   0.335  0.0492  0.3162 -0.0950
   19CHTO   H25 8024   4.983   5.068   0.393 -0.9761  1.1957 -2.2429
   19CHTO    N3 8025   4.960   4.872   0.349 -0.2575 -0.0826  0.1792
   19CHTO   H12 8026   4.961   4.858   0.456 -1.8199 -0.3872  0.1704
   19CHTO   H13 8027   5.012   4.798   0.291 -0.2655 -0.1577  0.2685
   19CHTO   C15 8028   5.186   4.984   0.406 -0.0831  0.8777 -0.6316
   19CHTO   H28 8029   5.216   4.881   0.385  2.0487  1.2733  0.3978
   19CHTO   O10 8030   5.188   5.020   0.545 -0.0185  1.0457 -0.4602
   19CHTO    H4 8031   5.263   4.978   0.583  0.0064  2.9048  1.6888
   19CHTO    O5 8032   5.285   5.067   0.355 -0.1004  0.1095  0.2517
   19CHTO   C10 8033   5.281   5.127   0.222  0.0953  0.5463 -0.0696
   19CHTO   H23 8034   5.321   5.056   0.149  1.8712  0.5801  0.8469
   19CHTO   C17 8035   5.374   5.242   0.214  0.0172 -0.6043 -0.0903
   19CHTO   O12 8036   5.337   5.362   0.286  0.0132  0.2551  0.0591
   19CHTO    H6 8037   5.280   5.418   0.236  0.2985  1.3679  0.9710
   20CHTO  H203 8038   4.715   0.585   1.922 -0.0946 -0.1760 -0.0278
   20CHTO   O82 8039   4.780   0.647   1.950 -0.2325 -0.2092  0.3751
   20CHTO  C123 8040   4.791   0.740   1.836 -0.1504  1.1159  0.0096
   20CHTO  H227 8041   4.702   0.805   1.831 -0.4294  0.6115 -2.2417
   20CHTO   O77 8042   4.918   0.804   1.870 -0.1448 -0.3461  0.5048
   20CHTO  C118 8043   4.960   0.915   1.786 -0.4928  0.5353  0.0666
   20CHTO  H222 8044   4.875   0.985   1.792 -0.4603  0.5100  0.8755
   20CHTO  C125 8045   5.093   0.979   1.839 -0.1059  0.2675  0.3385
   20CHTO   O84 8046   5.204   0.892   1.844 -0.0525  0.1383 -0.7914
   20CHTO  H205 8047   5.273   0.925   1.897 -0.5539 -0.2460  0.1159
   20CHTO  C114 8048   4.977   0.865   1.641  0.7467 -0.6904  0.0346
   20CHTO  H218 8049   5.053   0.787   1.642  0.2408 -1.1903 -0.2639
   20CHTO  C116 8050   4.855   0.791   1.588  0.0036  0.5877 -0.3834
   20CHTO  H220 8051   4.767   0.856   1.568  0.2630  1.3507  0.8517
   20CHTO   O79 8052   4.899   0.736   1.461 -0.2252 -0.3985  0.1263
   20CHTO  H201 8053   4.965   0.671   1.476  0.3937  0.3207  0.5041
   20CHTO  C120 8054   4.817   0.676   1.693  0.1890  0.1301  0.2777
   20CHTO  H224 8055   4.906   0.611   1.705  1.7110  2.2321  0.6985
   20CHTO   N21 8056   4.711   0.577   1.655 -0.0938 -0.3756  0.6949
   20CHTO  H211 8057   4.614   0.605   1.694 -0.0370  0.8045 -0.0138
   20CHTO  H212 8058   4.747   0.478   1.680 -0.5284 -0.3684  1.3669
   20CHTO   O75 8059   5.015   0.981   1.564  0.1633  0.8494  1.0056
   20CHTO  C112 8060   5.140   0.934   1.454 -0.2270 -0.2192 -0.4495
   20CHTO  H216 8061   5.140   0.825   1.436 -0.1553 -0.3180  0.1383
   20CHTO   O73 8062   5.261   0.971   1.521  0.2241 -0.4902 -0.4258
   20CHTO  C113 8063   5.380   0.963   1.447 -0.7689  0.4395  0.3005
   20CHTO  H217 8064   5.412   0.863   1.412  2.6130  1.8804 -0.9480
   20CHTO  C124 8065   5.492   1.001   1.540  0.0394  0.7783 -0.0335
   20CHTO   O83 8066   5.498   0.912   1.650 -0.2914 -0.5319 -0.3194
   20CHTO  H204 8067   5.466   0.828   1.622 -1.4579  0.9273 -3.5860
   20CHTO  C109 8068   5.370   1.056   1.316  0.1550 -0.2698  0.3404
   20CHTO  H213 8069   5.361   1.158   1.358 -2.0021  1.0438 -3.1410
   20CHTO  C110 8070   5.240   1.023   1.234  0.7269  0.6561 -0.1509
   20CHTO  H214 8071   5.242   0.932   1.174 -1.5995 -0.1124  0.8583
   20CHTO   O78 8072   5.229   1.127   1.139  0.0446  0.2043 -0.2587
   20CHTO  H200 8073   5.296   1.117   1.074 -0.3095  0.9634 -0.7440
   20CHTO  C111 8074   5.120   1.020   1.325  0.3098 -0.2842 -0.4127
   20CHTO  H215 8075   5.105   1.122   1.366  0.5043  0.0988 -1.2949
   20CHTO   N19 8076   4.992   0.987   1.255 -0.2410 -0.1023 -0.1592
   20CHTO  H207 8077   4.910   0.989   1.325 -0.3800  1.5038 -0.3344
   20CHTO  H208 8078   5.000   0.899   1.193  1.1836  0.3015 -0.5500
   20CHTO   O74 8079   5.483   1.042   1.223  0.1820 -0.2299 -0.1320
   20CHTO  C115 8080   5.600   1.153   1.235 -0.3344 -0.3483  0.0406
   20CHTO  H219 8081   5.615   1.188   1.337 -1.0242 -0.0544  0.0422
   20CHTO   O76 8082   5.732   1.093   1.191 -0.5030  0.7874  0.1153
   20CHTO  C122 8083   5.728   1.026   1.065 -0.6340 -0.4118 -0.0642
   20CHTO  H226 8084   5.681   0.928   1.072 -0.5261 -0.3707  1.5511
   20CHTO  C126 8085   5.882   0.999   1.030 -0.3266  0.2255 -0.1162
   20CHTO   O85 8086   5.904   0.912   0.920 -0.3553  0.0809 -0.0339
   20CHTO  H206 8087   5.896   0.959   0.840  1.4465 -2.3760 -1.7197
   20CHTO  C121 8088   5.656   1.111   0.956  0.2636 -0.0949  0.7735
   20CHTO  H225 8089   5.710   1.110   0.859  1.8949 -0.2644  1.6694
   20CHTO   O81 8090   5.530   1.052   0.917 -0.1965  0.1267 -0.5902
   20CHTO  H202 8091   5.548   0.967   0.881  0.5074  0.5161 -1.1801
   20CHTO  C119 8092   5.632   1.256   1.002 -0.5410 -0.6394  0.2961
   20CHTO  H223 8093   5.729   1.304   0.992 -0.6546 -0.5136 -0.2098
   20CHTO  C117 8094   5.568   1.283   1.149  0.5634  0.4065  0.1204
   20CHTO  H221 8095   5.459   1.290   1.152  0.5683  0.1598  1.2709
   20CHTO   N20 8096   5.612   1.413   1.214  0.0820  0.5222 -0.6098
   20CHTO  H209 8097   5.595   1.404   1.320  0.2935  0.9099 -0.5406
   20CHTO  H210 8098   5.549   1.497   1.189  2.8081  2.3819 -1.5539
   20CHTO   O80 8099   5.545   1.333   0.894 -0.2861  0.0451 -0.1513
   20CHTO  C103 8100   5.610   1.363   0.746  0.3526  0.1637 -0.1625
   20CHTO  H190 8101   5.715   1.334   0.746 -0.2235 -2.1198 -1.4129
   20CHTO  C101 8102   5.537   1.290   0.626  0.0605  0.7639  0.0601
   20CHTO  H188 8103   5.428   1.292   0.629  0.0581  1.6013 -0.3357
   20CHTO   O68 8104   5.591   1.124   0.631  0.0837 -0.3000  0.5220
   20CHTO  H168 8105   5.579   1.088   0.717 -0.1781 -0.4577  0.4189
   20CHTO   C99 8106   5.592   1.356   0.485  0.6420  0.2871 -0.2175
   20CHTO  H186 8107   5.703   1.354   0.492  0.7118 -0.4057 -1.4750
   20CHTO   N17 8108   5.556   1.282   0.362 -0.3122  0.2301  0.3019
   20CHTO  H174 8109   5.454   1.248   0.359 -0.0523 -0.4636 -1.2923
   20CHTO  H175 8110   5.627   1.202   0.346 -0.4269  0.7495 -3.2160
   20CHTO   C97 8111   5.553   1.504   0.492 -0.0293 -0.0145  0.3156
   20CHTO  H184 8112   5.444   1.508   0.502 -0.5677 -2.2877 -3.7432
   20CHTO   O64 8113   5.627   1.569   0.598 -0.5829  0.3948 -0.5224
   20CHTO  C104 8114   5.598   1.520   0.734 -0.5281 -1.2136 -0.2133
   20CHTO  H191 8115   5.499   1.554   0.762  1.4644  1.4907  4.0475
   20CHTO  C108 8116   5.697   1.576   0.827  0.5156 -0.2656  0.1739
   20CHTO   O71 8117   5.678   1.713   0.856 -0.2177 -0.3178  0.1672
   20CHTO  H171 8118   5.645   1.764   0.785  1.8946 -0.0218 -0.6448
   20CHTO   O62 8119   5.601   1.569   0.372 -0.0583 -0.2882  0.2877
   20CHTO   C91 8120   5.578   1.712   0.358  0.2599  0.3839 -0.0301
   20CHTO  H178 8121   5.560   1.756   0.457 -0.1450  1.3369 -0.5244
   20CHTO   C92 8122   5.438   1.725   0.281 -0.2141  0.8943 -0.2342
   20CHTO  H179 8123   5.427   1.650   0.201 -0.2194 -0.9308  1.4352
   20CHTO   O66 8124   5.333   1.689   0.376 -0.0402 -0.1744  0.3285
   20CHTO  H166 8125   5.343   1.735   0.457  1.7180  0.1101 -0.0454
   20CHTO   C93 8126   5.418   1.874   0.221 -0.6678 -0.1298 -0.2000
   20CHTO  H180 8127   5.393   1.933   0.311  0.1217  1.9150 -1.3049
   20CHTO   N16 8128   5.293   1.901   0.146 -0.7430 -0.1472  0.2408
   20CHTO  H172 8129   5.235   1.980   0.192 -0.0693  1.4049 -1.4996
   20CHTO  H173 8130   5.319   1.916   0.042  0.1667  0.5833  0.5657
   20CHTO   C94 8131   5.547   1.935   0.153 -0.5404  0.3320 -0.2957
   20CHTO  H181 8132   5.583   1.870   0.073 -1.4349 -1.1762  0.4924
   20CHTO   O61 8133   5.650   1.926   0.253 -0.4210 -0.4850  0.2621
   20CHTO   C95 8134   5.695   1.791   0.285  0.2118  0.1780  0.4802
   20CHTO  H182 8135   5.724   1.740   0.193  0.3770 -1.3495  1.3738
   20CHTO  C106 8136   5.823   1.797   0.377  0.1807  0.6220 -0.3203
   20CHTO   O69 8137   5.872   1.661   0.413  0.3786 -0.3770  0.3821
   20CHTO  H169 8138   5.888   1.665   0.505  0.3179 -0.7573  0.4097
   20CHTO   O63 8139   5.531   2.086   0.108 -0.0397 -0.0507  0.0174
   20CHTO   C96 8140   5.599   2.111  -0.025 -0.0236 -0.0489  0.2554
   20CHTO  H183 8141   5.602   2.024  -0.091 -1.6137 -0.7413  1.0761
   20CHTO   C98 8142   5.747   2.170  -0.010  0.2720 -0.5707 -0.1047
   20CHTO  H185 8143   5.768   2.235   0.076  0.6292  1.0591 -1.4210
   20CHTO   O67 8144   5.819   2.049   0.021  0.0856 -0.3988  0.2675
   20CHTO  H167 8145   5.909   2.075   0.035 -0.1833  1.5403 -1.3736
   20CHTO  C102 8146   5.815   2.230  -0.144 -0.3443 -1.1456 -0.2599
   20CHTO  H189 8147   5.846   2.143  -0.204 -2.4637  0.1479 -3.3316
   20CHTO   N18 8148   5.938   2.301  -0.124  0.3141 -0.2691 -0.3684
   20CHTO  H176 8149   6.002   2.225  -0.082  0.4541  1.1225  2.0165
   20CHTO  H177 8150   5.931   2.385  -0.056 -0.7913  1.4765 -2.5800
   20CHTO  C105 8151   5.706   2.318  -0.208 -0.5319  0.5826  0.8432
   20CHTO  H192 8152   5.701   2.410  -0.150  0.3384  1.4924 -0.4976
   20CHTO   O65 8153   5.574   2.261  -0.226 -0.0486  0.3719  0.1855
   20CHTO  C100 8154   5.510   2.206  -0.110 -0.2854  0.5808  0.0464
   20CHTO  H187 8155   5.475   2.287  -0.044 -0.6711 -0.2397  0.8521
   20CHTO  C107 8156   5.381   2.136  -0.156 -0.1278  0.2543  0.5347
   20CHTO   O70 8157   5.396   2.019  -0.237 -0.2052 -0.4461  0.0062
   20CHTO  H170 8158   5.438   1.947  -0.194  1.5794  0.8439  0.5096
   20CHTO   O57 8159   5.748   2.350  -0.351  0.4882 -0.0912  0.2354
   20CHTO   C85 8160   5.754   2.488  -0.392 -0.2839 -0.0216 -0.3547
   20CHTO  H157 8161   5.818   2.544  -0.320  0.8081 -0.8169 -0.6943
   20CHTO   C83 8162   5.614   2.565  -0.376 -0.2795  0.5431  0.3983
   20CHTO  H155 8163   5.585   2.561  -0.271 -3.0721 -0.4605 -0.3591
   20CHTO   O56 8164   5.522   2.490  -0.460  0.1801 -0.0931 -0.0593
   20CHTO  H135 8165   5.528   2.534  -0.543  4.6540  1.9161  1.1310
   20CHTO   C81 8166   5.633   2.710  -0.414  0.0481  0.1728  0.4928
   20CHTO  H153 8167   5.716   2.754  -0.359  0.0764  0.3447  0.3125
   20CHTO   N14 8168   5.519   2.791  -0.375  0.4657  0.8170  0.4106
   20CHTO  H141 8169   5.444   2.739  -0.320 -0.2522 -0.6449 -1.8724
   20CHTO  H142 8170   5.552   2.876  -0.318 -0.8996  0.0116  2.4551
   20CHTO   C79 8171   5.666   2.723  -0.569  0.4642 -0.7441 -0.2546
   20CHTO  H151 8172   5.682   2.830  -0.587  1.6347 -1.1491 -1.8059
   20CHTO   O52 8173   5.796   2.660  -0.594  0.0597 -0.2041  0.0574
   20CHTO   C86 8174   5.804   2.523  -0.544 -0.2942  0.3264 -0.5205
   20CHTO  H158 8175   5.749   2.454  -0.612  0.7786 -1.6180  0.5233
   20CHTO   C90 8176   5.952   2.482  -0.556  0.3855 -0.9452  0.2172
   20CHTO   O60 8177   5.997   2.348  -0.545 -0.0288 -0.0005  0.5113
   20CHTO  H138 8178   6.014   2.310  -0.629 -1.6792  0.8680 -0.2393
   20CHTO   O50 8179   5.568   2.679  -0.662 -0.1397 -0.3082 -0.1285
   20CHTO   C73 8180   5.550   2.722  -0.797  0.1822  0.1930 -0.5914
   20CHTO  H145 8181   5.619   2.667  -0.861 -0.7263  0.4508 -1.8128
   20CHTO   C74 8182   5.574   2.871  -0.830  0.1496  0.0408  0.0688
   20CHTO  H146 8183   5.672   2.891  -0.786  0.7545  1.2297 -1.7394
   20CHTO   O54 8184   5.586   2.887  -0.971 -0.3984  0.6486  0.0049
   20CHTO  H133 8185   5.626   2.815  -1.017  0.6781  0.6353  0.9373
   20CHTO   C75 8186   5.464   2.960  -0.759  0.7558  0.3769  0.4445
   20CHTO  H147 8187   5.469   2.931  -0.653 -0.6164 -1.3863  0.0549
   20CHTO   N13 8188   5.477   3.108  -0.780  0.5187 -0.2646 -0.9491
   20CHTO  H139 8189   5.394   3.169  -0.747 -0.5209 -0.8194 -2.4673
   20CHTO  H140 8190   5.506   3.137  -0.879  2.0126 -0.2781 -0.5278
   20CHTO   C76 8191   5.319   2.906  -0.808  0.8412  0.2023  0.1111
   20CHTO  H148 8192   5.309   2.941  -0.911 -1.2121  0.8912  0.5288
   20CHTO   O49 8193   5.300   2.760  -0.797  0.4802 -0.2637 -0.2918
   20CHTO   C77 8194   5.408   2.676  -0.850  0.2791 -0.1153  0.1888
   20CHTO  H149 8195   5.407   2.688  -0.958  1.0242 -0.4882  0.1359
   20CHTO   C88 8196   5.394   2.526  -0.820  0.0071  0.0458  0.1766
   20CHTO   O58 8197   5.303   2.471  -0.895 -1.2610 -0.3129  0.2419
   20CHTO  H136 8198   5.300   2.378  -0.882  0.5311 -0.2464  1.3559
   20CHTO   O51 8199   5.201   2.977  -0.713 -0.0736  0.0433  0.0541
   20CHTO   C78 8200   5.195   2.917  -0.556 -0.0313  1.1579  0.1869
   20CHTO  H150 8201   5.285   2.854  -0.538 -1.0580 -0.1404  0.8769
   20CHTO   C80 8202   5.074   2.823  -0.541  0.6157 -0.1562 -0.0663
   20CHTO  H152 8203   4.983   2.879  -0.569  0.3454 -0.8960 -0.6857
   20CHTO   O55 8204   5.077   2.718  -0.637  0.1324  0.0305 -0.6958
   20CHTO  H134 8205   5.029   2.734  -0.716  1.0551  0.1224 -1.2477
   20CHTO   C84 8206   5.058   2.760  -0.393  0.2489  0.6680  0.0532
   20CHTO  H156 8207   5.153   2.709  -0.380 -0.9211 -2.1885 -1.9894
   20CHTO   N15 8208   4.937   2.679  -0.377  0.3146 -0.3797 -0.1172
   20CHTO  H143 8209   4.885   2.666  -0.469 -3.6835 -0.8464  2.0673
   20CHTO  H144 8210   4.870   2.726  -0.308 -1.0619  0.3391 -1.8953
   20CHTO   C87 8211   5.065   2.877  -0.291 -0.4075 -0.1722 -0.0517
   20CHTO  H159 8212   4.972   2.933  -0.303 -1.5255 -2.0466 -0.2987
   20CHTO   O53 8213   5.183   2.973  -0.324  0.3651  0.2794 -0.3894
   20CHTO   C82 8214   5.173   3.028  -0.456  0.0849  0.0758  0.3342
   20CHTO  H154 8215   5.072   3.068  -0.467 -0.0775  0.5282  3.1157
   20CHTO   C89 8216   5.261   3.151  -0.462  0.3789  0.2812 -0.0459
   20CHTO   O59 8217   5.400   3.114  -0.428 -0.4077 -0.6424  0.2784
   20CHTO  H137 8218   5.441   3.186  -0.385 -0.3469 -0.2740 -0.3797
   20CHTO   O45 8219   5.080   2.829  -0.129  0.1856  0.2971  0.7824
   20CHTO   C67 8220   5.196   2.757  -0.083 -0.4525  0.6359 -0.1972
   20CHTO  H124 8221   5.249   2.724  -0.172  0.1986  1.1987 -0.0194
   20CHTO   C65 8222   5.286   2.857  -0.005 -0.0342  0.0491 -0.4304
   20CHTO  H122 8223   5.280   2.954  -0.055 -0.7689 -0.2685 -0.9688
   20CHTO   O44 8224   5.424   2.813  -0.012  0.4354  0.4246  0.1074
   20CHTO  H102 8225   5.484   2.868   0.034 -0.1432  0.7418  0.4837
   20CHTO   C63 8226   5.220   2.871   0.135 -0.3125  0.5820  0.0310
   20CHTO  H120 8227   5.119   2.911   0.125  0.0856  1.3664 -0.9874
   20CHTO   N11 8228   5.276   2.973   0.225 -0.1985 -0.8744  0.9062
   20CHTO  H108 8229   5.229   2.965   0.321  0.0269 -1.5577  0.9595
   20CHTO  H109 8230   5.382   2.961   0.231  0.6622  4.2168 -1.3381
   20CHTO   C61 8231   5.205   2.733   0.214 -0.4528  0.0272  0.2883
   20CHTO  H118 8232   5.151   2.740   0.309 -0.4430 -2.1190  0.4847
   20CHTO   O40 8233   5.131   2.630   0.137  0.2170 -0.1678  0.3784
   20CHTO   C68 8234   5.163   2.624  -0.004  0.3227 -0.1423 -0.0292
   20CHTO  H125 8235   5.071   2.581  -0.050 -0.6628 -0.2065  1.9205
   20CHTO   C72 8236   5.267   2.510  -0.015 -0.4221 -0.7930 -0.1762
   20CHTO   O48 8237   5.285   2.483  -0.154  0.4755  0.2538  0.5750
   20CHTO  H105 8238   5.345   2.412  -0.160 -0.2888 -0.2377 -1.5024
   20CHTO   O38 8239   5.347   2.684   0.239 -0.0779  0.7777 -0.1666
   20CHTO   C55 8240   5.386   2.642   0.372 -0.1129  0.3847 -0.4080
   20CHTO  H112 8241   5.306   2.576   0.409 -0.8095  0.8471 -1.0879
   20CHTO   C56 8242   5.419   2.748   0.471  0.5039  0.2821 -0.3777
   20CHTO  H113 8243   5.490   2.817   0.424  0.3271  1.5993  1.2677
   20CHTO   O42 8244   5.303   2.824   0.496 -0.2811  0.5096  0.4552
   20CHTO  H100 8245   5.260   2.849   0.417 -0.1502  1.9099  0.8133
   20CHTO   C57 8246   5.473   2.686   0.612  0.1047  0.1815  0.8395
   20CHTO  H114 8247   5.388   2.639   0.661 -1.2591  2.6264  0.9145
   20CHTO   N10 8248   5.526   2.785   0.709 -0.4435  0.4511  0.4250
   20CHTO  H106 8249   5.576   2.859   0.650 -0.9934  0.1882 -0.3746
   20CHTO  H107 8250   5.446   2.837   0.759 -1.4991  2.0572 -2.8396
   20CHTO   C58 8251   5.581   2.576   0.584  0.4048  0.0266  0.0830
   20CHTO  H115 8252   5.677   2.619   0.549  1.3482 -0.2217  2.2549
   20CHTO   O37 8253   5.535   2.485   0.485  0.3012 -0.5367  0.7112
   20CHTO   C59 8254   5.507   2.550   0.358 -0.0322  0.3563 -0.1744
   20CHTO  H116 8255   5.595   2.608   0.331  1.6372 -1.5682  1.0103
   20CHTO   C70 8256   5.514   2.432   0.263 -0.6193  0.3478 -0.4869
   20CHTO   O46 8257   5.399   2.346   0.258  0.2315  0.5474 -0.3253
   20CHTO  H103 8258   5.407   2.299   0.339 -0.7655  0.4555 -0.2793
   20CHTO   O39 8259   5.616   2.477   0.725  0.7764  0.3649  0.1224
   20CHTO   C60 8260   5.534   2.352   0.732 -0.1246 -0.9620 -0.3311
   20CHTO  H117 8261   5.454   2.335   0.660 -0.9240 -0.1969  0.3770
   20CHTO   C62 8262   5.621   2.227   0.708 -0.1461  0.1610 -0.4531
   20CHTO  H119 8263   5.662   2.241   0.606  0.3995 -1.1224 -0.4241
   20CHTO   O43 8264   5.731   2.222   0.801  0.0142  0.1073 -0.3798
   20CHTO  H101 8265   5.804   2.267   0.764  1.0584 -2.4996 -1.5993
   20CHTO   C66 8266   5.521   2.099   0.722 -0.0570 -0.6200 -0.2121
   20CHTO  H123 8267   5.425   2.116   0.675 -0.5282 -0.7736  0.6821
   20CHTO   N12 8268   5.577   1.977   0.658 -0.0706 -0.3235 -0.4814
   20CHTO  H110 8269   5.684   1.975   0.645 -0.1257  1.1540 -1.2061
   20CHTO  H111 8270   5.522   1.941   0.572 -1.8265  1.9108 -0.3286
   20CHTO   C69 8271   5.493   2.080   0.875 -0.3796  0.8575  0.1751
   20CHTO  H126 8272   5.593   2.077   0.924  0.3300 -0.9532 -1.3443
   20CHTO   O41 8273   5.402   2.199   0.914  0.1396  0.3863  0.0631
   20CHTO   C64 8274   5.469   2.350   0.875 -0.4302  0.4666  0.1779
   20CHTO  H121 8275   5.547   2.384   0.947 -0.5205  0.2465  0.3794
   20CHTO   C71 8276   5.349   2.451   0.889  0.9841 -0.2587  0.1825
   20CHTO   O47 8277   5.318   2.452   1.027  0.3882  0.0157 -0.1835
   20CHTO  H104 8278   5.366   2.526   1.059 -1.3008  1.1670 -0.2596
   20CHTO   O34 8279   5.413   1.926   0.916 -0.3730 -0.4967  0.6747
   20CHTO   C49 8280   5.247   1.927   0.906 -0.3638 -0.1462  0.1460
   20CHTO   H91 8281   5.199   2.011   0.955  1.1200  0.9976 -0.3391
   20CHTO   C47 8282   5.209   1.793   0.978  0.3476  0.3583 -0.4002
   20CHTO   H89 8283   5.098   1.790   0.981  0.3770  0.6758  1.6022
   20CHTO   O33 8284   5.258   1.802   1.114 -0.3078 -0.0316 -0.3284
   20CHTO   H70 8285   5.229   1.884   1.149  2.6159  0.9821 -0.1439
   20CHTO   C45 8286   5.268   1.662   0.897 -0.4843  0.4517  0.0459
   20CHTO   H87 8287   5.377   1.671   0.893 -0.1590 -3.2909 -0.7945
   20CHTO    N8 8288   5.241   1.529   0.958 -0.0183 -0.0790  0.3818
   20CHTO   H75 8289   5.204   1.452   0.893  1.8986 -1.0014  0.3366
   20CHTO   H76 8290   5.171   1.536   1.039 -1.1843  0.3997 -0.6396
   20CHTO   C43 8291   5.225   1.665   0.745  0.8543  0.5378  0.2102
   20CHTO   H85 8292   5.295   1.598   0.695 -0.3741 -2.8960  2.8858
   20CHTO   O29 8293   5.224   1.802   0.687 -0.2762  0.2306 -0.1310
   20CHTO   C50 8294   5.194   1.922   0.765  0.6361  0.7818 -0.6582
   20CHTO   H92 8295   5.243   1.999   0.703  2.4029 -0.0432 -0.3317
   20CHTO   C54 8296   5.046   1.967   0.761 -0.7891  0.9810  0.2540
   20CHTO   O36 8297   4.999   1.996   0.631 -0.5326  0.5421 -0.2713
   20CHTO   H72 8298   4.908   1.972   0.634 -1.2821  3.1431 -0.7468
   20CHTO   O27 8299   5.093   1.603   0.719  0.0994 -0.4648 -0.4273
   20CHTO   C37 8300   5.022   1.549   0.608 -0.2701  0.1161  0.3313
   20CHTO   H79 8301   4.924   1.508   0.637 -0.6243 -0.8463 -2.1297
   20CHTO   C38 8302   4.995   1.663   0.504  0.1408 -0.7899 -0.6714
   20CHTO   H80 8303   5.081   1.731   0.495 -0.2801  0.0671  1.5358
   20CHTO   O31 8304   4.886   1.737   0.559 -0.3363  0.5495 -0.4143
   20CHTO   H68 8305   4.811   1.683   0.573  1.2148 -1.4714  0.3134
   20CHTO   C39 8306   4.945   1.598   0.370  0.2116  0.2459 -0.2035
   20CHTO   H81 8307   4.849   1.552   0.395 -1.2772  2.0113 -2.4108
   20CHTO    N7 8308   4.924   1.705   0.264 -0.3408 -0.4003  0.0259
   20CHTO   H73 8309   4.999   1.781   0.276 -1.0848  0.1533  1.3128
   20CHTO   H74 8310   4.912   1.665   0.164  1.1491  2.0934 -1.1948
   20CHTO   C40 8311   5.037   1.481   0.317 -0.1691  0.5388  0.9159
   20CHTO   H82 8312   5.135   1.524   0.296  0.4411 -0.2042  2.1798
   20CHTO   O26 8313   5.048   1.380   0.422  0.0360  0.1066 -0.2325
   20CHTO   C41 8314   5.110   1.433   0.542  0.0702  0.4188  0.1572
   20CHTO   H83 8315   5.205   1.477   0.510 -0.9599  0.5912 -2.8277
   20CHTO   C52 8316   5.131   1.313   0.649 -0.2005  0.2635  0.4274
   20CHTO   O35 8317   5.000   1.267   0.693 -0.2863 -0.1387  0.4816
   20CHTO   H71 8318   4.947   1.267   0.617  1.4496 -0.8913 -0.7633
   20CHTO   O28 8319   4.993   1.417   0.195  0.0247  0.6510  0.5957
   20CHTO   C42 8320   5.081   1.321   0.122 -0.5284  0.5423 -0.0614
   20CHTO   H84 8321   5.027   1.311   0.028 -1.4934 -0.5094  0.5952
   20CHTO   C44 8322   5.094   1.179   0.185 -0.0173  0.4253  0.0339
   20CHTO   H86 8323   5.150   1.190   0.278 -1.5842  0.5319  0.9863
   20CHTO   O32 8324   4.961   1.130   0.198 -0.4295 -0.1080  0.4938
   20CHTO   H69 8325   4.954   1.103   0.288  0.0358  1.3715  0.9835
   20CHTO   C48 8326   5.183   1.085   0.091  0.6162 -0.8811  0.0328
   20CHTO   H90 8327   5.131   1.060  -0.002  0.8259 -0.4463 -0.2024
   20CHTO    N9 8328   5.215   0.952   0.152 -0.1892  0.0321 -0.5139
   20CHTO   H77 8329   5.321   0.934   0.142 -0.3444 -1.1983  0.0255
   20CHTO   H78 8330   5.195   0.966   0.257 -0.5384  0.1512 -0.5962
   20CHTO   C51 8331   5.314   1.165   0.057  0.5634  0.0475 -0.0694
   20CHTO   H93 8332   5.374   1.171   0.148 -1.1886 -4.0055  1.4799
   20CHTO   O30 8333   5.285   1.294   0.003 -0.1594  0.2362  0.3036
   20CHTO   C46 8334   5.218   1.379   0.090  0.4147  0.4741  0.3945
   20CHTO   H88 8335   5.273   1.388   0.183  0.6729  0.3489  0.2532
   20CHTO   C53 8336   5.220   1.525   0.026  0.8803 -0.4535 -0.0698
   20CHTO   O72 8337   5.357   1.560  -0.019 -0.5329 -0.5855 -0.0649
   20CHTO  H199 8338   5.423   1.514   0.029 -1.1023  1.4448  2.7924
   20CHTO   O22 8339   5.391   1.087  -0.035 -0.1913 -0.0235 -0.0387
   20CHTO   C31 8340   5.531   1.118  -0.069 -0.5467  0.4084 -0.1619
   20CHTO   H59 8341   5.544   1.073  -0.170 -0.6685  0.5454 -0.2397
   20CHTO   C29 8342   5.568   1.265  -0.099  0.1298 -0.1598 -0.8198
   20CHTO   H57 8343   5.525   1.316  -0.011 -1.7385 -1.4015 -0.9784
   20CHTO   O21 8344   5.492   1.307  -0.215  0.0134 -0.1630 -0.6270
   20CHTO   H37 8345   5.408   1.340  -0.190  0.0864 -1.1832  1.0080
   20CHTO   C27 8346   5.724   1.300  -0.105  0.4338 -0.0693 -0.4268
   20CHTO   H55 8347   5.763   1.264  -0.202  0.8842 -1.3095  0.2078
   20CHTO    N5 8348   5.756   1.445  -0.100 -0.1680  0.2137 -0.0479
   20CHTO   H43 8349   5.748   1.486  -0.001  0.4329  1.7625 -0.6274
   20CHTO   H44 8350   5.689   1.495  -0.168 -0.7737 -0.4169  0.0750
   20CHTO   C25 8351   5.801   1.220   0.005  0.1712  0.4131  0.0725
   20CHTO   H53 8352   5.774   1.258   0.105  0.2209 -2.1476  1.0897
   20CHTO   O17 8353   5.769   1.079  -0.002  0.3928  0.1314 -0.1649
   20CHTO   C32 8354   5.630   1.050   0.027  0.8269 -0.3268 -0.2431
   20CHTO   H60 8355   5.609   1.088   0.127  0.6287  0.9691 -0.7765
   20CHTO   C36 8356   5.614   0.890   0.023 -0.3760  0.1545  0.1152
   20CHTO   O25 8357   5.642   0.820  -0.099  0.4851 -0.4321 -0.2203
   20CHTO   H40 8358   5.732   0.801  -0.116  0.8713  0.3539  0.8563
   20CHTO   O15 8359   5.957   1.233  -0.015 -0.4153  0.2565 -0.4839
   20CHTO   C19 8360   6.057   1.174  -0.101  0.3224  0.0085  0.1148
   20CHTO   H47 8361   5.988   1.129  -0.174 -0.5969  1.6471 -0.0522
   20CHTO   C20 8362   6.144   1.278  -0.172  0.2137 -1.0886 -0.2269
   20CHTO   H48 8363   6.180   1.355  -0.103 -0.7454 -1.0175  0.2136
   20CHTO   O19 8364   6.061   1.340  -0.270  0.0152  0.3445 -0.5740
   20CHTO   H35 8365   6.111   1.406  -0.314 -0.6719 -0.0793 -2.0321
   20CHTO   C21 8366   6.273   1.214  -0.243 -0.2409 -0.5789  0.2433
   20CHTO   H49 8367   6.238   1.167  -0.335  0.2004 -0.9168  0.2461
   20CHTO    N4 8368   6.378   1.314  -0.269 -0.6420 -0.4577  0.2133
   20CHTO   H41 8369   6.420   1.293  -0.367  0.0787 -0.2367  0.4744
   20CHTO   H42 8370   6.344   1.416  -0.257 -1.0924 -0.7144  1.0800
   20CHTO   C22 8371   6.336   1.099  -0.164  0.5444 -0.3195 -0.2373
   20CHTO   H50 8372   6.376   1.139  -0.071 -0.6753  2.7282 -0.9497
   20CHTO   O14 8373   6.231   1.006  -0.127  0.1581  0.6096 -0.8513
   20CHTO   C23 8374   6.139   1.060  -0.033 -0.0572  0.7101 -0.1745
   20CHTO   H51 8375   6.175   1.089   0.067  1.2477  0.2687 -0.5149
   20CHTO   C34 8376   6.061   0.933   0.004 -0.5053 -0.3960  0.2610
   20CHTO   O23 8377   6.017   0.864  -0.111 -0.1013  0.2721  0.0599
   20CHTO   H38 8378   6.076   0.872  -0.183 -1.0019 -2.0273 -0.9747
   20CHTO   O16 8379   6.428   1.021  -0.241 -0.4500  0.5572  0.1373
   20CHTO   C24 8380   6.506   0.896  -0.145  0.3512 -0.2738 -0.6755
   20CHTO   H52 8381   6.462   0.889  -0.046  0.4240  0.3000 -0.5991
   20CHTO   C26 8382   6.653   0.939  -0.132  0.5388  0.4177 -0.4215
   20CHTO   H54 8383   6.695   0.956  -0.234 -0.7933 -0.0630 -1.0609
   20CHTO   O20 8384   6.672   1.064  -0.071  0.5762  0.5694 -0.2640
   20CHTO   H36 8385   6.764   1.085  -0.072  0.8961 -0.7380  0.6643
   20CHTO   C30 8386   6.734   0.821  -0.057 -0.3268 -0.9164  0.2446
   20CHTO   H58 8387   6.713   0.820   0.051 -0.2238 -1.2536  0.2624
   20CHTO    N6 8388   6.879   0.845  -0.064 -0.3246 -0.5046 -0.3615
   20CHTO   H45 8389   6.899   0.933  -0.004 -0.2407 -0.0724 -1.0212
   20CHTO   H46 8390   6.919   0.854  -0.163 -2.9780  0.1023 -1.4200
   20CHTO   C33 8391   6.700   0.680  -0.110 -0.7070  0.8246 -0.3321
   20CHTO   H61 8392   6.747   0.677  -0.210 -2.1442 -1.9641 -0.9798
   20CHTO   O18 8393   6.558   0.661  -0.128  0.3479 -0.6465 -0.1222
   20CHTO   C28 8394   6.500   0.759  -0.215  1.0474  0.4776 -0.0396
   20CHTO   H56 8395   6.545   0.770  -0.314 -0.3066 -1.1810 -0.8565
   20CHTO   C35 8396   6.356   0.709  -0.265 -0.1340  0.6431  0.4827
   20CHTO   O24 8397   6.258   0.687  -0.163  0.2209 -0.0369 -0.2488
   20CHTO   H39 8398   6.246   0.764  -0.111  0.5316 -0.6523  0.7578
   20CHTO    O9 8399   6.754   0.569  -0.036 -0.0516  0.0469  0.0609
   20CHTO   C13 8400   6.756   0.405  -0.085 -0.4142  0.3546  0.3975
   20CHTO   H26 8401   6.853   0.360  -0.054 -1.5739 -1.5720  1.3275
   20CHTO   C11 8402   6.719   0.372  -0.238 -0.1574  0.4203 -0.3367
   20CHTO   H24 8403   6.795   0.427  -0.296 -0.4038  0.2768 -0.8060
   20CHTO    O8 8404   6.588   0.420  -0.280 -0.0123 -0.3333  0.3111
   20CHTO    H3 8405   6.528   0.348  -0.287 -2.8838  1.9090  0.9117
   20CHTO    C9 8406   6.746   0.225  -0.250 -0.5699  0.1722  0.5087
   20CHTO   H22 8407   6.842   0.206  -0.199 -0.3073  2.6975  0.9824
   20CHTO    N2 8408   6.745   0.178  -0.394  0.0793  0.2262 -0.0856
   20CHTO   H10 8409   6.826   0.230  -0.443  1.3266 -1.0818  0.5342
   20CHTO   H11 8410   6.649   0.190  -0.443 -0.1586  1.1100  0.6023
   20CHTO    C7 8411   6.638   0.149  -0.169  0.2225  0.2914  0.2183
   20CHTO   H20 8412   6.673   0.044  -0.163 -1.0956 -0.1081  1.0500
   20CHTO    O4 8413   6.629   0.196  -0.034  0.1198 -0.3162  0.7156
   20CHTO   C14 8414   6.656   0.328   0.010  0.0740  0.1686  0.0729
   20CHTO   H27 8415   6.708   0.319   0.108  0.3403  0.1256 -0.0718
   20CHTO   C18 8416   6.523   0.391   0.051  0.2322 -0.3882  0.0630
   20CHTO   O13 8417   6.541   0.505   0.144  0.6863 -0.3056 -0.0745
   20CHTO    H7 8418   6.525   0.478   0.232 -1.3945  1.8752  0.2681
   20CHTO    O2 8419   6.489   0.149  -0.233  0.5912 -0.9493  0.1601
   20CHTO    C1 8420   6.399   0.046  -0.178 -0.1521  0.0184  0.6208
   20CHTO   H14 8421   6.396   0.061  -0.068  0.6345 -0.1206  0.6610
   20CHTO    C2 8422   6.428  -0.098  -0.210  1.0300  0.4945  0.7863
   20CHTO   H15 8423   6.456  -0.096  -0.316  0.7591  3.0766  0.7328
   20CHTO    O6 8424   6.537  -0.138  -0.135 -0.5656  0.0040  0.4823
   20CHTO    H1 8425   6.601  -0.071  -0.150  0.2720 -1.0302 -0.6766
   20CHTO    C3 8426   6.303  -0.199  -0.188 -0.0316 -0.3310 -0.2859
   20CHTO   H16 8427   6.282  -0.217  -0.081  0.4474 -0.0836 -0.1484
   20CHTO    N1 8428   6.327  -0.332  -0.238 -0.0198  0.7346  0.3462
   20CHTO    H8 8429   6.374  -0.323  -0.335 -0.2431 -0.8374  0.0830
   20CHTO    H9 8430   6.241  -0.397  -0.247  0.3847  0.4780 -2.2781
   20CHTO    C4 8431   6.170  -0.139  -0.235  0.3235  0.2922  0.1106
   20CHTO   H17 8432   6.173  -0.140  -0.344 -0.6819 -0.6929  0.0834
   20CHTO    O1 8433   6.161  -0.009  -0.177  0.6200  0.4980 -0.3172
   20CHTO    C5 8434   6.257   0.085  -0.225  0.5534  0.4227 -0.1715
   20CHTO   H18 8435   6.258   0.083  -0.334  1.7245 -0.8236 -0.1509
   20CHTO   C16 8436   6.213   0.233  -0.173 -0.0355  0.7009  0.1056
   20CHTO   O11 8437   6.276   0.341  -0.253  0.6412 -0.0458  0.0868
   20CHTO    H5 8438   6.233   0.351  -0.335 -0.4766  0.3444  0.7212
   20CHTO    O3 8439   6.051  -0.207  -0.180  0.2882  0.0001  0.3444
   20CHTO    C6 8440   5.936  -0.191  -0.268  0.4188 -0.0526 -0.1420
   20CHTO   H19 8441   5.949  -0.105  -0.334 -0.7518  1.2304  1.2695
   20CHTO    C8 8442   5.920  -0.319  -0.354 -0.8702 -0.4073  0.1879
   20CHTO   H21 8443   5.940  -0.405  -0.290 -0.9121 -0.8353 -0.3653
   20CHTO    O7 8444   6.009  -0.310  -0.467  0.0622 -0.4795 -1.0943
   20CHTO    H2 8445   6.101  -0.308  -0.451  0.0128  0.3072 -0.8679
   20CHTO   C12 8446   5.775  -0.335  -0.410 -0.3623  0.1753  0.3060
   20CHTO   H25 8447   5.768  -0.261  -0.492 -2.4211  0.2634  0.5469
   20CHTO    N3 8448   5.761  -0.472  -0.479  0.2123 -0.1561  0.1633
   20CHTO   H12 8449   5.788  -0.554  -0.414 -0.3370 -1.3305 -1.0625
   20CHTO   H13 8450   5.659  -0.488  -0.512  0.6937 -1.8456 -0.5450
   20CHTO   C15 8451   5.671  -0.300  -0.303  0.6224  0.0282 -0.1997
   20CHTO   H28 8452   5.657  -0.374  -0.224  2.7850 -0.4383 -0.2232
   20CHTO   O10 8453   5.533  -0.280  -0.358 -0.3126  0.5998 -0.0559
   20CHTO    H4 8454   5.493  -0.363  -0.377  0.7000  0.0998 -0.0610
   20CHTO    O5 8455   5.690  -0.167  -0.253  0.3080  0.2038 -0.0141
   20CHTO   C10 8456   5.811  -0.158  -0.178  0.0710  0.3387  0.4692
   20CHTO   H23 8457   5.807  -0.235  -0.101  2.7738 -0.4297 -0.1215
   20CHTO   C17 8458   5.824  -0.021  -0.105 -0.3383 -0.1169 -0.1388
   20CHTO   O12 8459   5.723  -0.007  -0.006  0.0510 -0.5953  0.1270
   20CHTO    H6 8460   5.643   0.005  -0.052  0.1891 -0.0249  0.0372
   21GLOH   H03 8461   3.802   4.158   2.485  0.7536 -0.5869  1.6622
   21GLOH    O1 8462   3.875   4.150   2.422 -0.3798 -0.1353  0.2564
   21GLOH    C1 8463   3.982   4.197   2.499  0.3828 -0.3544 -0.1396
   21GLOH   H02 8464   4.016   4.110   2.555  1.1044 -0.9112 -1.4246
   21GLOH   H08 8465   3.953   4.268   2.576  0.2603 -1.1311  0.5371
   21GLOH    C2 8466   4.101   4.250   2.427  0.3631  0.0272 -0.4722
   21GLOH   H04 8467   4.080   4.357   2.413  1.5389  0.5828  1.7263
   21GLOH    O2 8468   4.224   4.241   2.499 -0.1566  0.3492 -0.0962
   21GLOH   H05 8469   4.226   4.269   2.592 -1.2096 -0.1333  0.0779
   21GLOH    C3 8470   4.124   4.188   2.292  0.0459 -0.3584 -0.0834
   21GLOH   H06 8471   4.168   4.089   2.305 -0.9179 -0.3130  4.6072
   21GLOH   H07 8472   4.204   4.249   2.251  0.3114 -0.2642  0.5676
   21GLOH    O3 8473   4.005   4.193   2.206 -0.3059  1.1269  0.1425
   21GLOH   H01 8474   3.939   4.171   2.274  2.3906 -2.8296  1.6922
   22GLOH   H03 8475   3.242   7.758   0.354  0.0775  0.4564  0.4147
   22GLOH    O1 8476   3.299   7.785   0.280 -0.1291  0.6863  0.3402
   22GLOH    C1 8477   3.217   7.880   0.202  0.0371 -0.9377 -0.4304
   22GLOH   H02 8478   3.155   7.947   0.261 -0.8562 -1.7781 -0.4154
   22GLOH   H08 8479   3.150   7.821   0.140 -0.1806 -3.1407  1.8073
   22GLOH    C2 8480   3.314   7.972   0.123  0.7990 -0.3753  0.3879
   22GLOH   H04 8481   3.396   7.913   0.079  0.9051 -0.7669  1.0945
   22GLOH    O2 8482   3.241   8.034   0.016 -0.1118  0.1222  0.2417
   22GLOH   H05 8483   3.237   7.976  -0.062  1.1961  0.6071 -0.2014
   22GLOH    C3 8484   3.363   8.078   0.223 -0.2729 -0.4268  0.3165
   22GLOH   H06 8485   3.358   8.039   0.325  4.0306  0.8299  1.1249
   22GLOH   H07 8486   3.298   8.166   0.214  1.4714  0.8698  0.1300
   22GLOH    O3 8487   3.488   8.133   0.199 -0.5191 -0.7101 -0.1143
   22GLOH   H01 8488   3.558   8.065   0.199  2.0961  1.9093  1.0850
   23GLOH   H03 8489   3.921   4.984   2.449  0.4317  1.9212 -0.5899
   23GLOH    O1 8490   3.833   4.996   2.409  0.3148  1.1091 -0.5959
   23GLOH    C1 8491   3.826   4.897   2.305  0.4591  0.6546 -0.5454
   23GLOH   H02 8492   3.763   4.812   2.333  0.6691  0.9346  0.8107
   23GLOH   H08 8493   3.924   4.855   2.284  0.8150 -0.0010  2.2021
   23GLOH    C2 8494   3.777   4.962   2.181 -0.1444 -0.4278 -0.3334
   23GLOH   H04 8495   3.819   5.063   2.172 -1.1483  0.0540  0.2611
   23GLOH    O2 8496   3.808   4.880   2.071 -0.4323 -0.3215  0.3711
   23GLOH   H05 8497   3.771   4.921   1.990 -2.8085 -1.8712  0.6066
   23GLOH    C3 8498   3.625   4.977   2.200  0.0656 -0.2642 -0.5926
   23GLOH   H06 8499   3.607   5.038   2.289 -1.5191 -2.6541  0.7877
   23GLOH   H07 8500   3.575   4.882   2.220 -2.1368  1.1280  0.7824
   23GLOH    O3 8501   3.570   5.057   2.096  0.7832  0.3861  0.3135
   23GLOH   H01 8502   3.646   5.099   2.053  0.8189 -2.6339 -2.7613
   24GLOH   H03 8503   9.532   4.775   2.375  0.4434  1.0491  2.6137
   24GLOH    O1 8504   9.612   4.723   2.398  0.1329 -0.4495  0.4399
   24GLOH    C1 8505   9.570   4.589   2.413  0.9139 -0.1188 -0.2685
   24GLOH   H02 8506   9.525   4.560   2.318  2.0241  0.4294 -0.9794
   24GLOH   H08 8507   9.487   4.591   2.483  0.0133  0.7309 -1.3417
   24GLOH    C2 8508   9.685   4.493   2.457  0.0235  0.1168  0.0617
   24GLOH   H04 8509   9.757   4.534   2.530  0.6965 -0.5146 -0.2413
   24GLOH    O2 8510   9.640   4.367   2.507 -0.0764  0.3438  0.0195
   24GLOH   H05 8511   9.694   4.342   2.584  0.5809  0.1856 -0.4936
   24GLOH    C3 8512   9.756   4.464   2.327  0.1435  0.2315  0.8489
   24GLOH   H06 8513   9.694   4.409   2.255 -0.2778 -0.8638  2.0224
   24GLOH   H07 8514   9.837   4.397   2.355  2.2555  2.7930  1.0339
   24GLOH    O3 8515   9.801   4.591   2.273  0.2433 -0.3222 -0.1524
   24GLOH   H01 8516   9.720   4.643   2.254  1.7675  2.0366 -0.3065
   25GLOH   H03 8517   1.239   6.505   0.691  3.0194  2.5184 -3.2939
   25GLOH    O1 8518   1.252   6.565   0.767 -0.1582  0.2128 -0.8252
   25GLOH    C1 8519   1.234   6.704   0.724 -0.4138 -0.2782 -0.2400
   25GLOH   H02 8520   1.139   6.734   0.769  0.0780  0.8603  0.0452
   25GLOH   H08 8521   1.223   6.703   0.615 -0.5123  0.0980 -0.2325
   25GLOH    C2 8522   1.355   6.806   0.744  1.2325 -0.3080 -0.0851
   25GLOH   H04 8523   1.326   6.910   0.723  2.6121  0.6963  2.6957
   25GLOH    O2 8524   1.391   6.802   0.879 -0.1707 -0.0078  0.5253
   25GLOH   H05 8525   1.419   6.892   0.903  0.7158 -0.5310  1.4833
   25GLOH    C3 8526   1.477   6.758   0.659 -0.3754  0.5541 -0.2454
   25GLOH   H06 8527   1.501   6.654   0.683  1.0817  0.6497 -1.2557
   25GLOH   H07 8528   1.566   6.815   0.684 -0.1421  0.0620  0.0560
   25GLOH    O3 8529   1.455   6.770   0.520  0.6296 -0.7303  0.7886
   25GLOH   H01 8530   1.485   6.859   0.492 -1.6134 -0.8094 -2.0913
   26GLOH   H03 8531   0.882   4.752   2.143  3.7400 -0.7865 -1.6246
   26GLOH    O1 8532   0.910   4.840   2.111  0.2196  0.7985 -0.5262
   26GLOH    C1 8533   0.845   4.951   2.176  0.4299 -0.5201 -0.1188
   26GLOH   H02 8534   0.761   4.981   2.114 -0.2932  0.4357  1.2964
   26GLOH   H08 8535   0.917   5.032   2.180  0.7864 -0.9133  2.1449
   26GLOH    C2 8536   0.796   4.930   2.315 -0.5458 -0.1053 -0.0897
   26GLOH   H04 8537   0.740   5.012   2.361 -2.0032  0.3954 -2.6769
   26GLOH    O2 8538   0.709   4.815   2.324  0.4208  0.3504  0.3019
   26GLOH   H05 8539   0.654   4.811   2.404 -0.9313 -1.5724 -0.6583
   26GLOH    C3 8540   0.925   4.904   2.400  0.8198  0.6153  0.1179
   26GLOH   H06 8541   0.970   4.816   2.355  2.2104  1.4250 -0.0842
   26GLOH   H07 8542   0.895   4.870   2.499 -0.7391 -3.6893 -1.6917
   26GLOH    O3 8543   1.009   5.015   2.421 -0.2793 -0.4663  0.3030
   26GLOH   H01 8544   1.086   5.016   2.361 -2.2264 -1.6711 -2.3152
   27GLOH   H03 8545   2.406   7.507   0.290 -0.3852 -0.5250  0.2719
   27GLOH    O1 8546   2.347   7.582   0.306  0.2279  0.0490 -0.1459
   27GLOH    C1 8547   2.334   7.656   0.185 -0.1823 -0.0752  1.0549
   27GLOH   H02 8548   2.299   7.592   0.104 -1.9343  1.1892  0.7845
   27GLOH   H08 8549   2.435   7.683   0.154  0.6823 -3.1393  1.0868
   27GLOH    C2 8550   2.249   7.786   0.185 -0.1123 -0.6704 -0.4494
   27GLOH   H04 8551   2.231   7.821   0.082  1.6654 -1.6968 -1.1371
   27GLOH    O2 8552   2.117   7.763   0.240  0.3502 -0.4836  0.7859
   27GLOH   H05 8553   2.053   7.788   0.172  0.3969  1.7061  1.4998
   27GLOH    C3 8554   2.332   7.898   0.254  0.2607 -0.2284  0.5703
   27GLOH   H06 8555   2.349   7.874   0.359  0.8079 -1.5839  0.1841
   27GLOH   H07 8556   2.261   7.980   0.262  0.3213 -0.1079 -0.0765
   27GLOH    O3 8557   2.452   7.931   0.184  0.1401  0.2154  0.6576
   27GLOH   H01 8558   2.450   8.025   0.157 -0.0679 -0.2426 -0.9359
   28GLOH   H03 8559   2.495   2.000   2.494 -0.0897  1.4064 -0.3892
   28GLOH    O1 8560   2.471   2.054   2.571 -0.7750 -0.3924  0.6796
   28GLOH    C1 8561   2.571   2.026   2.671  0.2447 -0.7291 -0.1613
   28GLOH   H02 8562   2.596   1.921   2.662  3.7213  0.1415 -1.7594
   28GLOH   H08 8563   2.528   2.037   2.771 -2.8442  0.7990 -1.5886
   28GLOH    C2 8564   2.697   2.108   2.647 -0.2946 -0.1672  0.4956
   28GLOH   H04 8565   2.665   2.211   2.624  1.2644  0.3601  0.6406
   28GLOH    O2 8566   2.774   2.107   2.775  0.3565  0.0158  1.1300
   28GLOH   H05 8567   2.748   2.187   2.825 -0.6452 -0.0349  0.7057
   28GLOH    C3 8568   2.792   2.051   2.533 -0.4132  0.2457  1.0224
   28GLOH   H06 8569   2.726   2.017   2.453  0.4192  2.8323 -0.8450
   28GLOH   H07 8570   2.842   1.962   2.570 -1.0843 -0.3893  0.3979
   28GLOH    O3 8571   2.889   2.128   2.465  0.3571  0.1789 -0.0126
   28GLOH   H01 8572   2.892   2.217   2.504  1.4522 -0.2677  0.9494
   29GLOH   H03 8573   2.621   5.129   0.498 -0.2584  1.3840 -2.6567
   29GLOH    O1 8574   2.581   5.202   0.548  0.8582  0.0189  0.3717
   29GLOH    C1 8575   2.519   5.155   0.669 -0.3925 -0.1206 -0.1061
   29GLOH   H02 8576   2.594   5.125   0.743 -0.3514 -1.5963 -0.7489
   29GLOH   H08 8577   2.447   5.076   0.650  1.1689 -1.5309 -0.3121
   29GLOH    C2 8578   2.444   5.279   0.734 -0.9642  0.0922 -0.8564
   29GLOH   H04 8579   2.498   5.374   0.720  0.7950 -0.6731  0.5790
   29GLOH    O2 8580   2.316   5.301   0.670 -0.1684  0.2178  0.6759
   29GLOH   H05 8581   2.302   5.398   0.667 -0.0155  0.2672  1.4859
   29GLOH    C3 8582   2.408   5.264   0.884  0.4139  0.5609 -0.2224
   29GLOH   H06 8583   2.343   5.179   0.904  0.3197  0.9110  1.0083
   29GLOH   H07 8584   2.362   5.354   0.924 -1.4975 -1.1382  1.5550
   29GLOH    O3 8585   2.530   5.245   0.954  0.0909 -0.4401  0.2072
   29GLOH   H01 8586   2.509   5.195   1.035  0.0703 -0.4258  0.2108
   30GLOH   H03 8587   3.332   7.327   1.052  0.7449 -0.8659  0.3991
   30GLOH    O1 8588   3.378   7.329   0.965 -0.0640 -0.6330 -0.0288
   30GLOH    C1 8589   3.520   7.335   0.997 -0.0989  0.2030 -0.7669
   30GLOH   H02 8590   3.582   7.254   0.959 -2.7400 -1.8124 -0.9530
   30GLOH   H08 8591   3.535   7.335   1.105  0.8569  1.7523 -0.8931
   30GLOH    C2 8592   3.572   7.472   0.947 -0.0241  1.1326 -0.4562
   30GLOH   H04 8593   3.682   7.473   0.941  0.1124 -0.4496  1.2946
   30GLOH    O2 8594   3.521   7.488   0.817 -0.4355  0.2649 -0.2000
   30GLOH   H05 8595   3.454   7.418   0.813 -1.5999  1.3875 -0.7733
   30GLOH    C3 8596   3.528   7.588   1.027 -0.4113  0.7949  0.6945
   30GLOH   H06 8597   3.422   7.574   1.048 -0.7465 -0.4620 -1.6102
   30GLOH   H07 8598   3.548   7.683   0.978 -0.2037  1.4904  2.1157
   30GLOH    O3 8599   3.593   7.596   1.156  0.1230 -0.6064  0.1581
   30GLOH   H01 8600   3.524   7.609   1.223  0.5768 -0.6355  0.6259
   31GLOH   H03 8601   2.505   2.069   2.017  2.3181  0.0747 -0.7133
   31GLOH    O1 8602   2.512   2.164   1.998  0.2844  0.4409  0.1668
   31GLOH    C1 8603   2.594   2.173   1.883  0.4334 -0.3055  0.2933
   31GLOH   H02 8604   2.529   2.160   1.796 -1.4673  2.6242  1.1984
   31GLOH   H08 8605   2.669   2.093   1.887  0.8726  0.0697 -0.3237
   31GLOH    C2 8606   2.671   2.308   1.864  0.0154  0.0356 -0.0501
   31GLOH   H04 8607   2.768   2.308   1.916 -1.1657 -2.2810  2.2321
   31GLOH    O2 8608   2.702   2.332   1.725  0.1675  0.7958  0.1245
   31GLOH   H05 8609   2.781   2.389   1.715  0.2873  0.3258 -1.7965
   31GLOH    C3 8610   2.589   2.421   1.926 -0.0331 -0.1075 -0.1428
   31GLOH   H06 8611   2.489   2.411   1.883  0.8779 -0.2123 -2.2665
   31GLOH   H07 8612   2.623   2.517   1.887  0.3191 -0.1491  0.0629
   31GLOH    O3 8613   2.593   2.418   2.072 -0.0379  0.2632 -0.1826
   31GLOH   H01 8614   2.544   2.341   2.106 -1.6779  0.0873 -2.8277
   32GLOH   H03 8615   1.293   2.167   2.118 -0.3045 -1.0120  0.5045
   32GLOH    O1 8616   1.204   2.197   2.142 -0.2002 -0.1154 -0.2311
   32GLOH    C1 8617   1.147   2.250   2.018  0.6180  0.2915 -0.8828
   32GLOH   H02 8618   1.202   2.341   1.996  1.1287  0.4628  1.0032
   32GLOH   H08 8619   1.042   2.278   2.025  0.6781  0.2910  0.0707
   32GLOH    C2 8620   1.162   2.159   1.892  0.2028 -0.4886 -0.1312
   32GLOH   H04 8621   1.266   2.127   1.876 -0.1757 -1.2308 -1.1734
   32GLOH    O2 8622   1.105   2.030   1.918  0.7483 -0.5372  0.3365
   32GLOH   H05 8623   1.018   2.029   1.962  2.1324  3.6494  3.5124
   32GLOH    C3 8624   1.122   2.208   1.752  0.2652 -0.0341 -0.6553
   32GLOH   H06 8625   1.140   2.123   1.687  0.5464 -0.9318  0.5766
   32GLOH   H07 8626   1.199   2.282   1.731  0.9478 -0.4056  0.5101
   32GLOH    O3 8627   0.987   2.252   1.752 -0.1072 -0.1940  0.2716
   32GLOH   H01 8628   0.939   2.205   1.681 -0.0352 -0.2389  0.2528
   33GLOH   H03 8629   1.819   7.317   1.465 -0.7527  2.3928 -0.1302
   33GLOH    O1 8630   1.854   7.319   1.556  0.3341 -0.3235 -0.4481
   33GLOH    C1 8631   1.979   7.397   1.555  0.1111  0.0170  0.2879
   33GLOH   H02 8632   2.009   7.430   1.654  2.8113 -1.2126 -0.0840
   33GLOH   H08 8633   1.956   7.491   1.504  0.3703  1.6116  3.0029
   33GLOH    C2 8634   2.096   7.326   1.484 -0.3689  0.1800  0.0065
   33GLOH   H04 8635   2.061   7.279   1.391 -0.3657 -0.6677  0.4364
   33GLOH    O2 8636   2.209   7.420   1.484  0.4400 -0.2412  0.0918
   33GLOH   H05 8637   2.189   7.508   1.449 -1.1290 -1.0822 -1.2060
   33GLOH    C3 8638   2.140   7.206   1.559 -0.4914 -0.1426  0.2333
   33GLOH   H06 8639   2.053   7.142   1.571 -0.2339 -0.1406  2.2315
   33GLOH   H07 8640   2.183   7.227   1.657  0.1052  2.5935 -0.5731
   33GLOH    O3 8641   2.249   7.141   1.490  0.2581 -0.5741  0.2547
   33GLOH   H01 8642   2.243   7.162   1.395  1.5530  0.3918  0.3743
   34GLOH   H03 8643   1.938   0.755   1.890  2.4661 -2.2412  0.6884
   34GLOH    O1 8644   1.864   0.699   1.859  0.2940  0.5376  0.6232
   34GLOH    C1 8645   1.843   0.723   1.713 -0.4410 -0.3251 -0.3492
   34GLOH   H02 8646   1.783   0.639   1.678 -1.6582 -1.1949  3.5596
   34GLOH   H08 8647   1.940   0.732   1.663  0.5859  0.6300  1.7434
   34GLOH    C2 8648   1.763   0.846   1.695  0.8150  0.1600 -0.0484
   34GLOH   H04 8649   1.819   0.933   1.732 -2.0779  1.7543  0.7445
   34GLOH    O2 8650   1.736   0.866   1.550  0.4430 -0.0993 -0.2302
   34GLOH   H05 8651   1.816   0.872   1.495 -1.0344 -0.3576 -2.4621
   34GLOH    C3 8652   1.634   0.834   1.775 -0.2387  0.0664 -0.4675
   34GLOH   H06 8653   1.597   0.738   1.740 -0.0458 -0.2993  0.3134
   34GLOH   H07 8654   1.574   0.918   1.741  1.9597  2.1884  0.6905
   34GLOH    O3 8655   1.658   0.831   1.923 -0.3441  0.7424  0.6012
   34GLOH   H01 8656   1.741   0.781   1.932  0.1000  1.4389  0.4531
   35GLOH   H03 8657   2.677   0.723   0.095  0.8505  0.5234  2.5769
   35GLOH    O1 8658   2.755   0.757   0.046 -0.2807 -0.4944 -0.0344
   35GLOH    C1 8659   2.879   0.691   0.091 -0.0638  0.3285  0.4052
   35GLOH   H02 8660   2.851   0.587   0.106  2.2037 -0.7393 -2.3536
   35GLOH   H08 8661   2.895   0.733   0.191 -0.8497  1.7254 -0.0389
   35GLOH    C2 8662   3.002   0.711   0.000  0.2210 -1.1450  0.4943
   35GLOH   H04 8663   3.090   0.686   0.060 -1.0489 -1.5969  2.2164
   35GLOH    O2 8664   2.988   0.625  -0.116  0.1351 -0.4336  0.2445
   35GLOH   H05 8665   2.978   0.682  -0.195  2.1288  0.8977  0.9069
   35GLOH    C3 8666   2.984   0.861  -0.044  0.0380  0.4584  0.1806
   35GLOH   H06 8667   2.941   0.920   0.037  0.2236 -0.2387  0.7933
   35GLOH   H07 8668   2.909   0.863  -0.123  1.2184 -2.3893 -1.0825
   35GLOH    O3 8669   3.111   0.915  -0.092  0.0996  0.5595 -0.2157
   35GLOH   H01 8670   3.109   1.007  -0.124 -2.4950  0.2489 -1.0846
   36GLOH   H03 8671   9.447   4.118   0.397 -0.8862  0.7634 -0.3689
   36GLOH    O1 8672   9.472   4.038   0.348  0.1569  0.1924  1.0540
   36GLOH    C1 8673   9.356   3.951   0.332  0.2999  0.0196 -0.0740
   36GLOH   H02 8674   9.367   3.885   0.246  0.0056  3.3924 -2.8169
   36GLOH   H08 8675   9.282   4.023   0.298  0.6334  0.8862  0.9725
   36GLOH    C2 8676   9.305   3.876   0.453 -0.1519 -0.2177  0.2740
   36GLOH   H04 8677   9.394   3.826   0.493 -0.5343 -1.9901 -1.0382
   36GLOH    O2 8678   9.247   3.955   0.562 -0.3351 -0.2298 -0.0226
   36GLOH   H05 8679   9.252   3.917   0.651 -2.6200 -1.6687 -0.4865
   36GLOH    C3 8680   9.197   3.779   0.408 -0.6934  0.1196  0.3176
   36GLOH   H06 8681   9.235   3.714   0.329 -0.8683  0.7574 -0.3086
   36GLOH   H07 8682   9.119   3.837   0.357  0.3540  0.5845 -0.7769
   36GLOH    O3 8683   9.139   3.706   0.515 -0.5879  0.3153  0.2584
   36GLOH   H01 8684   9.079   3.638   0.477 -2.9726  1.9425  1.0368
   37GLOH   H03 8685   2.779   5.456   2.605 -0.4062  0.4120  0.0428
   37GLOH    O1 8686   2.831   5.524   2.651  0.5665 -0.3686  0.1246
   37GLOH    C1 8687   2.921   5.458   2.741  0.2329  0.1871  0.6078
   37GLOH   H02 8688   2.878   5.370   2.789  0.3566  0.9723  2.1901
   37GLOH   H08 8689   2.931   5.530   2.822 -2.2249  1.0832  0.1798
   37GLOH    C2 8690   3.060   5.433   2.686  0.1492  0.6853  0.1560
   37GLOH   H04 8691   3.105   5.524   2.644  0.6807  0.6197  0.5797
   37GLOH    O2 8692   3.140   5.384   2.794 -0.3112 -0.3768 -0.1043
   37GLOH   H05 8693   3.172   5.296   2.767  2.5975  0.6436 -0.1941
   37GLOH    C3 8694   3.045   5.324   2.571 -0.0875  0.6769 -0.3955
   37GLOH   H06 8695   3.134   5.327   2.508  0.6504 -1.8233  0.4710
   37GLOH   H07 8696   2.974   5.358   2.496  2.3092  2.0066 -2.1499
   37GLOH    O3 8697   3.034   5.192   2.615  0.2725 -0.5971 -0.0351
   37GLOH   H01 8698   2.940   5.183   2.639 -0.3421  3.7632 -0.5009
   38GLOH   H03 8699   1.819   6.809   0.290 -0.4679 -0.1461  0.0475
   38GLOH    O1 8700   1.755   6.845   0.226 -0.0695  0.3622 -0.0576
   38GLOH    C1 8701   1.738   6.758   0.112 -0.1943  0.2593  0.5031
   38GLOH   H02 8702   1.736   6.657   0.152  0.0930  0.7422  1.7526
   38GLOH   H08 8703   1.825   6.760   0.045 -0.7876  0.9819 -0.2593
   38GLOH    C2 8704   1.613   6.799   0.035 -0.3758 -0.0720  0.5244
   38GLOH   H04 8705   1.621   6.904   0.005 -0.7833  0.1310  1.1329
   38GLOH    O2 8706   1.587   6.719  -0.088 -0.0421  0.1406  0.0194
   38GLOH   H05 8707   1.545   6.632  -0.075 -0.6566  0.1858 -1.5634
   38GLOH    C3 8708   1.491   6.792   0.126  0.0741 -0.1585  0.0388
   38GLOH   H06 8709   1.502   6.705   0.190 -0.9577 -0.2466  0.0918
   38GLOH   H07 8710   1.400   6.793   0.067 -0.1473  0.2738  0.3862
   38GLOH    O3 8711   1.509   6.909   0.206  0.4223  0.2025 -0.1976
   38GLOH   H01 8712   1.605   6.914   0.217  0.5577 -0.4037 -1.0319
   39GLOH   H03 8713   2.360   5.870   2.081 -0.7614  0.1756  0.9624
   39GLOH    O1 8714   2.421   5.944   2.096  0.3558 -0.4841 -0.2388
   39GLOH    C1 8715   2.397   6.028   2.212 -0.7945  0.2140 -0.8761
   39GLOH   H02 8716   2.409   5.967   2.302  1.6282 -1.4255 -2.2664
   39GLOH   H08 8717   2.299   6.076   2.209  0.3497  2.6400 -0.9663
   39GLOH    C2 8718   2.494   6.146   2.236 -0.0797  0.8674  0.7309
   39GLOH   H04 8719   2.514   6.191   2.138  1.7878  2.3007  1.7576
   39GLOH    O2 8720   2.444   6.249   2.326  0.1999  0.4998 -0.2095
   39GLOH   H05 8721   2.352   6.270   2.302 -0.5594 -0.9159  1.3281
   39GLOH    C3 8722   2.627   6.089   2.276 -0.1953  0.1496 -0.0962
   39GLOH   H06 8723   2.607   6.031   2.367  0.2142  0.1359 -0.0173
   39GLOH   H07 8724   2.692   6.172   2.302 -0.4701  0.4855 -0.4704
   39GLOH    O3 8725   2.684   6.011   2.168  0.0025  0.3081 -0.6802
   39GLOH   H01 8726   2.609   5.974   2.118  1.7675 -1.7963 -1.8346
   40GLOH   H03 8727   4.486   3.830   2.766 -2.6053 -1.7209 -1.8546
   40GLOH    O1 8728   4.463   3.820   2.860  0.2375  0.2186 -0.8731
   40GLOH    C1 8729   4.578   3.820   2.943  0.5983  0.0054  1.1977
   40GLOH   H02 8730   4.585   3.920   2.985 -0.0452  0.5520  0.0215
   40GLOH   H08 8731   4.660   3.784   2.881 -1.6435 -0.4410 -1.6146
   40GLOH    C2 8732   4.548   3.725   3.056  0.0642 -0.1881  0.2113
   40GLOH   H04 8733   4.477   3.767   3.128 -1.2892 -3.4324  0.8805
   40GLOH    O2 8734   4.512   3.601   2.997 -0.0893 -0.1739  0.4279
   40GLOH   H05 8735   4.417   3.584   3.006  0.1551 -1.6005  0.4425
   40GLOH    C3 8736   4.681   3.700   3.128 -0.6599 -0.0509  0.2262
   40GLOH   H06 8737   4.754   3.662   3.057 -1.1945 -0.2675 -0.2167
   40GLOH   H07 8738   4.670   3.631   3.211 -3.5242  0.5977  0.4563
   40GLOH    O3 8739   4.717   3.829   3.180  0.0378 -0.9319 -0.0174
   40GLOH   H01 8740   4.771   3.809   3.259 -0.6206  0.6837  0.8706
   41GLOH   H03 8741   2.543   7.116   0.246  2.3187 -1.5976 -0.2048
   41GLOH    O1 8742   2.578   7.186   0.188  0.1576 -0.0338  0.3445
   41GLOH    C1 8743   2.625   7.122   0.071 -0.6927  0.1452 -0.3074
   41GLOH   H02 8744   2.658   7.022   0.100 -1.5146  0.3461  1.3634
   41GLOH   H08 8745   2.713   7.177   0.035 -0.0262  0.6985  2.0772
   41GLOH    C2 8746   2.528   7.116  -0.045  0.4728  0.2010 -0.1518
   41GLOH   H04 8747   2.535   7.219  -0.082  0.8391  0.3388  0.3072
   41GLOH    O2 8748   2.574   7.025  -0.152  0.3364  0.0454 -0.2258
   41GLOH   H05 8749   2.584   7.084  -0.229 -0.1260 -1.0159 -1.1215
   41GLOH    C3 8750   2.396   7.056   0.008  0.9718 -0.3436  0.5365
   41GLOH   H06 8751   2.411   6.974   0.078 -1.6942  0.5847  2.2932
   41GLOH   H07 8752   2.344   7.009  -0.076  1.7335  0.3303 -0.3350
   41GLOH    O3 8753   2.317   7.146   0.081 -0.8320 -0.0334  0.5635
   41GLOH   H01 8754   2.261   7.103   0.148  0.2385 -0.3801  1.2586
   42GLOH   H03 8755   4.008   7.783   2.627 -0.4513 -0.1572 -0.9051
   42GLOH    O1 8756   3.916   7.799   2.654  0.0272 -0.1957  0.8000
   42GLOH    C1 8757   3.914   7.913   2.744  0.3783  0.3927 -0.1948
   42GLOH   H02 8758   3.953   7.883   2.842  0.3606 -0.2713 -0.3852
   42GLOH   H08 8759   3.811   7.943   2.763 -0.6418 -1.5561 -2.3617
   42GLOH    C2 8760   3.998   8.035   2.697  0.1504 -0.1915  0.4126
   42GLOH   H04 8761   3.946   8.075   2.610 -0.0673 -1.7617 -0.2000
   42GLOH    O2 8762   4.009   8.129   2.805  0.1486  0.0632  0.4289
   42GLOH   H05 8763   3.983   8.208   2.755 -1.2319 -1.5877 -1.5514
   42GLOH    C3 8764   4.145   8.001   2.652  0.7234  0.1376 -0.7272
   42GLOH   H06 8765   4.194   7.942   2.730 -0.8834 -0.4598 -0.1614
   42GLOH   H07 8766   4.196   8.095   2.629 -0.4440  1.4604  1.9042
   42GLOH    O3 8767   4.143   7.924   2.533 -0.2612  0.0302 -0.0511
   42GLOH   H01 8768   4.147   7.977   2.452 -0.3633 -1.4578 -1.0390
   43GLOH   H03 8769   4.398   3.148   0.453 -1.1985 -0.9379 -0.3267
   43GLOH    O1 8770   4.367   3.188   0.536 -0.3965 -0.1026 -0.4214
   43GLOH    C1 8771   4.288   3.300   0.509 -0.6100  0.1650  0.1677
   43GLOH   H02 8772   4.183   3.276   0.525  0.2394 -1.5070  3.6797
   43GLOH   H08 8773   4.290   3.330   0.404  3.3213  0.7682  0.3471
   43GLOH    C2 8774   4.329   3.421   0.597  1.2639 -0.2932  0.5761
   43GLOH   H04 8775   4.314   3.392   0.702  0.0435 -1.0839  0.1976
   43GLOH    O2 8776   4.465   3.459   0.574 -0.1875  0.2942 -0.1609
   43GLOH   H05 8777   4.489   3.431   0.484 -2.5653  0.0965 -0.7480
   43GLOH    C3 8778   4.237   3.537   0.564 -0.3069 -0.0840 -0.4088
   43GLOH   H06 8779   4.244   3.551   0.456 -0.2634 -0.2617 -0.4281
   43GLOH   H07 8780   4.276   3.622   0.619  0.6415 -1.9102  1.8170
   43GLOH    O3 8781   4.104   3.510   0.612  0.2106 -0.0409  0.7447
   43GLOH   H01 8782   4.080   3.599   0.643 -0.8852  0.1935 -0.7026
   44GLOH   H03 8783   3.814   4.561   2.411 -0.9880  2.0175 -0.4339
   44GLOH    O1 8784   3.883   4.586   2.347 -0.0009  0.0779 -0.1630
   44GLOH    C1 8785   3.861   4.529   2.218  0.1728 -0.0404  0.3461
   44GLOH   H02 8786   3.804   4.604   2.162  0.1460  0.5421  1.1470
   44GLOH   H08 8787   3.806   4.435   2.212  0.2041  0.0258 -1.2789
   44GLOH    C2 8788   3.990   4.509   2.136  0.7115 -0.0701  0.3957
   44GLOH   H04 8789   4.062   4.450   2.195 -0.5441  0.0601  2.0794
   44GLOH    O2 8790   3.956   4.452   2.008  0.0796  0.1169  0.0308
   44GLOH   H05 8791   4.037   4.412   1.973 -0.5886 -0.3871 -0.9560
   44GLOH    C3 8792   4.064   4.646   2.110 -0.5799  0.7264  0.3043
   44GLOH   H06 8793   4.167   4.629   2.078 -0.5053 -2.1386  1.9247
   44GLOH   H07 8794   4.083   4.697   2.204  0.2075  1.1053 -0.0554
   44GLOH    O3 8795   3.998   4.726   2.013  0.1173 -0.9387  0.1177
   44GLOH   H01 8796   3.922   4.773   2.051  0.9378 -0.6819  1.4803
   45GLOH   H03 8797   1.778   6.172   0.804 -0.8063  0.6897  0.1007
   45GLOH    O1 8798   1.731   6.094   0.840  0.1862 -0.0677 -0.2172
   45GLOH    C1 8799   1.670   6.144   0.963 -0.3797 -0.0305 -0.3078
   45GLOH   H02 8800   1.638   6.248   0.956 -1.3357 -0.2439  0.7380
   45GLOH   H08 8801   1.746   6.148   1.040 -1.9889 -1.0522  1.3754
   45GLOH    C2 8802   1.553   6.057   1.012 -0.5877  0.3466 -0.0586
   45GLOH   H04 8803   1.585   5.953   1.033  0.7463  0.8016  0.2077
   45GLOH    O2 8804   1.497   6.107   1.130 -0.4969 -0.3340 -0.4976
   45GLOH   H05 8805   1.422   6.047   1.146  0.6095 -1.3648  0.9065
   45GLOH    C3 8806   1.437   6.046   0.909  0.9630  0.1849  0.4146
   45GLOH   H06 8807   1.378   5.961   0.944  0.2047 -0.0960 -1.4851
   45GLOH   H07 8808   1.479   6.017   0.812 -0.8103 -0.9319 -0.0304
   45GLOH    O3 8809   1.368   6.173   0.895 -0.4996 -0.0118  0.0464
   45GLOH   H01 8810   1.432   6.243   0.870  0.4484 -0.3097  1.5376
   46GLOH   H03 8811   2.470   7.360   0.707  0.3057  1.3163  0.5811
   46GLOH    O1 8812   2.542   7.295   0.692 -0.6051  0.2343  0.8369
   46GLOH    C1 8813   2.564   7.287   0.551 -0.2765  0.6805 -0.3326
   46GLOH   H02 8814   2.482   7.240   0.497 -0.0227 -0.2985  0.1123
   46GLOH   H08 8815   2.656   7.231   0.533 -0.6126  0.0420 -0.0789
   46GLOH    C2 8816   2.597   7.423   0.490 -0.3601 -0.1916  0.9075
   46GLOH   H04 8817   2.509   7.486   0.507  0.1250  0.4115  1.2033
   46GLOH    O2 8818   2.709   7.478   0.563 -0.4728  0.2111  0.1551
   46GLOH   H05 8819   2.663   7.539   0.624 -0.0064  1.1701 -0.4524
   46GLOH    C3 8820   2.627   7.423   0.337  0.4029  0.2656  0.2244
   46GLOH   H06 8821   2.713   7.362   0.310 -0.3806 -1.4617  1.4886
   46GLOH   H07 8822   2.660   7.524   0.311  1.5046 -0.1249  0.0727
   46GLOH    O3 8823   2.507   7.398   0.268  0.4461 -0.4163  0.3717
   46GLOH   H01 8824   2.530   7.333   0.199 -3.4612 -1.4579 -0.0533
   47GLOH   H03 8825   4.026   9.788   2.769 -1.4855 -0.7040  0.0164
   47GLOH    O1 8826   4.041   9.785   2.672 -0.4496  0.0149  0.1460
   47GLOH    C1 8827   4.078   9.922   2.636  0.0027  0.4020 -0.3769
   47GLOH   H02 8828   4.118   9.920   2.534 -0.6787  1.6309 -0.6715
   47GLOH   H08 8829   4.156   9.961   2.702 -1.1408 -1.3650  2.0709
   47GLOH    C2 8830   3.964  10.020   2.635  0.1853 -0.9256 -0.3795
   47GLOH   H04 8831   3.927  10.057   2.731  0.3421  0.3878 -0.8102
   47GLOH    O2 8832   4.011  10.147   2.577  0.1874  0.6021 -0.0977
   47GLOH   H05 8833   4.020  10.212   2.649 -1.4145  2.2590 -1.3488
   47GLOH    C3 8834   3.844   9.959   2.556 -0.1509  0.2939 -0.6413
   47GLOH   H06 8835   3.873   9.918   2.459 -0.0970 -2.2086  0.4162
   47GLOH   H07 8836   3.768  10.035   2.536 -0.8764  0.6995  3.3565
   47GLOH    O3 8837   3.790   9.847   2.624 -0.2792 -0.2491 -0.3762
   47GLOH   H01 8838   3.855   9.774   2.625  0.2659  0.2372  0.3398
   48GLOH   H03 8839   3.752   1.785   2.535  2.2604 -0.5377 -1.0010
   48GLOH    O1 8840   3.815   1.836   2.589  0.0053  0.1440  1.0200
   48GLOH    C1 8841   3.783   1.827   2.734  0.0855  0.1740  0.6542
   48GLOH   H02 8842   3.835   1.738   2.771  2.6536  0.3367 -2.3246
   48GLOH   H08 8843   3.676   1.810   2.746  0.6878 -2.6444  2.6374
   48GLOH    C2 8844   3.836   1.951   2.814 -0.0472 -0.2449 -1.2317
   48GLOH   H04 8845   3.781   2.039   2.778  0.4499  0.9616  0.8537
   48GLOH    O2 8846   3.820   1.936   2.957  0.5390 -0.0633 -0.1586
   48GLOH   H05 8847   3.724   1.938   2.969  0.3028 -0.7257 -1.7768
   48GLOH    C3 8848   3.988   1.967   2.789  0.5342 -0.3828  0.3155
   48GLOH   H06 8849   4.039   1.875   2.820  2.0937 -0.2857 -1.8428
   48GLOH   H07 8850   4.019   2.048   2.854  0.9836 -0.6971  0.5015
   48GLOH    O3 8851   4.023   1.996   2.651 -0.3270 -0.4879 -0.1158
   48GLOH   H01 8852   3.958   2.058   2.614  0.6332  0.0764 -0.8833
   49GLOH   H03 8853   0.598   2.979   1.991  0.7403 -1.5253 -0.5342
   49GLOH    O1 8854   0.594   3.065   1.945 -0.2267 -0.7752  0.9273
   49GLOH    C1 8855   0.593   3.172   2.044  0.6352  0.8943 -0.0342
   49GLOH   H02 8856   0.494   3.179   2.088  0.4625  1.7005 -0.5312
   49GLOH   H08 8857   0.621   3.272   2.012  0.5028  1.2950  1.0957
   49GLOH    C2 8858   0.680   3.141   2.168 -0.4300 -0.7980  0.1017
   49GLOH   H04 8859   0.784   3.131   2.136  0.0652 -3.4389  2.3975
   49GLOH    O2 8860   0.682   3.251   2.260 -0.2492 -0.4733  0.2416
   49GLOH   H05 8861   0.720   3.227   2.346 -1.4258  0.5955  1.0788
   49GLOH    C3 8862   0.624   3.012   2.234 -0.7981  0.3747 -0.6526
   49GLOH   H06 8863   0.516   3.020   2.240 -0.8535 -0.2412 -0.7617
   49GLOH   H07 8864   0.654   3.000   2.338 -0.0151  0.5898 -0.8503
   49GLOH    O3 8865   0.654   2.895   2.158 -0.6100  0.3606 -0.1499
   49GLOH   H01 8866   0.613   2.815   2.194 -1.0208  0.9970  0.8245
   50GLOH   H03 8867   3.834   8.952   1.281 -0.8801 -1.0498  2.2936
   50GLOH    O1 8868   3.918   8.973   1.324  0.3409 -0.0577 -0.4809
   50GLOH    C1 8869   3.981   9.097   1.285 -0.1841  0.1607  0.8044
   50GLOH   H02 8870   4.012   9.089   1.181  0.0416  0.6229  0.8367
   50GLOH   H08 8871   4.071   9.110   1.344  2.3472 -2.2870 -2.3319
   50GLOH    C2 8872   3.884   9.221   1.300  0.4183  0.6593  0.1715
   50GLOH   H04 8873   3.789   9.198   1.249  0.3199  0.2758  0.5243
   50GLOH    O2 8874   3.849   9.250   1.435  0.1527 -0.5729  0.0465
   50GLOH   H05 8875   3.852   9.169   1.488  0.7928 -0.5240  0.0901
   50GLOH    C3 8876   3.956   9.337   1.241  0.1701 -0.0784  0.4491
   50GLOH   H06 8877   4.056   9.332   1.283  1.4664  2.1815 -2.2535
   50GLOH   H07 8878   3.918   9.434   1.276  0.3952 -0.1859  1.0040
   50GLOH    O3 8879   3.972   9.335   1.099 -0.7315  0.6270  0.0606
   50GLOH   H01 8880   3.885   9.304   1.067 -1.3120 -1.8948  3.7864
   51GLOH   H03 8881   3.581   8.330   1.318 -0.2933  0.0426  0.3313
   51GLOH    O1 8882   3.591   8.354   1.224 -0.2178 -0.3459  0.2389
   51GLOH    C1 8883   3.702   8.440   1.223  0.3098 -0.1883 -0.2096
   51GLOH   H02 8884   3.790   8.378   1.242  0.3568 -0.4505 -1.2788
   51GLOH   H08 8885   3.702   8.517   1.300  0.2505 -0.7232  0.3338
   51GLOH    C2 8886   3.714   8.517   1.092 -0.2853  0.1891  0.6149
   51GLOH   H04 8887   3.623   8.575   1.069 -0.2496  0.0539  0.1099
   51GLOH    O2 8888   3.817   8.613   1.113  0.4865 -0.2901  0.1419
   51GLOH   H05 8889   3.873   8.580   1.185  1.3129  1.5528  0.3831
   51GLOH    C3 8890   3.757   8.421   0.976  0.5649 -0.1497 -0.0181
   51GLOH   H06 8891   3.848   8.367   1.001  0.7035 -0.5190 -1.2788
   51GLOH   H07 8892   3.771   8.474   0.881 -1.9456  0.4605 -0.0964
   51GLOH    O3 8893   3.644   8.331   0.956 -0.3539 -0.0526  0.3919
   51GLOH   H01 8894   3.628   8.300   1.047 -0.4301 -1.6269 -0.1360
   52GLOH   H03 8895   1.830   7.072   0.321  0.8034 -1.0374 -0.2617
   52GLOH    O1 8896   1.821   7.082   0.417  0.4728  1.2352 -0.4921
   52GLOH    C1 8897   1.942   7.029   0.473  1.0606  0.3754 -0.8607
   52GLOH   H02 8898   2.005   7.104   0.522  2.3642 -0.9621 -0.4528
   52GLOH   H08 8899   1.995   6.972   0.397  0.1291 -1.7815  0.0498
   52GLOH    C2 8900   1.923   6.927   0.585  0.0903 -0.6974 -0.6879
   52GLOH   H04 8901   2.018   6.898   0.632  0.5048  1.3369 -0.1995
   52GLOH    O2 8902   1.842   6.980   0.697  0.1333 -0.6993 -0.1699
   52GLOH   H05 8903   1.772   7.031   0.652 -0.6877 -0.6322  1.1812
   52GLOH    C3 8904   1.851   6.798   0.531 -0.3491 -0.2840  0.1808
   52GLOH   H06 8905   1.744   6.818   0.539 -0.8843 -1.9101 -2.3527
   52GLOH   H07 8906   1.847   6.725   0.613  1.8246 -0.0845  0.4979
   52GLOH    O3 8907   1.905   6.736   0.417  0.1658 -0.2791  0.6783
   52GLOH   H01 8908   1.987   6.693   0.448  0.0801  1.3826  3.3860
   53GLOH   H03 8909   9.077   3.797   2.137  0.1319  0.2545  0.2139
   53GLOH    O1 8910   9.050   3.872   2.193 -0.5214  0.5400 -0.4841
   53GLOH    C1 8911   9.145   3.975   2.164 -0.1015  0.0565 -0.6145
   53GLOH   H02 8912   9.233   3.931   2.118  0.0935  0.7566 -0.9310
   53GLOH   H08 8913   9.183   4.022   2.254 -2.1461  0.2420  0.1610
   53GLOH    C2 8914   9.106   4.087   2.061 -0.1880  0.4648  0.1752
   53GLOH   H04 8915   9.196   4.137   2.023  0.8741 -0.6242  1.1746
   53GLOH    O2 8916   9.039   4.034   1.943  0.4420 -0.9902 -0.1460
   53GLOH   H05 8917   8.949   3.999   1.948 -0.1529  0.5432  0.2611
   53GLOH    C3 8918   8.999   4.186   2.115  0.8239  0.0450 -0.2504
   53GLOH   H06 8919   8.920   4.132   2.167  2.2050  0.1707  2.0639
   53GLOH   H07 8920   8.959   4.240   2.030  2.8459  0.0825 -1.2215
   53GLOH    O3 8921   9.051   4.288   2.200  0.2677 -0.7053 -0.2900
   53GLOH   H01 8922   9.012   4.259   2.285  0.9363 -1.5778 -0.2734
   54GLOH   H03 8923   4.507   1.735   0.226  0.0895 -0.3881 -0.6438
   54GLOH    O1 8924   4.540   1.652   0.265  0.2295 -0.2677 -0.5084
   54GLOH    C1 8925   4.539   1.662   0.414  0.1936  0.7902  0.6877
   54GLOH   H02 8926   4.444   1.699   0.454 -0.6761 -1.4525  0.7877
   54GLOH   H08 8927   4.615   1.734   0.442 -2.1843  2.7031  2.4920
   54GLOH    C2 8928   4.568   1.530   0.490  0.0478 -0.2132  0.2493
   54GLOH   H04 8929   4.664   1.488   0.456  0.1717 -0.3572  0.7745
   54GLOH    O2 8930   4.562   1.551   0.628  0.5366  0.0472 -0.3566
   54GLOH   H05 8931   4.488   1.505   0.673  0.6213 -0.1941 -0.4640
   54GLOH    C3 8932   4.460   1.432   0.437  0.6953  0.2629 -0.1187
   54GLOH   H06 8933   4.358   1.457   0.466  0.2233  1.3065 -2.5692
   54GLOH   H07 8934   4.483   1.337   0.485  1.0307  0.3258 -0.1552
   54GLOH    O3 8935   4.460   1.416   0.294  0.1083 -0.5574 -0.0838
   54GLOH   H01 8936   4.488   1.502   0.257 -0.4255  0.3422  1.5230
   55GLOH   H03 8937   3.346   0.475   1.846  1.0511  1.4038 -0.2281
   55GLOH    O1 8938   3.381   0.391   1.809 -0.3343  0.7760 -0.1631
   55GLOH    C1 8939   3.269   0.314   1.756 -0.2119 -0.1414 -0.3443
   55GLOH   H02 8940   3.213   0.383   1.694  1.3755  1.3119 -0.2025
   55GLOH   H08 8941   3.200   0.286   1.836  0.2880  4.0742  1.7015
   55GLOH    C2 8942   3.322   0.190   1.678 -0.1253 -0.4240 -0.0373
   55GLOH   H04 8943   3.373   0.127   1.752 -1.3807 -0.9057  0.4213
   55GLOH    O2 8944   3.210   0.112   1.628  0.2741  0.2320  0.0332
   55GLOH   H05 8945   3.131   0.165   1.611  1.1392  1.5180 -0.0417
   55GLOH    C3 8946   3.414   0.233   1.566 -0.8185 -0.8143  0.1767
   55GLOH   H06 8947   3.357   0.303   1.505  3.1959  2.1317 -0.3860
   55GLOH   H07 8948   3.439   0.150   1.501  1.5688  0.2762 -0.3514
   55GLOH    O3 8949   3.527   0.304   1.618  0.1328  0.5085 -0.0675
   55GLOH   H01 8950   3.482   0.339   1.697 -0.7432 -0.1333 -0.2644
   56GLOH   H03 8951   0.651   5.546   2.324  1.0189  1.2008  0.2882
   56GLOH    O1 8952   0.735   5.500   2.340  0.6055  0.3266 -0.0202
   56GLOH    C1 8953   0.755   5.407   2.232  0.0262  0.0597  0.4476
   56GLOH   H02 8954   0.809   5.318   2.264 -1.1268 -0.8922 -0.2331
   56GLOH   H08 8955   0.805   5.454   2.147  2.4991 -1.1138  1.1993
   56GLOH    C2 8956   0.617   5.340   2.204 -0.8957  0.1037 -0.1885
   56GLOH   H04 8957   0.618   5.265   2.124  1.3179  0.6109 -0.6918
   56GLOH    O2 8958   0.560   5.278   2.318 -0.1357  0.2100 -0.0120
   56GLOH   H05 8959   0.622   5.271   2.392  0.8230  0.0634 -0.8241
   56GLOH    C3 8960   0.527   5.450   2.144  0.1316  0.0227 -0.6098
   56GLOH   H06 8961   0.427   5.409   2.134  1.1417 -1.9512 -3.4533
   56GLOH   H07 8962   0.568   5.480   2.047  0.4996  1.0281 -0.1475
   56GLOH    O3 8963   0.529   5.573   2.215  0.3105  0.2867 -0.4356
   56GLOH   H01 8964   0.471   5.571   2.294  1.9609 -1.5110  0.7577
   57GLOH   H03 8965   3.116   7.717   2.211 -0.6266  0.7440 -0.6696
   57GLOH    O1 8966   3.076   7.665   2.140  0.0755  0.3741 -0.7981
   57GLOH    C1 8967   3.035   7.531   2.182  0.1163  0.4993  0.0082
   57GLOH   H02 8968   2.952   7.537   2.253  1.4466  1.4127  1.5090
   57GLOH   H08 8969   3.109   7.470   2.233  0.7239  0.7665 -0.5423
   57GLOH    C2 8970   2.990   7.446   2.066  0.5814  0.4312  0.1241
   57GLOH   H04 8971   3.062   7.464   1.985 -0.8895  0.8723 -1.1190
   57GLOH    O2 8972   2.991   7.305   2.103 -0.0906 -0.7628 -0.3019
   57GLOH   H05 8973   3.021   7.251   2.028  3.3599 -0.7235  0.9308
   57GLOH    C3 8974   2.843   7.475   2.017  0.9010 -0.2780  0.0382
   57GLOH   H06 8975   2.771   7.451   2.096  1.3130 -0.1593  0.4525
   57GLOH   H07 8976   2.812   7.421   1.928  0.3664 -2.3407  1.4326
   57GLOH    O3 8977   2.835   7.617   1.987  0.4401  0.1985 -1.0061
   57GLOH   H01 8978   2.921   7.647   2.020 -1.0670  3.6795  0.0315
   58GLOH   H03 8979   1.630   7.460   0.253 -1.5294 -1.8564  1.7150
   58GLOH    O1 8980   1.635   7.482   0.348  0.1344  0.1071  1.2199
   58GLOH    C1 8981   1.724   7.397   0.417  0.1694 -0.1798  0.1482
   58GLOH   H02 8982   1.746   7.312   0.353  0.0319  0.6237 -0.9917
   58GLOH   H08 8983   1.669   7.352   0.499  1.1577  0.9089  1.4279
   58GLOH    C2 8984   1.846   7.480   0.451  0.3047 -0.5165 -0.0027
   58GLOH   H04 8985   1.884   7.535   0.364 -0.6633  1.6834  0.9290
   58GLOH    O2 8986   1.793   7.582   0.547  0.2483 -0.4565  0.2895
   58GLOH   H05 8987   1.750   7.647   0.488  1.2362  0.3364  0.4187
   58GLOH    C3 8988   1.963   7.388   0.498 -0.2153  1.0561  0.1361
   58GLOH   H06 8989   1.934   7.338   0.590 -1.2064  0.8015 -0.3199
   58GLOH   H07 8990   2.051   7.452   0.512 -0.3710  1.1250  0.7899
   58GLOH    O3 8991   1.989   7.292   0.393 -0.3838  0.7327  0.1033
   58GLOH   H01 8992   1.909   7.237   0.382 -0.1162  0.0616  1.4116
   59GLOH   H03 8993   5.267   3.574   0.042  0.5409 -0.0376 -0.0973
   59GLOH    O1 8994   5.271   3.607   0.134  0.0588 -0.0574 -0.0635
   59GLOH    C1 8995   5.294   3.746   0.145 -0.2159 -0.8248  0.0102
   59GLOH   H02 8996   5.383   3.776   0.090  0.4311 -0.3754  1.2838
   59GLOH   H08 8997   5.311   3.770   0.250 -0.1774 -0.9773  0.0388
   59GLOH    C2 8998   5.171   3.834   0.094  0.1096 -0.7468  0.1515
   59GLOH   H04 8999   5.202   3.939   0.098 -0.6183 -0.5203 -0.0504
   59GLOH    O2 9000   5.145   3.792  -0.042 -0.0015  0.1995 -0.4266
   59GLOH   H05 9001   5.170   3.699  -0.058 -0.5595 -0.0578  0.1877
   59GLOH    C3 9002   5.052   3.801   0.194 -0.0282 -0.8635 -0.0126
   59GLOH   H06 9003   5.028   3.695   0.184  1.0809 -0.9803 -1.6847
   59GLOH   H07 9004   4.971   3.861   0.153  0.6544 -1.1700 -1.8531
   59GLOH    O3 9005   5.089   3.840   0.326 -0.1173 -0.1569 -0.3033
   59GLOH   H01 9006   5.122   3.758   0.367 -0.1492 -0.1800 -0.3244
   60GLOH   H03 9007   4.549   2.786   0.525  2.6142  0.7061 -0.3911
   60GLOH    O1 9008   4.594   2.700   0.526  0.2741 -0.5438 -0.3571
   60GLOH    C1 9009   4.562   2.635   0.653  0.1897  0.2431  0.2958
   60GLOH   H02 9010   4.617   2.684   0.733  1.1300 -0.6294  0.1934
   60GLOH   H08 9011   4.578   2.527   0.645  0.7750  0.4470 -1.6223
   60GLOH    C2 9012   4.420   2.650   0.700  0.9122  0.2983 -0.0085
   60GLOH   H04 9013   4.361   2.617   0.613 -0.4931 -0.3516  1.1691
   60GLOH    O2 9014   4.395   2.569   0.817  0.0443  0.0776  0.1662
   60GLOH   H05 9015   4.449   2.602   0.891 -0.9642  0.0523  0.9267
   60GLOH    C3 9016   4.383   2.796   0.728  0.3553 -0.3059  0.0339
   60GLOH   H06 9017   4.275   2.804   0.735  0.3752  0.0731 -0.0911
   60GLOH   H07 9018   4.415   2.855   0.642 -1.0401 -0.8018 -0.8268
   60GLOH    O3 9019   4.449   2.836   0.852  0.7016  0.7731 -0.1393
   60GLOH   H01 9020   4.539   2.860   0.822  0.9150 -0.2127 -0.3109
   61GLOH   H03 9021   3.653   4.979   1.809 -1.0478 -1.1240  0.5148
   61GLOH    O1 9022   3.739   4.950   1.842 -0.4003 -0.3530 -0.4546
   61GLOH    C1 9023   3.851   5.005   1.761 -0.6700 -0.3887  0.3749
   61GLOH   H02 9024   3.809   5.038   1.666 -2.7415 -1.5126  0.8533
   61GLOH   H08 9025   3.913   4.918   1.740 -2.8618 -1.6687 -1.0093
   61GLOH    C2 9026   3.940   5.115   1.830 -0.0403 -0.2697 -0.7264
   61GLOH   H04 9027   3.982   5.069   1.921 -0.3662 -0.2238 -0.5537
   61GLOH    O2 9028   4.056   5.150   1.749  0.0403 -0.5393  0.4431
   61GLOH   H05 9029   4.130   5.092   1.772 -0.5711 -2.0085 -1.1389
   61GLOH    C3 9030   3.862   5.240   1.873 -0.1421 -0.4879  0.3828
   61GLOH   H06 9031   3.817   5.287   1.786  0.8327 -0.5529 -0.1589
   61GLOH   H07 9032   3.936   5.309   1.914 -0.1134 -0.7620  0.7972
   61GLOH    O3 9033   3.759   5.206   1.971 -0.1574  0.7478  0.2445
   61GLOH   H01 9034   3.673   5.243   1.944 -0.4889  0.3266  0.7193
   62GLOH   H03 9035   3.073   2.918   1.236  1.1126  0.3451 -0.1520
   62GLOH    O1 9036   3.054   2.826   1.211  0.4796  0.4032  0.1124
   62GLOH    C1 9037   3.170   2.753   1.255 -0.5316 -0.3284  0.7152
   62GLOH   H02 9038   3.160   2.651   1.220 -0.1135  0.3044 -1.3240
   62GLOH   H08 9039   3.168   2.745   1.364 -1.5432 -2.8868  0.5261
   62GLOH    C2 9040   3.309   2.806   1.215 -0.0213  0.2220 -0.3111
   62GLOH   H04 9041   3.314   2.915   1.216 -0.3707  0.3709 -4.2140
   62GLOH    O2 9042   3.408   2.766   1.311 -0.6017 -0.0343 -0.2663
   62GLOH   H05 9043   3.481   2.829   1.299 -1.6368  1.0213 -1.1730
   62GLOH    C3 9044   3.335   2.750   1.072 -0.3846  0.0274 -0.0701
   62GLOH   H06 9045   3.290   2.651   1.080  0.0560 -0.1992 -0.3666
   62GLOH   H07 9046   3.440   2.738   1.048 -0.1425  0.7007  0.6490
   62GLOH    O3 9047   3.272   2.819   0.965  0.3141 -0.3700  0.3107
   62GLOH   H01 9048   3.257   2.754   0.894  0.0618  0.0404 -0.0159
   63GLOH   H03 9049   9.806   4.418   1.161  1.0873 -0.6864  0.2108
   63GLOH    O1 9050   9.884   4.453   1.112  0.2116 -0.3952 -1.0019
   63GLOH    C1 9051   9.853   4.435   0.971 -0.0434  0.2285 -0.1071
   63GLOH   H02 9052   9.929   4.483   0.909  0.4126 -1.0608 -0.5864
   63GLOH   H08 9053   9.759   4.484   0.946 -0.6770  0.0927  1.9399
   63GLOH    C2 9054   9.823   4.281   0.932 -1.2078 -0.0105  0.3339
   63GLOH   H04 9055   9.912   4.224   0.962 -0.0573  1.0433 -0.9766
   63GLOH    O2 9056   9.710   4.227   1.004 -0.0914  0.4611  0.4581
   63GLOH   H05 9057   9.739   4.217   1.096 -0.9869  0.4134  0.7337
   63GLOH    C3 9058   9.809   4.272   0.785  0.5309  0.2008 -0.3727
   63GLOH   H06 9059   9.779   4.175   0.747 -1.2039  1.2634 -1.7828
   63GLOH   H07 9060   9.909   4.302   0.752  1.5873 -2.0977  0.6101
   63GLOH    O3 9061   9.716   4.376   0.744 -0.2130  0.6055  0.4956
   63GLOH   H01 9062   9.709   4.382   0.647 -0.6224 -2.5757  0.2636
   64GLOH   H03 9063   8.879   3.648   1.812 -1.0112 -1.3373  1.0397
   64GLOH    O1 9064   8.958   3.592   1.824  0.1169 -0.0717 -0.3216
   64GLOH    C1 9065   9.071   3.678   1.804  0.0994 -0.7435  0.6586
   64GLOH   H02 9066   9.162   3.634   1.846  0.5875 -1.0310 -0.6626
   64GLOH   H08 9067   9.049   3.773   1.853 -0.1493  0.4167 -1.6346
   64GLOH    C2 9068   9.105   3.707   1.659  0.1227  1.1761  0.2073
   64GLOH   H04 9069   9.044   3.790   1.621  0.2321  0.4309 -1.6022
   64GLOH    O2 9070   9.236   3.766   1.645 -0.4282  0.2507  0.5401
   64GLOH   H05 9071   9.257   3.835   1.711  0.7575 -1.4603  2.0205
   64GLOH    C3 9072   9.092   3.580   1.571  0.0441  0.0933 -0.3695
   64GLOH   H06 9073   9.128   3.504   1.641  1.3155 -0.7136 -1.8554
   64GLOH   H07 9074   9.154   3.573   1.482 -0.3809 -0.1838 -0.6459
   64GLOH    O3 9075   8.953   3.562   1.538 -0.1268 -0.0480  0.6918
   64GLOH   H01 9076   8.931   3.633   1.475  1.5735  1.0134  1.2768
   65GLOH   H03 9077   2.911   0.690   1.357 -0.1538  0.3604 -1.0198
   65GLOH    O1 9078   2.896   0.594   1.345 -0.4077  0.3222 -0.4125
   65GLOH    C1 9079   2.971   0.523   1.438  0.1023  0.8541  0.0648
   65GLOH   H02 9080   2.932   0.556   1.535  2.9677  2.8999  0.5707
   65GLOH   H08 9081   3.077   0.545   1.429 -0.2746  1.5755 -3.1834
   65GLOH    C2 9082   2.976   0.371   1.414 -0.7071 -0.4895  0.4118
   65GLOH   H04 9083   3.048   0.364   1.330  0.9964  0.2155  1.7865
   65GLOH    O2 9084   3.024   0.293   1.526 -0.0740 -0.1466  0.3331
   65GLOH   H05 9085   2.966   0.315   1.600  0.8367 -0.4539  1.1504
   65GLOH    C3 9086   2.841   0.315   1.373  0.5198 -0.3408 -0.3715
   65GLOH   H06 9087   2.776   0.308   1.461  0.3829  0.1122 -0.4395
   65GLOH   H07 9088   2.858   0.208   1.362  2.1181 -0.1895  0.4452
   65GLOH    O3 9089   2.782   0.371   1.260 -0.4712  0.4172  0.1422
   65GLOH   H01 9090   2.809   0.464   1.251 -2.4408  0.9848 -0.0162
   66GLOH   H03 9091   4.250   9.708   1.003  0.6832  1.1813  2.1775
   66GLOH    O1 9092   4.294   9.784   0.961  0.5350  0.1994  0.1624
   66GLOH    C1 9093   4.288   9.899   1.043  0.1386 -0.2117 -0.1550
   66GLOH   H02 9094   4.383   9.903   1.096 -0.6601  0.2904  1.2612
   66GLOH   H08 9095   4.204   9.889   1.112  0.6928 -1.1004  0.4076
   66GLOH    C2 9096   4.268  10.038   0.976  0.2912  0.4250 -1.1780
   66GLOH   H04 9097   4.168  10.045   0.931 -1.6033  3.3567  3.0915
   66GLOH    O2 9098   4.267  10.143   1.072 -0.4786  0.0913 -0.6337
   66GLOH   H05 9099   4.178  10.171   1.101 -0.4408 -1.3247  0.8754
   66GLOH    C3 9100   4.367  10.053   0.863  0.1331 -0.3021  0.3556
   66GLOH   H06 9101   4.468  10.063   0.902  0.2268  0.0226  0.0356
   66GLOH   H07 9102   4.336  10.139   0.803 -1.5085 -1.1251 -0.0029
   66GLOH    O3 9103   4.376   9.940   0.777  0.1759  0.1708  0.3201
   66GLOH   H01 9104   4.361   9.866   0.839 -1.4469 -0.4126 -0.7133
   67GLOH   H03 9105   9.863   5.806   2.521  1.5624 -2.7064 -0.7732
   67GLOH    O1 9106   9.779   5.761   2.499 -0.3733  0.0718  0.5432
   67GLOH    C1 9107   9.811   5.657   2.402 -0.3755  0.1046 -0.0467
   67GLOH   H02 9108   9.898   5.686   2.345  0.2395 -3.3488 -0.9126
   67GLOH   H08 9109   9.737   5.655   2.322  0.6437  2.2830 -1.0895
   67GLOH    C2 9110   9.839   5.518   2.457 -0.4231 -0.2092 -0.3270
   67GLOH   H04 9111   9.763   5.479   2.525 -1.9271  0.6300 -1.4794
   67GLOH    O2 9112   9.839   5.428   2.343  0.0658 -1.0146  0.4875
   67GLOH   H05 9113   9.750   5.426   2.305 -0.4300  1.6041  1.4213
   67GLOH    C3 9114   9.977   5.511   2.513 -0.6893  0.4068  0.1763
   67GLOH   H06 9115  10.049   5.529   2.433  0.4023  1.5059  1.3755
   67GLOH   H07 9116  10.006   5.409   2.541 -1.0030 -0.5450 -2.7629
   67GLOH    O3 9117  10.001   5.594   2.627  0.6060 -0.1127 -0.2279
   67GLOH   H01 9118  10.036   5.535   2.696  0.9659 -0.0707 -0.3746
   68GLOH   H03 9119   0.871   3.422   1.436 -1.9117 -0.5322 -0.9521
   68GLOH    O1 9120   0.905   3.330   1.441 -0.2491  0.1157  0.0702
   68GLOH    C1 9121   0.837   3.279   1.563  0.0203 -0.3947  0.4787
   68GLOH   H02 9122   0.894   3.299   1.653 -0.1043  2.5183 -0.0241
   68GLOH   H08 9123   0.818   3.172   1.559 -3.4996  0.1791  0.0790
   68GLOH    C2 9124   0.701   3.352   1.579  0.0105 -0.0871 -1.1494
   68GLOH   H04 9125   0.637   3.327   1.494  0.5874 -2.2319 -0.9642
   68GLOH    O2 9126   0.631   3.322   1.698 -0.0848  0.3267 -0.1860
   68GLOH   H05 9127   0.628   3.225   1.706  0.6940  0.1808 -1.4868
   68GLOH    C3 9128   0.725   3.507   1.572  0.4756 -0.3424 -0.4617
   68GLOH   H06 9129   0.801   3.544   1.640 -1.8842  3.0868  0.4472
   68GLOH   H07 9130   0.635   3.561   1.598  0.3561  0.0650 -1.6865
   68GLOH    O3 9131   0.762   3.551   1.440 -1.0689  0.2996  0.5822
   68GLOH   H01 9132   0.679   3.587   1.405 -0.8734  0.5510  0.3735
   69GLOH   H03 9133   4.759   3.615   2.388  0.7016  0.7702 -1.1815
   69GLOH    O1 9134   4.677   3.621   2.335 -0.1435  1.0534  0.1232
   69GLOH    C1 9135   4.697   3.743   2.264  0.4144  0.0654  0.2924
   69GLOH   H02 9136   4.804   3.758   2.251  0.2115 -0.4813 -2.4423
   69GLOH   H08 9137   4.660   3.827   2.323 -2.0821 -1.2686  0.6785
   69GLOH    C2 9138   4.634   3.732   2.128 -0.1342 -0.8181  0.0087
   69GLOH   H04 9139   4.530   3.699   2.143 -0.9025  1.6319  0.4014
   69GLOH    O2 9140   4.635   3.853   2.045 -0.0200 -0.4670 -0.3631
   69GLOH   H05 9141   4.543   3.879   2.028  0.1649  0.8926  0.5974
   69GLOH    C3 9142   4.716   3.625   2.048  0.5987 -0.1364  0.5777
   69GLOH   H06 9143   4.818   3.662   2.038  0.7273  0.1405  2.7685
   69GLOH   H07 9144   4.679   3.619   1.946  0.7127 -0.4649  0.5538
   69GLOH    O3 9145   4.704   3.497   2.125 -0.3866  0.2440  0.7120
   69GLOH   H01 9146   4.682   3.518   2.217  0.7718 -0.6996  1.2256
   70GLOH   H03 9147   5.009   3.329   2.561  1.3478  2.8768 -2.4766
   70GLOH    O1 9148   5.054   3.369   2.638  0.0478  0.0804 -0.1657
   70GLOH    C1 9149   5.063   3.279   2.744 -0.1386  0.4387  0.2545
   70GLOH   H02 9150   5.160   3.280   2.795  1.1305  3.7920 -2.0446
   70GLOH   H08 9151   5.055   3.179   2.700 -0.0114  0.5557 -0.0351
   70GLOH    C2 9152   4.954   3.277   2.854 -0.0215  0.1852  1.0583
   70GLOH   H04 9153   4.977   3.199   2.928 -4.1165  0.2428  2.5296
   70GLOH    O2 9154   4.948   3.400   2.930  0.0351  0.5941  0.2231
   70GLOH   H05 9155   4.918   3.378   3.020  2.5002 -2.5830  0.3897
   70GLOH    C3 9156   4.815   3.223   2.808 -0.2480  0.7979 -0.4237
   70GLOH   H06 9157   4.779   3.280   2.723  0.0434 -0.6978 -1.5720
   70GLOH   H07 9158   4.744   3.234   2.890 -1.7475  0.1191 -1.6171
   70GLOH    O3 9159   4.816   3.086   2.773 -0.1568 -0.6092 -0.6086
   70GLOH   H01 9160   4.792   3.073   2.680 -0.8179 -2.6045 -0.1738
   71GLOH   H03 9161   8.955   3.807   2.416  2.1534 -1.0840  2.3433
   71GLOH    O1 9162   8.946   3.898   2.448  0.6236 -0.0994 -0.6954
   71GLOH    C1 9163   8.905   3.899   2.586 -0.5364 -0.4892  0.3085
   71GLOH   H02 9164   8.942   3.997   2.618 -2.9124  1.3750 -2.3368
   71GLOH   H08 9165   8.951   3.819   2.643  0.0997 -1.6682 -1.8015
   71GLOH    C2 9166   8.756   3.892   2.605 -0.2660  0.8956 -0.3330
   71GLOH   H04 9167   8.726   3.793   2.566 -2.3005  1.2180  0.3647
   71GLOH    O2 9168   8.718   3.892   2.746 -0.2558  0.3123 -0.1625
   71GLOH   H05 9169   8.769   3.820   2.787  0.4376  1.2139  0.5574
   71GLOH    C3 9170   8.686   3.997   2.529  0.6199  0.1247 -0.2257
   71GLOH   H06 9171   8.585   3.997   2.570  0.2021 -1.4426 -1.2147
   71GLOH   H07 9172   8.687   3.968   2.424  0.5056 -1.4617  0.1853
   71GLOH    O3 9173   8.739   4.124   2.538  0.1659  0.0640 -0.0766
   71GLOH   H01 9174   8.822   4.114   2.489 -1.0072 -1.8956 -1.7067
   72GLOH   H03 9175   9.623   3.439   2.067  0.7476  0.4198  0.3760
   72GLOH    O1 9176   9.581   3.488   1.994  0.3399  0.3249  0.5432
   72GLOH    C1 9177   9.674   3.528   1.892 -0.0579 -0.5766  0.2949
   72GLOH   H02 9178   9.673   3.455   1.811  0.3253  0.4402 -0.6431
   72GLOH   H08 9179   9.772   3.533   1.940  0.4412  0.9746 -0.8576
   72GLOH    C2 9180   9.650   3.666   1.833 -0.2084 -0.3964 -0.4010
   72GLOH   H04 9181   9.677   3.745   1.904  3.2614 -0.3404 -1.6594
   72GLOH    O2 9182   9.742   3.689   1.727 -0.1604  0.7937 -0.5974
   72GLOH   H05 9183   9.736   3.634   1.647  0.5365  1.1615 -0.9137
   72GLOH    C3 9184   9.504   3.671   1.783  0.7043 -0.1539  0.3895
   72GLOH   H06 9185   9.484   3.606   1.698 -2.5580 -0.4649  1.3341
   72GLOH   H07 9186   9.480   3.769   1.742 -0.1806 -0.7645 -0.5650
   72GLOH    O3 9187   9.412   3.643   1.888 -0.3980  0.0910  0.3661
   72GLOH   H01 9188   9.447   3.562   1.930 -0.7138  1.1724  2.7433
   73GLOH   H03 9189   3.375   5.418   0.497 -0.7206 -1.7852 -0.4333
   73GLOH    O1 9190   3.280   5.436   0.506 -0.2968  0.3043  0.0492
   73GLOH    C1 9191   3.244   5.512   0.387  0.4484 -0.6179 -0.8651
   73GLOH   H02 9192   3.331   5.562   0.345  0.5618  0.9022  1.1098
   73GLOH   H08 9193   3.176   5.595   0.407  0.8785 -0.6935  1.0346
   73GLOH    C2 9194   3.199   5.431   0.262  0.1549 -0.7646  0.2479
   73GLOH   H04 9195   3.140   5.500   0.200  0.1197 -0.5898  0.4757
   73GLOH    O2 9196   3.307   5.392   0.184 -0.0786 -0.2644  0.6311
   73GLOH   H05 9197   3.281   5.403   0.091  1.1074  0.8976  0.4227
   73GLOH    C3 9198   3.112   5.313   0.307  0.3218  0.3793 -0.6367
   73GLOH   H06 9199   3.110   5.237   0.229  0.8340  0.2187 -0.4947
   73GLOH   H07 9200   3.008   5.346   0.311 -1.4330 -4.6795 -0.7610
   73GLOH    O3 9201   3.140   5.251   0.433  0.0104 -0.6534 -0.1668
   73GLOH   H01 9202   3.200   5.311   0.481 -2.0217  0.3389  1.2232
   74GLOH   H03 9203   8.884   4.639   1.795  0.7991  0.6729  0.2530
   74GLOH    O1 9204   8.905   4.685   1.711 -0.7746  0.7170 -0.1298
   74GLOH    C1 9205   8.875   4.820   1.734  0.0241  0.4479  0.3531
   74GLOH   H02 9206   8.822   4.828   1.829  1.2137 -2.6696  1.3275
   74GLOH   H08 9207   8.807   4.865   1.661  1.3798  0.9585 -0.6184
   74GLOH    C2 9208   9.000   4.917   1.755 -0.5626  0.8973 -0.5620
   74GLOH   H04 9209   9.078   4.861   1.808 -0.3965  2.2253  0.6052
   74GLOH    O2 9210   9.071   4.956   1.637 -0.1485  0.1571  0.3001
   74GLOH   H05 9211   9.108   4.887   1.580 -0.8566  0.9304 -1.1238
   74GLOH    C3 9212   8.967   5.042   1.839  0.7246 -0.3892 -0.4848
   74GLOH   H06 9213   8.898   5.104   1.781 -1.8762 -0.6209  2.2416
   74GLOH   H07 9214   9.062   5.091   1.860  0.4636 -0.0807 -0.0152
   74GLOH    O3 9215   8.910   5.004   1.963  0.0745  0.4839 -0.3273
   74GLOH   H01 9216   8.896   5.090   2.006 -0.4712  0.6034 -0.7388
   75GLOH   H03 9217   0.342   5.158   2.696 -0.8317 -0.7384  1.9333
   75GLOH    O1 9218   0.270   5.138   2.633 -0.0127 -0.5478  0.9391
   75GLOH    C1 9219   0.298   5.212   2.508  0.6799  0.2533  0.2798
   75GLOH   H02 9220   0.387   5.274   2.515 -0.1713  1.8975 -2.6935
   75GLOH   H08 9221   0.214   5.279   2.492  1.7855  1.2172 -1.5842
   75GLOH    C2 9222   0.298   5.116   2.387  0.0019 -0.4659  0.8139
   75GLOH   H04 9223   0.203   5.062   2.376  0.9352 -1.7835 -0.9630
   75GLOH    O2 9224   0.317   5.186   2.263  0.1356  1.2606  0.5130
   75GLOH   H05 9225   0.406   5.224   2.258  0.8986 -0.6398 -1.6824
   75GLOH    C3 9226   0.399   5.005   2.416  0.7740  0.0953  0.5320
   75GLOH   H06 9227   0.497   5.052   2.426  0.6837  0.4372 -0.2135
   75GLOH   H07 9228   0.402   4.943   2.327 -1.3939 -2.0946  1.9207
   75GLOH    O3 9229   0.377   4.915   2.526  0.2390  0.4438  0.3748
   75GLOH   H01 9230   0.381   4.972   2.606  0.4079  1.4331 -0.3317
   76GLOH   H03 9231   1.832   1.704   1.002  0.1893 -0.1612 -1.0582
   76GLOH    O1 9232   1.837   1.609   1.023 -0.1713  0.0292 -0.0799
   76GLOH    C1 9233   1.760   1.548   0.915  0.3026  0.8623  0.0240
   76GLOH   H02 9234   1.775   1.440   0.913  2.1870  0.9607  4.1762
   76GLOH   H08 9235   1.789   1.580   0.815 -1.2144 -1.4348 -1.1854
   76GLOH    C2 9236   1.611   1.578   0.938 -0.1916 -0.1769  0.3350
   76GLOH   H04 9237   1.593   1.682   0.967  0.9087  0.5276 -1.4137
   76GLOH    O2 9238   1.535   1.538   0.820 -0.2294 -0.6830 -0.1005
   76GLOH   H05 9239   1.456   1.595   0.812  0.4805  0.4280  0.6753
   76GLOH    C3 9240   1.556   1.490   1.050  0.3354  0.4171 -0.4937
   76GLOH   H06 9241   1.571   1.385   1.028  0.5077  0.0222  1.3990
   76GLOH   H07 9242   1.448   1.501   1.050  0.4892  2.1730 -0.8185
   76GLOH    O3 9243   1.612   1.532   1.182 -0.1826 -0.2184  0.1282
   76GLOH   H01 9244   1.700   1.567   1.158 -0.4411  1.1512  1.1010
   77GLOH   H03 9245   1.317   3.235   2.399  0.0386  1.4632 -0.7247
   77GLOH    O1 9246   1.368   3.180   2.337 -0.3059  0.1105  0.1498
   77GLOH    C1 9247   1.437   3.266   2.246  0.5011  0.5398  0.6397
   77GLOH   H02 9248   1.539   3.281   2.280  0.7079 -2.2510  1.4182
   77GLOH   H08 9249   1.391   3.364   2.235 -0.6066  0.0899  1.1556
   77GLOH    C2 9250   1.453   3.216   2.104  0.8390  0.3845 -0.3334
   77GLOH   H04 9251   1.350   3.223   2.067  0.7476  1.5639  0.1110
   77GLOH    O2 9252   1.542   3.302   2.023  0.0941 -0.3184  0.3415
   77GLOH   H05 9253   1.550   3.264   1.934  1.7568 -0.7400  0.6486
   77GLOH    C3 9254   1.502   3.067   2.101  0.2380  0.3040 -0.1658
   77GLOH   H06 9255   1.600   3.048   2.143 -0.8849 -0.8220  2.0500
   77GLOH   H07 9256   1.493   3.040   1.996 -3.0212  1.7641 -0.3366
   77GLOH    O3 9257   1.418   2.986   2.184 -0.1237  0.0640 -0.3715
   77GLOH   H01 9258   1.393   3.041   2.260  2.1746 -0.7475  1.0295
   78GLOH   H03 9259   3.688   3.662   1.775 -1.7575  0.6914  2.6439
   78GLOH    O1 9260   3.729   3.743   1.810  0.3967  0.6384  0.3247
   78GLOH    C1 9261   3.866   3.747   1.757 -0.1732  0.3977 -0.1163
   78GLOH   H02 9262   3.922   3.831   1.799 -0.0483  1.0604 -1.5745
   78GLOH   H08 9263   3.868   3.759   1.649  0.8328 -0.5773 -0.2139
   78GLOH    C2 9264   3.940   3.621   1.786  0.3121  0.1878  0.2040
   78GLOH   H04 9265   3.891   3.550   1.718 -1.1806 -0.3727  1.8484
   78GLOH    O2 9266   4.073   3.628   1.732  0.1786 -0.4574 -0.2291
   78GLOH   H05 9267   4.055   3.618   1.637 -2.3977 -0.4589  0.2420
   78GLOH    C3 9268   3.926   3.581   1.932 -0.3816 -0.7536  0.2577
   78GLOH   H06 9269   3.823   3.548   1.949  0.0819 -1.6288  1.4300
   78GLOH   H07 9270   3.942   3.670   1.992 -1.1307  0.6121 -1.5179
   78GLOH    O3 9271   4.023   3.485   1.974 -0.2693  0.4097  0.0979
   78GLOH   H01 9272   3.985   3.407   2.019 -3.1734 -0.0038 -2.8566
   79GLOH   H03 9273   4.551   1.344   2.674  2.5305  3.3357  3.9180
   79GLOH    O1 9274   4.630   1.351   2.617  0.1929 -0.5829 -0.1038
   79GLOH    C1 9275   4.635   1.482   2.565  1.0642 -0.1055  0.2860
   79GLOH   H02 9276   4.738   1.510   2.587 -0.0320  2.2677  2.6610
   79GLOH   H08 9277   4.583   1.564   2.615  1.8448  0.8322 -0.4156
   79GLOH    C2 9278   4.603   1.473   2.416  0.3443 -0.0535  0.5627
   79GLOH   H04 9279   4.647   1.382   2.373  0.9083  0.8918 -0.9189
   79GLOH    O2 9280   4.467   1.456   2.375 -0.6044 -0.0673 -0.8212
   79GLOH   H05 9281   4.447   1.448   2.280 -0.6762 -1.6554 -0.6862
   79GLOH    C3 9282   4.669   1.587   2.331 -0.0758  0.3377 -0.2166
   79GLOH   H06 9283   4.657   1.594   2.223  1.4024 -0.2608 -0.4297
   79GLOH   H07 9284   4.777   1.580   2.346 -0.0810 -0.4273 -0.5546
   79GLOH    O3 9285   4.636   1.716   2.380  0.2684  0.1262  0.2488
   79GLOH   H01 9286   4.591   1.762   2.306  1.5808  2.0745  0.6337
   80GLOH   H03 9287   3.370   4.001   1.163  0.9000  1.7635  1.8160
   80GLOH    O1 9288   3.383   4.085   1.116  0.3090  0.5996 -0.4970
   80GLOH    C1 9289   3.520   4.086   1.087  0.1106  0.3195  0.3813
   80GLOH   H02 9290   3.576   4.112   1.177 -3.6982 -0.6228  3.1405
   80GLOH   H08 9291   3.536   4.177   1.029 -3.0425  1.4355  1.1891
   80GLOH    C2 9292   3.578   3.960   1.020  0.3605  0.0855  0.2677
   80GLOH   H04 9293   3.528   3.944   0.923  0.3740  0.7285  0.1545
   80GLOH    O2 9294   3.722   3.984   0.998  0.3417 -1.0109  0.0566
   80GLOH   H05 9295   3.761   3.909   0.949 -1.0250 -1.5023 -0.2914
   80GLOH    C3 9296   3.561   3.836   1.112 -0.2512  0.0769 -0.1718
   80GLOH   H06 9297   3.633   3.847   1.193 -0.9487 -0.8992  0.5899
   80GLOH   H07 9298   3.587   3.750   1.051  3.8045  1.5166 -0.6640
   80GLOH    O3 9299   3.421   3.834   1.157 -0.1015  0.6752 -0.8865
   80GLOH   H01 9300   3.385   3.745   1.140  0.4031  0.1531  0.7414
   81GLOH   H03 9301   0.452   4.457   0.433 -0.1745 -1.3983  1.5808
   81GLOH    O1 9302   0.513   4.499   0.496  0.1653  0.0996  0.2995
   81GLOH    C1 9303   0.629   4.554   0.423  0.0337 -0.6037  0.0443
   81GLOH   H02 9304   0.616   4.657   0.391 -1.9737 -1.4207 -1.9028
   81GLOH   H08 9305   0.648   4.498   0.331 -1.3835 -0.0710 -0.5872
   81GLOH    C2 9306   0.767   4.553   0.494 -0.6015 -0.2864  0.0194
   81GLOH   H04 9307   0.776   4.454   0.541  0.7724  0.7746  2.1111
   81GLOH    O2 9308   0.866   4.590   0.393  0.1675 -0.0958 -0.0710
   81GLOH   H05 9309   0.871   4.687   0.401 -2.9073  0.0278  0.7154
   81GLOH    C3 9310   0.770   4.649   0.611  1.0226 -1.2164 -0.7096
   81GLOH   H06 9311   0.871   4.644   0.651  0.7233 -2.0725 -0.0323
   81GLOH   H07 9312   0.697   4.619   0.686  2.0113  0.7496  1.0823
   81GLOH    O3 9313   0.735   4.786   0.578  0.1388  0.0153  0.0953
   81GLOH   H01 9314   0.817   4.831   0.550 -0.0576  0.1702 -0.2379
   82GLOH   H03 9315   1.750   2.237   0.530 -0.7245  0.1727 -0.9026
   82GLOH    O1 9316   1.814   2.301   0.496  0.0416 -0.2559 -0.2816
   82GLOH    C1 9317   1.949   2.248   0.474  0.0774 -0.1833  0.0030
   82GLOH   H02 9318   1.972   2.179   0.555  0.8181 -0.5276 -0.4892
   82GLOH   H08 9319   2.025   2.326   0.474  1.3503 -1.4027  0.7723
   82GLOH    C2 9320   1.970   2.169   0.345 -0.3781 -0.2643  0.4363
   82GLOH   H04 9321   1.997   2.240   0.266  1.0095 -1.3066 -0.0506
   82GLOH    O2 9322   2.072   2.065   0.363  0.2571 -0.1196 -0.2475
   82GLOH   H05 9323   2.092   2.033   0.274  2.2581 -1.3958  0.6379
   82GLOH    C3 9324   1.840   2.096   0.310  0.2541  0.2596  0.4060
   82GLOH   H06 9325   1.859   2.019   0.234 -1.0890 -0.3745  0.6831
   82GLOH   H07 9326   1.772   2.167   0.263  0.9336  0.3088 -0.5285
   82GLOH    O3 9327   1.785   2.041   0.425 -0.2088 -0.7834 -0.3538
   82GLOH   H01 9328   1.847   1.988   0.479  0.5721  1.1965  0.7833
   83GLOH   H03 9329   3.978   8.113   0.148 -0.4342  0.9534  0.6386
   83GLOH    O1 9330   3.955   8.072   0.234  0.1721 -0.4029  0.1743
   83GLOH    C1 9331   3.859   8.157   0.293  0.1330  0.1467 -0.4577
   83GLOH   H02 9332   3.816   8.104   0.379  2.2264 -3.3199 -1.4330
   83GLOH   H08 9333   3.778   8.173   0.222 -0.2594 -1.1994 -0.3255
   83GLOH    C2 9334   3.928   8.287   0.337  0.3845 -0.2138 -0.0926
   83GLOH   H04 9335   4.025   8.263   0.384  1.5857  1.7015 -1.5491
   83GLOH    O2 9336   3.953   8.357   0.216 -0.3274  0.5270  0.4985
   83GLOH   H05 9337   4.018   8.423   0.247 -2.3298  2.3456  0.9078
   83GLOH    C3 9338   3.839   8.365   0.445 -0.5906 -0.5127 -0.9816
   83GLOH   H06 9339   3.737   8.370   0.406 -0.8987 -1.8919 -0.3617
   83GLOH   H07 9340   3.862   8.470   0.463 -1.3769 -0.8188  2.0143
   83GLOH    O3 9341   3.829   8.298   0.573 -0.2119 -0.0135  0.2581
   83GLOH   H01 9342   3.749   8.243   0.573 -1.1833  1.2709 -2.6903
   84GLOH   H03 9343   9.236   3.715   1.178 -0.6500  0.4563 -1.0915
   84GLOH    O1 9344   9.270   3.674   1.096  0.2164  0.0092 -0.5129
   84GLOH    C1 9345   9.324   3.770   1.003 -0.9750 -0.0329 -0.1667
   84GLOH   H02 9346   9.402   3.721   0.946 -0.7356  3.4769 -3.0212
   84GLOH   H08 9347   9.369   3.861   1.044 -2.5273 -0.0578  1.6765
   84GLOH    C2 9348   9.211   3.819   0.902  0.0493 -0.4972 -0.5813
   84GLOH   H04 9349   9.134   3.866   0.964 -0.5734 -3.2198  0.8022
   84GLOH    O2 9350   9.269   3.914   0.807  0.1697 -0.0260 -0.4912
   84GLOH   H05 9351   9.357   3.943   0.837 -0.3208  0.1888  0.7768
   84GLOH    C3 9352   9.143   3.696   0.836  0.7402  0.4200  0.7781
   84GLOH   H06 9353   9.112   3.630   0.917  0.2928 -1.1284 -0.6237
   84GLOH   H07 9354   9.216   3.635   0.783 -1.9667 -0.6101 -1.9183
   84GLOH    O3 9355   9.039   3.736   0.745 -0.4159 -0.1935  0.0668
   84GLOH   H01 9356   9.075   3.722   0.656 -0.3585  1.8689 -0.2683
   85GLOH   H03 9357   3.887   3.801   2.335 -0.0318 -1.0896  0.1666
   85GLOH    O1 9358   3.971   3.761   2.366  0.3937 -0.5471 -0.2722
   85GLOH    C1 9359   4.079   3.805   2.282 -0.0405 -0.0554  0.8422
   85GLOH   H02 9360   4.085   3.913   2.268  0.2332 -0.1102  0.5386
   85GLOH   H08 9361   4.069   3.766   2.181 -0.1177  0.7838  0.5236
   85GLOH    C2 9362   4.202   3.735   2.336 -0.9230 -0.2442 -0.0992
   85GLOH   H04 9363   4.190   3.626   2.336 -0.6949 -0.2714 -0.7931
   85GLOH    O2 9364   4.324   3.758   2.254 -0.0683 -0.1921  0.2490
   85GLOH   H05 9365   4.317   3.704   2.174  2.9383  1.7095 -1.4125
   85GLOH    C3 9366   4.242   3.785   2.479 -0.0016  0.0490 -0.9090
   85GLOH   H06 9367   4.150   3.797   2.536 -1.8722 -0.4291 -3.7485
   85GLOH   H07 9368   4.276   3.888   2.469  2.5499 -0.2201  3.6425
   85GLOH    O3 9369   4.332   3.698   2.557  0.0506  0.1032 -0.0784
   85GLOH   H01 9370   4.403   3.751   2.597 -0.6317  0.0894  1.1611
   86GLOH   H03 9371   2.038   6.804   2.575 -0.5700 -1.4493  1.6849
   86GLOH    O1 9372   2.015   6.740   2.505 -0.5469 -0.1521  0.4747
   86GLOH    C1 9373   2.056   6.618   2.571  0.5386 -0.0013 -0.2979
   86GLOH   H02 9374   1.978   6.544   2.552 -0.2327  0.5715  0.5925
   86GLOH   H08 9375   2.060   6.633   2.679 -1.2248 -0.8597 -0.0800
   86GLOH    C2 9376   2.194   6.577   2.521  0.0728  0.2545 -0.0757
   86GLOH   H04 9377   2.202   6.473   2.554 -1.7751 -0.6385 -2.2998
   86GLOH    O2 9378   2.202   6.577   2.374 -0.1259  0.2453 -0.3371
   86GLOH   H05 9379   2.178   6.666   2.344  2.1779  2.3207  3.6145
   86GLOH    C3 9380   2.313   6.643   2.596  0.7011 -0.8401  0.1629
   86GLOH   H06 9381   2.401   6.606   2.543 -0.5564 -0.8324 -1.9748
   86GLOH   H07 9382   2.316   6.598   2.695 -1.5137  0.0203  0.6393
   86GLOH    O3 9383   2.301   6.789   2.607 -0.3515 -0.5377  0.7297
   86GLOH   H01 9384   2.284   6.826   2.518  1.4049 -1.1693  0.1139
   87GLOH   H03 9385   1.811   1.559   1.484 -1.2630 -2.0539 -1.6867
   87GLOH    O1 9386   1.727   1.589   1.522  0.2451 -0.2080  0.3215
   87GLOH    C1 9387   1.658   1.493   1.602  0.0085 -0.1006 -0.0435
   87GLOH   H02 9388   1.709   1.485   1.698 -1.2879  0.3610  0.6804
   87GLOH   H08 9389   1.657   1.393   1.559  1.4216 -0.4132  0.6234
   87GLOH    C2 9390   1.507   1.523   1.616  0.2171 -0.7423  0.5870
   87GLOH   H04 9391   1.475   1.552   1.515 -0.7882 -1.6615  0.6290
   87GLOH    O2 9392   1.437   1.412   1.670 -0.8779  0.1888 -0.7692
   87GLOH   H05 9393   1.354   1.444   1.708 -0.9665 -2.1890  1.1190
   87GLOH    C3 9394   1.491   1.647   1.706 -0.3463 -0.0641  0.0611
   87GLOH   H06 9395   1.484   1.609   1.808 -0.8164  0.2511  0.1438
   87GLOH   H07 9396   1.392   1.683   1.677  0.2745  0.2400 -1.7865
   87GLOH    O3 9397   1.581   1.757   1.695 -0.2373 -0.0497  0.0191
   87GLOH   H01 9398   1.675   1.732   1.699 -0.4883 -1.3211 -1.4260
   88GLOH   H03 9399   4.109   2.810   1.826  0.0349 -1.1166 -1.8996
   88GLOH    O1 9400   4.013   2.816   1.811 -0.1210 -0.2667 -0.6844
   88GLOH    C1 9401   3.959   2.945   1.852  0.0841 -0.1261 -0.3004
   88GLOH   H02 9402   4.022   2.995   1.925  0.6822 -2.1940  0.6351
   88GLOH   H08 9403   3.866   2.934   1.906 -0.8204 -0.9310 -1.9829
   88GLOH    C2 9404   3.945   3.043   1.733  0.1132  0.7508  0.7368
   88GLOH   H04 9405   3.870   3.012   1.658  1.5517 -0.2336 -0.3263
   88GLOH    O2 9406   3.891   3.167   1.786  0.3170 -0.1623  0.3413
   88GLOH   H05 9407   3.963   3.231   1.797 -0.4495  0.5688  1.2254
   88GLOH    C3 9408   4.076   3.044   1.657  0.5644 -0.0372 -0.0187
   88GLOH   H06 9409   4.083   2.949   1.605  0.6430 -0.7922  1.3645
   88GLOH   H07 9410   4.152   3.042   1.735 -0.7207  1.3201  1.2969
   88GLOH    O3 9411   4.099   3.159   1.583 -0.3776 -0.0686  0.2664
   88GLOH   H01 9412   4.118   3.235   1.641 -1.4248  0.6360 -0.3115
   89GLOH   H03 9413   0.839   5.842   2.560 -1.0509 -0.0169 -1.7926
   89GLOH    O1 9414   0.834   5.744   2.561  0.5789 -0.1394  0.2288
   89GLOH    C1 9415   0.968   5.697   2.578  0.1393 -0.1117  0.3356
   89GLOH   H02 9416   1.024   5.752   2.654 -1.4531  0.0076  1.4404
   89GLOH   H08 9417   1.023   5.700   2.484 -1.8315  0.2385 -0.8389
   89GLOH    C2 9418   0.972   5.549   2.617  0.2672 -0.1346 -0.4481
   89GLOH   H04 9419   0.892   5.519   2.686 -0.4251 -1.2766 -1.7080
   89GLOH    O2 9420   0.958   5.473   2.501  0.2991  0.0740 -0.1061
   89GLOH   H05 9421   0.877   5.497   2.453 -0.7042 -0.2296  1.3763
   89GLOH    C3 9422   1.106   5.522   2.687  0.2319  0.0872  0.1037
   89GLOH   H06 9423   1.186   5.557   2.622  1.1000  0.8700  1.5506
   89GLOH   H07 9424   1.116   5.415   2.705 -2.5109 -0.9079 -3.6348
   89GLOH    O3 9425   1.103   5.592   2.813 -0.3083  0.4976 -0.2859
   89GLOH   H01 9426   1.151   5.536   2.878  0.6460 -3.3391 -4.0299
   90GLOH   H03 9427   2.822   6.160   2.564 -0.8133  1.9232  0.7174
   90GLOH    O1 9428   2.878   6.230   2.525  0.6864  0.2007 -0.3371
   90GLOH    C1 9429   2.869   6.358   2.589  0.3462 -0.0448 -0.1942
   90GLOH   H02 9430   2.971   6.388   2.610 -0.1450  1.9875 -0.6145
   90GLOH   H08 9431   2.812   6.353   2.682 -0.6204 -1.7332 -0.8572
   90GLOH    C2 9432   2.822   6.478   2.504  0.3310  0.5690  0.3436
   90GLOH   H04 9433   2.730   6.443   2.455  2.0938 -2.8210 -0.6400
   90GLOH    O2 9434   2.815   6.592   2.593  0.3060  0.0591  0.6548
   90GLOH   H05 9435   2.731   6.634   2.620  1.9184  2.8547  1.5080
   90GLOH    C3 9436   2.904   6.501   2.379 -0.4270 -0.2045  0.1058
   90GLOH   H06 9437   3.001   6.540   2.409  0.7315 -2.9684  0.0909
   90GLOH   H07 9438   2.849   6.575   2.319  0.7038  0.2558 -0.3757
   90GLOH    O3 9439   2.920   6.376   2.311  0.3691 -0.3443 -0.3432
   90GLOH   H01 9440   2.900   6.313   2.383  1.3269 -0.9719 -0.6149
   91GLOH   H03 9441   3.788   1.212   2.032  0.3424 -0.2633  0.4162
   91GLOH    O1 9442   3.815   1.261   1.952 -0.4633  0.0229  0.3119
   91GLOH    C1 9443   3.696   1.298   1.876 -0.1168  0.0702 -0.3280
   91GLOH   H02 9444   3.719   1.354   1.785 -5.8506 -0.5313 -2.3712
   91GLOH   H08 9445   3.639   1.360   1.945  2.0156  0.1439  1.4330
   91GLOH    C2 9446   3.623   1.173   1.830 -0.2201 -0.2375 -0.4269
   91GLOH   H04 9447   3.536   1.207   1.773  0.4892  1.1576 -0.7078
   91GLOH    O2 9448   3.701   1.101   1.736 -0.0994  0.3837 -0.0394
   91GLOH   H05 9449   3.786   1.082   1.778  0.3227 -0.6689 -1.3425
   91GLOH    C3 9450   3.589   1.078   1.953 -0.2055  0.4345  0.1348
   91GLOH   H06 9451   3.537   1.134   2.030  1.7605  2.5068  0.0114
   91GLOH   H07 9452   3.680   1.038   1.998 -0.7762  0.1023  1.0023
   91GLOH    O3 9453   3.498   0.967   1.916  0.2982 -0.1653 -0.3022
   91GLOH   H01 9454   3.549   0.884   1.919  0.3126 -0.1375  0.4765
   92GLOH   H03 9455   2.985   6.316   0.616 -1.6291  0.7025  1.1551
   92GLOH    O1 9456   2.991   6.233   0.667 -0.3279  0.1769  0.1853
   92GLOH    C1 9457   2.921   6.239   0.796 -0.6267 -0.6059  0.1614
   92GLOH   H02 9458   2.821   6.203   0.772 -0.9418  1.2427 -1.4757
   92GLOH   H08 9459   2.902   6.341   0.831  1.6493 -0.2817  0.5138
   92GLOH    C2 9460   2.985   6.164   0.909 -0.4563 -0.5663 -0.2497
   92GLOH   H04 9461   3.067   6.212   0.964  0.3134 -1.2413 -0.7925
   92GLOH    O2 9462   2.883   6.157   1.008 -0.3807  0.2105  0.3884
   92GLOH   H05 9463   2.904   6.108   1.089  1.2427 -1.6289 -1.1147
   92GLOH    C3 9464   3.019   6.020   0.872 -0.8971 -0.4421  0.4565
   92GLOH   H06 9465   3.056   6.014   0.770 -1.6093 -1.7894  0.2596
   92GLOH   H07 9466   2.919   5.977   0.874 -1.7556  1.4898  0.0919
   92GLOH    O3 9467   3.099   5.949   0.969 -0.5132  0.0841  0.5001
   92GLOH   H01 9468   3.120   5.864   0.926  0.1461  0.5673 -0.1304
   93GLOH   H03 9469   1.659   5.676   2.147  0.0923  0.1619  0.3774
   93GLOH    O1 9470   1.743   5.725   2.160  0.1572  0.1466  0.0186
   93GLOH    C1 9471   1.725   5.831   2.253  0.5515  0.5077  0.3226
   93GLOH   H02 9472   1.723   5.788   2.353  1.0219 -1.4804 -0.5036
   93GLOH   H08 9473   1.634   5.882   2.218  0.1708 -1.9273 -2.4441
   93GLOH    C2 9474   1.840   5.930   2.265 -0.4926  0.5431 -0.1989
   93GLOH   H04 9475   1.866   5.978   2.169 -4.9346  0.5411 -1.4925
   93GLOH    O2 9476   1.802   6.033   2.354  0.0949 -0.5273  0.3621
   93GLOH   H05 9477   1.875   6.088   2.388 -1.0977  0.8193  0.8108
   93GLOH    C3 9478   1.966   5.857   2.315 -0.2550  1.0694 -0.7937
   93GLOH   H06 9479   1.979   5.759   2.270 -0.6503  0.8406 -0.4062
   93GLOH   H07 9480   1.969   5.856   2.424 -0.8159  0.2398 -0.7869
   93GLOH    O3 9481   2.081   5.943   2.289  0.3097  0.1342 -0.0396
   93GLOH   H01 9482   2.073   5.987   2.202 -2.3681  2.0707  1.1164
   94GLOH   H03 9483   1.310   6.271   1.009  0.3337  0.3640 -0.3841
   94GLOH    O1 9484   1.252   6.344   1.038 -0.0847 -0.0744 -0.0963
   94GLOH    C1 9485   1.233   6.306   1.175 -0.2671 -0.1332  0.4488
   94GLOH   H02 9486   1.211   6.393   1.237 -3.3231  0.5047 -1.4026
   94GLOH   H08 9487   1.325   6.257   1.207  0.0799  0.6413  0.6337
   94GLOH    C2 9488   1.115   6.216   1.197  0.2209 -0.0951  0.3681
   94GLOH   H04 9489   1.101   6.197   1.304  0.4158  0.5507  0.5091
   94GLOH    O2 9490   0.997   6.282   1.140 -0.2986  0.0827  0.5586
   94GLOH   H05 9491   0.920   6.280   1.198  0.4786 -3.2951  1.5980
   94GLOH    C3 9492   1.132   6.083   1.124  0.3792 -0.0201 -0.1028
   94GLOH   H06 9493   1.117   6.107   1.019 -3.2043  1.4465  0.6670
   94GLOH   H07 9494   1.046   6.021   1.152  0.2778  0.3956  0.5288
   94GLOH    O3 9495   1.256   6.016   1.151  0.3291  0.0560 -0.2445
   94GLOH   H01 9496   1.238   5.921   1.138  1.8821 -0.3088  0.1513
   95GLOH   H03 9497   9.492   4.570   1.047  0.4384 -0.0928  0.2398
   95GLOH    O1 9498   9.558   4.631   1.084 -0.2999  0.5412  0.5219
   95GLOH    C1 9499   9.572   4.719   0.978  0.0821 -0.4795  0.7239
   95GLOH   H02 9500   9.477   4.763   0.948  0.0001 -1.5823 -0.7356
   95GLOH   H08 9501   9.610   4.677   0.885 -2.0937 -0.7663 -0.0741
   95GLOH    C2 9502   9.662   4.839   1.007  0.2627 -0.2932 -0.3664
   95GLOH   H04 9503   9.765   4.803   0.994  0.1549 -0.0994 -1.8477
   95GLOH    O2 9504   9.646   4.945   0.910 -0.2822 -0.0154  0.1702
   95GLOH   H05 9505   9.692   4.920   0.829 -0.1373  0.7224  0.0219
   95GLOH    C3 9506   9.638   4.882   1.155 -0.1811  0.1056  0.2284
   95GLOH   H06 9507   9.533   4.906   1.148  0.0101  0.7544 -0.4510
   95GLOH   H07 9508   9.688   4.978   1.170 -0.9031  0.6937 -1.0637
   95GLOH    O3 9509   9.674   4.787   1.255 -0.1796  0.6042 -0.4437
   95GLOH   H01 9510   9.618   4.709   1.237 -2.0569  1.3949  1.8422
   96GLOH   H03 9511   3.329   7.898   2.023 -0.3548  0.0543  1.5171
   96GLOH    O1 9512   3.405   7.897   2.084  0.5214  0.5858  0.4594
   96GLOH    C1 9513   3.514   7.827   2.018  0.1779 -0.3172  0.1933
   96GLOH   H02 9514   3.468   7.772   1.937  1.5604 -1.0322 -0.1191
   96GLOH   H08 9515   3.548   7.750   2.088 -2.3260 -0.7192  0.9944
   96GLOH    C2 9516   3.631   7.913   1.955  0.1399 -0.0503  0.3773
   96GLOH   H04 9517   3.698   7.839   1.909 -0.6382 -0.6116  0.1221
   96GLOH    O2 9518   3.578   7.996   1.855 -0.0360 -0.0587  0.2862
   96GLOH   H05 9519   3.510   7.939   1.816 -0.9942 -0.3248  2.2718
   96GLOH    C3 9520   3.726   7.986   2.061 -0.4009 -0.2525  0.1765
   96GLOH   H06 9521   3.667   8.069   2.101  0.7323  1.8649 -2.3804
   96GLOH   H07 9522   3.811   8.026   2.007 -1.3577  1.3806 -0.1658
   96GLOH    O3 9523   3.759   7.882   2.157 -0.4711 -0.1305 -0.1749
   96GLOH   H01 9524   3.778   7.923   2.244 -2.4346 -2.0246  1.1913
   97GLOH   H03 9525   4.492   4.125   2.409 -0.6132  0.6893 -0.0235
   97GLOH    O1 9526   4.507   4.150   2.502 -0.3991  1.0574 -0.1549
   97GLOH    C1 9527   4.646   4.146   2.545  0.7464  0.2948 -0.6423
   97GLOH   H02 9528   4.705   4.206   2.476  1.5994 -1.3315 -1.3538
   97GLOH   H08 9529   4.695   4.050   2.526 -1.4453 -1.3587  1.7109
   97GLOH    C2 9530   4.671   4.173   2.690  0.0984  0.0653 -0.3072
   97GLOH   H04 9531   4.605   4.108   2.750 -2.2372  3.3151  0.7829
   97GLOH    O2 9532   4.810   4.159   2.726 -0.3149 -0.0357  0.5897
   97GLOH   H05 9533   4.811   4.148   2.823 -1.7862 -0.0229  0.6253
   97GLOH    C3 9534   4.630   4.317   2.718  0.0255 -0.5446  0.4127
   97GLOH   H06 9535   4.695   4.387   2.666  1.3819  0.0135  2.7640
   97GLOH   H07 9536   4.638   4.329   2.826  0.7201 -1.8685  0.5194
   97GLOH    O3 9537   4.496   4.330   2.672  0.5563 -0.3161  0.0940
   97GLOH   H01 9538   4.482   4.255   2.611  1.5631 -1.1556  0.8887
   98GLOH   H03 9539   0.813   5.520   0.420  0.2491 -1.4640  0.0257
   98GLOH    O1 9540   0.749   5.530   0.494  0.0712 -0.3073 -0.2737
   98GLOH    C1 9541   0.747   5.670   0.522  0.6029  0.2020  0.4794
   98GLOH   H02 9542   0.651   5.710   0.556 -0.3915  0.1591 -2.1893
   98GLOH   H08 9543   0.767   5.735   0.437  2.9823  0.0957  0.9209
   98GLOH    C2 9544   0.853   5.695   0.634 -0.3902 -0.4207  0.8600
   98GLOH   H04 9545   0.954   5.658   0.609  0.6680  2.4422  0.6290
   98GLOH    O2 9546   0.857   5.839   0.647  0.5787  0.3181 -0.2024
   98GLOH   H05 9547   0.940   5.861   0.694  0.2369 -0.4636  0.7859
   98GLOH    C3 9548   0.803   5.635   0.766 -0.9598  0.3208 -0.0710
   98GLOH   H06 9549   0.700   5.663   0.787 -0.9015  1.3152 -1.0859
   98GLOH   H07 9550   0.868   5.678   0.843  1.0359 -2.6328 -0.0261
   98GLOH    O3 9551   0.818   5.493   0.758 -0.0265  0.1940  0.3714
   98GLOH   H01 9552   0.777   5.474   0.672 -0.7846 -0.2741  0.8280
   99GLOH   H03 9553   0.390   3.303   0.241  0.3649 -0.2983  2.3396
   99GLOH    O1 9554   0.441   3.221   0.228  0.2898  0.0085 -0.0675
   99GLOH    C1 9555   0.373   3.118   0.314  0.6607  0.4133  0.6378
   99GLOH   H02 9556   0.422   3.101   0.410 -1.1148  1.2016  1.7037
   99GLOH   H08 9557   0.382   3.025   0.259  2.0293  1.7148 -1.4364
   99GLOH    C2 9558   0.225   3.144   0.343 -0.2662 -0.3113 -0.3730
   99GLOH   H04 9559   0.165   3.126   0.252 -1.1872  2.0295 -0.2649
   99GLOH    O2 9560   0.180   3.064   0.452  0.1305 -0.5295  0.2897
   99GLOH   H05 9561   0.086   3.045   0.441  0.1405 -0.9693  0.9638
   99GLOH    C3 9562   0.208   3.291   0.378  0.4901  0.8230 -0.0912
   99GLOH   H06 9563   0.272   3.298   0.466  0.5979  2.8284 -0.3096
   99GLOH   H07 9564   0.102   3.306   0.395  0.0788 -1.8013 -0.1675
   99GLOH    O3 9565   0.271   3.385   0.282 -0.5400 -0.1431 -0.1763
   99GLOH   H01 9566   0.231   3.472   0.299 -0.2830 -0.0641  0.0080
  100GLOH   H03 9567   3.825   8.942   2.194 -2.8117  0.9033  1.2427
  100GLOH    O1 9568   3.768   8.902   2.126  0.4037 -0.5695 -0.7060
  100GLOH    C1 9569   3.774   8.761   2.133  0.8996 -0.3402  0.2337
  100GLOH   H02 9570   3.857   8.726   2.194  1.2489  0.4822  0.2340
  100GLOH   H08 9571   3.789   8.725   2.031 -0.1571 -1.1197  0.3436
  100GLOH    C2 9572   3.637   8.711   2.189 -0.5413 -0.4364  1.0628
  100GLOH   H04 9573   3.559   8.730   2.114 -1.6045  3.3923  3.0242
  100GLOH    O2 9574   3.639   8.572   2.220 -0.0016 -0.2939 -0.5492
  100GLOH   H05 9575   3.559   8.562   2.275 -0.0029  0.2115 -0.4568
  100GLOH    C3 9576   3.588   8.792   2.309  0.6693 -0.1405 -0.0557
  100GLOH   H06 9577   3.491   8.754   2.341  1.8920 -4.5923 -1.1769
  100GLOH   H07 9578   3.575   8.896   2.280 -1.3221 -0.2535  0.3720
  100GLOH    O3 9579   3.669   8.785   2.427  0.0233  0.2470 -0.2031
  100GLOH   H01 9580   3.618   8.827   2.499  0.4263 -0.2128  0.3581
  101GLOH   H03 9581   2.683   6.281   1.748  1.3118  0.2975  0.3614
  101GLOH    O1 9582   2.690   6.378   1.757  0.1296  0.4022  0.2493
  101GLOH    C1 9583   2.682   6.393   1.897  0.2470 -0.0977  0.1704
  101GLOH   H02 9584   2.742   6.317   1.947 -2.4656 -1.1489  1.9513
  101GLOH   H08 9585   2.581   6.363   1.928  0.1615 -1.4293 -1.3548
  101GLOH    C2 9586   2.719   6.536   1.938  1.0730 -0.0195 -0.2296
  101GLOH   H04 9587   2.797   6.573   1.870 -0.6925  3.1357 -0.5969
  101GLOH    O2 9588   2.605   6.626   1.930 -0.1219  0.2153  0.3364
  101GLOH   H05 9589   2.573   6.641   1.840 -0.6433 -1.4083  0.2237
  101GLOH    C3 9590   2.783   6.531   2.078 -0.6617  0.0308  0.1453
  101GLOH   H06 9591   2.729   6.469   2.149 -0.4507  0.4169  0.6382
  101GLOH   H07 9592   2.785   6.634   2.113 -0.4165 -0.5041  1.7256
  101GLOH    O3 9593   2.922   6.476   2.076 -0.1737  0.3057 -0.0533
  101GLOH   H01 9594   2.943   6.441   2.165  1.7741  1.4480 -0.0174
  102GLOH   H03 9595   4.629   1.911   1.634  2.4119  0.8170 -4.4874
  102GLOH    O1 9596   4.546   1.951   1.603 -0.0509 -0.2893  0.2189
  102GLOH    C1 9597   4.446   1.848   1.618 -0.7231  0.4899 -0.4239
  102GLOH   H02 9598   4.449   1.805   1.518  3.2506  0.1641 -0.2446
  102GLOH   H08 9599   4.347   1.890   1.633 -1.0701 -0.1834 -0.8176
  102GLOH    C2 9600   4.480   1.751   1.737  0.1782  0.0633  0.1893
  102GLOH   H04 9601   4.497   1.814   1.825  0.7199 -0.5197  0.5106
  102GLOH    O2 9602   4.376   1.656   1.772 -0.2328 -0.6009  0.5987
  102GLOH   H05 9603   4.406   1.567   1.745  0.3451 -1.0802  2.7383
  102GLOH    C3 9604   4.614   1.673   1.718  0.4185  0.3801 -0.5041
  102GLOH   H06 9605   4.623   1.609   1.630  0.6085 -1.4667  0.8250
  102GLOH   H07 9606   4.630   1.601   1.798  2.1179  0.8708 -0.3716
  102GLOH    O3 9607   4.718   1.770   1.714  0.1854 -0.0990  0.1762
  102GLOH   H01 9608   4.721   1.822   1.796 -2.9370 -0.4669  0.5979
  103GLOH   H03 9609   2.161   2.031   2.166  0.4429 -1.6536  0.2891
  103GLOH    O1 9610   2.258   2.034   2.177  0.5347 -0.5846 -0.7293
  103GLOH    C1 9611   2.303   1.935   2.278 -1.4894 -0.2924 -0.4230
  103GLOH   H02 9612   2.257   1.838   2.262 -0.0479 -0.8854 -1.0321
  103GLOH   H08 9613   2.270   1.979   2.372 -0.0106 -2.0071  0.9394
  103GLOH    C2 9614   2.460   1.931   2.280 -0.5818 -0.0374  0.0758
  103GLOH   H04 9615   2.507   2.031   2.280  2.7987 -1.5376 -1.9971
  103GLOH    O2 9616   2.506   1.867   2.403 -0.0713 -0.2332  0.2143
  103GLOH   H05 9617   2.593   1.825   2.404 -0.1660 -0.4312  0.2562
  103GLOH    C3 9618   2.521   1.862   2.160  0.1532  0.5415  0.2148
  103GLOH   H06 9619   2.505   1.754   2.168 -0.4927  0.6293  0.0932
  103GLOH   H07 9620   2.629   1.874   2.162  0.2587 -0.2976 -0.3489
  103GLOH    O3 9621   2.459   1.915   2.045 -0.0054  0.2831  0.0664
  103GLOH   H01 9622   2.363   1.931   2.046  0.0086  0.3660  0.1005
  104GLOH   H03 9623   3.177   8.637   2.150  0.4720  1.3813  0.6472
  104GLOH    O1 9624   3.168   8.669   2.242  0.0339 -0.4056  1.2578
  104GLOH    C1 9625   3.036   8.629   2.294 -0.6828 -0.4381  0.8986
  104GLOH   H02 9626   3.004   8.540   2.241  1.2385 -0.2796 -0.5751
  104GLOH   H08 9627   2.963   8.704   2.266  1.7066  1.4036 -0.5927
  104GLOH    C2 9628   3.051   8.597   2.444  0.1493 -0.0264  0.6099
  104GLOH   H04 9629   3.144   8.540   2.455 -0.6181 -1.5766 -0.8097
  104GLOH    O2 9630   3.064   8.729   2.508  0.0959  0.7725 -0.8447
  104GLOH   H05 9631   3.139   8.783   2.481  1.2362  0.5211  1.6676
  104GLOH    C3 9632   2.932   8.519   2.503  0.1272  0.0259  0.2322
  104GLOH   H06 9633   2.843   8.573   2.469  0.0248 -2.0815 -3.1317
  104GLOH   H07 9634   2.934   8.520   2.611  0.0162 -0.2586  0.2388
  104GLOH    O3 9635   2.922   8.381   2.466 -0.1248 -0.2633  0.3166
  104GLOH   H01 9636   2.828   8.363   2.488  0.1675 -0.7444  1.2190
  105GLOH   H03 9637   3.101   6.924   1.081 -0.3284 -1.2284  0.1556
  105GLOH    O1 9638   3.066   6.939   1.171  0.3157 -0.5416  0.3003
  105GLOH    C1 9639   2.995   7.065   1.161 -0.2022  0.6003 -0.2255
  105GLOH   H02 9640   2.960   7.108   1.255 -1.7794 -0.4575 -0.3015
  105GLOH   H08 9641   2.907   7.047   1.099  0.7801 -1.7600 -0.9914
  105GLOH    C2 9642   3.083   7.177   1.105 -0.0042 -0.3552  0.4355
  105GLOH   H04 9643   3.154   7.129   1.035  0.3977 -1.7272  1.7513
  105GLOH    O2 9644   3.009   7.272   1.028 -0.3518  0.2709  0.0110
  105GLOH   H05 9645   3.071   7.319   0.970  0.7399 -0.4307  0.6025
  105GLOH    C3 9646   3.155   7.240   1.224 -0.3754 -0.0512 -0.0177
  105GLOH   H06 9647   3.213   7.164   1.276  2.0848  2.0873  0.4786
  105GLOH   H07 9648   3.071   7.274   1.286 -0.2692  0.1232  0.0317
  105GLOH    O3 9649   3.243   7.356   1.195  0.4559  0.0242  0.1917
  105GLOH   H01 9650   3.199   7.442   1.207 -1.6101 -0.9058 -0.3742
  106GLOH   H03 9651   2.213   7.874   2.626  1.9432  0.8502  0.0868
  106GLOH    O1 9652   2.240   7.785   2.656 -0.0622 -0.0147 -0.6099
  106GLOH    C1 9653   2.128   7.700   2.633 -0.5150 -0.3439  0.0729
  106GLOH   H02 9654   2.092   7.704   2.530 -1.2907  1.0045  0.3808
  106GLOH   H08 9655   2.041   7.738   2.687  0.4963 -0.2554  1.6780
  106GLOH    C2 9656   2.176   7.565   2.676 -0.8505  0.3474 -0.6747
  106GLOH   H04 9657   2.193   7.564   2.785  0.6843 -5.0753 -0.8127
  106GLOH    O2 9658   2.071   7.472   2.654 -0.5780 -0.3755  0.4046
  106GLOH   H05 9659   2.086   7.398   2.715 -1.3101  0.1235  1.2027
  106GLOH    C3 9660   2.304   7.520   2.604 -0.0584  0.1990 -0.1008
  106GLOH   H06 9661   2.357   7.441   2.657  2.2181 -0.7943 -3.7087
  106GLOH   H07 9662   2.369   7.607   2.610  0.0291  0.0737  0.7558
  106GLOH    O3 9663   2.289   7.477   2.467  0.3300 -0.1289  0.2343
  106GLOH   H01 9664   2.220   7.408   2.468 -0.0908  0.2623 -0.8690
  107GLOH   H03 9665   4.143   2.265   2.279 -1.2652  0.7730  0.8207
  107GLOH    O1 9666   4.071   2.235   2.220 -0.7279  0.2684  0.4200
  107GLOH    C1 9667   4.005   2.129   2.286  0.4377 -0.8012 -0.6538
  107GLOH   H02 9668   3.999   2.162   2.390 -0.9093 -0.3894 -0.8568
  107GLOH   H08 9669   4.071   2.042   2.291 -0.3721 -1.3787  0.1422
  107GLOH    C2 9670   3.866   2.083   2.240  0.0848  0.5025  0.0801
  107GLOH   H04 9671   3.863   2.097   2.131  0.6840 -1.4220 -0.2029
  107GLOH    O2 9672   3.853   1.940   2.265  0.0639 -0.0312 -0.7123
  107GLOH   H05 9673   3.933   1.893   2.237 -0.8853 -1.7638 -0.5944
  107GLOH    C3 9674   3.749   2.154   2.305 -0.4856 -0.7438  0.0195
  107GLOH   H06 9675   3.729   2.106   2.401  1.5278 -0.1012  0.7822
  107GLOH   H07 9676   3.664   2.131   2.241  0.3636  1.1832 -1.8441
  107GLOH    O3 9677   3.773   2.297   2.314 -0.2927 -0.3197 -0.0965
  107GLOH   H01 9678   3.861   2.319   2.277 -0.6036 -1.6952 -1.7189
  108GLOH   H03 9679   4.450   1.026   2.401  2.5786 -0.6832  0.3078
  108GLOH    O1 9680   4.433   0.930   2.397  0.1210 -0.2559  0.2166
  108GLOH    C1 9681   4.492   0.859   2.497  0.1992 -0.6084 -0.5097
  108GLOH   H02 9682   4.563   0.918   2.555  0.0771 -0.6211 -0.3463
  108GLOH   H08 9683   4.560   0.780   2.465  0.3719 -0.7920  0.3055
  108GLOH    C2 9684   4.396   0.835   2.615  0.7892 -0.4711 -0.3149
  108GLOH   H04 9685   4.318   0.767   2.577  1.5606 -0.2821 -2.2717
  108GLOH    O2 9686   4.465   0.771   2.724 -0.4503 -0.7667 -0.5161
  108GLOH   H05 9687   4.469   0.830   2.801  0.6201 -0.4425 -0.8096
  108GLOH    C3 9688   4.340   0.974   2.656  0.4562 -0.3853  1.1463
  108GLOH   H06 9689   4.315   1.035   2.570  2.5148 -0.6531  0.3222
  108GLOH   H07 9690   4.422   1.028   2.704 -2.0437  1.1854  3.8444
  108GLOH    O3 9691   4.227   0.976   2.754  0.1619  0.2072  0.9517
  108GLOH   H01 9692   4.196   1.067   2.772  1.2831  2.0025 -5.0815
  109GLOH   H03 9693   4.729   3.881   0.772  4.4444  0.9811  0.9545
  109GLOH    O1 9694   4.733   3.802   0.828  0.4107  0.2266  0.2983
  109GLOH    C1 9695   4.593   3.751   0.825 -0.9853  0.0297  0.4270
  109GLOH   H02 9696   4.565   3.746   0.720  1.2578 -1.8868 -0.1191
  109GLOH   H08 9697   4.516   3.810   0.876 -0.9036 -0.7740  1.4912
  109GLOH    C2 9698   4.595   3.615   0.891 -0.1767 -0.2943 -0.0419
  109GLOH   H04 9699   4.607   3.620   1.000  0.3915  0.6853 -0.1381
  109GLOH    O2 9700   4.469   3.539   0.870 -0.0775 -0.5881  0.1351
  109GLOH   H05 9701   4.473   3.475   0.798 -0.7953  0.7021 -1.0744
  109GLOH    C3 9702   4.708   3.519   0.842 -0.7103 -0.3416  0.0907
  109GLOH   H06 9703   4.692   3.499   0.737  0.5548 -1.1438  0.0405
  109GLOH   H07 9704   4.706   3.419   0.887  0.9751  0.5836  2.3857
  109GLOH    O3 9705   4.841   3.569   0.851 -0.5783  0.1941  0.7164
  109GLOH   H01 9706   4.834   3.658   0.889 -0.2732  0.2886  0.5521
  110GLOH   H03 9707   1.740   0.238   1.202 -0.7146  2.0463 -1.4865
  110GLOH    O1 9708   1.737   0.295   1.280 -0.3553  0.0316  0.0376
  110GLOH    C1 9709   1.867   0.358   1.295  0.7337 -0.3417  0.2357
  110GLOH   H02 9710   1.948   0.307   1.244  0.7678  2.3535 -2.5757
  110GLOH   H08 9711   1.884   0.361   1.402 -2.2589  0.5647  0.7439
  110GLOH    C2 9712   1.883   0.504   1.243 -0.0232  0.5996 -0.3601
  110GLOH   H04 9713   1.801   0.560   1.290 -0.4131  0.4623 -0.8824
  110GLOH    O2 9714   2.008   0.561   1.288 -0.4798  0.0281 -0.2300
  110GLOH   H05 9715   2.079   0.519   1.237  1.1944  0.8539  1.3617
  110GLOH    C3 9716   1.875   0.510   1.087 -0.1985 -0.7477 -0.0624
  110GLOH   H06 9717   1.955   0.446   1.051 -0.6821 -1.6170  0.3994
  110GLOH   H07 9718   1.901   0.610   1.052 -2.1580  0.2662  1.2834
  110GLOH    O3 9719   1.749   0.484   1.023 -1.0612 -0.1451  0.0346
  110GLOH   H01 9720   1.759   0.469   0.927  1.6922  4.2789 -0.5497
  111GLOH   H03 9721   9.739   4.820   0.070 -0.5815 -1.9974  1.0265
  111GLOH    O1 9722   9.787   4.780  -0.005 -0.0130 -0.0635  0.3125
  111GLOH    C1 9723   9.720   4.657  -0.043 -0.0540  0.1137 -0.1113
  111GLOH   H02 9724   9.724   4.643  -0.151  1.5699  0.6844 -0.1526
  111GLOH   H08 9725   9.615   4.654  -0.017 -0.2293  2.2007 -0.4240
  111GLOH    C2 9726   9.786   4.542   0.029  0.0263 -0.5367  0.0990
  111GLOH   H04 9727   9.773   4.565   0.136 -2.2984  0.7911 -0.4459
  111GLOH    O2 9728   9.715   4.419   0.001 -0.2665  0.4026 -0.3758
  111GLOH   H05 9729   9.632   4.422   0.051 -0.1033 -0.9192  0.0067
  111GLOH    C3 9730   9.931   4.539  -0.018 -0.2703 -0.5591  0.4839
  111GLOH   H06 9731   9.976   4.637  -0.000  0.0966 -0.5290 -0.5930
  111GLOH   H07 9732   9.922   4.524  -0.125 -1.1726  0.0312  0.4748
  111GLOH    O3 9733  10.021   4.435   0.032  0.5484  0.1580 -0.0204
  111GLOH   H01 9734  10.101   4.441  -0.024 -0.2323  0.2063 -1.1435
  112GLOH   H03 9735   3.735   4.905   0.270  0.2833 -2.6979  0.4077
  112GLOH    O1 9736   3.783   4.879   0.189 -0.3614 -0.5851 -0.7014
  112GLOH    C1 9737   3.923   4.906   0.207  0.0973 -0.6129  0.0203
  112GLOH   H02 9738   3.962   4.840   0.285  2.1388  0.9809  0.3852
  112GLOH   H08 9739   3.939   5.012   0.228 -1.8465 -0.2328 -0.3486
  112GLOH    C2 9740   4.012   4.888   0.084 -0.5952  0.5550 -0.2129
  112GLOH   H04 9741   4.010   4.782   0.052 -3.1004 -0.0238  1.6226
  112GLOH    O2 9742   3.969   4.972  -0.024 -0.1781 -0.3680 -0.5800
  112GLOH   H05 9743   3.877   4.944  -0.034 -0.2271 -0.4986  0.1791
  112GLOH    C3 9744   4.159   4.908   0.123 -0.7026 -0.9640 -0.3859
  112GLOH   H06 9745   4.169   5.011   0.157  1.0129 -1.2101 -0.0895
  112GLOH   H07 9746   4.220   4.905   0.033 -4.0618  2.6526 -2.9065
  112GLOH    O3 9747   4.212   4.829   0.227  1.2448  0.2129 -0.4216
  112GLOH   H01 9748   4.229   4.741   0.189  0.0996  0.2899 -1.1158
  113GLOH   H03 9749   3.577   2.432   1.690 -0.6371  0.0054  1.5225
  113GLOH    O1 9750   3.600   2.340   1.668 -0.0362  0.4638  0.1703
  113GLOH    C1 9751   3.706   2.292   1.753  1.0309 -0.5804  0.0027
  113GLOH   H02 9752   3.700   2.320   1.858 -0.1116  0.9732 -0.4557
  113GLOH   H08 9753   3.803   2.332   1.721  0.7183  0.6973  0.6107
  113GLOH    C2 9754   3.726   2.139   1.758  0.2621  0.3351 -0.5201
  113GLOH   H04 9755   3.819   2.111   1.810 -0.1669  1.3462  0.8167
  113GLOH    O2 9756   3.613   2.065   1.814 -0.4295  0.3225  0.3671
  113GLOH   H05 9757   3.535   2.117   1.840 -0.6528 -0.2845  0.8948
  113GLOH    C3 9758   3.768   2.089   1.620  0.0658  0.3105 -0.0030
  113GLOH   H06 9759   3.699   2.121   1.542  1.1850  1.7741 -0.4088
  113GLOH   H07 9760   3.770   1.980   1.623 -2.0506  0.1915 -1.7030
  113GLOH    O3 9761   3.898   2.146   1.581 -0.0998 -0.0505 -0.1745
  113GLOH   H01 9762   3.884   2.184   1.492  2.0305 -0.7465 -0.8507
  114GLOH   H03 9763   9.553   4.242   2.497 -0.3380  0.0442 -0.0670
  114GLOH    O1 9764   9.508   4.157   2.478  0.0790 -0.1171 -0.3411
  114GLOH    C1 9765   9.367   4.175   2.499  0.7602  0.3489  0.8096
  114GLOH   H02 9766   9.318   4.108   2.429 -1.0838  1.5602  0.9183
  114GLOH   H08 9767   9.349   4.280   2.478 -1.8544 -0.3077 -0.4137
  114GLOH    C2 9768   9.326   4.134   2.638  0.1708  0.3476  0.3641
  114GLOH   H04 9769   9.366   4.209   2.708 -0.9921 -0.0121  1.4138
  114GLOH    O2 9770   9.188   4.161   2.643  0.1002  0.1271 -0.1670
  114GLOH   H05 9771   9.159   4.138   2.733 -0.0817 -0.8276 -0.4682
  114GLOH    C3 9772   9.362   3.988   2.682  0.6086 -0.8587  0.5971
  114GLOH   H06 9773   9.468   3.973   2.664  0.4044 -0.0330 -1.5407
  114GLOH   H07 9774   9.323   3.924   2.602 -1.2503 -1.0023  1.6023
  114GLOH    O3 9775   9.316   3.954   2.814 -0.6374  0.0771 -0.0520
  114GLOH   H01 9776   9.389   3.894   2.838 -0.8219 -0.9369 -1.8981
  115GLOH   H03 9777   2.680   5.005   2.287 -0.3726 -1.2951  2.1476
  115GLOH    O1 9778   2.602   5.062   2.299 -0.0234 -0.2808 -0.2146
  115GLOH    C1 9779   2.637   5.200   2.328 -0.5634  0.6586  1.0107
  115GLOH   H02 9780   2.548   5.261   2.346 -2.4964 -0.9003 -2.6309
  115GLOH   H08 9781   2.676   5.233   2.231 -0.1406  0.3970  1.0924
  115GLOH    C2 9782   2.738   5.221   2.443 -0.4128  0.3723 -0.7019
  115GLOH   H04 9783   2.839   5.199   2.405  0.5685 -2.6055  3.2473
  115GLOH    O2 9784   2.720   5.361   2.486  0.9222  0.4962 -0.4536
  115GLOH   H05 9785   2.743   5.434   2.426 -1.6774  0.6549 -1.3558
  115GLOH    C3 9786   2.710   5.128   2.565  0.0080  0.4839 -0.3599
  115GLOH   H06 9787   2.746   5.030   2.535 -2.0193  0.0090 -1.2887
  115GLOH   H07 9788   2.604   5.116   2.589 -0.3428  1.8824 -1.1530
  115GLOH    O3 9789   2.774   5.180   2.686  0.3662  0.2510  0.0689
  115GLOH   H01 9790   2.748   5.124   2.762  3.2705 -0.4131  0.6194
  116GLOH   H03 9791   4.622   3.383   2.050  0.3185 -0.3380 -0.5542
  116GLOH    O1 9792   4.565   3.306   2.029  0.2948 -0.3475 -0.4547
  116GLOH    C1 9793   4.470   3.299   2.138  0.2445 -0.1492 -0.3778
  116GLOH   H02 9794   4.407   3.385   2.158  0.0889 -0.2659 -0.3648
  116GLOH   H08 9795   4.535   3.290   2.225 -1.2660 -0.0533  0.8016
  116GLOH    C2 9796   4.385   3.168   2.129 -0.3414  0.1765 -0.2967
  116GLOH   H04 9797   4.442   3.080   2.093 -1.6796 -1.6592  1.9491
  116GLOH    O2 9798   4.307   3.142   2.250  0.0801  0.0354  0.2544
  116GLOH   H05 9799   4.334   3.057   2.288  1.4795 -0.3974 -1.6078
  116GLOH    C3 9800   4.281   3.199   2.024  0.2396  0.1458 -0.0689
  116GLOH   H06 9801   4.207   3.264   2.070  1.4399  0.1613  1.8955
  116GLOH   H07 9802   4.224   3.107   2.010 -0.8588  0.8860 -0.5526
  116GLOH    O3 9803   4.331   3.254   1.899  0.4648 -0.4563  0.1522
  116GLOH   H01 9804   4.400   3.321   1.919  0.8813 -0.4276 -1.3137
  117GLOH   H03 9805   1.801   5.354   2.807  0.3482 -0.0874  1.2795
  117GLOH    O1 9806   1.771   5.446   2.823  0.5389  0.2731 -0.2944
  117GLOH    C1 9807   1.722   5.470   2.962  0.5926  0.3931  0.0504
  117GLOH   H02 9808   1.796   5.437   3.036  1.7022 -2.5581 -2.3123
  117GLOH   H08 9809   1.629   5.415   2.974 -0.1258  1.4765 -0.4354
  117GLOH    C2 9810   1.694   5.615   2.982 -0.1479 -0.6173 -0.5954
  117GLOH   H04 9811   1.631   5.660   2.903  0.8226 -1.0718 -1.6440
  117GLOH    O2 9812   1.619   5.626   3.107  0.3992 -0.3622  0.4562
  117GLOH   H05 9813   1.524   5.609   3.099  0.7887 -1.6109 -2.4031
  117GLOH    C3 9814   1.828   5.700   2.985 -0.0376 -0.3289 -0.7208
  117GLOH   H06 9815   1.898   5.670   2.907  0.9976  0.6952 -0.2031
  117GLOH   H07 9816   1.874   5.680   3.082  2.6292  1.3145 -1.5864
  117GLOH    O3 9817   1.800   5.843   2.976 -0.5236 -0.5173 -0.4268
  117GLOH   H01 9818   1.712   5.867   3.010 -0.1481  1.9042 -1.0622
  118GLOH   H03 9819   3.562   1.818   1.332  0.6644  1.1993  2.0911
  118GLOH    O1 9820   3.520   1.899   1.297 -0.5554 -0.2109  0.1895
  118GLOH    C1 9821   3.390   1.900   1.372 -0.8718 -0.4963 -0.3595
  118GLOH   H02 9822   3.332   1.814   1.338  0.5894 -1.4566 -0.4425
  118GLOH   H08 9823   3.340   1.996   1.355 -0.1248  0.5285  2.9157
  118GLOH    C2 9824   3.384   1.893   1.527 -0.1637  0.0543  0.1530
  118GLOH   H04 9825   3.422   1.984   1.574 -0.8377 -0.1648  1.1274
  118GLOH    O2 9826   3.243   1.885   1.574 -0.1452 -0.0638 -0.8918
  118GLOH   H05 9827   3.239   1.827   1.651  2.3593 -0.4996 -1.0562
  118GLOH    C3 9828   3.457   1.769   1.579 -0.2983 -0.4217 -0.1178
  118GLOH   H06 9829   3.398   1.685   1.540 -2.3349  1.3478 -0.9745
  118GLOH   H07 9830   3.439   1.770   1.686  0.5885 -0.0974  0.0312
  118GLOH    O3 9831   3.602   1.754   1.558  0.8910  0.1002 -0.3238
  118GLOH   H01 9832   3.651   1.695   1.618  1.6883  2.3001  1.2411
  119GLOH   H03 9833   3.920   8.776   1.662  1.0337  2.4394 -1.4363
  119GLOH    O1 9834   3.866   8.813   1.734  0.4626  0.2143 -0.6631
  119GLOH    C1 9835   3.946   8.906   1.819 -1.0021 -0.0462  0.0002
  119GLOH   H02 9836   3.890   8.941   1.906  0.2702 -2.0382  1.6627
  119GLOH   H08 9837   3.969   8.996   1.762 -1.0351  0.3874  0.6782
  119GLOH    C2 9838   4.076   8.835   1.868 -0.1750  0.0945  0.0573
  119GLOH   H04 9839   4.155   8.836   1.792 -1.1407  0.1562 -0.9569
  119GLOH    O2 9840   4.138   8.909   1.976 -0.3335  0.4645  0.2110
  119GLOH   H05 9841   4.219   8.869   2.013  0.8949  4.4935  2.1308
  119GLOH    C3 9842   4.048   8.689   1.904 -0.0941 -0.2375  1.3202
  119GLOH   H06 9843   4.046   8.630   1.813  2.6130 -0.9086  1.6496
  119GLOH   H07 9844   3.944   8.682   1.937 -0.7996  0.3537 -0.7133
  119GLOH    O3 9845   4.145   8.617   1.986 -0.2429  0.2405 -0.0287
  119GLOH   H01 9846   4.125   8.523   1.969  0.4534 -0.1254  1.1156
  120GLOH   H03 9847   2.150   2.929   0.437 -0.2884 -0.4218  0.0756
  120GLOH    O1 9848   2.154   2.994   0.364  0.3909  0.1608  0.6316
  120GLOH    C1 9849   2.202   2.930   0.247 -0.1459 -0.1736 -0.4149
  120GLOH   H02 9850   2.109   2.906   0.195 -0.3478 -0.0172 -0.1301
  120GLOH   H08 9851   2.254   2.838   0.275 -0.9158 -0.1726  1.0927
  120GLOH    C2 9852   2.282   3.026   0.160  0.1399  0.7735  0.8446
  120GLOH   H04 9853   2.279   2.983   0.059 -0.1294  1.3188  0.6218
  120GLOH    O2 9854   2.215   3.152   0.156  0.1147  0.3255 -0.2486
  120GLOH   H05 9855   2.174   3.156   0.244 -0.5430  2.6184 -0.6328
  120GLOH    C3 9856   2.429   3.037   0.206 -0.3049  0.8590  0.8410
  120GLOH   H06 9857   2.426   3.094   0.299 -1.4345  2.4239 -0.1232
  120GLOH   H07 9858   2.486   3.094   0.133  0.9361 -0.2957  0.8977
  120GLOH    O3 9859   2.493   2.913   0.229 -0.1122  0.1620  0.0285
  120GLOH   H01 9860   2.528   2.911   0.320 -1.8262 -3.2894  0.6997
  121ACOH    H4 9861   4.050   9.512   0.431 -0.2933 -0.0417 -0.4550
  121ACOH    O2 9862   4.094   9.526   0.346 -0.0038 -0.2810 -0.3484
  121ACOH    C2 9863   4.178   9.628   0.369  0.6748  0.6898  0.5237
  121ACOH    O1 9864   4.176   9.703   0.470  0.4252 -0.9066  0.4383
  121ACOH    C1 9865   4.290   9.629   0.267 -0.2393 -0.4613  0.0578
  121ACOH    H1 9866   4.237   9.632   0.172 -1.1748  2.5434  0.6341
  121ACOH    H2 9867   4.348   9.537   0.272  1.8442  0.9113  2.8174
  121ACOH    H3 9868   4.337   9.727   0.270 -0.2410 -0.4840  1.0450
  122ACOH    H4 9869   3.134   7.247   2.613  0.4122 -0.9550 -0.1195
  122ACOH    O2 9870   3.221   7.290   2.620 -0.1929  0.3298 -0.3308
  122ACOH    C2 9871   3.207   7.381   2.715  0.2009 -0.0543 -0.1772
  122ACOH    O1 9872   3.111   7.391   2.787  0.2386 -0.0286  0.0689
  122ACOH    C1 9873   3.339   7.447   2.734  0.3487 -0.1194 -0.8929
  122ACOH    H1 9874   3.327   7.543   2.784 -0.1608 -0.1886 -0.8854
  122ACOH    H2 9875   3.383   7.467   2.637 -0.0124 -0.2305 -1.0789
  122ACOH    H3 9876   3.407   7.378   2.784  0.4623 -0.5877 -1.6869
  123ACOH    H4 9877   4.233   8.684   0.326  0.4146  1.9019  0.5481
  123ACOH    O2 9878   4.282   8.700   0.244  0.1457  0.0108  0.0111
  123ACOH    C2 9879   4.210   8.639   0.150 -0.1423 -0.1815 -0.3626
  123ACOH    O1 9880   4.114   8.571   0.180  0.3233 -0.2970  0.0043
  123ACOH    C1 9881   4.250   8.650   0.012  0.1232 -0.8611 -0.3066
  123ACOH    H1 9882   4.204   8.582  -0.060 -1.7055  1.3218 -1.2413
  123ACOH    H2 9883   4.358   8.636   0.019  0.1872  0.3972  1.3173
  123ACOH    H3 9884   4.219   8.750  -0.015  3.0353  0.0012 -0.6411
  124ACOH    H4 9885   8.840   3.455   1.601  0.6664 -0.8770  0.3500
  124ACOH    O2 9886   8.792   3.373   1.578 -0.0670 -0.5039  0.5637
  124ACOH    C2 9887   8.751   3.314   1.693  0.2749 -0.3627  0.1610
  124ACOH    O1 9888   8.733   3.365   1.803 -0.1333 -0.4620  0.0579
  124ACOH    C1 9889   8.745   3.167   1.662 -0.5291  0.4924  0.6995
  124ACOH    H1 9890   8.658   3.137   1.721 -2.6702  3.0531 -1.0417
  124ACOH    H2 9891   8.833   3.119   1.705  1.0689  0.9272 -2.0216
  124ACOH    H3 9892   8.717   3.137   1.561 -0.5982 -4.0797  1.9718
  125ACOH    H4 9893   8.928   4.103   0.928  0.7117 -0.9492  0.7052
  125ACOH    O2 9894   8.847   4.102   0.983  0.4665 -0.2380  0.3705
  125ACOH    C2 9895   8.857   4.007   1.074 -0.0840  0.4296  0.0891
  125ACOH    O1 9896   8.969   3.974   1.119 -0.2300  0.2670 -0.4052
  125ACOH    C1 9897   8.727   3.968   1.132  1.2782  0.0491  0.3534
  125ACOH    H1 9898   8.693   3.867   1.110  0.3596  0.2801  0.6975
  125ACOH    H2 9899   8.649   4.039   1.102  3.2025  2.9378  1.9540
  125ACOH    H3 9900   8.744   3.975   1.239  0.9200 -2.2166  0.5771
  126ACOH    H4 9901   9.169   3.594   2.766 -1.1200 -0.3862  2.6740
  126ACOH    O2 9902   9.176   3.499   2.750 -0.5352  0.1329 -0.4783
  126ACOH    C2 9903   9.266   3.463   2.660 -0.1459  0.4476  0.6545
  126ACOH    O1 9904   9.265   3.500   2.541  0.0909  0.2441 -0.4645
  126ACOH    C1 9905   9.327   3.333   2.702 -0.5141  0.7048 -0.0816
  126ACOH    H1 9906   9.351   3.276   2.612  0.2311 -0.4188  0.8068
  126ACOH    H2 9907   9.256   3.273   2.759  0.7523 -3.3385 -2.4814
  126ACOH    H3 9908   9.421   3.343   2.756  1.2343 -1.4379 -2.5610
  127ACOH    H4 9909   4.329   0.284   2.158 -0.4687  0.6776  1.4569
  127ACOH    O2 9910   4.426   0.289   2.148 -0.5203 -0.3456  0.3519
  127ACOH    C2 9911   4.457   0.418   2.183 -0.2022  0.1997 -0.3984
  127ACOH    O1 9912   4.376   0.493   2.229 -0.0531 -0.6762  0.7589
  127ACOH    C1 9913   4.607   0.440   2.171 -0.9147 -0.0975  0.3062
  127ACOH    H1 9914   4.640   0.527   2.227 -0.7928 -0.0208  0.1143
  127ACOH    H2 9915   4.624   0.454   2.064 -2.8977 -1.5290 -0.2344
  127ACOH    H3 9916   4.665   0.355   2.207  1.2137  1.2371  0.0987
  128ACOH    H4 9917   4.038   9.002   2.092 -1.0680  0.3029 -0.3027
  128ACOH    O2 9918   4.008   9.005   2.184 -0.2514 -0.2449 -0.0168
  128ACOH    C2 9919   4.121   9.009   2.266 -0.3881  0.2291  0.3321
  128ACOH    O1 9920   4.238   9.003   2.222 -0.2044  0.0840 -0.2480
  128ACOH    C1 9921   4.087   9.024   2.409  0.1489  0.3003  1.0299
  128ACOH    H1 9922   4.002   9.090   2.421 -0.2867  0.5955 -2.9006
  128ACOH    H2 9923   4.175   9.063   2.461  2.1045 -1.7742 -0.6198
  128ACOH    H3 9924   4.046   8.932   2.451 -1.8006  0.0062 -1.3932
  129ACOH    H4 9925   0.746   4.266   2.587  0.9557 -1.1013 -2.5846
  129ACOH    O2 9926   0.734   4.189   2.645 -0.0116  0.3795 -0.7481
  129ACOH    C2 9927   0.856   4.135   2.674 -0.8270 -0.2194 -0.0014
  129ACOH    O1 9928   0.963   4.185   2.652 -0.4963 -0.0046  0.3909
  129ACOH    C1 9929   0.848   4.012   2.758  0.3618 -0.6266 -0.4867
  129ACOH    H1 9930   0.811   4.035   2.857  0.1122  0.2251 -0.7744
  129ACOH    H2 9931   0.943   3.959   2.767 -0.6812 -1.9401  3.9016
  129ACOH    H3 9932   0.778   3.943   2.710 -3.0619  2.4931 -0.1581
  130ACOH    H4 9933   5.158   9.193   1.326 -1.9651 -0.8011  0.5462
  130ACOH    O2 9934   5.209   9.143   1.392  0.0947 -0.3577 -0.6861
  130ACOH    C2 9935   5.167   9.012   1.395  0.4258  0.2673  0.0867
  130ACOH    O1 9936   5.080   8.973   1.324  0.2043  0.5610  0.4661
  130ACOH    C1 9937   5.243   8.938   1.501 -0.2659  0.0205 -0.3041
  130ACOH    H1 9938   5.254   8.831   1.480  1.6924 -0.0657  1.0263
  130ACOH    H2 9939   5.178   8.942   1.589 -0.7489 -0.3310 -0.6372
  130ACOH    H3 9940   5.340   8.983   1.519  0.4813 -1.1754 -1.2395
  131ACOH    H4 9941   4.474   0.335   1.870 -2.8663 -1.4750  0.5478
  131ACOH    O2 9942   4.518   0.248   1.869  0.2492  0.0125 -0.4861
  131ACOH    C2 9943   4.425   0.156   1.869  0.1219  0.5422 -0.0557
  131ACOH    O1 9944   4.308   0.173   1.850 -0.1499 -0.2258  0.2807
  131ACOH    C1 9945   4.477   0.024   1.920 -0.7050 -0.2271  0.4605
  131ACOH    H1 9946   4.433  -0.072   1.895 -0.4719 -0.0406 -0.7169
  131ACOH    H2 9947   4.468   0.033   2.028  1.8042  1.4220  0.5668
  131ACOH    H3 9948   4.583   0.020   1.895 -0.0120  1.8184  2.8973
  132ACOH    H4 9949   8.900   3.783   0.811 -1.7925 -2.3406  3.2020
  132ACOH    O2 9950   8.832   3.851   0.830 -0.4775  0.1405 -0.4053
  132ACOH    C2 9951   8.773   3.885   0.714  0.8716 -0.0327  0.3876
  132ACOH    O1 9952   8.833   3.889   0.611 -0.8367  0.1983  0.3972
  132ACOH    C1 9953   8.637   3.942   0.729 -0.6728  0.0207  0.2589
  132ACOH    H1 9954   8.650   4.039   0.777 -1.4915 -0.2198  0.9782
  132ACOH    H2 9955   8.589   3.875   0.800  0.5085 -0.5924  0.5064
  132ACOH    H3 9956   8.581   3.952   0.637 -1.5593 -0.4956  0.7356
  133ACOH    H4 9957   0.031   5.655   1.227  0.9218 -0.4975 -0.6194
  133ACOH    O2 9958   0.063   5.709   1.153  0.2633  0.2635 -0.3585
  133ACOH    C2 9959   0.177   5.656   1.113  0.0282 -0.8133 -0.4083
  133ACOH    O1 9960   0.247   5.569   1.167 -0.1264 -0.3071 -0.5577
  133ACOH    C1 9961   0.225   5.727   0.991  0.3707 -0.0228 -0.3377
  133ACOH    H1 9962   0.143   5.760   0.927  0.9355 -0.3754 -1.2428
  133ACOH    H2 9963   0.281   5.655   0.932 -0.8989 -0.0252 -1.5671
  133ACOH    H3 9964   0.288   5.807   1.029 -0.0740 -0.2604  0.9333
  134ACOH    H4 9965   5.126   3.078   1.156  0.5399 -1.0754  2.6038
  134ACOH    O2 9966   5.126   2.985   1.128 -0.7687 -0.2663 -0.2492
  134ACOH    C2 9967   5.211   2.918   1.205  0.7883  0.4009 -0.8851
  134ACOH    O1 9968   5.273   2.971   1.294 -0.1026 -0.1193  0.1320
  134ACOH    C1 9969   5.210   2.771   1.180 -0.2201  0.8505  0.9200
  134ACOH    H1 9970   5.127   2.749   1.113  0.1171 -0.3836  0.8895
  134ACOH    H2 9971   5.197   2.720   1.276 -2.3184 -1.7693 -0.6782
  134ACOH    H3 9972   5.301   2.729   1.137 -1.0042 -1.0777  1.1206
  135ACOH    H4 9973   8.896   3.870   2.220 -0.4707  0.1690 -2.5203
  135ACOH    O2 9974   8.804   3.841   2.236 -0.0571 -0.1233 -0.5626
  135ACOH    C2 9975   8.734   3.858   2.124 -0.1835 -0.1023  0.0107
  135ACOH    O1 9976   8.765   3.908   2.016  0.2825 -0.1315  0.7804
  135ACOH    C1 9977   8.608   3.790   2.149 -0.2834 -0.4794 -0.7830
  135ACOH    H1 9978   8.619   3.693   2.197 -2.1154 -0.0706  0.5203
  135ACOH    H2 9979   8.541   3.775   2.064 -1.9057  1.0923  0.1674
  135ACOH    H3 9980   8.556   3.858   2.217 -1.8601 -0.8680 -1.5629
  136ACOH    H4 9981   5.061   2.238   0.244 -0.7822  0.5180  0.9504
  136ACOH    O2 9982   5.125   2.198   0.305 -0.0357 -0.4233 -0.4282
  136ACOH    C2 9983   5.143   2.278   0.406 -0.9398  0.3621 -0.1485
  136ACOH    O1 9984   5.091   2.383   0.435  0.0403  0.9657 -0.9230
  136ACOH    C1 9985   5.236   2.212   0.503  0.4035 -0.1712 -0.0531
  136ACOH    H1 9986   5.261   2.280   0.585  0.9307  2.1867 -2.1204
  136ACOH    H2 9987   5.327   2.179   0.452  0.8202 -0.5652  0.9352
  136ACOH    H3 9988   5.177   2.129   0.542 -0.3437  0.1563 -0.4671
  137ACOH    H4 9989   1.204   3.422   1.950 -0.8167 -0.4666 -2.0421
  137ACOH    O2 9990   1.125   3.381   1.988 -0.2082  0.1127 -0.0820
  137ACOH    C2 9991   1.022   3.408   1.904 -0.1507  0.2428  0.2287
  137ACOH    O1 9992   1.026   3.470   1.804  0.0451 -0.2177  0.1194
  137ACOH    C1 9993   0.899   3.332   1.932  0.3585 -0.0995  0.5976
  137ACOH    H1 9994   0.885   3.240   1.875 -1.1931  0.9303 -0.7315
  137ACOH    H2 9995   0.809   3.392   1.934  0.9747  0.8049  2.4238
  137ACOH    H3 9996   0.905   3.301   2.037 -3.3119  3.0801  1.8592
  138ACOH    H4 9997   3.926   2.188   1.244 -0.5761 -0.4810 -0.7516
  138ACOH    O2 9998   3.900   2.231   1.327  0.4425 -0.4804 -0.4247
  138ACOH    C2 9999   3.879   2.358   1.314 -0.3660 -0.2215  0.5384
  138ACOH    O110000   3.896   2.419   1.211 -0.0870 -0.5631  0.1018
  138ACOH    C110001   3.836   2.413   1.443 -0.4355 -0.1552 -0.4165
  138ACOH    H110002   3.742   2.374   1.481 -0.9705  0.6555 -0.9065
  138ACOH    H210003   3.821   2.520   1.430 -0.0096 -0.0797 -0.3153
  138ACOH    H310004   3.910   2.392   1.521 -3.4066 -1.5294  2.1359
  139ACOH    H410005   9.224   3.088   1.235 -0.3815 -0.1337 -1.0885
  139ACOH    O210006   9.303   3.037   1.212  0.1814 -0.0026  0.4915
  139ACOH    C210007   9.262   2.935   1.136 -0.3215 -0.3362 -0.1366
  139ACOH    O110008   9.152   2.926   1.080 -0.5936 -0.6823  0.3887
  139ACOH    C110009   9.375   2.840   1.113  0.1626 -0.0133  0.2398
  139ACOH    H110010   9.380   2.771   1.197 -2.2512 -1.0485 -0.4290
  139ACOH    H210011   9.470   2.894   1.102  0.6272 -0.7188  0.7538
  139ACOH    H310012   9.348   2.784   1.024 -0.7940  0.2808  0.3444
  140ACOH    H410013   3.293   0.108   1.182  1.0566  0.4290 -0.3022
  140ACOH    O210014   3.224   0.176   1.191  0.6968 -0.0268  0.5083
  140ACOH    C210015   3.147   0.146   1.086  0.0772 -0.1714 -0.0445
  140ACOH    O110016   3.129   0.034   1.040  0.0420  0.0926  0.1594
  140ACOH    C110017   3.048   0.249   1.059  0.3596 -0.6206  0.1053
  140ACOH    H110018   3.097   0.346   1.054 -0.6149 -0.0973  0.6857
  140ACOH    H210019   2.963   0.254   1.127  0.2717  1.0604 -0.1176
  140ACOH    H310020   3.002   0.219   0.965  0.6859  0.8579 -0.5247
  141ACOH    H410021   5.390   3.017   1.407 -0.1062 -2.1721  0.9976
  141ACOH    O210022   5.456   3.038   1.476  0.0122 -0.4782  0.3965
  141ACOH    C210023   5.474   3.173   1.495 -0.8557 -0.3967  0.2764
  141ACOH    O110024   5.399   3.255   1.443  0.4302 -0.3883 -0.0695
  141ACOH    C110025   5.561   3.181   1.620 -0.4439 -0.4725  0.2457
  141ACOH    H110026   5.665   3.177   1.588 -0.2070  0.9601  0.8446
  141ACOH    H210027   5.527   3.095   1.678 -2.8637 -2.1301 -3.4122
  141ACOH    H310028   5.542   3.269   1.681  1.3585 -0.8012  1.3094
  142ACOH    H410029   4.729   1.233   2.661 -0.3499 -0.5132  1.6763
  142ACOH    O210030   4.770   1.147   2.639 -0.0821  0.0533 -0.1187
  142ACOH    C210031   4.774   1.085   2.762 -0.9194  0.3894 -0.2728
  142ACOH    O110032   4.707   1.126   2.851 -0.1178 -0.0436 -0.0581
  142ACOH    C110033   4.834   0.951   2.768  0.4156 -0.2840  0.6521
  142ACOH    H110034   4.762   0.870   2.779  1.3380 -1.0097  1.4135
  142ACOH    H210035   4.910   0.953   2.847 -1.4274  1.7930  2.4341
  142ACOH    H310036   4.873   0.936   2.667  1.3395  1.3058  0.7449
  143ACOH    H410037   3.239   5.749   2.244  0.7388  0.3911 -0.6241
  143ACOH    O210038   3.184   5.822   2.211  0.0485  0.1144 -0.0995
  143ACOH    C210039   3.071   5.825   2.284 -0.1423 -0.5996  0.1174
  143ACOH    O110040   3.052   5.767   2.388 -0.1466  0.2043  0.2053
  143ACOH    C110041   2.987   5.936   2.253  0.2952 -0.2468 -0.7486
  143ACOH    H110042   2.990   6.014   2.329 -0.1204 -0.2651 -0.7096
  143ACOH    H210043   2.883   5.905   2.237 -0.6921  2.7416 -0.4371
  143ACOH    H310044   3.022   5.986   2.163  2.0620 -0.7913 -0.3819
  144ACOH    H410045   4.823   2.536   0.762 -0.6692  1.7613  0.2017
  144ACOH    O210046   4.866   2.568   0.681  0.3089  0.3233  0.1318
  144ACOH    C210047   4.923   2.690   0.707  0.1447  0.1664  0.1229
  144ACOH    O110048   4.961   2.729   0.817 -0.1565  0.0508 -0.0257
  144ACOH    C110049   4.961   2.752   0.576  0.6805 -0.0848 -0.4954
  144ACOH    H110050   5.054   2.702   0.550  1.4388  1.5496 -0.9926
  144ACOH    H210051   4.981   2.859   0.574  2.6329 -0.4371 -1.6444
  144ACOH    H310052   4.887   2.724   0.501  0.8772 -2.0069  0.0072
  145ACOH    H410053   9.525   3.731   2.672  1.1280  1.8325  0.3687
  145ACOH    O210054   9.557   3.742   2.581  0.7732 -0.1433 -0.0258
  145ACOH    C210055   9.638   3.634   2.554  0.8623  0.2626  0.0692
  145ACOH    O110056   9.651   3.529   2.607  1.0528 -0.3421  0.1835
  145ACOH    C110057   9.738   3.670   2.449 -0.1574  0.2905  0.0280
  145ACOH    H110058   9.774   3.771   2.469 -0.8866  0.5561  0.0153
  145ACOH    H210059   9.692   3.666   2.350  0.4029 -0.7771 -0.1981
  145ACOH    H310060   9.824   3.603   2.454  0.7004  1.4018  0.5865
  146ACOH    H410061   4.262   2.420   1.321  1.2092  0.5813  2.7574
  146ACOH    O210062   4.220   2.346   1.367 -0.6040  0.0882  0.4438
  146ACOH    C210063   4.310   2.252   1.369 -0.2069 -0.3016  0.2213
  146ACOH    O110064   4.423   2.257   1.319  0.3160  0.6906 -0.4257
  146ACOH    C110065   4.264   2.127   1.440 -0.2104 -0.2391  0.0491
  146ACOH    H110066   4.195   2.066   1.381 -1.4245  0.7187  0.4453
  146ACOH    H210067   4.216   2.151   1.535  1.0209  0.7312  0.4341
  146ACOH    H310068   4.350   2.066   1.467  0.2474  1.2352  2.0562
  147ACOH    H410069   4.525   8.131   0.357 -2.7490 -0.2798  0.6900
  147ACOH    O210070   4.492   8.164   0.271  0.3471 -0.1723 -0.5162
  147ACOH    C210071   4.374   8.216   0.284 -0.3732  0.3410 -0.1951
  147ACOH    O110072   4.320   8.238   0.392 -0.1776 -0.9297 -0.0627
  147ACOH    C110073   4.305   8.255   0.158 -0.3311 -0.4382  0.4152
  147ACOH    H110074   4.285   8.158   0.113 -0.3161  0.2742 -1.1346
  147ACOH    H210075   4.372   8.322   0.105 -0.9271  1.0806  1.5374
  147ACOH    H310076   4.219   8.317   0.182 -0.4297  0.2892 -1.7213
  148ACOH    H410077   1.241   7.240   0.208  0.2710  0.2779  0.1329
  148ACOH    O210078   1.184   7.185   0.152  0.2352  0.2443  0.2037
  148ACOH    C210079   1.054   7.232   0.155 -0.3130 -0.7003  0.4406
  148ACOH    O110080   0.994   7.299   0.238 -0.0075  0.1556 -0.0203
  148ACOH    C110081   0.987   7.124   0.072 -0.7036 -0.5776 -0.5658
  148ACOH    H110082   1.002   7.140  -0.034  5.0257  0.5906  0.2989
  148ACOH    H210083   0.883   7.108   0.102  0.0580 -1.3826  1.7710
  148ACOH    H310084   1.031   7.029   0.100 -2.2315 -0.3659  2.9223
  149ACOH    H410085   4.080   7.993   0.317  0.4752  0.8850  0.4307
  149ACOH    O210086   4.165   7.951   0.341  0.1562 -0.0196  0.0095
  149ACOH    C210087   4.158   7.948   0.477  0.1079  0.3630 -0.1263
  149ACOH    O110088   4.072   7.999   0.547 -0.8353  0.1944 -0.1762
  149ACOH    C110089   4.292   7.922   0.538  0.1327 -0.4974 -0.2282
  149ACOH    H110090   4.352   8.013   0.530 -0.3810 -0.3317 -2.3309
  149ACOH    H210091   4.343   7.842   0.485 -1.2315 -0.3431 -1.7957
  149ACOH    H310092   4.280   7.904   0.645 -3.0255  0.0257 -0.4400
  150ACOH    H410093   4.796   2.326   1.963 -0.3402 -0.4432 -0.2190
  150ACOH    O210094   4.852   2.371   1.897 -0.1027 -0.1197  0.2038
  150ACOH    C210095   4.942   2.278   1.852  0.0155 -0.1330 -0.5028
  150ACOH    O110096   4.925   2.161   1.865  0.2173  0.3229 -0.6463
  150ACOH    C110097   5.039   2.336   1.759  0.0083 -0.5149 -0.4066
  150ACOH    H110098   5.137   2.289   1.773  0.8683  1.5444  0.6744
  150ACOH    H210099   5.051   2.444   1.773  0.5252 -0.3744 -1.8621
  150ACOH    H310100   5.007   2.308   1.659 -2.2390 -1.6648  0.6224
  151ACOH    H410101   3.865   7.567   0.565 -2.0010 -1.2085 -2.1385
  151ACOH    O210102   3.917   7.598   0.489  0.2547  0.0291 -0.1483
  151ACOH    C210103   3.838   7.665   0.406 -0.3532  0.3123  0.0316
  151ACOH    O110104   3.740   7.729   0.436 -0.4463  0.0611  0.0606
  151ACOH    C110105   3.903   7.675   0.270 -0.2814 -0.0640 -0.1224
  151ACOH    H110106   3.995   7.732   0.259 -1.8742  2.6096  0.0943
  151ACOH    H210107   3.832   7.711   0.196 -0.3293  3.8426  1.7427
  151ACOH    H310108   3.922   7.571   0.241  0.4733 -0.6734  2.4737
  152ACOH    H410109   0.321   4.744   2.094 -3.6351  1.7004  3.0931
  152ACOH    O210110   0.368   4.828   2.108  0.3225  0.1353  0.1661
  152ACOH    C210111   0.474   4.848   2.032  0.5593  0.3162  0.0880
  152ACOH    O110112   0.542   4.763   1.975  0.4277  0.0619  0.4113
  152ACOH    C110113   0.517   4.985   2.053 -0.8325 -0.0843 -0.3639
  152ACOH    H110114   0.591   5.024   1.984 -1.8486  0.4164 -1.1918
  152ACOH    H210115   0.557   4.993   2.154 -0.0461 -1.0189 -0.6006
  152ACOH    H310116   0.431   5.052   2.044 -0.6468  0.0322 -1.2865
  153ACOH    H410117   8.562   4.268   0.661 -0.0605  1.0124  0.0201
  153ACOH    O210118   8.470   4.242   0.679  0.4502 -0.6400  0.3852
  153ACOH    C210119   8.423   4.203   0.562 -0.0589 -0.7835  0.3498
  153ACOH    O110120   8.489   4.169   0.463  0.4009  0.0133  0.3340
  153ACOH    C110121   8.276   4.189   0.558 -0.4934  0.2281  0.1149
  153ACOH    H110122   8.252   4.083   0.547  0.1200  0.0250  0.6941
  153ACOH    H210123   8.232   4.240   0.473  1.2115  0.1413 -0.8341
  153ACOH    H310124   8.245   4.231   0.654  2.8330 -0.3772  1.5200
  154ACOH    H410125   8.510   4.628   0.458 -0.6990  0.3942 -2.5222
  154ACOH    O210126   8.448   4.553   0.456 -0.3778  0.0074  0.3329
  154ACOH    C210127   8.426   4.524   0.324 -0.2437 -0.4543  0.2253
  154ACOH    O110128   8.513   4.524   0.237 -0.0125 -0.6892  0.4301
  154ACOH    C110129   8.307   4.433   0.303 -0.4347  0.0329 -0.1078
  154ACOH    H110130   8.230   4.433   0.380  1.1716 -0.8008  1.5431
  154ACOH    H210131   8.357   4.337   0.296 -1.4332 -0.4399 -0.7096
  154ACOH    H310132   8.262   4.454   0.206 -2.7619 -0.6749  0.7908
  155ACOH    H410133   4.595   4.384   0.242  1.2238  0.1504  1.0467
  155ACOH    O210134   4.618   4.476   0.224  0.1651  0.2908  0.4132
  155ACOH    C210135   4.555   4.544   0.316  0.1327 -0.5589  0.0073
  155ACOH    O110136   4.472   4.507   0.397 -0.1578  0.2359 -0.3606
  155ACOH    C110137   4.593   4.687   0.312  0.1769 -0.3848  0.1474
  155ACOH    H110138   4.524   4.741   0.247  0.0019 -0.7735  0.0040
  155ACOH    H210139   4.693   4.697   0.270 -0.1059 -1.7476 -0.9064
  155ACOH    H310140   4.592   4.720   0.415  2.7812  0.1807  0.0206
  156ACOH    H410141   1.878   1.484   2.393 -1.4100 -1.0925 -0.2863
  156ACOH    O210142   1.843   1.566   2.431  0.0090 -0.4552 -0.2893
  156ACOH    C210143   1.939   1.640   2.478  0.2003 -0.7222 -0.3029
  156ACOH    O110144   2.033   1.600   2.543  0.4231 -0.5932 -0.7850
  156ACOH    C110145   1.892   1.781   2.496 -0.5215  0.7406  0.1319
  156ACOH    H110146   1.980   1.835   2.529 -1.1631  0.2469  2.7578
  156ACOH    H210147   1.812   1.786   2.570 -1.6702 -0.7016 -0.9687
  156ACOH    H310148   1.847   1.828   2.408  0.6586  1.3957 -0.1253
  157ACOH    H410149   1.494   3.225   2.632  0.0991  0.5928  1.3051
  157ACOH    O210150   1.476   3.305   2.578 -0.1019 -0.3623 -0.0645
  157ACOH    C210151   1.569   3.396   2.606 -0.0930 -0.0209  0.5234
  157ACOH    O110152   1.659   3.380   2.687  0.1107 -0.5969  0.6458
  157ACOH    C110153   1.531   3.533   2.560 -0.1959  0.5681  0.0775
  157ACOH    H110154   1.438   3.525   2.505 -0.6225 -1.7388  1.0972
  157ACOH    H210155   1.603   3.585   2.496  1.8292  0.8064  2.4534
  157ACOH    H310156   1.511   3.591   2.650  0.6695 -1.0801  1.3574
  158ACOH    H410157   1.154   7.056   0.683  1.7799  0.5218  1.8323
  158ACOH    O210158   1.102   7.030   0.760 -0.1076 -0.4448  0.2585
  158ACOH    C210159   1.148   7.080   0.877  0.9104 -0.0309  0.6993
  158ACOH    O110160   1.251   7.145   0.885 -0.4989 -0.2630 -0.0232
  158ACOH    C110161   1.066   7.038   0.988 -0.4238 -0.5839 -1.0820
  158ACOH    H110162   1.097   6.937   1.014  1.0585 -0.0246 -0.6123
  158ACOH    H210163   0.959   7.033   0.968 -0.8374  0.2340  0.8587
  158ACOH    H310164   1.083   7.103   1.074 -1.4661 -0.8543 -0.6620
  159ACOH    H410165   8.448   2.376   2.790  0.3103 -2.2709 -0.0703
  159ACOH    O210166   8.515   2.382   2.719  0.0756 -1.0685 -0.1922
  159ACOH    C210167   8.478   2.478   2.634 -0.3228  0.0084  0.0994
  159ACOH    O110168   8.388   2.558   2.653 -0.0734  0.0320  0.0477
  159ACOH    C110169   8.550   2.464   2.503 -0.4368 -0.6641  0.7719
  159ACOH    H110170   8.491   2.513   2.426  0.0035  1.0344  1.4836
  159ACOH    H210171   8.564   2.358   2.481  0.5162  0.3666 -4.2087
  159ACOH    H310172   8.653   2.499   2.501 -0.3028 -1.1162 -0.9956
  160ACOH    H410173   4.052   8.386   0.811 -0.1053  0.7973 -0.5527
  160ACOH    O210174   4.055   8.469   0.860 -0.1679  0.3276  0.2541
  160ACOH    C210175   4.175   8.469   0.926 -0.0568 -0.1029 -0.2386
  160ACOH    O110176   4.271   8.396   0.899 -0.3061 -0.1341 -0.1472
  160ACOH    C110177   4.186   8.595   1.006 -0.2932 -0.8447 -0.9667
  160ACOH    H110178   4.175   8.681   0.940  0.2741  0.9567  1.2466
  160ACOH    H210179   4.282   8.606   1.057 -0.2506 -2.0570 -0.7680
  160ACOH    H310180   4.107   8.597   1.082  1.7758  0.4812  1.2113
  161ACOH    H410181   4.387   2.482   1.694  0.0464  0.3600 -1.8114
  161ACOH    O210182   4.439   2.407   1.661  0.0292  0.0176 -1.0600
  161ACOH    C210183   4.533   2.466   1.580 -0.1598  0.0263  0.7310
  161ACOH    O110184   4.550   2.583   1.567  0.0532  0.1662 -0.1489
  161ACOH    C110185   4.643   2.373   1.551 -0.7964 -0.3577 -0.3212
  161ACOH    H110186   4.735   2.399   1.604 -2.0383  0.7666  1.3394
  161ACOH    H210187   4.668   2.375   1.445 -1.7585 -1.2341 -0.5697
  161ACOH    H310188   4.621   2.268   1.571 -0.6538 -0.2957  0.1760
  162ACOH    H410189   2.126   2.048   2.604 -2.2487 -1.6198 -1.0415
  162ACOH    O210190   2.077   2.130   2.585 -0.1892 -0.0170  0.3703
  162ACOH    C210191   1.968   2.130   2.662  0.2903 -0.1598  0.2457
  162ACOH    O110192   1.930   2.053   2.746  0.7727  0.2968  0.0613
  162ACOH    C110193   1.906   2.266   2.656 -0.0102  0.0249 -0.6229
  162ACOH    H110194   1.873   2.277   2.553  1.2377 -1.8563 -1.2420
  162ACOH    H210195   1.984   2.340   2.674 -0.2372  0.8922 -3.0542
  162ACOH    H310196   1.822   2.266   2.726 -0.3966 -0.6038 -1.0813
  163ACOH    H410197   4.688   1.301   0.263  0.7475 -2.0225 -1.1044
  163ACOH    O210198   4.748   1.282   0.337 -0.8415  0.3352  0.8662
  163ACOH    C210199   4.712   1.167   0.407  0.5069 -0.2420 -0.9182
  163ACOH    O110200   4.600   1.116   0.396 -0.5182 -0.4222 -0.3624
  163ACOH    C110201   4.809   1.138   0.508  0.5372  0.0833 -0.4774
  163ACOH    H110202   4.770   1.048   0.555  0.3827  1.2105  1.6003
  163ACOH    H210203   4.802   1.221   0.579 -1.4684  0.2867 -0.8879
  163ACOH    H310204   4.906   1.142   0.459  1.3880  0.3121  1.1905
  164ACOH    H410205   9.828   3.803   1.773 -1.7988  1.0815 -0.9202
  164ACOH    O210206   9.892   3.874   1.790  0.0537 -0.5694 -0.7232
  164ACOH    C210207  10.009   3.824   1.745 -0.0829  0.6050 -0.6077
  164ACOH    O110208  10.021   3.727   1.675  0.0517  0.5661  0.3395
  164ACOH    C110209  10.117   3.914   1.792  0.0468  0.1773 -0.4887
  164ACOH    H110210  10.214   3.890   1.749 -0.3391 -1.1446 -0.6468
  164ACOH    H210211  10.123   3.927   1.900 -2.3050  1.1443 -0.4299
  164ACOH    H310212  10.086   4.016   1.768 -1.9321 -0.0109  1.1056
  165ACOH    H410213   4.364   0.027   0.353  2.4323 -1.3002 -0.2711
  165ACOH    O210214   4.359   0.064   0.263 -0.1304  0.0782  0.4077
  165ACOH    C210215   4.232   0.064   0.217 -0.4118 -0.4143 -1.0112
  165ACOH    O110216   4.139  -0.009   0.251  0.3600 -0.2018 -0.5427
  165ACOH    C110217   4.224   0.156   0.108  0.8476 -0.2247 -0.8133
  165ACOH    H110218   4.294   0.132   0.029  0.9338  1.3215 -1.2204
  165ACOH    H210219   4.236   0.255   0.153 -1.7972 -1.2851  2.4187
  165ACOH    H310220   4.122   0.164   0.071  1.5164  2.6066 -2.1849
  166ACOH    H410221   1.232   3.978   2.698  0.5918  0.3039  0.8129
  166ACOH    O210222   1.231   3.895   2.749 -0.1534 -0.1631  0.0699
  166ACOH    C210223   1.332   3.892   2.837  0.1193 -0.5045 -0.3839
  166ACOH    O110224   1.316   3.824   2.938 -0.2281 -0.6249 -0.4424
  166ACOH    C110225   1.418   4.012   2.846  0.2815 -0.2723 -0.0141
  166ACOH    H110226   1.370   4.093   2.901  0.1648 -1.0069  0.9804
  166ACOH    H210227   1.438   4.055   2.748 -0.9183  0.3773  0.0169
  166ACOH    H310228   1.513   3.977   2.886  1.5053  1.9617 -0.8449
  167ACOH    H410229   4.957   2.451   1.199 -0.3099 -1.5193 -0.5226
  167ACOH    O210230   5.021   2.384   1.229  0.0702 -0.5696  0.8344
  167ACOH    C210231   5.026   2.291   1.133 -0.6382 -0.2741  0.2421
  167ACOH    O110232   4.950   2.268   1.040 -0.3360 -0.2251  0.1696
  167ACOH    C110233   5.131   2.201   1.175  0.2826  0.0280 -0.0572
  167ACOH    H110234   5.189   2.244   1.257  0.6125  0.5921 -0.5788
  167ACOH    H210235   5.191   2.181   1.086  1.2752  2.0321  0.1523
  167ACOH    H310236   5.082   2.107   1.202  0.2474 -1.3149 -4.3924
  168ACOH    H410237   4.662   1.121   1.902 -0.9742  1.9095  1.0703
  168ACOH    O210238   4.744   1.118   1.954 -0.3387  0.0587 -0.0016
  168ACOH    C210239   4.740   1.228   2.039 -0.4926 -0.1049  0.1615
  168ACOH    O110240   4.671   1.326   2.019 -0.2643 -0.8937  0.5338
  168ACOH    C110241   4.860   1.226   2.128  0.3110  0.5313  0.1218
  168ACOH    H110242   4.944   1.275   2.079 -1.2076  1.2714 -1.7959
  168ACOH    H210243   4.891   1.123   2.150 -2.8587 -0.1101  1.8464
  168ACOH    H310244   4.843   1.286   2.217  1.0819 -2.8704  2.6952
  169ACOH    H410245   5.023   2.850   1.698 -0.8229  0.4204  1.2980
  169ACOH    O210246   5.119   2.840   1.710 -0.5937  0.3898 -0.3808
  169ACOH    C210247   5.168   2.743   1.619  0.2304 -0.4312 -0.1270
  169ACOH    O110248   5.109   2.643   1.593 -0.7256 -0.4610  0.4329
  169ACOH    C110249   5.316   2.738   1.613  0.3027  0.6612 -0.3118
  169ACOH    H110250   5.345   2.646   1.663 -1.2168 -0.1186 -0.8578
  169ACOH    H210251   5.367   2.825   1.655  0.3949  0.3017  0.3277
  169ACOH    H310252   5.349   2.717   1.511  1.8302 -4.5613  1.0907
  170ACOH    H410253   4.619   0.383   1.058  0.6408 -0.5769 -0.4436
  170ACOH    O210254   4.703   0.430   1.061  0.3377 -0.0426 -0.4033
  170ACOH    C210255   4.675   0.552   1.116 -0.5052  0.0247  0.0526
  170ACOH    O110256   4.581   0.587   1.180 -0.0760 -0.6168 -1.0335
  170ACOH    C110257   4.797   0.641   1.120  0.0076 -0.3046  0.0949
  170ACOH    H110258   4.841   0.631   1.219 -0.5068  3.5639  0.7771
  170ACOH    H210259   4.759   0.743   1.107 -0.5127 -0.0188  3.4777
  170ACOH    H310260   4.870   0.618   1.043  0.9039 -0.3985  0.9693
  171ACOH    H410261   8.955   4.667   1.567 -0.2112  0.6662  0.4283
  171ACOH    O210262   9.013   4.639   1.494 -0.0995  0.4510  0.5981
  171ACOH    C210263   8.941   4.572   1.404  1.0402 -0.0278 -0.4595
  171ACOH    O110264   8.826   4.586   1.384  0.3696 -0.1631  0.1504
  171ACOH    C110265   9.024   4.508   1.300  0.1789  0.5266 -0.2670
  171ACOH    H110266   9.113   4.451   1.325 -0.6520 -0.8120 -0.3255
  171ACOH    H210267   9.049   4.589   1.231 -1.6771  0.3895 -1.1379
  171ACOH    H310268   8.954   4.453   1.236 -1.1176  1.6383  0.1785
  172ACOH    H410269   4.026   8.315   1.513 -0.3013 -2.6013  1.2128
  172ACOH    O210270   4.091   8.271   1.455  0.7536 -0.0025  0.3535
  172ACOH    C210271   4.083   8.344   1.342  0.2492  0.3403  0.7335
  172ACOH    O110272   4.036   8.457   1.324 -0.2912  0.0777 -0.4342
  172ACOH    C110273   4.189   8.299   1.250  0.0227 -0.6339 -0.0595
  172ACOH    H110274   4.284   8.274   1.298  1.1671  1.1462 -1.3277
  172ACOH    H210275   4.204   8.374   1.172  0.7873  0.2758  0.9482
  172ACOH    H310276   4.159   8.205   1.204 -0.1185 -1.7427  2.2378
  173ACOH    H410277   9.856   4.074   2.589  2.0567  0.1545  1.0313
  173ACOH    O210278   9.868   3.977   2.591  0.1526 -0.1165  0.1589
  173ACOH    C210279   9.986   3.963   2.528 -0.3300 -0.0084 -0.3202
  173ACOH    O110280  10.031   4.041   2.445 -0.0540  0.6555  0.3659
  173ACOH    C110281  10.032   3.819   2.525 -0.5803 -0.4404 -0.6195
  173ACOH    H110282   9.978   3.747   2.586 -1.0589  0.1748 -0.3114
  173ACOH    H210283  10.137   3.824   2.554 -0.7615  0.8068 -0.1383
  173ACOH    H310284  10.037   3.782   2.422  0.1803  0.3427 -0.8738
  174ACOH    H410285   1.136   3.095   1.702  1.8982  1.1071  0.0189
  174ACOH    O210286   1.159   3.075   1.794  0.0562 -0.0247  0.2574
  174ACOH    C210287   1.055   3.018   1.860 -0.2669  0.3393 -0.3060
  174ACOH    O110288   0.960   2.966   1.804  0.8556  0.5824  0.7657
  174ACOH    C110289   1.066   3.015   2.008  0.1392 -0.2363  0.1673
  174ACOH    H110290   1.081   3.113   2.053 -0.7204  0.3677 -0.8148
  174ACOH    H210291   1.148   2.948   2.032  0.2280  0.7681  2.8430
  174ACOH    H310292   0.972   2.972   2.044 -1.0497  0.8087 -1.5610
  175ACOH    H410293   4.017   8.381   2.586  1.3221  1.6901  0.6051
  175ACOH    O210294   4.069   8.381   2.504  0.7257  0.3533  0.2112
  175ACOH    C210295   4.192   8.349   2.550 -0.0162  0.0326  0.0122
  175ACOH    O110296   4.227   8.336   2.666 -0.4103 -0.8349 -0.3464
  175ACOH    C110297   4.288   8.386   2.443 -0.5143  0.1549 -0.0066
  175ACOH    H110298   4.381   8.425   2.485 -1.4783  1.4056  1.0303
  175ACOH    H210299   4.243   8.461   2.377  2.4878  0.1103 -2.1923
  175ACOH    H310300   4.316   8.296   2.390 -0.1535 -0.8083  1.7833
  176ACOH    H410301   4.312   5.331   1.456 -0.2965  2.3798  0.0953
  176ACOH    O210302   4.377   5.348   1.386  0.4151 -0.3448  0.0087
  176ACOH    C210303   4.319   5.434   1.298 -0.2011 -0.5500  0.0653
  176ACOH    O110304   4.203   5.459   1.285 -0.1550  0.2443 -0.2862
  176ACOH    C110305   4.414   5.475   1.196  0.1282 -0.0130  0.0790
  176ACOH    H110306   4.458   5.386   1.149  0.9075  0.7265 -0.6269
  176ACOH    H210307   4.493   5.541   1.231  0.1080 -0.4965  1.0425
  176ACOH    H310308   4.368   5.526   1.111 -1.9813 -2.6781 -0.4406
  177ACOH    H410309   3.062   7.165   1.565 -0.4923  2.0592 -0.5893
  177ACOH    O210310   3.151   7.183   1.528  0.0355  0.5080 -0.1014
  177ACOH    C210311   3.202   7.297   1.566  0.1130 -0.2378  0.0679
  177ACOH    O110312   3.131   7.395   1.595 -0.1663  0.0051 -0.5839
  177ACOH    C110313   3.333   7.310   1.505  0.6683  0.2627  1.0337
  177ACOH    H110314   3.380   7.214   1.485 -0.3595 -0.2593  1.1421
  177ACOH    H210315   3.411   7.357   1.566  1.4482  1.5119 -0.8424
  177ACOH    H310316   3.311   7.351   1.406 -1.4646 -2.6824  0.2201
  178ACOH    H410317   4.862   1.799   1.632  0.5163  0.7315 -0.4294
  178ACOH    O210318   4.950   1.824   1.601  0.8001  0.3062  0.0398
  178ACOH    C210319   4.944   1.959   1.595 -0.6342 -0.5458 -0.0519
  178ACOH    O110320   4.843   2.020   1.584 -0.3910  0.3645 -0.1308
  178ACOH    C110321   5.073   2.017   1.554  0.9267 -1.2002 -0.0696
  178ACOH    H110322   5.054   2.115   1.510 -0.9237 -1.0562  1.0146
  178ACOH    H210323   5.122   1.963   1.473 -0.2580 -0.7702 -1.1025
  178ACOH    H310324   5.124   2.022   1.649 -2.9571  0.3204  2.0473
  179ACOH    H410325   8.930   3.336   0.895 -0.9280 -2.9281 -1.3982
  179ACOH    O210326   8.857   3.375   0.845 -0.0633  0.3894 -0.2300
  179ACOH    C210327   8.890   3.354   0.715  0.3520  0.0172  0.7829
  179ACOH    O110328   9.007   3.349   0.670  0.3639  0.4292 -0.2540
  179ACOH    C110329   8.774   3.364   0.630 -0.1098 -1.0728  0.0512
  179ACOH    H110330   8.792   3.354   0.523 -0.7431 -0.4527 -0.1174
  179ACOH    H210331   8.729   3.461   0.649  0.5856 -1.3470  3.4018
  179ACOH    H310332   8.700   3.287   0.650 -0.2796 -0.7678  0.5875
  180ACOH    H410333   4.378   2.807   0.166 -0.6677  0.9099 -0.7187
  180ACOH    O210334   4.387   2.787   0.071 -0.0192  0.4058 -0.5502
  180ACOH    C210335   4.513   2.795   0.039  0.4550  0.5505  0.2638
  180ACOH    O110336   4.600   2.844   0.106 -0.0936  0.5805 -1.1070
  180ACOH    C110337   4.533   2.777  -0.105 -0.7222  0.4679  0.2581
  180ACOH    H110338   4.547   2.875  -0.150  1.0544 -0.1803 -0.6497
  180ACOH    H210339   4.446   2.733  -0.153 -1.0781 -1.0821  2.2460
  180ACOH    H310340   4.621   2.717  -0.129 -0.5840  0.3837  0.9645
  181ACOH    H410341   3.357   2.933   0.909  0.0740  0.0296 -1.1308
  181ACOH    O210342   3.388   3.023   0.888 -0.4187  0.3392 -0.5567
  181ACOH    C210343   3.521   3.029   0.890 -0.0827  0.7970  0.5757
  181ACOH    O110344   3.589   2.959   0.961  0.3044  0.8296 -0.0108
  181ACOH    C110345   3.556   3.163   0.840 -0.4582 -0.1925 -0.2804
  181ACOH    H110346   3.658   3.191   0.867 -0.4493 -0.3628 -0.1331
  181ACOH    H210347   3.484   3.237   0.872  1.6733  2.4377 -1.3321
  181ACOH    H310348   3.561   3.161   0.731  0.5357 -1.6628 -0.2312
  182ACOH    H410349   3.732   3.131   1.776  0.5471 -1.7599  0.4653
  182ACOH    O210350   3.635   3.122   1.787  0.3064  0.3078  0.1038
  182ACOH    C210351   3.587   3.089   1.659  0.4638 -0.3721 -0.3378
  182ACOH    O110352   3.639   3.101   1.549 -0.3796 -0.1469 -0.0211
  182ACOH    C110353   3.447   3.050   1.682  0.1829  0.2454  0.4571
  182ACOH    H110354   3.398   3.000   1.599  0.9136  2.2779 -1.2715
  182ACOH    H210355   3.390   3.139   1.710  0.4794  1.3142 -2.1154
  182ACOH    H310356   3.439   2.979   1.764 -1.3583  0.1486  0.2409
  183ACOH    H410357   9.089   3.413   0.022  1.3408  0.0679  1.4274
  183ACOH    O210358   9.046   3.344   0.076  0.3682 -0.2566  0.2402
  183ACOH    C210359   9.000   3.412   0.184  0.6582 -0.2679 -0.2363
  183ACOH    O110360   9.019   3.530   0.202  0.4397  0.6515 -0.5591
  183ACOH    C110361   8.974   3.330   0.300  0.0410 -0.6649 -0.0025
  183ACOH    H110362   8.873   3.289   0.302 -1.0708  1.9400 -0.0401
  183ACOH    H210363   9.004   3.386   0.388 -0.1360 -0.6332  0.0391
  183ACOH    H310364   9.044   3.247   0.293 -1.7676 -2.0553 -2.4483
  184ACOH    H410365   4.403   4.209   0.835 -0.0811  0.1184 -1.8073
  184ACOH    O210366   4.407   4.306   0.840  0.1489  0.0131  0.3528
  184ACOH    C210367   4.539   4.331   0.869  0.7129  0.0737  0.0681
  184ACOH    O110368   4.629   4.256   0.831  0.7930 -0.4266 -0.1091
  184ACOH    C110369   4.557   4.469   0.919 -0.1678  0.2817  0.2047
  184ACOH    H110370   4.650   4.506   0.878  0.6762 -0.4406  1.4412
  184ACOH    H210371   4.573   4.477   1.026 -0.9220  1.8412  0.2222
  184ACOH    H310372   4.468   4.533   0.913 -0.8413 -0.3033  3.2247
  185ACOH    H410373   3.184   5.345   1.819  1.1617 -1.3046  1.9296
  185ACOH    O210374   3.229   5.424   1.855  0.0558  0.0023  0.5097
  185ACOH    C210375   3.131   5.490   1.919  0.4599  0.7975  0.7066
  185ACOH    O110376   3.025   5.517   1.866  0.6013  0.4422 -0.5267
  185ACOH    C110377   3.189   5.572   2.031 -0.2224 -0.1972  0.3920
  185ACOH    H110378   3.117   5.561   2.113 -0.1658 -0.9106  0.3528
  185ACOH    H210379   3.184   5.678   2.007  0.9067 -0.2151  0.0928
  185ACOH    H310380   3.282   5.521   2.055  0.6246  0.6069 -1.1863
  186ACOH    H410381   5.178   3.965   0.412  1.2899 -0.8536 -0.3986
  186ACOH    O210382   5.231   4.003   0.484  0.6595  0.2674 -0.5067
  186ACOH    C210383   5.149   4.034   0.592 -0.0518  0.5909  0.3823
  186ACOH    O110384   5.029   4.008   0.598 -0.4580  0.3194  0.4195
  186ACOH    C110385   5.220   4.096   0.709 -0.9586  0.6782  0.2484
  186ACOH    H110386   5.294   4.165   0.667 -1.3886  0.2409 -1.2309
  186ACOH    H210387   5.261   4.025   0.781  0.5151 -0.2657 -1.4757
  186ACOH    H310388   5.147   4.156   0.763 -0.6612 -0.2349  1.6843
  187ACOH    H410389   8.331   2.633   0.010  0.5920 -0.5856  0.7642
  187ACOH    O210390   8.286   2.640   0.096  0.3829 -0.0564  0.6117
  187ACOH    C210391   8.249   2.521   0.147  0.4161  0.4627  0.6816
  187ACOH    O110392   8.297   2.419   0.100  0.0508  1.1158  0.5980
  187ACOH    C110393   8.175   2.519   0.274 -0.0230  0.0368  0.2656
  187ACOH    H110394   8.070   2.497   0.259  0.3994 -0.6598 -1.7876
  187ACOH    H210395   8.179   2.614   0.327 -1.1698 -0.9096  2.1260
  187ACOH    H310396   8.214   2.442   0.341  1.9632 -0.0586 -0.9672
  188ACOH    H410397   3.623   7.502   0.233  2.3286  1.0695 -0.7385
  188ACOH    O210398   3.688   7.430   0.242  0.7518 -0.3589 -0.5338
  188ACOH    C210399   3.668   7.383   0.363  0.4917  1.0213  0.2412
  188ACOH    O110400   3.561   7.363   0.416  0.7492  0.5378  0.3862
  188ACOH    C110401   3.786   7.317   0.420 -0.4341  0.5598  0.2495
  188ACOH    H110402   3.805   7.359   0.519 -0.2222  2.0818 -0.4270
  188ACOH    H210403   3.870   7.346   0.358  0.0917  2.0200  1.6133
  188ACOH    H310404   3.776   7.208   0.413 -1.6757  0.6871 -0.1401
  189ACOH    H410405   3.681   9.899   2.724  0.1202 -0.2215  1.0704
  189ACOH    O210406   3.611   9.940   2.777  0.1283  1.4347 -0.1592
  189ACOH    C210407   3.485   9.895   2.756 -0.2671  0.2879  0.2157
  189ACOH    O110408   3.450   9.801   2.689 -0.1993 -0.0572  0.3455
  189ACOH    C110409   3.387   9.976   2.838  0.4638 -0.3729 -0.2339
  189ACOH    H110410   3.345  10.053   2.774 -0.7040  0.8166  1.8908
  189ACOH    H210411   3.422  10.026   2.928  1.4256 -0.7947 -0.3692
  189ACOH    H310412   3.317   9.896   2.864 -0.3304  0.9437  1.7992
  190ACOH    H410413   4.019   9.251   0.559  1.4599 -0.2416  1.6583
  190ACOH    O210414   4.049   9.159   0.546  0.2775 -0.3924 -0.0932
  190ACOH    C210415   4.044   9.121   0.414  0.3901  0.1899  0.1259
  190ACOH    O110416   4.014   9.199   0.331 -0.8509 -0.6603  0.1037
  190ACOH    C110417   4.059   8.978   0.393  0.3673 -0.1723 -0.3772
  190ACOH    H110418   4.014   8.916   0.471  0.6107  0.0155 -0.0854
  190ACOH    H210419   4.168   8.966   0.394  0.6265  1.5606 -2.9261
  190ACOH    H310420   4.013   8.944   0.300 -0.1138  1.0463 -0.5925
  191ACOH    H410421   4.966   3.229   1.557  0.9172 -1.6741  1.4809
  191ACOH    O210422   4.958   3.274   1.642  0.1274 -0.1450  0.6174
  191ACOH    C210423   4.872   3.380   1.622  0.1302  0.0793 -0.9242
  191ACOH    O110424   4.804   3.398   1.524  0.0035 -0.0495 -0.6797
  191ACOH    C110425   4.859   3.463   1.746 -0.4598 -0.0539  0.1464
  191ACOH    H110426   4.802   3.410   1.822  0.0865 -0.7658  0.0607
  191ACOH    H210427   4.810   3.560   1.737 -1.2410 -0.1668  2.7476
  191ACOH    H310428   4.960   3.479   1.785 -0.6145 -0.5214  0.7403
  192ACOH    H410429   9.128   3.573   1.142  0.2980 -1.1707 -2.9863
  192ACOH    O210430   9.065   3.504   1.168  0.4713 -0.1549  0.2872
  192ACOH    C210431   8.940   3.544   1.137 -0.9701  0.1652 -0.1863
  192ACOH    O110432   8.915   3.660   1.098 -0.8396  0.0720  1.0762
  192ACOH    C110433   8.849   3.443   1.198  0.0176  0.0135 -0.2888
  192ACOH    H110434   8.750   3.457   1.155  0.5771  1.1413 -1.2120
  192ACOH    H210435   8.832   3.472   1.302  0.2610  1.9047 -0.7703
  192ACOH    H310436   8.885   3.341   1.186  0.4446  0.0204  0.8776
  193ACOH    H410437   3.863   7.804   2.070 -2.1055  0.2571 -3.6117
  193ACOH    O210438   3.917   7.734   2.029 -0.0594 -0.2943 -0.1647
  193ACOH    C210439   4.043   7.764   2.061  0.5941 -0.5820 -0.1870
  193ACOH    O110440   4.078   7.852   2.142 -0.6221  0.2771 -0.5897
  193ACOH    C110441   4.134   7.662   2.006 -0.2354  0.4508  0.1713
  193ACOH    H110442   4.080   7.568   1.999 -0.2678  0.4233  0.7739
  193ACOH    H210443   4.212   7.636   2.077  1.4178  2.8523 -0.6821
  193ACOH    H310444   4.187   7.690   1.915  1.0076  1.6596  1.2490
  194ACOH    H410445   3.513   5.316   2.235 -1.5894  0.1085 -3.1247
  194ACOH    O210446   3.606   5.329   2.208 -0.4857 -0.0613  0.2938
  194ACOH    C210447   3.682   5.396   2.306  0.2067 -0.1837  0.3258
  194ACOH    O110448   3.641   5.486   2.376 -0.5179 -0.6967 -0.2511
  194ACOH    C110449   3.828   5.375   2.283 -0.6773 -0.5438  0.6446
  194ACOH    H110450   3.839   5.282   2.226  2.0718  0.0338  0.1707
  194ACOH    H210451   3.880   5.372   2.379 -1.2347  1.8246  1.0539
  194ACOH    H310452   3.874   5.454   2.224  0.9398  0.5395  3.3157
  195ACOH    H410453   8.860   4.791   1.061  0.2878  0.0677 -1.1802
  195ACOH    O210454   8.834   4.882   1.084  0.1622 -0.2119 -0.1685
  195ACOH    C210455   8.823   4.951   0.966 -0.1853  0.0108  0.1553
  195ACOH    O110456   8.854   4.902   0.858  0.1402  0.5822 -0.4277
  195ACOH    C110457   8.790   5.096   0.985 -0.9919 -0.1824 -0.2327
  195ACOH    H110458   8.773   5.131   0.883 -1.2477 -0.0672 -0.1497
  195ACOH    H210459   8.869   5.145   1.043 -0.9712 -0.5093  0.0153
  195ACOH    H310460   8.694   5.104   1.035 -1.5729 -3.0247 -0.8118
  196ACOH    H410461   9.139   4.784   2.510 -0.0764  0.1307  0.4606
  196ACOH    O210462   9.068   4.819   2.455  0.3414  0.5725  0.1930
  196ACOH    C210463   8.944   4.767   2.487  0.2241 -1.1360  0.9132
  196ACOH    O110464   8.938   4.659   2.530  0.7100  0.4359  0.2837
  196ACOH    C110465   8.843   4.838   2.407  0.0441  0.2339  0.8112
  196ACOH    H110466   8.745   4.802   2.437 -1.0526 -0.0595 -2.9258
  196ACOH    H210467   8.855   4.807   2.303  0.7497 -0.5782  1.1311
  196ACOH    H310468   8.855   4.946   2.413 -0.2008  0.2131  1.8218
  197ACOH    H410469   4.905   2.302   2.200  0.1164  1.1742 -3.2086
  197ACOH    O210470   4.997   2.278   2.181  0.4603  0.1876 -0.5930
  197ACOH    C210471   5.064   2.262   2.296  0.5544  0.4084 -0.3199
  197ACOH    O110472   5.016   2.215   2.398  0.1385  0.2862  0.3243
  197ACOH    C110473   5.208   2.295   2.283  0.0409  0.2147  0.2110
  197ACOH    H110474   5.258   2.230   2.211 -1.9792 -1.6407  0.4240
  197ACOH    H210475   5.260   2.282   2.378  1.4348 -0.4719 -0.6440
  197ACOH    H310476   5.215   2.398   2.249  0.8981 -1.2113 -4.1851
  198ACOH    H410477   3.459   5.397   0.218  0.1089 -0.2515 -0.6258
  198ACOH    O210478   3.556   5.390   0.226  0.0605 -0.3424 -0.0893
  198ACOH    C210479   3.605   5.345   0.340 -0.0294  0.4701 -0.4808
  198ACOH    O110480   3.542   5.353   0.444  0.4222  0.3775  0.1064
  198ACOH    C110481   3.746   5.316   0.331  0.0617  0.2043 -0.3082
  198ACOH    H110482   3.778   5.233   0.394  3.1199  0.3292 -1.6134
  198ACOH    H210483   3.804   5.407   0.347 -0.9982  1.0047 -1.0244
  198ACOH    H310484   3.764   5.285   0.228 -0.1723  0.7431 -0.5116
  199ACOH    H410485   1.032   2.229   1.236  1.5624 -0.2964  3.3399
  199ACOH    O210486   1.089   2.159   1.200  0.2001  0.3349 -0.2145
  199ACOH    C210487   1.180   2.124   1.296  0.1392  0.1268 -0.1668
  199ACOH    O110488   1.213   2.193   1.395 -0.1931 -0.1428 -0.3249
  199ACOH    C110489   1.248   2.004   1.246  0.4464 -0.3249 -0.0053
  199ACOH    H110490   1.170   1.936   1.214 -0.8403 -0.2551  2.7913
  199ACOH    H210491   1.305   1.949   1.321  2.0403  1.9969  0.5506
  199ACOH    H310492   1.317   2.026   1.165  0.1557 -0.2478 -0.2324
  200ACOH    H410493   2.293   1.660   1.200  0.5968 -2.0113  1.3187
  200ACOH    O210494   2.372   1.710   1.226 -0.0200  0.1012 -0.6863
  200ACOH    C210495   2.482   1.651   1.179 -0.0606  0.2571 -0.1876
  200ACOH    O110496   2.493   1.529   1.171  0.6425  0.4319  0.0756
  200ACOH    C110497   2.592   1.747   1.208  0.3540  0.5557 -0.4524
  200ACOH    H110498   2.584   1.822   1.129  1.1710  0.4437 -0.6535
  200ACOH    H210499   2.688   1.698   1.188 -0.1011 -0.1160 -1.0425
  200ACOH    H310500   2.587   1.792   1.307  1.8423  1.1804 -0.6472
  201ACOH    H410501   3.025   6.552   1.982  1.1659 -1.8426 -2.0646
  201ACOH    O210502   3.086   6.618   1.945  0.3014  0.1276 -0.0712
  201ACOH    C210503   3.070   6.633   1.812  0.0463  1.2898  0.8871
  201ACOH    O110504   3.003   6.566   1.733 -0.3757  0.2442 -0.2018
  201ACOH    C110505   3.160   6.734   1.753 -0.4451 -1.2512  0.6828
  201ACOH    H110506   3.210   6.791   1.831 -2.6442  2.8007 -0.6955
  201ACOH    H210507   3.100   6.796   1.687  0.0596 -0.6661  0.7712
  201ACOH    H310508   3.236   6.693   1.686  0.5619 -0.0429  1.0565
  202ACOH    H410509   4.096   4.785   1.901 -1.6301 -1.1357 -1.4134
  202ACOH    O210510   4.130   4.838   1.827 -0.1544 -0.3333 -0.2196
  202ACOH    C210511   4.141   4.755   1.724 -0.6243 -0.1268  0.5472
  202ACOH    O110512   4.139   4.633   1.732 -0.3027  0.1192 -0.3894
  202ACOH    C110513   4.146   4.827   1.594 -0.5600 -0.0178 -0.0910
  202ACOH    H110514   4.250   4.823   1.561  0.5203 -0.8175  3.2431
  202ACOH    H210515   4.112   4.931   1.596  0.8005  0.5339 -2.9679
  202ACOH    H310516   4.088   4.776   1.517  0.3934 -0.0047 -0.8258
  203ACOH    H410517   9.049   3.502   1.935 -1.1048  0.1274 -0.0482
  203ACOH    O210518   9.028   3.429   1.996  0.5487 -0.3611 -0.0292
  203ACOH    C210519   9.065   3.314   1.944 -0.2384  0.0233 -0.7358
  203ACOH    O110520   9.114   3.298   1.831 -0.1706 -0.0328 -0.3233
  203ACOH    C110521   9.050   3.208   2.041 -0.3986 -0.7537 -0.6066
  203ACOH    H110522   9.097   3.123   1.993 -1.8671 -2.5187  1.0240
  203ACOH    H210523   8.948   3.178   2.063  0.3519 -2.3071  0.8557
  203ACOH    H310524   9.101   3.229   2.135 -0.2177 -1.5356 -0.5285
  204ACOH    H410525   4.199   8.136   1.536  1.3869  1.4337  1.1315
  204ACOH    O210526   4.221   8.062   1.594  0.0332  0.0174 -0.1102
  204ACOH    C210527   4.145   8.074   1.709 -0.2264 -0.2235 -0.1950
  204ACOH    O110528   4.122   8.183   1.757 -0.6300  0.7404 -0.2347
  204ACOH    C110529   4.146   7.945   1.784 -0.3758  0.0548 -0.2111
  204ACOH    H110530   4.049   7.904   1.810 -0.3554 -0.6329 -1.1577
  204ACOH    H210531   4.206   7.955   1.874 -3.1934 -0.2832  1.7503
  204ACOH    H310532   4.195   7.869   1.723 -0.1379 -0.9623  1.2126
  205ACOH    H410533   8.737   3.799   1.879 -1.6707 -0.4407  0.3455
  205ACOH    O210534   8.751   3.758   1.793  0.4184  1.0830 -0.0917
  205ACOH    C210535   8.672   3.819   1.708  0.4768  0.1577 -0.5448
  205ACOH    O110536   8.638   3.933   1.726  0.5156 -0.6631 -0.4068
  205ACOH    C110537   8.633   3.739   1.592 -1.0485  0.0265  0.1534
  205ACOH    H110538   8.532   3.698   1.597 -0.2825 -1.8828  0.5001
  205ACOH    H210539   8.708   3.664   1.567  0.8485  2.1122 -0.6035
  205ACOH    H310540   8.626   3.800   1.502  0.3444 -1.5791 -1.0907
  206ACOH    H410541   4.268   8.693   2.000 -0.9237  0.8782 -1.2509
  206ACOH    O210542   4.355   8.733   2.015 -0.5172 -0.3604 -0.1395
  206ACOH    C210543   4.409   8.694   2.128 -0.6374  0.7340 -0.2525
  206ACOH    O110544   4.365   8.608   2.207  0.5835  0.2673  0.5884
  206ACOH    C110545   4.530   8.782   2.166  0.0216 -0.1020  0.5970
  206ACOH    H110546   4.510   8.889   2.176  0.2109 -0.1323  1.3390
  206ACOH    H210547   4.613   8.781   2.096  0.1987  3.1131  0.6808
  206ACOH    H310548   4.574   8.736   2.255 -0.4639 -1.0912  0.3295
  207ACOH    H410549   5.161   3.673   2.235 -1.1883 -0.5258 -0.8079
  207ACOH    O210550   5.225   3.659   2.164 -0.2102  0.4807 -0.1395
  207ACOH    C210551   5.223   3.524   2.140  0.5097  0.4209  0.0380
  207ACOH    O110552   5.202   3.436   2.225  0.4077  0.2019  0.3898
  207ACOH    C110553   5.307   3.495   2.027  0.3804  0.2651 -0.0393
  207ACOH    H110554   5.273   3.394   2.004 -0.5524  0.6108 -0.1952
  207ACOH    H210555   5.413   3.510   2.044  0.8212 -1.8620 -0.7683
  207ACOH    H310556   5.280   3.562   1.946  0.7519  0.0098 -0.3776
  208ACOH    H410557   3.990   9.815   2.089 -2.7877 -3.0484 -1.7537
  208ACOH    O210558   4.055   9.745   2.108 -0.9032 -0.8381  0.2519
  208ACOH    C210559   4.124   9.791   2.214 -0.0979  0.4914  0.0045
  208ACOH    O110560   4.092   9.860   2.309 -0.1485 -0.4770  0.2172
  208ACOH    C110561   4.246   9.700   2.228 -0.5637 -0.5718  0.2540
  208ACOH    H110562   4.228   9.602   2.184 -0.6162 -0.2270 -0.5049
  208ACOH    H210563   4.285   9.699   2.330 -0.5753  1.8636  0.2956
  208ACOH    H310564   4.329   9.745   2.174  1.1684 -2.4923  1.2464
  209ACOH    H410565   2.485   1.873   1.591 -0.7760 -0.4415 -0.4711
  209ACOH    O210566   2.578   1.888   1.567 -0.5590 -0.0936  0.5703
  209ACOH    C210567   2.626   1.774   1.625 -0.2129 -1.0795  1.1873
  209ACOH    O110568   2.570   1.700   1.698 -0.1544 -0.0764  0.5053
  209ACOH    C110569   2.759   1.753   1.570  0.2071  0.3584 -0.3471
  209ACOH    H110570   2.756   1.729   1.464 -1.3262 -0.4590 -0.1386
  209ACOH    H210571   2.816   1.685   1.633 -2.1152 -0.6974  0.6747
  209ACOH    H310572   2.812   1.846   1.592  1.7161 -1.0321  2.1209
  210ACOH    H410573   4.045   5.430   1.225  0.6053  1.1954 -1.9266
  210ACOH    O210574   3.956   5.413   1.191 -0.2321 -0.3361  0.8310
  210ACOH    C210575   3.896   5.306   1.252 -0.2878 -0.6727  0.8653
  210ACOH    O110576   3.956   5.223   1.321 -0.1362 -0.5006  0.0088
  210ACOH    C110577   3.756   5.288   1.197  0.5845 -0.1647 -0.5212
  210ACOH    H110578   3.747   5.350   1.108 -0.3423 -1.3536 -1.2802
  210ACOH    H210579   3.679   5.329   1.262  0.3879 -2.3118  0.6781
  210ACOH    H310580   3.732   5.184   1.175  2.8826 -0.8434 -0.0291
  211ACOH    H410581   5.313   3.274   0.364  0.9518  2.7831 -0.4675
  211ACOH    O210582   5.386   3.236   0.416 -0.3987  0.7029 -0.0425
  211ACOH    C210583   5.379   3.279   0.544 -0.1432  0.0013 -0.1500
  211ACOH    O110584   5.325   3.383   0.573  0.5997 -0.0786 -0.5000
  211ACOH    C110585   5.490   3.214   0.625  0.0543 -0.6208  0.1265
  211ACOH    H110586   5.477   3.105   0.621  1.4382 -0.7650 -1.0608
  211ACOH    H210587   5.478   3.234   0.731 -1.3607 -0.7000 -0.0101
  211ACOH    H310588   5.589   3.247   0.594 -0.3769  0.6941  0.1452
  212ACOH    H410589   4.710   2.234   0.237 -0.8678 -0.0002 -1.9396
  212ACOH    O210590   4.712   2.137   0.244 -0.1900  0.1667  0.4677
  212ACOH    C210591   4.707   2.091   0.121 -0.0781  0.3778 -0.0519
  212ACOH    O110592   4.739   2.147   0.020  0.2184 -0.5752  0.4033
  212ACOH    C110593   4.674   1.944   0.124  0.4096 -0.1891 -0.0669
  212ACOH    H110594   4.735   1.902   0.203  1.3876  0.7365 -0.3144
  212ACOH    H210595   4.687   1.895   0.027 -0.8358  2.0023 -1.3867
  212ACOH    H310596   4.573   1.934   0.162  0.1086 -0.2198 -0.8537
  213ACOH    H410597   4.080   9.600   1.469 -2.5431  1.3985 -1.3301
  213ACOH    O210598   4.135   9.671   1.431 -0.4342  0.3574 -0.3004
  213ACOH    C210599   4.256   9.619   1.404  0.9083 -0.3128  0.2953
  213ACOH    O110600   4.269   9.502   1.380 -0.0099  0.0208  0.1523
  213ACOH    C110601   4.351   9.729   1.367 -0.3267 -0.0833 -0.2544
  213ACOH    H110602   4.444   9.704   1.419 -0.5794  1.2841  0.8787
  213ACOH    H210603   4.313   9.827   1.395  1.2049  0.1092  1.2083
  213ACOH    H310604   4.374   9.717   1.261 -1.0045 -0.0789 -0.4013
  214ACOH    H410605   4.635   8.186   0.907 -0.1438  1.3413  1.0088
  214ACOH    O210606   4.720   8.139   0.910 -0.4753  0.6748  0.1988
  214ACOH    C210607   4.793   8.185   0.808  0.2843  0.3785 -0.4135
  214ACOH    O110608   4.749   8.217   0.700 -0.0658  0.2389  0.2655
  214ACOH    C110609   4.943   8.180   0.830  0.1424  0.4323 -0.0584
  214ACOH    H110610   4.982   8.115   0.751  0.7278 -1.6432  1.9048
  214ACOH    H210611   4.973   8.143   0.927  3.1512 -0.7620 -1.3829
  214ACOH    H310612   4.972   8.283   0.806 -0.1571  0.6722  0.6023
  215SOL     OW10613   3.132   1.790   0.919  0.4350  0.3579 -0.0520
  215SOL    HW110614   3.091   1.770   0.830 -0.7103 -1.4950  0.8414
  215SOL    HW210615   3.075   1.750   0.991  1.9344  0.8500  1.4453
  216SOL     OW10616   8.698   4.628   0.687  0.1596 -0.1987  0.1679
  216SOL    HW110617   8.671   4.658   0.596  0.8087 -3.3458 -1.1374
  216SOL    HW210618   8.724   4.707   0.742  0.3959  1.7074 -2.5837
  217SOL     OW10619   2.749   2.315   0.411 -0.0430 -0.0079 -0.1196
  217SOL    HW110620   2.765   2.225   0.371  0.3323 -0.4511  1.0079
  217SOL    HW210621   2.813   2.381   0.373  0.3929 -0.4512 -0.1581
  218SOL     OW10622   4.128   0.870   0.697  0.4070 -0.0563  0.2406
  218SOL    HW110623   4.205   0.868   0.760  1.0817  1.9319 -0.4651
  218SOL    HW210624   4.089   0.963   0.694 -0.6093 -0.5001 -1.0545
  219SOL     OW10625   3.206   0.484   2.788 -0.2107 -0.3594 -0.5840
  219SOL    HW110626   3.292   0.524   2.757  0.1159  0.1519  0.9431
  219SOL    HW210627   3.129   0.537   2.750  0.2211  2.0782  1.7667
  220SOL     OW10628   2.943   8.780   1.646  0.2264  0.1269 -0.0511
  220SOL    HW110629   3.025   8.724   1.651 -0.5061 -0.8988  0.7474
  220SOL    HW210630   2.968   8.877   1.651  1.4328 -0.1564 -0.5103
  221SOL     OW10631   0.603   2.765   1.153  0.0718 -0.3215  0.1000
  221SOL    HW110632   0.681   2.823   1.130 -0.7942  0.5214 -0.8209
  221SOL    HW210633   0.538   2.817   1.210  0.7296 -1.3994  1.8681
  222SOL     OW10634   0.365   2.647   0.440  0.1576 -0.2730  0.5987
  222SOL    HW110635   0.371   2.671   0.343 -2.2029 -0.3610  0.4095
  222SOL    HW210636   0.422   2.711   0.493  1.2640 -0.0645 -0.7948
  223SOL     OW10637   1.676   4.620   0.850 -0.4012  0.5824  0.3422
  223SOL    HW110638   1.577   4.634   0.855 -0.4468  0.2824  0.3048
  223SOL    HW210639   1.716   4.684   0.785 -0.8913 -0.8833 -1.4471
  224SOL     OW10640   1.870   4.599   1.588  0.0052  0.2101  0.0130
  224SOL    HW110641   1.966   4.605   1.616 -0.1010  1.6617  0.0847
  224SOL    HW210642   1.852   4.665   1.516 -0.8027 -0.4773 -0.4223
  225SOL     OW10643   1.640   7.656   2.144  0.4668  0.1257 -0.2103
  225SOL    HW110644   1.602   7.679   2.234 -1.3378 -1.5922 -0.4856
  225SOL    HW210645   1.641   7.556   2.134 -0.2349  0.3284 -2.4600
  226SOL     OW10646   4.438   1.417   2.133  0.6116 -0.2749  0.0139
  226SOL    HW110647   4.524   1.397   2.086  1.0838  0.9948  0.3210
  226SOL    HW210648   4.391   1.492   2.085 -0.0195 -0.5363  0.2204
  227SOL     OW10649   3.638   2.800   1.921  0.7729  0.7322 -0.0245
  227SOL    HW110650   3.582   2.841   1.994  1.3553 -0.1050  0.9095
  227SOL    HW210651   3.706   2.740   1.962  1.3335  0.5189 -1.2587
  228SOL     OW10652   9.727   5.398   1.137  0.4434 -0.7145 -0.0862
  228SOL    HW110653   9.808   5.339   1.146 -1.0172 -2.8254 -0.4569
  228SOL    HW210654   9.702   5.404   1.040  2.3621  3.0273 -0.4253
  229SOL     OW10655   0.384   4.195   1.972  0.1168  0.1235 -0.0216
  229SOL    HW110656   0.429   4.107   1.988  0.1519  0.3668  1.3176
  229SOL    HW210657   0.338   4.194   1.883 -0.1560 -1.3600  0.1220
  230SOL     OW10658   1.179   3.919   1.912  0.1178  0.0650  0.0454
  230SOL    HW110659   1.236   4.000   1.920  0.5446 -0.3724  1.6419
  230SOL    HW210660   1.120   3.912   1.992 -1.0745 -0.3334 -0.8480
  231SOL     OW10661   9.504   4.381   0.896  0.4425  0.4153  0.5382
  231SOL    HW110662   9.591   4.388   0.847  0.1774  2.5847  0.3380
  231SOL    HW210663   9.443   4.320   0.846  1.0434  0.6828 -0.5333
  232SOL     OW10664   1.738   2.739   2.405  0.4682  0.7120 -0.2135
  232SOL    HW110665   1.641   2.721   2.386  0.5546 -0.9801  0.8890
  232SOL    HW210666   1.783   2.768   2.320 -0.3700 -1.3386 -1.3982
  233SOL     OW10667   3.902   9.507   2.698  0.0877 -0.3585  0.5932
  233SOL    HW110668   3.911   9.433   2.765 -0.6911 -0.7407  0.2771
  233SOL    HW210669   3.980   9.569   2.707 -0.9902  0.6749  3.1656
  234SOL     OW10670   2.378   0.222   2.598 -0.7064 -0.2820  0.2867
  234SOL    HW110671   2.370   0.146   2.533 -2.4164  0.6079 -0.5714
  234SOL    HW210672   2.301   0.222   2.661 -1.0492  1.0705 -0.1032
  235SOL     OW10673   0.950   3.642   1.226  0.5508  0.2709  0.3479
  235SOL    HW110674   0.931   3.734   1.190  1.4440  0.2632 -0.1509
  235SOL    HW210675   0.875   3.614   1.286 -0.0553  1.0510 -0.0298
  236SOL     OW10676   0.932   7.224   0.518 -0.2180 -0.6421  0.8300
  236SOL    HW110677   1.017   7.194   0.562 -0.7505 -2.5178  0.6347
  236SOL    HW210678   0.946   7.229   0.419  0.6887  2.6042  1.0633
  237SOL     OW10679   0.267   4.611   1.996  0.5069  0.1321 -0.2532
  237SOL    HW110680   0.290   4.605   1.899  2.9310 -2.1114  0.4170
  237SOL    HW210681   0.202   4.539   2.019  0.7088  0.0364  0.0148
  238SOL     OW10682   2.494   9.679   1.993  0.2665 -0.4990 -0.1148
  238SOL    HW110683   2.453   9.589   1.980  0.9685 -0.8060 -0.2089
  238SOL    HW210684   2.591   9.676   1.968  0.3310  0.2448  0.0228
  239SOL     OW10685   2.155   3.710   0.934  0.1743  0.5743  0.4218
  239SOL    HW110686   2.176   3.669   0.845  0.8721 -0.7212  1.1701
  239SOL    HW210687   2.240   3.723   0.985 -0.2090  1.4636  0.8400
  240SOL     OW10688   2.565   0.617   0.480 -0.0347  0.8938 -0.0719
  240SOL    HW110689   2.567   0.716   0.497 -0.8568  1.2182 -1.7265
  240SOL    HW210690   2.657   0.580   0.491  0.0519  1.5897  1.8730
  241SOL     OW10691   8.853   4.511   1.901  0.3614 -0.3134  0.3650
  241SOL    HW110692   8.879   4.508   1.998  0.0414 -1.2500  0.4265
  241SOL    HW210693   8.833   4.418   1.869 -1.3248  0.2033 -0.1080
  242SOL     OW10694   2.389   4.108   0.249 -0.0769 -0.1652  0.1293
  242SOL    HW110695   2.290   4.104   0.235 -0.3610  0.9578  1.6635
  242SOL    HW210696   2.411   4.076   0.341  0.9752 -0.1560 -0.1112
  243SOL     OW10697   2.808   1.078   0.939 -0.4296 -0.2862 -0.3551
  243SOL    HW110698   2.889   1.019   0.930 -0.3038 -0.4068  1.3072
  243SOL    HW210699   2.824   1.164   0.892 -0.5681 -1.5275 -2.7399
  244SOL     OW10700   1.559   7.858   1.632  0.0296  0.2789  0.1449
  244SOL    HW110701   1.604   7.868   1.721  0.3649  1.1490 -0.1171
  244SOL    HW210702   1.480   7.797   1.641  1.3436 -1.3657  0.5751
  245SOL     OW10703   1.967   8.440   1.636  0.2619 -0.9687 -0.2462
  245SOL    HW110704   1.950   8.347   1.667  0.0060 -0.4990  1.0738
  245SOL    HW210705   1.986   8.498   1.715  3.3720 -0.4994 -1.2475
  246SOL     OW10706   2.836   2.533   2.402  0.1613 -0.1597  0.5714
  246SOL    HW110707   2.928   2.571   2.398 -1.0110  2.6979 -0.7145
  246SOL    HW210708   2.817   2.483   2.317  0.3116 -0.2552  0.5934
  247SOL     OW10709   3.101   4.959   1.943 -0.2640 -0.1307 -0.3516
  247SOL    HW110710   3.086   4.863   1.919 -0.8711  0.1655 -1.2006
  247SOL    HW210711   3.185   4.968   1.996 -1.8479 -1.5533  2.4996
  248SOL     OW10712   1.568   3.463   1.634 -0.0949  0.1414 -0.2625
  248SOL    HW110713   1.611   3.466   1.544  0.6160  1.4401  0.1058
  248SOL    HW210714   1.481   3.512   1.631  0.7017  1.6026  0.1473
  249SOL     OW10715   0.312   2.268   0.451 -0.2399  0.4094 -0.2370
  249SOL    HW110716   0.389   2.270   0.387 -1.2091 -0.7317 -1.4697
  249SOL    HW210717   0.330   2.200   0.522 -0.3330 -0.2361 -0.8261
  250SOL     OW10718   1.363   2.420   1.088  0.0695 -0.4009  0.1723
  250SOL    HW110719   1.287   2.449   1.146  0.0831  0.3334 -0.1694
  250SOL    HW210720   1.447   2.468   1.115  0.2994 -0.8302  0.2219
  251SOL     OW10721   1.775   6.119   1.910  0.4524 -0.0654 -0.1617
  251SOL    HW110722   1.832   6.037   1.902 -0.9317 -1.2149  1.3267
  251SOL    HW210723   1.687   6.102   1.866  0.0517  0.5112  0.4117
  252SOL     OW10724   1.973   3.179   0.059 -0.6800  0.0232  0.0159
  252SOL    HW110725   1.923   3.092   0.056  0.6538 -0.7707  0.2522
  252SOL    HW210726   2.070   3.161   0.070 -0.2315  1.5212 -1.2228
  253SOL     OW10727   2.488   4.726   0.471  0.0612  0.0361  0.6172
  253SOL    HW110728   2.415   4.737   0.404  0.6726 -0.2061 -0.0929
  253SOL    HW210729   2.536   4.640   0.455  0.3117  0.0504  1.2701
  254SOL     OW10730   2.602   9.028   0.467  0.3017 -0.6947 -1.0362
  254SOL    HW110731   2.656   9.039   0.383  0.4371 -1.7806 -1.0977
  254SOL    HW210732   2.525   9.091   0.466  0.4732 -0.4964 -1.8385
  255SOL     OW10733   2.920   5.366   1.401  0.0168 -0.0605  0.5833
  255SOL    HW110734   3.016   5.347   1.422  0.0671  0.1558  0.5506
  255SOL    HW210735   2.882   5.425   1.473 -0.5237 -1.4263  1.4300
  256SOL     OW10736   3.365   0.709   1.621 -0.1841  0.1852  0.1855
  256SOL    HW110737   3.367   0.705   1.521  0.2732  0.8223  0.1638
  256SOL    HW210738   3.446   0.758   1.654  0.6386 -1.6667  0.9698
  257SOL     OW10739   2.005   2.043   2.147 -0.3484  0.1807 -0.7669
  257SOL    HW110740   1.928   2.106   2.163 -2.3787 -2.3472 -0.2561
  257SOL    HW210741   1.974   1.949   2.159  2.9543 -0.8994 -0.1812
  258SOL     OW10742   3.239   1.386   0.245 -0.3917 -0.7896  0.1963
  258SOL    HW110743   3.314   1.353   0.188 -2.0929 -1.6555 -1.6192
  258SOL    HW210744   3.248   1.484   0.260  0.7841 -0.7917 -0.5018
  259SOL     OW10745   5.178   3.235   1.174 -0.0616  0.4919  0.2238
  259SOL    HW110746   5.243   3.274   1.238  0.4224  0.7885 -0.4494
  259SOL    HW210747   5.162   3.298   1.099 -0.4806  0.0661 -0.0519
  260SOL     OW10748   4.355   1.421   0.763 -0.6446 -0.1510 -0.0568
  260SOL    HW110749   4.360   1.483   0.841 -0.1225 -1.1414  0.7059
  260SOL    HW210750   4.288   1.349   0.783  0.1142 -0.8868 -0.1796
  261SOL     OW10751   4.112   3.336   1.767  0.4278 -0.3874 -0.4896
  261SOL    HW110752   4.085   3.420   1.814 -0.0032 -1.0603  0.4834
  261SOL    HW210753   4.211   3.323   1.776  0.6649  0.5645 -1.5651
  262SOL     OW10754   1.525   2.133   0.251 -0.3415 -0.5285  0.4012
  262SOL    HW110755   1.537   2.227   0.284  1.7285 -0.7019  0.1784
  262SOL    HW210756   1.455   2.132   0.179  1.0762  1.1733 -1.0411
  263SOL     OW10757   1.990   4.305   2.283 -0.2010  0.1266  0.3827
  263SOL    HW110758   1.962   4.244   2.210  2.1301 -1.7838  1.0179
  263SOL    HW210759   2.077   4.273   2.322  0.1363  2.7955  1.9683
  264SOL     OW10760   4.353   4.765   1.173 -0.3447 -0.0727 -0.1607
  264SOL    HW110761   4.374   4.857   1.207  0.9508 -0.7021  0.7965
  264SOL    HW210762   4.276   4.769   1.110  1.0119  2.0005 -1.7691
  265SOL     OW10763   2.670   8.316   1.014 -0.2881 -0.0389 -0.0513
  265SOL    HW110764   2.668   8.241   0.948 -2.4133 -0.8766  0.8803
  265SOL    HW210765   2.607   8.295   1.089  2.7040  0.4764  2.7030
  266SOL     OW10766   0.418   3.825   2.676  0.5739 -0.2058 -0.0484
  266SOL    HW110767   0.385   3.919   2.676 -0.2885 -0.5123  0.1355
  266SOL    HW210768   0.515   3.824   2.650  0.4080  0.6665 -0.7027
  267SOL     OW10769   0.463   4.601   2.292 -0.8043 -0.4673 -0.2234
  267SOL    HW110770   0.445   4.652   2.208 -0.9895 -0.6975 -0.3232
  267SOL    HW210771   0.387   4.538   2.311 -0.4291 -0.9456 -0.2823
  268SOL     OW10772   2.809   6.623   0.084 -0.1636 -0.3354  0.1859
  268SOL    HW110773   2.841   6.528   0.083 -0.8086 -0.5441 -0.8747
  268SOL    HW210774   2.887   6.684   0.091  0.2514 -0.9399  1.0010
  269SOL     OW10775   3.143   3.443   1.470 -0.3460 -0.7089 -0.3472
  269SOL    HW110776   3.094   3.510   1.525  0.1112  0.0587 -0.8709
  269SOL    HW210777   3.089   3.421   1.389  0.1819  0.1544 -0.9360
  270SOL     OW10778   3.060   9.152   2.673 -0.6689 -0.1694  0.1996
  270SOL    HW110779   3.008   9.075   2.638  1.8247 -1.4720 -0.7461
  270SOL    HW210780   3.098   9.205   2.596 -0.0683  0.3900  0.8724
  271SOL     OW10781   2.655   7.688   2.198 -0.4015 -0.3431 -0.3175
  271SOL    HW110782   2.720   7.667   2.125 -0.9200 -0.1856 -0.8278
  271SOL    HW210783   2.570   7.722   2.159 -0.2205  0.9986  0.4278
  272SOL     OW10784   3.655   0.921   2.539  0.4938 -0.4586 -0.0306
  272SOL    HW110785   3.702   0.841   2.577  0.2183 -0.4481  0.3338
  272SOL    HW210786   3.706   0.955   2.459  3.3402  1.9310  2.6643
  273SOL     OW10787   1.163   7.368   2.401  0.5623 -0.4492 -0.0858
  273SOL    HW110788   1.221   7.345   2.479 -1.6822 -0.4918  1.6235
  273SOL    HW210789   1.074   7.323   2.410  0.9567 -2.2278 -3.7913
  274SOL     OW10790   2.458   3.429   1.013 -0.1173  0.0029  0.1425
  274SOL    HW110791   2.360   3.429   0.992 -0.0960 -1.3617 -0.0221
  274SOL    HW210792   2.507   3.485   0.946 -0.5104 -1.2226 -1.2024
  275SOL     OW10793   9.111   4.097   0.077  0.0336 -0.6186 -0.7314
  275SOL    HW110794   9.198   4.049   0.068  0.8101  0.1742  1.9069
  275SOL    HW210795   9.045   4.037   0.122 -0.1416 -0.4874 -0.8149
  276SOL     OW10796   3.433   7.899   1.391  0.8219  0.3284 -0.1524
  276SOL    HW110797   3.344   7.944   1.381  0.4988  0.1313  1.6368
  276SOL    HW210798   3.487   7.949   1.459  0.4444 -1.9848  1.9065
  277SOL     OW10799   4.383   2.822   1.561 -0.0576  0.3084  0.1017
  277SOL    HW110800   4.405   2.813   1.464 -0.9336 -0.5049 -0.0253
  277SOL    HW210801   4.350   2.735   1.596  1.3272  0.2950  1.4178
  278SOL     OW10802   2.090   0.792   2.193  0.1690  0.4293  0.3207
  278SOL    HW110803   2.031   0.845   2.132 -0.9172 -0.7523  0.3158
  278SOL    HW210804   2.098   0.699   2.159  0.1906 -0.0300  1.5571
  279SOL     OW10805   1.811   5.943   2.737  0.0833 -0.3314  0.4865
  279SOL    HW110806   1.814   5.899   2.826  0.8922  0.1568  0.7071
  279SOL    HW210807   1.891   5.914   2.683 -1.5348 -2.3396 -0.9030
  280SOL     OW10808   2.079   6.487   1.439  0.1216 -0.3909  0.6050
  280SOL    HW110809   2.177   6.498   1.454  0.2811  0.2584 -0.8464
  280SOL    HW210810   2.034   6.462   1.525  1.4872 -0.2116  1.3685
  281SOL     OW10811   2.648   9.469   0.356  0.1561  0.2276 -0.3759
  281SOL    HW110812   2.601   9.402   0.414 -0.0713  1.0404  0.4053
  281SOL    HW210813   2.656   9.434   0.263 -0.9727 -0.4106 -0.2433
  282SOL     OW10814   3.173   4.816   1.222 -0.2545 -0.3114 -0.3469
  282SOL    HW110815   3.229   4.738   1.195 -1.2642 -0.9602 -0.5909
  282SOL    HW210816   3.123   4.794   1.306 -1.7778 -0.5217 -1.2984
  283SOL     OW10817   0.368   2.539   1.001 -0.1066  0.3590  0.1571
  283SOL    HW110818   0.331   2.519   0.909  0.9834  0.5932 -0.3360
  283SOL    HW210819   0.400   2.633   1.004 -1.0016  0.6475  1.0819
  284SOL     OW10820   1.142   4.370   0.028  0.4153 -0.2046 -0.2076
  284SOL    HW110821   1.146   4.292  -0.034 -0.8831 -0.3550 -0.1074
  284SOL    HW210822   1.187   4.346   0.114 -0.1078 -0.8802 -0.1248
  285SOL     OW10823   1.991   4.572   0.258  0.1371 -0.3172 -0.4324
  285SOL    HW110824   2.042   4.654   0.285  0.8490 -1.4519  1.8365
  285SOL    HW210825   1.959   4.582   0.164 -1.0700  3.2010  0.2694
  286SOL     OW10826   2.357   0.013   0.389 -0.2342  0.3202 -0.2168
  286SOL    HW110827   2.333   0.078   0.461  0.4816 -1.2587  1.4823
  286SOL    HW210828   2.455  -0.009   0.394 -0.2507 -0.1044 -1.4332
  287SOL     OW10829   0.180   4.363   2.077  0.2994  0.0060  0.3088
  287SOL    HW110830   0.252   4.304   2.042  2.1350  1.7541  1.0658
  287SOL    HW210831   0.188   4.370   2.176 -0.7682  0.4261  0.3708
  288SOL     OW10832   0.750   4.417   2.525 -0.2580 -0.5145 -1.0865
  288SOL    HW110833   0.844   4.447   2.509 -0.1998 -0.8571 -1.3803
  288SOL    HW210834   0.691   4.498   2.534 -0.1192 -0.3009 -1.9912
  289SOL     OW10835   3.410   2.546   2.039 -0.1845  0.0301 -0.4327
  289SOL    HW110836   3.357   2.512   1.962 -0.2018  1.3368 -1.0027
  289SOL    HW210837   3.485   2.482   2.059 -0.4579 -0.5428 -1.2254
  290SOL     OW10838   1.633   3.499   2.153  0.3617  0.0708 -0.5618
  290SOL    HW110839   1.608   3.426   2.089 -0.3831  0.1749 -0.3942
  290SOL    HW210840   1.727   3.485   2.184  0.2161 -0.8394 -0.5052
  291SOL     OW10841   4.077   0.398   0.335  0.3947 -0.0395 -0.2968
  291SOL    HW110842   4.149   0.468   0.326 -0.1438  0.4035 -1.2335
  291SOL    HW210843   4.113   0.320   0.385  1.2375  0.5940  0.1108
  292SOL     OW10844   2.834   5.768   0.168  0.1788 -0.1159 -0.3767
  292SOL    HW110845   2.928   5.735   0.165  0.1046 -0.4948  1.2526
  292SOL    HW210846   2.829   5.853   0.221 -0.2333  0.4924 -1.3636
  293SOL     OW10847   3.359   1.660   2.749  0.5988  0.2866 -0.0587
  293SOL    HW110848   3.366   1.601   2.669  1.6301  1.4407 -0.8363
  293SOL    HW210849   3.269   1.704   2.751  0.2982 -0.3256 -0.1725
  294SOL     OW10850   3.254   1.341   2.313 -0.3676  0.8511 -0.2695
  294SOL    HW110851   3.244   1.243   2.332  1.1661  0.2631 -2.2454
  294SOL    HW210852   3.309   1.353   2.230 -2.2203  3.3499 -1.2130
  295SOL     OW10853   2.889   0.010   0.364 -0.2427  0.1390  0.5492
  295SOL    HW110854   2.945  -0.068   0.393  2.2041  0.5360 -2.8437
  295SOL    HW210855   2.936   0.095   0.387  0.5697  0.4757 -2.1769
  296SOL     OW10856   3.686   9.044   0.849  0.1452 -0.4387  0.0006
  296SOL    HW110857   3.703   9.059   0.752 -1.5565  1.7339 -0.0005
  296SOL    HW210858   3.589   9.025   0.864  0.2172  0.1569  1.3565
  297SOL     OW10859   3.364   1.637   1.054 -0.0004  0.1840 -0.4562
  297SOL    HW110860   3.296   1.697   1.012 -0.6236  0.7624  1.3286
  297SOL    HW210861   3.449   1.688   1.069  0.0779  0.0998 -0.6106
  298SOL     OW10862   1.769   6.309   1.521 -0.1733 -0.1141 -0.1787
  298SOL    HW110863   1.813   6.324   1.432  0.7449  2.5007  0.6881
  298SOL    HW210864   1.833   6.333   1.594 -1.7941  0.2083  1.1622
  299SOL     OW10865   1.303   2.291   2.647 -0.4073 -0.5648 -0.4420
  299SOL    HW110866   1.383   2.351   2.648 -1.4944  0.9102 -0.2903
  299SOL    HW210867   1.244   2.315   2.570 -0.9856 -1.2739 -0.2240
  300SOL     OW10868   2.194   3.064   0.959 -0.1280 -0.3454 -0.5275
  300SOL    HW110869   2.178   2.967   0.974  1.4434 -0.3004  1.6819
  300SOL    HW210870   2.217   3.080   0.863  1.6388 -2.4290 -0.4817
  301SOL     OW10871   9.537   4.234   2.158 -0.2553 -0.3724  0.0605
  301SOL    HW110872   9.496   4.191   2.078  1.0337  2.1358 -2.0169
  301SOL    HW210873   9.476   4.306   2.192  1.1687  1.5790 -1.4286
  302SOL     OW10874   2.098   8.578   1.830 -0.4905  0.2990 -0.0067
  302SOL    HW110875   2.042   8.559   1.910 -0.1562  0.9234  0.3793
  302SOL    HW210876   2.167   8.646   1.853 -0.2618  0.3332 -0.7716
  303SOL     OW10877   3.391   8.589   1.199 -0.2288 -0.1036  0.6130
  303SOL    HW110878   3.412   8.492   1.192 -3.6580 -0.7254 -2.1938
  303SOL    HW210879   3.328   8.605   1.275 -1.7611 -0.4730 -0.5719
  304SOL     OW10880   2.489   8.428   0.213  0.0815 -0.2653 -0.3056
  304SOL    HW110881   2.448   8.481   0.287 -0.9769 -0.9204 -0.4242
  304SOL    HW210882   2.527   8.491   0.145  2.2433  0.3519  1.4032
  305SOL     OW10883   0.476   3.217   0.693  0.8286  0.2755  0.6895
  305SOL    HW110884   0.526   3.148   0.744  1.3831  0.5473  0.5194
  305SOL    HW210885   0.524   3.237   0.607 -0.4910 -0.7345 -0.3115
  306SOL     OW10886   3.595   1.478   1.526 -0.4960 -0.4028  0.2014
  306SOL    HW110887   3.518   1.434   1.573  1.1788 -1.3841  2.0740
  306SOL    HW210888   3.679   1.429   1.547  0.9899  2.0201  0.0107
  307SOL     OW10889   0.361   5.013   0.883 -0.0636 -0.2438 -0.3084
  307SOL    HW110890   0.337   4.918   0.866  2.0792 -1.1629  1.4514
  307SOL    HW210891   0.298   5.051   0.951  0.2085 -0.9907  0.3741
  308SOL     OW10892   2.566   3.752   0.609  0.0602  0.3068  0.3286
  308SOL    HW110893   2.649   3.808   0.599 -1.5101  2.4644 -0.9472
  308SOL    HW210894   2.488   3.801   0.571 -1.9195 -1.4886  1.9747
  309SOL     OW10895   0.696   6.762   1.712 -0.0613 -0.4141 -0.2379
  309SOL    HW110896   0.686   6.781   1.615  0.0732 -2.4826 -0.6728
  309SOL    HW210897   0.726   6.845   1.760 -0.2561  0.6374 -1.9308
  310SOL     OW10898   1.983   6.073   0.140  0.3252  0.1488 -0.1866
  310SOL    HW110899   1.950   5.988   0.099 -0.8779  1.0405 -1.0831
  310SOL    HW210900   1.963   6.150   0.079  1.5125  1.0610  0.5633
  311SOL     OW10901   4.438   2.483   2.685 -0.2351  0.2499 -0.2313
  311SOL    HW110902   4.410   2.387   2.687 -1.2221  0.5413  0.6745
  311SOL    HW210903   4.536   2.489   2.665 -0.1113 -0.9548 -0.0165
  312SOL     OW10904   2.833   4.939   0.687  0.6790  0.1671  0.2430
  312SOL    HW110905   2.859   5.020   0.741 -0.9667  0.2169  0.9889
  312SOL    HW210906   2.856   4.857   0.739  0.1727  0.1978  0.5183
  313SOL     OW10907   4.880   3.527   2.472 -0.7523  0.3377 -0.0151
  313SOL    HW110908   4.873   3.545   2.570 -0.6483  0.5999 -0.0566
  313SOL    HW210909   4.880   3.428   2.457 -2.3489  0.3083  0.1350
  314SOL     OW10910   9.220   3.685   2.094 -0.2940  0.0387 -0.3410
  314SOL    HW110911   9.258   3.625   2.165  0.4542 -0.0516 -0.8061
  314SOL    HW210912   9.292   3.707   2.028 -1.0705 -0.1310 -1.2474
  315SOL     OW10913   2.902   2.881   2.431 -0.0892 -0.4536 -1.0053
  315SOL    HW110914   2.894   2.879   2.331  1.1672  1.6487 -1.1692
  315SOL    HW210915   2.811   2.897   2.471 -0.3174  0.4479 -1.8786
  316SOL     OW10916   3.622   8.659   1.807  0.4244 -0.2176  0.3214
  316SOL    HW110917   3.605   8.574   1.757 -0.3260 -0.4119  0.8863
  316SOL    HW210918   3.707   8.701   1.775 -0.0172 -0.3683 -1.0549
  317SOL     OW10919   4.041   0.232   1.194 -0.3639  0.1950 -0.0445
  317SOL    HW110920   3.972   0.256   1.126 -1.4985 -0.5165  0.8518
  317SOL    HW210921   4.007   0.158   1.252  1.3579 -0.5339  0.0668
  318SOL     OW10922   2.317   9.476   0.033 -0.0885  0.2316 -0.0783
  318SOL    HW110923   2.327   9.530   0.116 -0.4091  2.4249 -1.4232
  318SOL    HW210924   2.345   9.382   0.051 -2.6911 -0.0082  3.2052
  319SOL     OW10925   2.598   2.295   2.336 -0.6570  0.3712  0.0566
  319SOL    HW110926   2.500   2.295   2.312 -0.3451  0.3147 -1.2747
  319SOL    HW210927   2.629   2.388   2.352 -1.3678  0.2259  2.3734
  320SOL     OW10928   9.792   3.095   2.745  0.4462  0.9005  0.0187
  320SOL    HW110929   9.755   3.037   2.817  1.8727  0.8782  0.7662
  320SOL    HW210930   9.858   3.043   2.691  2.4661  2.0549  1.3056
  321SOL     OW10931   1.879   7.129   2.122 -0.1341 -0.8644 -0.1319
  321SOL    HW110932   1.892   7.077   2.206 -0.7615 -0.6476  0.1036
  321SOL    HW210933   1.960   7.187   2.106 -0.0008 -0.9248  0.3069
  322SOL     OW10934   3.335   2.624   0.276  0.1495  0.3677 -0.3179
  322SOL    HW110935   3.343   2.567   0.194  2.5093 -1.1916  0.9413
  322SOL    HW210936   3.410   2.690   0.278 -2.0170  2.9432 -1.2680
  323SOL     OW10937   9.436   4.335   1.179 -0.4071  0.3173  0.5704
  323SOL    HW110938   9.478   4.322   1.089  0.6295 -2.2900  1.3999
  323SOL    HW210939   9.379   4.257   1.202 -0.4601  0.8323  2.3036
  324SOL     OW10940   1.792   5.988   0.624  0.3823 -0.1838  0.2574
  324SOL    HW110941   1.784   6.014   0.721  2.1464 -0.9223  0.6291
  324SOL    HW210942   1.788   5.888   0.616  1.0995 -0.1762 -0.3212
  325SOL     OW10943   3.253   0.850   0.720  0.1917 -0.1195 -0.1715
  325SOL    HW110944   3.317   0.847   0.797  0.7124 -0.6765 -0.6277
  325SOL    HW210945   3.246   0.760   0.678  0.1043  0.2412 -0.9391
  326SOL     OW10946   2.616   1.499   2.772  0.6575  0.6863  0.1262
  326SOL    HW110947   2.551   1.427   2.794 -0.9927  1.5961 -1.6398
  326SOL    HW210948   2.698   1.488   2.828 -0.8993 -0.6133  2.2243
  327SOL     OW10949   1.537   1.857   0.293 -0.0861  0.3656  0.1646
  327SOL    HW110950   1.627   1.813   0.288 -0.6985 -0.9962  0.8766
  327SOL    HW210951   1.549   1.954   0.314  1.2002  0.1117  0.6696
  328SOL     OW10952   2.744   6.869   1.591  0.8677 -0.0719  0.2942
  328SOL    HW110953   2.814   6.859   1.520  0.9045 -0.4723  0.3850
  328SOL    HW210954   2.665   6.918   1.554  0.0101 -2.0753 -0.6269
  329SOL     OW10955   1.739   0.419   0.759  0.2701  0.0982  0.2189
  329SOL    HW110956   1.707   0.450   0.669  0.7031 -1.3882 -0.4705
  329SOL    HW210957   1.833   0.387   0.751  0.1317 -0.5334  1.1060
  330SOL     OW10958   1.071   3.881   2.167  0.3469 -0.3224  0.5505
  330SOL    HW110959   1.111   3.796   2.200  1.6635  0.9226  2.2575
  330SOL    HW210960   1.037   3.935   2.244  0.3364  1.0892 -0.4111
  331SOL     OW10961   4.861   2.848   1.652  0.0768  0.5127 -0.1709
  331SOL    HW110962   4.826   2.886   1.566 -1.7391  0.5737  0.5810
  331SOL    HW210963   4.788   2.798   1.698  1.4201 -0.6904  0.6883
  332SOL     OW10964   4.034   0.428   2.667 -0.0150  0.5699 -0.0539
  332SOL    HW110965   4.039   0.450   2.569 -0.8864 -0.4441 -0.3291
  332SOL    HW210966   4.114   0.466   2.713  0.7437  0.4966 -1.2789
  333SOL     OW10967   2.858   2.989   2.150  0.0059 -0.1573  0.5996
  333SOL    HW110968   2.865   3.079   2.106  1.8791 -0.9324 -0.7728
  333SOL    HW210969   2.772   2.946   2.124  0.1292  0.3059 -0.6055
  334SOL     OW10970   1.317   6.064   0.155  0.0052  0.4614  0.6488
  334SOL    HW110971   1.230   6.078   0.203  0.3804 -0.3586  1.5686
  334SOL    HW210972   1.325   6.132   0.082 -2.4350 -0.7944 -0.8866
  335SOL     OW10973   2.923   9.228   0.823  0.4700  0.3706 -0.3364
  335SOL    HW110974   2.882   9.251   0.735 -1.0930 -2.1951 -0.3270
  335SOL    HW210975   2.969   9.139   0.816 -0.7667 -0.4758  1.7211
  336SOL     OW10976   3.971   1.394   0.667 -0.3145  0.2773 -0.2334
  336SOL    HW110977   3.958   1.401   0.568  0.5736  0.2013 -0.3562
  336SOL    HW210978   4.047   1.453   0.695 -0.9519  0.7701  0.4943
  337SOL     OW10979   4.156   0.450   1.840 -0.1566 -0.4441  0.4386
  337SOL    HW110980   4.112   0.412   1.758 -0.6846 -0.7077  0.8387
  337SOL    HW210981   4.092   0.512   1.886 -0.1006 -0.7995  1.0018
  338SOL     OW10982   2.398   3.319   2.791  0.5463 -0.0295  0.6922
  338SOL    HW110983   2.356   3.273   2.869  2.3775 -2.2245  0.4383
  338SOL    HW210984   2.331   3.330   2.718 -0.3561 -0.7869  1.4009
  339SOL     OW10985   3.296   9.208   2.213  0.2203 -0.0276 -0.0068
  339SOL    HW110986   3.384   9.223   2.258  0.0230  0.8279  0.1052
  339SOL    HW210987   3.282   9.278   2.143 -0.0106 -0.6415 -0.5832
  340SOL     OW10988   0.717   5.277   2.539  0.1175  0.3366 -0.1612
  340SOL    HW110989   0.808   5.241   2.562 -0.2351 -0.6048 -0.2256
  340SOL    HW210990   0.723   5.376   2.529  0.8977  0.4155  0.9764
  341SOL     OW10991   1.167   2.688   2.156  0.1976 -0.0235  0.2543
  341SOL    HW110992   1.152   2.768   2.213 -3.0458 -2.5169  3.1252
  341SOL    HW210993   1.109   2.694   2.074  1.6240  1.5260 -0.6720
  342SOL     OW10994   0.346   4.936   1.725 -0.0936 -0.0210 -0.0526
  342SOL    HW110995   0.269   4.890   1.769  0.6865 -1.7134 -0.4366
  342SOL    HW210996   0.349   5.032   1.755 -2.1346 -0.0231  0.2119
  343SOL     OW10997   3.351   8.344   2.736 -0.0596 -0.5352  0.1838
  343SOL    HW110998   3.418   8.272   2.754  1.2025  1.2560  3.1373
  343SOL    HW210999   3.260   8.311   2.759  0.1687 -2.0336 -1.0094
  344SOL     OW11000   3.526   2.528   1.257  0.0653  0.2367 -0.0951
  344SOL    HW111001   3.483   2.611   1.292  0.9100  0.6165  0.0666
  344SOL    HW211002   3.542   2.464   1.332  0.5841  0.4625 -0.0117
  345SOL     OW11003   2.138   8.094   0.451  0.2861 -0.6349  0.2161
  345SOL    HW111004   2.215   8.114   0.511  0.6232  0.7776 -0.6527
  345SOL    HW211005   2.109   8.000   0.463  1.3397 -0.8025  1.4723
  346SOL     OW11006   3.467   8.438   0.793  0.0094  0.7319 -0.1878
  346SOL    HW111007   3.536   8.393   0.848  0.9140  1.9523 -0.2995
  346SOL    HW211008   3.428   8.373   0.727  0.0174 -0.3210  0.8437
  347SOL     OW11009   4.466   2.944   1.785 -0.4636 -0.2576  0.0652
  347SOL    HW111010   4.447   2.932   1.688  0.0817  1.2421 -0.2505
  347SOL    HW211011   4.491   3.040   1.802 -2.7585  0.0311  2.0468
  348SOL     OW11012   2.226   1.442   0.050 -0.1444 -0.4106 -0.1177
  348SOL    HW111013   2.146   1.395   0.014 -0.1365  0.4558 -1.2918
  348SOL    HW211014   2.197   1.525   0.098 -0.1082 -1.2413  1.3867
  349SOL     OW11015   9.362   4.543   0.401 -0.0564  0.3191 -0.4771
  349SOL    HW111016   9.379   4.445   0.412  0.5254  0.2732 -1.6652
  349SOL    HW211017   9.266   4.559   0.380 -0.1335 -0.0046 -0.3700
  350SOL     OW11018   4.248   2.791   1.902  0.7244  0.0585 -0.1014
  350SOL    HW111019   4.307   2.867   1.874  0.6234  0.3924  0.6016
  350SOL    HW211020   4.239   2.789   2.001 -1.3466  0.6888 -0.2439
  351SOL     OW11021   4.375   4.038   0.802 -0.1526  0.1441  0.0343
  351SOL    HW111022   4.392   4.021   0.899  0.1551 -2.3939 -0.4495
  351SOL    HW211023   4.287   4.000   0.776 -0.2739  0.8869 -0.6892
  352SOL     OW11024   1.959   3.266   2.590 -0.3244  0.5147  0.0777
  352SOL    HW111025   1.912   3.194   2.538 -0.7253  0.9287 -0.1390
  352SOL    HW211026   1.934   3.259   2.686  0.2994 -0.1601  0.1961
  353SOL     OW11027   0.169   4.741   2.670  0.4613  0.4963 -0.2024
  353SOL    HW111028   0.234   4.751   2.594  2.1613  1.6961  1.3611
  353SOL    HW211029   0.097   4.810   2.662 -0.0865 -0.1919 -1.3891
  354SOL     OW11030   3.049   1.399   0.436 -0.1173 -0.7169  0.1157
  354SOL    HW111031   3.117   1.406   0.363 -1.5102 -0.7273 -1.2063
  354SOL    HW211032   3.021   1.304   0.447  0.7118 -0.8325  1.2443
  355SOL     OW11033   1.898   2.492   1.456  0.1105  0.2683 -0.1714
  355SOL    HW111034   1.843   2.436   1.395 -1.0137  1.7499 -0.5615
  355SOL    HW211035   1.913   2.443   1.542 -2.4408  0.0974  0.2193
  356SOL     OW11036   2.728   9.097   1.364  0.3106  0.1390  0.2881
  356SOL    HW111037   2.683   9.183   1.385  0.3686  0.7297 -1.8739
  356SOL    HW211038   2.684   9.023   1.415 -3.5180  0.6090 -2.1324
  357SOL     OW11039   0.696   3.534   0.412  0.0535  0.2750  0.1596
  357SOL    HW111040   0.742   3.484   0.339  0.0877  0.1540  0.2638
  357SOL    HW211041   0.764   3.582   0.467  0.0469  0.1755  0.2544
  358SOL     OW11042   2.370   0.610   0.797  0.3590  0.4606 -0.3415
  358SOL    HW111043   2.396   0.684   0.736  0.1812  1.0593  0.3022
  358SOL    HW211044   2.449   0.551   0.814  0.4795  0.4563 -0.9127
  359SOL     OW11045   2.993   2.029   2.072  0.3901 -0.3631 -0.2922
  359SOL    HW111046   3.025   1.957   2.132  0.8748  0.1953  0.1183
  359SOL    HW211047   2.911   2.072   2.111 -0.8948 -1.7982 -1.3470
  360SOL     OW11048   2.191   9.130   0.763  0.0159  0.2941 -0.6224
  360SOL    HW111049   2.127   9.194   0.806 -0.5035 -0.9971  0.5607
  360SOL    HW211050   2.284   9.150   0.794 -0.4007 -0.9002  1.5062
  361SOL     OW11051   3.931   1.920   1.038  0.1829  0.0049  0.2507
  361SOL    HW111052   4.021   1.923   0.996  1.1898 -0.5324  2.2747
  361SOL    HW211053   3.931   1.852   1.112 -2.9082 -2.5609 -1.9748
  362SOL     OW11054   0.707   5.722   2.080  0.1592  0.1328 -0.3295
  362SOL    HW111055   0.632   5.688   2.136  0.4203 -1.4013 -0.8626
  362SOL    HW211056   0.794   5.707   2.128  0.4034 -1.4016 -1.1909
  363SOL     OW11057   0.796   2.558   0.401  0.1379 -0.6081 -0.4295
  363SOL    HW111058   0.731   2.508   0.458  1.5205 -1.2755  0.6125
  363SOL    HW211059   0.794   2.655   0.426 -0.0341 -0.7277  0.0355
  364SOL     OW11060   9.277   4.247   0.747 -0.3155  0.2789  0.1661
  364SOL    HW111061   9.326   4.166   0.776 -0.1096  0.2076 -0.3622
  364SOL    HW211062   9.178   4.228   0.744 -0.1507 -0.4403 -1.4450
  365SOL     OW11063   2.398   2.597   1.322 -0.2404 -0.8858  0.3026
  365SOL    HW111064   2.298   2.600   1.328 -0.1377  0.4854  1.5037
  365SOL    HW211065   2.436   2.570   1.410  0.5534  1.4002  0.6956
  366SOL     OW11066   3.527   9.203   2.355 -0.4000  0.3894  0.0532
  366SOL    HW111067   3.578   9.204   2.269 -0.6239  0.2682 -0.0826
  366SOL    HW211068   3.512   9.296   2.387  1.1872  0.3734  0.8582
  367SOL     OW11069   2.355   7.535   1.089  0.3709  0.0839  0.2320
  367SOL    HW111070   2.388   7.630   1.088 -2.0187  0.9438  0.0369
  367SOL    HW211071   2.411   7.481   1.152  2.8523  1.2027 -0.9577
  368SOL     OW11072   3.072   0.203   0.306  0.3866  0.0336 -0.6536
  368SOL    HW111073   3.076   0.131   0.236  2.7715  0.9171 -1.4725
  368SOL    HW211074   3.143   0.270   0.288  1.4665 -0.0636  3.0337
  369SOL     OW11075   0.543   4.222   1.125 -0.1263  0.0275 -0.8440
  369SOL    HW111076   0.613   4.255   1.188 -0.1131 -1.4313 -0.0540
  369SOL    HW211077   0.487   4.299   1.094  0.3927  0.8882  0.3021
  370SOL     OW11078   0.441   5.771   0.242  0.2041 -0.0825 -0.2401
  370SOL    HW111079   0.403   5.794   0.152 -1.0344  0.6990  0.4818
  370SOL    HW211080   0.384   5.702   0.286  1.4088 -1.2641 -0.4935
  371SOL     OW11081   3.395   3.793   2.178  0.6355 -0.0192  0.9596
  371SOL    HW111082   3.431   3.861   2.242 -0.3328  0.8589  0.5843
  371SOL    HW211083   3.468   3.761   2.118  0.8834  1.4634  0.4496
  372SOL     OW11084   3.628   2.416   2.099  0.8038  0.1849  0.0127
  372SOL    HW111085   3.665   2.353   2.168  2.4666 -2.9545 -3.5216
  372SOL    HW211086   3.702   2.473   2.064  0.4483  0.2359 -0.6669
  373SOL     OW11087   0.813   6.788   0.831  0.4062  0.0222 -0.3872
  373SOL    HW111088   0.732   6.840   0.856  0.6720 -0.0550  0.6623
  373SOL    HW211089   0.819   6.706   0.888  3.5077  2.1880  2.6285
  374SOL     OW11090   1.248   4.671   0.634 -0.4857 -0.2859 -0.3029
  374SOL    HW111091   1.185   4.607   0.589  0.7013 -1.1667 -0.7447
  374SOL    HW211092   1.249   4.758   0.584 -2.0168  0.0331  0.2249
  375SOL     OW11093   2.427   3.599   0.050  0.1808  0.2325 -0.7988
  375SOL    HW111094   2.431   3.664  -0.025 -1.6515  1.4530  0.1104
  375SOL    HW211095   2.477   3.516   0.026  2.2360  1.8213 -2.1167
  376SOL     OW11096   1.226   6.001   2.474  0.0534  0.2904 -0.5811
  376SOL    HW111097   1.254   6.007   2.570 -1.1073 -3.7846  0.1193
  376SOL    HW211098   1.141   6.053   2.461  0.7155  1.6346  0.3540
  377SOL     OW11099   3.797   4.766   1.354 -0.3035 -0.8132 -0.0960
  377SOL    HW111100   3.721   4.831   1.348  1.3701  1.2079 -0.2545
  377SOL    HW211101   3.780   4.701   1.427 -2.4851 -0.7953 -0.5687
  378SOL     OW11102   2.046   8.226   1.395 -0.2291  0.2506  0.0455
  378SOL    HW111103   2.138   8.263   1.405  0.4172 -1.1631 -0.5792
  378SOL    HW211104   1.983   8.277   1.454  0.7266  1.9746 -0.3744
  379SOL     OW11105   1.676   1.064   2.792 -0.8056  0.1031  0.1271
  379SOL    HW111106   1.615   0.986   2.786 -1.3549  0.5768 -0.5801
  379SOL    HW211107   1.771   1.032   2.802 -0.5714 -0.7573 -3.9865
  380SOL     OW11108   1.410   4.092   1.892 -0.2738 -0.4303 -0.4407
  380SOL    HW111109   1.465   4.015   1.923 -1.7778 -0.9915  0.9273
  380SOL    HW211110   1.408   4.163   1.962 -2.3602 -1.0020  0.1327
  381SOL     OW11111   3.018   1.418   1.575  0.0079 -0.7020  0.3126
  381SOL    HW111112   2.969   1.337   1.610 -0.8867  0.4765  1.8408
  381SOL    HW211113   2.954   1.476   1.524  0.7299 -1.1174 -1.0840
  382SOL     OW11114   2.270   7.196   0.380  0.1604  0.3604  0.0169
  382SOL    HW111115   2.174   7.200   0.352  0.0292 -0.4237  0.3316
  382SOL    HW211116   2.328   7.228   0.305 -0.2229 -1.0595 -0.9165
  383SOL     OW11117   1.911   8.190   1.726 -0.4383 -0.2475 -0.0666
  383SOL    HW111118   1.921   8.095   1.694 -2.0257  0.3683 -2.5406
  383SOL    HW211119   1.883   8.190   1.822  0.4259 -2.2665  0.2079
  384SOL     OW11120   4.297   2.183   1.044 -0.2785  0.1307 -0.2096
  384SOL    HW111121   4.336   2.196   1.135 -0.1977  0.2261 -0.2581
  384SOL    HW211122   4.368   2.156   0.980 -0.6948 -2.1005  0.2112
  385SOL     OW11123   2.366   2.150   0.144  0.2093 -0.1140  0.2079
  385SOL    HW111124   2.454   2.104   0.148  0.0778 -0.4551 -0.7749
  385SOL    HW211125   2.370   2.236   0.196  1.3625  0.2742 -0.5190
  386SOL     OW11126   2.244   3.881   1.366  0.1651  0.7808  0.2220
  386SOL    HW111127   2.283   3.867   1.275  0.6558  0.8778  0.4172
  386SOL    HW211128   2.210   3.974   1.373 -0.6038  0.5321 -0.1351
  387SOL     OW11129   3.057   1.589   0.686  0.2201 -0.5949  0.2235
  387SOL    HW111130   3.041   1.524   0.611 -0.6674 -2.4770  1.9868
  387SOL    HW211131   3.046   1.541   0.774  1.8475  1.4063  1.5582
  388SOL     OW11132   1.958   0.523   2.158 -0.3065 -0.0399  0.2412
  388SOL    HW111133   1.896   0.535   2.235  0.0470  1.3630  0.3107
  388SOL    HW211134   1.908   0.482   2.081 -0.6164 -1.6159  1.2487
  389SOL     OW11135   2.617   7.190   2.465 -0.1170  0.5335  0.1124
  389SOL    HW111136   2.586   7.278   2.429  1.2132  1.2936  0.7721
  389SOL    HW211137   2.707   7.168   2.425  0.7661  0.7592  1.9388
  390SOL     OW11138   3.601   9.818   0.314  0.0978 -0.3137 -0.1280
  390SOL    HW111139   3.672   9.761   0.273  0.6179  1.8064 -2.2508
  390SOL    HW211140   3.635   9.910   0.328 -1.6829  0.2819  0.4674
  391SOL     OW11141   2.284   8.730   1.158 -0.7510 -0.6122  0.6372
  391SOL    HW111142   2.196   8.737   1.112 -0.6589  1.8036  0.7266
  391SOL    HW211143   2.331   8.646   1.131 -2.0950 -0.7972 -1.1474
  392SOL     OW11144   0.944   7.159   2.337  0.1591 -0.0138 -0.4747
  392SOL    HW111145   0.881   7.182   2.410  0.8217  1.3116 -0.2926
  392SOL    HW211146   0.908   7.082   2.284 -1.4570  0.5453 -0.2106
  393SOL     OW11147   2.711   4.284   2.722  0.0606 -0.0523 -0.3945
  393SOL    HW111148   2.757   4.344   2.657  1.9176  0.5702  1.4543
  393SOL    HW211149   2.743   4.190   2.708 -0.3559 -0.1006 -1.0720
  394SOL     OW11150   0.379   3.229   2.803  1.0662 -0.1461  0.3656
  394SOL    HW111151   0.408   3.226   2.899  0.6159 -0.2045  0.5024
  394SOL    HW211152   0.323   3.310   2.788  0.4644 -0.5582  0.3517
  395SOL     OW11153   1.902   3.123   0.750  0.3390 -0.0368  0.3012
  395SOL    HW111154   1.888   3.186   0.826 -0.3837 -0.0261  0.1640
  395SOL    HW211155   1.961   3.047   0.780 -0.9597 -0.6987  1.2408
  396SOL     OW11156   1.752   4.961   1.097 -0.3471 -0.0581 -0.7000
  396SOL    HW111157   1.738   4.924   1.188  0.7605 -0.9043 -0.8774
  396SOL    HW211158   1.668   4.950   1.043 -1.1871  0.9601  0.3806
  397SOL     OW11159   1.975   5.650   1.991  0.5489  0.1996 -0.7457
  397SOL    HW111160   1.895   5.693   2.031 -1.0799 -1.3294 -2.3049
  397SOL    HW211161   1.962   5.551   1.987  2.3345 -0.0307 -1.4111
  398SOL     OW11162   3.591   9.793   0.602 -0.0228  0.3286  0.7927
  398SOL    HW111163   3.525   9.736   0.652 -0.7974  0.8739  0.4047
  398SOL    HW211164   3.577   9.782   0.504  0.0401  0.9268  0.7122
  399SOL     OW11165   1.997   9.929   1.693 -0.5164 -0.1527  0.0019
  399SOL    HW111166   1.968   9.854   1.753 -0.8819 -0.6142 -0.7405
  399SOL    HW211167   2.035   9.891   1.608 -0.2333  0.4950 -0.1614
  400SOL     OW11168   3.550   1.042   1.224  0.1478  0.1995  0.5019
  400SOL    HW111169   3.507   1.106   1.287  1.6770  0.5620  1.1874
  400SOL    HW211170   3.643   1.022   1.254 -0.0136 -1.7041 -0.1621
  401SOL     OW11171   2.440   5.417   0.246 -0.2397  0.1327 -0.4636
  401SOL    HW111172   2.412   5.370   0.330  0.3414  1.2521  0.3690
  401SOL    HW211173   2.412   5.513   0.250 -3.2811 -0.5687 -3.0471
  402SOL     OW11174   3.627   3.110   2.631  0.0913  0.4360  0.0071
  402SOL    HW111175   3.683   3.126   2.713 -3.5400  3.1862  2.1320
  402SOL    HW211176   3.575   3.026   2.642  1.4138 -0.4657 -0.5702
  403SOL     OW11177   2.646   6.303   1.196  0.0881 -0.3398 -0.6932
  403SOL    HW111178   2.551   6.282   1.173  0.1170 -1.1367 -0.1172
  403SOL    HW211179   2.679   6.379   1.140 -1.5212  1.2688  0.4892
  404SOL     OW11180   3.873   3.945   1.458  0.3694  0.3302  0.0444
  404SOL    HW111181   3.888   4.026   1.515 -0.2345 -0.6743  1.6661
  404SOL    HW211182   3.777   3.916   1.466  0.3860 -0.0959 -1.1522
  405SOL     OW11183   0.307   4.541   0.785 -0.3485  0.8369 -0.1236
  405SOL    HW111184   0.241   4.483   0.737  0.9170 -0.1354 -0.7519
  405SOL    HW211185   0.279   4.636   0.780 -1.5434  0.4618 -0.6283
  406SOL     OW11186   0.804   6.551   2.045 -0.1459 -0.4134 -0.5880
  406SOL    HW111187   0.882   6.538   2.107 -0.9231 -1.7878  0.1230
  406SOL    HW211188   0.836   6.589   1.959  1.2690 -0.6298 -0.1674
  407SOL     OW11189   3.446   0.543   2.703 -0.5848 -0.7291  0.0978
  407SOL    HW111190   3.456   0.640   2.677 -0.2526 -0.2704  1.9156
  407SOL    HW211191   3.518   0.518   2.766 -2.0818 -1.5174  1.5206
  408SOL     OW11192   3.251   4.186   0.656  0.4565 -0.3625  0.1534
  408SOL    HW111193   3.251   4.096   0.612 -0.1354 -0.3284  0.0712
  408SOL    HW211194   3.169   4.236   0.629  1.3117  0.6311 -0.6449
  409SOL     OW11195   1.811   2.538   0.651 -0.4332 -0.0903  0.0401
  409SOL    HW111196   1.841   2.629   0.622  1.7343 -0.9042 -0.3673
  409SOL    HW211197   1.781   2.486   0.571 -0.1578 -0.2851  0.0649
  410SOL     OW11198   2.949   2.677   1.018 -0.1169 -0.2201  0.2419
  410SOL    HW111199   2.993   2.588   1.035  3.4444  0.9672 -2.1577
  410SOL    HW211200   2.985   2.744   1.083  0.2602  0.3574 -0.5639
  411SOL     OW11201   3.218   0.597   1.147 -0.1594  0.3932  0.1738
  411SOL    HW111202   3.287   0.543   1.099 -1.1844 -2.9191  2.3137
  411SOL    HW211203   3.130   0.589   1.101 -0.4702 -0.3580  0.8872
  412SOL     OW11204   2.325   2.723   2.520 -0.0395 -0.4690  0.3830
  412SOL    HW111205   2.424   2.719   2.534 -0.0073 -0.2247  0.2355
  412SOL    HW211206   2.291   2.813   2.546 -0.2189 -0.5422  0.4041
  413SOL     OW11207   1.179   5.712   0.536 -0.3811  0.0640  0.5376
  413SOL    HW111208   1.158   5.809   0.521 -1.3012  0.0655  1.7207
  413SOL    HW211209   1.194   5.668   0.448  3.0496  1.9107  0.1157
  414SOL     OW11210   0.407   4.839   0.407 -0.2269  0.1632 -0.1455
  414SOL    HW111211   0.465   4.811   0.483 -1.2257  0.0005  0.5647
  414SOL    HW211212   0.463   4.848   0.324  0.7858 -0.0931  0.4988
  415SOL     OW11213   0.752   6.442   0.008 -0.3444 -0.2068  0.2086
  415SOL    HW111214   0.721   6.528  -0.032 -2.9717 -0.4536  1.6376
  415SOL    HW211215   0.809   6.461   0.087  1.3093  0.2159 -1.0447
  416SOL     OW11216   3.765   0.207   1.640  0.0872  0.5080  0.1325
  416SOL    HW111217   3.766   0.108   1.655  1.3888  0.1868 -1.9438
  416SOL    HW211218   3.670   0.239   1.635 -0.3569 -0.9950 -1.3703
  417SOL     OW11219   3.820   9.620   0.243  0.2860 -0.2656  0.3654
  417SOL    HW111220   3.773   9.585   0.162 -1.8941 -0.5216  1.7064
  417SOL    HW211221   3.881   9.550   0.280  1.8283  0.0836 -1.3980
  418SOL     OW11222   9.079   5.093   0.729  0.4604  0.0964 -0.3399
  418SOL    HW111223   9.169   5.072   0.767 -0.3245 -1.0997  0.8848
  418SOL    HW211224   9.009   5.043   0.779 -1.0830  2.4921 -0.0317
  419SOL     OW11225   2.921   1.385   1.906  0.8272  0.3171  0.2246
  419SOL    HW111226   2.963   1.417   1.990  0.0175  3.8699 -0.6487
  419SOL    HW211227   2.824   1.365   1.923  1.1975 -1.2113  0.6322
  420SOL     OW11228   1.649   3.009   0.657  0.4150 -0.3323 -0.0597
  420SOL    HW111229   1.740   3.047   0.677 -0.6289  0.6145  3.2341
  420SOL    HW211230   1.614   3.049   0.573  2.6483  0.0052 -0.8726
  421SOL     OW11231   2.462   4.854   1.060  0.0979 -0.4710  0.4130
  421SOL    HW111232   2.514   4.937   1.079  1.7693 -1.5944  0.9471
  421SOL    HW211233   2.429   4.854   0.966 -0.0365  0.8456  0.4595
  422SOL     OW11234   2.850   5.565   2.364 -0.1442  0.2087  0.0643
  422SOL    HW111235   2.925   5.620   2.400 -0.9480  0.9533  0.6360
  422SOL    HW211236   2.780   5.624   2.324 -0.9038 -0.3924  0.4611
  423SOL     OW11237   9.740   5.629   2.793 -0.6897  0.1588  0.3182
  423SOL    HW111238   9.778   5.686   2.720  0.7258  0.1846  1.0578
  423SOL    HW211239   9.667   5.572   2.755  0.2306 -0.0583 -1.1993
  424SOL     OW11240   0.565   4.138   1.530  0.0525 -0.2595 -0.3115
  424SOL    HW111241   0.548   4.096   1.619 -0.8830 -1.1253 -0.8779
  424SOL    HW211242   0.506   4.218   1.518  1.1711  0.6765  0.3972
  425SOL     OW11243   1.770   4.004   2.245 -0.3133  0.6823 -0.1883
  425SOL    HW111244   1.694   3.943   2.224 -0.0758  0.4294 -0.3221
  425SOL    HW211245   1.753   4.094   2.204 -0.8052  0.8012  0.2667
  426SOL     OW11246   1.794   1.711   0.280  0.1995  0.1168 -0.7974
  426SOL    HW111247   1.828   1.778   0.346  2.3441 -0.0559 -1.6675
  426SOL    HW211248   1.720   1.657   0.321  1.9197 -0.4303  1.6964
  427SOL     OW11249   8.837   4.235   1.755  0.3918  0.2972  0.2919
  427SOL    HW111250   8.904   4.221   1.682 -0.2219  0.3764 -0.2844
  427SOL    HW211251   8.779   4.154   1.763 -0.1813  0.6793  0.0285
  428SOL     OW11252   1.335   5.599   1.891  0.3589  0.3455  0.6306
  428SOL    HW111253   1.376   5.608   1.801  1.2333  0.8749  1.0774
  428SOL    HW211254   1.297   5.687   1.919  1.0680  0.4576  1.2462
  429SOL     OW11255   1.028   5.580   1.070 -0.6060 -0.1121  0.5026
  429SOL    HW111256   1.023   5.636   1.153  0.0601 -0.4358  0.7660
  429SOL    HW211257   0.955   5.512   1.072 -2.4210  1.7748 -0.5894
  430SOL     OW11258   9.605   5.562   1.501 -0.0866 -0.1992  0.4640
  430SOL    HW111259   9.693   5.515   1.509  0.1964  0.3582  0.6623
  430SOL    HW211260   9.582   5.604   1.589 -1.3628 -1.7749  0.8961
  431SOL     OW11261   9.050   4.563   0.059 -0.7876  0.1146 -0.1232
  431SOL    HW111262   8.959   4.538   0.028 -0.5100  0.0071 -0.8562
  431SOL    HW211263   9.106   4.481   0.069 -0.6071  0.2281 -0.2016
  432SOL     OW11264   1.566   5.954   0.257 -0.2336 -0.6293  0.0271
  432SOL    HW111265   1.475   5.991   0.236 -0.3639 -0.6856  0.4798
  432SOL    HW211266   1.559   5.894   0.337  0.2194 -0.5744  0.1058
  433SOL     OW11267   3.709   1.837   1.921 -0.1769  0.5835  0.2065
  433SOL    HW111268   3.661   1.912   1.874 -0.7372  0.1334  0.0572
  433SOL    HW211269   3.664   1.819   2.008  0.3956  0.8987  0.5663
  434SOL     OW11270   0.852   4.984   1.873  0.4244 -0.2587 -0.2003
  434SOL    HW111271   0.850   4.913   1.943  0.9477  0.7235  0.8232
  434SOL    HW211272   0.802   4.953   1.792 -0.3103 -1.3320  0.6626
  435SOL     OW11273   0.032   2.446   1.034  0.4876  0.1693  0.7044
  435SOL    HW111274   0.131   2.444   1.029  0.4310  0.6836 -1.0209
  435SOL    HW211275  -0.005   2.487   0.950 -1.2292 -1.3920  0.6588
  436SOL     OW11276   2.083   6.064   2.067 -0.4310  0.0020  0.4207
  436SOL    HW111277   2.082   6.163   2.081  0.7205  0.1302 -0.3444
  436SOL    HW211278   2.082   6.044   1.970 -0.5851 -0.7405  0.5731
  437SOL     OW11279   2.335   6.673   1.528 -0.0398 -0.5417 -0.3770
  437SOL    HW111280   2.284   6.752   1.564 -0.1001 -0.2736 -1.0436
  437SOL    HW211281   2.399   6.640   1.598 -0.4340 -0.2703  0.1157
  438SOL     OW11282   1.671   1.236   1.767  0.0988 -0.0881  0.7137
  438SOL    HW111283   1.700   1.232   1.672  0.2372  0.3475  0.7400
  438SOL    HW211284   1.572   1.251   1.772 -0.1016 -1.3264  0.6274
  439SOL     OW11285   0.472   3.729   2.241  0.3887 -0.7525 -0.6422
  439SOL    HW111286   0.473   3.629   2.245  1.7125 -0.7170  0.0551
  439SOL    HW211287   0.565   3.763   2.236 -0.1189  0.4024 -2.7550
  440SOL     OW11288   1.358   1.455   0.564 -0.2334  0.5833  0.4512
  440SOL    HW111289   1.399   1.522   0.626  4.9643 -0.6266 -1.3617
  440SOL    HW211290   1.327   1.501   0.481  2.8749  0.9276 -0.5830
  441SOL     OW11291   3.465   1.407   1.157 -0.6647 -0.0708  0.3437
  441SOL    HW111292   3.462   1.324   1.101 -0.1612  0.2942 -0.2267
  441SOL    HW211293   3.406   1.477   1.116  0.0975  0.3683 -0.0131
  442SOL     OW11294   0.935   2.880   0.077  0.5152  0.3732  0.1126
  442SOL    HW111295   1.026   2.839   0.076  0.6022  0.5845 -0.4136
  442SOL    HW211296   0.889   2.856   0.163  0.9869  0.0978  0.2891
  443SOL     OW11297   2.752   1.289   0.205 -0.0407 -0.2129 -1.0545
  443SOL    HW111298   2.731   1.278   0.302 -0.2435  1.1879 -0.9224
  443SOL    HW211299   2.667   1.301   0.153  0.1306  0.1810 -1.2483
  444SOL     OW11300   2.358   8.465   1.019 -0.7366  0.1238 -0.2260
  444SOL    HW111301   2.409   8.463   0.933 -0.9479 -0.4826 -0.3438
  444SOL    HW211302   2.414   8.428   1.092 -1.1323 -0.9237 -0.4339
  445SOL     OW11303   4.053   1.702   2.559  0.2256  0.0027 -0.2427
  445SOL    HW111304   4.041   1.799   2.577 -1.8374 -0.4986  1.2373
  445SOL    HW211305   3.967   1.654   2.575  1.3513 -2.1358 -0.4524
  446SOL     OW11306   1.876   3.983   2.517 -0.1887 -0.5966  0.5057
  446SOL    HW111307   1.857   3.985   2.419 -0.0661 -1.2942  0.4640
  446SOL    HW211308   1.904   4.074   2.548 -0.4780 -0.3160 -0.0529
  447SOL     OW11309   2.861   1.960   1.806  0.1520  0.3183 -0.0137
  447SOL    HW111310   2.891   1.866   1.823  0.1817  0.3015 -0.1569
  447SOL    HW211311   2.915   2.023   1.862 -0.5380  0.1743  0.8301
  448SOL     OW11312   2.353   5.091   2.776 -0.5115 -0.3949  0.2966
  448SOL    HW111313   2.348   5.140   2.689  2.4416  0.4980  0.5525
  448SOL    HW211314   2.340   4.993   2.760 -0.9942 -0.1266 -1.0161
  449SOL     OW11315   3.892   1.650   1.215 -0.6539 -0.1125  0.2291
  449SOL    HW111316   3.808   1.656   1.270 -0.9125  2.2025 -0.3525
  449SOL    HW211317   3.972   1.661   1.275 -0.8780  0.7263  0.3782
  450SOL     OW11318   2.317   9.584   2.599  0.4701  1.0641  0.7860
  450SOL    HW111319   2.220   9.590   2.575  0.8430 -1.2873 -1.5203
  450SOL    HW211320   2.330   9.510   2.666  0.8989  0.0440 -0.4055
  451SOL     OW11321   3.913   3.364   0.721  0.9753  0.7494  0.0563
  451SOL    HW111322   3.839   3.428   0.743 -1.3712 -1.4211 -1.1821
  451SOL    HW211323   3.988   3.413   0.678 -0.5613  2.7615 -0.4044
  452SOL     OW11324   1.561   2.698   0.321  0.2514 -0.2878 -0.1542
  452SOL    HW111325   1.629   2.625   0.314  2.1124  1.6156 -3.6229
  452SOL    HW211326   1.607   2.786   0.323 -2.0275  0.9107  2.1674
  453SOL     OW11327   1.941   4.017   0.565 -0.4681  0.5268  0.0313
  453SOL    HW111328   1.893   4.051   0.646 -1.6758 -0.3432 -0.3089
  453SOL    HW211329   1.964   3.921   0.578  1.6995  1.0500  0.4103
  454SOL     OW11330   1.954   2.974   2.234 -0.4284  0.5667  0.2057
  454SOL    HW111331   1.937   3.069   2.209  2.3616  1.0714  0.0559
  454SOL    HW211332   1.931   2.915   2.157 -1.8453  1.1384  0.1782
  455SOL     OW11333   3.403   4.747   0.820  0.1711 -0.0939 -0.5536
  455SOL    HW111334   3.318   4.797   0.806 -1.0747 -1.9054  0.4310
  455SOL    HW211335   3.462   4.757   0.739 -0.4258  2.1591 -0.7522
  456SOL     OW11336   1.979   3.746   0.188  0.2074  0.6133 -0.0522
  456SOL    HW111337   1.973   3.693   0.104  0.0411  1.3131 -0.4905
  456SOL    HW211338   1.951   3.690   0.266  0.6172 -0.1135 -0.4296
  457SOL     OW11339   3.766   0.298   0.248  0.0052 -0.8255  0.7051
  457SOL    HW111340   3.707   0.379   0.242  2.0036  0.5098 -1.8613
  457SOL    HW211341   3.849   0.322   0.297  1.5724 -0.6824 -1.9539
  458SOL     OW11342   2.158   4.567   1.654 -0.2090  0.2846  0.0853
  458SOL    HW111343   2.234   4.501   1.652 -0.7403 -0.3257 -0.1633
  458SOL    HW211344   2.129   4.582   1.749 -0.4313 -0.2440  0.1033
  459SOL     OW11345   2.073   7.834   0.498 -0.2767 -0.0777  0.5831
  459SOL    HW111346   2.094   7.776   0.420  0.8933  0.1652  0.7130
  459SOL    HW211347   1.986   7.806   0.538  0.4147 -1.9147  0.8282
  460SOL     OW11348   1.495   1.841   2.612  0.6746 -0.3500 -0.7187
  460SOL    HW111349   1.571   1.862   2.672  1.5154 -1.2776 -1.4395
  460SOL    HW211350   1.410   1.841   2.665  1.2757 -0.1423  0.2575
  461SOL     OW11351   9.201   4.823   2.775  0.5266  0.0436 -0.0719
  461SOL    HW111352   9.156   4.908   2.801  0.7084 -0.2241  1.1605
  461SOL    HW211353   9.141   4.746   2.798  1.4822 -0.3010  1.3415
  462SOL     OW11354   1.274   6.033   1.416  0.9348  0.4056  0.2002
  462SOL    HW111355   1.260   6.044   1.318 -0.9785  2.2694  0.6436
  462SOL    HW211356   1.346   5.965   1.432  0.4288 -0.8228 -2.4444
  463SOL     OW11357   3.655   3.529   1.656  0.2740 -0.4684 -0.2779
  463SOL    HW111358   3.559   3.517   1.627 -0.2048 -1.0919  1.5281
  463SOL    HW211359   3.713   3.468   1.602  0.0436  1.9510 -3.3804
  464SOL     OW11360   4.050   8.265   0.708  0.0400 -0.3418  0.2608
  464SOL    HW111361   4.110   8.193   0.672 -0.0207 -0.1081 -0.3100
  464SOL    HW211362   3.966   8.269   0.654  1.0535  1.7586 -1.2280
  465SOL     OW11363   1.247   7.753   1.272  0.0707  0.3564 -0.4249
  465SOL    HW111364   1.329   7.805   1.248  0.8013 -1.1549 -1.3150
  465SOL    HW211365   1.181   7.813   1.316  1.0821  1.9178 -0.9876
  466SOL     OW11366   1.241   5.166   2.640 -0.0418  0.0356  0.2113
  466SOL    HW111367   1.287   5.220   2.710  1.6554 -0.3799 -0.5733
  466SOL    HW211368   1.142   5.166   2.659  0.1997  1.2955  1.6451
  467SOL     OW11369   2.127   3.888   2.565 -0.2007 -0.0126 -0.2591
  467SOL    HW111370   2.177   3.959   2.615  1.0031 -2.0547  1.5525
  467SOL    HW211371   2.030   3.909   2.564  0.2097  1.9560 -0.2770
  468SOL     OW11372   3.997   0.727   1.924 -0.0798  0.2621 -0.0376
  468SOL    HW111373   4.081   0.709   1.975 -0.3882 -0.7631  0.1254
  468SOL    HW211374   3.920   0.681   1.969 -0.5764  0.4558 -0.6766
  469SOL     OW11375   3.657   8.366   0.087  0.2693 -0.1574 -0.3976
  469SOL    HW111376   3.631   8.288   0.144  2.1708  0.2185  1.0386
  469SOL    HW211377   3.703   8.333   0.005  0.1504 -0.5794 -0.2977
  470SOL     OW11378   3.999   4.493   2.748 -0.3296  0.5236  0.0018
  470SOL    HW111379   4.057   4.411   2.747 -3.1031 -1.5559  0.9106
  470SOL    HW211380   4.031   4.556   2.818  0.2365 -1.0635  1.2133
  471SOL     OW11381   0.824   3.206   1.224 -0.1843  0.7883 -0.2334
  471SOL    HW111382   0.746   3.259   1.192 -0.7348  0.7780  1.0604
  471SOL    HW211383   0.845   3.230   1.318  0.9182  0.2571 -0.3260
  472SOL     OW11384   9.483   5.163   1.215  0.1583  0.2470 -0.2144
  472SOL    HW111385   9.478   5.261   1.233 -0.3271  0.1634  0.1083
  472SOL    HW211386   9.491   5.148   1.117 -0.1634  0.5984 -0.2966
  473SOL     OW11387   0.530   2.779   0.582 -0.3229 -0.5734 -0.4594
  473SOL    HW111388   0.517   2.871   0.544  0.5064  0.5614  1.9094
  473SOL    HW211389   0.627   2.764   0.600 -0.8950 -0.1470  3.3572
  474SOL     OW11390   2.734   6.737   0.313 -0.7324  0.2725  0.1113
  474SOL    HW111391   2.828   6.757   0.343 -1.2458  0.8093  1.3683
  474SOL    HW211392   2.737   6.677   0.233  0.6730 -0.1407  0.4648
  475SOL     OW11393   2.619   0.468   0.907  0.1922  0.0240  0.2906
  475SOL    HW111394   2.588   0.452   1.001  0.3016  0.0126  0.3243
  475SOL    HW211395   2.647   0.564   0.897 -1.8136  0.5868 -0.2867
  476SOL     OW11396   3.138   4.147   1.728  0.2818  0.1426  0.2718
  476SOL    HW111397   3.050   4.104   1.707  1.0917 -1.5602  0.3015
  476SOL    HW211398   3.131   4.195   1.815 -0.7698  0.4595  0.0241
  477SOL     OW11399   2.799   5.200   0.854 -0.6554  0.0901 -0.2136
  477SOL    HW111400   2.785   5.291   0.815  0.7714  1.6678  2.7339
  477SOL    HW211401   2.721   5.176   0.912 -0.5894 -0.1120 -0.2073
  478SOL     OW11402   3.996   9.804   0.094  0.3068 -0.2017  0.4964
  478SOL    HW111403   3.924   9.756   0.145  0.0916  0.5272  0.8773
  478SOL    HW211404   4.041   9.870   0.154 -0.2603  0.9990 -0.3648
  479SOL     OW11405   4.260   2.873   1.245 -0.1980 -0.0753  0.4111
  479SOL    HW111406   4.209   2.887   1.160 -1.6903 -0.1379  1.2732
  479SOL    HW211407   4.337   2.938   1.250 -1.8035  1.8861  0.3304
  480SOL     OW11408   2.710   8.082   0.638 -0.1080 -0.1945 -0.1418
  480SOL    HW111409   2.682   8.085   0.542 -1.1919  0.5727  0.1885
  480SOL    HW211410   2.799   8.126   0.649  1.2044 -2.4908 -1.1844
  481SOL     OW11411   3.214   1.053   1.373 -0.5466  0.3523  0.2760
  481SOL    HW111412   3.296   1.110   1.368 -0.0921 -0.2857  0.3590
  481SOL    HW211413   3.212   0.990   1.295 -1.0591  0.4977  0.1683
  482SOL     OW11414   4.554   3.418   2.757  0.4592  0.4882  0.2802
  482SOL    HW111415   4.542   3.444   2.661 -1.1842  0.0089  0.3382
  482SOL    HW211416   4.515   3.488   2.816 -2.5164 -1.2256  0.4696
  483SOL     OW11417   1.967   5.534   1.459 -0.5016  0.2015  0.8785
  483SOL    HW111418   1.917   5.448   1.452  0.6646 -0.4496  0.3349
  483SOL    HW211419   1.934   5.586   1.538 -3.9777  1.0957 -1.0562
  484SOL     OW11420   2.397   6.917   0.983 -0.0322 -0.0248  0.0097
  484SOL    HW111421   2.441   6.948   0.899  1.6763  1.1097  1.2852
  484SOL    HW211422   2.348   6.832   0.966  0.1591  0.2704 -2.1558
  485SOL     OW11423   2.198   5.963   2.797 -0.3520 -0.3304  0.3407
  485SOL    HW111424   2.180   6.017   2.879  0.3637 -1.3570  1.1930
  485SOL    HW211425   2.163   6.011   2.717 -0.3816  1.0441  1.1587
  486SOL     OW11426   2.891   0.475   1.985 -0.8493  0.2210 -0.1819
  486SOL    HW111427   2.904   0.575   1.983  0.2211  0.0644 -1.5617
  486SOL    HW211428   2.795   0.455   2.004 -1.8027  1.5805 -3.1988
  487SOL     OW11429   9.842   5.164   2.545 -0.0086 -0.9426 -0.1571
  487SOL    HW111430   9.756   5.216   2.544 -1.0382 -2.5939 -0.3448
  487SOL    HW211431   9.842   5.099   2.469  1.6604 -0.5892 -0.4779
  488SOL     OW11432   2.981   7.110   0.288 -0.5282 -0.6993  0.0946
  488SOL    HW111433   2.948   7.079   0.198 -0.7932  1.6423 -0.6563
  488SOL    HW211434   3.050   7.181   0.275  0.3744 -1.2424  1.7593
  489SOL     OW11435   2.307   9.972   0.927  0.0161  0.0165 -0.2567
  489SOL    HW111436   2.336  10.058   0.970  2.8220 -0.2636 -1.5013
  489SOL    HW211437   2.301   9.901   0.997 -0.6056  0.7943  0.4980
  490SOL     OW11438   8.897   5.257   2.074  0.6883 -0.1091  0.3433
  490SOL    HW111439   8.919   5.353   2.061  2.3116 -0.6449 -1.0698
  490SOL    HW211440   8.926   5.229   2.166  1.2343  0.4701  0.3501
  491SOL     OW11441   0.733   7.035   2.231  0.2483  0.4409 -0.4046
  491SOL    HW111442   0.663   6.971   2.197  1.7602 -0.6593 -1.5415
  491SOL    HW211443   0.692   7.125   2.246 -1.4122 -0.1946 -1.0116
  492SOL     OW11444   1.888   4.554   2.334  0.5656  0.2254  0.8891
  492SOL    HW111445   1.948   4.630   2.309  0.3369  0.2625  0.4323
  492SOL    HW211446   1.935   4.467   2.319  0.1129  0.2188 -0.5761
  493SOL     OW11447   2.119   8.373   0.870 -0.2134 -0.2445 -0.3518
  493SOL    HW111448   2.191   8.346   0.934  0.6111  0.5181 -0.9435
  493SOL    HW211449   2.160   8.418   0.791 -1.2457 -0.8811 -1.2682
  494SOL     OW11450   3.103   0.304   2.163 -0.2291  0.3975 -0.7775
  494SOL    HW111451   3.096   0.311   2.262  0.0239  2.6865 -0.9067
  494SOL    HW211452   3.066   0.386   2.121  1.4177  0.2944 -2.5096
  495SOL     OW11453   3.255   3.439   0.873  0.5444  0.0591 -0.1744
  495SOL    HW111454   3.166   3.481   0.855  0.8067  0.8446  0.3381
  495SOL    HW211455   3.316   3.506   0.916  2.0839  0.1721 -2.4236
  496SOL     OW11456   3.411   1.975   2.275 -0.3701 -0.4108  0.0800
  496SOL    HW111457   3.401   2.028   2.191  1.0537 -1.9596 -1.1022
  496SOL    HW211458   3.364   2.023   2.350 -0.7671  1.5172 -1.3402
  497SOL     OW11459   4.044   1.914   0.279 -0.0259  0.2959  0.4296
  497SOL    HW111460   3.965   1.951   0.230  1.0431  0.7371 -0.9821
  497SOL    HW211461   4.125   1.970   0.259  0.5931  0.0530  2.1220
  498SOL     OW11462   0.038   2.688   2.470  0.0384  0.3181  0.3081
  498SOL    HW111463   0.006   2.758   2.534  0.8199  1.0627 -0.0997
  498SOL    HW211464  -0.020   2.607   2.478  0.4671  0.1945  2.3413
  499SOL     OW11465   1.726   5.165   0.703 -0.1990  0.3294 -0.0837
  499SOL    HW111466   1.751   5.232   0.773 -1.1591  1.4052 -0.7606
  499SOL    HW211467   1.706   5.212   0.617 -0.7310 -0.8433 -0.6152
  500SOL     OW11468   3.159   7.608   1.174 -0.4339 -0.3053  0.1344
  500SOL    HW111469   3.083   7.666   1.204 -0.8143 -0.3062 -0.8187
  500SOL    HW211470   3.198   7.645   1.089 -0.9262 -1.6562 -0.6951
  501SOL     OW11471   1.928   6.400   2.231 -0.7209 -0.0417 -0.6193
  501SOL    HW111472   1.891   6.460   2.159 -2.5240  0.5972  0.7846
  501SOL    HW211473   1.864   6.326   2.248  0.2742 -0.8803 -0.5136
  502SOL     OW11474   4.491   0.858   0.516  0.1844 -0.2468 -0.3325
  502SOL    HW111475   4.396   0.880   0.536  0.7829  1.7079  0.4299
  502SOL    HW211476   4.540   0.941   0.487  2.0177 -0.9145  0.7362
  503SOL     OW11477   2.413   7.924   2.158  0.7467  0.3544 -0.2581
  503SOL    HW111478   2.460   7.996   2.107  2.0547  0.1983  0.6978
  503SOL    HW211479   2.333   7.893   2.106 -0.3792  3.1297 -0.2284
  504SOL     OW11480   2.214   4.404   0.700 -0.0740 -0.2384 -0.3235
  504SOL    HW111481   2.269   4.483   0.728 -0.7796  0.2290 -0.2595
  504SOL    HW211482   2.132   4.399   0.756  0.8037 -2.0128  0.8225
  505SOL     OW11483   4.042   3.156   0.847 -0.4348 -0.0860  0.3774
  505SOL    HW111484   3.972   3.114   0.905 -0.1182  0.1991  0.9708
  505SOL    HW211485   4.011   3.246   0.816 -0.1802  0.2096  0.9596
  506SOL     OW11486   3.028   9.794   0.451 -0.3931 -0.4626 -0.8575
  506SOL    HW111487   2.974   9.724   0.497 -0.4366 -0.9392 -1.6331
  506SOL    HW211488   3.115   9.805   0.497 -0.9999  0.0599  0.1902
  507SOL     OW11489   3.516   8.133   2.764 -0.7458  0.2933  0.2163
  507SOL    HW111490   3.505   8.041   2.727  1.0099  0.3121 -0.3922
  507SOL    HW211491   3.505   8.131   2.863 -1.6132 -0.4124  0.1121
  508SOL     OW11492   1.708   6.920   2.575 -0.3285 -0.2238  0.0332
  508SOL    HW111493   1.661   6.853   2.633 -0.4936 -0.6993 -0.6406
  508SOL    HW211494   1.773   6.972   2.630 -2.3344  1.0987  1.1759
  509SOL     OW11495   0.461   4.097   2.604 -0.2164  0.4581  0.4048
  509SOL    HW111496   0.457   4.112   2.702  0.3818 -2.8465  1.0085
  509SOL    HW211497   0.556   4.084   2.575 -0.6281 -2.0634  0.0372
  510SOL     OW11498   1.024   2.880   0.972  0.0099 -0.2563 -0.8397
  510SOL    HW111499   1.031   2.960   0.913  1.5377 -1.1397 -1.9104
  510SOL    HW211500   1.031   2.797   0.916 -1.4897 -1.1346  0.2541
  511SOL     OW11501   2.940   9.349   0.228  0.2220 -0.0903  0.4074
  511SOL    HW111502   2.989   9.436   0.228  1.4093 -0.7415 -0.2622
  511SOL    HW211503   2.860   9.356   0.168  0.6494  0.3613 -0.1206
  512SOL     OW11504   2.926   2.718   0.751 -0.5162 -0.3846  0.5885
  512SOL    HW111505   2.845   2.678   0.708  0.0313 -1.0847  0.2134
  512SOL    HW211506   2.935   2.683   0.844  0.3144 -1.6387  0.0514
  513SOL     OW11507   3.195   2.194   0.692  0.2452  0.5766  0.1857
  513SOL    HW111508   3.242   2.274   0.654 -1.2021  1.1812 -0.3691
  513SOL    HW211509   3.104   2.221   0.723 -0.5315 -1.0075 -0.6775
  514SOL     OW11510   3.793   1.139   2.208  0.2181  0.1830  0.2898
  514SOL    HW111511   3.862   1.206   2.236  1.6430 -0.5407 -1.4576
  514SOL    HW211512   3.829   1.047   2.220 -0.7962 -0.2274  0.2441
  515SOL     OW11513   0.041   2.529   2.088  0.0735  0.2438 -0.1473
  515SOL    HW111514   0.015   2.625   2.086  0.8340  0.4210 -1.6345
  515SOL    HW211515   0.017   2.490   2.177 -1.7141  1.3856 -0.1070
  516SOL     OW11516   0.763   6.527   0.976  0.2778 -0.3923 -0.3036
  516SOL    HW111517   0.853   6.491   0.950  0.0202 -2.3148  1.3945
  516SOL    HW211518   0.700   6.451   0.993 -1.0792  0.9114  0.5877
  517SOL     OW11519   1.235   7.088   1.681  0.1335 -0.2381  0.3136
  517SOL    HW111520   1.140   7.084   1.709 -0.1916  3.0046 -0.0895
  517SOL    HW211521   1.240   7.103   1.582  0.9861  1.5296  0.5973
  518SOL     OW11522   4.472   0.320   1.020 -0.0343 -0.7018  0.3550
  518SOL    HW111523   4.424   0.240   1.057 -2.1286 -0.0202 -0.8158
  518SOL    HW211524   4.409   0.374   0.965  1.8715  0.7384 -0.4631
  519SOL     OW11525   2.374   0.941   2.665 -0.0388 -0.1391  0.1441
  519SOL    HW111526   2.356   0.869   2.733 -0.9277 -0.0422  0.0269
  519SOL    HW211527   2.392   0.898   2.576 -1.5300 -0.2211 -0.1453
  520SOL     OW11528   9.101   4.513   0.377  0.1429 -0.1161  0.0314
  520SOL    HW111529   9.073   4.518   0.281  0.0607  1.6663  0.1395
  520SOL    HW211530   9.031   4.463   0.428 -0.6869  0.4698 -0.5132
  521SOL     OW11531   3.533   3.288   2.245 -0.3374 -0.2793 -0.2436
  521SOL    HW111532   3.627   3.316   2.265  0.0235 -1.2309 -0.5660
  521SOL    HW211533   3.469   3.354   2.284  0.4712  0.4490 -0.1451
  522SOL     OW11534   3.264   1.238   0.673  0.5664  0.3666  0.2791
  522SOL    HW111535   3.349   1.193   0.702  2.0803  3.0519  0.2433
  522SOL    HW211536   3.287   1.320   0.621 -2.1019 -0.4580 -2.3588
  523SOL     OW11537   4.282   3.685   1.465  0.3976 -0.1728 -0.7889
  523SOL    HW111538   4.206   3.624   1.444  0.8210 -0.9052 -0.2461
  523SOL    HW211539   4.351   3.678   1.393 -0.2612  0.8427 -1.5153
  524SOL     OW11540   2.143   4.683   2.445  0.2998  0.0965 -0.2928
  524SOL    HW111541   2.100   4.593   2.460  0.0452  0.2328 -0.1926
  524SOL    HW211542   2.209   4.677   2.371  0.4565 -0.2323 -0.1288
  525SOL     OW11543   0.525   5.322   0.082 -0.2331 -0.2248 -0.5347
  525SOL    HW111544   0.485   5.333   0.173  0.5578  1.6064 -0.3883
  525SOL    HW211545   0.604   5.382   0.073  0.9297 -1.8938 -1.7369
  526SOL     OW11546   9.491   4.024   1.957  0.4881 -0.0747 -0.1345
  526SOL    HW111547   9.582   4.065   1.947  1.0367 -1.6046 -1.6925
  526SOL    HW211548   9.500   3.934   1.998 -0.1027 -1.0267 -2.0329
  527SOL     OW11549   4.001   4.543   0.245  0.4727  0.0645 -0.4155
  527SOL    HW111550   3.927   4.609   0.235  0.4793  0.1384  0.0176
  527SOL    HW211551   4.063   4.573   0.318  1.1390  0.1992 -1.0413
  528SOL     OW11552   3.145   4.640   1.948  0.4621  0.1912 -0.2077
  528SOL    HW111553   3.053   4.672   1.927  0.1810  0.2611  1.0782
  528SOL    HW211554   3.165   4.560   1.892 -0.6749 -0.2796  0.0337
  529SOL     OW11555   1.943   1.377   0.122 -0.2305 -0.0975  0.1062
  529SOL    HW111556   1.941   1.317   0.202  2.2404 -1.0489 -0.4960
  529SOL    HW211557   1.883   1.456   0.138 -0.3739 -0.6626  2.5808
  530SOL     OW11558   2.503   4.169   0.994 -0.0470 -0.4410  0.0000
  530SOL    HW111559   2.558   4.142   1.073  1.2297  0.5488 -0.5418
  530SOL    HW211560   2.494   4.090   0.932  0.6741 -0.6456  0.1474
  531SOL     OW11561   3.754   0.787   0.905  0.1463 -0.1869 -0.4844
  531SOL    HW111562   3.728   0.693   0.883 -1.8970 -0.1348  1.6204
  531SOL    HW211563   3.833   0.786   0.967 -0.3990 -0.5310  0.2053
  532SOL     OW11564   3.864   1.620   0.911  0.5336  0.1160 -0.4380
  532SOL    HW111565   3.960   1.630   0.882  0.6346  0.8128  0.1148
  532SOL    HW211566   3.857   1.645   1.008 -0.3383  0.7701 -0.6693
  533SOL     OW11567   2.160   1.057   1.721 -0.5139 -0.2206  0.0351
  533SOL    HW111568   2.174   0.972   1.771  1.8658  0.2021  0.1627
  533SOL    HW211569   2.162   1.039   1.622  0.4906 -0.2561  0.0567
  534SOL     OW11570   0.865   2.794   2.316  0.4730 -0.4010  0.6481
  534SOL    HW111571   0.777   2.811   2.271 -0.1707  2.0200  2.6865
  534SOL    HW211572   0.849   2.755   2.407  1.6475 -2.3438  0.0659
  535SOL     OW11573   3.602   0.210   2.439 -0.5405 -0.0295  0.3235
  535SOL    HW111574   3.655   0.281   2.486 -1.2148  1.9922 -1.8340
  535SOL    HW211575   3.510   0.205   2.479 -1.2527  1.9800 -0.9871
  536SOL     OW11576   2.017   1.613   1.976 -0.4014 -0.3214  0.1589
  536SOL    HW111577   2.113   1.586   1.966  0.3770  2.1971  0.4488
  536SOL    HW211578   1.959   1.531   1.979  1.6715 -1.8544 -0.5945
  537SOL     OW11579   2.972   8.822   0.377  0.2078  0.5077  0.0747
  537SOL    HW111580   2.907   8.813   0.452  0.6850  0.7639  0.5237
  537SOL    HW211581   3.041   8.891   0.401  2.0393 -1.4662  0.6179
  538SOL     OW11582   0.230   5.472   1.755 -0.5792 -0.3070 -0.2220
  538SOL    HW111583   0.224   5.548   1.690 -0.0882 -1.0305 -1.1154
  538SOL    HW211584   0.326   5.445   1.765 -0.6148 -0.0219  1.0193
  539SOL     OW11585   1.073   5.393   2.046 -1.2170 -0.1826 -0.4601
  539SOL    HW111586   1.000   5.331   2.017 -0.5251 -0.6719 -1.2001
  539SOL    HW211587   1.146   5.392   1.977 -0.3054 -0.0551  0.4822
  540SOL     OW11588   9.964   3.380   1.514 -0.0894  0.3916 -0.3286
  540SOL    HW111589   9.959   3.291   1.559 -1.4134 -0.0673 -1.3439
  540SOL    HW211590   9.872   3.420   1.510  0.4380  1.6473 -0.2135
  541SOL     OW11591   4.099   3.293   2.367  0.3081  0.6781  0.5546
  541SOL    HW111592   4.051   3.238   2.435  0.1889 -1.0972 -0.8950
  541SOL    HW211593   4.182   3.245   2.339  0.8461  1.8322  0.1723
  542SOL     OW11594   2.223   5.735   1.556  0.2210 -0.1751  0.0441
  542SOL    HW111595   2.210   5.834   1.550 -1.0127 -0.2541  1.3698
  542SOL    HW211596   2.235   5.708   1.652 -0.7446 -1.4764 -0.1929
  543SOL     OW11597   2.652   0.168   1.144  0.2680  0.0929  0.1824
  543SOL    HW111598   2.704   0.233   1.200 -0.8890  0.8079  0.4497
  543SOL    HW211599   2.712   0.093   1.116  1.5401  1.0754  0.1829
  544SOL     OW11600   1.812   2.530   0.351  0.2307 -0.3672  0.7991
  544SOL    HW111601   1.844   2.518   0.258  1.2292 -0.8334  1.1976
  544SOL    HW211602   1.834   2.449   0.405 -0.7469 -0.2895  1.3285
  545SOL     OW11603   2.290   0.004   2.398  0.1020 -0.2363 -0.0381
  545SOL    HW111604   2.321  -0.075   2.347 -1.4441 -0.1348 -1.1815
  545SOL    HW211605   2.196   0.026   2.372 -0.8064 -0.2610  2.9443
  546SOL     OW11606   2.211   9.819   2.757 -0.5036 -0.1373  0.3722
  546SOL    HW111607   2.206   9.723   2.786 -0.0365 -0.0767  0.6511
  546SOL    HW211608   2.285   9.831   2.692 -1.3011 -0.1909 -0.5555
  547SOL     OW11609   0.774   6.800   1.417 -0.0113  0.0275  0.4584
  547SOL    HW111610   0.832   6.881   1.428  0.6312 -0.5485  1.3566
  547SOL    HW211611   0.808   6.745   1.341  0.2330  0.0258  0.5675
  548SOL     OW11612   3.681   9.020   0.532 -0.2361  0.2695  0.1098
  548SOL    HW111613   3.610   9.006   0.464  1.7736  0.5350 -2.1025
  548SOL    HW211614   3.737   8.937   0.540 -1.4776 -0.3820  2.7355
  549SOL     OW11615   1.125   4.412   1.254  0.0688 -0.2403  0.1553
  549SOL    HW111616   1.060   4.376   1.322 -0.1096  0.3766  0.3189
  549SOL    HW211617   1.149   4.506   1.279 -1.4338  0.6434 -1.6616
  550SOL     OW11618   2.357   9.175   0.455  0.0541 -0.6195 -0.3119
  550SOL    HW111619   2.418   9.245   0.491  1.2702 -1.1339 -1.3366
  550SOL    HW211620   2.279   9.219   0.411  2.4652  0.2640 -3.9452
  551SOL     OW11621   2.422   1.147   1.171 -0.0497  0.4318 -0.5124
  551SOL    HW111622   2.341   1.174   1.120 -0.6292  1.4894  0.9262
  551SOL    HW211623   2.444   1.219   1.238  1.7721 -0.0751 -0.5581
  552SOL     OW11624   0.454   2.814   1.905  0.1220  0.1976  0.1266
  552SOL    HW111625   0.531   2.786   1.847  1.6144  0.9203  1.7487
  552SOL    HW211626   0.393   2.735   1.919  0.9784 -0.5939 -0.4998
  553SOL     OW11627   4.478   8.197   0.854  0.6123 -0.4613 -0.1548
  553SOL    HW111628   4.416   8.274   0.863  1.3897  0.3013 -1.1832
  553SOL    HW211629   4.483   8.169   0.758  1.3256 -0.9541  0.0179
  554SOL     OW11630   2.051   4.192   1.523 -0.2089  0.2307 -0.3161
  554SOL    HW111631   1.959   4.163   1.494  0.6423 -1.1348 -1.7654
  554SOL    HW211632   2.094   4.245   1.449 -0.3331  2.0440  0.8907
  555SOL     OW11633   3.710   0.033   0.668  0.6288  0.0365  0.5496
  555SOL    HW111634   3.651  -0.038   0.631  0.1377  0.6291  0.1826
  555SOL    HW211635   3.778  -0.008   0.729 -1.2264 -0.4705  2.3275
  556SOL     OW11636   4.491   1.550   1.201 -0.5294  0.2582 -0.0748
  556SOL    HW111637   4.576   1.603   1.200 -1.0242  1.0482 -1.1380
  556SOL    HW211638   4.484   1.501   1.288  1.1509 -0.0556 -0.0990
  557SOL     OW11639   2.682   2.320   0.712 -0.2987  0.3607  0.4425
  557SOL    HW111640   2.582   2.317   0.703 -0.3011 -1.7824  0.9615
  557SOL    HW211641   2.723   2.307   0.621 -0.4866 -2.6753  0.7478
  558SOL     OW11642   3.882   1.136   0.960 -1.1081  0.0993  0.1447
  558SOL    HW111643   3.843   1.086   1.037 -1.3191 -3.6405 -2.2489
  558SOL    HW211644   3.831   1.221   0.946 -3.1209 -0.7338  2.1127
  559SOL     OW11645   3.408   1.126   0.360 -0.3543 -0.2687  0.0414
  559SOL    HW111646   3.441   1.046   0.410 -0.7799 -0.8314 -0.5723
  559SOL    HW211647   3.428   1.209   0.413 -0.2963 -0.8109  0.8775
  560SOL     OW11648   1.501   5.959   0.547  0.3142  0.1485 -0.3381
  560SOL    HW111649   1.596   5.938   0.571  0.4898 -0.2191 -1.3387
  560SOL    HW211650   1.494   6.055   0.520  0.9666 -0.4973 -2.9813
  561SOL     OW11651   2.777   3.094   0.336  0.5854  0.7772  0.8330
  561SOL    HW111652   2.813   3.043   0.414 -3.2537 -2.7911  0.4667
  561SOL    HW211653   2.800   3.045   0.251 -3.4697 -0.7318  0.4957
  562SOL     OW11654   1.609   4.381   0.031  0.3594  0.9278  0.2237
  562SOL    HW111655   1.602   4.320   0.109 -1.6668  2.2478  1.1322
  562SOL    HW211656   1.701   4.420   0.027  0.3902  1.1303  2.2070
  563SOL     OW11657   9.307   5.356   0.107  0.0952  0.1876 -0.4209
  563SOL    HW111658   9.335   5.334   0.200  0.8055  1.5885 -0.2886
  563SOL    HW211659   9.366   5.428   0.070  0.4418 -0.9979 -2.3011
  564SOL     OW11660   3.786   0.736   2.695  0.4910 -0.6210 -0.0636
  564SOL    HW111661   3.885   0.725   2.690  0.3762 -3.1910  2.1289
  564SOL    HW211662   3.746   0.658   2.742 -2.3250  1.6453  1.4916
  565SOL     OW11663   4.108   1.622   0.784  0.7380  0.2572  0.1930
  565SOL    HW111664   4.123   1.720   0.796  1.9339 -0.1334  2.1480
  565SOL    HW211665   4.193   1.572   0.803  0.8583 -1.0240 -3.3047
  566SOL     OW11666   1.383   2.412   2.146  0.4959 -0.1339 -0.4577
  566SOL    HW111667   1.373   2.354   2.226 -2.5386 -0.1931 -0.8367
  566SOL    HW211668   1.324   2.493   2.155 -1.6395 -1.2180 -3.5492
  567SOL     OW11669   1.444   1.901   1.841  0.6203 -0.0232 -0.4894
  567SOL    HW111670   1.508   1.841   1.793  1.1941  0.2674 -0.0883
  567SOL    HW211671   1.432   1.985   1.788  1.0793  0.2017 -0.2378
  568SOL     OW11672   2.017   1.047   0.976 -0.3841  0.1373  0.8347
  568SOL    HW111673   1.984   0.953   0.981 -0.5285  0.2719  2.7752
  568SOL    HW211674   1.975   1.093   0.898  1.6371 -2.1286 -1.6797
  569SOL     OW11675   1.753   0.781   0.075  0.4313  0.4217 -0.5570
  569SOL    HW111676   1.729   0.819   0.164 -0.6596  0.6526 -0.9431
  569SOL    HW211677   1.838   0.728   0.083 -1.3617 -2.2787  1.3012
  570SOL     OW11678   4.044   3.339   2.827 -0.5255  0.7590  0.3039
  570SOL    HW111679   4.097   3.304   2.904  0.5768  3.7695  0.9795
  570SOL    HW211680   4.099   3.404   2.775 -2.4939  1.4893 -0.9159
  571SOL     OW11681   3.074   5.281   2.207 -0.4173  0.1623 -0.5400
  571SOL    HW111682   3.062   5.196   2.155  0.0504 -0.0483 -0.3010
  571SOL    HW211683   3.009   5.282   2.283  0.7272 -0.7709  0.4751
  572SOL     OW11684   2.470   4.621   0.739 -0.4631  0.2789  0.0207
  572SOL    HW111685   2.468   4.656   0.646 -0.9473 -2.0598 -0.8752
  572SOL    HW211686   2.565   4.610   0.769 -0.3007  0.0773 -0.5693
  573SOL     OW11687   1.557   7.195   0.708 -0.1451  0.1341  0.2504
  573SOL    HW111688   1.553   7.124   0.778 -0.8780  0.0403  0.1205
  573SOL    HW211689   1.505   7.275   0.738 -1.4971 -0.3777 -0.7040
  574SOL     OW11690   2.774   9.795   1.600  0.1216 -0.3320 -0.2329
  574SOL    HW111691   2.701   9.856   1.567 -0.9459 -0.6247  1.5419
  574SOL    HW211692   2.854   9.850   1.623 -0.9156  0.4763  1.5876
  575SOL     OW11693   2.119   6.839   1.814 -0.0432 -0.5683  0.1171
  575SOL    HW111694   2.044   6.817   1.751  0.4661 -0.8035 -0.4135
  575SOL    HW211695   2.082   6.855   1.905 -0.8678  0.4546 -0.3899
  576SOL     OW11696   2.572   9.334   1.438  0.1625  0.0788  0.0877
  576SOL    HW111697   2.502   9.282   1.486  0.3037 -1.3425 -1.2238
  576SOL    HW211698   2.617   9.396   1.503 -2.1559  0.8986  0.9837
  577SOL     OW11699   3.374   2.398   0.616  0.0804 -0.0664  0.2202
  577SOL    HW111700   3.449   2.413   0.552  0.2075 -2.2720 -0.2147
  577SOL    HW211701   3.410   2.389   0.709  0.5527 -2.3235 -0.1354
  578SOL     OW11702   4.016   2.683   1.162 -0.0294  0.1820 -0.4113
  578SOL    HW111703   4.089   2.701   1.096 -0.4776  0.1705 -0.9118
  578SOL    HW211704   3.990   2.587   1.157 -0.4292  0.2979 -0.5972
  579SOL     OW11705   1.786   3.907   1.670  0.1960 -0.5904 -0.3263
  579SOL    HW111706   1.733   3.969   1.613 -0.1352  0.4325  1.0626
  579SOL    HW211707   1.724   3.859   1.733  0.7616 -0.2738  0.4847
  580SOL     OW11708   2.654   5.288   1.325 -0.2307  0.4948 -0.3476
  580SOL    HW111709   2.737   5.320   1.371 -1.0114  0.7771  0.8873
  580SOL    HW211710   2.583   5.358   1.332 -1.7228 -1.1561  1.7533
  581SOL     OW11711   2.081   7.799   0.950  0.5606  0.2429 -0.4504
  581SOL    HW111712   2.024   7.724   0.919 -1.2485  1.6978 -0.7469
  581SOL    HW211713   2.161   7.808   0.890 -1.5546  1.4044 -3.2079
  582SOL     OW11714   1.940   5.266   2.237 -0.4465  0.3685  0.5677
  582SOL    HW111715   1.954   5.182   2.290 -2.3796 -0.5792 -0.3505
  582SOL    HW211716   1.974   5.344   2.289 -0.6278 -0.7380  2.4084
  583SOL     OW11717   0.980   7.056   1.413  0.3836 -0.2642  0.0172
  583SOL    HW111718   0.939   7.124   1.474 -0.1669  0.1231 -0.7773
  583SOL    HW211719   1.080   7.064   1.418  0.4253 -1.7734  2.5836
  584SOL     OW11720   3.698   9.169   0.156 -0.0370  0.1218  0.1125
  584SOL    HW111721   3.776   9.227   0.132 -1.0093  1.5024  0.2299
  584SOL    HW211722   3.638   9.159   0.077  0.2367 -0.9114  0.0307
  585SOL     OW11723   3.181   3.096   1.937 -0.0740  0.7462 -0.7053
  585SOL    HW111724   3.185   3.089   1.838 -0.6295  0.5095 -0.7066
  585SOL    HW211725   3.271   3.074   1.975 -0.5366 -1.7312 -0.9833
  586SOL     OW11726   1.324   7.496   1.235  0.2095 -0.0286  0.1660
  586SOL    HW111727   1.327   7.442   1.320 -0.9390 -0.6435 -0.1805
  586SOL    HW211728   1.299   7.590   1.257  0.2184 -0.1132  0.5514
  587SOL     OW11729   2.278   8.357   1.717  0.2780  0.2900 -0.1793
  587SOL    HW111730   2.249   8.276   1.768  1.8764 -0.0907  0.1596
  587SOL    HW211731   2.203   8.423   1.713 -1.7410 -1.9952 -2.1080
  588SOL     OW11732   3.678   4.166   2.606  0.0815 -0.3306  0.6975
  588SOL    HW111733   3.690   4.230   2.683 -1.7991 -1.2103  1.7683
  588SOL    HW211734   3.607   4.100   2.629  0.6986 -1.6784 -1.1486
  589SOL     OW11735   2.200   6.344   2.254 -1.0628 -0.1877  0.5290
  589SOL    HW111736   2.107   6.361   2.223 -0.6216  2.0951  0.2977
  589SOL    HW211737   2.237   6.428   2.296  1.5696 -0.3916 -1.2148
  590SOL     OW11738   2.325   9.461   1.948 -0.1822  0.4398 -0.0998
  590SOL    HW111739   2.341   9.363   1.939  1.1073  0.5360  0.9922
  590SOL    HW211740   2.266   9.492   1.873  0.4418 -0.9229 -1.1795
  591SOL     OW11741   1.272   5.769   2.323  0.0651  0.1543 -0.1608
  591SOL    HW111742   1.270   5.767   2.223  0.5928  0.0525 -0.1652
  591SOL    HW211743   1.265   5.864   2.353  0.2321  0.2085 -0.2946
  592SOL     OW11744   1.290   3.130   0.990 -0.3853  0.8105  0.0655
  592SOL    HW111745   1.374   3.147   1.041 -0.5333  2.6014 -0.2403
  592SOL    HW211746   1.225   3.204   1.008 -1.7611 -0.3455 -0.0016
  593SOL     OW11747   3.169   9.172   0.144 -0.3380  0.0966 -0.1132
  593SOL    HW111748   3.124   9.125   0.068 -1.4923  0.9720  0.0142
  593SOL    HW211749   3.109   9.243   0.179  0.8175  0.7195  0.6288
  594SOL     OW11750   3.060   5.604   0.632  0.0331 -0.9420 -0.3267
  594SOL    HW111751   3.153   5.567   0.629 -0.1500 -1.2988 -1.5470
  594SOL    HW211752   3.044   5.662   0.552 -1.5036 -2.5816 -1.2301
  595SOL     OW11753   4.722   2.511   2.693  0.6475  0.3633 -0.0274
  595SOL    HW111754   4.758   2.430   2.646 -1.3552 -0.7544  0.3171
  595SOL    HW211755   4.754   2.510   2.788 -0.1701 -0.5628  0.2476
  596SOL     OW11756   2.338   8.589   0.371  0.0799 -0.3638  0.1865
  596SOL    HW111757   2.400   8.645   0.427 -0.5980  1.4180 -0.8208
  596SOL    HW211758   2.256   8.642   0.348 -1.2408 -2.2627  0.4048
  597SOL     OW11759   1.778   5.390   0.863 -0.1075 -0.4716  0.1026
  597SOL    HW111760   1.819   5.481   0.854  1.5683 -1.3359 -1.4475
  597SOL    HW211761   1.795   5.355   0.955  1.6762 -0.3322 -0.1500
  598SOL     OW11762   0.227   4.087   1.300 -0.3367 -0.4765  0.3945
  598SOL    HW111763   0.280   4.004   1.318 -1.8726 -1.4071  0.6945
  598SOL    HW211764   0.272   4.165   1.343  2.2353 -0.7740 -1.6083
  599SOL     OW11765   1.430   6.213   0.464 -0.1884 -0.3726 -0.5990
  599SOL    HW111766   1.360   6.273   0.502 -1.6664 -1.1800 -2.0191
  599SOL    HW211767   1.469   6.256   0.383  0.5078 -0.2316 -0.1960
  600SOL     OW11768   4.387   4.007   1.605 -0.5181  0.0451 -0.1864
  600SOL    HW111769   4.448   3.951   1.549 -0.4754  0.7368 -0.8418
  600SOL    HW211770   4.292   3.988   1.581 -0.5450 -0.6308  0.4471
  601SOL     OW11771   3.482   9.422   0.429  0.5592  0.3780 -0.6662
  601SOL    HW111772   3.403   9.363   0.443  1.5504 -1.0628 -0.9667
  601SOL    HW211773   3.559   9.367   0.398  1.8682  1.6387  0.2508
  602SOL     OW11774   9.633   4.759   1.540 -0.1136 -0.3579 -0.3548
  602SOL    HW111775   9.686   4.802   1.466  1.1093 -1.1915  0.0162
  602SOL    HW211776   9.605   4.830   1.605  0.5984  0.0985 -0.5309
  603SOL     OW11777   4.959   3.448   0.585  0.0106 -0.0209  0.0352
  603SOL    HW111778   4.973   3.538   0.544  1.0795 -0.3468 -0.3595
  603SOL    HW211779   4.968   3.454   0.684 -2.1075  0.6901  0.2028
  604SOL     OW11780   3.127   2.101   0.404 -0.4541 -0.4869  0.0586
  604SOL    HW111781   3.131   2.004   0.378 -1.3840 -1.2581  2.6878
  604SOL    HW211782   3.142   2.110   0.502  2.7784  2.3575 -0.6044
  605SOL     OW11783   2.525   4.696   1.349  0.2940 -0.2630  0.1333
  605SOL    HW111784   2.425   4.696   1.346  0.2930 -1.9467 -0.0644
  605SOL    HW211785   2.561   4.737   1.266 -0.2165 -2.5802 -1.2771
  606SOL     OW11786   0.748   4.333   2.088  0.3457 -0.1292  0.0868
  606SOL    HW111787   0.819   4.268   2.062 -0.0494 -0.2875 -0.6078
  606SOL    HW211788   0.666   4.283   2.116  0.0526  0.0650 -0.4167
  607SOL     OW11789   0.610   2.524   0.128 -0.2849 -0.1976 -0.1169
  607SOL    HW111790   0.632   2.525   0.030 -0.1292  1.6495 -0.0761
  607SOL    HW211791   0.694   2.512   0.181 -0.2982 -0.6168 -0.1904
  608SOL     OW11792   5.099   3.118   1.835 -0.4384  0.1518  0.0607
  608SOL    HW111793   5.133   3.037   1.788 -4.2975 -2.4303  1.4696
  608SOL    HW211794   5.033   3.165   1.778 -1.7732 -0.4590  1.0598
  609SOL     OW11795   0.009   3.951   0.057  0.3384 -0.4706 -0.6388
  609SOL    HW111796  -0.088   3.955   0.083 -0.1500 -2.3094 -2.0089
  609SOL    HW211797   0.032   4.032   0.003 -0.9501 -0.9085 -1.8784
  610SOL     OW11798   3.519   4.282   2.421 -0.0906 -0.3609  0.2592
  610SOL    HW111799   3.572   4.243   2.496  0.2550 -1.6905 -0.6522
  610SOL    HW211800   3.554   4.373   2.398  1.4797 -1.0195  0.0052
  611SOL     OW11801   2.359   2.818   1.945  0.0764 -0.4389 -0.5682
  611SOL    HW111802   2.396   2.781   2.030  2.3733 -0.9044 -1.7034
  611SOL    HW211803   2.347   2.917   1.954 -0.7597 -0.6465  0.6528
  612SOL     OW11804   1.367   5.434   0.784 -0.0412 -0.5328 -0.3829
  612SOL    HW111805   1.342   5.398   0.874  1.6714  0.6297  0.5854
  612SOL    HW211806   1.398   5.528   0.794 -1.3824  0.1463 -2.4445
  613SOL     OW11807   3.246   7.730   0.957 -0.4446  0.0357 -0.0667
  613SOL    HW111808   3.270   7.693   0.868 -2.0825 -1.4690  0.0734
  613SOL    HW211809   3.253   7.830   0.956  2.7299 -0.1508 -0.8753
  614SOL     OW11810   2.970   1.902   2.336 -0.2438 -0.0127  0.1034
  614SOL    HW111811   3.049   1.867   2.388  1.9276  1.7251 -1.8934
  614SOL    HW211812   2.940   1.988   2.376  0.5272  0.6125 -0.6435
  615SOL     OW11813   0.358   4.010   0.279 -0.1427  0.1575  0.6054
  615SOL    HW111814   0.396   4.083   0.337  1.9859 -0.4640  0.0216
  615SOL    HW211815   0.419   3.931   0.281 -0.5084 -0.2219 -1.7287
  616SOL     OW11816   2.927   3.966   0.105 -0.2604 -0.2476 -0.1082
  616SOL    HW111817   2.963   3.904   0.175  0.0915  0.4719  0.3626
  616SOL    HW211818   2.973   4.055   0.114 -0.6129  0.0129 -0.9004
  617SOL     OW11819   2.640   4.498   0.368 -0.4848  0.0600  0.0046
  617SOL    HW111820   2.614   4.433   0.439  1.8449 -0.3627  0.5044
  617SOL    HW211821   2.662   4.449   0.283 -2.6433  0.5196 -0.8721
  618SOL     OW11822   2.016   6.426   0.948 -0.1813  0.0639 -0.3995
  618SOL    HW111823   2.036   6.334   0.914  0.6036 -0.8527  2.3873
  618SOL    HW211824   1.917   6.435   0.963 -0.2623 -0.3355 -0.6917
  619SOL     OW11825   0.876   4.180   0.361 -0.0403  0.2837 -0.1971
  619SOL    HW111826   0.866   4.241   0.282 -1.5275 -0.9468 -0.9618
  619SOL    HW211827   0.964   4.133   0.355  1.9640  3.6721  1.3499
  620SOL     OW11828   9.650   5.881   0.238 -0.5125 -0.8915  0.4589
  620SOL    HW111829   9.629   5.967   0.284 -0.6536 -1.0153  0.6258
  620SOL    HW211830   9.738   5.888   0.192 -1.3874 -0.0052 -1.1435
  621SOL     OW11831   2.553   1.325   1.409 -0.4952  0.1379 -0.7624
  621SOL    HW111832   2.634   1.311   1.353 -0.0424  0.8338 -0.2899
  621SOL    HW211833   2.501   1.403   1.373  0.4876  1.4205  0.5498
  622SOL     OW11834   2.944   8.797   1.353 -0.3148 -0.0277 -0.6555
  622SOL    HW111835   2.904   8.860   1.286 -1.2397  0.8870  0.7371
  622SOL    HW211836   2.900   8.810   1.441  2.7940  0.6822  0.8412
  623SOL     OW11837   3.733   3.913   0.535  0.4143 -0.3996 -0.5224
  623SOL    HW111838   3.655   3.940   0.479  1.1194 -0.1328 -1.3719
  623SOL    HW211839   3.817   3.915   0.481  0.8741 -1.6830  0.1085
  624SOL     OW11840   9.684   5.227   0.057  0.7116 -0.3877  0.1245
  624SOL    HW111841   9.590   5.235   0.024  1.2204 -0.4013 -1.3316
  624SOL    HW211842   9.736   5.309   0.033  0.2949  1.0061  3.6017
  625SOL     OW11843   3.317   0.828   2.582  0.3222  0.3522 -0.3222
  625SOL    HW111844   3.345   0.921   2.557  0.4322  0.5119  0.3801
  625SOL    HW211845   3.231   0.831   2.632  0.5024  0.1074  0.0069
  626SOL     OW11846   1.424   2.808   1.209 -0.4132 -0.0828  0.0854
  626SOL    HW111847   1.355   2.790   1.139 -0.4185  2.1518 -0.5243
  626SOL    HW211848   1.378   2.838   1.293 -0.1663  4.7229 -1.3368
  627SOL     OW11849   2.932   2.428   1.696  0.1844 -0.0674  0.3895
  627SOL    HW111850   2.989   2.507   1.721 -0.7388  0.1276  1.9452
  627SOL    HW211851   2.988   2.363   1.645  1.5781  0.5488  1.0746
  628SOL     OW11852   1.938   6.274   1.253  0.3467 -0.2815  0.0385
  628SOL    HW111853   1.848   6.245   1.220  1.2003 -0.9678 -1.7079
  628SOL    HW211854   2.003   6.199   1.244  1.1389  0.2364  1.2250
  629SOL     OW11855   3.555   2.630   1.707 -0.2865  0.5870  0.0064
  629SOL    HW111856   3.649   2.613   1.680 -0.9238 -1.3498 -1.0434
  629SOL    HW211857   3.553   2.705   1.774  2.0343  0.2627  0.4853
  630SOL     OW11858   3.595   1.545   0.019  0.0168 -0.0859  0.7315
  630SOL    HW111859   3.514   1.572  -0.033  1.1849  0.2991 -0.9373
  630SOL    HW211860   3.594   1.590   0.108 -2.2009 -1.0244  1.2036
  631SOL     OW11861   1.638   0.463   2.219 -0.1948  0.8415 -0.3751
  631SOL    HW111862   1.548   0.424   2.239  1.5715 -2.3307  1.8390
  631SOL    HW211863   1.659   0.451   2.122 -0.6069 -1.8410 -0.1657
  632SOL     OW11864   2.309   6.108   0.831 -0.3841 -0.0652  0.6273
  632SOL    HW111865   2.370   6.181   0.860  0.2201 -0.1364 -0.4178
  632SOL    HW211866   2.255   6.138   0.753 -1.1035 -0.2820  1.0372
  633SOL     OW11867   0.229   4.467   2.333 -0.1276 -0.4921 -0.9310
  633SOL    HW111868   0.225   4.378   2.379 -2.0243 -0.3733 -0.8216
  633SOL    HW211869   0.156   4.525   2.368 -0.7262  0.0871 -3.0952
  634SOL     OW11870   0.279   3.776   1.447  0.5842  0.8772  0.4792
  634SOL    HW111871   0.231   3.756   1.361  3.0910  0.0933 -0.7784
  634SOL    HW211872   0.226   3.739   1.523 -0.6823 -0.2365 -0.8908
  635SOL     OW11873   2.544   3.515   2.091 -0.0704  0.4101 -0.8497
  635SOL    HW111874   2.514   3.601   2.049 -1.4311  1.0305  1.3327
  635SOL    HW211875   2.638   3.525   2.124  0.8776  0.0336 -3.3554
  636SOL     OW11876   3.575   9.989   1.835  0.1881 -0.3119  0.0048
  636SOL    HW111877   3.576   9.917   1.903 -1.9393 -2.1253 -1.7950
  636SOL    HW211878   3.564  10.078   1.880  0.0851 -1.3407  2.0628
  637SOL     OW11879   9.029   4.241   1.480  0.3969  0.0727 -0.2494
  637SOL    HW111880   9.123   4.271   1.493 -0.1771  1.3925  0.9589
  637SOL    HW211881   8.975   4.316   1.441 -0.1436 -0.6858 -0.9645
  638SOL     OW11882   2.440   1.507   1.908  0.4345 -0.4758 -0.1735
  638SOL    HW111883   2.383   1.453   1.846 -0.2559  0.0889 -0.0286
  638SOL    HW211884   2.467   1.592   1.863  0.5792 -0.4226  0.0146
  639SOL     OW11885   0.628   2.197   1.025  0.1785 -0.0304  0.3052
  639SOL    HW111886   0.538   2.215   1.065  0.6449 -0.2401  1.4795
  639SOL    HW211887   0.656   2.104   1.048  0.4589 -0.1612 -0.5427
  640SOL     OW11888   1.484   2.034   2.345  0.0030 -0.1461  0.0092
  640SOL    HW111889   1.482   1.975   2.426  2.3570  0.6550  0.7012
  640SOL    HW211890   1.485   1.978   2.263 -0.0467 -1.0254  0.5992
  641SOL     OW11891   3.850   2.773   1.361  0.3274 -0.4323 -0.3639
  641SOL    HW111892   3.773   2.821   1.318  0.5883 -0.7053 -1.1285
  641SOL    HW211893   3.903   2.725   1.292  1.8194  0.6111  0.0239
  642SOL     OW11894   3.735   3.760   2.805 -0.3098 -0.7255  0.1384
  642SOL    HW111895   3.763   3.664   2.811  0.7073 -0.4194  0.3925
  642SOL    HW211896   3.790   3.807   2.737  1.6804  0.5161  2.5127
  643SOL     OW11897   3.145   3.143   0.117 -0.0948 -0.4051  0.5981
  643SOL    HW111898   3.219   3.078   0.133  1.5432  1.4151  0.5241
  643SOL    HW211899   3.060   3.092   0.099  1.5816 -2.5698 -1.6409
  644SOL     OW11900   2.324   9.855   1.859  0.3292 -0.2196  0.5966
  644SOL    HW111901   2.311   9.805   1.774 -0.3529  0.2425  0.4352
  644SOL    HW211902   2.389   9.804   1.917  1.5320 -0.0584 -0.5736
  645SOL     OW11903   4.462   2.126   1.806  0.0110  0.1377  0.3826
  645SOL    HW111904   4.500   2.099   1.718 -0.6882 -1.2186  0.4774
  645SOL    HW211905   4.395   2.200   1.792 -1.2564 -1.1316 -0.4319
  646SOL     OW11906   1.845   3.053   2.453  0.3488 -0.5139 -0.3484
  646SOL    HW111907   1.896   3.005   2.381  0.5859 -1.3509  0.3655
  646SOL    HW211908   1.749   3.026   2.449  0.1281  0.3808 -1.1287
  647SOL     OW11909   9.304   4.370   2.191  0.3526 -0.4003  0.1311
  647SOL    HW111910   9.279   4.445   2.253 -1.8884 -0.5703 -0.5427
  647SOL    HW211911   9.222   4.326   2.157  1.5596 -0.4456 -2.8516
  648SOL     OW11912   3.094   0.009   0.133  0.4194  0.0303 -0.4094
  648SOL    HW111913   3.159  -0.049   0.182 -1.0076  0.3322  1.9479
  648SOL    HW211914   3.081  -0.026   0.040  4.3716  0.3394 -1.1598
  649SOL     OW11915   0.752   2.731   1.670  0.1696  0.0000 -0.2452
  649SOL    HW111916   0.815   2.809   1.668  0.1713 -0.0066 -0.5889
  649SOL    HW211917   0.802   2.649   1.699  0.8467 -0.4552 -2.5677
  650SOL     OW11918   2.194   7.214   2.500 -0.1109  0.4457  0.4141
  650SOL    HW111919   2.226   7.120   2.484  0.7390  0.9949 -1.1451
  650SOL    HW211920   2.165   7.223   2.596 -0.3833 -1.4529  0.5323
  651SOL     OW11921   2.746   8.261   1.780  0.5403  0.5452  0.6488
  651SOL    HW111922   2.836   8.299   1.756  0.6425  0.4959  0.9441
  651SOL    HW211923   2.684   8.335   1.804  0.6086  0.5586  0.7889
  652SOL     OW11924   3.255   8.689   0.941 -0.4343  0.4108  0.0452
  652SOL    HW111925   3.331   8.624   0.950  0.3647  1.3289  0.0350
  652SOL    HW211926   3.250   8.746   1.023  0.2348  1.7652 -0.8278
  653SOL     OW11927   2.159   6.482   1.176  0.1011  0.6079 -0.6983
  653SOL    HW111928   2.119   6.488   1.267  0.5281  0.4615 -0.5013
  653SOL    HW211929   2.087   6.460   1.110 -0.4376  2.0278 -0.5963
  654SOL     OW11930   2.952   0.911   1.607 -0.3806 -0.1818  0.3814
  654SOL    HW111931   2.909   0.977   1.669 -1.2644 -0.8671  0.5171
  654SOL    HW211932   2.994   0.838   1.661  0.3675  0.1240  0.2223
  655SOL     OW11933   9.814   2.907   1.487  0.2812  0.6832  0.5650
  655SOL    HW111934   9.731   2.911   1.543  0.0083 -1.2449  0.3073
  655SOL    HW211935   9.790   2.893   1.391  0.9049 -0.0609  0.5102
  656SOL     OW11936   4.196   3.775   0.045  0.2900  0.3057  0.3858
  656SOL    HW111937   4.295   3.794   0.043  0.1672  0.8391 -1.7897
  656SOL    HW211938   4.146   3.861   0.037 -0.3329 -0.1428 -0.5686
  657SOL     OW11939   9.924   2.481   1.698 -0.2394  0.1201 -0.0976
  657SOL    HW111940   9.879   2.564   1.729 -0.0895 -0.0370  0.5562
  657SOL    HW211941   9.927   2.479   1.598  2.1979  2.2314 -0.1160
  658SOL     OW11942   9.217   5.248   2.057 -0.8137 -0.0262  0.4047
  658SOL    HW111943   9.263   5.308   2.123  0.4324  1.3711 -1.6677
  658SOL    HW211944   9.171   5.304   1.988  2.4253 -1.3508 -2.9621
  659SOL     OW11945   1.605   3.680   0.114 -0.0304  0.6582  0.1111
  659SOL    HW111946   1.522   3.715   0.071 -0.2059 -0.6998 -0.6651
  659SOL    HW211947   1.685   3.711   0.063 -0.3316 -3.1656 -2.9255
  660SOL     OW11948   2.939   3.229   2.024 -0.2707 -0.0587 -0.0073
  660SOL    HW111949   3.014   3.196   1.967 -0.6806  1.4066 -1.4212
  660SOL    HW211950   2.947   3.328   2.037 -1.4740 -0.0202  0.5593
  661SOL     OW11951   2.670   9.586   2.274 -0.3325 -0.5915  0.0596
  661SOL    HW111952   2.632   9.650   2.341 -1.6067  1.6784 -2.7578
  661SOL    HW211953   2.710   9.636   2.198  2.4413 -3.1105 -0.2549
  662SOL     OW11954   2.462   6.776   1.255 -0.1301  0.5800  0.4376
  662SOL    HW111955   2.517   6.726   1.323 -0.2917 -0.8717 -0.4724
  662SOL    HW211956   2.440   6.715   1.179  0.3885  2.2935 -1.1323
  663SOL     OW11957   2.024   4.987   2.669  0.8961 -0.8608 -0.4646
  663SOL    HW111958   2.116   4.950   2.662  1.7817  1.0192  0.9782
  663SOL    HW211959   1.991   4.978   2.763 -0.5093 -1.7570 -1.0237
  664SOL     OW11960   1.741   4.611   2.091 -0.2121 -0.0745 -0.5521
  664SOL    HW111961   1.654   4.657   2.073 -1.6411 -1.8577  1.4780
  664SOL    HW211962   1.792   4.660   2.162  0.3351  0.8413 -1.5746
  665SOL     OW11963   0.356   5.273   1.920  0.5526  0.1616 -0.1249
  665SOL    HW111964   0.434   5.321   1.881  1.6155 -1.1714  0.3384
  665SOL    HW211965   0.275   5.333   1.917  1.8168  1.9359  0.3887
  666SOL     OW11966   3.523   1.716   0.733  0.0225 -0.2239  0.2904
  666SOL    HW111967   3.470   1.800   0.720 -0.8187 -0.6865  0.6713
  666SOL    HW211968   3.580   1.725   0.815 -0.1934 -0.0968  0.4261
  667SOL     OW11969   1.187   3.664   2.263  0.0346 -0.2532 -0.0598
  667SOL    HW111970   1.143   3.584   2.305  0.5861 -0.6619 -0.2574
  667SOL    HW211971   1.263   3.634   2.206  0.6784  0.4669  0.4141
  668SOL     OW11972   9.840   3.568   1.269  0.8863  0.2981  0.2874
  668SOL    HW111973   9.792   3.644   1.224 -0.0801 -0.2526  0.3598
  668SOL    HW211974   9.813   3.565   1.365  1.7866  0.5408  0.5516
  669SOL     OW11975   1.856   3.320   0.942  0.5585 -0.3477 -0.1313
  669SOL    HW111976   1.864   3.319   1.041  2.4593 -0.9208 -0.2832
  669SOL    HW211977   1.800   3.398   0.914  2.4750  1.5731  1.2436
  670SOL     OW11978   2.019   8.759   1.071 -0.0897  0.6523  0.5026
  670SOL    HW111979   1.992   8.729   0.980  0.9365 -0.8669  0.6727
  670SOL    HW211980   1.972   8.703   1.140 -2.2649  2.9968  0.9699
  671SOL     OW11981   1.959   0.955   2.011 -0.0153  0.4312 -0.0008
  671SOL    HW111982   1.896   0.978   2.085  0.4691 -0.8043  0.7947
  671SOL    HW211983   1.969   1.034   1.950 -1.4223  1.0194  0.5177
  672SOL     OW11984   2.416   0.181   2.196 -0.2487  0.2756 -0.2720
  672SOL    HW111985   2.504   0.167   2.151  0.9081  0.7125  1.7565
  672SOL    HW211986   2.410   0.122   2.277 -2.3349 -0.6179 -1.0475
  673SOL     OW11987   0.298   4.313   1.411 -0.3811  0.7933  0.2593
  673SOL    HW111988   0.371   4.353   1.467  1.7098 -0.6963 -1.2845
  673SOL    HW211989   0.266   4.380   1.344  2.4582  0.3132 -1.7168
  674SOL     OW11990   2.361   4.857   0.813  0.4067 -0.0479 -0.1410
  674SOL    HW111991   2.262   4.843   0.819  0.2143  1.3339 -0.0871
  674SOL    HW211992   2.403   4.775   0.775 -0.9435 -0.0409 -1.7146
  675SOL     OW11993   4.967   3.220   2.200  0.1117  0.2897  0.1778
  675SOL    HW111994   4.898   3.195   2.133  0.9321  1.2957 -1.0593
  675SOL    HW211995   5.053   3.241   2.153  0.9043  0.3084  1.5976
  676SOL     OW11996   9.052   5.420   2.265  0.1166  0.2309 -0.6650
  676SOL    HW111997   9.125   5.394   2.328  1.7173 -0.5520 -2.7995
  676SOL    HW211998   8.967   5.431   2.316  0.8004 -2.9373  1.2873
  677SOL     OW11999   2.961   9.495   0.926 -0.0568 -0.0063 -0.3765
  677SOL    HW112000   2.941   9.403   0.893 -0.0477  0.0720 -0.6035
  677SOL    HW212001   2.898   9.560   0.883  1.8275  0.4811 -2.4537
  678SOL     OW12002   3.411   4.622   2.153 -0.2223 -0.4424  0.3855
  678SOL    HW112003   3.340   4.638   2.221 -0.7822 -1.0896 -0.0484
  678SOL    HW212004   3.388   4.541   2.098  0.8913 -0.7240  0.3133
  679SOL     OW12005   3.158   9.270   0.563 -0.1630  0.3993  0.5128
  679SOL    HW112006   3.208   9.240   0.482  1.4632  1.7811  0.9707
  679SOL    HW212007   3.131   9.191   0.616 -1.0618 -0.5193 -1.2633
  680SOL     OW12008   2.987   2.390   0.827  0.3488  0.4639  0.5549
  680SOL    HW112009   2.945   2.301   0.809 -1.6564  1.1135  1.8562
  680SOL    HW212010   2.978   2.448   0.746 -2.1884  0.9165  1.1228
  681SOL     OW12011   2.742   5.597   1.227 -0.4828  0.1046 -0.1300
  681SOL    HW112012   2.761   5.615   1.323 -1.6077 -2.6199  0.6574
  681SOL    HW212013   2.813   5.537   1.189 -1.9624 -1.7814  0.0275
  682SOL     OW12014   9.896   5.178   1.032 -0.1018  0.9181  0.4499
  682SOL    HW112015   9.927   5.227   0.950  0.4984  0.0414  0.1517
  682SOL    HW212016   9.893   5.080   1.013 -4.4275  1.0100 -0.0514
  683SOL     OW12017   2.075   6.926   2.698  0.1142  0.4776 -0.4672
  683SOL    HW112018   2.174   6.914   2.690 -0.2278 -1.4057 -2.0554
  683SOL    HW212019   2.040   6.868   2.771 -0.0269  0.0057 -0.9092
  684SOL     OW12020   1.894   3.687   1.062  0.4189  0.1647  0.3020
  684SOL    HW112021   1.907   3.658   1.157 -0.8510 -1.5146 -0.0151
  684SOL    HW212022   1.983   3.689   1.016  0.9167 -0.0053  1.2365
  685SOL     OW12023   0.464   4.687   1.618  0.0173 -0.1677 -0.4466
  685SOL    HW112024   0.411   4.750   1.675 -0.5115 -1.3843  0.4170
  685SOL    HW212025   0.557   4.681   1.654 -0.2979 -0.8859  0.2641
  686SOL     OW12026   2.216   2.465   1.988  0.0033 -0.2816 -0.5168
  686SOL    HW112027   2.235   2.382   1.937  0.8312 -0.2245 -0.2967
  686SOL    HW212028   2.178   2.534   1.926  1.5099 -0.0306 -1.1671
  687SOL     OW12029   0.546   5.398   1.793  0.1047  0.4773 -0.0299
  687SOL    HW112030   0.612   5.472   1.778  0.9717 -0.1904  0.4561
  687SOL    HW212031   0.541   5.341   1.712  0.2289  0.4562 -0.0239
  688SOL     OW12032   4.339   0.920   2.154 -0.2216 -1.1612 -0.2681
  688SOL    HW112033   4.400   0.913   2.233  2.4475  1.1436 -1.9924
  688SOL    HW212034   4.302   1.013   2.149 -1.2936 -1.6204 -1.1074
  689SOL     OW12035   3.762   0.661   2.174  0.5288 -0.4780 -0.3277
  689SOL    HW112036   3.822   0.584   2.152  0.2578 -0.4319 -1.2325
  689SOL    HW212037   3.716   0.642   2.261 -2.3154 -3.0485 -2.2738
  690SOL     OW12038   2.329   9.240   1.571 -0.4851 -0.0588  0.0559
  690SOL    HW112039   2.299   9.146   1.553 -1.3909  0.2849 -0.2835
  690SOL    HW212040   2.253   9.292   1.609  0.0027  0.5472  0.1948
  691SOL     OW12041   1.685   7.091   1.917  0.1789  0.3969  0.3756
  691SOL    HW112042   1.715   7.047   1.832  2.4729  0.2951  1.2083
  691SOL    HW212043   1.764   7.111   1.974 -1.4399 -0.6508  3.0590
  692SOL     OW12044   1.607   3.616   0.378  0.1287 -0.4540  0.1890
  692SOL    HW112045   1.605   3.638   0.281 -0.5314  1.9385  0.7052
  692SOL    HW212046   1.513   3.617   0.415  0.6244  1.7389  1.4677
  693SOL     OW12047   3.209   2.365   1.441  0.0713  0.1789  0.8150
  693SOL    HW112048   3.305   2.368   1.413  0.2052 -1.3690  1.0123
  693SOL    HW212049   3.162   2.291   1.392 -0.6417 -0.0317  1.7829
  694SOL     OW12050   3.942   8.810   2.756 -0.1177  0.1172  0.0352
  694SOL    HW112051   3.863   8.765   2.797 -1.4470  2.6241  0.3016
  694SOL    HW212052   3.962   8.768   2.668 -1.8135 -0.4759 -0.0837
  695SOL     OW12053   0.046   4.941   0.867 -0.1264  0.1435 -0.4102
  695SOL    HW112054   0.096   4.974   0.946  2.6628 -0.0019 -2.0343
  695SOL    HW212055   0.089   4.975   0.783 -1.4774 -1.7138 -1.9293
  696SOL     OW12056   2.661   7.660   1.795  0.1641 -0.6131  0.1851
  696SOL    HW112057   2.684   7.721   1.719 -1.1883  0.9362  0.9946
  696SOL    HW212058   2.741   7.647   1.853  1.1557 -1.6447 -1.3712
  697SOL     OW12059   1.042   6.497   0.933  0.2042  0.2214 -0.4699
  697SOL    HW112060   1.076   6.429   0.999 -1.9089  1.4034  1.9411
  697SOL    HW212061   1.112   6.514   0.863  1.2233 -3.5525 -0.4759
  698SOL     OW12062   0.566   5.693   2.626 -0.1203 -0.1572 -0.7384
  698SOL    HW112063   0.658   5.692   2.587  0.9136 -1.3521  1.6451
  698SOL    HW212064   0.540   5.788   2.645  0.4620  0.2137 -1.7223
  699SOL     OW12065   3.082   2.120   2.811 -0.2777  0.0175 -0.3367
  699SOL    HW112066   3.036   2.079   2.889  0.0522  2.6685  1.2755
  699SOL    HW212067   3.017   2.129   2.735 -0.8794 -1.5059 -0.0334
  700SOL     OW12068   2.517   0.768   2.484 -0.5857  0.0032 -0.4216
  700SOL    HW112069   2.496   0.726   2.396 -0.0497 -0.6688 -0.2363
  700SOL    HW212070   2.555   0.699   2.546  1.1223  0.9269 -0.3939
  701SOL     OW12071   2.727   8.791   1.831  0.3952  0.2047 -0.3897
  701SOL    HW112072   2.767   8.749   1.913  1.1879 -0.5205 -1.1493
  701SOL    HW212073   2.762   8.746   1.749 -0.5370  0.8131 -1.1322
  702SOL     OW12074   9.906   4.917   0.335  0.5908  0.2565 -0.0874
  702SOL    HW112075   9.848   4.939   0.414  2.2665  2.4797  0.5895
  702SOL    HW212076   9.850   4.914   0.252 -1.2096 -2.2095  1.1618
  703SOL     OW12077   3.767   7.558   0.710 -0.2080  0.2703  0.0628
  703SOL    HW112078   3.757   7.652   0.743 -1.2822  0.5665 -1.0782
  703SOL    HW212079   3.685   7.506   0.733 -1.3906  0.7231 -2.8567
  704SOL     OW12080   1.199   7.156   0.560 -0.5440 -0.2546 -0.5827
  704SOL    HW112081   1.202   7.125   0.464  1.6294  0.1927 -0.6912
  704SOL    HW212082   1.221   7.253   0.564  0.2548 -0.4718  0.4456
  705SOL     OW12083   1.425   4.279   2.098  0.1444 -0.4064 -0.3430
  705SOL    HW112084   1.516   4.297   2.059  0.5298  0.5188  0.9307
  705SOL    HW212085   1.419   4.323   2.188 -2.5075  1.9058 -1.5892
  706SOL     OW12086   0.768   4.496   0.976 -0.6727  0.3146  0.3948
  706SOL    HW112087   0.755   4.583   1.023  0.1260 -0.1066  1.4159
  706SOL    HW212088   0.847   4.448   1.016 -0.5571 -0.4691 -0.7521
  707SOL     OW12089   1.578   2.603   1.138  0.2186  0.2161  0.3962
  707SOL    HW112090   1.669   2.621   1.100  0.2482 -1.0014 -0.1414
  707SOL    HW212091   1.529   2.689   1.148  0.8679  0.7375 -0.7523
  708SOL     OW12092   3.940   9.077   2.760  0.0522  0.1928  0.6297
  708SOL    HW112093   3.979   8.985   2.757 -0.6647 -0.1091  0.5573
  708SOL    HW212094   3.861   9.082   2.700  0.9188  1.2562 -0.4645
  709SOL     OW12095   0.585   2.655   2.253  0.4201 -0.3577  0.0640
  709SOL    HW112096   0.502   2.639   2.306 -0.2505 -1.5334 -1.2921
  709SOL    HW212097   0.602   2.576   2.194  1.3521  0.7569 -1.1943
  710SOL     OW12098   2.304   4.798   2.004  0.2106 -0.0919 -0.4417
  710SOL    HW112099   2.355   4.793   1.918 -1.3390 -2.7824 -1.2572
  710SOL    HW212100   2.207   4.811   1.984  0.1800  2.1497  1.0204
  711SOL     OW12101   3.751   0.109   2.236  0.3995 -0.2007  0.2951
  711SOL    HW112102   3.709   0.174   2.299 -0.7937 -0.9688  0.3081
  711SOL    HW212103   3.850   0.106   2.251  0.4474  1.5350  0.3497
  712SOL     OW12104   3.320   3.766   2.693  0.3587  0.0866  0.0678
  712SOL    HW112105   3.379   3.687   2.671 -0.3987 -0.4396 -0.0944
  712SOL    HW212106   3.274   3.749   2.780 -1.0291 -0.3641 -0.7426
  713SOL     OW12107   9.226   4.777   1.505  0.3301 -0.2779 -0.3325
  713SOL    HW112108   9.182   4.687   1.514  0.1488 -0.2688 -1.1384
  713SOL    HW212109   9.254   4.791   1.411 -1.7092  1.4746 -0.7127
  714SOL     OW12110   1.848   4.453   1.010 -0.7581 -0.3160 -0.1141
  714SOL    HW112111   1.802   4.529   0.964  3.6793  3.9261  1.9467
  714SOL    HW212112   1.819   4.450   1.106 -0.1243 -0.5200  0.0745
  715SOL     OW12113   3.778   8.770   0.549  0.1003  0.6886 -0.1482
  715SOL    HW112114   3.862   8.763   0.604 -0.7120  1.3473  1.2179
  715SOL    HW212115   3.699   8.754   0.608 -0.6811 -1.9534 -1.8293
  716SOL     OW12116   1.519   4.015   1.442  0.3102  0.4729 -1.2193
  716SOL    HW112117   1.487   4.080   1.512  0.3140 -0.5260 -0.2817
  716SOL    HW212118   1.473   3.927   1.455  0.1471  0.3507 -2.6203
  717SOL     OW12119   0.930   4.288   0.677  0.1657  0.1377 -0.2995
  717SOL    HW112120   0.969   4.366   0.726 -0.2909  0.3016 -0.1863
  717SOL    HW212121   0.859   4.246   0.734  0.2836 -0.2483 -0.4374
  718SOL     OW12122   1.805   7.371   1.859  0.8749 -0.5158 -0.0887
  718SOL    HW112123   1.903   7.357   1.872  0.9623 -1.0907 -1.3443
  718SOL    HW212124   1.784   7.379   1.762 -0.4238 -1.1463  0.1205
  719SOL     OW12125   1.853   6.437   1.945 -0.1418  0.1965  0.7741
  719SOL    HW112126   1.811   6.350   1.918  1.7116 -1.5161  3.2165
  719SOL    HW212127   1.784   6.494   1.990 -1.7180  0.5964 -2.0507
  720SOL     OW12128   2.620   0.783   1.879  0.0228 -0.0446  0.2300
  720SOL    HW112129   2.668   0.780   1.791  0.3838 -2.8002  0.5031
  720SOL    HW212130   2.687   0.780   1.953 -0.4940 -3.4115  0.6115
  721SOL     OW12131   1.288   2.817   2.521 -0.3831 -0.0412 -0.2848
  721SOL    HW112132   1.267   2.877   2.443 -1.5372 -0.6831 -0.4926
  721SOL    HW212133   1.344   2.741   2.489  2.8297  1.9757  0.3790
  722SOL     OW12134   2.896   3.445   1.761 -0.0998  0.0112  0.0179
  722SOL    HW112135   2.878   3.346   1.766  1.4254 -0.3414 -0.8421
  722SOL    HW212136   2.951   3.472   1.840  0.1865 -0.0056 -0.1724
  723SOL     OW12137   0.591   2.493   0.554 -0.4413  0.4337  0.5567
  723SOL    HW112138   0.509   2.536   0.517 -1.4009 -1.1710  0.8041
  723SOL    HW212139   0.625   2.546   0.632 -1.1417  1.1752  0.3581
  724SOL     OW12140   2.598   6.218   0.894 -0.3525 -0.0215 -0.4703
  724SOL    HW112141   2.666   6.219   0.968 -1.2365 -0.1397  0.3445
  724SOL    HW212142   2.579   6.123   0.868  0.1029  0.0264 -0.9898
  725SOL     OW12143   2.616   8.595   1.537 -0.4719  0.1325 -0.0271
  725SOL    HW112144   2.594   8.536   1.614  0.2974  1.0635  0.9296
  725SOL    HW212145   2.533   8.614   1.485 -0.5578 -2.4924 -0.8691
  726SOL     OW12146   4.371   0.675   1.353  1.2117 -0.0327  0.3367
  726SOL    HW112147   4.447   0.643   1.296 -1.2528 -2.5346 -1.7181
  726SOL    HW212148   4.348   0.604   1.420  0.3986  0.4907  0.6167
  727SOL     OW12149   1.212   2.281   0.239 -0.6682 -0.3080  1.0062
  727SOL    HW112150   1.238   2.206   0.178 -0.9901  0.2017  0.2220
  727SOL    HW212151   1.173   2.355   0.184 -2.7610 -0.6221  2.0509
  728SOL     OW12152   2.419   5.348   2.130  0.0837 -0.2438  0.2823
  728SOL    HW112153   2.435   5.441   2.164 -0.4494 -0.6338  1.6527
  728SOL    HW212154   2.372   5.295   2.201 -1.1063 -1.0786 -1.1026
  729SOL     OW12155   3.951   2.322   0.495  0.0091 -0.2780  0.1617
  729SOL    HW112156   3.945   2.381   0.576  1.3784 -0.1147  0.1457
  729SOL    HW212157   4.047   2.306   0.472 -0.3642 -0.5055 -1.3049
  730SOL     OW12158   1.397   1.847   0.972  0.1294  0.0458 -0.0827
  730SOL    HW112159   1.476   1.857   0.911 -0.1330 -3.4284 -1.0924
  730SOL    HW212160   1.427   1.809   1.059 -0.0970  1.1071  0.4658
  731SOL     OW12161   1.244   4.433   2.596 -0.1600  0.0228  0.2429
  731SOL    HW112162   1.257   4.447   2.694 -0.7174  1.4054  0.1316
  731SOL    HW212163   1.190   4.509   2.558  0.4460 -0.2516 -1.2130
  732SOL     OW12164   0.019   4.576   2.423  0.4889  1.1030  0.6057
  732SOL    HW112165  -0.049   4.601   2.355  0.6875  0.2388  0.0866
  732SOL    HW212166   0.019   4.644   2.497 -0.8961  1.1166  0.5934
  733SOL     OW12167   1.592   0.654   0.444 -0.3597 -0.1095 -0.3465
  733SOL    HW112168   1.535   0.736   0.439 -0.0852  0.0054 -1.5843
  733SOL    HW212169   1.651   0.649   0.364  1.2931 -0.2941  0.8583
  734SOL     OW12170   1.900   5.691   1.683  0.3628 -0.0014  0.4065
  734SOL    HW112171   1.885   5.645   1.771 -3.4664 -0.1967 -0.2355
  734SOL    HW212172   1.923   5.787   1.699 -2.5926  0.5634  1.6950
  735SOL     OW12173   2.619   8.088   1.297 -0.4531  0.5512  0.2659
  735SOL    HW112174   2.693   8.152   1.318 -0.7192  0.6052  1.0653
  735SOL    HW212175   2.652   8.019   1.233 -0.2670  1.6954 -0.8874
  736SOL     OW12176   3.595   3.383   1.064  0.4495  0.1612  0.2060
  736SOL    HW112177   3.504   3.403   1.101  1.3669 -1.2276  3.3891
  736SOL    HW212178   3.613   3.285   1.070  0.8559 -0.1021 -3.6584
  737SOL     OW12179   9.472   3.562   0.196 -0.0233  0.1557  0.3188
  737SOL    HW112180   9.441   3.472   0.228  0.4103 -0.0966  0.0441
  737SOL    HW212181   9.564   3.579   0.231 -0.2006  0.5999  0.5697
  738SOL     OW12182   3.001   1.184   0.089 -0.1344 -0.2255  0.3635
  738SOL    HW112183   2.925   1.242   0.118  0.7538  1.0721  0.1621
  738SOL    HW212184   3.062   1.236   0.028 -0.3667 -1.9870 -1.4238
  739SOL     OW12185   1.668   3.225   0.168 -0.4647  0.1728  0.3440
  739SOL    HW112186   1.666   3.265   0.077 -0.0210  2.3274  1.2426
  739SOL    HW212187   1.610   3.279   0.229 -0.6713 -1.1750  1.3474
  740SOL     OW12188   2.786   7.715   0.329  0.4264 -0.5996  0.4768
  740SOL    HW112189   2.788   7.804   0.375  0.4944 -1.6613  2.6311
  740SOL    HW212190   2.724   7.718   0.251 -2.7792  0.2188  2.9636
  741SOL     OW12191   2.224   0.452   1.183  0.2168 -0.4419 -0.0360
  741SOL    HW112192   2.281   0.521   1.139  0.2263 -0.4672 -0.0635
  741SOL    HW212193   2.237   0.364   1.139 -0.6849 -0.2184 -0.7646
  742SOL     OW12194   2.811   3.163   2.686 -0.6108 -0.4635 -0.4478
  742SOL    HW112195   2.777   3.114   2.606 -2.4249  1.7961 -1.1225
  742SOL    HW212196   2.757   3.246   2.700  2.5059  1.5085  0.5110
  743SOL     OW12197   3.749   1.271   2.822  0.1961 -0.3140  0.0760
  743SOL    HW112198   3.653   1.298   2.828 -0.0023 -0.6923 -1.2441
  743SOL    HW212199   3.754   1.171   2.819  0.4675 -0.2482 -2.3280
  744SOL     OW12200   1.824   7.864   2.611  0.4483 -0.5337  0.0984
  744SOL    HW112201   1.847   7.781   2.560  0.9780 -0.2130 -0.1860
  744SOL    HW212202   1.868   7.942   2.568 -2.3784  0.3224 -1.3648
  745SOL     OW12203   2.598   3.915   1.188 -0.4814 -0.0567 -0.4939
  745SOL    HW112204   2.582   3.850   1.262  0.9898 -0.5948 -0.6190
  745SOL    HW212205   2.684   3.892   1.142 -0.2142  1.6594 -0.8858
  746SOL     OW12206   1.886   3.489   0.458  0.2569 -0.1783  0.7157
  746SOL    HW112207   1.943   3.563   0.494 -1.2125  0.7348  1.2092
  746SOL    HW212208   1.790   3.518   0.459 -0.4658 -2.5675  2.0696
  747SOL     OW12209   1.841   6.032   1.459 -0.6742 -0.1352 -0.2338
  747SOL    HW112210   1.757   6.083   1.442 -0.4386  0.2089 -0.3747
  747SOL    HW212211   1.886   6.012   1.372 -0.4772 -0.0961 -0.1396
  748SOL     OW12212   0.484   3.870   1.677  0.0909  0.3036 -0.1787
  748SOL    HW112213   0.455   3.839   1.587  0.2959 -0.1180 -0.1006
  748SOL    HW212214   0.583   3.887   1.677 -0.2031  2.2270 -0.5863
  749SOL     OW12215   2.066   6.048   1.026  0.2255  0.0482  0.2243
  749SOL    HW112216   2.057   6.017   1.121  1.6007 -1.3948 -0.0895
  749SOL    HW212217   2.163   6.062   1.005 -0.2077  2.2630 -0.3911
  750SOL     OW12218   0.787   3.780   0.819 -0.0121  0.6471  0.1208
  750SOL    HW112219   0.737   3.744   0.740 -0.4273 -1.4741  1.3031
  750SOL    HW212220   0.773   3.879   0.825  1.1632  1.0695 -3.2354
  751SOL     OW12221   3.088   9.619   1.568  0.1893  0.0470 -0.2550
  751SOL    HW112222   3.046   9.619   1.477  0.8330  2.0892 -0.5981
  751SOL    HW212223   3.051   9.695   1.621  2.0835  0.7709  0.0677
  752SOL     OW12224   2.196   3.134   2.245 -0.0295 -0.3896 -0.1008
  752SOL    HW112225   2.129   3.059   2.249 -0.4529 -0.0587 -0.7768
  752SOL    HW212226   2.159   3.207   2.188 -0.2654  0.9904  1.7826
  753SOL     OW12227   3.747   4.593   1.589 -0.2315 -0.3246  0.8597
  753SOL    HW112228   3.763   4.497   1.565 -1.0512 -0.4453  0.7782
  753SOL    HW212229   3.759   4.605   1.688 -1.5887 -0.8216  1.0914
  754SOL     OW12230   2.627   4.671   1.602 -0.3293 -0.3765 -0.6191
  754SOL    HW112231   2.721   4.637   1.604 -0.0169  0.5185  0.1988
  754SOL    HW212232   2.600   4.691   1.508  0.5860  0.1690 -0.7724
  755SOL     OW12233   3.854   3.575   1.250  0.6754  0.1534 -0.4284
  755SOL    HW112234   3.766   3.527   1.250  0.9823 -0.5502  3.7980
  755SOL    HW212235   3.928   3.508   1.244  1.0135  0.5450 -0.6668
  756SOL     OW12236   2.845   8.079   2.685 -0.1351  0.0567  0.1219
  756SOL    HW112237   2.756   8.124   2.690 -0.9392 -1.3727 -0.7862
  756SOL    HW212238   2.852   8.030   2.598  2.0936  1.2657 -0.4228
  757SOL     OW12239   4.294   1.864   0.723 -0.6058 -0.1418 -0.0628
  757SOL    HW112240   4.385   1.878   0.683 -0.2387  0.6092  1.0281
  757SOL    HW212241   4.226   1.868   0.650  0.1631  0.0525 -0.7884
  758SOL     OW12242   0.420   5.291   1.347  0.0909  0.4941 -0.1625
  758SOL    HW112243   0.326   5.275   1.316 -0.5888 -0.4011  2.2780
  758SOL    HW212244   0.480   5.219   1.311 -0.6568 -0.4565  0.4842
  759SOL     OW12245   9.243   5.441   1.316  0.0970  0.1711 -0.2256
  759SOL    HW112246   9.303   5.423   1.239 -1.7017  2.2685 -2.1792
  759SOL    HW212247   9.298   5.451   1.399  1.9708 -3.2356 -0.9609
  760SOL     OW12248   1.969   1.376   1.090 -0.1797 -0.2235 -0.5819
  760SOL    HW112249   1.889   1.315   1.094 -1.3571  1.2370 -1.3599
  760SOL    HW212250   1.939   1.468   1.065  1.8598  0.1549 -1.7149
  761SOL     OW12251   2.486   8.186   0.092  0.3796 -0.0388  0.3738
  761SOL    HW112252   2.519   8.168  -0.001  0.2737 -0.8479  0.4862
  761SOL    HW212253   2.536   8.263   0.131  1.6982 -0.8324  0.2921
  762SOL     OW12254   2.461   5.756   0.527  0.2478  0.8236  0.6268
  762SOL    HW112255   2.447   5.705   0.612  0.2149  0.9741  0.7138
  762SOL    HW212256   2.557   5.751   0.501  0.2310  0.6574  0.5957
  763SOL     OW12257   4.081   1.309   1.230 -0.2621 -0.0463 -0.0454
  763SOL    HW112258   3.991   1.341   1.202 -0.6244 -1.5166 -0.6611
  763SOL    HW212259   4.126   1.377   1.287 -1.0053  1.4962 -1.2777
  764SOL     OW12260   2.378   0.180   1.143  0.1003  0.2975  0.8089
  764SOL    HW112261   2.478   0.181   1.134  0.1299  1.9635  1.1819
  764SOL    HW212262   2.353   0.203   1.237 -0.6532  1.2363  0.3933
  765SOL     OW12263   3.747   8.572   1.550  0.3603 -0.4923  0.1715
  765SOL    HW112264   3.827   8.609   1.503 -1.3840  0.0713 -2.4440
  765SOL    HW212265   3.675   8.641   1.552 -0.7675 -1.6690  0.7680
  766SOL     OW12266   0.032   4.576   1.525  1.7370  0.5292  0.7023
  766SOL    HW112267   0.060   4.532   1.439  0.1119  0.2766  0.2776
  766SOL    HW212268  -0.062   4.608   1.516  2.2566  2.3663  1.6935
  767SOL     OW12269   3.833   2.847   2.784  0.4236 -0.3387 -0.5036
  767SOL    HW112270   3.851   2.752   2.758  1.6855 -1.7565  4.9088
  767SOL    HW212271   3.735   2.865   2.782  0.1957 -1.7026 -1.7791
  768SOL     OW12272   4.287   1.019   1.273  0.3418  0.1642 -0.3486
  768SOL    HW112273   4.210   1.027   1.336  1.2127 -2.6714  1.1118
  768SOL    HW212274   4.339   1.105   1.274  0.0632  0.3222  2.3876
  769SOL     OW12275   2.164   1.658   1.455  0.5786  0.1551  0.0497
  769SOL    HW112276   2.226   1.727   1.492 -0.1311  0.2814  1.0350
  769SOL    HW212277   2.186   1.640   1.359  2.5642 -0.3043  0.5827
  770SOL     OW12278   1.441   2.601   1.505  0.1602 -0.8550  0.1715
  770SOL    HW112279   1.522   2.617   1.449  0.2368 -0.9281  0.2607
  770SOL    HW212280   1.367   2.565   1.448  0.1615 -0.7043  0.0732
  771SOL     OW12281   2.224   3.806   2.323  0.4161 -0.1688  0.3237
  771SOL    HW112282   2.183   3.833   2.410  1.8139 -0.1600  0.9900
  771SOL    HW212283   2.323   3.805   2.331  0.5943  0.5302 -1.4842
  772SOL     OW12284   1.951   1.479   1.714 -0.2762  0.0611 -0.2514
  772SOL    HW112285   1.961   1.435   1.625 -1.4858  0.8788 -0.8149
  772SOL    HW212286   1.977   1.415   1.786  2.1720 -0.0962 -1.2561
  773SOL     OW12287   1.389   1.872   0.038  0.1323  0.1609  0.0562
  773SOL    HW112288   1.388   1.818   0.122 -2.2418  2.0114  1.2689
  773SOL    HW212289   1.474   1.925   0.034  1.1495 -1.3944  0.2706
  774SOL     OW12290   4.383   1.779   2.494  0.3978  0.5463  0.5494
  774SOL    HW112291   4.478   1.809   2.488  0.7107 -0.6645 -0.9172
  774SOL    HW212292   4.347   1.767   2.401 -0.2128 -2.0137  1.1049
  775SOL     OW12293   2.997   1.671   1.228 -0.7570 -0.5774 -0.0425
  775SOL    HW112294   3.070   1.636   1.288 -0.2228 -0.9327 -0.8838
  775SOL    HW212295   2.998   1.771   1.230  1.1166 -0.5202 -1.6150
  776SOL     OW12296   2.230   3.336   2.550  0.7917  0.0262  0.0828
  776SOL    HW112297   2.134   3.310   2.560  1.1966 -1.1165  1.1176
  776SOL    HW212298   2.252   3.346   2.453 -0.2278 -0.2637 -0.1865
  777SOL     OW12299   2.216   1.305   1.544 -0.2058  0.2267  0.4240
  777SOL    HW112300   2.255   1.213   1.548  0.2015  0.3621 -0.3931
  777SOL    HW212301   2.253   1.360   1.619  3.7566  1.3434 -2.2051
  778SOL     OW12302   1.738   5.738   0.534  0.0196  0.8915 -0.0118
  778SOL    HW112303   1.830   5.700   0.527  0.0468  0.8551  0.5318
  778SOL    HW212304   1.675   5.686   0.476  0.0547  0.0209  0.7276
  779SOL     OW12305   3.174   5.727   2.750 -0.0299 -0.3260  0.5144
  779SOL    HW112306   3.208   5.783   2.674  0.0598 -1.4518 -0.2884
  779SOL    HW212307   3.152   5.635   2.716  0.2893 -0.9269  1.9111
  780SOL     OW12308   2.462   4.855   1.771  0.2971 -0.5118 -0.4750
  780SOL    HW112309   2.522   4.786   1.730 -0.1948 -0.7223 -0.8445
  780SOL    HW212310   2.515   4.910   1.836  0.6056 -1.4958  0.1208
  781SOL     OW12311   2.096   7.474   1.156  0.1605  0.1994 -0.0544
  781SOL    HW112312   2.065   7.553   1.209 -0.5906  0.2783 -0.6102
  781SOL    HW212313   2.183   7.495   1.111 -0.3406  0.9111 -0.6859
  782SOL     OW12314   4.296   2.569   1.259 -0.0110  0.5636  0.4485
  782SOL    HW112315   4.250   2.656   1.275 -0.9397 -0.2772  2.3800
  782SOL    HW212316   4.394   2.580   1.276 -0.1817  1.1117  1.0834
  783SOL     OW12317   4.504   0.747   0.280  0.4648  0.7170 -0.1535
  783SOL    HW112318   4.549   0.819   0.227  0.2226  1.9124  1.2255
  783SOL    HW212319   4.494   0.777   0.375 -2.3352  0.0935 -0.1893
  784SOL     OW12320   3.322   1.686   0.217  0.0088  0.5877  0.4609
  784SOL    HW112321   3.324   1.710   0.120  0.6490 -0.3242  0.2396
  784SOL    HW212322   3.415   1.691   0.254 -0.4801  2.6714  1.4753
  785SOL     OW12323   1.299   6.065   2.094 -0.0139 -0.0698 -0.3967
  785SOL    HW112324   1.288   6.136   2.024  3.1249 -1.1218 -2.0498
  785SOL    HW212325   1.370   6.092   2.158  0.8516 -1.4734 -0.7485
  786SOL     OW12326   9.577   5.261   2.569 -0.0684 -0.0402  0.4612
  786SOL    HW112327   9.531   5.219   2.648 -3.0934  0.9136 -0.6974
  786SOL    HW212328   9.514   5.263   2.492  1.3985  2.8321 -0.7471
  787SOL     OW12329   1.065   3.285   1.067 -0.1065  0.1697 -0.4758
  787SOL    HW112330   1.027   3.344   0.996  0.9623 -0.4774 -1.6017
  787SOL    HW212331   0.993   3.227   1.105 -0.6624  0.4620 -1.0781
  788SOL     OW12332   2.563   9.889   1.265  0.0401  0.5663 -0.1274
  788SOL    HW112333   2.495   9.849   1.204  1.6904 -0.6138 -1.2273
  788SOL    HW212334   2.619   9.954   1.214  2.7618 -1.9429 -0.4409
  789SOL     OW12335   0.727   6.529   0.600 -0.6480 -0.3774  0.0878
  789SOL    HW112336   0.762   6.619   0.575 -2.5955  0.1207 -1.0052
  789SOL    HW212337   0.704   6.527   0.697 -2.5377  0.9989 -0.3082
  790SOL     OW12338   1.783   3.731   0.740 -0.1019  0.0103  0.1709
  790SOL    HW112339   1.749   3.642   0.770  0.0745  0.4158  1.5952
  790SOL    HW212340   1.760   3.800   0.807  0.4959  0.9022 -0.5323
  791SOL     OW12341   2.451   0.853   0.701 -0.4566 -0.2109  0.1674
  791SOL    HW112342   2.486   0.900   0.620 -0.1613 -0.9605 -0.1487
  791SOL    HW212343   2.457   0.913   0.781  1.3310 -0.2543  0.0736
  792SOL     OW12344   2.612   6.620   0.546 -0.4375  0.0336 -0.7266
  792SOL    HW112345   2.651   6.672   0.469 -0.3876 -0.4899 -1.0590
  792SOL    HW212346   2.595   6.682   0.623  1.5878  0.1952 -0.3697
  793SOL     OW12347   2.918   2.139   0.751 -0.2344 -0.1696  0.2194
  793SOL    HW112348   2.902   2.083   0.833  0.7267 -1.6322 -0.5617
  793SOL    HW212349   2.885   2.089   0.670 -1.7068  1.5051 -0.2366
  794SOL     OW12350   9.334   4.802   2.159  0.5926 -0.0242  0.0629
  794SOL    HW112351   9.235   4.789   2.152  0.1056  2.7276  1.2056
  794SOL    HW212352   9.380   4.738   2.098 -1.9252 -0.8773 -1.0229
  795SOL     OW12353   4.712   2.497   0.892 -0.5023 -0.5720  0.2143
  795SOL    HW112354   4.690   2.399   0.887  0.1734 -0.6608 -1.6365
  795SOL    HW212355   4.643   2.544   0.946 -1.9242 -1.7788 -0.5025
  796SOL     OW12356   3.847   3.061   1.235 -0.1791 -0.0046  0.1059
  796SOL    HW112357   3.786   3.139   1.251  0.5150  0.7873 -1.0931
  796SOL    HW212358   3.934   3.077   1.281  0.0464  0.0212 -0.3387
  797SOL     OW12359   4.374   2.623   2.441  0.7720 -0.2441  0.3892
  797SOL    HW112360   4.309   2.564   2.393  2.4681 -1.7022 -0.1439
  797SOL    HW212361   4.388   2.590   2.534 -0.1279  0.7628  0.8959
  798SOL     OW12362   1.408   5.296   2.809 -0.5992  0.4724 -0.1729
  798SOL    HW112363   1.409   5.396   2.811 -1.0882  0.4724 -0.0212
  798SOL    HW212364   1.490   5.264   2.761 -0.8845  0.9710 -1.0165
  799SOL     OW12365   1.927   7.122   2.404 -0.0947 -0.5061 -0.1038
  799SOL    HW112366   2.010   7.170   2.429 -1.0119  0.3911  1.2717
  799SOL    HW212367   1.934   7.026   2.432 -0.2885  0.0163  1.7933
  800SOL     OW12368   0.759   3.908   1.381  0.1567  0.1104 -0.3213
  800SOL    HW112369   0.700   3.881   1.457  1.6854 -1.1876  0.4237
  800SOL    HW212370   0.835   3.962   1.415  0.6950 -0.2310 -0.9730
  801SOL     OW12371   9.508   5.747   2.564  0.4526  0.1091  0.2462
  801SOL    HW112372   9.602   5.768   2.536  0.4068  0.9022  0.6655
  801SOL    HW212373   9.448   5.749   2.485  0.8707 -0.9263 -0.1121
  802SOL     OW12374   2.424   8.110   1.042  0.4930  0.0288 -0.8628
  802SOL    HW112375   2.473   8.070   1.119 -0.0316 -2.7608 -1.9320
  802SOL    HW212376   2.331   8.133   1.069  0.6335  0.0138 -0.3736
  803SOL     OW12377   3.751   9.091   2.564  0.3569 -0.2321 -0.3540
  803SOL    HW112378   3.682   9.137   2.620  1.8666  0.3019  1.0922
  803SOL    HW212379   3.705   9.038   2.492 -1.6129 -0.7999  1.2714
  804SOL     OW12380   1.005   4.021   2.407  0.3417  0.4189 -0.3776
  804SOL    HW112381   1.056   4.105   2.390 -0.6492  1.3738  1.2629
  804SOL    HW212382   1.053   3.966   2.475 -0.2005  0.7397  0.2605
  805SOL     OW12383   2.324   5.373   1.381 -0.2849 -0.0792  0.1319
  805SOL    HW112384   2.299   5.311   1.307 -1.7041 -0.2673  0.7511
  805SOL    HW212385   2.257   5.365   1.455 -0.1609  1.7709  0.4612
  806SOL     OW12386   0.899   4.938   1.470  0.3117  0.7871  0.1775
  806SOL    HW112387   0.984   4.928   1.522  0.8182 -1.5114 -1.0255
  806SOL    HW212388   0.912   5.008   1.399  0.7912  1.3385  0.8028
  807SOL     OW12389   3.126   5.224   1.757  0.3124  0.1388  0.1562
  807SOL    HW112390   3.160   5.134   1.730 -1.2601 -1.4703  3.2088
  807SOL    HW212391   3.032   5.235   1.725  0.1542  0.2764  0.6654
  808SOL     OW12392   2.437   9.437   2.226  0.0432  0.3631  0.1679
  808SOL    HW112393   2.392   9.473   2.144 -0.6575 -2.2035 -0.6095
  808SOL    HW212394   2.513   9.497   2.251 -1.3720  2.6257 -0.7927
  809SOL     OW12395   8.905   3.770   1.415  0.5580 -0.4864 -0.0923
  809SOL    HW112396   8.849   3.853   1.416 -0.7800 -1.3708  0.3306
  809SOL    HW212397   8.991   3.788   1.368  0.3444  1.1760  0.1230
  810SOL     OW12398   0.895   3.092   0.746  0.0277  0.8237 -0.4400
  810SOL    HW112399   0.858   3.176   0.785 -0.4319  0.2593  0.3363
  810SOL    HW212400   0.975   3.114   0.689  0.3912  1.6926  0.4018
  811SOL     OW12401   3.619   9.833   2.208  0.3188  0.1323  0.3863
  811SOL    HW112402   3.701   9.777   2.193  0.5980  1.0355 -1.6930
  811SOL    HW212403   3.639   9.905   2.274  1.8230  1.5579 -1.5737
  812SOL     OW12404   9.958   5.338   1.799  0.1546  0.0683 -0.5215
  812SOL    HW112405   9.938   5.375   1.890 -0.0925 -0.9164 -0.1669
  812SOL    HW212406  10.050   5.365   1.771  1.0774 -1.4471  0.9634
  813SOL     OW12407   2.777   5.443   0.218 -0.1749  0.4570 -0.5856
  813SOL    HW112408   2.724   5.367   0.182  0.7673  0.5119 -2.1186
  813SOL    HW212409   2.765   5.523   0.160 -0.2696  1.1629  0.3860
  814SOL     OW12410   3.016   5.227   1.023  0.1100 -0.2615  0.1980
  814SOL    HW112411   3.009   5.160   1.097 -2.2693 -0.4315 -0.1590
  814SOL    HW212412   2.949   5.207   0.953  0.0719  1.8963 -0.4261
  815SOL     OW12413   4.525   2.569   2.043 -0.4128  0.3096  0.0880
  815SOL    HW112414   4.572   2.592   1.958 -1.2749 -2.1908 -1.1018
  815SOL    HW212415   4.571   2.616   2.119  2.6622 -0.3355 -1.2770
  816SOL     OW12416   2.579   5.550   0.034  0.0235 -0.2164  0.8925
  816SOL    HW112417   2.568   5.504  -0.054 -2.6067  2.6814 -0.3831
  816SOL    HW212418   2.525   5.503   0.103 -0.7364 -0.4165  0.1691
  817SOL     OW12419   4.652   3.141   1.840  0.1112 -0.1353  0.1906
  817SOL    HW112420   4.700   3.070   1.891  0.5452  0.9236  1.2850
  817SOL    HW212421   4.619   3.211   1.903 -1.3317  0.0487 -0.7533
  818SOL     OW12422   4.098   4.009   0.733  0.9737 -0.1918  0.1500
  818SOL    HW112423   4.040   4.051   0.663  0.3015 -0.7261  0.3839
  818SOL    HW212424   4.092   4.061   0.818  0.5311 -0.4638  0.2890
  819SOL     OW12425   9.709   4.123   0.157 -0.0802  0.1735  0.1715
  819SOL    HW112426   9.714   4.078   0.246 -4.6523 -0.5030  0.2425
  819SOL    HW212427   9.698   4.222   0.170  2.6928  0.5165  0.1997
  820SOL     OW12428   4.030   8.112   0.952  0.1471  0.8443 -0.1389
  820SOL    HW112429   4.116   8.063   0.963  1.2876  2.6913 -0.6515
  820SOL    HW212430   4.027   8.155   0.861 -0.5790  2.1702  0.4934
  821SOL     OW12431   2.611   6.602   1.396 -0.0812 -0.2997 -0.2726
  821SOL    HW112432   2.709   6.598   1.379  0.0003  1.7844 -0.4681
  821SOL    HW212433   2.561   6.567   1.316  0.4868 -0.2302 -0.6597
  822SOL     OW12434   2.122   0.647   0.756  0.3704  0.5727 -0.4572
  822SOL    HW112435   2.081   0.556   0.751 -0.6087  1.0712 -1.9383
  822SOL    HW212436   2.219   0.639   0.778  0.0087 -0.7513  0.7351
  823SOL     OW12437   2.788   5.026   1.346  0.1244  0.8643 -0.1381
  823SOL    HW112438   2.780   5.107   1.288  0.0265  0.3985 -0.7754
  823SOL    HW212439   2.701   5.009   1.393 -0.3790  0.1609 -1.2953
  824SOL     OW12440   1.284   3.547   1.618  0.1137 -0.7969 -0.2344
  824SOL    HW112441   1.272   3.506   1.708 -1.4863 -0.8110 -0.4462
  824SOL    HW212442   1.195   3.576   1.582  1.1584  3.1519  0.0598
  825SOL     OW12443   4.405   3.152   0.255  0.2115 -0.2590  0.2698
  825SOL    HW112444   4.308   3.172   0.246  0.5997  1.2668 -0.6229
  825SOL    HW212445   4.444   3.134   0.165  1.0158  0.3549  0.4887
  826SOL     OW12446   2.368   4.002   0.763  0.2179 -0.0219  0.4222
  826SOL    HW112447   2.284   3.995   0.817 -0.2008  3.0373  0.2469
  826SOL    HW212448   2.362   3.939   0.685 -0.7977 -1.6862  1.7980
  827SOL     OW12449   0.100   3.442   1.237 -0.0521  0.6104 -0.2620
  827SOL    HW112450   0.038   3.492   1.177 -1.7697 -0.3700  0.6665
  827SOL    HW212451   0.048   3.387   1.301  1.7852  0.0719  0.8200
  828SOL     OW12452   2.009   2.822   1.999 -0.0395 -0.8326 -0.0491
  828SOL    HW112453   2.027   2.796   1.904  1.7341  0.4829 -0.0879
  828SOL    HW212454   2.017   2.741   2.057  1.3673 -1.1759 -0.6952
  829SOL     OW12455   0.163   3.649   0.262  0.1284 -0.7665  0.1938
  829SOL    HW112456   0.210   3.676   0.177 -0.6646 -1.5379 -0.5041
  829SOL    HW212457   0.202   3.699   0.339 -0.6231  1.6441 -0.9120
  830SOL     OW12458   2.235   4.433   2.594 -0.3288  0.2474 -0.8631
  830SOL    HW112459   2.307   4.501   2.577  1.6209 -1.7234 -0.6676
  830SOL    HW212460   2.250   4.391   2.684 -0.7022 -1.4205 -1.5653
  831SOL     OW12461   2.653   1.322   1.962 -0.2229  0.4987 -0.0057
  831SOL    HW112462   2.617   1.402   1.914  0.3912  2.5916  2.8357
  831SOL    HW212463   2.580   1.254   1.972 -1.1790  1.3306 -1.1917
  832SOL     OW12464   4.760   1.918   1.942 -0.4135  0.0273  0.4425
  832SOL    HW112465   4.809   2.001   1.919 -2.7474  1.2269 -0.3484
  832SOL    HW212466   4.754   1.909   2.042  0.6513  0.3202  0.5323
  833SOL     OW12467   1.895   6.294   0.007  0.0740 -0.2530  0.8417
  833SOL    HW112468   1.842   6.357  -0.050 -0.6023 -0.2119  1.5011
  833SOL    HW212469   1.866   6.303   0.102  0.0703 -1.4429  0.9635
  834SOL     OW12470   1.225   5.776   1.135  0.0110  0.4077  0.4607
  834SOL    HW112471   1.201   5.711   1.207 -0.1427  0.7178  0.6846
  834SOL    HW212472   1.252   5.725   1.053 -4.6243 -0.0348 -0.9440
  835SOL     OW12473   3.821   0.265   0.537 -0.2822 -0.1603 -0.2127
  835SOL    HW112474   3.783   0.180   0.575 -1.3680  0.9230  1.2226
  835SOL    HW212475   3.919   0.255   0.524  0.1202 -0.7009  2.7318
  836SOL     OW12476   3.199   9.977   1.838 -0.1023  0.1761 -0.8541
  836SOL    HW112477   3.230  10.030   1.759 -0.8838  0.4754 -0.9616
  836SOL    HW212478   3.131  10.030   1.889 -0.7258 -0.6347 -0.8353
  837SOL     OW12479   1.658   4.939   2.251 -0.2421  0.1678 -0.3745
  837SOL    HW112480   1.661   4.877   2.330 -0.3425  0.3701 -0.2127
  837SOL    HW212481   1.752   4.963   2.225 -0.2366  1.5062  0.7885
  838SOL     OW12482   2.723   5.431   0.479 -0.4157 -0.4223 -0.3661
  838SOL    HW112483   2.681   5.349   0.518  2.2787 -1.5982  0.2032
  838SOL    HW212484   2.736   5.418   0.380 -2.5414  0.4738 -0.7795
  839SOL     OW12485   1.993   9.013   0.397  0.2550  0.2303 -0.0849
  839SOL    HW112486   2.035   8.954   0.466 -0.4584 -1.0334 -0.7025
  839SOL    HW212487   1.996   9.108   0.428 -0.5661 -0.3720  1.9631
  840SOL     OW12488   3.620   1.835   2.182 -0.0956  0.0771  0.0402
  840SOL    HW112489   3.710   1.870   2.210  0.3127 -1.8113  1.1817
  840SOL    HW212490   3.548   1.889   2.226  0.4659  1.3856 -0.6098
  841SOL     OW12491   4.028   4.895   2.547  0.1180  0.1048  0.0179
  841SOL    HW112492   4.069   4.804   2.545  1.8351  0.8679 -0.0747
  841SOL    HW212493   4.018   4.926   2.641  0.1284  0.0856  0.0254
  842SOL     OW12494   4.256   4.141   0.425  0.4493 -0.0005  0.2077
  842SOL    HW112495   4.336   4.083   0.433  0.9259  0.7793  1.2038
  842SOL    HW212496   4.252   4.205   0.502 -2.0856 -1.2212  1.1590
  843SOL     OW12497   2.671   5.951   1.467  1.0686  0.0072 -0.0172
  843SOL    HW112498   2.748   5.900   1.428  0.7538 -0.4761 -0.0109
  843SOL    HW212499   2.585   5.905   1.442  0.8793 -0.5116  1.5597
  844SOL     OW12500   2.134   2.856   1.225  0.8471  0.6671 -0.1797
  844SOL    HW112501   2.165   2.762   1.209  0.5976  0.4607  0.5157
  844SOL    HW212502   2.212   2.918   1.218  0.9804  0.4300 -0.8203
  845SOL     OW12503   2.519   8.000   0.797  0.2253  0.2736 -0.0263
  845SOL    HW112504   2.604   8.031   0.755  0.8854 -1.0022  0.3251
  845SOL    HW212505   2.496   8.060   0.874  1.1774  0.2220  0.3026
  846SOL     OW12506   2.604   2.888   2.133  0.2892 -0.8014 -0.2277
  846SOL    HW112507   2.557   2.826   2.196 -0.6441  0.4589  0.3289
  846SOL    HW212508   2.541   2.960   2.104  1.4986  0.1601 -0.4898
  847SOL     OW12509   3.849   9.557   2.308 -0.2182  0.2119  0.3194
  847SOL    HW112510   3.791   9.572   2.388 -0.4406 -3.0666  0.8214
  847SOL    HW212511   3.933   9.511   2.335  0.0473 -0.2446 -1.2241
  848SOL     OW12512   2.699   9.215   1.716  0.0377 -0.4098 -0.2766
  848SOL    HW112513   2.771   9.160   1.674 -0.1966 -0.9677  0.0440
  848SOL    HW212514   2.737   9.269   1.790  0.2064 -0.3960 -0.3746
  849SOL     OW12515   3.360   4.661   0.423  0.2779 -0.5230 -0.0434
  849SOL    HW112516   3.339   4.736   0.485  1.8808  0.7664 -1.0239
  849SOL    HW212517   3.340   4.688   0.329 -3.3944 -2.9097 -0.0571
  850SOL     OW12518   0.664   7.010   0.891  0.1801 -0.0698 -0.3564
  850SOL    HW112519   0.718   7.086   0.854 -0.7561  0.3966 -0.7740
  850SOL    HW212520   0.584   7.046   0.939 -0.1196 -0.7861 -0.3135
  851SOL     OW12521   3.277   8.010   0.944  0.4312  0.3643 -0.2919
  851SOL    HW112522   3.351   8.024   1.009  1.3086  1.2199 -1.4769
  851SOL    HW212523   3.214   8.088   0.947  0.9340  0.7998 -1.0824
  852SOL     OW12524   2.711   4.748   0.265  0.3049  0.0237  0.4260
  852SOL    HW112525   2.709   4.657   0.305  0.3130  0.3943  1.2806
  852SOL    HW212526   2.694   4.817   0.336 -3.6441  0.5117 -0.8197
  853SOL     OW12527   2.210   5.372   1.916 -0.8704 -0.0389  0.2165
  853SOL    HW112528   2.264   5.327   1.988  2.1942  3.0183 -0.0493
  853SOL    HW212529   2.122   5.401   1.954 -0.3680 -0.7924  2.0131
  854SOL     OW12530   3.200   1.817   2.520 -0.3276 -0.0757 -0.3404
  854SOL    HW112531   3.210   1.758   2.439 -0.5211 -0.1590 -0.3038
  854SOL    HW212532   3.254   1.900   2.507 -1.1536  0.3644 -0.9868
  855SOL     OW12533   3.841   0.989   0.007  0.7697 -0.2221  0.0445
  855SOL    HW112534   3.880   1.033  -0.073  0.2751 -0.5076 -0.3526
  855SOL    HW212535   3.849   0.890  -0.002  1.1511 -0.2413  0.5684
  856SOL     OW12536   1.223   5.786   2.044  0.3128 -0.2598 -0.0540
  856SOL    HW112537   1.147   5.743   1.995  2.8921 -1.7848 -2.9496
  856SOL    HW212538   1.206   5.884   2.053 -1.4050 -0.3605 -1.8308
  857SOL     OW12539   3.152   2.482   2.602 -0.2949  0.2473  0.2192
  857SOL    HW112540   3.155   2.562   2.662 -1.4957 -0.0863  0.7314
  857SOL    HW212541   3.061   2.442   2.604  0.2953 -1.1406 -0.0273
  858SOL     OW12542   2.295   7.453   1.741 -0.6123 -0.2603 -0.0943
  858SOL    HW112543   2.378   7.399   1.754 -0.3835  0.2825  0.7251
  858SOL    HW212544   2.267   7.447   1.645  2.7437  2.9053 -1.4293
  859SOL     OW12545   2.587   0.356   2.751 -0.2983  0.4185 -0.6423
  859SOL    HW112546   2.497   0.320   2.726 -0.5505  1.5096 -1.3580
  859SOL    HW212547   2.628   0.298   2.821 -1.1507 -0.6272 -0.9922
  860SOL     OW12548   1.383   6.439   2.214  0.3418 -0.4146  0.1078
  860SOL    HW112549   1.421   6.456   2.123  0.6508 -1.1307  0.0978
  860SOL    HW212550   1.330   6.518   2.244 -0.8226 -0.6761 -1.2411
  861SOL     OW12551   0.684   3.122   0.252  0.3427 -0.2004  0.2507
  861SOL    HW112552   0.591   3.158   0.246 -0.2079 -1.7828 -0.8977
  861SOL    HW212553   0.740   3.165   0.181 -0.1955 -1.2669 -0.8188
  862SOL     OW12554   4.129   4.243   1.885 -0.4515  0.1009 -0.9219
  862SOL    HW112555   4.050   4.194   1.923  0.4207  0.9388  2.1257
  862SOL    HW212556   4.209   4.182   1.886  0.3660  1.1408  1.8211
  863SOL     OW12557   4.556   4.233   0.280 -0.4440  0.1546  0.2888
  863SOL    HW112558   4.515   4.153   0.324 -0.7182 -0.3576 -0.8546
  863SOL    HW212559   4.651   4.213   0.255 -0.5586  0.1295 -0.1328
  864SOL     OW12560   1.787   2.765   1.413  0.3913  0.2494 -0.3023
  864SOL    HW112561   1.785   2.666   1.424  0.9672  0.2114 -0.5302
  864SOL    HW212562   1.871   2.802   1.454  0.5766  0.5514 -0.9474
  865SOL     OW12563   1.558   0.704   1.110 -0.4134  0.0542  0.5112
  865SOL    HW112564   1.578   0.706   1.208  0.4631 -2.0672  0.4120
  865SOL    HW212565   1.590   0.617   1.072  0.9304  1.6117 -2.0263
  866SOL     OW12566   8.932   5.287   0.644 -0.2408 -0.2993 -0.1095
  866SOL    HW112567   8.985   5.213   0.685  0.4967 -0.2110 -0.8929
  866SOL    HW212568   8.955   5.373   0.690 -1.3661 -0.6123  1.0419
  867SOL     OW12569   2.724   0.298   0.356 -0.3444  0.2770 -0.0554
  867SOL    HW112570   2.791   0.372   0.346  0.5031 -0.4024  0.5747
  867SOL    HW212571   2.739   0.230   0.285  0.4063 -0.4741  0.8234
  868SOL     OW12572   1.467   4.219   1.663 -0.3950 -0.0284 -0.1237
  868SOL    HW112573   1.550   4.272   1.681 -1.3636  1.0094  1.4164
  868SOL    HW212574   1.431   4.182   1.749 -0.4391 -2.1489 -1.0214
  869SOL     OW12575   0.606   2.436   2.099  0.1519  0.5890 -0.2240
  869SOL    HW112576   0.687   2.414   2.154  0.2802 -1.6184 -1.2553
  869SOL    HW212577   0.586   2.360   2.037 -3.6152  0.4057  1.0746
  870SOL     OW12578   2.673   7.473   1.024  0.6730  0.0460  0.3376
  870SOL    HW112579   2.636   7.382   1.043 -0.7042  0.5042 -0.0670
  870SOL    HW212580   2.631   7.510   0.941  1.2254  1.0421  0.4912
  871SOL     OW12581   2.774   0.912   2.434  0.0281 -0.5830 -0.3938
  871SOL    HW112582   2.838   0.840   2.461 -0.8671 -0.8598  1.0418
  871SOL    HW212583   2.681   0.875   2.433 -0.2098  0.0156 -1.7113
  872SOL     OW12584   3.714   9.578   1.443  0.4051 -0.5430  0.0480
  872SOL    HW112585   3.810   9.572   1.417  0.2726  0.1711 -0.6195
  872SOL    HW212586   3.656   9.566   1.362 -0.0146  1.4421  0.0470
  873SOL     OW12587   9.431   4.854   0.631 -0.1282  0.2694 -0.6017
  873SOL    HW112588   9.403   4.762   0.657  2.1383 -0.5751 -1.0244
  873SOL    HW212589   9.410   4.918   0.706 -0.3994 -0.8383  0.2805
  874SOL     OW12590   1.940   5.377   1.991 -0.3628  1.0644  0.3248
  874SOL    HW112591   1.933   5.298   1.930 -2.6574  1.1811  0.4196
  874SOL    HW212592   1.958   5.346   2.084  0.0231  0.7337  0.1437
  875SOL     OW12593   2.623   5.051   0.014  0.6873  0.6166 -0.7441
  875SOL    HW112594   2.611   4.953   0.027 -0.4282  0.5816 -1.9099
  875SOL    HW212595   2.536   5.093  -0.010  1.5046  1.5629 -2.1924
  876SOL     OW12596   3.940   0.882   1.588  0.0612 -0.1450  0.0659
  876SOL    HW112597   3.927   0.935   1.672 -0.2571  0.0011 -0.0768
  876SOL    HW212598   3.953   0.786   1.612  1.6188  0.1288  0.3935
  877SOL     OW12599   2.168   0.657   1.839 -0.3715  0.2189  0.1419
  877SOL    HW112600   2.182   0.581   1.903 -0.1459 -0.0204 -0.1872
  877SOL    HW212601   2.160   0.621   1.746 -0.9397  0.5452  0.0604
  878SOL     OW12602   1.369   4.328   0.230  0.0220 -0.3797 -0.0112
  878SOL    HW112603   1.423   4.301   0.310 -0.7154 -0.1789  0.5556
  878SOL    HW212604   1.383   4.426   0.213 -0.6602 -0.1880  0.5213
  879SOL     OW12605   3.051   5.858   1.429 -0.4454 -0.5940  0.3093
  879SOL    HW112606   3.008   5.904   1.507  0.4073  2.1748 -0.7863
  879SOL    HW212607   3.131   5.806   1.461 -0.2744  0.2732  1.3353
  880SOL     OW12608   2.688   6.922   1.154 -0.6127  0.4799 -0.1614
  880SOL    HW112609   2.757   6.910   1.225 -1.3169 -0.6411  0.3413
  880SOL    HW212610   2.601   6.882   1.184 -0.6305 -0.9661 -2.0586
  881SOL     OW12611   2.627   1.444   0.700 -0.2326 -0.2733 -0.1551
  881SOL    HW112612   2.699   1.466   0.766 -0.0216 -0.7352 -0.2247
  881SOL    HW212613   2.545   1.413   0.748 -1.3930  2.9680  0.0728
  882SOL     OW12614   3.767   3.019   2.139 -1.1112 -0.0620  0.2753
  882SOL    HW112615   3.773   3.017   2.239 -1.2624  1.2082  0.3184
  882SOL    HW212616   3.727   2.933   2.107 -0.5530 -0.7027  1.2688
  883SOL     OW12617   3.362   5.044   0.088 -0.3227 -0.0486 -0.2378
  883SOL    HW112618   3.442   4.993   0.121 -0.5672 -0.0702  0.3272
  883SOL    HW212619   3.289   4.980   0.065  0.7669 -0.2311 -3.4108
  884SOL     OW12620   4.551   3.387   0.325 -0.8138  0.4167  0.1140
  884SOL    HW112621   4.484   3.318   0.299 -1.3372  0.5832  1.0097
  884SOL    HW212622   4.549   3.462   0.258 -0.7547 -0.0815 -0.4537
  885SOL     OW12623   1.692   5.133   1.844  0.0108  0.3486  0.0817
  885SOL    HW112624   1.687   5.212   1.783 -0.6022 -0.3419 -0.7820
  885SOL    HW212625   1.636   5.150   1.925  1.4434  1.5766  0.8220
  886SOL     OW12626   2.104   5.461   2.692 -0.0649  0.4804 -0.3056
  886SOL    HW112627   2.022   5.412   2.722 -1.7946  2.7993 -1.0506
  886SOL    HW212628   2.125   5.534   2.757 -0.1772  1.5690 -1.4660
  887SOL     OW12629   0.246   2.656   2.308  0.1232 -0.0313  0.2115
  887SOL    HW112630   0.163   2.652   2.364 -0.0267  0.7720  0.0576
  887SOL    HW212631   0.250   2.744   2.261  1.0856 -0.0533  0.2433
  888SOL     OW12632   2.483   8.097   2.642 -0.1588 -0.4012 -0.1486
  888SOL    HW112633   2.493   8.118   2.545 -0.0636  2.4999  0.4308
  888SOL    HW212634   2.484   7.998   2.656  2.5245 -0.7939 -2.7994
  889SOL     OW12635   3.474   9.459   1.582 -0.2531  0.6432 -0.3585
  889SOL    HW112636   3.566   9.454   1.544 -0.1805  0.8226 -0.2049
  889SOL    HW212637   3.473   9.416   1.672 -0.0688  1.6419  0.1206
  890SOL     OW12638   2.003   7.853   1.696 -0.6813 -0.4271  0.1573
  890SOL    HW112639   1.999   7.896   1.606 -3.2964  0.8041  0.7881
  890SOL    HW212640   1.932   7.782   1.702  1.0093 -2.1192  0.4747
  891SOL     OW12641   2.719   0.765   1.627  0.2813  0.3782  0.3231
  891SOL    HW112642   2.642   0.826   1.610  0.3316  0.5721  0.7942
  891SOL    HW212643   2.805   0.814   1.614  0.3623 -0.4680 -2.5994
  892SOL     OW12644   2.885   1.588   2.598  0.0747 -0.0569  0.3248
  892SOL    HW112645   2.809   1.560   2.656  0.9397  1.9488  2.5100
  892SOL    HW212646   2.939   1.507   2.572 -1.8410 -1.2798  0.0786
  893SOL     OW12647   0.627   6.574   1.474 -0.0513 -0.3295 -0.2617
  893SOL    HW112648   0.664   6.650   1.421  0.1109 -0.9534 -1.0518
  893SOL    HW212649   0.561   6.609   1.541 -0.3927  0.4482 -0.9978
  894SOL     OW12650   3.261   0.622   0.548 -0.0597 -0.0951 -0.5359
  894SOL    HW112651   3.338   0.577   0.593 -0.1291  0.8652  0.5756
  894SOL    HW212652   3.282   0.638   0.452  1.8262  1.7131  0.1532
  895SOL     OW12653   4.204   0.094   1.612 -0.1309  1.1275 -0.2740
  895SOL    HW112654   4.205   0.114   1.710 -0.2292  0.5659 -0.1542
  895SOL    HW212655   4.218   0.178   1.560 -1.3998  1.6175  0.1836
  896SOL     OW12656   4.156   2.289   1.740  0.4772 -0.3481  0.3440
  896SOL    HW112657   4.185   2.380   1.710 -2.7580  0.8859  0.7805
  896SOL    HW212658   4.112   2.241   1.665 -0.0325 -0.5912  0.7934
  897SOL     OW12659   7.810   5.363   0.621  0.0859 -0.3282 -0.3194
  897SOL    HW112660   7.835   5.417   0.540  0.7188 -2.7001 -1.7429
  897SOL    HW212661   7.886   5.363   0.686 -0.1571  0.9893 -0.0139
  898SOL     OW12662   2.808   1.448   1.266  0.6636 -0.1716  0.4778
  898SOL    HW112663   2.851   1.377   1.211 -1.4626 -0.5849 -0.7036
  898SOL    HW212664   2.857   1.534   1.254  2.0258 -0.9611  0.3187
  899SOL     OW12665   4.271   3.566   2.059 -0.6750 -0.0905  0.3642
  899SOL    HW112666   4.261   3.611   1.971  0.2783  1.5145  1.0474
  899SOL    HW212667   4.221   3.479   2.059 -2.7784  1.0916 -0.8856
  900SOL     OW12668   9.190   4.378   0.991  0.7390  0.0838 -0.4891
  900SOL    HW112669   9.198   4.345   0.898 -1.6396 -0.2619 -0.6112
  900SOL    HW212670   9.215   4.306   1.056 -3.1577 -1.6621 -0.7782
  901SOL     OW12671   3.208   4.529   2.735  0.3525 -0.2370 -0.2878
  901SOL    HW112672   3.112   4.557   2.742 -0.1784 -2.4576  1.5728
  901SOL    HW212673   3.217   4.458   2.665  0.2237 -1.6753  1.1205
  902SOL     OW12674   2.806   2.678   1.331 -0.4474  0.2861 -0.2027
  902SOL    HW112675   2.868   2.601   1.317 -1.0327 -0.0583 -0.9031
  902SOL    HW212676   2.839   2.757   1.281 -0.3151  0.2421 -0.1854
  903SOL     OW12677   2.303   4.636   2.238  0.2026 -0.0878  0.0587
  903SOL    HW112678   2.298   4.701   2.162 -0.2978  2.1645  1.9532
  903SOL    HW212679   2.357   4.557   2.211  0.5176  0.9455 -2.4469
  904SOL     OW12680   2.042   0.357   0.470 -0.1033 -0.0907 -0.2753
  904SOL    HW112681   1.966   0.323   0.413  0.2536  0.3366 -1.0140
  904SOL    HW212682   2.069   0.448   0.439  0.7150 -0.2364 -0.0077
  905SOL     OW12683   2.938   2.496   0.314 -0.1997 -0.0193 -0.4578
  905SOL    HW112684   2.895   2.587   0.317 -1.0101 -0.4337  1.4166
  905SOL    HW212685   3.030   2.501   0.353 -0.2689 -0.0076 -0.2942
  906SOL     OW12686   3.025   0.896   0.904  0.4756 -0.0683  0.0513
  906SOL    HW112687   2.991   0.805   0.927 -1.3979  0.2282 -1.3428
  906SOL    HW212688   3.078   0.892   0.819  0.3520  0.1403 -0.0376
  907SOL     OW12689   2.012   1.341   2.687 -0.1412  0.7979  0.0920
  907SOL    HW112690   1.951   1.361   2.763 -0.2557  2.8429 -0.5219
  907SOL    HW212691   2.049   1.426   2.650  2.2790 -0.3489 -0.2123
  908SOL     OW12692   4.811   2.450   0.423  0.1565 -0.0455  0.5390
  908SOL    HW112693   4.909   2.431   0.423 -0.2258 -2.1310  1.7992
  908SOL    HW212694   4.790   2.519   0.492  0.7550  0.6114  0.0772
  909SOL     OW12695   3.763   2.474   0.921 -0.0923  0.1379  0.3676
  909SOL    HW112696   3.746   2.561   0.875 -0.4557 -0.4532 -0.6101
  909SOL    HW212697   3.766   2.490   1.020  4.4754  2.0838  0.0600
  910SOL     OW12698   2.796   8.079   2.278  0.0839  0.0924  0.3736
  910SOL    HW112699   2.822   7.990   2.314  0.0080  0.2540  0.8437
  910SOL    HW212700   2.877   8.128   2.248 -0.0507 -0.8083 -1.4766
  911SOL     OW12701   0.419   2.340   1.675  0.4145  0.0014 -0.2807
  911SOL    HW112702   0.377   2.250   1.672 -1.6413  0.8398  1.6289
  911SOL    HW212703   0.360   2.403   1.726  2.4797  2.0585 -0.3152
  912SOL     OW12704   2.746   6.321   0.458 -0.0772  0.0567 -0.3142
  912SOL    HW112705   2.757   6.229   0.496  1.0749  0.7948  1.1896
  912SOL    HW212706   2.651   6.350   0.466 -0.3229 -0.7673 -0.2400
  913SOL     OW12707   3.418   7.616   1.325 -0.0224 -0.1739 -0.2298
  913SOL    HW112708   3.415   7.706   1.369 -1.2005  0.6523 -1.9837
  913SOL    HW212709   3.342   7.607   1.262 -0.5974 -2.8852  0.7909
  914SOL     OW12710   3.395   9.672   0.762 -0.1774  0.0871  0.1046
  914SOL    HW112711   3.367   9.726   0.842 -1.5440  0.9431 -0.9214
  914SOL    HW212712   3.330   9.597   0.748 -0.5051  0.5287 -0.7767
  915SOL     OW12713   0.549   5.157   2.705  0.2100  0.1524 -0.0774
  915SOL    HW112714   0.538   5.208   2.790 -1.7421  0.5230 -0.5176
  915SOL    HW212715   0.623   5.197   2.651 -0.5309  1.8279  0.1102
  916SOL     OW12716   2.679   3.400   1.137 -0.0659  0.3216 -0.5723
  916SOL    HW112717   2.587   3.416   1.101 -0.0105  1.0308 -0.4038
  916SOL    HW212718   2.724   3.328   1.084 -1.6993 -1.9442  1.0077
  917SOL     OW12719   2.281   3.244   0.513  0.2209 -0.5286  0.0741
  917SOL    HW112720   2.317   3.304   0.441 -0.0383 -1.7041 -1.0611
  917SOL    HW212721   2.182   3.258   0.521  0.3051 -0.1457  0.4472
  918SOL     OW12722   3.062   0.081   2.019 -0.1675 -0.1361  0.5051
  918SOL    HW112723   3.071   0.176   2.049  2.0298 -0.0446 -0.2837
  918SOL    HW212724   3.073   0.020   2.098  1.8588  0.2030  0.5271
  919SOL     OW12725   3.616   0.095   0.330 -0.9710 -0.4790 -0.5187
  919SOL    HW112726   3.678   0.165   0.295 -0.5742 -0.6201 -0.0916
  919SOL    HW212727   3.559   0.134   0.403 -1.9458 -0.1255 -1.4487
  920SOL     OW12728   1.577   5.156   2.430  0.3751 -0.0965 -0.2080
  920SOL    HW112729   1.539   5.240   2.391 -1.2666 -0.4672  0.5299
  920SOL    HW212730   1.604   5.094   2.355  1.8152  1.1722 -0.7481
  921SOL     OW12731   2.812   1.459   0.916 -0.3165  0.2972 -0.1632
  921SOL    HW112732   2.791   1.416   1.004  0.2391  3.9478  1.8517
  921SOL    HW212733   2.896   1.420   0.879 -0.9305 -1.7646  0.5294
  922SOL     OW12734   3.136   0.867   2.344  0.0442  0.3773 -0.0216
  922SOL    HW112735   3.151   0.865   2.245  0.7867  0.6138  0.0868
  922SOL    HW212736   3.188   0.942   2.384 -0.3733  0.3746  0.5357
  923SOL     OW12737   4.050   2.967   0.348 -0.0518 -0.1361 -0.7775
  923SOL    HW112738   4.035   2.970   0.447  0.5535  1.4256 -0.7148
  923SOL    HW212739   3.989   2.899   0.306 -0.8219 -0.2856  0.5702
  924SOL     OW12740   4.159   3.892   1.920  0.1208  0.6214 -0.3952
  924SOL    HW112741   4.081   3.922   1.976  0.1607  2.0541 -1.0908
  924SOL    HW212742   4.141   3.800   1.886 -0.0679 -0.1276  1.6666
  925SOL     OW12743   2.342   3.717   2.629 -0.5229  0.4577  0.1398
  925SOL    HW112744   2.371   3.665   2.549  1.6410  2.0264 -0.1408
  925SOL    HW212745   2.250   3.752   2.614 -1.8942 -2.9169  0.1920
  926SOL     OW12746   4.849   2.731   2.019  0.4800  0.0488 -0.0712
  926SOL    HW112747   4.803   2.705   1.934  0.6116  0.2571 -0.2062
  926SOL    HW212748   4.875   2.648   2.069 -0.9847 -0.0696  0.5189
  927SOL     OW12749   3.179   1.426   1.833 -0.1257 -0.5253 -0.1370
  927SOL    HW112750   3.079   1.431   1.831 -0.1057 -0.4185 -0.9583
  927SOL    HW212751   3.212   1.449   1.925 -0.9074 -1.5646  0.4108
  928SOL     OW12752   3.694   3.262   1.326 -0.3003  0.0064 -0.4465
  928SOL    HW112753   3.640   3.340   1.295  0.4905  0.5363 -0.4976
  928SOL    HW212754   3.633   3.192   1.364 -0.8765  1.3807  1.2067
  929SOL     OW12755   1.942   3.088   1.868  0.1327  0.0525  0.3722
  929SOL    HW112756   1.926   3.004   1.920  0.9075  0.3955  1.1835
  929SOL    HW212757   1.873   3.096   1.796 -0.4869 -0.8233  0.8517
  930SOL     OW12758   1.930   3.229   2.166  0.2920  0.5064  0.1280
  930SOL    HW112759   1.943   3.261   2.072  2.0463  1.2342  0.5990
  930SOL    HW212760   1.884   3.301   2.219 -2.9266 -0.8241 -0.7309
  931SOL     OW12761   1.607   5.240   2.083 -0.4310  0.6272 -0.3612
  931SOL    HW112762   1.575   5.271   2.173  0.0385  2.0955 -0.6923
  931SOL    HW212763   1.689   5.291   2.058 -1.0606  0.8520 -2.0175
  932SOL     OW12764   3.350   9.809   1.278  0.3699  0.0637 -0.3198
  932SOL    HW112765   3.297   9.746   1.221 -1.2868  1.2069 -0.0725
  932SOL    HW212766   3.318   9.802   1.373 -0.7803  2.2589 -0.5183
  933SOL     OW12767   4.214   1.420   2.490 -0.0117  0.2005  0.1848
  933SOL    HW112768   4.235   1.448   2.584  1.6927 -1.0487  0.1887
  933SOL    HW212769   4.289   1.447   2.430 -0.7532  0.3151 -0.6939
  934SOL     OW12770   1.010   2.684   1.541 -1.0840  0.1547 -0.3535
  934SOL    HW112771   0.965   2.646   1.622 -2.7411  0.0879 -1.2822
  934SOL    HW212772   0.942   2.702   1.470  0.1402  1.6990 -1.1643
  935SOL     OW12773   9.379   4.569   1.803  0.0730 -0.1999 -0.2129
  935SOL    HW112774   9.369   4.664   1.774  1.4864  0.2627  0.7613
  935SOL    HW212775   9.288   4.528   1.817 -0.5375  1.8013  1.9230
  936SOL     OW12776   1.393   4.140   1.028  0.7763  0.7205  0.6462
  936SOL    HW112777   1.313   4.094   0.989  0.6156  1.1327  0.4947
  936SOL    HW212778   1.457   4.162   0.955  0.9135  0.6168  0.7364
  937SOL     OW12779   2.964   5.471   1.111  0.0608  0.0163  0.4346
  937SOL    HW112780   3.009   5.393   1.068 -1.3216 -0.3261 -0.4269
  937SOL    HW212781   3.003   5.486   1.202  0.5288 -1.5032  0.5039
  938SOL     OW12782   3.070   1.355   0.867  0.0923 -0.2286  0.1069
  938SOL    HW112783   3.147   1.307   0.824  2.0279  2.4233  0.5229
  938SOL    HW212784   3.092   1.375   0.962 -0.5890  1.6563 -0.1193
  939SOL     OW12785   4.476   0.982   0.103  0.3961 -0.3207  0.1893
  939SOL    HW112786   4.560   1.034   0.084  0.6382 -0.0876  1.7958
  939SOL    HW212787   4.406   1.044   0.139 -0.3305 -0.5900 -0.7412
  940SOL     OW12788   1.413   5.702   0.707  0.6910 -0.4452 -0.1560
  940SOL    HW112789   1.455   5.767   0.643  0.3393  0.0028  0.0674
  940SOL    HW212790   1.319   5.683   0.678  1.5000 -2.5599 -1.4812
  941SOL     OW12791   4.518   3.870   2.611 -0.1364 -0.1854 -0.2149
  941SOL    HW112792   4.509   3.928   2.530  1.2466  2.1663  1.2200
  941SOL    HW212793   4.614   3.846   2.624 -0.4214 -1.0045  0.4232
  942SOL     OW12794   9.734   3.883   0.012  0.5285  0.7734  0.3204
  942SOL    HW112795   9.718   3.961   0.072 -1.7205  0.3181  0.3335
  942SOL    HW212796   9.749   3.916  -0.082 -0.5885  1.2102  0.2945
  943SOL     OW12797   0.403   4.369   0.296  0.4059  0.1642 -0.0317
  943SOL    HW112798   0.316   4.411   0.271 -1.0787 -2.9514 -0.2546
  943SOL    HW212799   0.472   4.392   0.228 -0.7916  0.8836 -1.0109
  944SOL     OW12800   1.692   7.558   1.069  0.1546  0.2243  0.3229
  944SOL    HW112801   1.712   7.636   1.128  1.9923  0.9093 -1.1420
  944SOL    HW212802   1.773   7.535   1.015 -0.2103 -3.0200  1.0563
  945SOL     OW12803   0.710   7.168   2.515  1.0199 -0.4875  0.2193
  945SOL    HW112804   0.643   7.189   2.587 -2.1148 -2.2349 -2.0862
  945SOL    HW212805   0.762   7.086   2.540 -1.1913 -2.0512 -0.1949
  946SOL     OW12806   3.057   0.891   0.518  0.5816 -0.1941  0.3828
  946SOL    HW112807   3.062   0.926   0.424 -1.0202 -0.2646  0.2591
  946SOL    HW212808   3.149   0.889   0.558  0.8761  3.1980  0.0213
  947SOL     OW12809   9.327   3.164   1.499  0.1725 -0.1538 -0.2361
  947SOL    HW112810   9.350   3.241   1.439  2.2708 -0.7506 -0.2439
  947SOL    HW212811   9.232   3.171   1.527  0.3754  2.5646 -0.0814
  948SOL     OW12812   0.241   5.316   0.692  0.1425  0.2522 -0.1150
  948SOL    HW112813   0.227   5.391   0.627  0.4663 -0.0413 -0.5308
  948SOL    HW212814   0.335   5.284   0.686  0.0526 -0.0710  0.1868
  949SOL     OW12815   1.572   1.267   1.248 -0.2520 -0.5911  0.6865
  949SOL    HW112816   1.531   1.251   1.337 -1.7786  1.1721  0.3225
  949SOL    HW212817   1.577   1.366   1.230  1.4901 -0.8685 -0.5057
  950SOL     OW12818   1.791   1.861   1.023  0.8380 -0.2189  0.3891
  950SOL    HW112819   1.826   1.952   1.001  0.9771 -0.5205 -0.7122
  950SOL    HW212820   1.708   1.869   1.078 -1.7292  0.7198 -3.4295
  951SOL     OW12821   4.178   4.588   0.437 -0.3818  0.0402 -0.2916
  951SOL    HW112822   4.154   4.684   0.453  1.2649  0.6536 -1.4092
  951SOL    HW212823   4.277   4.580   0.426 -0.2842 -2.0910  1.7862
  952SOL     OW12824   3.615   5.005   0.396 -0.3688 -0.1811  0.0491
  952SOL    HW112825   3.637   4.988   0.492 -2.0320 -1.8920  0.1653
  952SOL    HW212826   3.523   5.044   0.389  0.8627  2.6754 -0.6865
  953SOL     OW12827   2.006   3.900   1.812 -0.4079 -0.3930 -0.2916
  953SOL    HW112828   1.936   3.932   1.748 -0.7358  0.2463  0.3776
  953SOL    HW212829   2.082   3.860   1.761 -1.4107 -1.4192 -1.0187
  954SOL     OW12830   3.828   2.698   1.651  0.3368  1.1421  0.4108
  954SOL    HW112831   3.839   2.745   1.564  1.6214  1.2106  0.6002
  954SOL    HW212832   3.863   2.755   1.725 -3.3310  2.3018  1.3472
  955SOL     OW12833   2.287   6.968   2.407  0.2615  0.3342  0.7606
  955SOL    HW112834   2.383   6.949   2.427 -0.2757 -0.6985  2.5045
  955SOL    HW212835   2.258   6.915   2.327  1.3386  1.2775 -0.2723
  956SOL     OW12836   1.591   6.581   2.460  0.6279 -0.0286  0.0624
  956SOL    HW112837   1.646   6.640   2.402 -1.5862  1.8146 -0.2657
  956SOL    HW212838   1.530   6.638   2.516  0.5834 -1.9018  1.9692
  957SOL     OW12839   0.940   6.633   2.393 -0.6017  0.7586 -0.2967
  957SOL    HW112840   0.857   6.669   2.351  0.6763  2.9446 -1.0583
  957SOL    HW212841   0.981   6.564   2.333 -1.2814  0.4782 -0.4354
  958SOL     OW12842   1.101   3.638   2.668 -0.4543  0.2389  0.0487
  958SOL    HW112843   1.072   3.605   2.578  0.3364  0.2764 -0.2197
  958SOL    HW212844   1.159   3.718   2.657 -1.0119  0.7292  0.6331
  959SOL     OW12845   3.270   0.878   0.136 -0.2299 -0.4789 -0.5087
  959SOL    HW112846   3.215   0.872   0.053 -1.6308  0.6467  0.3214
  959SOL    HW212847   3.221   0.932   0.205  1.2639 -0.7210  0.7674
  960SOL     OW12848   1.969   1.207   1.414  0.2346 -0.0208  0.1710
  960SOL    HW112849   2.007   1.117   1.391 -0.5568 -0.8531  2.0114
  960SOL    HW212850   2.025   1.249   1.486  2.0829  2.0930 -2.4288
  961SOL     OW12851   4.060   9.768   0.761  0.2769 -0.3462 -0.0115
  961SOL    HW112852   4.090   9.728   0.674 -1.5001 -0.7273 -0.4774
  961SOL    HW212853   4.136   9.768   0.826  1.3293 -1.0436 -1.2242
  962SOL     OW12854   2.773   8.814   0.595 -0.4488  0.6482 -0.0997
  962SOL    HW112855   2.749   8.800   0.691 -0.7167  3.0215  0.2173
  962SOL    HW212856   2.741   8.904   0.566  1.7554  0.9311 -1.7333
  963SOL     OW12857   2.577   7.682   1.461  0.1398 -0.3055  0.4845
  963SOL    HW112858   2.489   7.729   1.468  0.0362 -0.3991 -0.1459
  963SOL    HW212859   2.650   7.750   1.460  0.0719 -0.2221  0.9299
  964SOL     OW12860   1.213   1.521   1.829  0.0890  0.3461  0.1282
  964SOL    HW112861   1.203   1.620   1.819 -1.4826  0.3606  1.7481
  964SOL    HW212862   1.249   1.500   1.920 -0.0936 -0.6113 -0.0216
  965SOL     OW12863   3.197   9.206   1.539  0.1238  0.5601 -0.0601
  965SOL    HW112864   3.160   9.285   1.490 -1.6411 -0.2920 -0.1223
  965SOL    HW212865   3.240   9.143   1.475 -1.3357 -0.0872 -0.4250
  966SOL     OW12866   3.471   0.900   0.532 -0.6106 -0.3422  0.3387
  966SOL    HW112867   3.556   0.898   0.585 -0.3968  0.2210  0.0187
  966SOL    HW212868   3.394   0.920   0.593 -0.3781  0.1932  0.4577
  967SOL     OW12869   4.475   3.988   2.264  0.1993 -0.9125  0.6753
  967SOL    HW112870   4.527   4.012   2.182 -2.1779  1.1736 -0.2642
  967SOL    HW212871   4.425   3.903   2.249  0.4281 -0.9801  0.2965
  968SOL     OW12872   3.738   8.115   1.129 -0.1671 -0.3451 -0.7419
  968SOL    HW112873   3.795   8.045   1.086  1.7930  2.2330 -2.4935
  968SOL    HW212874   3.754   8.115   1.228 -0.2030 -2.3468 -0.7165
  969SOL     OW12875   1.407   3.748   1.801 -0.2174 -0.3939  0.2369
  969SOL    HW112876   1.341   3.819   1.827  1.1206  1.0413 -0.1890
  969SOL    HW212877   1.359   3.661   1.788 -1.9645  0.5372  0.2553
  970SOL     OW12878   3.748   0.365   2.615  0.0062 -0.1009  0.6683
  970SOL    HW112879   3.738   0.314   2.700  1.8256 -0.1326  0.8633
  970SOL    HW212880   3.836   0.411   2.612  0.3457 -0.8213 -1.5828
  971SOL     OW12881   3.658   0.542   0.064 -0.1457  0.0367  0.4171
  971SOL    HW112882   3.595   0.522   0.139  0.7673 -0.7033  0.9979
  971SOL    HW212883   3.752   0.534   0.096  0.2559  1.5643 -0.3290
  972SOL     OW12884   4.728   3.082   2.520  0.2075 -0.1034 -0.0153
  972SOL    HW112885   4.744   3.020   2.443  0.1754  2.0991 -1.8748
  972SOL    HW212886   4.641   3.130   2.506 -0.7719 -1.0925  2.4179
  973SOL     OW12887   3.032   7.751   1.764 -0.0317 -0.1746 -0.5480
  973SOL    HW112888   2.960   7.683   1.775 -0.5458  0.5252  0.4469
  973SOL    HW212889   3.092   7.724   1.689 -0.5685 -1.4294 -0.5334
  974SOL     OW12890   0.650   6.780   2.027 -0.7581  0.5478 -0.9768
  974SOL    HW112891   0.623   6.769   1.932  2.3485  0.9040 -1.9591
  974SOL    HW212892   0.667   6.690   2.068 -4.3257  0.2465 -0.0078
  975SOL     OW12893   3.255   4.317   2.548  0.1752 -0.0728  0.2137
  975SOL    HW112894   3.190   4.251   2.585 -0.3968  0.3939  0.0551
  975SOL    HW212895   3.334   4.268   2.511  0.6294 -0.5571  1.7791
  976SOL     OW12896   9.708   3.676   0.259 -0.0471 -0.1177  0.2237
  976SOL    HW112897   9.697   3.774   0.275 -0.2922  0.3199 -2.4068
  976SOL    HW212898   9.775   3.661   0.186 -0.3251 -1.8741  0.2947
  977SOL     OW12899   3.097   9.024   0.726 -0.1348 -0.5957 -0.3078
  977SOL    HW112900   3.187   8.989   0.752 -0.3338 -0.3778  0.7031
  977SOL    HW212901   3.027   8.958   0.751 -0.5246  0.5538  1.7434
  978SOL     OW12902   9.060   3.225   1.545  0.0688  0.0006  0.2540
  978SOL    HW112903   8.980   3.285   1.537  0.5772  0.6458 -0.0230
  978SOL    HW212904   9.084   3.215   1.642 -0.8730 -0.9028  0.4046
  979SOL     OW12905   3.051   1.470   2.179  0.5977 -0.1343  0.1028
  979SOL    HW112906   3.142   1.440   2.207 -0.5513 -1.9709  1.9666
  979SOL    HW212907   2.982   1.419   2.229 -1.5007  0.0704 -2.4930
  980SOL     OW12908   2.544   4.963   1.487  0.7015  0.1504  0.1213
  980SOL    HW112909   2.456   4.967   1.536  0.5177 -1.0597 -0.0884
  980SOL    HW212910   2.568   4.867   1.471  2.2290  0.4774  0.4656
  981SOL     OW12911   4.848   2.999   1.972  0.3071 -0.3883 -0.2616
  981SOL    HW112912   4.922   3.020   1.908 -0.6725 -0.7093 -1.5202
  981SOL    HW212913   4.864   2.909   2.013 -0.1119 -1.1134 -1.6357
  982SOL     OW12914   1.092   4.844   1.647  0.8102  0.0642 -0.4495
  982SOL    HW112915   1.179   4.818   1.605  0.6535 -0.9305 -0.1637
  982SOL    HW212916   1.110   4.906   1.724  1.2221  0.2919 -0.7267
  983SOL     OW12917   3.326   4.898   0.561  0.2274  0.8001  0.1897
  983SOL    HW112918   3.325   4.988   0.518 -2.1935  1.2890  1.2342
  983SOL    HW212919   3.298   4.905   0.656 -1.2391 -1.2037 -0.0448
  984SOL     OW12920   2.314   8.287   1.429  0.1293  0.3638  0.4715
  984SOL    HW112921   2.362   8.244   1.505  1.0034  1.6153  0.6357
  984SOL    HW212922   2.295   8.383   1.451 -2.6913 -0.1567  0.5360
  985SOL     OW12923   3.146   8.276   0.826 -0.0047  0.4840 -0.1195
  985SOL    HW112924   3.236   8.235   0.814  0.7926  2.3379 -0.5970
  985SOL    HW212925   3.147   8.370   0.792 -2.1126  0.5313 -0.1048
  986SOL     OW12926   3.006   3.928   0.606  0.2152 -0.9741 -0.2811
  986SOL    HW112927   2.964   4.005   0.655 -1.0538 -0.8178 -1.5810
  986SOL    HW212928   2.937   3.883   0.550  1.0451 -2.8482  0.1846
  987SOL     OW12929   3.473   0.576   1.311  0.2808  0.2426 -0.1148
  987SOL    HW112930   3.540   0.629   1.258  0.7817 -0.6591 -0.4011
  987SOL    HW212931   3.386   0.575   1.262  0.0454  1.4200  0.2558
  988SOL     OW12932   2.158   0.980   1.449  0.1862  0.7546 -0.8438
  988SOL    HW112933   2.244   0.942   1.416 -0.8691  0.5040 -3.4315
  988SOL    HW212934   2.083   0.917   1.429 -0.6490  1.0249  1.2649
  989SOL     OW12935   3.442   0.208   2.199 -0.1834 -0.2763  0.5330
  989SOL    HW112936   3.457   0.205   2.298 -2.1415  0.4181  0.8675
  989SOL    HW212937   3.344   0.216   2.180  0.4417  4.1471 -1.3288
  990SOL     OW12938   0.666   4.111   0.522  0.6212 -0.3078 -0.0198
  990SOL    HW112939   0.741   4.116   0.456  0.0737 -0.0044 -0.6274
  990SOL    HW212940   0.658   4.198   0.570 -0.0054  0.0298 -0.7086
  991SOL     OW12941   3.288   0.865   2.070 -0.2955  0.6361 -0.6017
  991SOL    HW112942   3.305   0.869   2.169 -0.4113 -0.6179 -0.5155
  991SOL    HW212943   3.356   0.920   2.022 -0.3900  1.4628  0.1912
  992SOL     OW12944   2.088   6.761   1.002  0.0972  0.5013  0.5036
  992SOL    HW112945   1.994   6.778   0.972  1.2247 -0.2497 -3.7339
  992SOL    HW212946   2.130   6.692   0.944  3.4108  1.0597  2.1235
  993SOL     OW12947   3.472   4.841   2.496 -0.2791  0.1770  0.5178
  993SOL    HW112948   3.415   4.879   2.423 -0.8195 -0.7015  0.4843
  993SOL    HW212949   3.421   4.842   2.582  0.3593  1.2161  0.8876
  994SOL     OW12950   3.520   0.407   0.299 -0.2807 -0.5913 -0.1220
  994SOL    HW112951   3.427   0.382   0.270 -0.3990  0.0618 -0.3178
  994SOL    HW212952   3.527   0.401   0.398 -0.5895 -0.4586 -0.0915
  995SOL     OW12953   4.903   3.120   0.873 -0.5713  0.2012  0.4393
  995SOL    HW112954   4.918   3.209   0.916  1.3833  0.7557 -1.2989
  995SOL    HW212955   4.976   3.057   0.903 -0.7806 -0.2128  0.0739
  996SOL     OW12956   3.434   2.209   1.910  0.3488  0.2486 -0.3970
  996SOL    HW112957   3.420   2.288   1.849  0.7334  0.5902 -0.0437
  996SOL    HW212958   3.352   2.196   1.966 -0.0319 -0.1039 -1.0245
  997SOL     OW12959   9.530   2.966   1.514 -0.5111  0.0917  1.1263
  997SOL    HW112960   9.507   2.873   1.485 -2.1677  1.2996 -1.6846
  997SOL    HW212961   9.451   3.026   1.497  1.5469  2.5839  0.0730
  998SOL     OW12962   0.951   3.758   1.800  0.3597 -0.3474 -0.1075
  998SOL    HW112963   1.042   3.795   1.819  1.4972 -2.6569 -0.8971
  998SOL    HW212964   0.958   3.661   1.775 -2.3284 -0.5982 -0.0945
  999SOL     OW12965   3.870   0.591   1.579 -0.0330 -0.4419 -0.0090
  999SOL    HW112966   3.799   0.537   1.533 -0.3463  0.3529 -0.4609
  999SOL    HW212967   3.949   0.533   1.598 -0.9355 -1.4220  0.7979
 1000SOL     OW12968   2.105   3.600   2.790  0.0583  0.2593 -0.2927
 1000SOL    HW112969   2.200   3.591   2.761 -0.4464  1.5894 -2.5257
 1000SOL    HW212970   2.088   3.539   2.867  1.9507 -2.2085 -1.7192
 1001SOL     OW12971   2.971   8.173   0.632 -0.0493  0.2982 -0.1446
 1001SOL    HW112972   3.028   8.216   0.703  0.9035  0.1240 -0.8021
 1001SOL    HW212973   3.020   8.095   0.592 -0.4087  0.6512 -1.2905
 1002SOL     OW12974   2.735   0.037   2.639 -0.6028  0.2276  0.2716
 1002SOL    HW112975   2.652  -0.005   2.677  0.4030 -0.1980  2.0499
 1002SOL    HW212976   2.756   0.121   2.689 -0.1329  0.4950 -0.3737
 1003SOL     OW12977   3.637   9.523   0.057  0.0399 -0.4106  0.4885
 1003SOL    HW112978   3.547   9.553   0.090  0.2044  0.4968  0.1170
 1003SOL    HW212979   3.638   9.423   0.050 -1.1255 -0.3984 -0.0181
 1004SOL     OW12980   3.628   2.090   0.885  0.3286  0.5803  0.5858
 1004SOL    HW112981   3.700   2.119   0.822  1.2360  3.2634  2.7999
 1004SOL    HW212982   3.567   2.167   0.903 -1.4885 -0.9077  0.9412
 1005SOL     OW12983   9.899   3.250   1.893 -0.4250  0.0383 -0.4090
 1005SOL    HW112984   9.932   3.332   1.846 -2.1852  0.5038 -0.8796
 1005SOL    HW212985   9.915   3.259   1.991  2.0980 -0.3719 -0.7499
 1006SOL     OW12986   0.555   5.027   1.270  0.2193 -0.0957 -0.2515
 1006SOL    HW112987   0.503   4.971   1.204 -0.0642  0.5465 -0.5794
 1006SOL    HW212988   0.553   4.983   1.360 -1.6026  0.3358 -0.0613
 1007SOL     OW12989   3.465   4.000   2.653 -0.4416 -0.1959 -0.3949
 1007SOL    HW112990   3.420   4.062   2.717  1.1112  0.4413  0.0908
 1007SOL    HW212991   3.410   3.916   2.644 -1.4411  0.3376  0.5847
 1008SOL     OW12992   9.875   2.737   0.473  0.4907  0.3402 -0.4364
 1008SOL    HW112993   9.895   2.827   0.433 -0.2732  0.8543  0.3234
 1008SOL    HW212994   9.876   2.668   0.401 -1.3136  1.3095 -1.4283
 1009SOL     OW12995   4.040   1.918   1.621  0.0443  0.5977  0.3125
 1009SOL    HW112996   3.986   2.002   1.618 -1.6189 -0.3773  1.7068
 1009SOL    HW212997   4.036   1.879   1.713 -1.1063 -2.1606 -0.8260
 1010SOL     OW12998   4.063   4.475   0.881 -0.7490 -0.4853  0.6648
 1010SOL    HW112999   4.126   4.551   0.861 -0.4236 -0.6862  0.9111
 1010SOL    HW213000   4.038   4.479   0.978 -1.6421 -0.0171  0.4247
 1011SOL     OW13001   4.801   2.834   1.073  0.0718  0.2620  0.8380
 1011SOL    HW113002   4.744   2.916   1.081 -1.4999 -0.6837 -0.3285
 1011SOL    HW213003   4.839   2.828   0.981  1.2055  0.3123  1.2904
 1012SOL     OW13004   9.186   7.937   0.748  0.5631  0.5227  0.0941
 1012SOL    HW113005   9.116   7.992   0.704  0.7938  1.1018  0.4532
 1012SOL    HW213006   9.277   7.970   0.722  0.7132 -0.3279 -0.5053
 1013SOL     OW13007   1.178   4.696   2.546 -0.1144 -0.9272  0.0889
 1013SOL    HW113008   1.213   4.781   2.507 -0.6143 -0.9011 -0.3064
 1013SOL    HW213009   1.180   4.702   2.646  1.2147 -1.0150  0.0786
 1014SOL     OW13010   8.678   4.182   0.248 -0.3192  0.0228  0.3197
 1014SOL    HW113011   8.633   4.217   0.166  0.6957 -2.5392 -1.3875
 1014SOL    HW213012   8.610   4.173   0.322 -1.2347  2.3188 -0.1947
 1015SOL     OW13013   2.801   3.204   2.363 -0.0887 -0.0062  0.3931
 1015SOL    HW113014   2.778   3.118   2.408 -1.7259  0.5160  0.5693
 1015SOL    HW213015   2.848   3.185   2.276  0.0052 -1.0653  0.6738
 1016SOL     OW13016   1.633   2.448   0.036 -0.2209  0.3833 -0.1996
 1016SOL    HW113017   1.729   2.466   0.057 -0.5284  1.6838  0.1706
 1016SOL    HW213018   1.578   2.458   0.119 -0.6194 -0.8826 -0.2957
 1017SOL     OW13019   2.792   0.241   0.633 -0.1888 -0.6758  0.6710
 1017SOL    HW113020   2.744   0.249   0.546 -0.0529 -1.1656  0.5502
 1017SOL    HW213021   2.728   0.211   0.704 -0.7133  1.4770  1.1374
 1018SOL     OW13022   0.776   7.247   0.749  1.2426 -0.0003  0.3086
 1018SOL    HW113023   0.753   7.341   0.774 -2.2902 -0.2146 -1.7472
 1018SOL    HW213024   0.825   7.247   0.661 -1.4021 -0.1923 -1.2094
 1019SOL     OW13025   0.227   3.752   0.026 -0.1788 -0.5487  0.2765
 1019SOL    HW113026   0.202   3.849   0.035 -1.6380 -1.0680  2.0850
 1019SOL    HW213027   0.296   3.742  -0.047 -2.4133  1.4134 -2.2201
 1020SOL     OW13028   1.440   1.008   1.204 -0.1739 -0.2526  0.6619
 1020SOL    HW113029   1.415   1.101   1.177  1.9325  0.4728  1.1179
 1020SOL    HW213030   1.415   0.944   1.131 -3.2083  0.3998  1.0587
 1021SOL     OW13031   3.238   2.117   2.059  0.8230  0.3410 -0.3547
 1021SOL    HW113032   3.159   2.060   2.038  0.0875 -0.0712  3.1551
 1021SOL    HW213033   3.208   2.211   2.076  1.4607  0.8066 -1.7600
 1022SOL     OW13034   3.343   2.071   0.088 -0.2066  0.2168  0.6437
 1022SOL    HW113035   3.357   2.159   0.135  1.8552  0.5135 -0.4872
 1022SOL    HW213036   3.268   2.080   0.023 -0.2738  1.0273  0.8217
 1023SOL     OW13037   3.591   1.503   2.545  0.0328 -0.6998  0.1448
 1023SOL    HW113038   3.650   1.480   2.623 -1.0758 -1.8861  0.6518
 1023SOL    HW213039   3.591   1.602   2.532  0.5998 -0.5244  1.3806
 1024SOL     OW13040   2.309   1.542   0.737  0.9489  0.0068 -0.1906
 1024SOL    HW113041   2.336   1.536   0.641 -1.4593 -2.0487 -0.7905
 1024SOL    HW213042   2.301   1.450   0.775  0.7630  0.7725  1.6537
 1025SOL     OW13043   1.581   2.154   0.588  0.0606 -0.4722  1.1060
 1025SOL    HW113044   1.583   2.126   0.492  0.4074 -1.2601  1.3294
 1025SOL    HW213045   1.492   2.132   0.628  0.1249 -0.7237  1.1176
 1026SOL     OW13046   0.913   5.748   1.276  0.2824  0.2969  0.5091
 1026SOL    HW113047   0.855   5.680   1.322 -1.2241  0.6997 -0.7574
 1026SOL    HW213048   0.962   5.802   1.345 -0.2685 -0.5401  1.5759
 1027SOL     OW13049   2.992   3.017   0.988 -0.2422  0.2881  0.7311
 1027SOL    HW113050   3.033   2.932   1.020 -1.9386 -0.4523  1.0048
 1027SOL    HW213051   3.049   3.057   0.916  0.2926 -1.3705  0.2026
 1028SOL     OW13052   2.786   5.610   1.517  0.5009  0.0369  0.3573
 1028SOL    HW113053   2.689   5.607   1.542  0.5490  1.1936  0.7040
 1028SOL    HW213054   2.836   5.666   1.583  2.2257 -4.1154  2.7867
 1029SOL     OW13055   3.976   1.008   0.270 -0.6763  0.8843  0.2339
 1029SOL    HW113056   3.924   1.013   0.184  1.3634  0.9785 -1.0354
 1029SOL    HW213057   3.929   0.946   0.333 -1.6563 -0.0379 -1.3509
 1030SOL     OW13058   9.840   4.689   1.778 -0.3308  0.1176 -0.1850
 1030SOL    HW113059   9.777   4.721   1.706  0.1960  1.9843  0.1583
 1030SOL    HW213060   9.794   4.621   1.834 -0.5212 -1.9297 -2.7169
 1031SOL     OW13061   0.329   5.833   2.815 -0.0118 -0.1617  0.0749
 1031SOL    HW113062   0.232   5.850   2.799  0.3166  1.8682  0.1291
 1031SOL    HW213063   0.383   5.874   2.742  0.8802 -0.1793  0.7092
 1032SOL     OW13064   4.647   2.737   1.793 -0.5673  0.6379  0.4749
 1032SOL    HW113065   4.578   2.809   1.793 -1.0541  0.1783  1.7126
 1032SOL    HW213066   4.612   2.657   1.743  0.3470  1.5860 -1.7593
 1033SOL     OW13067   3.480   9.463   2.440 -0.0642  0.4213  0.1850
 1033SOL    HW113068   3.544   9.532   2.473  0.3021 -0.2590  0.9113
 1033SOL    HW213069   3.400   9.460   2.499  0.4836 -0.6325  0.8830
 1034SOL     OW13070   2.880   1.632   0.409 -0.2740 -0.2351  0.2966
 1034SOL    HW113071   2.840   1.655   0.320  0.0274  2.8474  0.8957
 1034SOL    HW213072   2.947   1.559   0.398  0.1847  0.5112 -2.1319
 1035SOL     OW13073   3.262   3.375   2.435  0.3872  0.2617 -0.1506
 1035SOL    HW113074   3.331   3.361   2.506  0.5254 -1.9217 -0.6507
 1035SOL    HW213075   3.171   3.371   2.475  0.4256 -2.2078 -0.2222
 1036SOL     OW13076   1.849   2.415   0.894  0.6292 -0.5267  0.0631
 1036SOL    HW113077   1.843   2.465   0.808 -2.2677  0.2223  0.6406
 1036SOL    HW213078   1.868   2.479   0.968  1.5078 -0.9473  0.2099
 1037SOL     OW13079   1.225   1.864   0.510  0.2422 -0.5526  0.7365
 1037SOL    HW113080   1.279   1.804   0.451  2.1336  1.6893  0.1372
 1037SOL    HW213081   1.142   1.893   0.463 -0.8520 -2.9048  1.1480
 1038SOL     OW13082   1.482   5.550   2.715 -0.7333  0.1167  0.2640
 1038SOL    HW113083   1.565   5.535   2.660 -1.8683 -0.3338 -1.3517
 1038SOL    HW213084   1.463   5.648   2.721  0.6049  0.3175  1.7185
 1039SOL     OW13085   2.135   3.520   0.714 -0.5366  0.9135 -0.5132
 1039SOL    HW113086   2.083   3.439   0.687 -0.5317  0.9365 -0.5929
 1039SOL    HW213087   2.203   3.541   0.643 -0.4670  0.9250 -0.4434
 1040SOL     OW13088   2.711   2.875   0.958 -0.2977  0.5330 -0.7092
 1040SOL    HW113089   2.791   2.816   0.944  0.3820  0.7062  2.2449
 1040SOL    HW213090   2.695   2.929   0.875  2.8792  0.7479 -1.2502
 1041SOL     OW13091   2.214   5.704   2.419 -0.1793  0.6908 -0.0075
 1041SOL    HW113092   2.264   5.682   2.502  1.1423  1.4690 -0.5890
 1041SOL    HW213093   2.200   5.803   2.413 -2.0579  0.4632  0.2985
 1042SOL     OW13094   2.950   1.144   0.660 -0.4388  0.2231  0.1246
 1042SOL    HW113095   3.036   1.182   0.692  0.7918  1.0484 -3.8030
 1042SOL    HW213096   2.967   1.058   0.612 -2.1753 -1.0066  1.6146
 1043SOL     OW13097   2.770   6.922   1.887 -0.1503 -0.8098  0.0563
 1043SOL    HW113098   2.760   6.845   1.824  0.1329 -1.6106  0.9768
 1043SOL    HW213099   2.692   6.984   1.877 -0.4689 -1.3060 -0.5623
 1044SOL     OW13100   2.094   9.760   1.500  0.4686  0.1247 -0.1786
 1044SOL    HW113101   2.005   9.727   1.467 -0.6899  3.0596 -0.1196
 1044SOL    HW213102   2.158   9.766   1.424 -0.0592  0.0969 -0.6264
 1045SOL     OW13103   3.711   7.848   1.034 -0.0137  0.5892  0.5035
 1045SOL    HW113104   3.618   7.884   1.044  0.4660  1.8487  0.4424
 1045SOL    HW213105   3.713   7.752   1.065 -1.4343  0.3976  0.0274
 1046SOL     OW13106   2.551   0.684   0.187 -0.0979 -0.4860  0.3819
 1046SOL    HW113107   2.536   0.614   0.257 -1.9909  1.6528  2.1750
 1046SOL    HW213108   2.463   0.723   0.159  1.0342  2.1878  0.4708
 1047SOL     OW13109   3.463   1.927   2.700 -0.2142  0.1706  0.9145
 1047SOL    HW113110   3.430   1.834   2.683 -0.3270  0.6636 -1.6875
 1047SOL    HW213111   3.428   1.959   2.789 -2.0348 -1.4329  0.8024
 1048SOL     OW13112   3.730   0.223   2.826 -0.4461  0.4229 -0.2185
 1048SOL    HW113113   3.772   0.247   2.913  3.7002 -0.5266 -1.8178
 1048SOL    HW213114   3.666   0.147   2.839 -1.0603  1.3124  2.1770
 1049SOL     OW13115   1.287   7.615   2.297  0.2716  0.5723  0.7211
 1049SOL    HW113116   1.242   7.673   2.229 -0.8880 -0.7623  0.3172
 1049SOL    HW213117   1.231   7.534   2.313  2.1727 -0.7657  0.7799
 1050SOL     OW13118   2.704   5.706   0.442 -0.0524 -0.5691 -0.3861
 1050SOL    HW113119   2.767   5.730   0.368 -0.7909 -0.6795 -1.0530
 1050SOL    HW213120   2.688   5.607   0.441 -2.1112 -0.2537 -1.7351
 1051SOL     OW13121   1.505   7.256   1.789 -0.1401  0.7264  0.2231
 1051SOL    HW113122   1.574   7.203   1.838  1.6906  1.7953 -1.0991
 1051SOL    HW213123   1.474   7.332   1.846  0.9330  1.1365  0.2774
 1052SOL     OW13124   1.250   6.940   0.271  0.0616  0.0557  0.0162
 1052SOL    HW113125   1.347   6.917   0.263  0.0681  0.0960 -0.0185
 1052SOL    HW213126   1.231   7.023   0.219  0.4245  1.2171  1.6898
 1053SOL     OW13127   9.258   4.595   2.337 -0.0808  0.3755 -0.5298
 1053SOL    HW113128   9.242   4.526   2.408 -1.0862  1.9719  0.8264
 1053SOL    HW213129   9.280   4.682   2.380  2.5717  0.5980 -2.2539
 1054SOL     OW13130   2.928   5.931   1.180 -0.4055  0.2811  0.8028
 1054SOL    HW113131   2.988   5.918   1.101 -2.3392 -2.2584 -0.3396
 1054SOL    HW213132   2.981   5.918   1.264  0.6753 -2.0312 -0.1803
 1055SOL     OW13133   3.920   4.230   0.622  0.1274  0.5357 -0.4604
 1055SOL    HW113134   3.877   4.226   0.712  0.6232  0.0270 -0.2463
 1055SOL    HW213135   3.986   4.305   0.620 -0.6460  1.2132 -0.7374
 1056SOL     OW13136   3.017   7.752   1.373  0.3134 -0.4821  0.3626
 1056SOL    HW113137   2.931   7.710   1.345  0.1124  0.5516 -0.5907
 1056SOL    HW213138   3.015   7.849   1.352  1.9242 -0.5487 -0.1585
 1057SOL     OW13139   3.524   8.776   1.561  0.1841 -0.5062  0.1281
 1057SOL    HW113140   3.543   8.842   1.634  0.7778  1.7646 -1.9852
 1057SOL    HW213141   3.445   8.807   1.508  0.5349 -1.4594 -0.9682
 1058SOL     OW13142   2.973   7.702   0.025 -0.2501  0.3362 -0.1154
 1058SOL    HW113143   2.915   7.770   0.070 -0.0540 -0.3814  1.2529
 1058SOL    HW213144   3.001   7.633   0.092 -0.7124 -1.2766 -1.5343
 1059SOL     OW13145   2.129   6.082   2.552  0.3862 -0.5654  0.7878
 1059SOL    HW113146   2.075   6.165   2.543  0.1525 -0.8127 -0.1457
 1059SOL    HW213147   2.114   6.023   2.472  2.2292 -0.5068  0.3734
 1060SOL     OW13148   2.976   4.511   1.593 -0.2955 -0.0004  1.1156
 1060SOL    HW113149   3.023   4.533   1.678  2.8951 -1.2241 -0.2592
 1060SOL    HW213150   3.006   4.573   1.521 -1.0153 -0.6310  0.2564
 1061SOL     OW13151   1.946   6.320   0.485 -0.7607 -0.2200  0.2495
 1061SOL    HW113152   1.979   6.299   0.577  1.3134 -1.6989 -0.8057
 1061SOL    HW213153   1.937   6.235   0.433  0.8377  0.8539 -1.8184
 1062SOL     OW13154   3.379   1.459   2.108 -0.9960 -0.3653  0.1527
 1062SOL    HW113155   3.427   1.505   2.034  0.0072 -1.2975  0.2105
 1062SOL    HW213156   3.445   1.414   2.168 -1.8912 -0.9519  0.7140
 1063SOL     OW13157   2.221   4.207   2.434  0.1066  0.6089  0.7809
 1063SOL    HW113158   2.311   4.171   2.460  0.4234 -0.0291 -1.1262
 1063SOL    HW213159   2.203   4.292   2.485  2.7326  1.9052 -0.3645
 1064SOL     OW13160   1.634   7.966   0.972 -0.1387  0.2949  0.1562
 1064SOL    HW113161   1.615   7.911   0.891 -1.1655  2.1320 -0.8944
 1064SOL    HW213162   1.714   8.024   0.955 -0.4173  0.7610  0.4048
 1065SOL     OW13163   2.003   2.969   1.433 -0.3034  0.3682  0.2525
 1065SOL    HW113164   2.085   2.971   1.490 -0.5615 -0.8694  0.6712
 1065SOL    HW213165   2.018   2.908   1.355 -0.9740 -0.1631  0.5438
 1066SOL     OW13166   1.323   6.957   2.215  0.6732  0.6589  0.6199
 1066SOL    HW113167   1.361   7.036   2.167 -1.5468  0.6066 -1.3420
 1066SOL    HW213168   1.368   6.874   2.182  0.5169  0.7960  0.0538
 1067SOL     OW13169   1.514   3.098   2.734  0.3376 -0.5578  0.0090
 1067SOL    HW113170   1.572   3.050   2.800 -1.6362 -2.1540  0.6197
 1067SOL    HW213171   1.421   3.104   2.769 -0.6288 -0.9465 -2.3927
 1068SOL     OW13172   3.472   8.941   0.355  0.2575  0.2144  0.0975
 1068SOL    HW113173   3.553   8.908   0.308 -1.5105  1.8010 -4.3952
 1068SOL    HW213174   3.392   8.889   0.324 -1.1457  2.1476  0.3385
 1069SOL     OW13175   9.814   2.736   1.759 -0.3993  0.0213 -0.0746
 1069SOL    HW113176   9.745   2.794   1.801  0.0213 -0.3724  1.1762
 1069SOL    HW213177   9.838   2.772   1.669 -2.9922 -0.4232 -0.9860
 1070SOL     OW13178   0.996   4.505   0.808 -0.0441 -0.1273  0.0306
 1070SOL    HW113179   0.907   4.522   0.851 -0.5960 -0.7043 -0.8654
 1070SOL    HW213180   1.068   4.541   0.866 -0.8872  0.6718  0.6022
 1071SOL     OW13181   2.111   6.626   0.538 -0.5020 -0.5173  0.4076
 1071SOL    HW113182   2.144   6.590   0.625 -0.5421  0.9072  1.0215
 1071SOL    HW213183   2.182   6.682   0.496 -1.3221  0.7033  0.6445
 1072SOL     OW13184   3.454   0.514   0.743 -0.3746  0.3345  0.6521
 1072SOL    HW113185   3.547   0.524   0.780  0.1302  0.5545 -0.6419
 1072SOL    HW213186   3.453   0.441   0.674 -1.0139  0.7751  0.1898
 1073SOL     OW13187   3.830   2.710   2.434 -0.2907 -0.1386  0.0097
 1073SOL    HW113188   3.811   2.740   2.340 -1.5822  1.3079  0.7041
 1073SOL    HW213189   3.744   2.689   2.480  0.2040  0.8520  1.4171
 1074SOL     OW13190   1.924   2.901   2.824  0.4163 -0.3279  0.5073
 1074SOL    HW113191   1.841   2.855   2.794  1.2412 -0.4034 -1.7893
 1074SOL    HW213192   1.993   2.832   2.849  0.1729 -0.2796  1.3152
 1075SOL     OW13193   2.298   2.282   2.614  0.2338  0.1544 -0.2038
 1075SOL    HW113194   2.231   2.265   2.542 -2.1619  0.7203  1.7972
 1075SOL    HW213195   2.363   2.206   2.618 -1.4985 -1.4195 -0.9305
 1076SOL     OW13196   8.692   4.970   0.518 -0.2844  0.5279  0.4679
 1076SOL    HW113197   8.791   4.977   0.510 -0.4127  2.5360  0.1118
 1076SOL    HW213198   8.651   5.058   0.492 -2.1153 -0.0659  1.2492
 1077SOL     OW13199   1.504   5.627   0.952  0.3097 -0.4437 -0.0078
 1077SOL    HW113200   1.465   5.661   0.867 -0.6583 -0.7613  0.3001
 1077SOL    HW213201   1.604   5.636   0.950  0.2665 -0.2205 -1.0671
 1078SOL     OW13202   8.798   3.478   2.307  0.3013 -0.3516  0.0894
 1078SOL    HW113203   8.727   3.460   2.375  0.8188  0.6624  0.9312
 1078SOL    HW213204   8.759   3.476   2.215 -0.1992 -2.8181  0.3325
 1079SOL     OW13205   1.039   6.770   0.347  0.4531  0.4610 -0.0114
 1079SOL    HW113206   1.121   6.825   0.332  0.3213  0.5651 -0.3443
 1079SOL    HW213207   1.008   6.783   0.441  2.2182 -1.4733  0.8670
 1080SOL     OW13208   1.803   3.506   1.791  0.2050 -0.0817 -0.4224
 1080SOL    HW113209   1.872   3.455   1.844 -0.9578  1.1635  2.4314
 1080SOL    HW213210   1.731   3.444   1.762 -0.1899 -0.4809  1.3147
 1081SOL     OW13211   2.536   6.587   0.041  0.3910 -0.1600  0.6816
 1081SOL    HW113212   2.634   6.596   0.057  0.9834 -1.2370 -2.1136
 1081SOL    HW213213   2.512   6.490   0.040 -0.3794  0.0359 -0.3827
 1082SOL     OW13214   3.205   3.120   2.649 -0.0118  0.1820  0.6230
 1082SOL    HW113215   3.295   3.164   2.660  0.4276 -0.9617  1.9221
 1082SOL    HW213216   3.134   3.181   2.684  0.1407  1.5206 -1.3654
 1083SOL     OW13217   0.280   3.287   2.058  0.4313  0.0668  0.1233
 1083SOL    HW113218   0.286   3.192   2.027 -1.4142  0.5357 -1.7423
 1083SOL    HW213219   0.310   3.348   1.985 -0.1639  1.0143  0.6575
 1084SOL     OW13220   2.416   2.312   0.744  0.3768 -0.3228 -0.5550
 1084SOL    HW113221   2.426   2.222   0.703  2.6438  0.0400 -0.8736
 1084SOL    HW213222   2.332   2.316   0.797 -0.4485 -2.1594 -1.7113
 1085SOL     OW13223   2.414   8.790   0.574 -0.8645  0.0867 -0.4073
 1085SOL    HW113224   2.322   8.829   0.562 -0.5511  0.2749 -2.3886
 1085SOL    HW213225   2.480   8.864   0.588 -0.7402  0.0993 -1.0056
 1086SOL     OW13226   1.529   7.150   2.119  0.4137  0.4267 -0.0467
 1086SOL    HW113227   1.564   7.124   2.209 -0.0064 -0.4233 -0.1219
 1086SOL    HW213228   1.589   7.114   2.048  1.6537  2.5071 -0.0719
 1087SOL     OW13229   0.157   2.422   1.323 -0.1345 -0.2658  0.3216
 1087SOL    HW113230   0.248   2.420   1.364 -0.4713 -2.9379  0.9744
 1087SOL    HW213231   0.153   2.357   1.247 -1.0660  0.9561 -0.7167
 1088SOL     OW13232   2.573   3.606   0.845  0.2568 -0.1774  0.1193
 1088SOL    HW113233   2.671   3.616   0.864 -0.0002 -1.7685  2.3956
 1088SOL    HW213234   2.551   3.656   0.761  2.9119  0.6316 -0.1551
 1089SOL     OW13235   0.737   5.597   1.830  0.3504 -0.1364 -0.5613
 1089SOL    HW113236   0.809   5.641   1.777  1.0572  0.8193  1.1487
 1089SOL    HW213237   0.707   5.659   1.903 -1.2424 -1.0684 -0.4027
 1090SOL     OW13238   2.377   4.269   1.416  0.6868  0.0088  0.4561
 1090SOL    HW113239   2.443   4.343   1.402  0.3701  0.3643  0.8303
 1090SOL    HW213240   2.350   4.266   1.513  0.1842 -0.1576  0.3121
 1091SOL     OW13241   4.164   3.384   1.011  0.0951  0.5810 -0.1083
 1091SOL    HW113242   4.143   3.319   0.939  1.9188  0.8809 -0.9531
 1091SOL    HW213243   4.152   3.477   0.976 -0.1145  0.7145  0.3221
 1092SOL     OW13244   2.583   3.982   1.531 -0.1550  0.0703 -0.7153
 1092SOL    HW113245   2.563   4.039   1.452 -1.1437 -1.1944 -1.4008
 1092SOL    HW213246   2.621   3.895   1.501  2.8409  0.9480  0.4049
 1093SOL     OW13247   2.159   2.820   0.581  0.1976 -0.8760  0.0781
 1093SOL    HW113248   2.082   2.773   0.538 -1.5545 -0.3689  2.5760
 1093SOL    HW213249   2.159   2.802   0.679  2.8045 -0.1743  0.2567
 1094SOL     OW13250   2.371   3.007   1.277  0.1803  0.1099  0.1766
 1094SOL    HW113251   2.428   2.925   1.283 -0.4749 -0.3285  0.3483
 1094SOL    HW213252   2.404   3.064   1.202 -1.9773 -2.3283 -2.7624
 1095SOL     OW13253   3.931   3.257   2.090  0.4821 -0.1333  0.2181
 1095SOL    HW113254   3.988   3.272   2.170  1.9770 -2.9368 -0.2508
 1095SOL    HW213255   3.883   3.169   2.099 -1.2219  0.6464 -0.8849
 1096SOL     OW13256   2.553   2.025   0.860 -0.1701  0.3709  0.1067
 1096SOL    HW113257   2.640   2.045   0.905 -1.1747  1.7652  1.4910
 1096SOL    HW213258   2.558   2.052   0.764  0.5602  1.5158  0.4573
 1097SOL     OW13259   2.352   8.989   0.236 -0.0833  0.9425 -0.2341
 1097SOL    HW113260   2.300   8.904   0.223  3.2657 -1.5768  2.0298
 1097SOL    HW213261   2.325   9.032   0.322 -0.5071  1.2517 -0.5173
 1098SOL     OW13262   4.130   2.652   0.185  0.4852  0.3376 -0.2842
 1098SOL    HW113263   4.046   2.707   0.185  0.3262  0.1149 -2.0534
 1098SOL    HW213264   4.108   2.558   0.157  0.9524 -0.3657  1.5734
 1099SOL     OW13265   2.002   0.372   0.761 -0.5993 -0.0390 -0.6443
 1099SOL    HW113266   2.046   0.306   0.822 -1.6895 -0.2833 -0.0927
 1099SOL    HW213267   2.027   0.353   0.666  1.5900  0.7031 -0.2459
 1100SOL     OW13268   2.106   7.920   2.058 -0.6699 -0.2521 -0.3824
 1100SOL    HW113269   2.114   7.849   1.988  2.3743 -1.1506  0.7458
 1100SOL    HW213270   2.060   7.882   2.138  1.7066 -1.3189  0.5450
 1101SOL     OW13271   2.521   7.047   0.792  0.6924 -0.4033  0.0934
 1101SOL    HW113272   2.583   6.970   0.778 -0.1991 -0.7933 -1.9023
 1101SOL    HW213273   2.564   7.131   0.759  1.0595 -0.2919  0.8488
 1102SOL     OW13274   3.970   0.988   2.553 -0.2194 -0.3878  0.7004
 1102SOL    HW113275   3.963   0.904   2.500 -1.0906 -0.1710  0.4626
 1102SOL    HW213276   4.025   1.055   2.504  0.4999 -0.8274  0.9040
 1103SOL     OW13277   2.563   8.354   0.524  0.2217 -0.2057  0.1935
 1103SOL    HW113278   2.533   8.322   0.434 -0.0616  2.4739 -0.6937
 1103SOL    HW213279   2.654   8.396   0.516  1.0121 -1.5850  1.5217
 1104SOL     OW13280   2.832   8.515   1.343  0.0871  0.6587  0.0688
 1104SOL    HW113281   2.825   8.568   1.428 -0.2474  0.4051  0.2017
 1104SOL    HW213282   2.866   8.574   1.270 -1.2252  1.3162 -0.0246
 1105SOL     OW13283   0.068   3.064   1.318 -1.0430 -0.3144 -0.0634
 1105SOL    HW113284   0.160   3.037   1.289 -0.2277  2.0167  0.2954
 1105SOL    HW213285   0.024   3.116   1.245 -1.4217  0.0883  0.4473
 1106SOL     OW13286   1.966   5.394   0.484 -0.1583  0.3607  0.0763
 1106SOL    HW113287   1.962   5.365   0.579 -0.5239  1.5608  0.4275
 1106SOL    HW213288   1.892   5.350   0.433  0.3285 -0.6596  0.2318
 1107SOL     OW13289   2.054   2.103   1.407  0.9792 -0.3024 -0.2853
 1107SOL    HW113290   1.979   2.169   1.401  1.4457  0.2288 -0.2275
 1107SOL    HW213291   2.023   2.015   1.371  0.0107 -0.3628  0.6466
 1108SOL     OW13292   4.357   1.771   0.115  0.5230 -0.8263  0.3029
 1108SOL    HW113293   4.285   1.721   0.067 -1.1535  0.6658  1.2459
 1108SOL    HW213294   4.399   1.837   0.053  0.5392 -1.1180 -0.0002
 1109SOL     OW13295   1.614   3.502   1.334  0.1801  0.5035 -0.1973
 1109SOL    HW113296   1.540   3.439   1.309  0.1370  0.7446 -0.6871
 1109SOL    HW213297   1.593   3.593   1.298  0.2214  0.8074  0.5524
 1110SOL     OW13298   3.095   2.894   2.083  0.2687 -0.2516 -0.5810
 1110SOL    HW113299   3.125   2.945   2.002  1.9382 -1.5219 -0.7694
 1110SOL    HW213300   3.001   2.920   2.105 -0.1065  0.3155 -2.7559
 1111SOL     OW13301   1.682   4.380   1.665  0.6837 -0.5675 -0.3175
 1111SOL    HW113302   1.728   4.315   1.605 -1.8111 -1.0166 -1.8081
 1111SOL    HW213303   1.712   4.473   1.642  1.6196 -0.9091 -0.5243
 1112SOL     OW13304   1.161   6.685   0.088  0.7554  0.3068 -0.0871
 1112SOL    HW113305   1.073   6.694   0.042  1.2366 -3.2592 -1.8098
 1112SOL    HW213306   1.145   6.664   0.185 -0.2202  3.2408  0.4586
 1113SOL     OW13307   3.940   8.392   1.626  0.0313 -0.2182  0.1793
 1113SOL    HW113308   3.915   8.350   1.714 -0.6958 -0.2800 -0.0547
 1113SOL    HW213309   3.884   8.474   1.611  1.4503  0.8572  0.6424
 1114SOL     OW13310   1.258   5.993   1.774 -0.5926 -1.1939  0.2195
 1114SOL    HW113311   1.179   5.936   1.796 -1.5382  0.3591  0.8889
 1114SOL    HW213312   1.269   6.063   1.845 -0.0045  0.0530 -1.0858
 1115SOL     OW13313   2.318   2.715   2.215 -0.0095  0.1475  0.0386
 1115SOL    HW113314   2.304   2.715   2.314 -0.3006  1.6358  0.0127
 1115SOL    HW213315   2.233   2.688   2.169 -0.7895  2.4150  0.1073
 1116SOL     OW13316   1.150   6.435   0.568 -0.6675 -0.3947  0.0789
 1116SOL    HW113317   1.202   6.448   0.484 -1.3162 -1.3713 -0.4855
 1116SOL    HW213318   1.067   6.490   0.565 -0.1869  0.3554  0.5233
 1117SOL     OW13319   3.406   1.235   1.361  0.7169  0.1375  0.3094
 1117SOL    HW113320   3.420   1.272   1.453  0.2833 -0.3632  0.5818
 1117SOL    HW213321   3.388   1.310   1.297 -0.0685  0.4110  0.8438
 1118SOL     OW13322   4.456   1.390   1.708  0.0141  0.4050  0.9333
 1118SOL    HW113323   4.519   1.314   1.720 -0.0680 -0.3867 -2.9906
 1118SOL    HW213324   4.362   1.358   1.718 -0.0396 -0.1458 -1.2432
 1119SOL     OW13325   3.103   2.436   1.069  0.1272  0.2227  0.5954
 1119SOL    HW113326   3.168   2.367   1.098  0.0290 -0.7294 -1.3316
 1119SOL    HW213327   3.059   2.406   0.984 -0.1282  2.5101 -0.1161
 1120SOL     OW13328   2.513   8.068   2.371 -0.6707  0.1666  0.0682
 1120SOL    HW113329   2.588   8.100   2.313  0.6437 -0.3452  1.4805
 1120SOL    HW213330   2.456   8.004   2.319  0.4998 -0.2977 -0.6673
 1121SOL     OW13331   2.283   9.598   0.298 -0.3137 -0.6657  0.1859
 1121SOL    HW113332   2.363   9.638   0.343  0.3997 -1.9678  0.0965
 1121SOL    HW213333   2.220   9.671   0.271 -0.7385  0.1437  3.2370
 1122SOL     OW13334   4.456   1.409   1.409 -0.1120  0.0737 -0.1699
 1122SOL    HW113335   4.483   1.321   1.369 -0.1927  0.3198 -0.7734
 1122SOL    HW213336   4.463   1.404   1.509  0.2255 -0.5028 -0.2204
 1123SOL     OW13337   9.282   4.333   1.548 -0.0685  0.2053 -0.6611
 1123SOL    HW113338   9.376   4.303   1.529 -0.3761  0.3336 -2.5213
 1123SOL    HW213339   9.284   4.420   1.597  0.7875 -1.1101  1.7271
 1124SOL     OW13340   9.352   4.600   0.711  0.1083  0.0495  0.4671
 1124SOL    HW113341   9.360   4.520   0.771  0.1996 -0.6917 -0.5276
 1124SOL    HW213342   9.342   4.570   0.616 -0.3057  1.2128  0.1313
 1125SOL     OW13343   4.128   3.551   2.653  0.2170  0.1422  0.1749
 1125SOL    HW113344   4.220   3.582   2.632  0.5240 -0.1375  1.0785
 1125SOL    HW213345   4.082   3.621   2.709 -0.0417  0.1758 -0.0749
 1126SOL     OW13346   2.214   8.677   0.010 -0.6781 -0.4056 -0.2158
 1126SOL    HW113347   2.294   8.712   0.059 -0.6013 -0.5436 -0.2399
 1126SOL    HW213348   2.194   8.736  -0.068 -1.2920  0.2742  0.4488
 1127SOL     OW13349   4.190   0.855   0.191  0.2593 -0.8644 -0.0905
 1127SOL    HW113350   4.259   0.886   0.126 -1.8199 -1.5586 -2.7259
 1127SOL    HW213351   4.121   0.926   0.203  0.3797 -0.9283  1.0149
 1128SOL     OW13352   1.091   2.745   1.195  0.0968 -0.0164  0.4106
 1128SOL    HW113353   1.075   2.813   1.123  1.5009  2.2708  2.1584
 1128SOL    HW213354   1.009   2.735   1.251 -0.1168  0.2665  0.1492
 1129SOL     OW13355   2.667   0.143   0.125 -0.5296  0.1924 -0.1119
 1129SOL    HW113356   2.569   0.140   0.106 -0.5929  0.5751  0.1656
 1129SOL    HW213357   2.691   0.069   0.188 -0.8636  0.8898  0.8558
 1130SOL     OW13358   2.196   1.688   0.234 -0.2612 -0.3806  0.3560
 1130SOL    HW113359   2.189   1.766   0.171  2.0644  0.4832  1.1202
 1130SOL    HW213360   2.106   1.670   0.275 -0.5114  2.9919  1.4443
 1131SOL     OW13361   2.020   3.308   0.618 -0.5511  0.7734 -0.4062
 1131SOL    HW113362   1.979   3.226   0.658  1.3337 -0.5602 -1.1183
 1131SOL    HW213363   1.960   3.345   0.548 -1.6405  0.2876  0.2648
 1132SOL     OW13364   0.709   5.887   0.168  0.4437 -0.7691  0.1989
 1132SOL    HW113365   0.701   5.983   0.193  0.3526 -0.3745 -1.3305
 1132SOL    HW213366   0.650   5.832   0.227 -0.3994  0.2271  0.2901
 1133SOL     OW13367   3.644   7.744   2.824  0.0383  0.4127  0.3041
 1133SOL    HW113368   3.594   7.807   2.765  0.4765  0.1227 -0.3766
 1133SOL    HW213369   3.734   7.725   2.785 -0.8270 -2.2044 -0.5429
 1134SOL     OW13370   2.236   6.963   0.524  0.4768 -0.1599 -0.6798
 1134SOL    HW113371   2.245   7.055   0.486  2.7567  0.1275  0.4828
 1134SOL    HW213372   2.244   6.967   0.623 -0.0031 -1.5571 -0.5707
 1135SOL     OW13373   1.495   5.671   2.121  0.6283  0.6576 -0.3826
 1135SOL    HW113374   1.424   5.621   2.071  1.3453 -0.1217 -0.6413
 1135SOL    HW213375   1.478   5.664   2.219 -0.6689  2.0166 -0.4927
 1136SOL     OW13376   2.930   4.822   0.953 -0.0132  0.0536 -0.1729
 1136SOL    HW113377   2.898   4.732   0.983  0.5683  0.3632  1.4054
 1136SOL    HW213378   2.923   4.887   1.029  0.6891  1.0654 -0.9589
 1137SOL     OW13379   2.180   6.784   1.286  0.3867  0.1665  0.5191
 1137SOL    HW113380   2.160   6.765   1.190 -1.5010 -1.9045  1.2861
 1137SOL    HW213381   2.278   6.801   1.297  0.2948  2.8031 -2.1211
 1138SOL     OW13382   2.050   5.772   0.787 -0.0820 -0.3414 -0.2524
 1138SOL    HW113383   2.105   5.822   0.720  0.1799 -2.7686 -1.9230
 1138SOL    HW213384   2.087   5.786   0.879  1.3530  0.6647 -0.9735
 1139SOL     OW13385   0.580   2.537   1.307 -0.4412  0.4886  0.1861
 1139SOL    HW113386   0.577   2.580   1.217  1.7232  1.2007  0.4245
 1139SOL    HW213387   0.570   2.607   1.378  3.1769  0.7013  0.5760
 1140SOL     OW13388   9.942   5.355   2.090 -0.0712  0.9639  0.0373
 1140SOL    HW113389   9.952   5.397   2.180 -0.4241  0.7750  0.1665
 1140SOL    HW213390   9.958   5.256   2.098 -0.8679  0.8325  0.0322
 1141SOL     OW13391   3.510   4.027   1.925 -0.4535  0.0460 -0.0843
 1141SOL    HW113392   3.454   3.975   1.861  0.5357  0.8584 -1.6098
 1141SOL    HW213393   3.494   3.992   2.018 -0.1585 -2.6888 -1.0118
 1142SOL     OW13394   1.854   1.727   1.776 -0.3405  0.2783  0.0834
 1142SOL    HW113395   1.880   1.636   1.742 -1.7999 -0.8275  1.7671
 1142SOL    HW213396   1.903   1.746   1.861 -0.9866  0.4877  0.4165
 1143SOL     OW13397   0.970   5.675   2.155 -0.2727 -0.3727  0.2171
 1143SOL    HW113398   1.006   5.729   2.231 -1.2562 -0.4224  0.7419
 1143SOL    HW213399   1.007   5.582   2.159  0.3937 -0.1077  0.0967
 1144SOL     OW13400   1.368   4.940   2.516 -0.4656  0.5808  0.4291
 1144SOL    HW113401   1.446   4.946   2.454  0.2669  1.8639  1.4560
 1144SOL    HW213402   1.325   5.030   2.522 -2.1055 -0.1333 -0.2134
 1145SOL     OW13403   3.107   4.319   2.223 -0.0031  0.0180  0.1576
 1145SOL    HW113404   3.203   4.294   2.213 -0.6894 -2.9580  0.3630
 1145SOL    HW213405   3.090   4.347   2.318  0.9497  2.0367 -0.2478
 1146SOL     OW13406   3.197   7.934   0.629 -0.0532 -0.0400 -0.1605
 1146SOL    HW113407   3.223   7.914   0.723 -0.4820 -0.3114 -0.1010
 1146SOL    HW213408   3.206   7.852   0.573 -0.3566 -0.0246 -0.2337
 1147SOL     OW13409   2.998   8.793   0.844 -0.0425  1.0499 -0.0285
 1147SOL    HW113410   3.087   8.757   0.873 -0.3160 -0.2135 -0.7410
 1147SOL    HW213411   2.929   8.769   0.913  0.1591  2.0859  0.5562
 1148SOL     OW13412   1.921   8.025   2.241  0.6436 -0.3160  0.1092
 1148SOL    HW113413   1.898   7.928   2.250 -2.6416  0.2307 -1.3402
 1148SOL    HW213414   1.964   8.041   2.152 -1.0001 -0.1264 -0.6734
 1149SOL     OW13415   4.462   4.035   1.080  0.2803 -0.3898  0.6336
 1149SOL    HW113416   4.549   4.058   1.124 -0.1750 -0.1771  1.4215
 1149SOL    HW213417   4.386   4.069   1.136 -0.3456 -1.6578  0.5549
 1150SOL     OW13418   0.317   3.750   0.462 -0.0588 -0.7677  0.4170
 1150SOL    HW113419   0.361   3.813   0.526 -0.4043 -0.3330  0.2325
 1150SOL    HW213420   0.343   3.656   0.484  1.3815 -0.4866 -0.0192
 1151SOL     OW13421   1.187   4.369   1.689 -0.5048  0.0679 -0.0357
 1151SOL    HW113422   1.154   4.409   1.774 -0.9049 -0.0436 -0.1368
 1151SOL    HW213423   1.228   4.280   1.707 -0.9285 -0.1231 -0.0093
 1152SOL     OW13424   2.723   1.704   0.178 -0.4864  0.0581 -0.2405
 1152SOL    HW113425   2.702   1.801   0.174 -1.2074 -0.0980 -0.3737
 1152SOL    HW213426   2.639   1.651   0.164 -0.3199 -0.5848  1.1283
 1153SOL     OW13427   2.038   2.048   1.778 -0.1162 -0.2575  0.2186
 1153SOL    HW113428   2.022   2.078   1.684 -1.1420 -1.0337  0.1393
 1153SOL    HW213429   1.951   2.047   1.828  0.4889  0.6330  1.3303
 1154SOL     OW13430   3.987   9.344   0.060 -0.2571  0.7761 -0.1921
 1154SOL    HW113431   3.965   9.253   0.025 -0.5664  1.0455 -0.7100
 1154SOL    HW213432   4.033   9.336   0.148  0.5762  0.0762 -0.6791
 1155SOL     OW13433   1.615   4.979   1.501  0.3900 -0.7832 -0.2358
 1155SOL    HW113434   1.664   4.976   1.589 -2.0308  1.6974  1.2958
 1155SOL    HW213435   1.517   4.967   1.517 -0.0879 -0.2604 -2.6021
 1156SOL     OW13436   1.698   4.310   2.436  0.5302  0.0392  0.4110
 1156SOL    HW113437   1.628   4.364   2.390  1.6788 -0.3434 -1.8625
 1156SOL    HW213438   1.788   4.338   2.404  1.5426  1.1988  4.0139
 1157SOL     OW13439   1.233   7.517   0.975 -0.5969 -0.0650 -0.1004
 1157SOL    HW113440   1.177   7.592   1.010  0.2524 -0.4607  2.2006
 1157SOL    HW213441   1.280   7.472   1.051  0.3009 -1.8064 -1.6408
 1158SOL     OW13442   4.845   2.560   1.129  0.2126 -0.3539 -0.0103
 1158SOL    HW113443   4.823   2.657   1.133 -2.2826 -0.8994  0.6778
 1158SOL    HW213444   4.814   2.523   1.041  0.6642 -0.6178 -0.0564
 1159SOL     OW13445   4.036   0.719   2.421  0.5127  0.3495  0.1884
 1159SOL    HW113446   4.026   0.624   2.392  3.0162 -0.1531  0.8378
 1159SOL    HW213447   4.051   0.722   2.520 -1.5434  1.5728  0.4846
 1160SOL     OW13448   9.130   4.494   1.732  0.0860  0.1656  1.0974
 1160SOL    HW113449   9.059   4.551   1.773 -1.8706 -1.2575 -0.1996
 1160SOL    HW213450   9.103   4.398   1.740  1.9136 -0.3980  0.6403
 1161SOL     OW13451   2.737   1.741   2.416  0.0963  0.1659  0.0662
 1161SOL    HW113452   2.807   1.794   2.369  0.5572 -0.9270 -0.4723
 1161SOL    HW213453   2.779   1.687   2.489 -0.5692  1.6114  1.5488
 1162SOL     OW13454   2.142   7.251   2.232  0.0439  0.3979  0.4161
 1162SOL    HW113455   2.211   7.312   2.194  2.0056 -1.5709  0.7493
 1162SOL    HW213456   2.163   7.233   2.329 -0.3912 -0.9674  0.2674
 1163SOL     OW13457   3.202   8.494   0.659 -0.1494 -0.1408 -0.0922
 1163SOL    HW113458   3.220   8.574   0.717  0.1879 -1.3938  1.5368
 1163SOL    HW213459   3.266   8.495   0.582  0.2307  0.8530  0.2156
 1164SOL     OW13460   2.959   1.124   1.411 -0.1269  0.2767  0.2203
 1164SOL    HW113461   3.057   1.108   1.417 -0.1447 -0.1867 -0.6464
 1164SOL    HW213462   2.917   1.108   1.501  0.7862  1.9300  0.9595
 1165SOL     OW13463   0.598   2.348   2.421 -0.2292  0.0949 -0.4516
 1165SOL    HW113464   0.680   2.325   2.368  0.7271  2.5544 -0.0951
 1165SOL    HW213465   0.550   2.424   2.377 -1.7689 -0.6110 -0.0520
 1166SOL     OW13466   3.370   2.443   2.402 -0.7489 -1.1559 -0.1206
 1166SOL    HW113467   3.373   2.430   2.303 -1.9925 -0.2464 -0.2886
 1166SOL    HW213468   3.321   2.367   2.445  0.5525 -1.9934 -0.1148
 1167SOL     OW13469   2.367   3.389   0.302  0.1786 -0.0000  0.0831
 1167SOL    HW113470   2.323   3.420   0.217 -1.0533 -0.2655  0.6134
 1167SOL    HW213471   2.380   3.468   0.363 -0.2889 -0.0450  0.2441
 1168SOL     OW13472   3.358   0.683   0.307  0.0913 -0.8444 -0.1824
 1168SOL    HW113473   3.428   0.735   0.357 -0.0424 -0.4542 -0.3990
 1168SOL    HW213474   3.339   0.729   0.220 -2.3416  0.5023  1.0284
 1169SOL     OW13475   0.356   3.291   1.274  0.2776  0.0137  0.1846
 1169SOL    HW113476   0.342   3.270   1.371 -0.1848  0.1222  0.1455
 1169SOL    HW213477   0.282   3.351   1.243 -1.5751 -2.8490 -1.1241
 1170SOL     OW13478   4.259   1.211   1.593  0.5335 -0.1958  0.6435
 1170SOL    HW113479   4.320   1.225   1.515 -0.4609  2.4420  0.2999
 1170SOL    HW213480   4.165   1.199   1.561  0.7657 -4.0927  1.1810
 1171SOL     OW13481   3.783   1.373   0.857  0.5922 -0.8102  0.5419
 1171SOL    HW113482   3.817   1.457   0.897 -1.1671  0.6286 -0.8975
 1171SOL    HW213483   3.817   1.364   0.764 -2.3309  0.3318 -0.6932
 1172SOL     OW13484   2.412   5.801   1.372  0.3780  0.5194  0.6109
 1172SOL    HW113485   2.390   5.874   1.308  0.4794  0.2653  0.2822
 1172SOL    HW213486   2.329   5.772   1.420  0.0212 -0.2978 -0.4793
 1173SOL     OW13487   9.000   5.351   1.444  0.4880  0.6558  0.3527
 1173SOL    HW113488   9.075   5.397   1.396  1.2989  1.5102  2.3975
 1173SOL    HW213489   8.928   5.328   1.379  2.5805 -0.3408 -1.6940
 1174SOL     OW13490   2.881   5.986   1.931 -0.1936 -0.4479  0.3608
 1174SOL    HW113491   2.944   6.063   1.919 -0.2022 -0.4399  0.3649
 1174SOL    HW213492   2.825   6.001   2.012 -1.3317  0.3217 -0.5570
 1175SOL     OW13493   2.518   9.283   0.904 -0.2342  0.3448  0.8691
 1175SOL    HW113494   2.603   9.231   0.901 -1.3258 -1.3646 -0.8440
 1175SOL    HW213495   2.522   9.348   0.980  2.7863  0.6371  0.5195
 1176SOL     OW13496   1.219   5.315   1.400 -0.5994  0.9871  0.1910
 1176SOL    HW113497   1.134   5.307   1.349 -0.8453 -0.1276  0.7536
 1176SOL    HW213498   1.211   5.265   1.487  0.7495  0.5446  0.0774
 1177SOL     OW13499   1.417   5.301   1.890  0.2315  0.1149 -0.1688
 1177SOL    HW113500   1.402   5.399   1.898 -0.5962 -0.0589  0.4886
 1177SOL    HW213501   1.472   5.269   1.968  1.0509  0.1640 -0.7240
 1178SOL     OW13502   3.395   9.608   2.185  0.2147 -0.0847 -0.1672
 1178SOL    HW113503   3.445   9.674   2.129  1.1098 -1.2315 -0.7550
 1178SOL    HW213504   3.444   9.594   2.272  1.5095 -1.9729 -1.1671
 1179SOL     OW13505   1.535   2.283   2.453 -0.3761 -0.1631 -0.0720
 1179SOL    HW113506   1.510   2.196   2.412 -0.2026 -0.5260  0.5802
 1179SOL    HW213507   1.587   2.338   2.387 -0.0913 -0.7420 -0.3285
 1180SOL     OW13508   4.030   0.456   2.353 -0.1692  0.5520  0.0486
 1180SOL    HW113509   4.109   0.416   2.306 -0.4829 -1.8632  1.4432
 1180SOL    HW213510   3.946   0.428   2.307 -0.3363  0.7463  0.2354
 1181SOL     OW13511   9.622   4.618   0.369  0.4172  0.3244 -0.4686
 1181SOL    HW113512   9.667   4.707   0.367  2.1069 -0.5007  0.0225
 1181SOL    HW213513   9.525   4.630   0.393  0.0490  2.2241 -2.6715
 1182SOL     OW13514   4.135   1.207   0.384  0.0074 -0.2779 -0.2911
 1182SOL    HW113515   4.078   1.289   0.395 -3.3845 -2.8606  2.4287
 1182SOL    HW213516   4.078   1.131   0.355  2.1649 -2.8617  2.0423
 1183SOL     OW13517   3.378   8.969   2.076  0.1729  0.0666 -0.3074
 1183SOL    HW113518   3.319   9.046   2.099 -0.3638  0.4911 -3.0189
 1183SOL    HW213519   3.468   9.003   2.048  0.6785 -0.4269  0.6740
 1184SOL     OW13520   1.840   0.460   2.744  0.1398 -0.4503 -0.6187
 1184SOL    HW113521   1.828   0.472   2.645 -2.1090 -0.1900 -0.3469
 1184SOL    HW213522   1.879   0.544   2.782  0.0291 -0.1465 -1.1533
 1185SOL     OW13523   3.720   9.264   1.007 -0.0338  0.1990  0.1428
 1185SOL    HW113524   3.636   9.314   0.986  0.0859  0.0375 -0.7436
 1185SOL    HW213525   3.711   9.170   0.976  1.0109  0.5515 -1.3020
 1186SOL     OW13526   0.417   2.086   2.222  0.4219 -0.0686 -0.3601
 1186SOL    HW113527   0.394   2.125   2.133  2.6829  1.5038 -0.2862
 1186SOL    HW213528   0.467   2.000   2.208 -1.2897 -1.0463 -0.5650
 1187SOL     OW13529   3.176   6.917   0.441 -0.4257  0.0050 -0.4397
 1187SOL    HW113530   3.098   6.965   0.480 -1.0148 -0.6582 -0.7981
 1187SOL    HW213531   3.248   6.983   0.417  0.0664  0.4225  2.0176
 1188SOL     OW13532   1.612   0.826   1.327  0.5527 -0.2527  0.1608
 1188SOL    HW113533   1.535   0.882   1.296  0.1163 -1.4402 -0.9550
 1188SOL    HW213534   1.643   0.858   1.416  0.1193  1.5611 -0.3238
 1189SOL     OW13535   3.355   0.262   2.570 -0.1938 -0.5139 -0.1458
 1189SOL    HW113536   3.271   0.304   2.537 -1.5739 -2.2538  1.0468
 1189SOL    HW213537   3.394   0.318   2.644 -1.4176 -0.7371  0.6852
 1190SOL     OW13538   4.902   3.263   2.441  0.1661 -0.0439 -0.4571
 1190SOL    HW113539   4.940   3.228   2.355 -0.6256  0.8687 -1.1926
 1190SOL    HW213540   4.836   3.199   2.477 -0.6195  0.2570 -1.3312
 1191SOL     OW13541   0.665   2.385   2.699 -0.4872  0.4903  0.1075
 1191SOL    HW113542   0.713   2.315   2.647 -1.0811 -0.9916  1.5061
 1191SOL    HW213543   0.572   2.396   2.662 -1.0358 -0.8264  1.0414
 1192SOL     OW13544   0.881   5.944   2.019  0.6090  0.1319 -0.0155
 1192SOL    HW113545   0.792   5.902   2.006  1.4139 -0.8095 -2.6927
 1192SOL    HW213546   0.907   5.937   2.116 -0.9113 -2.1967  0.2579
 1193SOL     OW13547   2.515   0.652   2.235  0.2280  0.1018 -0.1445
 1193SOL    HW113548   2.593   0.620   2.182  0.1771  0.0849 -0.2093
 1193SOL    HW213549   2.433   0.600   2.209  0.6177 -1.3466  1.4163
 1194SOL     OW13550   0.112   4.870   1.801 -0.2634 -0.1197 -0.2113
 1194SOL    HW113551   0.056   4.944   1.764  0.4753  2.2749  3.2478
 1194SOL    HW213552   0.054   4.807   1.852 -0.0693  1.8493  2.5726
 1195SOL     OW13553   1.581   2.209   2.718 -0.0660  0.2370 -0.1571
 1195SOL    HW113554   1.581   2.302   2.757 -0.8238  0.3947 -0.5128
 1195SOL    HW213555   1.564   2.215   2.619 -0.1422 -0.2864 -0.1754
 1196SOL     OW13556   2.538   1.176   2.554  0.0283  0.4512 -0.0730
 1196SOL    HW113557   2.579   1.188   2.645 -0.4835 -0.7424  0.3291
 1196SOL    HW213558   2.480   1.094   2.554 -0.5989  0.8826 -1.2605
 1197SOL     OW13559   3.954   4.280   0.207  0.5257  0.5469 -0.2253
 1197SOL    HW113560   3.980   4.244   0.296 -0.0345  0.9532  0.1044
 1197SOL    HW213561   3.962   4.380   0.207 -2.7054  0.8687  0.4716
 1198SOL     OW13562   9.384   4.859   1.713 -0.2501 -0.0339  0.0489
 1198SOL    HW113563   9.354   4.946   1.751 -1.8359 -1.1448  1.4380
 1198SOL    HW213564   9.348   4.848   1.621  0.2592  0.9162 -0.2738
 1199SOL     OW13565   3.513   9.475   0.959  0.1613  0.1501 -0.3319
 1199SOL    HW113566   3.528   9.445   0.865  1.4256  0.8208 -0.3420
 1199SOL    HW213567   3.426   9.523   0.965 -0.1846 -0.3718 -1.0371
 1200SOL     OW13568   2.683   9.097   2.055 -0.1200 -1.1607 -0.4888
 1200SOL    HW113569   2.772   9.118   2.016 -0.0660 -0.5348 -0.0362
 1200SOL    HW213570   2.685   9.006   2.097  0.7641 -0.5124  0.8946
 1201SOL     OW13571   1.582   3.704   1.139  0.3292 -0.4844  0.1937
 1201SOL    HW113572   1.559   3.802   1.137 -1.6955 -0.9545 -2.9633
 1201SOL    HW213573   1.680   3.692   1.129  0.7505  1.2473  1.9558
 1202SOL     OW13574   2.712   2.341   0.084  0.8431 -0.4194  0.1159
 1202SOL    HW113575   2.662   2.306   0.163 -0.2997  0.7773 -0.0639
 1202SOL    HW213576   2.690   2.437   0.071  2.3969 -0.1429 -0.6034
 1203SOL     OW13577   2.139   1.969   0.128 -0.2281 -0.3477  0.5037
 1203SOL    HW113578   2.221   2.024   0.118 -0.0129 -0.4965  1.4255
 1203SOL    HW213579   2.097   1.955   0.038 -1.4143  3.0245  0.4280
 1204SOL     OW13580   9.134   3.813   1.272  0.0087  0.3220 -0.0501
 1204SOL    HW113581   9.160   3.876   1.344 -1.6613  1.4611 -0.4282
 1204SOL    HW213582   9.068   3.857   1.210 -1.3942 -1.8435 -0.1652
 1205SOL     OW13583   4.500   2.958   1.338 -0.2971  0.3443 -0.2897
 1205SOL    HW113584   4.507   3.002   1.427  0.3302  0.6979 -0.5122
 1205SOL    HW213585   4.567   2.998   1.275 -1.8831  1.3013 -1.4233
 1206SOL     OW13586   1.298   3.126   0.075  0.3958 -0.1081 -0.0428
 1206SOL    HW113587   1.291   3.086   0.166  2.1112  0.3655  0.3105
 1206SOL    HW213588   1.304   3.226   0.082 -0.2888 -0.0153 -0.7171
 1207SOL     OW13589   1.888   8.325   1.007 -0.4698  0.3954  0.4907
 1207SOL    HW113590   1.872   8.227   0.990 -2.1306  0.7217  0.0984
 1207SOL    HW213591   1.967   8.355   0.954  0.4352 -0.8712  1.0903
 1208SOL     OW13592   1.489   1.249   2.362 -0.0536 -0.0100  0.4263
 1208SOL    HW113593   1.574   1.229   2.313 -0.0948 -1.6103  0.9707
 1208SOL    HW213594   1.506   1.250   2.460 -0.6090 -0.0895  0.5266
 1209SOL     OW13595   3.321   4.601   1.392  1.4277 -0.1431  0.0613
 1209SOL    HW113596   3.381   4.538   1.343 -0.5544 -2.5081  0.5345
 1209SOL    HW213597   3.251   4.548   1.440  0.3470  2.4109  1.3654
 1210SOL     OW13598   2.345   3.309   1.339 -0.3032  0.2881 -0.1455
 1210SOL    HW113599   2.370   3.213   1.335 -1.6157 -0.1681  1.8921
 1210SOL    HW213600   2.246   3.319   1.325 -0.0759  1.3981 -1.0361
 1211SOL     OW13601   1.136   2.308   0.776 -0.0559  0.2754 -0.2194
 1211SOL    HW113602   1.109   2.305   0.680  0.7259  0.3357 -0.4463
 1211SOL    HW213603   1.174   2.220   0.803  0.2565  0.4362 -0.1257
 1212SOL     OW13604   2.154   9.918   0.684  0.2135 -0.1836  0.1693
 1212SOL    HW113605   2.221   9.976   0.638  0.6993 -0.3607  0.6506
 1212SOL    HW213606   2.193   9.884   0.769 -1.7376  2.5586  2.2194
 1213SOL     OW13607   4.643   3.019   0.519  0.0118  0.0346  0.0506
 1213SOL    HW113608   4.581   3.095   0.540  0.7405  0.6210  0.0947
 1213SOL    HW213609   4.696   3.040   0.437  0.5066 -0.2491  0.2911
 1214SOL     OW13610   2.808   9.714   0.862 -0.2202 -0.2481 -0.2877
 1214SOL    HW113611   2.721   9.721   0.814 -1.0909  2.0058  1.5182
 1214SOL    HW213612   2.881   9.748   0.804 -0.8511 -0.1737 -1.0391
 1215SOL     OW13613   3.348   9.922   2.229  0.0709  0.2484  0.0521
 1215SOL    HW113614   3.432   9.868   2.229  0.1143  0.2955 -1.2963
 1215SOL    HW213615   3.367  10.015   2.196 -0.4203  0.3923  0.1638
 1216SOL     OW13616   4.694   2.953   2.240  0.1075 -0.4238  0.8072
 1216SOL    HW113617   4.678   2.887   2.167  2.4892 -0.2607  0.0888
 1216SOL    HW213618   4.686   3.046   2.203  0.6697 -0.3381  0.9035
 1217SOL     OW13619   3.499   4.234   0.752 -0.3512 -0.0607 -0.1422
 1217SOL    HW113620   3.406   4.214   0.719  0.2585 -3.4216  0.0037
 1217SOL    HW213621   3.563   4.170   0.711  1.4576  0.1766  2.2430
 1218SOL     OW13622   2.858   0.352   1.746  0.7293 -0.4108 -0.3583
 1218SOL    HW113623   2.775   0.399   1.716  0.7201  0.7100  1.3566
 1218SOL    HW213624   2.888   0.391   1.833  0.9435 -3.3492  0.9240
 1219SOL     OW13625   1.649   6.259   1.264 -0.2550  0.0739  0.0152
 1219SOL    HW113626   1.590   6.202   1.206  0.7276  0.7456 -1.6772
 1219SOL    HW213627   1.595   6.335   1.301 -1.0384 -0.7008  0.4762
 1220SOL     OW13628   4.312   0.570   0.998  0.3321 -0.7002  0.0103
 1220SOL    HW113629   4.403   0.595   1.029  0.4381 -0.3235 -0.6045
 1220SOL    HW213630   4.245   0.636   1.032  0.4497 -0.2831 -0.5707
 1221SOL     OW13631   0.953   2.358   1.309  0.3218  0.8747 -0.2951
 1221SOL    HW113632   0.891   2.356   1.387  0.8750  0.3447  0.1307
 1221SOL    HW213633   0.919   2.424   1.241 -1.9649 -1.0660 -1.1044
 1222SOL     OW13634   3.073   4.036   2.334  0.7546  0.3637 -0.0352
 1222SOL    HW113635   3.102   4.127   2.304  2.6804 -0.8855 -2.1042
 1222SOL    HW213636   3.074   3.973   2.257 -0.9712 -1.3496  1.2782
 1223SOL     OW13637   4.193   4.847   0.497  0.7375 -0.0230  0.0838
 1223SOL    HW113638   4.213   4.866   0.401  1.2802  0.3672  0.2705
 1223SOL    HW213639   4.135   4.920   0.534  1.5408  0.4732  0.3808
 1224SOL     OW13640   1.886   2.749   0.491 -0.4146  0.5605  0.0812
 1224SOL    HW113641   1.863   2.672   0.431  2.4167 -0.6626  0.5104
 1224SOL    HW213642   1.832   2.829   0.465 -2.1998 -1.1073 -1.4319
 1225SOL     OW13643   0.727   4.069   0.786  0.3841 -0.2248  0.1036
 1225SOL    HW113644   0.652   4.121   0.826 -0.0708 -0.7081 -0.1242
 1225SOL    HW213645   0.701   4.038   0.695  1.0269 -0.0137 -0.1578
 1226SOL     OW13646   3.322   2.280   0.281 -0.2842  0.0640 -0.2484
 1226SOL    HW113647   3.255   2.315   0.215 -0.6885 -1.5352 -0.7166
 1226SOL    HW213648   3.275   2.220   0.346  0.6383 -0.7744 -0.3556
 1227SOL     OW13649   3.488   0.289   0.552  0.5980  0.5573  0.3291
 1227SOL    HW113650   3.403   0.239   0.570 -0.4952  2.0341 -0.5274
 1227SOL    HW213651   3.561   0.254   0.611 -0.8074 -0.2096  1.6661
 1228SOL     OW13652   2.253   5.083   2.012 -0.1169  0.0068 -1.1249
 1228SOL    HW113653   2.163   5.065   1.974 -0.5468  1.2922 -0.7499
 1228SOL    HW213654   2.306   4.999   2.015 -1.4436 -0.8344 -0.9920
 1229SOL     OW13655   0.380   2.282   1.144 -0.2404 -0.2361  0.1729
 1229SOL    HW113656   0.396   2.366   1.092 -0.0688 -0.6989 -0.5158
 1229SOL    HW213657   0.388   2.302   1.242  0.4985  0.4050 -0.0116
 1230SOL     OW13658   0.736   6.089   1.259  0.7006 -0.2552  0.4886
 1230SOL    HW113659   0.818   6.054   1.303 -1.3933 -2.7683  2.5685
 1230SOL    HW213660   0.698   6.020   1.198  0.4042  1.0565 -0.8275
 1231SOL     OW13661   2.774   8.208   0.204  0.1467  0.2471  0.2951
 1231SOL    HW113662   2.767   8.271   0.127 -1.7589 -1.8735 -1.3427
 1231SOL    HW213663   2.850   8.145   0.188 -1.0248 -0.9956 -0.5181
 1232SOL     OW13664   2.358   7.423   2.106  0.0019  0.1342 -0.1594
 1232SOL    HW113665   2.439   7.374   2.074 -0.3555  0.1034 -1.0378
 1232SOL    HW213666   2.366   7.520   2.084 -1.1284 -0.2064 -2.1610
 1233SOL     OW13667   3.581   1.787   2.492 -0.1552  0.0474 -0.1943
 1233SOL    HW113668   3.562   1.850   2.567 -0.1317  0.1044 -0.2362
 1233SOL    HW213669   3.576   1.836   2.405 -1.7170 -0.3386 -0.3370
 1234SOL     OW13670   1.807   7.932   0.617  0.2699 -0.2987  0.8101
 1234SOL    HW113671   1.736   7.898   0.679  0.8037 -0.4497  1.3390
 1234SOL    HW213672   1.868   7.994   0.666 -0.0018  0.5215  0.1424
 1235SOL     OW13673   9.949   3.823   1.081  0.3005 -0.0460  0.2441
 1235SOL    HW113674  10.019   3.751   1.086  0.6452  0.2606 -0.1682
 1235SOL    HW213675   9.973   3.897   1.143  0.9785  0.6129 -0.7968
 1236SOL     OW13676   3.142   8.402   1.469  0.5990  0.3929  0.3631
 1236SOL    HW113677   3.143   8.500   1.449  0.7249  0.2429 -0.4169
 1236SOL    HW213678   3.091   8.355   1.397 -1.7221  0.1559  2.1055
 1237SOL     OW13679   1.036   5.819   1.810 -0.7746 -0.1527  0.5995
 1237SOL    HW113680   0.985   5.782   1.732 -1.6838  0.2033  1.0089
 1237SOL    HW213681   0.971   5.846   1.881  0.0997 -1.6009  1.9732
 1238SOL     OW13682   9.751   4.132   1.232  0.7521  0.3923  0.0512
 1238SOL    HW113683   9.743   4.150   1.330 -2.1841 -2.0245  0.3605
 1238SOL    HW213684   9.834   4.080   1.214  1.0981  0.4929  1.3175
 1239SOL     OW13685   0.626   4.362   0.093 -0.0001 -0.0574  0.2802
 1239SOL    HW113686   0.717   4.371   0.133 -0.0039 -0.0485  0.2871
 1239SOL    HW213687   0.627   4.400   0.000 -0.4664  1.6665  0.9690
 1240SOL     OW13688   2.136   4.454   1.986 -0.0124  0.1918  0.4904
 1240SOL    HW113689   2.100   4.365   1.959  0.9221  0.0572 -0.2977
 1240SOL    HW213690   2.208   4.442   2.054  1.3113  0.2303 -0.8721
 1241SOL     OW13691   2.981   3.636   1.573 -0.4223 -0.2662 -0.1421
 1241SOL    HW113692   2.935   3.580   1.642 -0.8539  0.3339  0.0663
 1241SOL    HW213693   2.914   3.699   1.532 -0.1903 -0.7044 -1.1904
 1242SOL     OW13694   0.758   2.365   1.516  0.9145 -0.1498  0.0198
 1242SOL    HW113695   0.713   2.452   1.498  2.5986  0.5162 -1.0509
 1242SOL    HW213696   0.726   2.329   1.604 -0.3824  1.1612  0.1005
 1243SOL     OW13697   2.317   7.431   0.712  0.3809  0.0160  0.5727
 1243SOL    HW113698   2.258   7.453   0.789 -1.0005  1.1550 -0.7916
 1243SOL    HW213699   2.322   7.509   0.649  0.8397 -1.1785 -0.9074
 1244SOL     OW13700   1.684   3.739   1.860  0.3526 -0.0207 -0.3267
 1244SOL    HW113701   1.586   3.724   1.847 -0.1930  1.3016  2.0689
 1244SOL    HW213702   1.734   3.657   1.833 -1.4168 -0.8068 -1.3023
 1245SOL     OW13703   4.053   0.132   2.323 -0.0316 -0.5612 -0.0864
 1245SOL    HW113704   4.082   0.036   2.333 -1.3333 -0.9440  0.1556
 1245SOL    HW213705   4.034   0.170   2.413  0.3668 -0.1190 -0.1934
 1246SOL     OW13706   0.916   3.678   0.476 -0.8779  0.1957  0.6285
 1246SOL    HW113707   0.974   3.673   0.395 -0.8363  0.2636  0.6543
 1246SOL    HW213708   0.973   3.681   0.558 -0.9258 -0.3850  0.6871
 1247SOL     OW13709   1.917   3.694   2.413  0.1430  0.0726 -0.0542
 1247SOL    HW113710   1.999   3.733   2.455  0.8120 -0.7752 -0.5644
 1247SOL    HW213711   1.846   3.764   2.408  1.6516  1.5086 -1.8271
 1248SOL     OW13712   9.665   3.320   1.460  0.1378 -0.2955  0.0368
 1248SOL    HW113713   9.632   3.249   1.523 -0.9040 -0.1756 -0.3727
 1248SOL    HW213714   9.720   3.278   1.388  1.1123 -0.4665  0.8664
 1249SOL     OW13715   2.559   0.152   0.770 -0.2279 -0.2488  0.1922
 1249SOL    HW113716   2.574   0.197   0.858  1.8993  1.7023 -1.1056
 1249SOL    HW213717   2.469   0.175   0.735 -0.6720 -0.1698  1.3596
 1250SOL     OW13718   0.728   5.019   0.744  0.0062 -0.6820  0.0422
 1250SOL    HW113719   0.706   4.940   0.688  0.6845 -1.5184  0.9313
 1250SOL    HW213720   0.649   5.081   0.748 -1.0319 -2.0094  0.4824
 1251SOL     OW13721   2.147   9.809   2.090  1.2292 -0.3833  0.1356
 1251SOL    HW113722   2.178   9.826   1.996  0.7632  1.6812  0.3264
 1251SOL    HW213723   2.226   9.798   2.150  1.5883  1.2725 -0.0008
 1252SOL     OW13724   1.803   7.377   2.357 -0.0370  0.5473 -0.2815
 1252SOL    HW113725   1.844   7.287   2.337  0.0702  0.3069  0.9721
 1252SOL    HW213726   1.726   7.392   2.296 -0.8843 -0.9915  0.3626
 1253SOL     OW13727   9.677   3.586   1.494  0.0144 -0.2895 -0.8152
 1253SOL    HW113728   9.668   3.488   1.479 -1.1729 -0.1727 -0.8803
 1253SOL    HW213729   9.602   3.634   1.448  0.0440  0.5741  0.0335
 1254SOL     OW13730   1.702   0.374   1.684  0.3920 -0.1727  0.2004
 1254SOL    HW113731   1.783   0.324   1.655  1.1511  0.4217  1.2662
 1254SOL    HW213732   1.635   0.374   1.610  0.2614 -2.9639  0.2653
 1255SOL     OW13733   2.297   6.388   1.968  0.2193 -0.1951 -0.3610
 1255SOL    HW113734   2.289   6.346   2.058 -0.6103 -0.0137 -0.3449
 1255SOL    HW213735   2.346   6.475   1.975 -0.0081 -0.0927 -0.0568
 1256SOL     OW13736   3.266   2.890   0.174 -0.5076  0.2506  0.4691
 1256SOL    HW113737   3.210   2.880   0.256 -0.9141  2.3693  0.4642
 1256SOL    HW213738   3.362   2.901   0.200 -0.8746  2.9500  0.7839
 1257SOL     OW13739   9.640   3.654   0.654  0.1703 -0.0124 -0.3498
 1257SOL    HW113740   9.582   3.575   0.637 -3.0117  1.9643  1.0050
 1257SOL    HW213741   9.683   3.645   0.744  0.2556 -0.4516 -0.4342
 1258SOL     OW13742   1.581   6.768   1.826 -0.0331  0.2913  0.0072
 1258SOL    HW113743   1.614   6.698   1.763 -0.9342  0.9330 -1.2288
 1258SOL    HW213744   1.515   6.826   1.778 -0.7072  0.8254  1.5503
 1259SOL     OW13745   1.465   6.734   2.078 -0.1694 -0.4302 -0.2630
 1259SOL    HW113746   1.537   6.790   2.037  0.9911 -1.7057 -0.0209
 1259SOL    HW213747   1.410   6.692   2.006 -0.5371  0.3914 -0.4544
 1260SOL     OW13748   3.369   9.563   0.218 -0.2979 -0.7199 -0.1482
 1260SOL    HW113749   3.345   9.659   0.231  1.0912 -0.2570 -0.9021
 1260SOL    HW213750   3.400   9.524   0.305  2.6171  0.5423 -0.5646
 1261SOL     OW13751   3.265   9.863   0.570 -0.0052 -0.2269  0.5352
 1261SOL    HW113752   3.251   9.953   0.610  0.5781  0.3965 -0.6263
 1261SOL    HW213753   3.328   9.811   0.628 -0.1085  0.2187  1.0571
 1262SOL     OW13754   3.615   0.753   1.954  0.1462  0.1134 -0.4993
 1262SOL    HW113755   3.655   0.728   2.042 -1.7594  1.3632  0.7542
 1262SOL    HW213756   3.605   0.671   1.897  0.2831 -0.8962  0.9159
 1263SOL     OW13757   0.818   2.321   2.224 -0.1004 -0.2083 -0.4736
 1263SOL    HW113758   0.900   2.376   2.244  0.1079 -0.6145 -0.1926
 1263SOL    HW213759   0.828   2.279   2.134 -0.1123 -0.0509 -0.5484
 1264SOL     OW13760   2.123   5.602   1.024 -0.7453  0.2017 -0.3166
 1264SOL    HW113761   2.214   5.628   1.057 -0.9575  0.8578 -0.2383
 1264SOL    HW213762   2.123   5.505   1.000 -1.0451 -0.7601  3.2759
 1265SOL     OW13763   2.102   4.300   1.259 -0.5925 -0.0287  0.0251
 1265SOL    HW113764   2.197   4.328   1.272 -1.1120  1.3439  0.8583
 1265SOL    HW213765   2.100   4.213   1.208  1.1249 -0.5271  0.7759
 1266SOL     OW13766   8.704   4.341   0.627  0.4739  0.3439 -0.2598
 1266SOL    HW113767   8.717   4.440   0.633  0.7037  0.2531  0.7662
 1266SOL    HW213768   8.722   4.311   0.533  0.7923  1.2180 -0.4829
 1267SOL     OW13769   3.119   7.257   0.546 -0.0682  0.1539 -0.1988
 1267SOL    HW113770   3.044   7.281   0.607 -0.6565 -2.5554  0.2100
 1267SOL    HW213771   3.092   7.276   0.451 -1.2334 -0.6674 -0.0444
 1268SOL     OW13772   3.925   4.552   1.161 -0.5079  0.3698 -0.0575
 1268SOL    HW113773   3.855   4.482   1.169  0.3725 -0.3403  1.7216
 1268SOL    HW213774   3.919   4.615   1.238  0.8560  0.2431  0.1726
 1269SOL     OW13775   9.559   5.161   0.425 -0.0830 -0.1281 -0.0246
 1269SOL    HW113776   9.602   5.080   0.383 -2.3288 -2.1023  1.3263
 1269SOL    HW213777   9.462   5.141   0.441 -0.7787  3.0524 -0.0854
 1270SOL     OW13778   9.323   4.808   2.522  0.1195  0.5208 -0.1928
 1270SOL    HW113779   9.375   4.893   2.513  0.9915 -0.0107 -0.3116
 1270SOL    HW213780   9.308   4.788   2.619  0.6253  0.4014 -0.1335
 1271SOL     OW13781   2.618   5.928   0.847 -0.0671  0.0102 -0.3089
 1271SOL    HW113782   2.626   5.883   0.936  1.1207  0.1973 -0.3159
 1271SOL    HW213783   2.690   5.894   0.786 -1.1887 -0.5044 -1.3754
 1272SOL     OW13784   3.196   9.298   2.441  0.0291 -0.1458  0.1644
 1272SOL    HW113785   3.166   9.393   2.432  0.3243  0.2590  3.1750
 1272SOL    HW213786   3.238   9.268   2.355 -0.1484  2.3985 -0.8423
 1273SOL     OW13787   3.674   3.610   2.517  0.2022  0.2543  0.5450
 1273SOL    HW113788   3.739   3.562   2.457 -1.3514  1.6274 -2.3810
 1273SOL    HW213789   3.705   3.705   2.529 -0.7839  0.6902 -0.2171
 1274SOL     OW13790   3.386   0.187   0.954 -0.1529 -0.6899  0.0447
 1274SOL    HW113791   3.378   0.115   1.023  0.0614 -2.3836 -1.6735
 1274SOL    HW213792   3.483   0.202   0.933 -0.0859  1.3027  1.6002
 1275SOL     OW13793   2.464   0.367   0.415 -0.1123  0.1127  0.6539
 1275SOL    HW113794   2.549   0.340   0.370 -0.3342 -0.1137  0.3615
 1275SOL    HW213795   2.481   0.443   0.477  0.3061  0.0550  0.6093
 1276SOL     OW13796   3.198   8.293   1.204  0.3914  0.2066  0.0796
 1276SOL    HW113797   3.125   8.245   1.155 -0.3950 -0.3656  1.7573
 1276SOL    HW213798   3.185   8.392   1.197 -0.0010  0.1157 -0.4275
 1277SOL     OW13799   2.784   9.683   2.036  0.4084  0.0573  0.9052
 1277SOL    HW113800   2.877   9.646   2.036  0.4136  0.0058 -0.6588
 1277SOL    HW213801   2.786   9.776   2.001 -0.2369 -0.2749 -0.0327
 1278SOL     OW13802   0.545   5.216   1.599 -0.3381 -0.1046  0.1849
 1278SOL    HW113803   0.475   5.232   1.529 -0.8884  0.2227  0.8084
 1278SOL    HW213804   0.553   5.118   1.617 -0.8069 -0.1249  0.2862
 1279SOL     OW13805   0.013   2.812   0.127  0.2595  0.3794  0.4153
 1279SOL    HW113806   0.018   2.732   0.187 -1.5924  1.2349  1.7576
 1279SOL    HW213807   0.104   2.834   0.093  0.7498 -2.4727 -0.2255
 1280SOL     OW13808   3.394   0.446   1.011  0.5403  0.5401  0.3470
 1280SOL    HW113809   3.368   0.352   0.990  1.2937  0.2803  0.5828
 1280SOL    HW213810   3.395   0.500   0.926 -4.4077  1.4976  0.7230
 1281SOL     OW13811   2.897   6.867   1.364 -0.1980  0.1445 -0.0727
 1281SOL    HW113812   2.895   6.769   1.347  0.2287  0.3403 -1.2847
 1281SOL    HW213813   2.977   6.907   1.320 -0.6125  1.1032  0.0286
 1282SOL     OW13814   2.216   2.987   2.590  0.0580  0.1549  0.0600
 1282SOL    HW113815   2.126   2.944   2.591 -0.5967  1.5164  0.5470
 1282SOL    HW213816   2.206   3.086   2.579  1.4786  0.3529  0.4053
 1283SOL     OW13817   4.633   2.050   1.326  0.1408  0.0861  0.9625
 1283SOL    HW113818   4.573   2.125   1.354  0.2094 -0.2677  2.0717
 1283SOL    HW213819   4.712   2.046   1.387  0.9291  0.0878 -0.0447
 1284SOL     OW13820   3.410   4.952   1.046 -0.2033  0.0246 -0.5058
 1284SOL    HW113821   3.419   4.871   0.989 -0.4006 -0.0430 -0.4430
 1284SOL    HW213822   3.327   4.945   1.101  0.2140 -0.1130  0.1132
 1285SOL     OW13823   3.095   0.683   1.710  0.1497 -0.6617  0.1768
 1285SOL    HW113824   3.191   0.697   1.685  0.0591  1.3197  0.8075
 1285SOL    HW213825   3.083   0.696   1.808 -0.9729  0.4335 -0.0869
 1286SOL     OW13826   3.419   9.148   0.815  0.0821  0.3721 -0.3885
 1286SOL    HW113827   3.382   9.066   0.771  0.7094  0.6209 -1.3927
 1286SOL    HW213828   3.446   9.214   0.745  1.4194  0.6355  0.3552
 1287SOL     OW13829   1.803   9.751   1.439 -0.2077 -0.1487 -0.2189
 1287SOL    HW113830   1.845   9.830   1.393 -0.6507  1.0784  1.4482
 1287SOL    HW213831   1.707   9.771   1.457  0.2319 -0.1719  2.2291
 1288SOL     OW13832   9.950   3.094   0.788  0.1246  0.1531  0.1323
 1288SOL    HW113833   9.962   3.178   0.734 -1.1999  0.3385  0.1125
 1288SOL    HW213834   9.985   3.109   0.881  0.5804  0.4759 -0.0873
 1289SOL     OW13835   3.615   3.616   2.106  0.2647  0.1168  0.1645
 1289SOL    HW113836   3.671   3.579   2.181 -1.3991 -0.2366  1.2464
 1289SOL    HW213837   3.580   3.541   2.050  0.7508  0.3318 -0.4356
 1290SOL     OW13838   1.829   4.165   1.139  0.2501  0.1952  0.2362
 1290SOL    HW113839   1.744   4.116   1.155  0.5116 -0.2977  0.1233
 1290SOL    HW213840   1.813   4.240   1.074 -0.1197  0.1830  0.3122
 1291SOL     OW13841   2.287   1.043   0.491  0.7937  0.1542 -0.0273
 1291SOL    HW113842   2.213   1.014   0.551 -0.1778 -0.7003 -1.6000
 1291SOL    HW213843   2.298   1.142   0.496  0.0858  0.1904  0.8280
 1292SOL     OW13844   3.699   2.637   0.397  0.3757  0.0263 -0.4460
 1292SOL    HW113845   3.668   2.674   0.485  0.2425  0.8671 -0.8369
 1292SOL    HW213846   3.645   2.556   0.374 -0.0733  0.2224 -0.0907
 1293SOL     OW13847   2.514   0.226   1.564  0.1070 -0.0051 -0.5312
 1293SOL    HW113848   2.493   0.273   1.650 -1.6758  0.2425 -1.0762
 1293SOL    HW213849   2.495   0.288   1.487 -2.9537 -1.7729 -1.3000
 1294SOL     OW13850   2.825   0.432   2.479 -0.0348 -0.0945 -0.1304
 1294SOL    HW113851   2.727   0.413   2.469 -0.0551 -1.0005  1.7253
 1294SOL    HW213852   2.837   0.519   2.527  0.0450 -1.6535  2.7448
 1295SOL     OW13853   2.264   1.243   0.219 -0.0903 -0.3509  0.3870
 1295SOL    HW113854   2.236   1.290   0.303  0.1282  0.7022 -0.1238
 1295SOL    HW213855   2.288   1.310   0.149  0.4191 -1.2287 -0.2957
 1296SOL     OW13856   0.217   4.968   0.129 -0.0912  0.4163 -0.3762
 1296SOL    HW113857   0.145   4.965   0.059  0.1748  0.4177 -0.6471
 1296SOL    HW213858   0.180   5.010   0.212 -0.2719  0.8320 -0.6666
 1297SOL     OW13859   2.148   8.884   0.579  0.3472  0.2554 -0.0583
 1297SOL    HW113860   2.171   8.967   0.631 -0.8805 -0.2578  1.3768
 1297SOL    HW213861   2.102   8.820   0.640  2.8283 -2.2177 -0.7282
 1298SOL     OW13862   2.839   3.894   1.019 -0.5877 -0.0806 -0.0191
 1298SOL    HW113863   2.928   3.940   1.013  0.0378 -0.9197  2.2450
 1298SOL    HW213864   2.834   3.822   0.950  0.2063  0.4492 -0.6389
 1299SOL     OW13865   2.570   3.076   0.812 -0.2032 -0.1192 -0.3552
 1299SOL    HW113866   2.530   3.088   0.903 -0.0231  1.7199 -0.5142
 1299SOL    HW213867   2.498   3.051   0.747 -0.3386 -1.3850  0.2745
 1300SOL     OW13868   1.553   4.819   1.916  0.2603  0.0173 -0.2221
 1300SOL    HW113869   1.589   4.904   1.954  1.0305 -1.2238  1.8750
 1300SOL    HW213870   1.609   4.791   1.838  1.0182  0.5294  0.1376
 1301SOL     OW13871   4.265   2.590   1.718 -0.0437 -0.0935  0.0527
 1301SOL    HW113872   4.189   2.590   1.653  0.2352 -0.8131 -0.2829
 1301SOL    HW213873   4.251   2.662   1.786  0.6454  1.9542 -1.9092
 1302SOL     OW13874   5.017   3.897   2.560  0.5802 -0.0013  0.1428
 1302SOL    HW113875   5.052   3.881   2.652  2.3210 -0.6560 -0.6209
 1302SOL    HW213876   5.032   3.992   2.534 -0.3630  0.3123  0.7062
 1303SOL     OW13877   3.059   8.575   0.286 -0.6134  0.2798 -0.3226
 1303SOL    HW113878   3.026   8.660   0.327  2.1902 -1.0438  5.2597
 1303SOL    HW213879   3.020   8.497   0.335  3.1225 -1.4145  0.1985
 1304SOL     OW13880   3.152   3.978   1.254 -0.3136 -0.0168  0.3695
 1304SOL    HW113881   3.223   4.008   1.318 -0.1246 -0.6167  0.4444
 1304SOL    HW213882   3.073   4.039   1.261  0.2527  0.7573  0.1693
 1305SOL     OW13883   3.395   2.938   2.061 -0.4875 -0.6191 -0.2018
 1305SOL    HW113884   3.440   2.958   2.148  0.1924 -0.5362 -0.5682
 1305SOL    HW213885   3.325   2.868   2.075 -0.2882 -0.7075  0.3827
 1306SOL     OW13886   9.936   3.660   0.123  0.4462  0.3809  0.6699
 1306SOL    HW113887  10.006   3.640   0.192  2.2525  1.5565 -0.7595
 1306SOL    HW213888   9.964   3.740   0.070 -1.4847  0.2018 -0.6523
 1307SOL     OW13889   3.579   1.339   2.235 -0.1135  0.0194 -0.2545
 1307SOL    HW113890   3.640   1.260   2.232 -3.1906 -2.4561 -0.5362
 1307SOL    HW213891   3.549   1.354   2.330 -1.0434 -0.4041 -0.4726
 1308SOL     OW13892   3.470   8.833   1.106 -0.0299 -0.4802 -0.4643
 1308SOL    HW113893   3.479   8.734   1.113  0.0810 -0.4783 -0.5940
 1308SOL    HW213894   3.386   8.862   1.152 -1.1789 -0.8766 -2.2539
 1309SOL     OW13895   0.749   5.364   1.469 -0.2002  0.1714  0.0465
 1309SOL    HW113896   0.685   5.311   1.526 -0.9108  1.2379  0.2497
 1309SOL    HW213897   0.808   5.301   1.419 -0.4481 -0.8046  0.9594
 1310SOL     OW13898   2.856   7.190   2.308 -0.3466  0.6519  0.4001
 1310SOL    HW113899   2.900   7.101   2.299  1.9613  1.7482  0.6628
 1310SOL    HW213900   2.882   7.248   2.231 -1.0796  1.4172  0.7199
 1311SOL     OW13901   4.115   8.662   0.489 -0.4970  0.7833 -0.2044
 1311SOL    HW113902   4.166   8.582   0.520 -0.8189  0.3067 -0.8896
 1311SOL    HW213903   4.042   8.683   0.554 -1.2855 -0.3212 -0.7183
 1312SOL     OW13904   4.065   1.068   1.431  0.1497 -0.3476 -0.0371
 1312SOL    HW113905   3.994   1.126   1.390  0.6644 -0.9788 -1.9047
 1312SOL    HW213906   4.022   0.997   1.487 -0.5452  0.9779  1.1331
 1313SOL     OW13907   2.236   0.459   2.044  0.1037 -0.1985 -0.2172
 1313SOL    HW113908   2.252   0.361   2.054  0.4639 -0.0665  0.5158
 1313SOL    HW213909   2.167   0.489   2.110  0.5996  0.1961  0.1249
 1314SOL     OW13910   2.946   0.837   1.317 -0.0333  0.3215 -0.1157
 1314SOL    HW113911   2.998   0.880   1.243  1.5633  0.2605  0.9481
 1314SOL    HW213912   2.968   0.880   1.404 -1.7580  0.2642  0.3750
 1315SOL     OW13913   1.592   4.127   0.291 -0.0565 -0.0299  0.8667
 1315SOL    HW113914   1.678   4.076   0.289  0.6619  1.1299  1.8463
 1315SOL    HW213915   1.516   4.062   0.295  0.6761 -1.0997 -1.5712
 1316SOL     OW13916   2.392   9.815   2.232 -0.2580 -0.2306  0.6064
 1316SOL    HW113917   2.446   9.795   2.150 -1.4664 -0.8738 -0.0435
 1316SOL    HW213918   2.447   9.794   2.313  0.8826  0.2494 -0.0272
 1317SOL     OW13919   3.809   4.916   0.994 -0.1318  0.0468  0.0708
 1317SOL    HW113920   3.751   4.839   1.022  0.0049  0.4737  1.6048
 1317SOL    HW213921   3.852   4.955   1.075  1.6091  0.2941 -0.9539
 1318SOL     OW13922   3.039   4.268   0.118 -0.5893 -0.3256  0.8159
 1318SOL    HW113923   3.024   4.357   0.161 -4.4975 -0.3079 -0.3883
 1318SOL    HW213924   3.004   4.270   0.024  0.1073 -2.8531  0.4641
 1319SOL     OW13925   2.615   9.664   0.038  0.1234  0.4005 -0.6520
 1319SOL    HW113926   2.703   9.681   0.082 -0.1080  1.7026 -0.6471
 1319SOL    HW213927   2.588   9.569   0.052 -0.2046  0.9234  2.5081
 1320SOL     OW13928   9.338   3.482   0.941 -0.3834  0.0708 -0.2158
 1320SOL    HW113929   9.418   3.430   0.972  1.3450  1.6132 -1.9295
 1320SOL    HW213930   9.318   3.554   1.007 -1.3443 -1.2725  0.9921
 1321SOL     OW13931   1.655   4.600   1.282  0.3644  0.5763 -0.0186
 1321SOL    HW113932   1.567   4.554   1.295  0.3545  0.8813  1.0451
 1321SOL    HW213933   1.729   4.541   1.313  0.3090  1.4810  1.8952
 1322SOL     OW13934   0.813   6.347   2.575  0.0395  0.3385 -0.1131
 1322SOL    HW113935   0.728   6.380   2.535  1.1919  2.0696 -1.1966
 1322SOL    HW213936   0.824   6.384   2.667 -0.5817 -0.2494  0.2035
 1323SOL     OW13937   2.310   0.772   0.097 -0.5322  0.1561  0.6151
 1323SOL    HW113938   2.243   0.704   0.068 -0.8258  1.1482 -1.1768
 1323SOL    HW213939   2.265   0.840   0.156 -0.4632 -0.6661  1.6158
 1324SOL     OW13940   2.814   1.823   0.594  0.1790 -0.1116  0.1406
 1324SOL    HW113941   2.853   1.751   0.536  0.3094 -0.4796  0.6834
 1324SOL    HW213942   2.816   1.793   0.689  1.3953  1.1125  0.5136
 1325SOL     OW13943   2.058   7.421   0.167 -0.3406  0.5999  0.5147
 1325SOL    HW113944   2.035   7.519   0.166  1.8282  1.1503  0.9863
 1325SOL    HW213945   2.028   7.381   0.253 -3.1184  0.3412 -0.5300
 1326SOL     OW13946   2.315   8.762   1.800 -0.2182  0.1574 -0.1855
 1326SOL    HW113947   2.298   8.732   1.706 -0.3490 -1.2601  0.2889
 1326SOL    HW213948   2.374   8.844   1.799 -2.1881  1.5878 -1.5843
 1327SOL     OW13949   1.318   7.382   0.290 -0.2918 -0.2914 -0.1462
 1327SOL    HW113950   1.386   7.432   0.235 -0.7410 -0.6236 -1.0188
 1327SOL    HW213951   1.255   7.448   0.332  0.2003 -0.0171  0.1674
 1328SOL     OW13952   2.280   1.291   1.839  0.7191 -0.0770  0.2025
 1328SOL    HW113953   2.317   1.269   1.930 -2.2528 -1.5076  1.1209
 1328SOL    HW213954   2.213   1.222   1.813 -2.2875  3.1224 -0.8199
 1329SOL     OW13955   3.512   3.475   1.339  0.1961  0.2006 -0.3866
 1329SOL    HW113956   3.457   3.557   1.324 -1.4416 -1.0087 -1.1300
 1329SOL    HW213957   3.496   3.439   1.431  0.0796  0.1002 -0.4459
 1330SOL     OW13958   1.629   1.370   0.632  0.5733 -0.3335  0.3698
 1330SOL    HW113959   1.575   1.286   0.642  0.6660 -0.3970  0.3423
 1330SOL    HW213960   1.599   1.437   0.700 -3.1341  1.5741 -2.9565
 1331SOL     OW13961   4.285   4.362   0.171  0.4394 -0.1457  0.3109
 1331SOL    HW113962   4.259   4.416   0.250  0.6057 -0.1996  0.4042
 1331SOL    HW213963   4.357   4.297   0.198  2.8736  2.0725 -0.6370
 1332SOL     OW13964   3.217   0.878   1.106  0.3935 -0.4227 -0.2455
 1332SOL    HW113965   3.158   0.899   1.028  2.1010  0.1683 -1.4072
 1332SOL    HW213966   3.205   0.782   1.132 -2.7618  0.2518  1.0246
 1333SOL     OW13967   0.530   2.294   0.276  0.5511  0.2349 -0.0794
 1333SOL    HW113968   0.536   2.382   0.230 -0.4389  0.0872 -0.5211
 1333SOL    HW213969   0.606   2.283   0.340  0.7163  1.3682 -0.0857
 1334SOL     OW13970   2.008   7.114   0.908  0.2225 -0.0156  0.0802
 1334SOL    HW113971   2.097   7.112   0.864  0.3382 -3.7338  0.3431
 1334SOL    HW213972   1.942   7.062   0.853 -1.6545  2.1433  0.2084
 1335SOL     OW13973   2.961   5.047   2.823  0.4780  0.2666  0.0042
 1335SOL    HW113974   3.024   5.113   2.784 -1.7835  1.2294 -2.1018
 1335SOL    HW213975   2.916   5.087   2.903  1.7691 -0.0633  0.9076
 1336SOL     OW13976   2.891   6.595   1.323 -0.0851  0.5996 -0.6504
 1336SOL    HW113977   2.937   6.549   1.398 -1.0680 -0.6321 -0.7737
 1336SOL    HW213978   2.894   6.536   1.241  1.8739  2.3558 -1.8795
 1337SOL     OW13979   2.253   0.062   1.482  0.9340 -0.0818  0.4093
 1337SOL    HW113980   2.331   0.005   1.510  1.2780 -0.0737 -0.5401
 1337SOL    HW213981   2.262   0.153   1.524  1.3537 -0.1308  0.4284
 1338SOL     OW13982   0.001   5.862   2.572 -0.0032  0.1247  0.2359
 1338SOL    HW113983   0.080   5.906   2.529 -0.1148 -0.6824 -0.8144
 1338SOL    HW213984   0.026   5.770   2.601 -1.6142 -1.7684 -3.8747
 1339SOL     OW13985   1.516   7.493   0.101 -0.4678 -0.3077 -0.2577
 1339SOL    HW113986   1.497   7.438   0.020 -4.3045  0.3227  0.1416
 1339SOL    HW213987   1.561   7.578   0.074 -0.0881 -0.9017 -1.5164
 1340SOL     OW13988   1.214   2.091   0.897  0.6051  0.1114 -0.4720
 1340SOL    HW113989   1.164   2.139   0.969 -0.8231 -0.8160 -0.8321
 1340SOL    HW213990   1.264   2.015   0.937 -0.2699 -0.4669 -0.4578
 1341SOL     OW13991   1.620   5.194   2.691 -0.5356 -0.0446  0.3117
 1341SOL    HW113992   1.589   5.195   2.596  0.3583 -0.4040  0.0070
 1341SOL    HW213993   1.631   5.099   2.721 -1.3940  0.0540  0.9764
 1342SOL     OW13994   3.059   8.527   1.109 -0.3596 -0.1911 -0.0819
 1342SOL    HW113995   2.965   8.530   1.075 -0.8240  0.4242  1.2184
 1342SOL    HW213996   3.104   8.613   1.086  0.4052 -1.1154 -2.1219
 1343SOL     OW13997   4.096   0.448   0.844 -0.1193  0.3185 -0.0601
 1343SOL    HW113998   4.038   0.484   0.771 -1.7363  0.7592  1.4206
 1343SOL    HW213999   4.181   0.501   0.849  0.0769  0.1745 -1.7230
 1344SOL     OW14000   4.270   0.612   0.297  0.2196  0.3128  0.3079
 1344SOL    HW114001   4.231   0.700   0.273  0.7606  0.6206  0.5435
 1344SOL    HW214002   4.367   0.624   0.321  0.6700 -0.5552 -1.0407
 1345SOL     OW14003   4.231   2.384   0.063 -0.0090  0.4891  0.1148
 1345SOL    HW114004   4.308   2.446   0.051  0.6927 -0.6488 -1.5025
 1345SOL    HW214005   4.183   2.373  -0.025 -1.8760  1.0012  1.0424
 1346SOL     OW14006   1.371   4.374   1.164 -0.6019 -0.4710 -0.2183
 1346SOL    HW114007   1.278   4.393   1.196 -0.6264 -1.8880  0.5661
 1346SOL    HW214008   1.374   4.284   1.121  0.4584 -0.5165 -0.0551
 1347SOL     OW14009   1.184   6.564   2.002 -0.5088 -0.0231 -0.5731
 1347SOL    HW114010   1.189   6.621   1.920 -1.2136  0.6026 -0.1870
 1347SOL    HW214011   1.199   6.468   1.976 -2.1765 -0.0197 -1.6767
 1348SOL     OW14012   1.680   5.832   1.542  0.2313  0.5467  0.7297
 1348SOL    HW114013   1.728   5.888   1.475  2.8522 -1.4577  0.8456
 1348SOL    HW214014   1.746   5.783   1.598 -1.9645 -0.5217  2.4625
 1349SOL     OW14015   3.553   4.904   1.276 -0.7072  0.3839 -0.6558
 1349SOL    HW114016   3.494   4.852   1.337 -1.5970  1.2873 -0.7355
 1349SOL    HW214017   3.503   4.926   1.192 -1.2413  3.5137  0.4011
 1350SOL     OW14018   3.693   4.352   1.790  0.0650  0.5073  0.1572
 1350SOL    HW114019   3.672   4.283   1.721 -0.9927  1.2340 -0.2586
 1350SOL    HW214020   3.791   4.350   1.810 -0.1556 -2.0523  1.1787
 1351SOL     OW14021   3.027   8.810   0.041  0.0246 -0.4741  0.2843
 1351SOL    HW114022   2.942   8.810   0.093 -0.2539  1.3382 -0.1233
 1351SOL    HW214023   3.045   8.718   0.006 -0.1533 -1.5581  2.9408
 1352SOL     OW14024   4.235   1.201   2.144  0.0389  0.6305  0.1316
 1352SOL    HW114025   4.168   1.237   2.210 -2.2059  0.8812 -2.1857
 1352SOL    HW214026   4.296   1.275   2.115 -0.4864  1.0827  0.1659
 1353SOL     OW14027   1.357   0.814   0.977 -0.0421 -0.5289  0.0170
 1353SOL    HW114028   1.276   0.755   0.974  0.3621 -1.0455 -0.6237
 1353SOL    HW214029   1.437   0.760   1.002  0.5445 -0.4863 -1.7616
 1354SOL     OW14030   9.438   3.690   1.440  0.3116 -0.4690 -0.3211
 1354SOL    HW114031   9.362   3.695   1.505 -0.1802 -0.8511 -0.8547
 1354SOL    HW214032   9.429   3.765   1.374  1.5088  0.6703  0.7828
 1355SOL     OW14033   3.189   9.476   0.741  0.1085 -0.4162  0.3350
 1355SOL    HW114034   3.180   9.392   0.686 -0.7109  0.6015 -1.1053
 1355SOL    HW214035   3.107   9.487   0.798  0.2475 -0.6194  0.5776
 1356SOL     OW14036   2.656   0.514   1.633  0.0939 -0.3490 -1.0321
 1356SOL    HW114037   2.573   0.522   1.578  0.5703  0.4631 -1.6440
 1356SOL    HW214038   2.689   0.605   1.657  0.8811 -0.6608 -0.9040
 1357SOL     OW14039   1.665   7.380   2.101 -0.2960  0.1138  0.4822
 1357SOL    HW114040   1.617   7.293   2.090 -1.1916  0.6617 -0.1086
 1357SOL    HW214041   1.711   7.404   2.015  1.5388 -0.6885  1.2275
 1358SOL     OW14042   1.515   3.251   0.724  0.4526  0.6863 -0.5162
 1358SOL    HW114043   1.428   3.251   0.775  0.2946 -0.4847 -0.7640
 1358SOL    HW214044   1.586   3.211   0.782  0.5159  0.3761 -0.8063
 1359SOL     OW14045   2.595   6.005   0.582 -0.0630 -0.3534 -0.0797
 1359SOL    HW114046   2.516   5.985   0.524 -0.1639  0.3729 -0.1992
 1359SOL    HW214047   2.594   5.944   0.662  0.9603 -2.4802 -1.6281
 1360SOL     OW14048   2.987   3.334   2.526 -0.4086  0.0010 -0.0979
 1360SOL    HW114049   2.921   3.270   2.488  0.0795 -0.1631 -0.6626
 1360SOL    HW214050   2.985   3.328   2.626 -0.6110 -0.6383 -0.1383
 1361SOL     OW14051   3.017   6.795   0.147 -0.1114 -0.3122 -0.3804
 1361SOL    HW114052   3.035   6.757   0.237 -1.2179 -0.2444 -0.1219
 1361SOL    HW214053   3.053   6.888   0.142  0.4052 -0.5023 -0.1804
 1362SOL     OW14054   2.843   9.216   0.564 -0.1325  0.6845 -0.1056
 1362SOL    HW114055   2.789   9.137   0.533 -2.0390  1.6885  0.5437
 1362SOL    HW214056   2.910   9.241   0.494 -0.4364 -0.6625 -0.8934
 1363SOL     OW14057   2.880   3.016   0.083  0.4317  0.5787 -0.4328
 1363SOL    HW114058   2.914   2.924   0.064 -1.4581  0.1037 -1.6081
 1363SOL    HW214059   2.832   3.052   0.003 -1.0067  1.5855  0.8385
 1364SOL     OW14060   2.011   9.369   0.769 -0.1024 -0.6525 -0.4128
 1364SOL    HW114061   1.926   9.322   0.792 -0.6094  1.1242  1.5168
 1364SOL    HW214062   1.993   9.467   0.760  1.9761 -0.0624  1.4008
 1365SOL     OW14063   2.239   0.923   2.383 -0.0189 -0.6974 -0.1247
 1365SOL    HW114064   2.178   0.879   2.317 -0.2843  1.0442 -1.0644
 1365SOL    HW214065   2.325   0.947   2.338 -0.5302  1.2872 -0.0897
 1366SOL     OW14066   2.225   9.616   1.707 -0.4247  0.6167  0.1812
 1366SOL    HW114067   2.304   9.644   1.653  0.5972 -2.2972  0.1221
 1366SOL    HW214068   2.141   9.639   1.657  0.3959  1.9558 -0.6235
 1367SOL     OW14069   0.402   5.536   2.435 -0.2940  0.4817 -0.0537
 1367SOL    HW114070   0.434   5.448   2.470  0.3246  0.8590  0.3254
 1367SOL    HW214071   0.424   5.609   2.500 -2.5598  0.6616  0.5588
 1368SOL     OW14072   0.838   6.597   0.233  0.1425  0.5604 -0.1756
 1368SOL    HW114073   0.908   6.663   0.260  2.3490 -0.7298 -2.5296
 1368SOL    HW214074   0.839   6.520   0.296  0.3001  0.9178  0.2598
 1369SOL     OW14075   3.692   8.223   2.519 -0.2763  0.8583 -0.0891
 1369SOL    HW114076   3.620   8.182   2.576 -0.9711  1.9388 -0.1776
 1369SOL    HW214077   3.715   8.313   2.554  3.0304 -0.5566  1.6153
 1370SOL     OW14078   2.769   0.102   1.684 -0.5469 -0.5888  0.3935
 1370SOL    HW114079   2.778   0.196   1.718  0.6756 -1.3180  2.1529
 1370SOL    HW214080   2.673   0.084   1.662 -0.8319  0.9912  0.2207
 1371SOL     OW14081   2.225   3.650   1.907  0.1652 -0.5476 -0.2584
 1371SOL    HW114082   2.182   3.655   1.997 -0.2429 -0.4603 -0.4574
 1371SOL    HW214083   2.168   3.594   1.846  0.0075  0.1010 -0.7070
 1372SOL     OW14084   2.752   2.977   1.391 -0.3666  0.1815 -0.4222
 1372SOL    HW114085   2.743   3.077   1.391  0.1675  0.2421  0.7706
 1372SOL    HW214086   2.694   2.939   1.319 -2.0319  1.2381  0.3018
 1373SOL     OW14087   1.872   1.790   2.168 -0.0256  0.5857 -0.2571
 1373SOL    HW114088   1.919   1.735   2.099  0.0468 -2.0892  1.8351
 1373SOL    HW214089   1.773   1.771   2.163  0.1318 -0.7124  1.2706
 1374SOL     OW14090   1.627   4.398   1.940 -0.4269  0.2173  1.1399
 1374SOL    HW114091   1.644   4.382   1.843 -1.0465 -0.6934  1.1763
 1374SOL    HW214092   1.681   4.476   1.971  0.2621  0.1118  0.2169
 1375SOL     OW14093   0.153   4.499   0.257  0.2664 -1.0121 -0.1458
 1375SOL    HW114094   0.099   4.492   0.173  1.2256 -1.0962 -0.7602
 1375SOL    HW214095   0.143   4.591   0.295 -0.1476 -0.9633 -0.3660
 1376SOL     OW14096   1.285   5.316   1.049 -0.0991 -0.3337  0.8725
 1376SOL    HW114097   1.313   5.240   1.107  1.0367 -0.5756  0.0122
 1376SOL    HW214098   1.200   5.355   1.084 -0.8575 -2.1961  1.1499
 1377SOL     OW14099   1.483   2.185   1.125  0.5594  0.6680  0.0315
 1377SOL    HW114100   1.422   2.263   1.141  0.3096  0.4896 -0.0561
 1377SOL    HW214101   1.527   2.194   1.036 -0.2219  0.2065 -0.4078
 1378SOL     OW14102   0.250   3.366   2.354  0.4838 -0.1119 -0.3794
 1378SOL    HW114103   0.248   3.328   2.262  1.3771 -3.8212  1.0567
 1378SOL    HW214104   0.175   3.431   2.366 -0.0139 -0.0765 -3.4789
 1379SOL     OW14105   2.764   4.354   1.690 -0.1837  0.3049 -0.0773
 1379SOL    HW114106   2.779   4.258   1.714  0.5734  0.0933 -1.3729
 1379SOL    HW214107   2.846   4.391   1.647 -0.2709  1.7029  0.9177
 1380SOL     OW14108   2.615   2.856   0.462 -0.5386  0.1106  0.7226
 1380SOL    HW114109   2.548   2.799   0.510  0.6347 -0.9785  1.1059
 1380SOL    HW214110   2.695   2.870   0.520 -0.6762  1.9048  0.4969
 1381SOL     OW14111   1.172   2.950   2.307 -0.2606  0.2228  0.6147
 1381SOL    HW114112   1.079   2.926   2.332 -0.7212  2.0894  0.7464
 1381SOL    HW214113   1.178   3.048   2.288  1.7250  0.1796  0.8420
 1382SOL     OW14114   2.941   6.940   2.612 -0.0115  0.1050  0.1327
 1382SOL    HW114115   2.884   6.861   2.635 -0.8418  0.2524 -1.3366
 1382SOL    HW214116   3.016   6.912   2.553  0.3862  0.2253  0.5739
 1383SOL     OW14117   2.137   1.358   2.198 -0.1900 -0.1439  0.2062
 1383SOL    HW114118   2.214   1.422   2.198  1.0499 -1.5994  0.1647
 1383SOL    HW214119   2.077   1.378   2.120  0.0507  1.1062  0.3297
 1384SOL     OW14120   2.501   0.399   1.344 -0.0798  0.5465 -0.3137
 1384SOL    HW114121   2.513   0.384   1.246 -0.7727 -1.6048 -0.0886
 1384SOL    HW214122   2.457   0.487   1.359  1.1401  1.4501 -1.8599
 1385SOL     OW14123   0.338   2.215   2.439  0.1081  0.0355 -0.1720
 1385SOL    HW114124   0.371   2.172   2.354  1.3701 -0.2627  0.4650
 1385SOL    HW214125   0.415   2.259   2.486 -0.3573 -0.8886  1.4572
 1386SOL     OW14126   1.241   2.868   1.406  0.1195  0.2039 -0.6053
 1386SOL    HW114127   1.166   2.819   1.449  0.5642 -0.7639 -0.9209
 1386SOL    HW214128   1.205   2.943   1.350 -0.5225  0.6811  0.4438
 1387SOL     OW14129   2.871   6.347   0.199  0.6923  0.6210  0.0613
 1387SOL    HW114130   2.832   6.358   0.290  0.2225  1.3785 -0.2335
 1387SOL    HW214131   2.807   6.297   0.141  1.6160 -1.2173  0.5647
 1388SOL     OW14132   1.391   1.455   2.076  0.4886  0.0141 -0.2288
 1388SOL    HW114133   1.464   1.467   2.143 -0.1418 -2.4253  0.9530
 1388SOL    HW214134   1.314   1.407   2.118 -1.0965  0.9762 -1.9336
 1389SOL     OW14135   3.527   8.873   2.623 -0.0225 -0.1136  0.1553
 1389SOL    HW114136   3.437   8.844   2.592  0.3891 -0.5826 -0.6187
 1389SOL    HW214137   3.547   8.831   2.711 -0.5912  0.0503  0.3626
 1390SOL     OW14138   1.924   7.411   0.961 -0.4532  0.1019 -0.3438
 1390SOL    HW114139   1.929   7.311   0.955 -1.0680  0.0373  0.2774
 1390SOL    HW214140   1.989   7.444   1.029  0.5123  0.2150 -1.2977
 1391SOL     OW14141   3.513   8.005   2.404  0.2667  0.2424  0.0440
 1391SOL    HW114142   3.464   8.092   2.408 -0.8620 -0.2108 -2.5062
 1391SOL    HW214143   3.564   7.999   2.318 -0.3621 -1.9515 -0.2286
 1392SOL     OW14144   3.676   8.088   0.823 -0.4976  0.0782  0.7790
 1392SOL    HW114145   3.655   8.179   0.858 -0.0188  0.2782  0.5543
 1392SOL    HW214146   3.719   8.034   0.895  0.7897  0.5959  0.4094
 1393SOL     OW14147   1.205   7.728   0.591 -0.5060  0.1385  0.5483
 1393SOL    HW114148   1.244   7.786   0.663 -0.8502  0.4435  0.4867
 1393SOL    HW214149   1.279   7.693   0.534 -0.2207 -0.1714  1.0960
 1394SOL     OW14150   1.204   5.984   0.498 -0.7181  0.0393  0.7271
 1394SOL    HW114151   1.301   5.963   0.484 -0.5821  0.9880  0.2027
 1394SOL    HW214152   1.190   6.011   0.593 -0.3506  0.5145  0.6494
 1395SOL     OW14153   3.662   9.503   1.186 -0.3603 -0.6027  0.1957
 1395SOL    HW114154   3.726   9.428   1.173  1.5192  1.1842 -1.2003
 1395SOL    HW214155   3.598   9.507   1.109  1.1183  0.6969 -1.0026
 1396SOL     OW14156   9.370   3.503   2.255 -0.1267  0.5826  0.6893
 1396SOL    HW114157   9.337   3.513   2.349  1.0939  0.7191  1.1098
 1396SOL    HW214158   9.432   3.424   2.250  0.7460  1.2834  0.2621
 1397SOL     OW14159   1.165   3.934   1.600 -0.5424  0.1996  0.4298
 1397SOL    HW114160   1.193   3.932   1.696 -0.5269  1.8102  0.4765
 1397SOL    HW214161   1.247   3.933   1.542 -0.5161  0.3483  0.4635
 1398SOL     OW14162   1.365   1.932   2.095  0.6051  0.0019  0.1918
 1398SOL    HW114163   1.271   1.952   2.068  0.8187 -0.1531 -0.6888
 1398SOL    HW214164   1.422   1.924   2.013  1.8226  2.2097  0.7799
 1399SOL     OW14165   1.957   1.011   0.414  0.0483  0.1166  0.4613
 1399SOL    HW114166   1.954   1.109   0.435  1.2491  0.4489 -0.8179
 1399SOL    HW214167   2.014   0.996   0.333  0.4843 -1.7174  1.0738
 1400SOL     OW14168   1.619   3.052   1.356 -0.2473  1.0357  0.2350
 1400SOL    HW114169   1.626   2.953   1.370  2.3437  0.9250 -1.5455
 1400SOL    HW214170   1.678   3.099   1.421 -1.2027  1.4133  0.8384
 1401SOL     OW14171   2.954   7.809   0.995  0.1932 -0.0820 -0.2502
 1401SOL    HW114172   2.936   7.717   0.960  1.4284 -1.6766  3.1612
 1401SOL    HW214173   3.048   7.836   0.973  0.9011 -1.0004  1.5518
 1402SOL     OW14174   4.728   1.892   0.945 -0.4780  0.2521  0.3894
 1402SOL    HW114175   4.747   1.837   0.864 -1.7737 -0.0041  0.2526
 1402SOL    HW214176   4.688   1.833   1.016 -1.7900  0.9887  0.2744
 1403SOL     OW14177   3.349   2.466   0.065  0.3983  0.2516 -0.1899
 1403SOL    HW114178   3.279   2.529   0.033 -0.0011 -0.4511 -0.7169
 1403SOL    HW214179   3.439   2.502   0.041  0.0785 -0.8731 -3.3676
 1404SOL     OW14180   2.579   6.982   0.366  0.2841 -0.1333 -0.1501
 1404SOL    HW114181   2.626   6.909   0.318  0.7309  1.3295 -2.0115
 1404SOL    HW214182   2.614   6.990   0.459  1.1843 -1.3886 -0.3781
 1405SOL     OW14183   2.511   9.722   2.476  0.4029  0.2298 -0.0953
 1405SOL    HW114184   2.597   9.722   2.528  0.5341 -0.5269 -0.3056
 1405SOL    HW214185   2.440   9.678   2.531  0.3552  0.1120 -0.2504
 1406SOL     OW14186   9.966   4.074   0.613 -0.1700  0.4800 -0.1247
 1406SOL    HW114187  10.007   4.043   0.527  0.6204  0.2498  0.3323
 1406SOL    HW214188   9.991   4.011   0.686 -0.2382  1.0845  0.4189
 1407SOL     OW14189   2.910   6.034   0.524 -0.3612  0.2789  0.1182
 1407SOL    HW114190   2.951   6.106   0.579  0.9968 -0.9199  0.7133
 1407SOL    HW214191   2.838   5.989   0.576  1.6006 -1.5273  1.3726
 1408SOL     OW14192   0.190   2.913   2.238 -0.5091 -0.5857  0.5733
 1408SOL    HW114193   0.091   2.914   2.227 -0.4632  1.1778  0.1632
 1408SOL    HW214194   0.233   2.931   2.149  0.1366  0.5996  1.1194
 1409SOL     OW14195   1.652   1.484   0.379 -0.5872  0.5671 -0.3069
 1409SOL    HW114196   1.648   1.467   0.477  3.2759  0.4007 -0.0822
 1409SOL    HW214197   1.563   1.467   0.338 -2.5707  1.6952  3.3149
 1410SOL     OW14198   3.041   3.347   2.793  0.0920 -0.1488 -0.0886
 1410SOL    HW114199   3.073   3.276   2.856 -1.7341 -1.9934 -1.1655
 1410SOL    HW214200   2.949   3.377   2.820 -0.1606 -0.0057 -1.0748
 1411SOL     OW14201   3.937   1.401   0.403 -0.1182  0.8253 -0.0541
 1411SOL    HW114202   3.845   1.394   0.364 -0.4633  1.2248  0.6785
 1411SOL    HW214203   3.988   1.472   0.355  0.3503 -0.4651 -1.5094
 1412SOL     OW14204   1.997   6.946   1.404  0.4333  0.4598 -0.2797
 1412SOL    HW114205   2.068   6.882   1.375 -0.9305 -0.9503 -0.5608
 1412SOL    HW214206   1.970   7.002   1.326  1.8380  1.6052  0.0367
 1413SOL     OW14207   2.516   6.978   2.098  0.3595 -0.3616 -0.3781
 1413SOL    HW114208   2.581   6.905   2.076 -0.8487 -1.1532 -1.4196
 1413SOL    HW214209   2.507   7.040   2.020 -1.1268 -1.0316 -0.7589
 1414SOL     OW14210   4.430   0.503   1.867  0.4227  0.1229  0.9564
 1414SOL    HW114211   4.459   0.593   1.899  1.1496 -0.3891  1.7753
 1414SOL    HW214212   4.331   0.493   1.879  0.1391  1.2762 -0.3355
 1415SOL     OW14213   3.609   8.346   1.506  0.5880 -0.2089 -0.3414
 1415SOL    HW114214   3.578   8.324   1.598 -0.3835  1.8020 -0.1550
 1415SOL    HW214215   3.636   8.442   1.501  1.8933 -0.6169 -1.8332
 1416SOL     OW14216   2.362   3.583   1.324  0.2046  0.1698 -0.1603
 1416SOL    HW114217   2.294   3.595   1.396  0.6049  0.6076  0.1564
 1416SOL    HW214218   2.383   3.486   1.312  0.7594  0.1490  0.9136
 1417SOL     OW14219   2.415   0.915   2.150 -0.0755 -0.0664  0.1646
 1417SOL    HW114220   2.504   0.876   2.172 -0.4903 -0.1048  1.8568
 1417SOL    HW214221   2.353   0.842   2.121  0.1222 -0.1989  0.0751
 1418SOL     OW14222   2.793   4.436   1.093  0.5962  0.1400  0.2617
 1418SOL    HW114223   2.767   4.532   1.095  0.7753  0.1767  0.8380
 1418SOL    HW214224   2.893   4.429   1.094  0.5871 -0.0454 -0.0538
 1419SOL     OW14225   3.377   7.120   0.488  0.6749 -0.0913 -0.2014
 1419SOL    HW114226   3.360   7.199   0.428  0.5481  0.3794  0.4541
 1419SOL    HW214227   3.474   7.119   0.514  0.4019  0.6391  0.8942
 1420SOL     OW14228   5.182   3.609   0.411  0.6254  0.1501  0.3703
 1420SOL    HW114229   5.238   3.581   0.332  0.3271 -2.2032  0.9482
 1420SOL    HW214230   5.201   3.549   0.488 -2.5004 -0.5660  0.6570
 1421SOL     OW14231   3.682   5.062   0.723 -0.5286  0.0599  0.1575
 1421SOL    HW114232   3.726   5.074   0.813  1.8297  1.2260 -1.1002
 1421SOL    HW214233   3.585   5.083   0.731 -0.4691 -0.3346  2.5420
 1422SOL     OW14234   3.461   2.299   1.425  0.1407 -0.0025 -0.1408
 1422SOL    HW114235   3.523   2.298   1.503  0.4430 -0.1640 -0.3833
 1422SOL    HW214236   3.486   2.226   1.361  1.5237  1.7683 -1.6589
 1423SOL     OW14237   1.564   7.063   1.406  0.7429 -0.1875 -0.6399
 1423SOL    HW114238   1.514   6.985   1.444 -1.0185  0.8555 -0.7506
 1423SOL    HW214239   1.596   7.040   1.314 -0.8235 -0.3705 -1.1546
 1424SOL     OW14240   1.174   5.378   0.141  0.2816  0.2363 -0.4035
 1424SOL    HW114241   1.248   5.338   0.087  0.8191 -1.9250  1.8209
 1424SOL    HW214242   1.108   5.307   0.166 -1.5836  1.7884 -0.8201
 1425SOL     OW14243   9.067   5.072   2.256  0.2890  0.0137  0.1683
 1425SOL    HW114244   9.111   5.117   2.179  1.7110 -0.0141  0.9557
 1425SOL    HW214245   9.048   4.976   2.233 -1.3491  0.5741 -0.9487
 1426SOL     OW14246   3.117   2.341   2.198 -0.2756  0.1951 -0.7067
 1426SOL    HW114247   3.143   2.409   2.266  1.4780  0.1604 -1.3157
 1426SOL    HW214248   3.033   2.370   2.152 -2.3385 -0.4741  2.4275
 1427SOL     OW14249   3.961   1.341   1.635 -0.0795  0.2875 -0.1122
 1427SOL    HW114250   4.020   1.398   1.577 -2.9500  1.6237 -1.8464
 1427SOL    HW214251   3.981   1.360   1.731  1.5624  1.4969 -0.6535
 1428SOL     OW14252   2.952   4.627   2.370 -0.5756  0.0034  0.0229
 1428SOL    HW114253   3.051   4.632   2.360 -0.3719 -1.0476  1.4579
 1428SOL    HW214254   2.917   4.714   2.404  0.0717 -0.2420  1.3169
 1429SOL     OW14255   1.740   2.019   1.656  0.2651  0.5482 -0.0471
 1429SOL    HW114256   1.777   1.971   1.577  1.9808  1.3536  0.2476
 1429SOL    HW214257   1.708   1.952   1.723 -0.4541 -0.1423 -1.0539
 1430SOL     OW14258   4.214   0.301   1.441  0.0620  0.5282  0.0865
 1430SOL    HW114259   4.281   0.371   1.467 -0.2739  1.3186 -1.1135
 1430SOL    HW214260   4.203   0.302   1.342  0.5513 -1.6980 -0.0147
 1431SOL     OW14261   3.786   2.370   0.096  0.5536  0.4608  0.4039
 1431SOL    HW114262   3.767   2.294   0.159 -0.0999  0.1858 -0.1289
 1431SOL    HW214263   3.708   2.433   0.094  1.2497  1.3610  1.1430
 1432SOL     OW14264   2.560   1.235   1.668 -0.2189  0.0065  0.2843
 1432SOL    HW114265   2.466   1.263   1.687 -0.8374 -1.0257 -1.1439
 1432SOL    HW214266   2.572   1.223   1.570  0.9773 -1.3314  0.5675
 1433SOL     OW14267   9.712   3.569   0.910 -0.1766  0.4304  0.8460
 1433SOL    HW114268   9.791   3.516   0.938  0.0545 -0.0959 -0.7491
 1433SOL    HW214269   9.681   3.626   0.987 -1.2776 -2.9809  3.0196
 1434SOL     OW14270   2.215   7.716   1.819  0.3111  0.3240 -0.2808
 1434SOL    HW114271   2.127   7.741   1.780 -0.4920  0.5643  1.6534
 1434SOL    HW214272   2.238   7.622   1.793 -0.3885  0.3410 -0.9723
 1435SOL     OW14273   3.913   4.952   0.584 -0.2207  0.4935 -0.0943
 1435SOL    HW114274   3.907   4.853   0.595 -0.8658  0.6790  1.4323
 1435SOL    HW214275   3.831   4.995   0.621  0.1412  1.6133 -0.5639
 1436SOL     OW14276   0.580   2.903   0.081 -0.1091 -0.3614  0.6177
 1436SOL    HW114277   0.674   2.921   0.110 -0.1202 -0.3720  0.6594
 1436SOL    HW214278   0.567   2.936  -0.013 -1.1462  3.1053  1.9331
 1437SOL     OW14279   3.249   8.929   2.497 -0.1276  0.7464  0.1180
 1437SOL    HW114280   3.248   9.014   2.445  1.2712  0.5517 -0.2570
 1437SOL    HW214281   3.251   8.950   2.595 -0.5191  1.1356  0.0421
 1438SOL     OW14282   2.114   8.576   1.445 -0.1385  0.0964  0.4069
 1438SOL    HW114283   2.060   8.529   1.515 -0.4353 -0.3057 -0.0863
 1438SOL    HW214284   2.072   8.562   1.356  0.9522 -0.4821 -0.0289
 1439SOL     OW14285   1.736   0.258   0.054  0.2871 -0.2846  0.1381
 1439SOL    HW114286   1.777   0.327  -0.006 -0.0339  1.1481  1.5297
 1439SOL    HW214287   1.647   0.231   0.018  0.6066 -0.3117 -0.6479
 1440SOL     OW14288   2.752   1.243   0.486 -0.3688  0.4786 -0.1484
 1440SOL    HW114289   2.722   1.337   0.503  2.1448  1.4659 -0.9453
 1440SOL    HW214290   2.816   1.216   0.558 -0.2275 -0.2173 -0.5376
 1441SOL     OW14291   2.740   4.265   0.883 -0.0391  0.3580  0.2817
 1441SOL    HW114292   2.667   4.197   0.885 -0.1809  0.4804 -0.7096
 1441SOL    HW214293   2.740   4.316   0.969 -1.1634  0.4064  0.2526
 1442SOL     OW14294   3.069   6.176   0.144 -0.0897 -0.2318  0.0518
 1442SOL    HW114295   3.123   6.205   0.065 -0.7885  0.3675 -0.2109
 1442SOL    HW214296   3.026   6.256   0.186 -0.9312 -0.7202  0.1353
 1443SOL     OW14297   1.369   7.364   0.769  0.3768 -0.0973 -0.5470
 1443SOL    HW114298   1.327   7.274   0.786  1.9430 -0.1620  3.3135
 1443SOL    HW214299   1.318   7.434   0.818  1.5475  0.5605 -0.2654
 1444SOL     OW14300   4.462   3.206   2.473 -0.0598 -0.2751 -0.0526
 1444SOL    HW114301   4.451   3.305   2.478 -1.1266 -0.4439  1.2820
 1444SOL    HW214302   4.397   3.162   2.536 -0.0177 -1.8429 -1.0788
 1445SOL     OW14303   9.507   3.972   1.250 -0.1809 -0.1452  0.3193
 1445SOL    HW114304   9.588   4.028   1.264 -0.7039  0.5884  0.4916
 1445SOL    HW214305   9.432   4.008   1.305 -0.4691 -1.1544  0.5930
 1446SOL     OW14306   3.142   4.322   1.929  0.2129  0.3590  0.0915
 1446SOL    HW114307   3.224   4.288   1.975 -0.9423 -1.0584  1.1930
 1446SOL    HW214308   3.071   4.340   1.998  0.4163  4.0335 -0.5764
 1447SOL     OW14309   0.840   4.736   1.264 -0.0108 -0.1927 -0.7047
 1447SOL    HW114310   0.785   4.751   1.182 -1.2921 -0.8202  0.0104
 1447SOL    HW214311   0.862   4.825   1.305 -0.7644  0.0633 -0.8387
 1448SOL     OW14312   1.762   6.509   0.962 -0.4020 -0.2768  0.3197
 1448SOL    HW114313   1.788   6.595   0.919 -2.7061 -0.0201 -0.5920
 1448SOL    HW214314   1.760   6.521   1.061 -1.6519  0.9917  0.1532
 1449SOL     OW14315   3.700   8.546   2.645  0.7750 -0.1240 -0.1293
 1449SOL    HW114316   3.685   8.583   2.554  0.4234 -0.2744 -0.1361
 1449SOL    HW214317   3.661   8.608   2.713 -1.0620 -1.1486 -0.2248
 1450SOL     OW14318   1.020   5.213   0.345  0.2376  0.1632 -0.5249
 1450SOL    HW114319   1.077   5.231   0.425 -0.3914  0.9725 -0.2498
 1450SOL    HW214320   0.942   5.275   0.345 -0.8685 -1.1809 -0.6826
 1451SOL     OW14321   1.556   3.237   1.776  0.0657 -0.9127  0.2784
 1451SOL    HW114322   1.519   3.156   1.732  1.6123 -1.7392  0.4645
 1451SOL    HW214323   1.570   3.309   1.708 -0.2413 -1.1861 -0.0732
 1452SOL     OW14324   1.261   5.557   1.321 -0.2273 -0.0875 -0.0146
 1452SOL    HW114325   1.256   5.468   1.366 -0.6119  0.5583  1.2405
 1452SOL    HW214326   1.349   5.566   1.276 -1.6105 -2.6558 -3.4889
 1453SOL     OW14327   0.042   5.083   2.733  0.2544 -0.3261 -0.3593
 1453SOL    HW114328  -0.027   5.073   2.662  0.0232 -1.7769  0.0553
 1453SOL    HW214329   0.127   5.120   2.694 -0.5447  0.8944 -0.9736
 1454SOL     OW14330   3.458   3.750   0.682  0.1480 -0.0183  0.3766
 1454SOL    HW114331   3.486   3.758   0.586 -0.0905 -1.1759  0.2000
 1454SOL    HW214332   3.506   3.672   0.724 -1.6228 -1.0558  0.5053
 1455SOL     OW14333   9.787   5.053   2.303 -0.2370 -0.5367 -0.2565
 1455SOL    HW114334   9.708   5.099   2.263  0.9449  1.4642 -0.3817
 1455SOL    HW214335   9.864   5.057   2.240  0.7814  0.0184  0.9903
 1456SOL     OW14336   1.546   4.339   0.444  0.1385  0.0119 -0.6557
 1456SOL    HW114337   1.556   4.243   0.417 -1.0298 -0.4235  0.4448
 1456SOL    HW214338   1.636   4.378   0.461  0.5085 -1.4379  0.7839
 1457SOL     OW14339   1.864   4.929   0.593  0.1888 -0.1470  0.2596
 1457SOL    HW114340   1.917   4.919   0.677 -0.9997  1.4223  1.2204
 1457SOL    HW214341   1.803   5.008   0.601  1.0525  0.8802 -2.6189
 1458SOL     OW14342   1.640   1.137   0.824  0.2015 -0.6388  0.2001
 1458SOL    HW114343   1.674   1.165   0.914  2.3450  0.3107 -0.8707
 1458SOL    HW214344   1.627   1.037   0.823 -0.6696 -0.5600  1.8124
 1459SOL     OW14345   8.879   5.159   0.389 -0.1343 -0.2952 -0.7214
 1459SOL    HW114346   8.888   5.214   0.471  1.5959 -1.1464 -0.3079
 1459SOL    HW214347   8.947   5.189   0.321 -0.1565 -0.9386 -1.0365
 1460SOL     OW14348   9.903   3.375   0.997  0.2486  0.2767 -0.4544
 1460SOL    HW114349   9.955   3.343   1.076 -0.5857  0.4977  0.1902
 1460SOL    HW214350   9.955   3.357   0.913  1.4612  0.7350  0.1982
 1461SOL     OW14351   2.799   0.807   0.521 -0.1050  0.6744 -0.0385
 1461SOL    HW114352   2.745   0.883   0.485  0.3587  0.7483 -0.5994
 1461SOL    HW214353   2.897   0.830   0.516 -0.0114  0.4683  0.7879
 1462SOL     OW14354   0.799   3.197   2.500  0.5608 -0.0623 -0.4132
 1462SOL    HW114355   0.853   3.264   2.550  1.1090  0.1022 -1.2096
 1462SOL    HW214356   0.804   3.108   2.547  0.9599  0.1212 -0.1078
 1463SOL     OW14357   2.517   2.891   2.743  0.3774 -0.2630 -0.4545
 1463SOL    HW114358   2.432   2.921   2.699  0.8753 -0.1447 -1.3477
 1463SOL    HW214359   2.499   2.872   2.840 -0.4881  0.5173 -0.4506
 1464SOL     OW14360   2.733   9.402   1.952 -0.2143  0.0792  0.4281
 1464SOL    HW114361   2.655   9.344   1.929 -1.0090  1.2278  0.2047
 1464SOL    HW214362   2.724   9.433   2.047  0.4750 -0.5648  0.7108
 1465SOL     OW14363   3.239   7.815   2.299 -0.5203 -0.2875  0.3115
 1465SOL    HW114364   3.308   7.850   2.236  2.0663 -2.1516  1.9963
 1465SOL    HW214365   3.222   7.882   2.371 -0.0151 -0.0586  0.2155
 1466SOL     OW14366   3.362   4.228   2.218  0.1030 -0.5742 -0.1848
 1466SOL    HW114367   3.407   4.255   2.133  1.7531  0.8132  1.1157
 1466SOL    HW214368   3.412   4.264   2.296 -1.1235 -2.2358  1.4235
 1467SOL     OW14369   1.578   3.988   1.175  0.2005 -0.0670 -0.3844
 1467SOL    HW114370   1.570   4.007   1.273 -0.3718  1.1817 -0.6575
 1467SOL    HW214371   1.504   4.035   1.126 -0.5159 -2.0353 -1.2483
 1468SOL     OW14372   2.293   3.861   0.504  0.4915  0.5940 -0.3018
 1468SOL    HW114373   2.199   3.893   0.517  0.4162  0.7211 -1.1696
 1468SOL    HW214374   2.299   3.805   0.421  1.1399  0.4194 -0.1418
 1469SOL     OW14375   2.979   7.202   2.565  0.0848 -0.0002 -0.3214
 1469SOL    HW114376   2.969   7.107   2.594 -0.6181 -0.4141 -1.8584
 1469SOL    HW214377   2.912   7.222   2.493  2.0492  0.8594 -1.9470
 1470SOL     OW14378   1.248   4.941   0.398  0.0377  0.3782 -0.0969
 1470SOL    HW114379   1.279   4.982   0.312  2.7438  1.8417  1.5151
 1470SOL    HW214380   1.328   4.913   0.452 -1.6111  0.0525  2.2271
 1471SOL     OW14381   1.990   9.986   0.041 -0.1532  0.1211 -0.2860
 1471SOL    HW114382   2.070   9.936   0.008  0.2727  0.0391  0.8392
 1471SOL    HW214383   1.915   9.977  -0.025  0.3247 -0.9479 -0.6944
 1472SOL     OW14384   3.506   2.661   2.483 -0.4848  0.0367  0.0952
 1472SOL    HW114385   3.478   2.755   2.502 -1.7498 -0.2305 -0.4279
 1472SOL    HW214386   3.425   2.603   2.473  0.2995 -1.2030  0.8794
 1473SOL     OW14387   1.586   1.776   2.173  0.2258 -0.2343 -0.4832
 1473SOL    HW114388   1.500   1.821   2.150 -0.1595 -1.1698 -0.9208
 1473SOL    HW214389   1.570   1.678   2.189  0.9375 -0.0919  1.1443
 1474SOL     OW14390   9.388   3.383   1.339  0.8963 -0.0039  0.7369
 1474SOL    HW114391   9.461   3.324   1.306  1.6243  0.8394  0.8258
 1474SOL    HW214392   9.418   3.478   1.337 -0.6882  0.5042 -0.5718
 1475SOL     OW14393   0.157   3.722   1.206 -0.0167 -0.1009 -0.5817
 1475SOL    HW114394   0.121   3.637   1.247 -0.4293  0.1819 -0.3575
 1475SOL    HW214395   0.238   3.700   1.151  0.5019 -0.4987  0.3296
 1476SOL     OW14396   3.871   9.960   2.034 -0.0025 -0.1746 -0.1651
 1476SOL    HW114397   3.821  10.015   2.100  1.7232 -0.1382  1.1358
 1476SOL    HW214398   3.862  10.000   1.943 -0.0771  1.3330  0.5031
 1477SOL     OW14399   8.806   4.036   1.466  0.0617  0.4728  0.8742
 1477SOL    HW114400   8.888   4.084   1.499 -1.5415  1.9257  2.8198
 1477SOL    HW214401   8.738   4.032   1.538 -1.7837 -0.3625 -0.8548
 1478SOL     OW14402   4.085   8.371   1.968 -0.0145  0.1718  0.0079
 1478SOL    HW114403   4.081   8.337   2.062 -3.5682 -1.3750 -0.6288
 1478SOL    HW214404   4.132   8.304   1.910  2.6487  1.3642  0.7244
 1479SOL     OW14405   3.258   2.823   2.289 -0.3129 -0.2983  0.0168
 1479SOL    HW114406   3.193   2.842   2.216 -1.5897 -0.2798  1.1255
 1479SOL    HW214407   3.279   2.908   2.338  0.5520 -0.3038 -0.3482
 1480SOL     OW14408   2.546   9.914   2.795 -0.4772  0.0717 -0.0998
 1480SOL    HW114409   2.479   9.963   2.851 -0.1459 -0.9620  1.2122
 1480SOL    HW214410   2.562   9.823   2.833  2.0336  0.4689 -0.1228
 1481SOL     OW14411   4.081   2.983   2.806  0.1298  0.4342 -0.2981
 1481SOL    HW114412   3.986   2.961   2.786  0.3213  0.1105 -0.8748
 1481SOL    HW214413   4.085   3.065   2.862 -0.4211  1.3810 -1.6248
 1482SOL     OW14414   1.331   6.800   2.593 -0.1468 -0.2316  0.5208
 1482SOL    HW114415   1.286   6.867   2.534  0.3712 -1.3921 -1.2362
 1482SOL    HW214416   1.338   6.836   2.686  0.0308  2.0990 -0.3656
 1483SOL     OW14417   2.096   0.160   0.909  0.2112  0.5799  0.1703
 1483SOL    HW114418   2.023   0.099   0.937  1.4033 -0.1804  1.7253
 1483SOL    HW214419   2.180   0.107   0.893  1.2917  1.7890  1.6446
 1484SOL     OW14420   2.935   3.492   1.261 -0.9455  0.2027  0.2835
 1484SOL    HW114421   2.835   3.497   1.257 -1.0353 -1.9387 -1.3150
 1484SOL    HW214422   2.973   3.584   1.252 -2.7567  1.1019  1.3268
 1485SOL     OW14423   2.931   5.802   1.711  0.2387  0.1644 -0.4925
 1485SOL    HW114424   2.886   5.880   1.754 -0.9309 -0.7809  0.0155
 1485SOL    HW214425   2.949   5.731   1.779  2.2833  0.4221 -0.7436
 1486SOL     OW14426   1.288   2.993   0.307  0.0222  0.6200 -0.0734
 1486SOL    HW114427   1.199   2.994   0.351 -0.0416  2.5359 -0.1901
 1486SOL    HW214428   1.301   2.906   0.259 -2.0964  0.6053 -0.6814
 1487SOL     OW14429   3.284   0.142   0.646 -0.8120 -0.4040 -0.2210
 1487SOL    HW114430   3.204   0.190   0.609  0.6256  2.1615 -0.0824
 1487SOL    HW214431   3.286   0.153   0.745  0.2453  0.4082 -0.3220
 1488SOL     OW14432   2.910   2.355   2.592  0.8550 -0.1311  0.0875
 1488SOL    HW114433   2.858   2.423   2.541  0.8818 -1.4175 -1.6929
 1488SOL    HW214434   2.902   2.374   2.690  0.7190  2.3118 -0.3611
 1489SOL     OW14435   3.814   3.124   0.528 -0.1448 -0.1338 -0.2126
 1489SOL    HW114436   3.816   3.204   0.587 -0.4974  0.7008 -1.3188
 1489SOL    HW214437   3.886   3.060   0.555  0.2195  0.6139  0.5863
 1490SOL     OW14438   3.001   3.503   2.024 -1.2061 -0.1332  0.5870
 1490SOL    HW114439   3.092   3.536   2.050 -0.3408 -0.7910 -1.4850
 1490SOL    HW214440   2.932   3.566   2.059  0.0326  0.4290  2.1158
 1491SOL     OW14441   3.990   4.040   0.433  0.5676  0.6614  0.3674
 1491SOL    HW114442   4.087   4.054   0.414  1.4660 -0.9806  3.4273
 1491SOL    HW214443   3.955   4.116   0.488  0.7978 -0.0581  1.5104
 1492SOL     OW14444   0.538   3.960   2.071 -1.0176  0.2102 -0.2615
 1492SOL    HW114445   0.458   3.902   2.079 -2.1044  1.2346 -3.0709
 1492SOL    HW214446   0.613   3.909   2.031 -1.7352  0.5033 -2.0098
 1493SOL     OW14447   2.183   1.708   2.783 -0.1651 -0.7238 -0.0940
 1493SOL    HW114448   2.268   1.658   2.769 -0.5860 -1.4190 -0.1880
 1493SOL    HW214449   2.111   1.668   2.725 -0.3987  0.2534 -0.4831
 1494SOL     OW14450   0.835   6.769   0.555  0.2007  0.5266 -0.0977
 1494SOL    HW114451   0.841   6.802   0.649 -0.7799 -1.2553  0.6136
 1494SOL    HW214452   0.767   6.822   0.505  1.2699  1.9904 -0.0524
 1495SOL     OW14453   1.407   2.802   1.925  0.3552  0.4397  0.8763
 1495SOL    HW114454   1.335   2.779   1.859  0.4785  1.6022  0.3235
 1495SOL    HW214455   1.365   2.827   2.012  0.0781  1.2703  0.5059
 1496SOL     OW14456   1.174   6.478   1.563 -0.5391 -0.6628 -0.1973
 1496SOL    HW114457   1.082   6.450   1.588 -0.5406 -1.5659 -1.1673
 1496SOL    HW214458   1.170   6.553   1.496 -0.5451  0.3767  0.9405
 1497SOL     OW14459   4.366   1.090   0.844  0.0412  0.7254  0.0912
 1497SOL    HW114460   4.299   1.140   0.897 -0.0834  1.8065 -1.0654
 1497SOL    HW214461   4.355   1.111   0.747  0.4709 -0.9674 -0.3438
 1498SOL     OW14462   4.287   1.513   1.016  0.3428  0.0870 -0.0588
 1498SOL    HW114463   4.352   1.519   1.092  0.1673  1.0609  0.0267
 1498SOL    HW214464   4.271   1.417   0.993  0.9500 -0.1930  0.6566
 1499SOL     OW14465   4.754   2.152   0.895 -0.2387  1.3976 -0.1450
 1499SOL    HW114466   4.754   2.054   0.916 -0.5633  1.1816 -1.1631
 1499SOL    HW214467   4.825   2.197   0.949 -1.7377  1.0206  2.2437
 1500SOL     OW14468   2.903   0.448   0.864  0.0069 -0.2575  0.5073
 1500SOL    HW114469   2.804   0.430   0.870  0.4841 -2.9015  1.1139
 1500SOL    HW214470   2.935   0.426   0.772 -0.1348  1.6268 -0.0094
 1501SOL     OW14471   2.914   7.562   0.903 -0.8151 -0.1805 -0.8948
 1501SOL    HW114472   2.835   7.508   0.930 -0.7149 -0.2534 -0.7385
 1501SOL    HW214473   2.987   7.501   0.872 -1.1855 -0.0556 -2.0354
 1502SOL     OW14474   2.272   7.705   2.339  0.7036  0.2963  0.1956
 1502SOL    HW114475   2.275   7.628   2.403  0.8709  0.4368  0.3574
 1502SOL    HW214476   2.360   7.711   2.291  1.4332  1.6508  1.6737
 1503SOL     OW14477   2.397   2.599   0.336 -0.8843 -0.1031 -0.2055
 1503SOL    HW114478   2.344   2.585   0.419 -1.2069  1.6684 -0.0865
 1503SOL    HW214479   2.427   2.695   0.331  1.4417 -0.8145 -0.7816
 1504SOL     OW14480   5.185   3.334   0.276 -0.2002  0.8219  0.6105
 1504SOL    HW114481   5.134   3.366   0.356 -0.3334  0.4798  0.6637
 1504SOL    HW214482   5.155   3.384   0.195 -0.5433  0.6995  0.6593
 1505SOL     OW14483   2.917   1.701   1.878  0.1225 -0.5621 -0.4158
 1505SOL    HW114484   2.886   1.720   1.972 -0.8156 -0.3238 -0.7697
 1505SOL    HW214485   2.887   1.609   1.852  0.0722 -0.4880 -0.6163
 1506SOL     OW14486   2.551   2.606   2.283  0.2929 -0.2826  0.2250
 1506SOL    HW114487   2.562   2.543   2.206 -0.5030 -1.4152  1.0206
 1506SOL    HW214488   2.462   2.652   2.276 -0.1695 -1.0634  0.9552
 1507SOL     OW14489   4.621   8.078   0.510  0.3040 -0.0226 -0.6219
 1507SOL    HW114490   4.699   8.050   0.453  0.7251 -0.4577  0.1700
 1507SOL    HW214491   4.651   8.147   0.575  0.3514 -1.2057  0.6237
 1508SOL     OW14492   2.288   3.000   1.555  0.0515  0.1548 -0.5048
 1508SOL    HW114493   2.341   2.931   1.606 -0.9847  0.6154  1.2452
 1508SOL    HW214494   2.313   2.996   1.458  1.8335 -0.9770 -0.0267
 1509SOL     OW14495   3.849   4.353   1.514 -1.1348  0.2247  0.0991
 1509SOL    HW114496   3.843   4.291   1.436  0.3103  1.2987 -0.8994
 1509SOL    HW214497   3.942   4.351   1.550 -1.7802 -0.2029  1.7583
 1510SOL     OW14498   2.350   5.690   0.278 -0.7224 -0.1570  0.4283
 1510SOL    HW114499   2.252   5.706   0.286 -0.8415 -1.4853  1.9410
 1510SOL    HW214500   2.398   5.738   0.350 -0.1767  1.0603 -0.7291
 1511SOL     OW14501   1.166   4.986   0.788 -0.2834  0.0070 -0.5963
 1511SOL    HW114502   1.249   4.953   0.834 -0.3778  1.4690  0.6871
 1511SOL    HW214503   1.192   5.037   0.706  0.0228 -0.5849 -0.8705
 1512SOL     OW14504   1.910   2.593   1.105  0.4023 -0.0941  0.0781
 1512SOL    HW114505   1.905   2.674   1.048 -3.8023 -0.0917  0.2730
 1512SOL    HW214506   1.918   2.620   1.201  0.5276  0.0702  0.0211
 1513SOL     OW14507   1.365   3.954   0.363  0.0224 -0.8053  0.0811
 1513SOL    HW114508   1.402   3.912   0.446 -1.9314 -1.2982  0.7246
 1513SOL    HW214509   1.340   3.881   0.298  1.9712 -0.4175 -1.1710
 1514SOL     OW14510   3.949   3.521   2.444  0.3170  0.1263 -0.7779
 1514SOL    HW114511   3.957   3.616   2.415  3.4177 -1.0700 -4.1065
 1514SOL    HW214512   4.016   3.503   2.516  1.0872 -0.0633 -1.5473
 1515SOL     OW14513   2.854   7.482   1.585 -0.6446  0.0774 -0.5209
 1515SOL    HW114514   2.808   7.465   1.498 -0.3692  0.6515 -0.7809
 1515SOL    HW214515   2.944   7.439   1.583 -0.7509 -0.1541 -0.4066
 1516SOL     OW14516   2.462   7.666   1.966 -0.0797 -0.1388 -0.4615
 1516SOL    HW114517   2.536   7.654   1.900 -1.1198 -2.2466 -1.3237
 1516SOL    HW214518   2.383   7.706   1.920 -0.2315 -0.0366 -0.1088
 1517SOL     OW14519   1.990   5.676   0.500  0.0799  0.0313 -0.1737
 1517SOL    HW114520   1.994   5.581   0.469 -1.0263  0.5355 -1.9254
 1517SOL    HW214521   2.061   5.691   0.568 -0.5208 -2.3784  1.0566
 1518SOL     OW14522   8.969   3.635   2.463  0.5437  0.2221  0.1762
 1518SOL    HW114523   9.055   3.585   2.469 -0.4517 -1.6732 -0.8233
 1518SOL    HW214524   8.906   3.585   2.404 -0.8809  2.1269  0.0357
 1519SOL     OW14525   2.134   9.826   0.364  0.7173 -0.1591  0.0374
 1519SOL    HW114526   2.052   9.881   0.382  0.7890  0.7133 -2.1787
 1519SOL    HW214527   2.214   9.885   0.362  1.1526 -0.7404  0.2781
 1520SOL     OW14528   3.458   0.862   0.915  0.8188 -0.1063  0.2230
 1520SOL    HW114529   3.552   0.830   0.924  1.0245  0.6182  0.6816
 1520SOL    HW214530   3.411   0.852   1.003  0.4066 -0.6528 -0.0576
 1521SOL     OW14531   2.549   1.891   0.553 -0.3293  0.0555  0.4491
 1521SOL    HW114532   2.647   1.908   0.554 -0.4085  0.5233  2.5786
 1521SOL    HW214533   2.527   1.814   0.613 -1.2570 -0.1037 -0.0781
 1522SOL     OW14534   3.734   0.516   0.866 -0.0374  0.3475  0.2041
 1522SOL    HW114535   3.724   0.465   0.951 -0.8249 -0.0973 -0.1479
 1522SOL    HW214536   3.797   0.468   0.805  1.1275  1.0553  0.8208
 1523SOL     OW14537   0.673   4.963   1.625  0.4250  0.8006  0.0495
 1523SOL    HW114538   0.648   4.866   1.621  2.0069  0.3949 -0.2682
 1523SOL    HW214539   0.754   4.979   1.568  0.1673  2.3134  0.0938
 1524SOL     OW14540   3.242   9.523   1.155  0.1598  0.1065  0.1057
 1524SOL    HW114541   3.143   9.531   1.158  0.0749 -0.5884 -0.7855
 1524SOL    HW214542   3.268   9.439   1.107  1.1725  0.2132  0.4507
 1525SOL     OW14543   9.197   4.349   0.057 -0.8520 -0.4113 -0.6501
 1525SOL    HW114544   9.166   4.256   0.077 -2.2424  0.5916  2.2172
 1525SOL    HW214545   9.292   4.360   0.088 -1.1906 -0.4608  0.4311
 1526SOL     OW14546   3.173   2.536   0.452 -0.4751 -0.5795 -0.0019
 1526SOL    HW114547   3.233   2.498   0.523 -1.2072  0.7308  1.3490
 1526SOL    HW214548   3.229   2.581   0.383  0.2394 -1.6217 -0.1119
 1527SOL     OW14549   3.261   3.545   2.148  0.4354  0.0579 -0.0915
 1527SOL    HW114550   3.313   3.622   2.183 -1.1789  0.3218  1.7991
 1527SOL    HW214551   3.245   3.479   2.222 -0.5034 -0.7836 -1.0220
 1528SOL     OW14552   3.541   3.475   0.527 -0.2910  0.3475  0.1543
 1528SOL    HW114553   3.581   3.483   0.618  1.3595 -3.3141 -0.1356
 1528SOL    HW214554   3.556   3.559   0.475  2.4751  0.9242  1.8233
 1529SOL     OW14555   9.536   5.197   0.955  0.5003 -0.1566 -0.0863
 1529SOL    HW114556   9.583   5.115   0.923 -1.5159 -0.1785 -3.1902
 1529SOL    HW214557   9.594   5.277   0.936  0.6547 -0.4732 -0.9949
 1530SOL     OW14558   3.153   2.863   2.578  0.2285 -0.0181 -0.4738
 1530SOL    HW114559   3.072   2.843   2.522  0.9366 -0.5636 -1.3105
 1530SOL    HW214560   3.158   2.961   2.595 -2.0586 -0.2214  1.8092
 1531SOL     OW14561   4.076   1.755   1.386  0.6693 -0.5854  0.3733
 1531SOL    HW114562   4.057   1.829   1.452 -0.9195 -0.6842  0.0294
 1531SOL    HW214563   4.165   1.772   1.343  1.4748 -0.2153  2.1242
 1532SOL     OW14564   4.942   3.360   1.012 -0.2059  0.8017  0.1330
 1532SOL    HW114565   4.932   3.438   0.950 -0.1652  1.5218  1.0244
 1532SOL    HW214566   4.877   3.369   1.088 -1.0283 -0.6509 -0.3951
 1533SOL     OW14567   3.917   0.474   2.061 -0.7574  0.2708 -0.4647
 1533SOL    HW114568   4.011   0.458   2.090 -0.6204 -0.8902 -1.4971
 1533SOL    HW214569   3.875   0.387   2.034 -2.5127  0.6064  1.0881
 1534SOL     OW14570   1.545   7.222   2.769  0.3150  0.5316  0.5930
 1534SOL    HW114571   1.635   7.260   2.747  0.0254  0.8114 -0.1204
 1534SOL    HW214572   1.540   7.203   2.867  0.1416  3.1623  1.1156
 1535SOL     OW14573   9.909   2.480   1.415  0.1947  0.0356  0.5568
 1535SOL    HW114574   9.852   2.524   1.346  0.5479 -1.2700 -0.5763
 1535SOL    HW214575   9.996   2.453   1.375  1.2414  1.1250  2.0342
 1536SOL     OW14576   1.579   5.265   1.524  0.6026  0.8478 -0.3264
 1536SOL    HW114577   1.607   5.176   1.487  1.2921  0.6413  0.6935
 1536SOL    HW214578   1.481   5.262   1.545  0.6282  0.3147 -0.2578
 1537SOL     OW14579   4.421   3.975   1.928 -0.1260  0.8148  0.4421
 1537SOL    HW114580   4.425   3.961   1.829 -0.3373  2.6934  0.1591
 1537SOL    HW214581   4.328   3.954   1.961 -0.0965  0.3397  0.2285
 1538SOL     OW14582   1.606   0.375   0.419  0.4103  0.5401  0.1965
 1538SOL    HW114583   1.528   0.357   0.359  2.9158 -1.6342 -2.5765
 1538SOL    HW214584   1.612   0.473   0.438 -1.1729  1.1235 -2.1199
 1539SOL     OW14585   2.095   7.342   1.908 -0.1615  0.7873  0.4968
 1539SOL    HW114586   2.162   7.381   1.846  0.2656 -0.3066  0.2531
 1539SOL    HW214587   2.133   7.341   2.001 -0.0940  0.7578  0.4687
 1540SOL     OW14588   1.006   6.189   2.464  0.1071  0.5166 -0.2508
 1540SOL    HW114589   0.930   6.245   2.495 -0.2284  0.3688 -0.7967
 1540SOL    HW214590   1.084   6.247   2.441 -0.1942  0.7464 -0.6898
 1541SOL     OW14591   1.990   0.613   0.113 -0.2013 -0.5009  0.1364
 1541SOL    HW114592   2.073   0.585   0.064 -0.3815 -1.4735  0.3742
 1541SOL    HW214593   2.003   0.597   0.211 -1.2713 -2.2062  0.0140
 1542SOL     OW14594   3.710   9.260   0.426  0.1304 -0.4512  0.5065
 1542SOL    HW114595   3.709   9.241   0.328  0.2788  0.4152  0.3303
 1542SOL    HW214596   3.713   9.174   0.477 -0.2019 -0.9113 -0.2438
 1543SOL     OW14597   3.024   3.143   0.604 -0.5762  0.1171  0.5993
 1543SOL    HW114598   3.098   3.138   0.672 -0.1039 -0.2344  0.0672
 1543SOL    HW214599   3.054   3.199   0.526 -1.2709  0.8734  0.8632
 1544SOL     OW14600   3.077   0.350   2.492 -0.3435 -0.2737 -0.2743
 1544SOL    HW114601   3.091   0.286   2.568 -0.0963  0.4624  0.3095
 1544SOL    HW214602   2.980   0.374   2.486 -0.5598 -1.2754 -0.9721
 1545SOL     OW14603   9.455   5.155   2.780  0.4021 -0.1280  0.2880
 1545SOL    HW114604   9.389   5.226   2.803  1.3974  0.4034  1.6070
 1545SOL    HW214605   9.430   5.070   2.826  1.1923  0.3604  1.6818
 1546SOL     OW14606   1.451   2.412   0.305 -0.4829 -0.3389 -0.7691
 1546SOL    HW114607   1.455   2.508   0.334  0.4483 -0.4648 -0.4666
 1546SOL    HW214608   1.356   2.388   0.284 -1.2960 -0.3933  2.6766
 1547SOL     OW14609   3.320   9.742   1.938 -0.2728 -0.3142  0.2141
 1547SOL    HW114610   3.280   9.833   1.922  0.7605  0.0035 -0.6215
 1547SOL    HW214611   3.349   9.703   1.851 -0.8746 -1.5349  0.5534
 1548SOL     OW14612   0.485   5.904   0.575  0.2767  0.1665 -0.3591
 1548SOL    HW114613   0.559   5.970   0.584  0.9271 -0.6995  0.8016
 1548SOL    HW214614   0.492   5.858   0.486  1.2908 -0.0999 -0.1464
 1549SOL     OW14615   2.376   5.630   1.150  0.1315 -0.2662 -0.4090
 1549SOL    HW114616   2.400   5.691   1.226 -0.6343 -0.0824 -0.3193
 1549SOL    HW214617   2.460   5.598   1.106  0.5503  0.3954 -0.0960
 1550SOL     OW14618   1.061   4.714   2.805 -0.0493  0.0003 -0.4586
 1550SOL    HW114619   0.963   4.724   2.790  0.1052  0.2391 -1.3246
 1550SOL    HW214620   1.083   4.617   2.821 -0.3904 -0.0782 -0.4765
 1551SOL     OW14621   2.443   2.379   1.163 -0.2032  0.0980  0.2734
 1551SOL    HW114622   2.502   2.421   1.094 -1.1135  2.0432  0.6370
 1551SOL    HW214623   2.410   2.449   1.227  0.2753 -1.5943  2.4499
 1552SOL     OW14624   2.204   6.292   1.721 -0.0230 -0.5505 -0.0036
 1552SOL    HW114625   2.276   6.319   1.658 -1.7661 -0.1284 -1.8808
 1552SOL    HW214626   2.220   6.333   1.811  0.1782  2.4973 -1.3744
 1553SOL     OW14627   1.349   6.545   0.416  0.1390 -0.3621  0.5452
 1553SOL    HW114628   1.386   6.627   0.458  0.0759 -0.0851  0.0632
 1553SOL    HW214629   1.410   6.514   0.343 -0.8712  0.4509 -0.6677
 1554SOL     OW14630   2.319   1.874   1.639 -0.0382  0.4114 -0.2510
 1554SOL    HW114631   2.289   1.965   1.610 -1.7815 -0.5350 -1.5282
 1554SOL    HW214632   2.301   1.863   1.737  0.3642  1.5051 -0.0393
 1555SOL     OW14633   0.983   6.182   1.853 -0.1684 -0.0802 -0.1482
 1555SOL    HW114634   0.897   6.232   1.856  0.8833  1.7419  0.9353
 1555SOL    HW214635   0.972   6.093   1.897 -1.6291 -0.0784 -0.5067
 1556SOL     OW14636   3.045   5.026   2.373 -0.1019  0.7367  0.0603
 1556SOL    HW114637   3.134   5.014   2.329 -0.4787  4.3418 -1.9736
 1556SOL    HW214638   3.058   5.055   2.468  0.9077  0.6588 -0.0487
 1557SOL     OW14639   2.200   5.901   0.547  0.4377  0.3485  1.2973
 1557SOL    HW114640   2.291   5.882   0.511 -0.0102  0.4490  0.1156
 1557SOL    HW214641   2.140   5.930   0.473 -0.3217  1.1438  2.2216
 1558SOL     OW14642   1.759   1.171   1.065 -0.3835 -0.6048 -0.1195
 1558SOL    HW114643   1.697   1.181   1.143 -0.2331 -0.6136  0.0027
 1558SOL    HW214644   1.810   1.085   1.074 -0.1565 -0.4671 -0.0740
 1559SOL     OW14645   1.338   5.732   1.640  0.5493 -0.3273  0.0592
 1559SOL    HW114646   1.311   5.819   1.680 -1.1200  0.3474 -2.4423
 1559SOL    HW214647   1.431   5.739   1.604  0.5257  0.3286  0.1253
 1560SOL     OW14648   3.947   0.608   1.153 -1.1888  0.4604 -0.3008
 1560SOL    HW114649   4.032   0.660   1.163 -1.0403  0.2512 -0.4293
 1560SOL    HW214650   3.968   0.521   1.108 -1.0632 -0.7111  1.9666
 1561SOL     OW14651   3.637   9.369   2.163 -0.1097  0.5389  0.0563
 1561SOL    HW114652   3.594   9.459   2.168 -1.6425 -0.1602 -0.3118
 1561SOL    HW214653   3.728   9.378   2.122 -0.0919  1.9735  0.3915
 1562SOL     OW14654   2.549   7.219   1.041  0.0055 -0.0113  0.3783
 1562SOL    HW114655   2.492   7.169   0.976 -0.1821  1.8403 -0.9306
 1562SOL    HW214656   2.568   7.162   1.121 -4.1698 -0.4812  1.1220
 1563SOL     OW14657   4.109   4.617   2.512  0.5552 -0.3207  0.7479
 1563SOL    HW114658   4.075   4.554   2.582 -2.5243 -0.8465 -1.1388
 1563SOL    HW214659   4.038   4.633   2.444  3.8944 -0.7930 -3.0217
 1564SOL     OW14660   1.408   1.198   0.607  0.0544  0.7034  0.0450
 1564SOL    HW114661   1.402   1.213   0.706 -1.5957  0.2828  0.0155
 1564SOL    HW214662   1.383   1.283   0.559  0.4220  0.7745 -0.0266
 1565SOL     OW14663   3.539   3.712   0.371 -0.3360  0.3346  0.4696
 1565SOL    HW114664   3.519   3.810   0.361 -0.1537  0.2745 -0.5569
 1565SOL    HW214665   3.592   3.681   0.292 -0.1222 -0.5253  0.9478
 1566SOL     OW14666   2.487   1.737   0.859 -0.1027 -0.1962  0.1348
 1566SOL    HW114667   2.440   1.820   0.891 -2.1258 -1.9651  2.0017
 1566SOL    HW214668   2.421   1.678   0.813  0.8385 -1.6776  0.6524
 1567SOL     OW14669   1.754   7.690   1.357 -0.2551 -0.6304 -0.6540
 1567SOL    HW114670   1.748   7.759   1.428  0.4291 -0.7096 -0.5170
 1567SOL    HW214671   1.804   7.726   1.278  0.0975 -0.9596 -0.5862
 1568SOL     OW14672   2.084   9.274   0.472 -0.4246 -0.2048  0.6630
 1568SOL    HW114673   2.109   9.282   0.569 -2.9373  1.4292  1.2314
 1568SOL    HW214674   2.054   9.363   0.438 -1.1056 -1.1182 -1.1739
 1569SOL     OW14675   2.441   1.710   2.640  0.0237 -0.5731  0.2247
 1569SOL    HW114676   2.473   1.768   2.565 -0.5072  0.2623  0.6402
 1569SOL    HW214677   2.519   1.665   2.683  0.6488  1.3961  1.1861
 1570SOL     OW14678   4.685   2.939   0.779  0.1865 -0.0012  0.4414
 1570SOL    HW114679   4.669   2.955   0.682 -0.5957  1.1278  0.7433
 1570SOL    HW214680   4.761   2.995   0.810 -0.1127  0.2804  0.6684
 1571SOL     OW14681   3.104   2.601   2.358 -0.2930  0.1803  0.7223
 1571SOL    HW114682   3.145   2.541   2.426 -1.1119  0.3670  1.3838
 1571SOL    HW214683   3.164   2.679   2.341 -0.9580  1.1406  2.6639
 1572SOL     OW14684   1.888   4.241   2.626  0.1116 -0.6227  0.3473
 1572SOL    HW114685   1.818   4.286   2.570 -2.1952 -0.3280  3.3188
 1572SOL    HW214686   1.851   4.225   2.717  2.6953 -3.9227  0.8803
 1573SOL     OW14687   0.979   4.615   1.751  0.1670 -0.0976 -0.6093
 1573SOL    HW114688   1.037   4.559   1.811 -0.4874  0.1448  0.2611
 1573SOL    HW214689   1.037   4.674   1.695  0.7823 -0.1579 -0.0485
 1574SOL     OW14690   3.327   3.607   1.103 -0.2168 -0.3511 -0.7215
 1574SOL    HW114691   3.247   3.642   1.152 -0.8593  0.1612 -2.1005
 1574SOL    HW214692   3.331   3.507   1.114 -0.5311 -0.2784  0.0970
 1575SOL     OW14693   0.731   4.292   1.330 -0.2780 -0.2216 -0.4457
 1575SOL    HW114694   0.813   4.344   1.356  0.5562 -1.0548 -1.3479
 1575SOL    HW214695   0.704   4.233   1.406 -0.6140  0.7483  0.2030
 1576SOL     OW14696   2.518   5.116   1.175 -0.0163  0.2992  0.3575
 1576SOL    HW114697   2.462   5.072   1.245 -0.7871  0.5597 -0.0907
 1576SOL    HW214698   2.582   5.180   1.219 -0.1629  0.1084  0.8555
 1577SOL     OW14699   1.439   4.428   0.704 -0.7880  0.4821  0.1587
 1577SOL    HW114700   1.480   4.439   0.613  0.3792 -2.4737  0.2655
 1577SOL    HW214701   1.360   4.488   0.712  0.2345  2.2269 -2.0927
 1578SOL     OW14702   8.770   3.517   2.039  0.5897  0.2227  0.4650
 1578SOL    HW114703   8.738   3.481   1.951 -0.3351 -0.0287  0.8990
 1578SOL    HW214704   8.866   3.492   2.052  0.3817 -0.8021  0.0905
 1579SOL     OW14705   2.197   6.033   1.650  0.3492 -0.2362 -0.8890
 1579SOL    HW114706   2.173   6.126   1.678  1.6236 -0.1174 -0.1298
 1579SOL    HW214707   2.280   6.004   1.698 -0.0684 -1.7953 -1.0574
 1580SOL     OW14708   0.642   3.799   2.544  1.0072  0.0783  0.1096
 1580SOL    HW114709   0.623   3.714   2.495  0.1944 -0.0559  0.6527
 1580SOL    HW214710   0.680   3.866   2.481 -2.4262  0.7687 -1.2710
 1581SOL     OW14711   1.565   7.953   2.463 -0.2398  0.1221  0.1538
 1581SOL    HW114712   1.561   8.048   2.434  0.0526 -0.1451 -0.7828
 1581SOL    HW214713   1.649   7.938   2.515  0.6671 -0.0630 -1.3343
 1582SOL     OW14714   3.065   3.795   1.782 -0.1774 -0.1841 -0.3855
 1582SOL    HW114715   3.033   3.735   1.709 -1.5409 -0.3527  0.3296
 1582SOL    HW214716   2.986   3.829   1.834  0.6861  0.9818  0.1868
 1583SOL     OW14717   1.425   3.421   0.138 -0.0016 -0.5010  0.1162
 1583SOL    HW114718   1.388   3.458   0.223  0.4440  1.1151 -0.3814
 1583SOL    HW214719   1.519   3.454   0.126 -0.9862  1.4534 -2.3515
 1584SOL     OW14720   3.847   9.374   0.791  0.9865 -0.5175  0.4040
 1584SOL    HW114721   3.835   9.468   0.820  1.9299  0.2434 -1.5566
 1584SOL    HW214722   3.822   9.312   0.865  0.8645  1.2739  1.8825
 1585SOL     OW14723   1.960   1.819   1.331 -0.2910  0.3105 -0.7438
 1585SOL    HW114724   2.022   1.744   1.354 -0.1378  0.0524 -1.9864
 1585SOL    HW214725   1.972   1.845   1.235 -0.8238  1.4755 -0.5117
 1586SOL     OW14726   2.051   5.295   0.748  0.0527 -0.3517  0.1753
 1586SOL    HW114727   2.053   5.297   0.848  0.6387 -0.7676  0.1734
 1586SOL    HW214728   2.143   5.313   0.712  0.1593 -1.7083 -0.2567
 1587SOL     OW14729   9.577   3.332   0.951 -0.3407  0.1362 -0.0874
 1587SOL    HW114730   9.618   3.254   0.905 -1.7788  0.0535 -1.2421
 1587SOL    HW214731   9.634   3.413   0.935  0.3203 -0.3436 -0.1937
 1588SOL     OW14732   0.738   4.008   2.387  0.0589  0.2336  0.4255
 1588SOL    HW114733   0.831   4.035   2.409 -0.7296 -0.0052  4.3090
 1588SOL    HW214734   0.685   4.088   2.358  1.1347  0.5427 -0.7410
 1589SOL     OW14735   2.428   0.347   1.861 -0.3871  0.0381 -0.0740
 1589SOL    HW114736   2.380   0.432   1.881 -2.1558 -0.3356 -2.5317
 1589SOL    HW214737   2.362   0.273   1.849  1.1626 -2.0510  3.3671
 1590SOL     OW14738   1.522   4.602   2.612 -0.1194  0.1737  0.0046
 1590SOL    HW114739   1.489   4.609   2.706 -1.0170  0.1615 -0.3003
 1590SOL    HW214740   1.523   4.506   2.584  0.8539  0.1056  0.2390
 1591SOL     OW14741   3.777   3.433   2.255  0.6295  0.2985 -0.2005
 1591SOL    HW114742   3.809   3.373   2.182  1.8162  0.2460  0.3514
 1591SOL    HW214743   3.852   3.453   2.318 -0.5380 -0.2079  1.3882
 1592SOL     OW14744   2.537   6.572   1.684  0.4002  0.5228 -0.4797
 1592SOL    HW114745   2.592   6.499   1.723  0.1202  0.1579 -0.7680
 1592SOL    HW214746   2.583   6.608   1.602  0.0885  0.0550 -0.8581
 1593SOL     OW14747   1.873   2.117   0.959 -0.3339 -0.1961 -0.4102
 1593SOL    HW114748   1.863   2.144   1.055 -1.5248 -0.9453 -0.3170
 1593SOL    HW214749   1.800   2.160   0.906  0.9561  1.1002 -1.1836
 1594SOL     OW14750   2.342   9.566   1.338 -0.0739  0.5863  0.2806
 1594SOL    HW114751   2.409   9.622   1.386  0.8096  0.0089 -0.2819
 1594SOL    HW214752   2.307   9.495   1.399  0.5941  0.2348  0.2569
 1595SOL     OW14753   4.073   2.606   1.540 -0.2773 -0.0151 -0.4797
 1595SOL    HW114754   3.977   2.616   1.566 -0.9545 -1.9587 -2.0964
 1595SOL    HW214755   4.086   2.638   1.446  1.1085  2.1524  0.3971
 1596SOL     OW14756   3.631   3.550   0.784  0.3372 -0.4094  0.3551
 1596SOL    HW114757   3.636   3.501   0.871 -1.8661  0.2438  0.8807
 1596SOL    HW214758   3.674   3.640   0.794 -3.3080  1.2275  1.9321
 1597SOL     OW14759   4.032   2.169   1.110  0.4786  0.4739 -0.0446
 1597SOL    HW114760   4.131   2.179   1.098  0.5522  0.2010  0.3487
 1597SOL    HW214761   4.002   2.087   1.061  0.7723 -0.6258  1.6003
 1598SOL     OW14762   1.513   4.777   0.513 -0.1067 -0.7358  0.4156
 1598SOL    HW114763   1.484   4.713   0.442  1.0213 -0.6957 -0.0920
 1598SOL    HW214764   1.613   4.784   0.513  0.1210 -2.7148  3.7109
 1599SOL     OW14765   1.588   2.522   0.846  0.0828 -0.1874  0.3993
 1599SOL    HW114766   1.621   2.550   0.936 -0.7286 -0.7630  0.8752
 1599SOL    HW214767   1.666   2.515   0.783  0.6625  0.1026  1.0793
 1600SOL     OW14768   3.936   9.415   0.533 -0.1250 -0.5141  0.8057
 1600SOL    HW114769   3.918   9.392   0.628  0.3871 -0.5472  0.8987
 1600SOL    HW214770   3.866   9.374   0.475 -0.5864 -0.2768  1.1902
 1601SOL     OW14771   1.187   2.332   2.393 -0.0279 -0.1758 -0.0572
 1601SOL    HW114772   1.178   2.261   2.323  0.8600 -0.6335  0.2929
 1601SOL    HW214773   1.098   2.375   2.408 -0.3730 -0.5710 -0.9463
 1602SOL     OW14774   3.068   0.276   0.586  0.6325  0.3413 -0.2319
 1602SOL    HW114775   2.979   0.275   0.632  0.6451 -2.6234 -0.2119
 1602SOL    HW214776   3.055   0.258   0.489  1.4275 -3.4434  0.2925
 1603SOL     OW14777   1.371   3.791   1.480 -0.0332  0.0227 -0.0237
 1603SOL    HW114778   1.363   3.773   1.382  3.6669  0.4492 -0.4918
 1603SOL    HW214779   1.355   3.706   1.531 -0.3841 -0.5762 -1.1165
 1604SOL     OW14780   3.051   4.755   1.459 -0.1049 -0.5092  0.2852
 1604SOL    HW114781   3.137   4.741   1.508  0.0287  1.8876  0.7685
 1604SOL    HW214782   2.983   4.795   1.521 -0.3695  1.2199 -1.0943
 1605SOL     OW14783   2.754   4.147   2.173  0.0819  0.2395 -0.3864
 1605SOL    HW114784   2.796   4.217   2.230 -1.4255 -0.4198  1.5533
 1605SOL    HW214785   2.767   4.057   2.215 -1.4364 -0.2081 -0.8353
 1606SOL     OW14786   1.216   6.735   1.794 -0.9266  0.4441  0.1549
 1606SOL    HW114787   1.238   6.719   1.698 -1.4253  0.0766  0.1016
 1606SOL    HW214788   1.169   6.823   1.804 -1.3638  0.2302 -0.0087
 1607SOL     OW14789   2.897   4.808   2.617 -0.0141 -0.0431 -0.0921
 1607SOL    HW114790   2.798   4.795   2.618  0.0285 -0.3403  0.5594
 1607SOL    HW214791   2.919   4.895   2.660  0.0462 -0.2658  0.3317
 1608SOL     OW14792   3.487   3.073   0.256  0.1129  0.0101 -0.0110
 1608SOL    HW114793   3.434   3.139   0.202  0.0628 -1.7399 -2.1973
 1608SOL    HW214794   3.489   3.102   0.352  0.8745  3.6683 -1.0230
 1609SOL     OW14795   4.081   9.335   2.261 -0.0726  0.0196  0.2754
 1609SOL    HW114796   4.024   9.306   2.339  1.2667  2.5285  2.2732
 1609SOL    HW214797   4.164   9.279   2.258 -0.7626 -1.0042 -0.2333
 1610SOL     OW14798   3.778   4.679   1.824 -0.5142  0.3214 -0.0456
 1610SOL    HW114799   3.779   4.779   1.827 -0.2439  0.3738 -1.6032
 1610SOL    HW214800   3.852   4.644   1.882 -3.0977  0.8958  3.7421
 1611SOL     OW14801   3.351   3.258   0.514 -0.2844 -0.3343  0.2618
 1611SOL    HW114802   3.409   3.339   0.506 -0.6631 -0.2272 -1.9120
 1611SOL    HW214803   3.268   3.272   0.460  0.3236 -2.7293 -1.4085
 1612SOL     OW14804   3.478   8.666   0.655 -0.1506  0.5729 -0.3687
 1612SOL    HW114805   3.465   8.627   0.563  1.8909  0.5839 -0.7060
 1612SOL    HW214806   3.497   8.592   0.719  1.4624  0.7885 -0.5694
 1613SOL     OW14807   8.888   3.748   0.084 -1.3709  0.2008  0.1733
 1613SOL    HW114808   8.911   3.662   0.129 -3.5068 -0.4551  0.0283
 1613SOL    HW214809   8.872   3.818   0.153  1.8800  0.9444  0.2797
 1614SOL     OW14810   1.831   3.131   1.555  0.1764 -0.9250 -0.5199
 1614SOL    HW114811   1.883   3.213   1.578 -0.3098 -0.6371 -0.4257
 1614SOL    HW214812   1.893   3.055   1.539  0.5791 -0.8578  0.6724
 1615SOL     OW14813   2.074   4.224   1.847 -0.0300 -0.3396 -0.4632
 1615SOL    HW114814   2.072   4.255   1.752  1.2090 -0.8674 -0.6754
 1615SOL    HW214815   2.087   4.124   1.850  1.2946 -0.1639  0.2554
 1616SOL     OW14816   3.766   8.119   1.703  0.1600 -0.0963 -0.3751
 1616SOL    HW114817   3.689   8.076   1.750 -1.2213  1.6033 -1.0745
 1616SOL    HW214818   3.808   8.187   1.763 -0.6745  1.0117 -1.0379
 1617SOL     OW14819   4.019   3.585   1.480 -0.0237 -0.4577 -0.3521
 1617SOL    HW114820   3.969   3.503   1.505 -1.1051  0.9676  2.3956
 1617SOL    HW214821   3.985   3.620   1.393 -1.6955 -1.1858 -0.0090
 1618SOL     OW14822   9.834   5.216   0.583  0.4971 -0.3121  0.8214
 1618SOL    HW114823   9.890   5.139   0.550  0.3705 -0.1576  0.2421
 1618SOL    HW214824   9.743   5.211   0.541 -0.5269 -1.5734  3.1231
 1619SOL     OW14825   2.136   1.006   0.192  0.5927  0.3075  0.0181
 1619SOL    HW114826   2.126   1.020   0.093  0.6945 -0.2041 -0.0669
 1619SOL    HW214827   2.195   1.078   0.230  2.0586 -0.5413 -0.6050
 1620SOL     OW14828   1.342   1.679   0.323 -0.1382  0.1370  0.1358
 1620SOL    HW114829   1.412   1.750   0.314  0.6756 -0.2374  3.1691
 1620SOL    HW214830   1.381   1.591   0.297 -0.0102  0.2051  0.0938
 1621SOL     OW14831   4.491   1.821   2.180 -0.1410  0.2894 -0.3651
 1621SOL    HW114832   4.418   1.758   2.209 -0.7470  1.5816  0.9774
 1621SOL    HW214833   4.455   1.883   2.111 -0.0083  0.2485 -0.4710
 1622SOL     OW14834   2.397   0.120   0.133  0.1614 -0.8720  0.1565
 1622SOL    HW114835   2.323   0.184   0.112 -0.1280 -2.0012 -2.4254
 1622SOL    HW214836   2.393   0.095   0.230 -2.8743 -0.9785  0.0423
 1623SOL     OW14837   0.919   3.189   0.072  0.1921 -0.2616 -0.5250
 1623SOL    HW114838   0.970   3.238   0.001 -1.3693  0.2349 -1.3261
 1623SOL    HW214839   0.955   3.096   0.081 -0.6018 -0.8704 -3.0999
 1624SOL     OW14840   2.813   9.939   1.083  0.6688 -0.3724  0.7764
 1624SOL    HW114841   2.912   9.945   1.094  0.5485  0.0385  1.7674
 1624SOL    HW214842   2.788   9.848   1.053  1.3389 -0.5208  0.6550
 1625SOL     OW14843   4.544   1.984   0.493 -0.1545  0.3923  0.1376
 1625SOL    HW114844   4.453   1.965   0.458 -0.1069  0.1867  0.1256
 1625SOL    HW214845   4.563   2.081   0.484  0.1821  0.2148 -1.1732
 1626SOL     OW14846   1.800   1.248   0.369  0.4346  0.4247 -0.1514
 1626SOL    HW114847   1.766   1.342   0.368 -0.0933  0.2312 -1.3390
 1626SOL    HW214848   1.728   1.186   0.336  0.8797 -0.3611  0.3313
 1627SOL     OW14849   9.729   2.931   0.151  0.4479 -0.4441 -0.5776
 1627SOL    HW114850   9.657   2.864   0.170 -0.8559  1.2824  0.7993
 1627SOL    HW214851   9.818   2.893   0.178  0.1146 -2.6617 -2.4520
 1628SOL     OW14852   3.321   0.629   1.918 -0.0898 -0.1334 -0.3130
 1628SOL    HW114853   3.324   0.693   1.995  0.3823 -1.6128  0.9389
 1628SOL    HW214854   3.380   0.662   1.844 -3.4750  3.2458 -1.6603
 1629SOL     OW14855   0.054   3.372   0.764 -0.2409 -0.0586  0.1933
 1629SOL    HW114856   0.043   3.455   0.709  0.9894 -0.2835 -0.4243
 1629SOL    HW214857   0.150   3.361   0.789 -0.3278 -1.4960 -0.0508
 1630SOL     OW14858   4.132   8.066   2.323 -0.1478 -0.9775  0.4648
 1630SOL    HW114859   4.080   8.142   2.285 -1.6447 -1.0033  2.3798
 1630SOL    HW214860   4.124   7.986   2.264 -2.0750 -0.9027  0.6025
 1631SOL     OW14861   3.366   1.341   1.618 -0.0341 -0.2134 -0.0113
 1631SOL    HW114862   3.383   1.248   1.651 -0.3622 -0.6488 -1.0482
 1631SOL    HW214863   3.303   1.388   1.680 -1.6781 -1.4627 -0.6838
 1632SOL     OW14864   3.861   3.866   2.587  0.9199 -0.3776 -0.2478
 1632SOL    HW114865   3.813   3.905   2.509  1.9763  1.3859 -0.0363
 1632SOL    HW214866   3.948   3.827   2.557  0.5172 -1.2912 -0.2311
 1633SOL     OW14867   3.782   3.780   0.775 -0.1030 -0.0322  0.0888
 1633SOL    HW114868   3.721   3.839   0.722  0.2636  2.3602  2.2220
 1633SOL    HW214869   3.872   3.776   0.730  0.1153  1.7263  0.3378
 1634SOL     OW14870   1.743   0.460   1.945 -0.3816  0.3202 -0.0478
 1634SOL    HW114871   1.725   0.403   1.865  0.6266 -0.8016  0.5066
 1634SOL    HW214872   1.782   0.547   1.916 -0.7853  0.2358 -0.8345
 1635SOL     OW14873   0.257   2.543   0.756  0.3699 -0.3247  0.2233
 1635SOL    HW114874   0.202   2.532   0.672  0.2041 -0.3526  0.3350
 1635SOL    HW214875   0.335   2.602   0.737  0.3511 -0.3579  0.0388
 1636SOL     OW14876   2.747   4.606   0.763 -0.3085  0.8434  0.0909
 1636SOL    HW114877   2.845   4.624   0.770 -0.0041 -1.0956  1.1579
 1636SOL    HW214878   2.731   4.531   0.699 -1.1584  1.6938 -0.7006
 1637SOL     OW14879   0.079   4.307   0.527  0.1733 -0.3652 -0.1009
 1637SOL    HW114880   0.026   4.233   0.568  2.7089 -2.5725 -0.6260
 1637SOL    HW214881   0.170   4.273   0.503  1.1548  2.7589 -1.0477
 1638SOL     OW14882   3.493   4.271   0.447 -0.4454 -0.1125 -0.0087
 1638SOL    HW114883   3.445   4.350   0.409 -0.9917  0.2084  1.2906
 1638SOL    HW214884   3.482   4.271   0.547  0.8137 -1.0034  0.1349
 1639SOL     OW14885   2.860   2.456   2.137 -0.2027  0.5554  0.7654
 1639SOL    HW114886   2.916   2.532   2.104 -0.2562  0.0175 -0.5916
 1639SOL    HW214887   2.773   2.455   2.086 -0.4581 -0.0404  1.2124
 1640SOL     OW14888   9.664   4.382   0.493 -0.0099  0.4586  0.1555
 1640SOL    HW114889   9.652   4.481   0.478  0.3628  0.0785 -2.9848
 1640SOL    HW214890   9.736   4.348   0.432 -0.2242 -1.7903  1.1232
 1641SOL     OW14891   9.483   3.768   0.026  0.3417  0.0306 -0.2974
 1641SOL    HW114892   9.582   3.781   0.030  0.3839 -0.3673  0.0659
 1641SOL    HW214893   9.458   3.687   0.079 -0.1897  0.1814 -0.3128
 1642SOL     OW14894   0.512   4.974   0.176  0.0889 -0.0921 -0.0636
 1642SOL    HW114895   0.545   5.049   0.117 -1.0688 -0.6927 -1.5048
 1642SOL    HW214896   0.416   4.955   0.154  0.3915 -2.0319  0.2646
 1643SOL     OW14897   2.878   9.340   2.703 -0.6101 -0.1399 -0.5665
 1643SOL    HW114898   2.941   9.263   2.698  1.6673  1.6840 -1.3370
 1643SOL    HW214899   2.864   9.378   2.611 -1.6824  0.3750 -0.2034
 1644SOL     OW14900   1.824   7.426   2.728  0.1071  0.2564 -0.8286
 1644SOL    HW114901   1.908   7.447   2.679  0.4083  0.6675 -0.1398
 1644SOL    HW214902   1.775   7.511   2.749  0.5693  0.1714  0.6276
 1645SOL     OW14903   2.113   2.792   1.656  0.5235  0.4779  0.0560
 1645SOL    HW114904   2.201   2.747   1.672  0.4163  0.7836  1.4959
 1645SOL    HW214905   2.129   2.888   1.633  0.6496  0.1433 -1.2987
 1646SOL     OW14906   2.185   3.652   1.523 -0.0748 -0.2785 -0.4831
 1646SOL    HW114907   2.090   3.656   1.552  0.0832  1.0733 -0.1156
 1646SOL    HW214908   2.214   3.742   1.490  0.1835 -1.4045 -3.4654
 1647SOL     OW14909   9.290   4.971   1.292 -0.2070 -0.5573  0.0348
 1647SOL    HW114910   9.370   5.026   1.270 -1.5146  1.2894 -0.1576
 1647SOL    HW214911   9.207   5.027   1.286 -1.5560 -2.4900 -0.0157
 1648SOL     OW14912   1.031   4.865   0.539 -0.3023 -0.4083  0.3855
 1648SOL    HW114913   1.074   4.896   0.454 -0.2638  0.3687  0.6873
 1648SOL    HW214914   1.089   4.890   0.617 -0.9768  0.0468  0.7433
 1649SOL     OW14915   1.388   2.565   2.731  0.3439  0.7006 -0.2322
 1649SOL    HW114916   1.468   2.521   2.772 -0.4288 -0.6918 -0.2081
 1649SOL    HW214917   1.415   2.608   2.645  1.0494 -0.0072 -0.3679
 1650SOL     OW14918   3.490   1.556   1.867  0.1337  0.0372 -0.0679
 1650SOL    HW114919   3.417   1.587   1.807  0.5691  3.3694  0.9790
 1650SOL    HW214920   3.577   1.559   1.818  0.4217  2.3210  0.4755
 1651SOL     OW14921   3.835   7.950   2.420 -0.3251  0.1353 -0.3244
 1651SOL    HW114922   3.884   7.906   2.495  0.1904  0.9302 -0.1831
 1651SOL    HW214923   3.785   8.030   2.455 -3.4356 -1.8452 -0.0731
 1652SOL     OW14924   0.832   6.930   2.648 -0.1258  0.6405 -0.2524
 1652SOL    HW114925   0.793   6.879   2.725  1.2366 -1.3643 -0.8640
 1652SOL    HW214926   0.930   6.943   2.664 -0.0944  1.3503 -1.0408
 1653SOL     OW14927   4.438   3.258   1.075 -0.0102  0.0191  0.4554
 1653SOL    HW114928   4.474   3.268   0.982  1.7313  1.9849  1.2891
 1653SOL    HW214929   4.340   3.278   1.074  0.1820  1.0373 -0.8289
 1654SOL     OW14930   9.868   2.619   0.909  0.0358 -0.0719 -0.5553
 1654SOL    HW114931   9.811   2.556   0.856  2.0694 -0.2510 -2.5823
 1654SOL    HW214932   9.901   2.692   0.850  2.0382 -0.0627  0.5335
 1655SOL     OW14933   2.473   8.523   0.742  0.1579 -0.7117 -0.4738
 1655SOL    HW114934   2.514   8.465   0.671 -0.8452 -0.8242 -0.9566
 1655SOL    HW214935   2.388   8.563   0.708  0.0792 -0.1389  0.3889
 1656SOL     OW14936   4.097   0.656   0.517 -0.3979  0.0871 -0.0687
 1656SOL    HW114937   4.123   0.721   0.589 -0.8440 -0.6953  0.8067
 1656SOL    HW214938   4.166   0.656   0.445  1.0845 -0.6106  1.3346
 1657SOL     OW14939   2.184   2.390   0.007  0.2031  0.0144  0.3052
 1657SOL    HW114940   2.242   2.382  -0.074 -1.9044 -0.5547 -1.1894
 1657SOL    HW214941   2.201   2.312   0.068  1.3632  0.1221  0.1237
 1658SOL     OW14942   0.437   2.718   0.184 -0.0246  0.5643 -0.7882
 1658SOL    HW114943   0.500   2.796   0.183  0.4288  0.2076 -0.3644
 1658SOL    HW214944   0.479   2.641   0.136  0.6755 -0.2986  1.1691
 1659SOL     OW14945   1.984   9.582   0.356  0.3369  0.6624  0.8818
 1659SOL    HW114946   1.922   9.573   0.278 -0.7701 -2.5509  2.0275
 1659SOL    HW214947   2.008   9.678   0.369 -1.6781  1.5854 -1.6711
 1660SOL     OW14948   4.123   3.189   0.232  0.3774 -0.0069  0.0424
 1660SOL    HW114949   4.091   3.102   0.271 -0.1306 -0.1531 -0.6947
 1660SOL    HW214950   4.061   3.263   0.260 -1.6585 -0.5559 -2.7879
 1661SOL     OW14951   0.650   5.370   0.925 -0.4319 -0.3287  0.2939
 1661SOL    HW114952   0.718   5.393   0.855  0.8947  0.8373  1.9458
 1661SOL    HW214953   0.612   5.454   0.964  0.2873 -0.9536  2.3702
 1662SOL     OW14954   4.830   3.383   0.343 -0.5767 -0.9745 -1.0648
 1662SOL    HW114955   4.868   3.399   0.434  0.4288  0.7883 -1.7663
 1662SOL    HW214956   4.730   3.376   0.349 -0.6026  0.1799  0.0547
 1663SOL     OW14957   2.042   8.290   2.644 -0.0255  0.0402  0.5417
 1663SOL    HW114958   2.133   8.279   2.603 -0.0085 -1.7308  1.0156
 1663SOL    HW214959   2.051   8.339   2.731  0.5590 -0.6364  0.8711
 1664SOL     OW14960   3.260   2.623   0.758 -0.2735  0.5276 -0.1700
 1664SOL    HW114961   3.186   2.556   0.764  0.7877 -0.5277  1.7961
 1664SOL    HW214962   3.326   2.595   0.688 -0.4357  0.1205 -0.1587
 1665SOL     OW14963   3.723   2.247   0.322  0.0235  0.2058  0.3442
 1665SOL    HW114964   3.678   2.162   0.353 -1.0522  0.6481  0.0281
 1665SOL    HW214965   3.801   2.266   0.381  0.7336 -1.4121 -0.0490
 1666SOL     OW14966   0.658   7.040   0.301  0.1359 -0.8182 -0.2442
 1666SOL    HW114967   0.609   7.022   0.386 -0.8637 -1.8444 -1.0168
 1666SOL    HW214968   0.643   7.135   0.273  2.3491  0.2277  1.8958
 1667SOL     OW14969   0.707   4.667   1.744  0.9365  0.1104 -0.5641
 1667SOL    HW114970   0.658   4.688   1.828  1.0768  0.1578 -0.4952
 1667SOL    HW214971   0.805   4.672   1.760  0.9734 -0.8199 -0.4881
 1668SOL     OW14972   1.063   6.915   2.209  0.6384 -0.1570  0.4131
 1668SOL    HW114973   1.027   6.832   2.252  0.5921 -0.1427  0.4021
 1668SOL    HW214974   1.162   6.914   2.213  0.7290 -1.2424 -1.4661
 1669SOL     OW14975   4.498   2.085   0.885 -0.0808  0.6786 -0.1174
 1669SOL    HW114976   4.592   2.114   0.872 -0.0389  0.5676 -0.0669
 1669SOL    HW214977   4.469   2.028   0.808  0.0290  0.3707  0.0680
 1670SOL     OW14978   1.158   6.697   1.213 -0.5500 -0.0271  0.0247
 1670SOL    HW114979   1.079   6.651   1.172  0.7006 -1.3698 -0.9071
 1670SOL    HW214980   1.241   6.672   1.164  0.1265  3.7568 -0.9589
 1671SOL     OW14981   3.305   9.840   0.275  0.4768 -0.2641 -0.4542
 1671SOL    HW114982   3.402   9.852   0.256  0.9938  0.0214  2.1789
 1671SOL    HW214983   3.290   9.833   0.374 -2.0096 -1.9287 -0.8878
 1672SOL     OW14984   2.865   1.499   0.067 -0.1670  0.0048  0.1500
 1672SOL    HW114985   2.836   1.423   0.125  0.6554  0.3651  1.0418
 1672SOL    HW214986   2.832   1.585   0.106 -0.4988  0.1715 -0.4808
 1673SOL     OW14987   2.309   9.306   2.453  0.3307 -0.0315 -0.8480
 1673SOL    HW114988   2.304   9.384   2.515 -2.6157  0.0898 -1.1584
 1673SOL    HW214989   2.343   9.336   2.363 -0.9717  0.9465 -1.0228
 1674SOL     OW14990   9.068   5.074   0.004  0.1870 -0.2788 -0.3625
 1674SOL    HW114991   9.031   5.114   0.088 -1.2058 -2.4253  0.0838
 1674SOL    HW214992   9.027   5.119  -0.075 -1.0819 -0.5601  0.1253
 1675SOL     OW14993   0.001   2.899   2.663 -0.5685 -0.2098  0.2862
 1675SOL    HW114994   0.071   2.965   2.636 -1.3012 -0.2229 -1.6872
 1675SOL    HW214995   0.021   2.866   2.756  0.4177  1.9356  0.8801
 1676SOL     OW14996   3.729   0.942   0.656 -0.3325  0.6787 -0.1525
 1676SOL    HW114997   3.730   0.919   0.753  1.1824 -0.2927 -0.3724
 1676SOL    HW214998   3.814   0.988   0.632 -0.2927  0.0890 -1.1972
 1677SOL     OW14999   9.496   5.035   2.172 -0.7946  0.7936 -0.0035
 1677SOL    HW115000   9.457   4.943   2.180 -0.8700  0.7016 -1.3576
 1677SOL    HW215001   9.570   5.034   2.105  0.9144  1.1782  1.8399
 1678SOL     OW15002   1.635   1.270   2.593  0.0401 -0.1100 -0.2909
 1678SOL    HW115003   1.633   1.359   2.638  2.9486 -0.9957  1.6788
 1678SOL    HW215004   1.642   1.197   2.661 -0.1977 -1.7501 -1.9673
 1679SOL     OW15005   3.067   9.537   2.763  0.7547 -0.0563  0.4084
 1679SOL    HW115006   3.012   9.464   2.722 -1.3625  1.4777  0.4119
 1679SOL    HW215007   3.072   9.523   2.862  0.1839 -0.0895  0.4344
 1680SOL     OW15008   9.891   5.833   0.134 -0.2348  0.1430 -0.0584
 1680SOL    HW115009   9.968   5.803   0.191 -1.8660 -2.9580  0.6557
 1680SOL    HW215010   9.876   5.766   0.062 -2.2752  0.6921 -0.1544
 1681SOL     OW15011   4.834   2.589   0.102 -0.3952  0.0048  0.2528
 1681SOL    HW115012   4.779   2.661   0.060 -1.4756 -0.5225  0.7383
 1681SOL    HW215013   4.857   2.615   0.196  0.0826  0.1797  0.0836
 1682SOL     OW15014   3.367   5.308   2.304  0.6794  0.6005  0.5299
 1682SOL    HW115015   3.380   5.369   2.383  0.4404  1.4610 -0.0982
 1682SOL    HW215016   3.277   5.322   2.265  0.1644 -1.0158  1.1071
 1683SOL     OW15017   3.152   4.335   1.406  0.0629 -0.0812  0.5108
 1683SOL    HW115018   3.244   4.296   1.408 -0.3871 -1.1803  0.4749
 1683SOL    HW215019   3.130   4.372   1.496  0.4708  0.0127  0.5731
 1684SOL     OW15020   1.163   5.360   0.548  0.4413  0.1274 -0.1244
 1684SOL    HW115021   1.096   5.427   0.580 -1.3250 -2.2906  1.4154
 1684SOL    HW215022   1.241   5.359   0.612  1.2234  1.7675 -1.0121
 1685SOL     OW15023   2.030   4.689   1.929 -0.3268 -0.0825 -0.5753
 1685SOL    HW115024   2.076   4.603   1.952  0.7014  0.4863 -0.4399
 1685SOL    HW215025   1.931   4.675   1.927 -0.2876 -0.7792  1.4857
 1686SOL     OW15026   2.505   8.910   1.031 -0.7708 -0.7894  0.5150
 1686SOL    HW115027   2.487   9.004   1.059 -0.3993 -0.6252  0.2209
 1686SOL    HW215028   2.421   8.857   1.037 -1.0791 -0.3375  0.2991
 1687SOL     OW15029   8.972   4.164   2.418  0.2104  0.4419  0.3553
 1687SOL    HW115030   8.998   4.191   2.511 -1.8224  0.3538  0.9925
 1687SOL    HW215031   8.996   4.068   2.403  2.0740  0.9249  0.1896
 1688SOL     OW15032   1.859   3.417   2.334 -0.3711 -0.3358  0.8671
 1688SOL    HW115033   1.863   3.341   2.398  2.3892 -1.9074 -1.0806
 1688SOL    HW215034   1.887   3.501   2.380  0.1476 -1.1686  2.0949
 1689SOL     OW15035   2.757   8.937   1.150  0.0577 -0.0067 -0.4266
 1689SOL    HW115036   2.675   8.900   1.105  0.5431  0.2489 -1.5321
 1689SOL    HW215037   2.730   9.013   1.209 -0.4738  0.2088 -0.9396
 1690SOL     OW15038   2.717   3.464   2.416  0.4517  0.1057  0.1685
 1690SOL    HW115039   2.811   3.498   2.418  0.2397  0.6573  1.1749
 1690SOL    HW215040   2.718   3.368   2.388  1.3735 -0.0682  0.7545
 1691SOL     OW15041   2.256   7.943   1.286 -0.4751  0.5948  0.2517
 1691SOL    HW115042   2.299   7.978   1.370  2.3975  0.9095 -1.2809
 1691SOL    HW215043   2.205   8.017   1.242  0.5912  1.2804  0.1405
 1692SOL     OW15044   3.342   9.684   1.555 -0.1713 -0.1240  0.0697
 1692SOL    HW115045   3.399   9.603   1.539 -0.0843  0.0465 -0.5124
 1692SOL    HW215046   3.246   9.656   1.566  0.1124 -0.4840  1.7873
 1693SOL     OW15047   4.107   3.108   1.334 -0.5109  0.0994 -0.0791
 1693SOL    HW115048   4.170   3.032   1.317 -1.8502 -0.7636 -1.3081
 1693SOL    HW215049   4.093   3.117   1.433  1.0446 -0.0772  0.1858
 1694SOL     OW15050   2.178   2.344   0.945 -0.4416  0.2658 -0.3997
 1694SOL    HW115051   2.195   2.253   0.984 -0.9914 -1.3859 -3.7972
 1694SOL    HW215052   2.080   2.358   0.937 -0.3450  0.9659 -0.3173
 1695SOL     OW15053   0.289   4.233   1.701 -0.2140 -0.3582  0.1307
 1695SOL    HW115054   0.231   4.311   1.723  1.5984  0.9249  0.4713
 1695SOL    HW215055   0.292   4.221   1.602  1.4130  1.5569 -0.0943
 1696SOL     OW15056   3.920   0.520   0.649 -0.2340 -0.1252  0.3264
 1696SOL    HW115057   3.978   0.580   0.593  0.2284 -0.4411  0.4726
 1696SOL    HW215058   3.858   0.470   0.589  0.8684 -1.1302  0.0119
 1697SOL     OW15059   1.064   2.694   0.652 -0.8743  0.3579  0.6952
 1697SOL    HW115060   1.058   2.641   0.737  0.4160 -1.3801 -0.2863
 1697SOL    HW215061   1.115   2.643   0.584 -1.2233  2.0856 -0.9010
 1698SOL     OW15062   2.331   5.620   1.791 -0.1836 -0.1254  0.8667
 1698SOL    HW115063   2.313   5.530   1.830 -3.2947 -1.0258 -2.3730
 1698SOL    HW215064   2.423   5.620   1.751 -0.3455 -2.0925  0.4124
 1699SOL     OW15065   1.502   3.432   1.025  0.8233  0.5758 -0.3651
 1699SOL    HW115066   1.408   3.444   0.996  1.3873  0.3884 -2.3359
 1699SOL    HW215067   1.530   3.508   1.083 -1.6667 -1.1660  3.3654
 1700SOL     OW15068   2.326   8.326   2.606 -0.0570  0.0103 -0.4971
 1700SOL    HW115069   2.376   8.240   2.618  1.4950  0.8555 -0.7267
 1700SOL    HW215070   2.317   8.372   2.694 -1.3354 -0.6059 -0.2877
 1701SOL     OW15071   0.113   2.677   1.185  0.0210 -0.0825  0.0579
 1701SOL    HW115072   0.034   2.631   1.145  0.5347  0.4016 -1.5360
 1701SOL    HW215073   0.173   2.609   1.228 -0.5675 -0.6053  0.0564
 1702SOL     OW15074   2.013   7.758   2.267 -0.3289  0.3570 -0.0210
 1702SOL    HW115075   2.105   7.720   2.274 -0.3626 -0.3615 -3.0691
 1702SOL    HW215076   1.952   7.706   2.327  0.5319 -1.4706 -0.6867
 1703SOL     OW15077   3.043   2.415   0.060  0.0502 -0.3651 -0.3485
 1703SOL    HW115078   3.073   2.320   0.055 -0.4565 -0.4482 -2.8106
 1703SOL    HW215079   2.989   2.430   0.142  3.1976 -1.2790  1.9604
 1704SOL     OW15080   3.519   2.422   0.386 -0.2641 -0.1055  0.7875
 1704SOL    HW115081   3.599   2.365   0.367  0.2915  0.9540 -0.1120
 1704SOL    HW215082   3.438   2.381   0.342  0.1287 -0.1947  0.1380
 1705SOL     OW15083   2.506   4.131   0.007  0.3030  0.8616  0.6971
 1705SOL    HW115084   2.574   4.201  -0.016  0.5618  1.0328  1.9320
 1705SOL    HW215085   2.488   4.133   0.105  0.4758 -0.9511  0.7932
 1706SOL     OW15086   1.455   5.163   1.216  0.0491  0.3085 -0.5105
 1706SOL    HW115087   1.434   5.220   1.295  1.1451  0.5721 -0.4074
 1706SOL    HW215088   1.554   5.159   1.203  0.3114 -4.6349  1.7612
 1707SOL     OW15089   3.597   7.839   0.682  0.2208  0.0625  0.0883
 1707SOL    HW115090   3.630   7.802   0.595  0.8906  0.0162  0.3573
 1707SOL    HW215091   3.638   7.929   0.698  0.7857 -0.3155  0.7716
 1708SOL     OW15092   2.590   2.619   1.539  0.0619 -0.6654  0.1215
 1708SOL    HW115093   2.615   2.522   1.545 -0.1742 -0.6933  0.6851
 1708SOL    HW215094   2.654   2.667   1.480  0.7405 -0.9712  0.6113
 1709SOL     OW15095   3.572   0.877   1.634  0.3604  0.6681  0.0659
 1709SOL    HW115096   3.616   0.843   1.550  1.8381 -1.3695  1.6109
 1709SOL    HW215097   3.640   0.924   1.690 -0.5820  1.8381  0.2637
 1710SOL     OW15098   0.791   3.729   2.206  0.2499 -0.2344 -0.0703
 1710SOL    HW115099   0.789   3.789   2.126  1.7810  0.2535  0.2423
 1710SOL    HW215100   0.810   3.784   2.288  1.2036 -1.0757  0.2842
 1711SOL     OW15101   1.028   3.219   2.301 -0.1380 -0.5090 -0.1603
 1711SOL    HW115102   0.983   3.197   2.387  0.9967 -1.9186  0.0918
 1711SOL    HW215103   0.982   3.297   2.258 -1.4330 -0.5393  1.1392
 1712SOL     OW15104   2.298   2.155   1.098 -0.1546 -0.1090 -0.1014
 1712SOL    HW115105   2.268   2.133   1.190  0.2445  1.5288  0.4396
 1712SOL    HW215106   2.364   2.231   1.101 -0.5706  0.3457 -1.7596
 1713SOL     OW15107   1.435   7.328   1.521 -0.4028 -0.7111  0.2748
 1713SOL    HW115108   1.433   7.323   1.621  2.3690 -0.3981  0.3953
 1713SOL    HW215109   1.499   7.259   1.486  0.0853  0.4542 -1.1513
 1714SOL     OW15110   1.861   6.784   1.744 -0.5792 -0.5524 -0.0731
 1714SOL    HW115111   1.850   6.821   1.652  0.1037 -1.5606 -0.5809
 1714SOL    HW215112   1.775   6.743   1.774 -1.4381  1.7222  0.6370
 1715SOL     OW15113   3.328   3.551   0.285 -0.3851 -0.0683  0.2064
 1715SOL    HW115114   3.407   3.610   0.301 -0.4829  0.0411  0.2845
 1715SOL    HW215115   3.259   3.567   0.356 -0.3089 -0.4491  0.3723
 1716SOL     OW15116   3.903   4.208   1.281 -0.5923 -0.4180  0.0253
 1716SOL    HW115117   3.900   4.109   1.300  1.6363 -0.7927 -1.4077
 1716SOL    HW215118   3.995   4.242   1.301 -1.2920  1.3393  0.2698
 1717SOL     OW15119   3.830   0.830   0.419 -0.0805 -0.0919 -0.7037
 1717SOL    HW115120   3.886   0.751   0.446 -0.5703 -0.5123 -0.8999
 1717SOL    HW215121   3.753   0.838   0.481  1.1545  1.5525  0.6405
 1718SOL     OW15122   3.610   1.618   1.298  0.1073 -0.7424 -0.2795
 1718SOL    HW115123   3.610   1.605   1.397  0.0802 -0.7094 -0.2749
 1718SOL    HW215124   3.575   1.535   1.253  0.3751 -0.8573 -0.2754
 1719SOL     OW15125   0.006   2.394   2.336  0.1271 -0.2283 -0.1951
 1719SOL    HW115126  -0.002   2.315   2.276  1.3235 -0.5973  0.1278
 1719SOL    HW215127   0.045   2.366   2.424  1.0397  0.7983 -0.2643
 1720SOL     OW15128   0.334   4.225   0.525  0.4763 -0.2788  0.0111
 1720SOL    HW115129   0.413   4.179   0.565  0.7147  1.8557  2.0497
 1720SOL    HW215130   0.365   4.287   0.453  0.5576 -0.1944  0.1187
 1721SOL     OW15131   2.326   6.968   1.685  0.1149 -0.1811 -0.1538
 1721SOL    HW115132   2.251   6.942   1.746  1.4715  0.0788  1.6562
 1721SOL    HW215133   2.289   7.021   1.608 -1.4620  0.8353  1.2620
 1722SOL     OW15134   4.657   2.203   2.011  0.4108  0.4499 -0.6099
 1722SOL    HW115135   4.592   2.202   1.935  1.0684 -0.2501 -1.1548
 1722SOL    HW215136   4.661   2.113   2.054  0.7508  0.5910 -0.3367
 1723SOL     OW15137   0.369   2.264   2.027  0.4017  0.3415 -0.1219
 1723SOL    HW115138   0.292   2.281   1.965 -0.4841 -0.0364  0.8597
 1723SOL    HW215139   0.368   2.331   2.101  0.6240 -0.0867  0.2676
 1724SOL     OW15140   1.143   4.212   0.555 -0.3912  0.1051 -0.0613
 1724SOL    HW115141   1.213   4.238   0.622 -0.8304 -0.3879  0.5916
 1724SOL    HW215142   1.052   4.226   0.594 -0.6532 -0.0912 -0.5956
 1725SOL     OW15143   1.010   3.508   2.446 -0.1231  0.1297 -0.4879
 1725SOL    HW115144   0.935   3.495   2.382 -0.6399  0.1668  0.1061
 1725SOL    HW215145   1.037   3.420   2.486 -0.0483  0.1557 -0.4792
 1726SOL     OW15146   2.589   5.501   1.007  0.1972  0.1352  0.2285
 1726SOL    HW115147   2.589   5.402   0.996 -0.4523  0.1856 -0.2449
 1726SOL    HW215148   2.673   5.529   1.055  1.3266 -0.4607 -1.3361
 1727SOL     OW15149   9.849   4.230   2.659 -0.4620  0.2100 -0.5146
 1727SOL    HW115150   9.821   4.273   2.745  1.9126 -1.0955  0.9368
 1727SOL    HW215151   9.945   4.249   2.641  0.0008 -2.4443 -1.0891
 1728SOL     OW15152   1.827   5.275   1.143 -0.5803 -0.0515 -0.3887
 1728SOL    HW115153   1.775   5.335   1.205 -1.1287  1.6775 -2.4444
 1728SOL    HW215154   1.786   5.184   1.141 -0.9658  0.0838  1.2529
 1729SOL     OW15155   3.976   4.114   1.637  0.0114  0.6709  0.2036
 1729SOL    HW115156   4.006   4.199   1.680 -1.0571  0.9020  0.5153
 1729SOL    HW215157   4.053   4.051   1.629  0.5796  1.2741  0.9301
 1730SOL     OW15158   0.407   5.528   2.782  0.5690 -0.2519  0.1568
 1730SOL    HW115159   0.468   5.581   2.723 -0.0158  1.1020  0.7430
 1730SOL    HW215160   0.460   5.460   2.833  1.4211  0.1687 -0.1635
 1731SOL     OW15161   9.837   3.861   1.442 -0.0268  0.0612 -0.1703
 1731SOL    HW115162   9.852   3.774   1.489  4.0107  0.2595 -0.9494
 1731SOL    HW215163   9.771   3.916   1.494 -1.5775 -2.8593  1.0558
 1732SOL     OW15164   3.963   8.724   0.734  0.0408 -0.1307  0.5385
 1732SOL    HW115165   3.930   8.794   0.798  0.8026  0.2877  0.4743
 1732SOL    HW215166   4.012   8.653   0.784  1.4367  0.6699  0.3158
 1733SOL     OW15167   1.378   7.721   1.788  0.3448 -0.2921 -0.5584
 1733SOL    HW115168   1.281   7.720   1.763  0.4484 -0.6251 -0.9507
 1733SOL    HW215169   1.403   7.632   1.826  0.3978 -0.0686 -0.0625
 1734SOL     OW15170   0.641   2.615   0.799 -0.1116 -0.6060  0.2757
 1734SOL    HW115171   0.691   2.570   0.874  1.0649  2.5088  1.4345
 1734SOL    HW215172   0.572   2.676   0.837  0.2410  0.7314 -1.1850
 1735SOL     OW15173   2.581   4.428   1.353  0.1018 -0.3628 -0.1492
 1735SOL    HW115174   2.622   4.417   1.263  1.3935  1.9664  0.1051
 1735SOL    HW215175   2.543   4.521   1.361  1.3743 -0.0064  2.2247
 1736SOL     OW15176   0.139   3.125   2.609 -0.1806  0.6799  0.6752
 1736SOL    HW115177   0.228   3.148   2.568  1.4191 -3.2291  1.7937
 1736SOL    HW215178   0.130   3.172   2.696 -0.0468  2.5143 -0.2633
 1737SOL     OW15179   1.927   5.273   1.693  0.0252 -0.2789 -1.0323
 1737SOL    HW115180   1.873   5.346   1.735  1.1786  1.0291 -1.7702
 1737SOL    HW215181   2.024   5.294   1.703  0.3694 -1.7462 -1.2308
 1738SOL     OW15182   2.439   6.422   0.525  0.5126  0.0153  0.0810
 1738SOL    HW115183   2.360   6.421   0.464  0.2877 -0.4872  0.3802
 1738SOL    HW215184   2.494   6.503   0.506 -0.5195  0.8135  0.4541
 1739SOL     OW15185   1.950   8.042   0.932 -0.1148 -0.1790 -0.7029
 1739SOL    HW115186   1.980   7.948   0.950  1.3989  0.1114 -1.5928
 1739SOL    HW215187   1.978   8.069   0.840 -0.1500  1.2942 -0.2989
 1740SOL     OW15188   3.105   1.392   1.134 -0.2064  0.5348  0.3203
 1740SOL    HW115189   3.142   1.439   1.214  0.5839 -1.9285  1.4591
 1740SOL    HW215190   3.031   1.332   1.162  0.3872 -0.7017 -0.7188
 1741SOL     OW15191   1.839   4.947   1.679 -0.0198 -0.0231  0.0147
 1741SOL    HW115192   1.822   5.039   1.714 -2.3189 -0.3920 -0.0333
 1741SOL    HW215193   1.929   4.944   1.635 -0.2247  2.3867 -0.6441
 1742SOL     OW15194   9.022   5.000   1.280  0.0047 -0.3311 -0.1989
 1742SOL    HW115195   9.037   4.933   1.352  0.2076 -1.1940 -1.0350
 1742SOL    HW215196   8.946   4.971   1.221 -1.6788  1.4978  0.9922
 1743SOL     OW15197   2.182   6.362   0.347 -0.3490 -0.6466 -0.4819
 1743SOL    HW115198   2.171   6.419   0.266 -1.6031 -0.5027 -0.2229
 1743SOL    HW215199   2.120   6.394   0.419 -0.6468 -1.9726 -0.1315
 1744SOL     OW15200   2.932   3.229   1.455 -0.1549  0.3221 -0.1632
 1744SOL    HW115201   2.840   3.255   1.427 -0.9844  0.3722  2.4731
 1744SOL    HW215202   2.990   3.311   1.460 -0.0343  0.3252 -1.5555
 1745SOL     OW15203   1.165   4.193   2.084  0.2948 -0.3104 -0.1112
 1745SOL    HW115204   1.106   4.209   2.163 -0.0243 -2.3677  0.0915
 1745SOL    HW215205   1.257   4.225   2.104 -0.4570  1.8660 -0.0068
 1746SOL     OW15206   3.552   9.370   0.689 -0.4122  1.4040  0.1741
 1746SOL    HW115207   3.500   9.411   0.615 -1.5103 -0.1483  0.0739
 1746SOL    HW215208   3.649   9.367   0.663 -0.3923  3.3937 -0.0391
 1747SOL     OW15209   0.511   3.470   2.310  0.3623 -0.0146  0.2891
 1747SOL    HW115210   0.570   3.390   2.308 -0.9103 -0.9994 -3.9189
 1747SOL    HW215211   0.426   3.447   2.357  0.7587 -0.5787  0.7341
 1748SOL     OW15212   0.249   3.488   2.762 -0.2445  0.1982  0.0824
 1748SOL    HW115213   0.157   3.500   2.723  1.0612  2.3684 -2.4715
 1748SOL    HW215214   0.268   3.564   2.824 -0.9014 -1.3334  2.2348
 1749SOL     OW15215   2.002   3.758   0.602  0.4822 -0.4939  0.1836
 1749SOL    HW115216   2.066   3.689   0.635  0.4783 -1.4278 -1.6678
 1749SOL    HW215217   1.911   3.742   0.641  0.7821 -0.7311  0.7846
 1750SOL     OW15218   1.937   4.243   0.104 -0.0101 -0.0350  0.2654
 1750SOL    HW115219   2.021   4.275   0.148 -1.1092  1.5575  1.2743
 1750SOL    HW215220   1.910   4.155   0.143  0.4197  0.1396  0.9603
 1751SOL     OW15221   2.515   8.423   1.258  0.1608 -0.4134 -0.2876
 1751SOL    HW115222   2.458   8.365   1.316 -0.2516  0.9467  0.7137
 1751SOL    HW215223   2.609   8.422   1.291  0.4803 -1.6735 -1.1852
 1752SOL     OW15224   4.184   5.253   1.534  0.0055 -0.2400 -0.4491
 1752SOL    HW115225   4.123   5.241   1.456  0.3643 -3.0413 -0.3272
 1752SOL    HW215226   4.139   5.222   1.618  0.9924 -0.7960 -0.1149
 1753SOL     OW15227   2.479   8.541   2.475 -1.0000 -0.6675 -0.6525
 1753SOL    HW115228   2.410   8.489   2.526  0.2242 -0.0828  1.6454
 1753SOL    HW215229   2.493   8.630   2.518  0.6794 -0.4863 -1.5322
 1754SOL     OW15230   2.212   4.360   0.285  0.3464  0.3797 -0.3486
 1754SOL    HW115231   2.184   4.456   0.284 -1.7322 -0.2034 -2.1487
 1754SOL    HW215232   2.178   4.316   0.368  0.4559  0.9752  0.0106
 1755SOL     OW15233   1.708   2.959   0.334 -0.2886  0.2024 -0.0459
 1755SOL    HW115234   1.755   2.966   0.246 -2.1064  0.5312 -1.0200
 1755SOL    HW215235   1.640   3.032   0.341 -0.1215  0.2197  1.6798
 1756SOL     OW15236   3.422   1.238   0.102 -0.3150  0.3070  0.6413
 1756SOL    HW115237   3.392   1.182   0.025 -1.0024 -1.6753  2.2984
 1756SOL    HW215238   3.442   1.179   0.180 -0.8472  2.3723  2.3894
 1757SOL     OW15239   2.327   7.812   0.849  0.0841  0.6344 -0.9460
 1757SOL    HW115240   2.348   7.803   0.946 -2.3517  2.5412 -0.1932
 1757SOL    HW215241   2.385   7.883   0.809  2.2249 -1.2412 -1.3269
 1758SOL     OW15242   2.568   1.004   0.486  0.2429 -0.4367 -0.5194
 1758SOL    HW115243   2.479   1.031   0.450 -0.3757 -1.2089  0.3901
 1758SOL    HW215244   2.627   1.084   0.495 -0.7783  0.2598  0.0263
 1759SOL     OW15245   3.018   3.726   1.206 -0.1321  0.3565 -0.4726
 1759SOL    HW115246   2.937   3.754   1.155 -1.4667  0.9730  1.9082
 1759SOL    HW215247   3.077   3.805   1.220 -1.5387  1.0103  2.0337
 1760SOL     OW15248   2.039   5.738   1.246  0.6281  0.2126  0.3636
 1760SOL    HW115249   2.043   5.673   1.322 -0.1807 -0.5807 -0.2642
 1760SOL    HW215250   2.067   5.692   1.162  0.0693  0.6821 -0.0839
 1761SOL     OW15251   3.081   3.865   0.299 -0.5021 -0.2554 -0.1216
 1761SOL    HW115252   3.104   3.780   0.345 -0.3350  0.2516  0.7452
 1761SOL    HW215253   3.145   3.937   0.327 -2.1544  0.7712  1.0938
 1762SOL     OW15254   8.642   4.729   0.424 -0.3313  0.1057  0.5421
 1762SOL    HW115255   8.654   4.822   0.459 -2.9612  1.2195 -1.3121
 1762SOL    HW215256   8.686   4.722   0.334  0.7188 -0.7590  1.1165
 1763SOL     OW15257   2.372   7.332   1.303 -0.3574 -0.0571 -0.9038
 1763SOL    HW115258   2.300   7.340   1.371 -1.2504  0.8256 -1.9518
 1763SOL    HW215259   2.350   7.257   1.240 -0.6691  0.6037 -1.5878
 1764SOL     OW15260   1.841   0.294   0.300  0.0026 -0.0062 -0.5716
 1764SOL    HW115261   1.806   0.260   0.213  0.1216 -2.4309  0.2884
 1764SOL    HW215262   1.764   0.315   0.361 -0.0583  0.1277 -0.6957
 1765SOL     OW15263   9.767   4.121   2.249  0.0371  0.2080 -0.0068
 1765SOL    HW115264   9.670   4.144   2.245 -0.0488 -0.3446 -2.2555
 1765SOL    HW215265   9.777   4.023   2.265  0.2398  0.3623  0.8130
 1766SOL     OW15266   3.519   5.277   1.913  0.6390 -0.1705  0.5560
 1766SOL    HW115267   3.442   5.241   1.860 -0.3406 -1.4917  2.7971
 1766SOL    HW215268   3.485   5.342   1.982  2.0209  2.4520 -1.1720
 1767SOL     OW15269   4.134   3.909   1.518 -0.3737  0.0575  0.0149
 1767SOL    HW115270   4.042   3.892   1.482 -0.9057 -0.4860  1.6112
 1767SOL    HW215271   4.189   3.826   1.509 -0.1710  0.2446 -0.5123
 1768SOL     OW15272   1.617   3.955   2.005  0.8011  0.0116  0.4006
 1768SOL    HW115273   1.685   4.026   2.026 -1.1202  2.3188 -0.9140
 1768SOL    HW215274   1.659   3.887   1.944  2.0872  1.1437 -0.0199
 1769SOL     OW15275   3.307   8.871   0.715 -0.1694 -0.6368  0.2829
 1769SOL    HW115276   3.301   8.832   0.807 -1.7472 -1.4242 -0.1214
 1769SOL    HW215277   3.356   8.808   0.655 -0.9779 -1.0920  0.0971
 1770SOL     OW15278   2.302   5.271   2.558 -0.0334 -0.7913  0.1912
 1770SOL    HW115279   2.234   5.327   2.607  0.1092  0.0294 -0.5340
 1770SOL    HW215280   2.263   5.242   2.471  0.2138 -1.0889  0.1829
 1771SOL     OW15281   0.932   2.423   2.644 -0.3957 -0.2899 -0.4635
 1771SOL    HW115282   0.989   2.411   2.725  0.3044 -2.0164 -1.1972
 1771SOL    HW215283   0.836   2.433   2.672 -0.0921 -0.2782  0.6017
 1772SOL     OW15284   1.764   2.495   1.872 -0.3429 -0.3321 -0.5955
 1772SOL    HW115285   1.777   2.398   1.852 -1.1558 -0.5263 -0.2077
 1772SOL    HW215286   1.668   2.512   1.892 -0.0031  0.3101  0.5828
 1773SOL     OW15287   1.383   6.389   1.716  0.1378  0.1159  0.2747
 1773SOL    HW115288   1.303   6.423   1.666 -0.5135 -1.1762  0.4178
 1773SOL    HW215289   1.426   6.316   1.664  0.3314 -0.2277  0.9103
 1774SOL     OW15290   1.971   6.421   1.683 -0.7582  0.3864  0.5558
 1774SOL    HW115291   2.057   6.373   1.700 -0.1893  1.5636  1.0501
 1774SOL    HW215292   1.921   6.431   1.770 -0.8964  0.6492  0.4453
 1775SOL     OW15293   4.307   2.441   2.094 -0.0560 -0.5792 -0.2134
 1775SOL    HW115294   4.342   2.398   2.177 -1.1665  0.8560  1.0353
 1775SOL    HW215295   4.381   2.491   2.048  0.3922 -0.7571  0.3216
 1776SOL     OW15296   2.943   3.417   0.897  0.2482 -0.1784 -0.2514
 1776SOL    HW115297   3.028   3.392   0.944 -0.0785  2.2216  1.7168
 1776SOL    HW215298   2.877   3.343   0.907  0.9553 -0.6449  1.1716
 1777SOL     OW15299   3.362   3.293   0.153 -0.0198  0.1871  0.1323
 1777SOL    HW115300   3.275   3.267   0.112  1.6318 -2.2885 -1.9602
 1777SOL    HW215301   3.347   3.365   0.220 -3.4022  1.2307 -1.6394
 1778SOL     OW15302   3.474   8.397   1.859  0.7559  0.0829 -0.0720
 1778SOL    HW115303   3.563   8.395   1.905 -0.8356 -1.6779  3.0861
 1778SOL    HW215304   3.418   8.321   1.891 -3.4062  3.4568  1.1272
 1779SOL     OW15305   4.768   2.262   2.562  0.0998 -0.5936 -0.6470
 1779SOL    HW115306   4.764   2.193   2.635  2.9362  1.0278  1.1064
 1779SOL    HW215307   4.835   2.235   2.494 -1.4196 -1.3239 -1.8898
 1780SOL     OW15308   2.882   3.869   1.466 -0.1877  0.2807  0.3331
 1780SOL    HW115309   2.901   3.914   1.378  1.6206 -1.3266 -0.1434
 1780SOL    HW215310   2.911   3.929   1.540 -0.9374  1.3041 -0.1889
 1781SOL     OW15311   1.962   1.321   2.409  0.3709 -0.9366 -0.2813
 1781SOL    HW115312   1.985   1.312   2.506  0.3804 -0.6693 -0.2607
 1781SOL    HW215313   2.045   1.337   2.357  0.1465  0.7591 -0.1237
 1782SOL     OW15314   1.882   7.134   2.733 -0.2771  0.4660 -0.0098
 1782SOL    HW115315   1.897   7.233   2.722 -0.8324  0.6056  0.4570
 1782SOL    HW215316   1.966   7.085   2.709 -0.2442  1.0001 -1.0137
 1783SOL     OW15317   0.596   6.610   2.698  0.1373 -0.0215 -0.0407
 1783SOL    HW115318   0.497   6.601   2.705  0.1226  0.2621  0.1307
 1783SOL    HW215319   0.620   6.636   2.604 -0.0317  0.8849  0.1566
 1784SOL     OW15320   2.861   6.383   1.500  0.4515 -0.2379 -0.2558
 1784SOL    HW115321   2.896   6.417   1.588 -0.4491 -0.2043  0.0993
 1784SOL    HW215322   2.781   6.324   1.517  1.9615 -2.5178 -0.8519
 1785SOL     OW15323   9.756   4.086   1.958  0.2588  0.1427  0.2953
 1785SOL    HW115324   9.831   4.126   2.011  2.1333 -0.9662 -1.4336
 1785SOL    HW215325   9.786   4.072   1.863 -2.3715  0.2898 -0.6133
 1786SOL     OW15326   3.604   4.708   1.032  0.4732  0.4832  0.1549
 1786SOL    HW115327   3.558   4.649   1.099  0.5938  0.0253 -0.1619
 1786SOL    HW215328   3.537   4.740   0.965  0.2483  1.3847  0.8093
 1787SOL     OW15329   2.545   3.980   1.802 -0.0421  0.1699  0.4906
 1787SOL    HW115330   2.566   3.982   1.705 -0.9985  0.2911  0.2823
 1787SOL    HW215331   2.491   4.061   1.827 -2.1297 -1.2003  0.5693
 1788SOL     OW15332   3.652   4.641   0.679 -0.6326  0.8428 -0.9007
 1788SOL    HW115333   3.711   4.707   0.725  0.7567  0.9438 -2.7917
 1788SOL    HW215334   3.668   4.645   0.581 -1.4813 -1.4143 -1.1503
 1789SOL     OW15335   3.008   5.805   0.435 -0.0784  0.0864  0.3448
 1789SOL    HW115336   2.950   5.884   0.455 -0.6651  0.0046 -1.0231
 1789SOL    HW215337   3.055   5.818   0.348 -0.9345 -1.4900 -0.3804
 1790SOL     OW15338   3.362   1.397   2.610 -0.1605  0.4375  0.2159
 1790SOL    HW115339   3.307   1.367   2.532 -1.5687  2.4208  0.4007
 1790SOL    HW215340   3.455   1.418   2.579 -0.4539  0.3458 -0.7523
 1791SOL     OW15341   2.502   4.338   2.409  0.1980  0.1035 -0.1502
 1791SOL    HW115342   2.564   4.316   2.333 -0.0368 -1.8985  0.2185
 1791SOL    HW215343   2.491   4.257   2.467 -0.3740  1.3438  1.4951
 1792SOL     OW15344   2.260   2.234   1.871 -0.2804 -0.1706  0.4193
 1792SOL    HW115345   2.195   2.158   1.880 -0.1139 -0.1998  1.5646
 1792SOL    HW215346   2.343   2.212   1.922  0.1912  0.3343 -0.1320
 1793SOL     OW15347   1.342   4.624   0.337  0.0972  0.5585 -0.2462
 1793SOL    HW115348   1.292   4.565   0.400  0.8989  0.4958  0.3350
 1793SOL    HW215349   1.278   4.665   0.272 -0.4203 -1.3051 -0.9578
 1794SOL     OW15350   1.115   4.281   2.345  0.4019  0.2228  1.0550
 1794SOL    HW115351   1.056   4.357   2.319  2.8902  2.3923  1.4617
 1794SOL    HW215352   1.187   4.315   2.407  1.2665 -2.5752  1.6508
 1795SOL     OW15353   1.751   2.814   2.058  0.3682  0.3270 -0.0437
 1795SOL    HW115354   1.735   2.873   1.978 -1.8338 -2.9916 -2.1659
 1795SOL    HW215355   1.820   2.746   2.034 -2.4317 -2.5437 -0.1846
 1796SOL     OW15356   1.663   7.986   1.417 -0.3738 -0.1194  0.3646
 1796SOL    HW115357   1.630   7.931   1.494  0.0762  1.0363  1.3937
 1796SOL    HW215358   1.677   8.080   1.446  0.4510  0.1906 -0.9676
 1797SOL     OW15359   1.725   6.372   2.629  1.0005 -0.3233  0.3753
 1797SOL    HW115360   1.688   6.280   2.613 -0.4920  0.3890 -0.3430
 1797SOL    HW215361   1.683   6.436   2.566  4.4393  0.3214 -1.3779
 1798SOL     OW15362   1.117   4.692   1.283  0.4628  0.4085  0.1621
 1798SOL    HW115363   1.025   4.692   1.246  1.2765 -1.2605 -1.9932
 1798SOL    HW215364   1.120   4.746   1.367 -2.7148 -0.5044  0.9069
 1799SOL     OW15365   1.883   3.998   0.273 -0.3566 -0.1566 -0.0871
 1799SOL    HW115366   1.900   3.917   0.216  0.9032 -1.0477  1.5308
 1799SOL    HW215367   1.926   3.986   0.362 -0.8705  1.9609  0.4704
 1800SOL     OW15368   2.179   8.389   0.039 -0.0862 -0.3376  0.0127
 1800SOL    HW115369   2.160   8.486   0.056 -0.7124 -0.3265 -0.7214
 1800SOL    HW215370   2.214   8.347   0.123  0.2063  0.5265  0.3290
 1801SOL     OW15371   3.914   3.813   1.093 -0.2274 -0.2833 -0.1206
 1801SOL    HW115372   3.917   3.902   1.137  3.6069 -0.7849  0.8602
 1801SOL    HW215373   3.889   3.743   1.160  2.1277 -0.5947  0.4722
 1802SOL     OW15374   0.740   6.336   1.808 -0.2545 -0.0923  0.0965
 1802SOL    HW115375   0.725   6.425   1.853 -0.7966  0.0251 -0.3034
 1802SOL    HW215376   0.779   6.351   1.718 -0.5827 -0.2496 -0.0714
 1803SOL     OW15377   2.808   5.103   0.216  0.4459 -0.5220  0.3811
 1803SOL    HW115378   2.733   5.052   0.174  0.5730 -1.9415  1.8203
 1803SOL    HW215379   2.830   5.063   0.305  2.9957 -0.2162 -0.0550
 1804SOL     OW15380   1.526   6.218   1.560  0.7836 -0.1224  0.0702
 1804SOL    HW115381   1.483   6.195   1.473  0.0084 -1.4905  0.8030
 1804SOL    HW215382   1.620   6.247   1.544 -0.0776  1.9501 -1.4482
 1805SOL     OW15383   2.516   9.958   1.520 -0.2074 -0.1306 -0.3310
 1805SOL    HW115384   2.520   9.930   1.424 -0.4369  0.1017 -0.4085
 1805SOL    HW215385   2.525  10.057   1.526  1.5403 -0.2853  0.0000
 1806SOL     OW15386   0.603   5.643   1.016  0.2663 -0.0478 -0.0066
 1806SOL    HW115387   0.548   5.696   0.951  0.0204 -0.7449 -0.3719
 1806SOL    HW215388   0.547   5.617   1.094  0.1066 -0.6230 -0.3043
 1807SOL     OW15389   1.983   6.016   0.405 -0.1039 -0.5063 -0.2118
 1807SOL    HW115390   1.893   5.985   0.435  0.1222  0.2094  1.2290
 1807SOL    HW215391   1.983   6.028   0.305 -1.4929 -0.8395 -0.2535
 1808SOL     OW15392   1.584   0.846   0.767  0.4873 -0.6082  0.4949
 1808SOL    HW115393   1.524   0.798   0.831  2.0467 -1.7799  1.1089
 1808SOL    HW215394   1.679   0.817   0.782  0.9700 -0.2604 -1.7965
 1809SOL     OW15395   1.814   0.544   2.479 -0.2586 -0.1642  0.4298
 1809SOL    HW115396   1.719   0.541   2.449 -0.0859 -1.4372  0.0098
 1809SOL    HW215397   1.850   0.637   2.465 -1.8649  0.7279  1.9654
 1810SOL     OW15398   1.868   4.704   2.640  1.1770  0.6323 -0.6523
 1810SOL    HW115399   1.819   4.733   2.558  1.1411 -0.9600 -1.2197
 1810SOL    HW215400   1.965   4.727   2.632  1.0782  0.9596 -0.9039
 1811SOL     OW15401   0.409   3.413   1.803 -0.3067 -0.2538 -0.3729
 1811SOL    HW115402   0.440   3.496   1.850  1.7707 -1.3023  0.1474
 1811SOL    HW215403   0.486   3.371   1.755 -0.1863 -4.4674  3.2065
 1812SOL     OW15404   0.253   2.869   0.678 -0.2521 -0.2139  0.2055
 1812SOL    HW115405   0.170   2.851   0.731  0.6720 -0.3173  1.6533
 1812SOL    HW215406   0.235   2.942   0.612 -1.6888 -0.7258  0.0172
 1813SOL     OW15407   2.629   8.751   0.834  0.0460 -0.3583  0.2170
 1813SOL    HW115408   2.570   8.826   0.867 -2.5002 -1.9654 -0.5701
 1813SOL    HW215409   2.572   8.676   0.801  2.5832 -2.3069  0.1697
 1814SOL     OW15410   0.316   3.845   0.989  0.1250 -0.3790 -0.2879
 1814SOL    HW115411   0.376   3.853   1.068 -2.2143  1.2037  1.3934
 1814SOL    HW215412   0.293   3.937   0.956  0.5163 -1.0111 -2.3975
 1815SOL     OW15413   3.507   4.216   1.600  0.3976 -0.0961 -0.1336
 1815SOL    HW115414   3.441   4.290   1.613 -1.3212 -1.4928 -0.8812
 1815SOL    HW215415   3.468   4.130   1.632  2.0357 -0.8672 -0.1722
 1816SOL     OW15416   9.887   3.800   2.077 -0.0724  0.5925  0.3387
 1816SOL    HW115417   9.920   3.872   2.016  0.8710  1.4108  1.7918
 1816SOL    HW215418   9.788   3.808   2.088 -0.2636  0.3888 -1.1347
 1817SOL     OW15419   2.320   2.390   1.661  0.0097  0.5041  0.0488
 1817SOL    HW115420   2.303   2.487   1.678 -1.1320  0.5989 -1.4882
 1817SOL    HW215421   2.272   2.335   1.728  2.0773  1.0171  2.0090
 1818SOL     OW15422   3.414   2.977   0.540  0.0521 -0.2242  0.1884
 1818SOL    HW115423   3.406   3.076   0.547  0.1656 -0.1834 -0.2554
 1818SOL    HW215424   3.339   2.941   0.485 -0.3745 -0.4570  0.9215
 1819SOL     OW15425   2.606   7.450   1.346  0.2668 -0.4172  0.1793
 1819SOL    HW115426   2.601   7.525   1.412  1.4095 -0.3625  0.2124
 1819SOL    HW215427   2.519   7.400   1.346 -1.6257  2.7535 -2.0679
 1820SOL     OW15428   4.143   4.250   2.757  0.5169  0.8633  0.4901
 1820SOL    HW115429   4.191   4.279   2.840  0.6687 -0.9157  1.0464
 1820SOL    HW215430   4.064   4.194   2.783  0.0799  1.0075 -0.5348
 1821SOL     OW15431   2.203   1.264   1.017 -0.7512  0.1614  0.5213
 1821SOL    HW115432   2.128   1.317   1.056 -0.7248  0.8444 -0.3554
 1821SOL    HW215433   2.174   1.169   1.004 -1.0501  0.1367  1.3586
 1822SOL     OW15434   2.393   3.066   2.051 -0.5053 -0.6795  0.0304
 1822SOL    HW115435   2.432   3.148   2.008  1.3522 -1.4336  0.2102
 1822SOL    HW215436   2.318   3.092   2.111  0.4419  0.9703  0.5417
 1823SOL     OW15437   1.091   2.587   0.345  0.2093  0.4252  0.3983
 1823SOL    HW115438   0.999   2.555   0.366  0.0369  1.4963  1.3365
 1823SOL    HW215439   1.145   2.592   0.430  1.5531 -1.4829 -0.3149
 1824SOL     OW15440   9.547   3.158   2.327  0.6767 -0.3197  0.2910
 1824SOL    HW115441   9.567   3.174   2.423  0.2777 -0.7608  0.4505
 1824SOL    HW215442   9.539   3.060   2.310  0.8501 -0.2503 -0.2134
 1825SOL     OW15443   1.146   2.727   2.776  0.3414  0.7253 -0.4148
 1825SOL    HW115444   1.234   2.717   2.821 -0.0235  0.4222  0.2480
 1825SOL    HW215445   1.155   2.709   2.678  0.9557  0.4291 -0.3036
 1826SOL     OW15446   1.861   9.956   0.627 -0.3422 -0.1142 -0.1159
 1826SOL    HW115447   1.853   9.967   0.528  0.3023  1.5474 -0.0048
 1826SOL    HW215448   1.958   9.961   0.652 -0.5350 -0.1824  0.6374
 1827SOL     OW15449   2.122   2.538   1.313  0.7071 -0.2523  0.1098
 1827SOL    HW115450   2.047   2.536   1.379  0.2734 -0.2971 -0.3752
 1827SOL    HW215451   2.105   2.471   1.241  0.5388  0.6467 -0.7150
 1828SOL     OW15452   3.650   2.877   0.570  0.2646 -0.0363  0.0136
 1828SOL    HW115453   3.721   2.939   0.538 -0.2465  1.0394  0.9055
 1828SOL    HW215454   3.565   2.929   0.586 -0.0734 -0.8904  1.0753
 1829SOL     OW15455   9.838   5.442   1.556 -0.1356  0.4483 -0.3240
 1829SOL    HW115456   9.865   5.424   1.650 -0.1723  3.5953  0.3131
 1829SOL    HW215457   9.822   5.355   1.509 -0.4364 -1.1324  2.6310
 1830SOL     OW15458   2.344   2.298   2.228  0.2081 -0.0475 -0.2051
 1830SOL    HW115459   2.291   2.357   2.167  0.6160 -0.1413 -0.6608
 1830SOL    HW215460   2.313   2.204   2.219 -0.5483  0.1212  0.6389
 1831SOL     OW15461   3.203   2.846   0.457 -0.0090 -0.0702 -0.1586
 1831SOL    HW115462   3.104   2.839   0.472 -0.4016  1.6725 -1.7832
 1831SOL    HW215463   3.240   2.756   0.434 -1.1816 -0.7559  0.5876
 1832SOL     OW15464   4.656   2.254   0.603  0.5171  0.0361  0.0632
 1832SOL    HW115465   4.714   2.201   0.665  1.3231  0.8031 -0.0091
 1832SOL    HW215466   4.711   2.328   0.563 -0.1684 -0.0572 -1.0570
 1833SOL     OW15467   0.988   2.524   2.304  0.6732  0.0367 -0.1753
 1833SOL    HW115468   0.939   2.596   2.352  1.0505 -0.3811  0.8544
 1833SOL    HW215469   1.043   2.564   2.231 -0.5708  0.5820 -0.8277
 1834SOL     OW15470   2.035   8.476   1.201  0.7824  0.3797 -0.3770
 1834SOL    HW115471   2.122   8.437   1.171  1.1676  1.8543 -1.1781
 1834SOL    HW215472   1.959   8.431   1.153  1.1576 -0.1669 -0.4583
 1835SOL     OW15473   3.241   2.104   2.416 -0.5602 -0.2342 -0.0759
 1835SOL    HW115474   3.236   2.170   2.490 -1.1352 -0.4694  0.0976
 1835SOL    HW215475   3.184   2.134   2.340  1.1414  0.7217 -0.9998
 1836SOL     OW15476   4.353   2.824   0.352 -0.1871  0.0806  0.2452
 1836SOL    HW115477   4.255   2.804   0.349  0.0385 -0.9046 -1.0374
 1836SOL    HW215478   4.366   2.923   0.363 -1.3100  0.0321  2.3246
 1837SOL     OW15479   2.269   3.915   1.640 -0.1564  0.0526  0.3787
 1837SOL    HW115480   2.354   3.867   1.660 -0.7629 -1.4845 -0.6982
 1837SOL    HW215481   2.253   3.918   1.542 -1.5177  0.0406  0.5852
 1838SOL     OW15482   8.770   4.452   0.045 -0.1028  0.0958  0.0771
 1838SOL    HW115483   8.676   4.455   0.078 -1.5512  2.7943 -3.8521
 1838SOL    HW215484   8.783   4.370  -0.010 -0.9858  0.9175 -1.4065
 1839SOL     OW15485   2.373   8.653   1.440  0.2703  0.4660 -0.2570
 1839SOL    HW115486   2.368   8.732   1.379  0.5248  1.8923  1.5154
 1839SOL    HW215487   2.281   8.616   1.456 -0.0370  1.4290  0.2045
 1840SOL     OW15488   2.248   7.154   0.741  0.1454 -0.2875 -0.4929
 1840SOL    HW115489   2.266   7.249   0.716  1.2500 -0.3162  0.1629
 1840SOL    HW215490   2.331   7.113   0.778 -0.4147 -1.4157 -0.4679
 1841SOL     OW15491   2.355   7.860   1.606  0.6557 -0.5443  0.1115
 1841SOL    HW115492   2.281   7.838   1.669  0.7577  0.0081  0.4266
 1841SOL    HW215493   2.411   7.935   1.644  0.9978 -0.5285 -0.4110
 1842SOL     OW15494   1.637   6.618   1.594 -0.4258  0.1644 -0.5374
 1842SOL    HW115495   1.720   6.626   1.538 -0.8208 -0.8198 -1.2610
 1842SOL    HW215496   1.574   6.553   1.552 -1.6777  1.0868 -0.1170
 1843SOL     OW15497   2.875   1.339   2.367  0.2121  0.1172 -0.3785
 1843SOL    HW115498   2.854   1.246   2.395  1.1394 -1.1697 -3.6429
 1843SOL    HW215499   2.790   1.388   2.345 -0.2039 -0.3781  0.1364
 1844SOL     OW15500   0.665   3.823   0.565 -0.2204 -0.5677  0.3946
 1844SOL    HW115501   0.666   3.906   0.510 -0.4203 -0.8260 -0.0001
 1844SOL    HW215502   0.731   3.757   0.527  0.8456 -0.1206  1.4340
 1845SOL     OW15503   4.722   2.025   2.196  0.0064 -0.0097  0.7037
 1845SOL    HW115504   4.642   2.014   2.255 -1.1332 -1.5621 -1.0592
 1845SOL    HW215505   4.804   2.029   2.252 -1.2933  1.7222  2.5540
 1846SOL     OW15506   3.113   8.894   2.159  0.3263  0.1034  0.6448
 1846SOL    HW115507   3.113   8.830   2.236 -0.7625  1.1527  1.5486
 1846SOL    HW215508   3.206   8.906   2.125  1.0414  0.6520  2.6892
 1847SOL     OW15509   1.454   6.948   1.684  0.0364 -0.3215 -0.3143
 1847SOL    HW115510   1.524   7.015   1.710 -0.0551 -0.0391 -0.7971
 1847SOL    HW215511   1.364   6.991   1.685 -0.0043 -0.3972 -0.7750
 1848SOL     OW15512   1.499   3.135   0.442  0.0544 -0.3561 -0.5336
 1848SOL    HW115513   1.497   3.197   0.521  1.3171  1.4929 -1.8911
 1848SOL    HW215514   1.406   3.108   0.418 -0.6603  2.1818 -0.7706
 1849SOL     OW15515   1.554   1.532   2.716 -0.1344 -0.1333 -0.0964
 1849SOL    HW115516   1.632   1.591   2.737 -0.3579 -1.0008  3.6609
 1849SOL    HW215517   1.489   1.581   2.659  0.9243  2.3249  0.7626
 1850SOL     OW15518   3.136   6.931   0.909  0.8314  0.0416  0.0508
 1850SOL    HW115519   3.184   7.018   0.892 -1.2319  1.2594  0.3498
 1850SOL    HW215520   3.145   6.873   0.828  2.8630  0.1893  0.1218
 1851SOL     OW15521   3.122   3.251   0.367 -0.3114 -0.4901 -0.1648
 1851SOL    HW115522   3.107   3.200   0.282  0.2382 -0.1878 -0.4458
 1851SOL    HW215523   3.059   3.329   0.371  0.0808 -0.1448 -0.5920
 1852SOL     OW15524   9.916   3.178   0.173  1.0002 -0.0014  0.0571
 1852SOL    HW115525   9.892   3.122   0.094  0.2058  0.3018  0.0796
 1852SOL    HW215526   9.999   3.229   0.154  0.0253  1.1668 -1.1385
 1853SOL     OW15527   3.314   9.835   0.995 -0.0678  0.5545  0.0458
 1853SOL    HW115528   3.381   9.858   1.066 -1.0561  1.8527  0.5796
 1853SOL    HW215529   3.228   9.881   1.015 -0.6140  0.2475 -1.5536
 1854SOL     OW15530   1.899   7.781   1.136  0.0688  0.0723 -0.2532
 1854SOL    HW115531   1.992   7.751   1.116  0.0203 -0.0224 -0.3310
 1854SOL    HW215532   1.861   7.829   1.057  0.0950  0.2159 -0.1793
 1855SOL     OW15533   2.268   3.399   1.694 -0.3138  0.1393 -0.1363
 1855SOL    HW115534   2.277   3.482   1.638  0.0491  0.2610  0.0971
 1855SOL    HW215535   2.337   3.333   1.665 -0.3704  0.0583 -0.0840
 1856SOL     OW15536   1.212   6.572   2.518  0.1900 -0.5674  0.4052
 1856SOL    HW115537   1.116   6.590   2.498  0.0429  0.0335  1.6117
 1856SOL    HW215538   1.258   6.658   2.540  1.3795 -0.6394 -1.6889
 1857SOL     OW15539   0.287   4.696   1.156  0.4778 -1.0105 -0.2087
 1857SOL    HW115540   0.307   4.633   1.081  0.8176  0.3774 -1.3145
 1857SOL    HW215541   0.210   4.754   1.131 -2.0867 -3.2260  2.1794
 1858SOL     OW15542   2.032   2.586   2.170 -0.7994  0.2660 -0.6373
 1858SOL    HW115543   1.993   2.544   2.252  0.3534 -0.2189 -0.3170
 1858SOL    HW215544   2.040   2.518   2.097 -1.1643  0.5195 -0.9118
 1859SOL     OW15545   3.704   8.914   0.230  0.5342 -0.1910 -0.0415
 1859SOL    HW115546   3.745   8.998   0.196 -0.3429 -0.6455 -2.2670
 1859SOL    HW215547   3.775   8.843   0.236  0.9104  0.1998  0.1333
 1860SOL     OW15548   3.496   4.531   1.849  0.2652 -0.1624  0.3770
 1860SOL    HW115549   3.537   4.618   1.876 -1.7961  1.4503 -1.4930
 1860SOL    HW215550   3.562   4.479   1.794  0.5547  1.4218 -0.7884
 1861SOL     OW15551   0.147   4.246   1.108  0.1387 -0.2337  0.0242
 1861SOL    HW115552   0.144   4.174   1.178 -2.0248  0.2072  0.4271
 1861SOL    HW215553   0.116   4.332   1.148 -1.0594  0.0338 -1.4446
 1862SOL     OW15554   2.421   5.977   1.163  0.1071  0.3455  0.2443
 1862SOL    HW115555   2.436   6.075   1.154 -0.8007  0.3462 -1.4869
 1862SOL    HW215556   2.504   5.928   1.137  0.5815  0.6381  1.1652
 1863SOL     OW15557   2.245   2.591   0.872  0.2769 -0.2871 -0.0485
 1863SOL    HW115558   2.333   2.632   0.896 -0.9435  1.2876  1.8751
 1863SOL    HW215559   2.235   2.504   0.921  0.7797 -0.4809 -0.2913
 1864SOL     OW15560   9.882   4.336   0.306 -1.1361  0.5364 -0.6386
 1864SOL    HW115561   9.960   4.340   0.368 -1.8444 -1.0282  0.3760
 1864SOL    HW215562   9.914   4.349   0.212  0.7830 -2.8068 -0.5285
 1865SOL     OW15563   2.756   4.168   1.886 -0.2558  0.4408  0.1155
 1865SOL    HW115564   2.808   4.141   1.967  0.4125 -0.9381 -0.7472
 1865SOL    HW215565   2.671   4.211   1.914  0.3224  0.6874  1.5538
 1866SOL     OW15566   2.946   9.275   1.894  0.1327 -0.0991  0.2202
 1866SOL    HW115567   3.023   9.315   1.844 -1.1054 -0.8039 -2.2940
 1866SOL    HW215568   2.889   9.348   1.930  1.1877  0.4154  0.8901
 1867SOL     OW15569   1.405   6.241   2.799  0.3749  0.2740  0.0970
 1867SOL    HW115570   1.408   6.340   2.785  2.9403  0.2943  0.4159
 1867SOL    HW215571   1.437   6.195   2.716  3.5161 -0.0685  1.4170
 1868SOL     OW15572   1.866   4.860   0.318 -0.6709  0.0613  0.3684
 1868SOL    HW115573   1.827   4.873   0.409 -1.2402  1.9512 -0.1315
 1868SOL    HW215574   1.800   4.810   0.260 -0.8711  0.0766  0.5844
 1869SOL     OW15575   9.959   5.378   0.773 -0.1068 -0.4151  0.3424
 1869SOL    HW115576   9.907   5.343   0.695 -0.3666  0.3640  0.1626
 1869SOL    HW215577  10.057   5.372   0.754 -0.1878  0.7880 -0.4968
 1870SOL     OW15578   2.120   0.256   2.794  0.1793  0.0781  0.2373
 1870SOL    HW115579   2.159   0.348   2.795  0.3841 -0.0102  1.5606
 1870SOL    HW215580   2.037   0.255   2.850 -0.8438 -0.1254 -1.2373
 1871SOL     OW15581   3.692   1.380   0.283 -0.0640 -0.2515  0.3198
 1871SOL    HW115582   3.681   1.360   0.186  1.2983  0.2520  0.0527
 1871SOL    HW215583   3.623   1.331   0.335 -3.2434  2.3935 -1.2209
 1872SOL     OW15584   1.008   5.900   0.915  0.6178  0.1550  0.4844
 1872SOL    HW115585   1.044   5.815   0.954  0.4811 -0.1742 -0.0943
 1872SOL    HW215586   0.924   5.925   0.962  0.8317  0.1429  0.8722
 1873SOL     OW15587   0.821   2.688   2.562  0.2978  0.0516 -0.0501
 1873SOL    HW115588   0.736   2.661   2.607  0.1819 -0.1817 -0.4127
 1873SOL    HW215589   0.895   2.628   2.593  0.3647  0.3631  0.3951
 1874SOL     OW15590   3.286   4.576   1.078  0.5420 -0.1465 -0.1278
 1874SOL    HW115591   3.196   4.537   1.057 -1.3213  2.7997  1.8040
 1874SOL    HW215592   3.341   4.508   1.126 -0.9738 -1.7569 -0.6020
 1875SOL     OW15593   1.582   4.899   2.701  0.5601 -0.3040  0.2068
 1875SOL    HW115594   1.496   4.917   2.654  1.0753 -0.3321 -0.7607
 1875SOL    HW215595   1.623   4.815   2.664  2.0677  0.8872 -0.8849
 1876SOL     OW15596   0.788   4.549   1.501  0.0122 -0.5068 -1.0659
 1876SOL    HW115597   0.765   4.633   1.452  1.8669  1.9787  2.1885
 1876SOL    HW215598   0.753   4.554   1.594  0.4696 -3.2481 -0.7075
 1877SOL     OW15599   4.442   0.838   0.845 -0.6437  0.1136  0.6298
 1877SOL    HW115600   4.538   0.830   0.818 -0.2668  0.2205  1.9211
 1877SOL    HW215601   4.420   0.934   0.861 -1.3534  0.2448 -1.0132
 1878SOL     OW15602   3.991   4.015   0.020  0.3346  0.8016 -0.2802
 1878SOL    HW115603   3.959   4.026   0.114  1.4526  0.2237  0.1711
 1878SOL    HW215604   3.916   3.977  -0.035 -0.8719  2.7595 -0.0269
 1879SOL     OW15605   2.669   3.582   1.691 -0.3392 -0.1324 -0.0564
 1879SOL    HW115606   2.623   3.624   1.769  1.6577 -0.0464  1.1074
 1879SOL    HW215607   2.749   3.533   1.723  0.3479 -0.3257 -2.0454
 1880SOL     OW15608   1.039   1.861   1.609 -0.0751 -0.5257  0.1436
 1880SOL    HW115609   1.111   1.869   1.678  1.5106 -1.5476 -1.3159
 1880SOL    HW215610   0.999   1.769   1.613 -1.0511 -0.0773  0.7127
 1881SOL     OW15611   3.619   8.725   0.031  0.0851  0.9072  0.1514
 1881SOL    HW115612   3.638   8.801   0.092  0.0113  0.1431  1.1376
 1881SOL    HW215613   3.561   8.658   0.078  0.4870  0.0445 -0.5591
 1882SOL     OW15614   1.750   5.532   2.566  0.1874  0.2609 -0.8412
 1882SOL    HW115615   1.830   5.504   2.513  0.1984 -0.8581 -0.2398
 1882SOL    HW215616   1.759   5.501   2.660 -0.3175  1.3355 -0.4253
 1883SOL     OW15617   9.926   3.030   0.423 -0.9398 -0.4969  0.3928
 1883SOL    HW115618   9.908   3.075   0.335  0.4614 -0.2173  0.2404
 1883SOL    HW215619   9.871   3.074   0.494  0.0612  1.1648  0.1649
 1884SOL     OW15620   3.141   5.830   0.177  0.1474 -0.0044  0.5568
 1884SOL    HW115621   3.173   5.925   0.177 -0.3453  0.2008  2.9611
 1884SOL    HW215622   3.136   5.796   0.083 -1.2764  2.8907 -0.4600
 1885SOL     OW15623   3.420   4.172   0.030 -0.2112 -0.0545  0.1323
 1885SOL    HW115624   3.423   4.266   0.063 -3.2938 -0.0676  0.6664
 1885SOL    HW215625   3.360   4.118   0.089  0.8300 -2.1400 -0.6804
 1886SOL     OW15626   2.832   4.067   1.665  0.2165 -0.4253  0.0266
 1886SOL    HW115627   2.751   4.064   1.605  0.5559 -0.6024 -0.4242
 1886SOL    HW215628   2.802   4.064   1.760 -0.2743 -1.2833 -0.1442
 1887SOL     OW15629   9.337   5.097   2.385  0.4167 -0.0351  0.0000
 1887SOL    HW115630   9.249   5.071   2.345  0.9083  1.3506 -2.0419
 1887SOL    HW215631   9.405   5.110   2.312  2.2801 -0.8895  1.5259
 1888SOL     OW15632   9.694   4.975   0.130 -0.4778  0.4252  0.9096
 1888SOL    HW115633   9.598   4.949   0.129 -0.3665  0.0239 -0.4039
 1888SOL    HW215634   9.704   5.071   0.105 -0.3681 -0.2409 -1.8343
 1889SOL     OW15635   0.998   1.966   0.368 -0.3852 -0.6652 -0.6774
 1889SOL    HW115636   1.009   2.038   0.437 -2.2843 -1.3075  0.3302
 1889SOL    HW215637   0.906   1.970   0.329  0.1285 -1.3433 -1.9986
 1890SOL     OW15638   4.167   2.860   0.988  0.1218 -0.3524  0.4071
 1890SOL    HW115639   4.078   2.899   0.964  0.1340 -0.6501 -0.1531
 1890SOL    HW215640   4.240   2.922   0.958  0.1041 -0.0721  0.9358
 1891SOL     OW15641   1.545   5.380   0.507  0.0069  0.8391 -0.3898
 1891SOL    HW115642   1.580   5.461   0.458 -1.8473  1.7720 -0.2002
 1891SOL    HW215643   1.502   5.409   0.592 -1.5152 -0.2756 -0.7743
 1892SOL     OW15644   1.253   4.119   2.596 -0.0694 -0.1634 -0.0564
 1892SOL    HW115645   1.180   4.184   2.577  0.1365 -0.6887 -2.9114
 1892SOL    HW215646   1.341   4.166   2.591  0.0018 -0.3626 -0.8208
 1893SOL     OW15647   3.220   8.079   1.360  0.5926  0.1426  0.1306
 1893SOL    HW115648   3.125   8.051   1.347  0.2427  0.6366  1.5245
 1893SOL    HW215649   3.240   8.158   1.302  0.2710 -0.2027 -0.4540
 1894SOL     OW15650   8.888   3.985   0.204  0.4031  0.0685  0.2743
 1894SOL    HW115651   8.802   4.036   0.200 -0.5360 -1.1448  3.7073
 1894SOL    HW215652   8.942   4.016   0.282  2.1142 -0.7320 -0.5579
 1895SOL     OW15653   9.114   3.224   1.262  0.3097  0.2070  0.0765
 1895SOL    HW115654   9.149   3.315   1.241 -2.8825  1.4465 -0.1307
 1895SOL    HW215655   9.065   3.227   1.349 -1.5206 -0.8248 -0.8953
 1896SOL     OW15656   0.576   2.667   2.709 -0.4877  0.6047  0.2419
 1896SOL    HW115657   0.516   2.675   2.629 -1.4763  0.0721  0.9272
 1896SOL    HW215658   0.556   2.741   2.773 -2.3457 -1.1485  1.7424
 1897SOL     OW15659   1.545   7.693   2.410  0.0685  0.0579  0.5120
 1897SOL    HW115660   1.539   7.783   2.453  0.1088  0.0513  0.5322
 1897SOL    HW215661   1.453   7.655   2.397  0.1597 -0.8749  2.5351
 1898SOL     OW15662   1.893   0.149   1.588  0.2775 -0.3692 -0.4440
 1898SOL    HW115663   1.915   0.063   1.634 -1.5109  0.1787  1.4923
 1898SOL    HW215664   1.826   0.132   1.515 -0.3304 -0.5753  0.1591
 1899SOL     OW15665   2.761   7.239   1.422  0.0139 -0.0930 -0.0831
 1899SOL    HW115666   2.710   7.316   1.382 -0.7694 -0.9735 -0.8074
 1899SOL    HW215667   2.714   7.153   1.399  1.3552 -0.8450 -0.0198
 1900SOL     OW15668   1.357   5.159   1.642  0.1126  0.5730 -0.1970
 1900SOL    HW115669   1.389   5.179   1.735 -1.9033  1.1739  0.4112
 1900SOL    HW215670   1.312   5.070   1.641  0.3312  0.4719 -0.6395
 1901SOL     OW15671   3.557   2.866   2.799 -0.1068 -0.0843 -0.0101
 1901SOL    HW115672   3.513   2.884   2.887  0.1833  1.4904 -0.1723
 1901SOL    HW215673   3.486   2.849   2.730 -0.3569 -0.6013  0.3705
 1902SOL     OW15674   9.644   2.998   1.734 -0.3801  0.6284 -0.1057
 1902SOL    HW115675   9.599   2.998   1.645 -3.0274 -1.8499  1.1431
 1902SOL    HW215676   9.580   3.028   1.804 -0.1116 -2.7082  1.6922
 1903SOL     OW15677   2.198   6.175   0.601 -0.2512 -0.0193 -0.3228
 1903SOL    HW115678   2.227   6.236   0.528  0.6616 -0.6262 -0.4816
 1903SOL    HW215679   2.169   6.088   0.563 -2.1580  0.5308 -0.1454
 1904SOL     OW15680   3.810   3.345   1.548 -0.4608 -0.2952  0.0726
 1904SOL    HW115681   3.818   3.287   1.629 -1.3868 -1.5482 -0.7080
 1904SOL    HW215682   3.784   3.289   1.469 -2.2410  1.3157 -0.5182
 1905SOL     OW15683   1.444   5.024   0.690 -0.1557  0.0463  0.2975
 1905SOL    HW115684   1.511   5.091   0.720  0.9044  0.1598 -2.1701
 1905SOL    HW215685   1.491   4.947   0.645 -1.5590 -0.7223  0.1024
 1906SOL     OW15686   0.064   2.784   1.430 -0.2988  0.9035 -0.1413
 1906SOL    HW115687   0.058   2.756   1.334  1.1419  1.6310 -0.4607
 1906SOL    HW215688  -0.021   2.827   1.457 -1.8386 -1.9650 -0.2098
 1907SOL     OW15689   4.149   4.374   0.605  0.1986 -0.0749  0.2996
 1907SOL    HW115690   4.146   4.416   0.695 -1.0279 -1.3770  0.8826
 1907SOL    HW215691   4.153   4.445   0.535  0.8893  0.9492  1.3482
 1908SOL     OW15692   2.706   0.153   2.156  0.3956  0.6341 -0.2353
 1908SOL    HW115693   2.762   0.103   2.090  0.9288  0.1673  0.5628
 1908SOL    HW215694   2.759   0.170   2.239 -0.0784  1.7329 -0.1451
 1909SOL     OW15695   3.372   3.475   1.885  0.0918 -0.7819  0.2988
 1909SOL    HW115696   3.441   3.404   1.900  2.1147  1.4372  2.1303
 1909SOL    HW215697   3.327   3.497   1.972  1.0595  1.6027  0.2650
 1910SOL     OW15698   2.732   9.664   2.616 -0.3991 -0.3585  0.0565
 1910SOL    HW115699   2.692   9.674   2.708  0.8228 -0.8667  0.6541
 1910SOL    HW215700   2.810   9.602   2.621  1.9801  2.4645 -0.6526
 1911SOL     OW15701   2.926   7.138   1.637  0.3010  0.3797 -0.1883
 1911SOL    HW115702   2.875   7.059   1.670  0.0063  0.4113 -0.5685
 1911SOL    HW215703   2.866   7.197   1.583  0.6909  0.5051 -0.4907
 1912SOL     OW15704   2.780   1.730   0.853 -0.6153 -0.0917  0.3979
 1912SOL    HW115705   2.685   1.760   0.841 -1.1528 -2.4730 -1.7449
 1912SOL    HW215706   2.782   1.632   0.873  1.3373  0.2113  1.8128
 1913SOL     OW15707   9.918   4.316   1.819  0.1014 -0.0385  0.3671
 1913SOL    HW115708   9.927   4.256   1.899 -1.5460 -1.6085 -0.6021
 1913SOL    HW215709   9.864   4.397   1.845 -2.1786 -1.5160  0.3630
 1914SOL     OW15710   3.985   4.675   0.665 -0.0618  0.0727 -0.4048
 1914SOL    HW115711   4.084   4.674   0.681  0.0266  0.6926 -0.8829
 1914SOL    HW215712   3.942   4.602   0.717  0.7252 -0.5929 -0.6886
 1915SOL     OW15713   9.667   4.439   1.355 -0.1859 -0.4389 -0.4774
 1915SOL    HW115714   9.618   4.467   1.438  1.5682 -2.7218  1.4249
 1915SOL    HW215715   9.605   4.391   1.293 -0.7558 -1.9672  1.2133
 1916SOL     OW15716   3.268   4.746   0.187  0.0840 -0.2251  0.6884
 1916SOL    HW115717   3.238   4.669   0.130  1.2073 -0.5428  0.5173
 1916SOL    HW215718   3.193   4.812   0.197 -0.0737 -0.0957 -1.2850
 1917SOL     OW15719   3.032   2.031   1.447  0.4817  0.0557  0.2319
 1917SOL    HW115720   2.964   2.079   1.501 -1.5884  0.3359 -2.4997
 1917SOL    HW215721   3.108   2.003   1.505 -1.2906  1.0002  3.0758
 1918SOL     OW15722   3.203   7.844   2.686  0.5085  0.3573 -0.3109
 1918SOL    HW115723   3.164   7.869   2.597  0.5788  1.0993 -0.1331
 1918SOL    HW215724   3.148   7.771   2.726  0.9918 -0.5919 -1.3569
 1919SOL     OW15725   2.697   7.874   1.137  0.4916 -0.4757 -0.3533
 1919SOL    HW115726   2.766   7.874   1.065  1.5655 -3.1289  0.6036
 1919SOL    HW215727   2.705   7.790   1.190 -1.5006  0.5809  1.6968
 1920SOL     OW15728   4.857   3.764   0.564 -0.4897 -0.4965 -0.0458
 1920SOL    HW115729   4.938   3.819   0.542 -1.0311 -1.3073 -4.3415
 1920SOL    HW215730   4.826   3.788   0.656  2.9930  1.8044  0.6421
 1921SOL     OW15731   2.048   5.473   2.425 -0.0211  0.7012  0.1975
 1921SOL    HW115732   2.109   5.545   2.391  1.3000 -0.0892  0.8532
 1921SOL    HW215733   2.059   5.464   2.523  0.6394 -1.1393 -0.0337
 1922SOL     OW15734   3.168   9.822   2.444 -0.1796  0.3159  0.4280
 1922SOL    HW115735   3.203   9.730   2.430  2.2837  1.3017 -0.1647
 1922SOL    HW215736   3.219   9.887   2.388 -1.5852  2.1144  1.1454
 1923SOL     OW15737   2.762   4.457   2.233  0.2057 -0.1336  0.2948
 1923SOL    HW115738   2.763   4.461   2.133 -0.6478 -0.0540  0.2877
 1923SOL    HW215739   2.819   4.531   2.270 -0.2271  0.4042 -0.1168
 1924SOL     OW15740   9.656   5.147   1.462  1.1666 -0.0574  0.0369
 1924SOL    HW115741   9.575   5.155   1.404  1.6657  0.1280 -0.6376
 1924SOL    HW215742   9.739   5.157   1.406  1.6642 -0.7716  0.6357
 1925SOL     OW15743   2.965   4.530   0.259  0.2898 -0.9014  0.0845
 1925SOL    HW115744   2.972   4.624   0.294  0.3811 -0.2732 -1.5618
 1925SOL    HW215745   2.935   4.533   0.163  0.1892 -2.5672  0.0542
 1926SOL     OW15746   4.341   1.112   0.570  0.2312 -0.4527  0.3312
 1926SOL    HW115747   4.261   1.120   0.512  1.0638  0.1732 -0.7603
 1926SOL    HW215748   4.424   1.124   0.514  1.0748 -1.1122  1.4266
 1927SOL     OW15749   9.676   5.411   0.874 -0.1645 -0.1109  0.5595
 1927SOL    HW115750   9.610   5.464   0.819  1.8632  2.8490  0.8390
 1927SOL    HW215751   9.756   5.390   0.818 -0.1051 -1.1659  1.0409
 1928SOL     OW15752   2.391   9.097   2.618  0.2552 -0.1174 -0.6413
 1928SOL    HW115753   2.489   9.084   2.603  0.6781  1.5716  0.4428
 1928SOL    HW215754   2.355   9.158   2.548  0.1920  0.0364 -0.4758
 1929SOL     OW15755   4.176   1.273   0.946 -0.3361  0.2368  0.3690
 1929SOL    HW115756   4.146   1.258   1.040 -0.4875 -1.1984  0.0920
 1929SOL    HW215757   4.099   1.260   0.884 -0.5192  2.3007  0.1121
 1930SOL     OW15758   9.357   2.873   2.811  0.1717 -0.1033  0.0247
 1930SOL    HW115759   9.438   2.932   2.805  1.0910 -1.1695  1.6610
 1930SOL    HW215760   9.285   2.921   2.861  0.9222 -0.3624  1.3644
 1931SOL     OW15761   9.985   4.000   1.269 -0.4241  1.3131 -0.3664
 1931SOL    HW115762  10.073   4.029   1.308 -0.3626  0.9452 -0.2333
 1931SOL    HW215763   9.938   3.942   1.335 -0.5135  1.0408 -0.6705
 1932SOL     OW15764   2.615   3.358   0.696  0.7880 -0.0345 -0.5110
 1932SOL    HW115765   2.588   3.273   0.742 -0.2816 -0.6915 -2.2771
 1932SOL    HW215766   2.605   3.435   0.759 -2.2065 -0.6848 -0.1063
 1933SOL     OW15767   3.225   0.429   0.232 -0.1551 -0.8905 -0.2781
 1933SOL    HW115768   3.232   0.443   0.133  0.1342  0.2608 -0.1005
 1933SOL    HW215769   3.254   0.513   0.279 -1.0237 -1.1782  0.7630
 1934SOL     OW15770   1.414   3.657   2.114 -0.4953  0.0520  0.0547
 1934SOL    HW115771   1.419   3.748   2.075  0.3687 -0.6378 -1.4894
 1934SOL    HW215772   1.506   3.619   2.124 -0.8401 -0.6164  0.7266
 1935SOL     OW15773   3.288   9.574   2.599 -0.0258  0.1565  0.4122
 1935SOL    HW115774   3.218   9.547   2.664  0.6714  0.6404  1.3755
 1935SOL    HW215775   3.338   9.653   2.634 -0.1760  0.9385 -1.0753
 1936SOL     OW15776   3.542   9.222   2.723 -0.1903  0.0172 -0.5157
 1936SOL    HW115777   3.518   9.311   2.684 -0.7804  0.5613  1.0517
 1936SOL    HW215778   3.461   9.163   2.724 -0.4563  0.3775  0.8270
 1937SOL     OW15779   1.717   0.912   0.341 -0.0779  0.2031  0.4722
 1937SOL    HW115780   1.807   0.942   0.374  0.3763  1.0938 -1.5047
 1937SOL    HW215781   1.649   0.928   0.412  0.8680  2.0709  1.0053
 1938SOL     OW15782   2.863   4.391   2.482 -0.0093  0.7199  0.4258
 1938SOL    HW115783   2.815   4.363   2.399 -0.4781  2.9411 -0.0961
 1938SOL    HW215784   2.896   4.485   2.471  1.1423  0.5461  2.2262
 1939SOL     OW15785   1.450   2.789   0.695  0.0165 -0.1435  0.2944
 1939SOL    HW115786   1.483   2.726   0.766 -1.3195  0.7427  1.7343
 1939SOL    HW215787   1.528   2.834   0.652  0.8155  0.5725  2.3974
 1940SOL     OW15788   1.870   8.114   2.498 -0.0674 -0.6974 -0.0354
 1940SOL    HW115789   1.864   8.136   2.401 -0.9463  0.3763  0.2549
 1940SOL    HW215790   1.930   8.180   2.544  0.9470 -1.6504  0.0186
 1941SOL     OW15791   2.985   4.154   0.768 -1.3418  0.2382  0.7549
 1941SOL    HW115792   3.072   4.152   0.818 -0.6143  2.5096 -0.4006
 1941SOL    HW215793   2.912   4.179   0.831 -1.1855 -1.5524  1.7052
 1942SOL     OW15794   0.764   6.373   1.324 -0.1549 -0.5788 -0.0649
 1942SOL    HW115795   0.713   6.287   1.318 -0.3137 -0.4214 -0.9915
 1942SOL    HW215796   0.712   6.439   1.377 -0.3919 -0.7924 -0.0312
 1943SOL     OW15797   4.547   2.674   1.286  0.0582  0.3189 -0.5686
 1943SOL    HW115798   4.541   2.773   1.300  0.2380  0.5691 -2.1955
 1943SOL    HW215799   4.618   2.636   1.347 -0.6976  1.0293  0.7702
 1944SOL     OW15800   3.175   7.700   0.487 -0.5777  0.1751 -0.5557
 1944SOL    HW115801   3.255   7.656   0.528 -0.9485 -1.4116 -1.4919
 1944SOL    HW215802   3.096   7.639   0.494 -1.2370  0.9191 -1.4136
 1945SOL     OW15803   3.364   8.754   1.797  0.5249 -0.2665 -0.4934
 1945SOL    HW115804   3.341   8.845   1.830  0.9935  0.1770 -1.3619
 1945SOL    HW215805   3.462   8.737   1.810 -0.0347 -1.7045  2.1427
 1946SOL     OW15806   3.947   4.960   1.223  0.4194 -0.4023  0.1206
 1946SOL    HW115807   3.896   4.897   1.282 -1.5051  0.3134 -0.7409
 1946SOL    HW215808   3.968   5.043   1.274 -0.3342 -0.2120  0.1339
 1947SOL     OW15809   2.349   6.729   0.420  0.1634 -0.6227 -1.0098
 1947SOL    HW115810   2.435   6.718   0.369  0.6433 -0.0892 -0.3384
 1947SOL    HW215811   2.352   6.814   0.472 -0.7292 -0.6632 -0.8815
 1948SOL     OW15812   4.338   4.542   2.684 -0.3322  0.1208  0.3189
 1948SOL    HW115813   4.306   4.569   2.593 -2.7829 -1.8875  0.5283
 1948SOL    HW215814   4.415   4.480   2.674  0.1915  0.8672 -0.3531
 1949SOL     OW15815   2.819   7.854   2.443  0.3916  0.2255  0.1906
 1949SOL    HW115816   2.793   7.789   2.371  1.8940  0.2663 -0.4148
 1949SOL    HW215817   2.845   7.804   2.525  1.7194  0.0384 -0.3324
 1950SOL     OW15818   2.466   4.486   1.760 -0.9715 -0.1828 -0.7559
 1950SOL    HW115819   2.490   4.554   1.692  1.8870 -0.3371  0.0284
 1950SOL    HW215820   2.533   4.411   1.758 -1.2711 -0.5806  1.6562
 1951SOL     OW15821   9.669   5.025   1.704 -0.1894 -0.4478  0.5903
 1951SOL    HW115822   9.649   5.075   1.620  1.2231  1.2400  1.2405
 1951SOL    HW215823   9.586   5.019   1.760 -1.7029 -3.4146 -1.8077
 1952SOL     OW15824   1.196   7.186   1.936  0.1252  0.5578  0.1157
 1952SOL    HW115825   1.239   7.243   2.005 -1.9919  3.4038 -0.8326
 1952SOL    HW215826   1.257   7.174   1.858  1.0052  0.6180  0.7981
 1953SOL     OW15827   1.806   5.222   0.327 -0.1973  0.0261 -0.2926
 1953SOL    HW115828   1.845   5.207   0.236 -1.5781  0.4192 -0.9698
 1953SOL    HW215829   1.716   5.178   0.332 -0.7113  1.1380  0.4251
 1954SOL     OW15830   0.806   2.974   2.655  0.4482 -0.1303 -0.2094
 1954SOL    HW115831   0.832   2.893   2.602  2.2178  1.3491 -1.6948
 1954SOL    HW215832   0.833   2.962   2.750  1.1415 -1.0893 -0.5178
 1955SOL     OW15833   3.721   0.003   1.362 -0.0886 -0.4665  0.1277
 1955SOL    HW115834   3.722   0.095   1.402 -0.7187 -0.0859 -0.7332
 1955SOL    HW215835   3.686  -0.062   1.430  0.2824 -0.0702  0.7128
 1956SOL     OW15836   9.423   5.570   2.765 -0.1545  0.5924 -0.5141
 1956SOL    HW115837   9.443   5.621   2.682 -1.4643  0.3979 -0.9471
 1956SOL    HW215838   9.414   5.633   2.842 -1.2097  0.9605 -0.9410
 1957SOL     OW15839   4.219   2.378   0.859  0.2018  0.5041 -0.5490
 1957SOL    HW115840   4.250   2.326   0.938  0.5716 -2.4538 -2.5528
 1957SOL    HW215841   4.286   2.448   0.835  1.3903 -0.4244  0.0789
 1958SOL     OW15842   3.128   5.176   0.757  0.7998 -0.2118 -0.1575
 1958SOL    HW115843   3.075   5.239   0.699  1.2191 -0.2665 -0.6037
 1958SOL    HW215844   3.119   5.203   0.852  0.2049 -0.0418 -0.2563
 1959SOL     OW15845   0.426   3.907   0.659 -0.1276  0.4972  0.3383
 1959SOL    HW115846   0.516   3.890   0.619 -0.2654  1.7814 -0.5439
 1959SOL    HW215847   0.436   3.964   0.740 -0.3180  2.5379 -1.0372
 1960SOL     OW15848   4.025   3.455   0.332 -0.0669  0.5450  0.0256
 1960SOL    HW115849   4.032   3.468   0.431 -0.3901 -0.9096  0.2488
 1960SOL    HW215850   3.946   3.505   0.297 -0.7905 -0.1028  0.7202
 1961SOL     OW15851   2.512   5.396   2.642 -0.1400 -0.6047  0.0623
 1961SOL    HW115852   2.435   5.341   2.609 -0.7393  0.9924 -1.2997
 1961SOL    HW215853   2.590   5.385   2.580 -1.1620  2.1575 -1.7809
 1962SOL     OW15854   2.281   4.053   2.147  0.4892  0.5035 -0.3805
 1962SOL    HW115855   2.219   4.117   2.191 -0.1176 -0.4145  0.1190
 1962SOL    HW215856   2.302   3.978   2.210  1.0342  0.1140 -1.0159
 1963SOL     OW15857   3.368   1.160   1.010 -0.2470  0.3637  0.2717
 1963SOL    HW115858   3.293   1.116   0.960  0.3227  0.1630 -0.4046
 1963SOL    HW215859   3.416   1.092   1.065  0.0676  0.3060 -0.0733
 1964SOL     OW15860   1.231   6.279   1.919  0.0908 -0.1614 -0.1892
 1964SOL    HW115861   1.271   6.334   1.846  1.4910 -1.1241 -0.1732
 1964SOL    HW215862   1.133   6.268   1.903 -0.0354  1.4868 -0.7156
 1965SOL     OW15863   2.718   4.355   0.631  0.3374 -0.3773  0.1389
 1965SOL    HW115864   2.623   4.327   0.626  0.3269 -0.2327 -0.4559
 1965SOL    HW215865   2.750   4.346   0.725 -0.3303 -0.2072  0.3841
 1966SOL     OW15866   9.462   3.328   0.383  0.5379 -0.1993  0.3100
 1966SOL    HW115867   9.536   3.274   0.424 -0.8321 -2.1015  0.3429
 1966SOL    HW215868   9.412   3.376   0.456 -0.8957 -2.3153  0.7817
 1967SOL     OW15869   2.681   9.542   1.591  0.1587 -0.3142 -0.1100
 1967SOL    HW115870   2.720   9.626   1.554 -0.6944  0.0907 -0.0932
 1967SOL    HW215871   2.683   9.545   1.691  2.1857 -1.2790 -0.0973
 1968SOL     OW15872   0.962   3.531   0.953  0.3385  0.5779  0.0651
 1968SOL    HW115873   0.935   3.596   0.882 -1.4807  0.8925  1.0020
 1968SOL    HW215874   0.940   3.569   1.043  2.5363  0.1608  0.8315
 1969SOL     OW15875   1.934   0.034   0.318 -0.1328 -0.4006  0.2562
 1969SOL    HW115876   1.891   0.124   0.311  0.5101 -0.1002  0.1409
 1969SOL    HW215877   1.973   0.007   0.230  1.5389  0.1603  0.7903
 1970SOL     OW15878   9.750   4.188   1.487 -0.2361 -0.7399 -0.4826
 1970SOL    HW115879   9.842   4.161   1.512 -0.0548 -0.5440 -0.9267
 1970SOL    HW215880   9.740   4.287   1.498 -0.6982 -0.8938  0.5281
 1971SOL     OW15881   4.036   1.635   0.289 -0.3702 -0.1662  0.4542
 1971SOL    HW115882   3.970   1.710   0.284  1.1236  1.1188 -0.2300
 1971SOL    HW215883   4.129   1.672   0.286  0.3830 -2.0381  0.2233
 1972SOL     OW15884   0.460   3.512   0.562 -0.2702  0.0969 -0.0576
 1972SOL    HW115885   0.535   3.527   0.497 -0.9916  0.4671 -0.8210
 1972SOL    HW215886   0.487   3.443   0.629  1.2599  1.2147  0.5011
 1973SOL     OW15887   2.001   0.353   2.433  0.5190  0.1619 -0.1206
 1973SOL    HW115888   1.935   0.427   2.448  0.9206  0.2582  1.2405
 1973SOL    HW215889   1.990   0.283   2.503  1.4382 -0.1228 -0.2491
 1974SOL     OW15890   3.570   4.600   2.444 -0.1061  0.0504  0.5604
 1974SOL    HW115891   3.636   4.600   2.519 -2.1287 -0.3626  2.3876
 1974SOL    HW215892   3.531   4.691   2.433 -0.4210 -0.0871  0.5378
 1975SOL     OW15893   4.206   2.280   0.425  0.1192 -0.2194  0.0617
 1975SOL    HW115894   4.285   2.250   0.477  0.1997 -0.2019 -0.0509
 1975SOL    HW215895   4.206   2.236   0.335 -0.5602 -1.0221  0.4456
 1976SOL     OW15896   3.761   3.209   0.278  0.6039 -0.2175  0.1431
 1976SOL    HW115897   3.672   3.187   0.239  0.7632 -0.3059 -0.1726
 1976SOL    HW215898   3.765   3.179   0.373  0.0119  0.5084  0.3955
 1977SOL     OW15899   2.883   7.296   0.667  0.0767  0.0544 -0.0301
 1977SOL    HW115900   2.809   7.341   0.618  0.7693  1.4437  0.1820
 1977SOL    HW215901   2.850   7.262   0.755 -0.3260  0.6160  0.0333
 1978SOL     OW15902   2.647   6.102   1.760  0.7731  0.2611 -0.4717
 1978SOL    HW115903   2.740   6.081   1.790  0.8331  1.8295  0.4710
 1978SOL    HW215904   2.620   6.037   1.689  1.3409 -2.3676  1.5969
 1979SOL     OW15905   3.427   3.308   2.623  0.2396  0.4998  0.7081
 1979SOL    HW115906   3.503   3.248   2.595 -0.4786 -0.4934  0.8694
 1979SOL    HW215907   3.462   3.380   2.683  1.1951  0.5416  0.1213
 1980SOL     OW15908   2.308   2.131   1.541 -0.2335 -0.2381 -0.2806
 1980SOL    HW115909   2.364   2.212   1.560 -0.4713 -0.0283 -0.4741
 1980SOL    HW215910   2.220   2.159   1.504 -1.0343 -0.4896  1.3644
 1981SOL     OW15911   4.239   2.748   2.174 -0.0231 -0.0232 -0.7937
 1981SOL    HW115912   4.262   2.802   2.255 -0.8470 -0.4566 -0.2683
 1981SOL    HW215913   4.288   2.661   2.176 -1.3584 -0.7542  0.0964
 1982SOL     OW15914   4.618   2.377   0.238 -0.6237  0.2822  0.3168
 1982SOL    HW115915   4.559   2.457   0.229  0.4358  0.9252 -1.1725
 1982SOL    HW215916   4.682   2.391   0.314 -1.7139  0.0048  1.2991
 1983SOL     OW15917   4.274   1.777   1.196 -1.0013  0.3358 -0.4562
 1983SOL    HW115918   4.229   1.799   1.110 -0.1442  1.1923 -0.6921
 1983SOL    HW215919   4.370   1.753   1.180 -0.9034  0.2315  0.2290
 1984SOL     OW15920   2.149   4.196   0.520  0.2193 -0.5136 -0.1963
 1984SOL    HW115921   2.166   4.244   0.606 -0.5445  0.1087 -0.3900
 1984SOL    HW215922   2.084   4.121   0.536 -0.4537  0.0330 -0.3636
 1985SOL     OW15923   1.978   0.861   0.641  0.4407  0.0559  0.2321
 1985SOL    HW115924   2.056   0.798   0.637  0.4696  0.1923 -1.7706
 1985SOL    HW215925   1.968   0.907   0.553  0.6089  3.1093  1.7448
 1986SOL     OW15926   2.169   0.628   2.554 -0.2765  0.0120  0.2244
 1986SOL    HW115927   2.091   0.681   2.520 -2.4906 -2.1618  1.7630
 1986SOL    HW215928   2.215   0.583   2.478 -1.8689 -0.4541 -0.4690
 1987SOL     OW15929   3.594   0.225   1.965  0.4091 -0.5113  0.3311
 1987SOL    HW115930   3.543   0.306   1.935  1.3175  0.7053  1.9693
 1987SOL    HW215931   3.571   0.205   2.060 -0.1419 -2.4789 -0.1819
 1988SOL     OW15932   2.803   3.843   1.886  0.6182  0.1797  0.4506
 1988SOL    HW115933   2.787   3.800   1.975  0.5483 -1.1356 -0.1773
 1988SOL    HW215934   2.728   3.907   1.867  0.5825  0.3993  1.2914
 1989SOL     OW15935   2.618   3.386   2.696 -0.5943 -0.1307  0.1254
 1989SOL    HW115936   2.618   3.410   2.599  0.3193  3.2090  0.8913
 1989SOL    HW215937   2.529   3.348   2.721 -2.1390  2.4393 -1.2580
 1990SOL     OW15938   0.937   6.014   1.423 -0.3287  0.5375 -0.2221
 1990SOL    HW115939   0.874   6.008   1.500  0.1193 -3.5593 -0.0983
 1990SOL    HW215940   1.014   6.074   1.447 -0.4832 -0.2389  2.2954
 1991SOL     OW15941   0.884   3.397   0.257  0.6756 -0.3684 -0.5502
 1991SOL    HW115942   0.923   3.465   0.194  1.1151 -0.3519 -0.2610
 1991SOL    HW215943   0.911   3.306   0.226 -0.9200 -0.4941 -1.6403
 1992SOL     OW15944   1.957   5.035   0.913 -0.0450  0.1446 -0.5791
 1992SOL    HW115945   1.915   5.104   0.854 -0.4356 -0.1191 -0.6105
 1992SOL    HW215946   1.893   5.009   0.985  1.2157  2.0686  1.2989
 1993SOL     OW15947   2.279   5.738   2.037  0.7236  0.1118 -0.0050
 1993SOL    HW115948   2.181   5.737   2.058  0.6329  2.8463 -0.0292
 1993SOL    HW215949   2.296   5.691   1.951 -1.2978  3.7788 -2.5331
 1994SOL     OW15950   1.891   1.155   0.753 -1.1015 -0.1869 -0.3486
 1994SOL    HW115951   1.794   1.179   0.749 -1.0765 -0.2647 -1.8261
 1994SOL    HW215952   1.903   1.060   0.722 -0.6495 -0.4957  0.7375
 1995SOL     OW15953   2.961   7.096   0.020  0.3226  0.3723 -0.3394
 1995SOL    HW115954   2.973   7.180  -0.033  2.2847  0.0172 -0.5299
 1995SOL    HW215955   2.932   7.022  -0.041  0.0355  0.5688 -0.4417
 1996SOL     OW15956   3.889   0.248   1.882  0.0377 -0.1148 -0.3506
 1996SOL    HW115957   3.795   0.227   1.905  0.1362 -0.9171 -0.6842
 1996SOL    HW215958   3.899   0.254   1.782 -0.1984  2.4832 -0.2672
 1997SOL     OW15959   4.270   4.539   1.294 -0.7029  0.0233  0.4719
 1997SOL    HW115960   4.318   4.619   1.257 -0.6597  0.0121  0.5050
 1997SOL    HW215961   4.173   4.544   1.269 -0.4818 -0.4945 -0.4892
 1998SOL     OW15962   2.577   9.467   1.131  0.0245  0.0401 -0.7224
 1998SOL    HW115963   2.671   9.498   1.146  0.8280 -1.5752 -2.2785
 1998SOL    HW215964   2.547   9.412   1.208  1.2008 -1.3891 -1.2737
 1999SOL     OW15965   4.777   3.810   2.679  0.4351 -0.6719 -0.4695
 1999SOL    HW115966   4.855   3.862   2.646 -0.6516  0.1483 -1.8104
 1999SOL    HW215967   4.807   3.720   2.710  2.0367 -0.0165 -0.0661
 2000SOL     OW15968   0.512   5.209   0.759 -0.0863  0.5958 -0.4943
 2000SOL    HW115969   0.561   5.257   0.832  0.6046 -1.9118  0.7135
 2000SOL    HW215970   0.435   5.159   0.798 -0.2395 -0.0491 -1.6237
 2001SOL     OW15971   1.588   6.989   0.506  0.1813 -0.4685  0.1304
 2001SOL    HW115972   1.566   7.066   0.567  1.0729 -1.3285  1.5582
 2001SOL    HW215973   1.667   7.014   0.450 -0.3517  0.1510 -0.3580
 2002SOL     OW15974   2.856   0.759   2.040 -0.6697 -0.0690  0.1483
 2002SOL    HW115975   2.909   0.830   1.994  0.5748  0.1357  1.8698
 2002SOL    HW215976   2.797   0.800   2.109 -0.0622 -0.6868  1.0421
 2003SOL     OW15977   2.578   2.826   1.222  0.3096  0.4526 -0.1969
 2003SOL    HW115978   2.528   2.741   1.206 -3.0817  2.1988  0.5388
 2003SOL    HW215979   2.643   2.842   1.148  0.5646 -2.4294 -0.6429
 2004SOL     OW15980   2.624   4.756   2.663 -0.0769  0.0877 -0.2394
 2004SOL    HW115981   2.577   4.690   2.605  0.8715 -0.9190  0.1147
 2004SOL    HW215982   2.572   4.768   2.748  0.0613 -0.6783 -0.0405
 2005SOL     OW15983   2.573   7.619   0.780  0.2400  0.3294  0.7067
 2005SOL    HW115984   2.477   7.621   0.807  0.2540  1.2259  0.6952
 2005SOL    HW215985   2.596   7.702   0.730  0.6398 -0.5803 -0.6478
 2006SOL     OW15986   1.829   4.190   2.061  0.1075 -0.4946  0.8251
 2006SOL    HW115987   1.910   4.144   2.026 -0.6014 -0.9512 -0.2781
 2006SOL    HW215988   1.822   4.282   2.020  0.2874 -0.3050  1.2252
 2007SOL     OW15989   3.170   2.049   0.989 -0.3401 -0.0151  0.2908
 2007SOL    HW115990   3.150   1.957   0.957  0.8990 -0.2118  0.0625
 2007SOL    HW215991   3.176   2.111   0.910  2.0195 -0.3663  0.1694
 2008SOL     OW15992   4.338   9.963   0.516  0.4361 -0.1097 -0.1426
 2008SOL    HW115993   4.296   9.874   0.496 -1.1360  0.6602 -0.3493
 2008SOL    HW215994   4.359   9.967   0.614  0.4221 -0.6772 -0.1112
 2009SOL     OW15995   0.866   6.621   1.221 -0.1643  0.4664  0.3092
 2009SOL    HW115996   0.816   6.618   1.135  1.3277 -0.3717 -0.5524
 2009SOL    HW215997   0.862   6.531   1.266 -1.2122  0.9878  1.2780
 2010SOL     OW15998   0.532   3.958   1.176  0.2378 -0.1837  0.0501
 2010SOL    HW115999   0.578   3.933   1.261  1.5885 -1.8057 -1.1320
 2010SOL    HW216000   0.551   4.054   1.154 -0.8072  0.4915  1.9809
 2011SOL     OW16001   2.507   5.582   1.547  0.5140 -0.1805  0.3782
 2011SOL    HW116002   2.449   5.662   1.533  3.3851  1.7387 -0.9251
 2011SOL    HW216003   2.481   5.510   1.482  0.8727  1.4067 -1.5820
 2012SOL     OW16004   3.340   1.537   0.593 -0.2379  0.2733 -1.0021
 2012SOL    HW116005   3.256   1.574   0.633 -0.3186 -1.1311  0.1849
 2012SOL    HW216006   3.419   1.580   0.635 -0.3292 -0.8525  0.3429
 2013SOL     OW16007   0.679   3.278   0.493  0.0335 -0.1124  0.6010
 2013SOL    HW116008   0.695   3.377   0.489 -0.9899  0.0054 -1.4886
 2013SOL    HW216009   0.702   3.237   0.404 -3.0318 -1.1737  0.2284
 2014SOL     OW16010   9.523   4.507   1.571 -0.2470  0.2675  0.2900
 2014SOL    HW116011   9.492   4.523   1.665  1.6075  0.1703  0.9209
 2014SOL    HW216012   9.574   4.587   1.538  1.2341 -0.6866  0.2394
 2015SOL     OW16013   2.621   5.026   1.929  0.0838  0.0519  0.5757
 2015SOL    HW116014   2.716   5.047   1.905 -0.2370  0.2734 -0.5629
 2015SOL    HW216015   2.574   5.111   1.955 -0.9984  0.7659 -3.2606
 2016SOL     OW16016   1.506   7.059   0.943  0.2424 -0.5449 -0.0028
 2016SOL    HW116017   1.583   7.089   0.999 -0.4259  0.8034  0.2270
 2016SOL    HW216018   1.430   7.122   0.955 -0.6595 -1.4687 -0.7678
 2017SOL     OW16019   1.633   2.901   1.805 -0.2908 -0.3331  0.6009
 2017SOL    HW116020   1.627   2.898   1.706 -2.1368  2.4030  0.5827
 2017SOL    HW216021   1.548   2.867   1.845 -0.7048  1.2916  1.1542
 2018SOL     OW16022   2.255   4.338   0.023 -0.2500 -0.4286  0.3615
 2018SOL    HW116023   2.242   4.245  -0.012 -1.6948 -0.5692  1.2126
 2018SOL    HW216024   2.238   4.340   0.121  2.0807  0.3027  0.7756
 2019SOL     OW16025   3.178   3.184   0.838  0.1333  0.1259  0.1371
 2019SOL    HW116026   3.240   3.114   0.804  0.8939 -0.3123  2.3718
 2019SOL    HW216027   3.226   3.271   0.844  0.4187 -0.1118  1.4216
 2020SOL     OW16028   2.879   3.457   0.450  0.4736  0.1908 -0.0901
 2020SOL    HW116029   2.802   3.463   0.386 -0.5606 -3.1852  0.7458
 2020SOL    HW216030   2.846   3.425   0.539  2.8157 -1.1588  0.3326
 2021SOL     OW16031   4.061   2.589   2.514 -0.3134 -0.2617 -0.0765
 2021SOL    HW116032   4.112   2.651   2.575  1.9302 -1.7007 -0.4169
 2021SOL    HW216033   3.982   2.637   2.476  0.9637  2.1820  0.2362
 2022SOL     OW16034   2.620   1.945   0.257 -0.2471 -0.2404  0.4777
 2022SOL    HW116035   2.703   1.983   0.297 -0.7027  0.6370  0.6031
 2022SOL    HW216036   2.571   1.890   0.325 -0.5215  0.4477  0.8386
 2023SOL     OW16037   2.133   8.136   1.145  0.5798  0.3751  0.0789
 2023SOL    HW116038   2.071   8.156   1.222 -0.0629 -0.7045 -0.1437
 2023SOL    HW216039   2.079   8.119   1.063  1.1629 -0.8152 -0.0661
 2024SOL     OW16040   0.143   2.373   1.866  0.1850 -0.1003  0.2136
 2024SOL    HW116041   0.122   2.421   1.951  1.3292 -1.7183  1.4372
 2024SOL    HW216042   0.065   2.378   1.804 -1.1837 -0.1062  1.9072
 2025SOL     OW16043   2.476   9.641   0.930  0.2589 -0.3850  0.1718
 2025SOL    HW116044   2.435   9.628   0.840 -0.6313 -0.4278  0.5772
 2025SOL    HW216045   2.520   9.556   0.959  0.9815 -0.2231 -0.4318
 2026SOL     OW16046   2.884   1.953   1.250  0.2837  0.6518 -0.0571
 2026SOL    HW116047   2.791   1.965   1.285  0.1244 -2.4961  0.7898
 2026SOL    HW216048   2.950   1.986   1.318 -0.1520 -0.5116  0.9472
 2027SOL     OW16049   2.915   1.915   0.107  0.3898 -0.0430 -0.1559
 2027SOL    HW116050   2.851   1.949   0.037  2.3597  0.2534 -1.8709
 2027SOL    HW216051   2.985   1.859   0.063  3.0064  2.0616  1.2359
 2028SOL     OW16052   2.127   2.536   2.528  0.4207  0.1313  0.5436
 2028SOL    HW116053   2.194   2.463   2.541 -0.1047 -0.4623 -0.0103
 2028SOL    HW216054   2.174   2.622   2.508  1.0229 -0.1993  0.5319
 2029SOL     OW16055   3.979   8.733   1.459 -0.3038 -0.3410  0.0659
 2029SOL    HW116056   3.948   8.813   1.408  1.5474 -0.0706 -0.6777
 2029SOL    HW216057   4.031   8.673   1.397 -1.7091 -2.1420  0.5967
 2030SOL     OW16058   3.308   9.160   0.378 -0.0537 -0.0627  0.8374
 2030SOL    HW116059   3.362   9.077   0.394  0.0584 -0.2854 -0.5981
 2030SOL    HW216060   3.270   9.157   0.286 -0.2216  1.3855  0.8534
 2031SOL     OW16061   9.179   4.442   2.563  0.4895  0.2745 -0.4070
 2031SOL    HW116062   9.113   4.507   2.601 -0.4836 -1.1777  0.4236
 2031SOL    HW216063   9.183   4.361   2.622  2.4782  0.0373 -0.8519
 2032SOL     OW16064   4.261   3.558   0.188 -0.3445 -0.0872 -0.5382
 2032SOL    HW116065   4.187   3.501   0.224 -0.8555  1.2292  0.5635
 2032SOL    HW216066   4.222   3.643   0.151  0.5472  0.2383 -0.7417
 2033SOL     OW16067   2.683   3.755   2.598  0.0991 -0.1124  0.1687
 2033SOL    HW116068   2.753   3.705   2.650  0.7736  0.9344  0.2755
 2033SOL    HW216069   2.644   3.695   2.528  2.1352 -0.2764 -0.8613
 2034SOL     OW16070   1.440   4.399   2.348 -0.1077 -0.7903 -0.5033
 2034SOL    HW116071   1.403   4.384   2.439 -0.6810 -1.2339 -0.8080
 2034SOL    HW216072   1.388   4.470   2.301 -1.5275 -2.4204 -1.4692
 2035SOL     OW16073   1.377   4.626   2.220 -0.1367  0.4885  0.0531
 2035SOL    HW116074   1.398   4.705   2.278 -0.4609  1.6651 -1.3844
 2035SOL    HW216075   1.371   4.656   2.124 -0.5082 -1.2437 -0.4838
 2036SOL     OW16076   3.552   9.420   1.874 -0.4916  0.0389 -0.1941
 2036SOL    HW116077   3.464   9.400   1.917  0.0853 -0.5228  0.7331
 2036SOL    HW216078   3.602   9.488   1.927  0.6101 -1.3227  0.5444
 2037SOL     OW16079   9.506   5.431   1.273  0.1868  0.3090  0.8863
 2037SOL    HW116080   9.544   5.494   1.340  0.6253  1.5967 -0.5441
 2037SOL    HW216081   9.571   5.418   1.198 -0.1963 -1.2870  0.8079
 2038SOL     OW16082   2.075   5.988   1.302  0.2061  0.3456  0.2699
 2038SOL    HW116083   2.063   5.889   1.304 -0.7372  0.4640  0.7416
 2038SOL    HW216084   2.122   6.018   1.385  0.4846  0.2898  0.1306
 2039SOL     OW16085   0.329   5.300   0.256  0.1436 -0.5810  0.0682
 2039SOL    HW116086   0.321   5.255   0.344  1.1121 -3.6329 -1.3476
 2039SOL    HW216087   0.246   5.283   0.202  0.7425 -1.1471 -0.6832
 2040SOL     OW16088   2.748   5.113   1.698 -0.1826  0.1860 -0.1329
 2040SOL    HW116089   2.778   5.203   1.729 -0.5444  0.9347 -1.8948
 2040SOL    HW216090   2.651   5.117   1.673 -0.0528 -0.5439 -0.7677
 2041SOL     OW16091   9.528   3.182   1.221 -0.4327 -0.1984 -0.1088
 2041SOL    HW116092   9.512   3.241   1.143 -0.8263 -0.0179  0.1085
 2041SOL    HW216093   9.446   3.129   1.240 -0.1226 -0.7199 -0.2223
 2042SOL     OW16094   2.904   4.715   1.853 -0.1836  0.2642  0.1904
 2042SOL    HW116095   2.880   4.745   1.760  0.6699  1.1200  0.2446
 2042SOL    HW216096   2.862   4.776   1.919  1.7333  1.5127  0.2964
 2043SOL     OW16097   9.867   4.788   0.729 -0.4369  0.4234 -0.5127
 2043SOL    HW116098   9.927   4.856   0.773 -1.2000  0.0953  1.0953
 2043SOL    HW216099   9.923   4.719   0.683  0.4339  0.3386  0.6382
 2044SOL     OW16100   3.341   8.231   2.486  0.0413 -0.7373 -0.0110
 2044SOL    HW116101   3.342   8.282   2.572  0.9848 -0.1975 -0.3370
 2044SOL    HW216102   3.352   8.294   2.410 -0.9990 -1.1942 -0.5444
 2045SOL     OW16103   3.890   0.559   0.195 -0.5218 -0.0989  0.2572
 2045SOL    HW116104   3.961   0.501   0.236 -0.2281  1.2340  1.7212
 2045SOL    HW216105   3.932   0.645   0.166 -1.1997 -0.0678 -0.6289
 2046SOL     OW16106   1.463   7.583   0.526 -0.2297  0.0556  0.0567
 2046SOL    HW116107   1.546   7.554   0.480  0.7736  3.0152 -0.0766
 2046SOL    HW216108   1.421   7.505   0.572  2.7053 -1.4545  0.2678
 2047SOL     OW16109   1.627   2.208   0.864  1.3383  0.0819 -0.3140
 2047SOL    HW116110   1.625   2.300   0.901 -1.9105  0.3746 -1.0366
 2047SOL    HW216111   1.624   2.212   0.764 -0.5937 -0.7647 -0.3221
 2048SOL     OW16112   1.927   4.820   2.215 -0.3173 -0.0135 -0.3499
 2048SOL    HW116113   1.973   4.878   2.282  2.1780 -1.9731 -0.2710
 2048SOL    HW216114   1.984   4.812   2.133 -1.3388 -1.1080 -0.9699
 2049SOL     OW16115   9.700   5.615   0.250  0.1716  0.2342 -0.0024
 2049SOL    HW116116   9.731   5.603   0.155 -2.3522 -0.2388 -0.8012
 2049SOL    HW216117   9.688   5.713   0.268  1.7429  0.4078  0.2249
 2050SOL     OW16118   3.444   4.281   1.969 -0.5373  0.0861  0.1543
 2050SOL    HW116119   3.492   4.357   1.925  0.0845  0.2422  1.0851
 2050SOL    HW216120   3.489   4.195   1.945 -1.4926 -0.0469 -1.2411
 2051SOL     OW16121   2.406   0.631   1.078  0.2684  0.0595 -0.9208
 2051SOL    HW116122   2.401   0.681   0.992  0.8836  0.7866 -0.5361
 2051SOL    HW216123   2.482   0.666   1.133 -0.4135 -0.0658  0.1206
 2052SOL     OW16124   3.141   7.417   0.848  0.0598  0.7643  0.1576
 2052SOL    HW116125   3.180   7.366   0.771 -0.5552  2.7776 -1.5808
 2052SOL    HW216126   3.209   7.481   0.883  0.1516  0.2604  0.8887
 2053SOL     OW16127   2.826   4.957   2.225 -0.3500 -0.0846  0.2026
 2053SOL    HW116128   2.913   4.967   2.273  0.4665 -0.7362 -1.0976
 2053SOL    HW216129   2.837   4.987   2.130 -2.2199  2.2101  0.6727
 2054SOL     OW16130   1.164   6.076   0.764  0.2266  0.4918  0.2091
 2054SOL    HW116131   1.121   6.018   0.833 -0.6691  1.5183  0.5286
 2054SOL    HW216132   1.239   6.128   0.806 -0.8836  1.7746  0.6325
 2055SOL     OW16133   3.991   1.881   1.898  0.6508  0.1897 -0.0158
 2055SOL    HW116134   3.892   1.886   1.885  0.5058 -1.6050  0.2176
 2055SOL    HW216135   4.028   1.973   1.906 -0.9720  0.8945 -0.2818
 2056SOL     OW16136   2.101   7.678   1.381  0.3257 -0.2755  0.0582
 2056SOL    HW116137   2.164   7.756   1.383  1.5021 -1.2419  1.9036
 2056SOL    HW216138   2.010   7.708   1.410  0.0110  1.0294 -2.1493
 2057SOL     OW16139   2.666   5.833   1.126  0.2952  0.0637 -0.0467
 2057SOL    HW116140   2.745   5.894   1.136  0.1357  0.2352  0.1768
 2057SOL    HW216141   2.683   5.749   1.177  0.6302 -0.1950 -0.5779
 2058SOL     OW16142   9.275   4.850   1.029  0.2451  0.3151 -0.2267
 2058SOL    HW116143   9.233   4.763   1.004 -2.9797  2.2479 -1.8700
 2058SOL    HW216144   9.281   4.856   1.129  0.3239 -1.6903 -0.0815
 2059SOL     OW16145   2.203   4.902   1.198  0.3837  0.5839 -0.7074
 2059SOL    HW116146   2.128   4.836   1.200  1.3003 -0.4438  2.2193
 2059SOL    HW216147   2.287   4.857   1.167  0.7134  0.6779  0.0339
 2060SOL     OW16148   9.952   4.213   2.070  0.2646 -0.1215  0.3605
 2060SOL    HW116149   9.915   4.184   2.158 -1.9953  0.0631 -0.4957
 2060SOL    HW216150  10.021   4.284   2.085  0.1288 -0.3160  1.9873
 2061SOL     OW16151   3.391   1.961   0.675 -0.4336  0.0614  0.1042
 2061SOL    HW116152   3.433   2.018   0.746  1.2863 -0.6414 -0.3182
 2061SOL    HW216153   3.307   2.005   0.643  0.8711  2.4204 -0.2287
 2062SOL     OW16154   4.550   0.913   1.257 -0.1732 -0.6327 -0.0812
 2062SOL    HW116155   4.584   0.847   1.190 -1.4290 -1.5266  0.1392
 2062SOL    HW216156   4.450   0.917   1.251 -0.3056 -0.8075  1.8127
 2063SOL     OW16157   2.509   1.233   0.065  0.0494 -0.3090  0.1400
 2063SOL    HW116158   2.575   1.158   0.071  2.0933  1.4269 -0.4335
 2063SOL    HW216159   2.420   1.201   0.099  0.4999 -3.4238 -1.4557
 2064SOL     OW16160   3.788   1.335   1.245 -0.7046  0.2920 -0.8995
 2064SOL    HW116161   3.738   1.285   1.315 -0.2373  0.0962 -0.7067
 2064SOL    HW216162   3.730   1.409   1.209 -0.9665  0.3481 -0.3625
 2065SOL     OW16163   2.288   3.763   0.247 -0.4761  0.1635  0.1344
 2065SOL    HW116164   2.357   3.710   0.197  0.0607 -0.0637  1.0959
 2065SOL    HW216165   2.198   3.747   0.206 -0.2900 -1.3300  0.2645
 2066SOL     OW16166   3.709   4.902   2.721  0.2144 -0.0527 -0.0998
 2066SOL    HW116167   3.676   4.991   2.688  1.3667  0.5838  0.4322
 2066SOL    HW216168   3.658   4.876   2.802 -0.0251  0.1984 -0.1675
 2067SOL     OW16169   2.513   2.649   0.926  0.2344 -0.2216  0.2801
 2067SOL    HW116170   2.559   2.571   0.970 -1.4605 -0.9558  0.7765
 2067SOL    HW216171   2.573   2.729   0.931  1.3065 -1.0557  1.2711
 2068SOL     OW16172   2.318   0.738   0.438 -0.5764 -0.4256  0.0311
 2068SOL    HW116173   2.398   0.680   0.453 -0.0802  0.2287 -0.1020
 2068SOL    HW216174   2.328   0.822   0.491 -0.7458  0.0702 -0.7324
 2069SOL     OW16175   4.087   4.213   0.921  0.4568 -0.1927 -0.2407
 2069SOL    HW116176   4.098   4.307   0.890  1.1518  0.3169  1.4960
 2069SOL    HW216177   3.990   4.191   0.930  0.3071  1.1800  1.7388
 2070SOL     OW16178   2.094   5.315   1.036  0.2163 -0.2380  0.0895
 2070SOL    HW116179   2.149   5.279   1.110 -0.7675  0.6580  1.2774
 2070SOL    HW216180   1.997   5.312   1.061  0.0856  3.1001  0.1986
 2071SOL     OW16181   0.814   4.602   2.183  0.1797  0.5875 -0.0003
 2071SOL    HW116182   0.787   4.517   2.138  0.9550  1.4955 -2.2347
 2071SOL    HW216183   0.733   4.644   2.225 -0.6399 -0.0783 -0.8896
 2072SOL     OW16184   4.330   1.985   0.296 -0.1558 -0.8272 -0.1077
 2072SOL    HW116185   4.350   2.068   0.244 -2.1080 -0.3012 -0.0270
 2072SOL    HW216186   4.341   1.905   0.236 -0.2832 -0.3703 -0.7425
 2073SOL     OW16187   2.084   0.619   0.386  0.7182 -0.0079 -0.1295
 2073SOL    HW116188   2.169   0.623   0.439  0.6753  1.3465 -0.1425
 2073SOL    HW216189   2.063   0.710   0.350 -0.9791 -0.2383  0.2430
 2074SOL     OW16190   3.796   4.612   2.606 -0.4442 -0.0927  0.0163
 2074SOL    HW116191   3.869   4.568   2.658 -1.4179  0.3926  1.8431
 2074SOL    HW216192   3.779   4.704   2.642 -2.8955 -0.7151  0.5921
 2075SOL     OW16193   9.923   5.468   0.443  0.1928  0.4510 -0.2371
 2075SOL    HW116194   9.833   5.506   0.423  0.2625  1.8431  1.8953
 2075SOL    HW216195   9.916   5.369   0.455 -1.0748  0.5739  0.0466
 2076SOL     OW16196   2.380   6.395   1.477  0.2665  0.4542  0.2131
 2076SOL    HW116197   2.470   6.352   1.485  0.8138  1.4298 -0.5263
 2076SOL    HW216198   2.391   6.490   1.449 -0.9735  0.7854  0.8095
 2077SOL     OW16199   1.578   6.476   0.285  0.2013  0.0937  0.6622
 2077SOL    HW116200   1.673   6.505   0.300  0.4878  0.6438 -2.0873
 2077SOL    HW216201   1.577   6.391   0.233 -0.8415  0.8959 -0.6426
 2078SOL     OW16202   0.472   6.262   1.910  0.3006  0.5121 -0.3528
 2078SOL    HW116203   0.403   6.258   1.838  0.9278  2.6940 -1.0922
 2078SOL    HW216204   0.563   6.272   1.870  0.6510  1.8678  0.7401
 2079SOL     OW16205   2.592   6.716   2.655  0.3271 -0.1337 -0.0806
 2079SOL    HW116206   2.558   6.674   2.740 -0.3032 -1.3394 -0.9134
 2079SOL    HW216207   2.572   6.814   2.656 -0.8460 -0.3688  0.6035
 2080SOL     OW16208   3.959   2.351   0.782  0.6458 -0.7566 -0.6829
 2080SOL    HW116209   3.875   2.373   0.832 -0.8272  0.2261 -3.4475
 2080SOL    HW216210   4.038   2.385   0.833 -0.9707  2.5039 -0.1890
 2081SOL     OW16211   3.703   4.349   1.136  0.2040 -0.0858 -0.4796
 2081SOL    HW116212   3.784   4.298   1.163 -1.1689 -1.3422  1.3693
 2081SOL    HW216213   3.695   4.348   1.037  1.2983 -1.7281 -0.5672
 2082SOL     OW16214   2.366   8.153   0.591  0.0478  0.0222  0.4874
 2082SOL    HW116215   2.429   8.230   0.588  0.8472 -0.6160  0.4948
 2082SOL    HW216216   2.409   8.078   0.642 -1.3954  0.1770  1.9718
 2083SOL     OW16217   2.310   7.653   0.569 -0.7236  0.2835 -0.4757
 2083SOL    HW116218   2.323   7.635   0.471  0.2090 -1.4432 -0.0739
 2083SOL    HW216219   2.240   7.723   0.582 -0.9996  0.3795 -2.3708
 2084SOL     OW16220   2.572   5.289   1.898 -0.3678 -0.1349 -0.3781
 2084SOL    HW116221   2.512   5.295   1.818 -1.5915 -0.5279  0.4830
 2084SOL    HW216222   2.518   5.307   1.981  0.8169 -0.0162  0.3862
 2085SOL     OW16223   3.038   8.245   2.230 -0.0146  0.4516 -0.8177
 2085SOL    HW116224   2.994   8.293   2.153 -0.4721  0.1398 -0.7519
 2085SOL    HW216225   3.033   8.303   2.311 -1.6511 -0.1921 -0.4348
 2086SOL     OW16226   2.938   9.557   0.536 -0.4771  0.2854 -0.3270
 2086SOL    HW116227   3.003   9.484   0.512  0.1370  0.6177  0.3293
 2086SOL    HW216228   2.845   9.528   0.511 -0.1779 -0.5197 -0.5266
 2087SOL     OW16229   2.472   1.442   2.387  0.3218 -0.7706  0.4880
 2087SOL    HW116230   2.477   1.373   2.459 -0.8691 -0.4706  0.8766
 2087SOL    HW216231   2.564   1.468   2.358  0.8026 -0.9258  1.8666
 2088SOL     OW16232   2.459   4.236   0.612  0.1194 -0.1445  0.3064
 2088SOL    HW116233   2.376   4.288   0.593  1.1983  1.4407 -0.1025
 2088SOL    HW216234   2.436   4.158   0.671 -1.7454 -0.0573 -0.2738
 2089SOL     OW16235   9.535   3.915   2.352  0.3143 -0.1476 -0.1573
 2089SOL    HW116236   9.502   4.009   2.364 -0.5134 -0.5229  0.5959
 2089SOL    HW216237   9.545   3.872   2.442  0.3639 -0.8929 -0.5180
 2090SOL     OW16238   2.849   2.126   1.615  0.3354 -0.3298  0.2434
 2090SOL    HW116239   2.788   2.201   1.642 -1.5836 -0.9171 -2.2261
 2090SOL    HW216240   2.844   2.053   1.683  0.6201  0.8942  1.5996
 2091SOL     OW16241   4.687   3.093   1.154 -0.2271 -0.2174  0.0637
 2091SOL    HW116242   4.759   3.162   1.169 -0.6885  0.0695  0.9945
 2091SOL    HW216243   4.605   3.138   1.120 -0.9647 -0.1162  1.9507
 2092SOL     OW16244   3.221   7.704   1.549  0.5168 -0.2037 -0.3785
 2092SOL    HW116245   3.271   7.626   1.512 -1.3336 -1.0792 -1.1254
 2092SOL    HW216246   3.159   7.739   1.478  0.0336  0.8168  0.5416
 2093SOL     OW16247   2.440   9.193   0.066 -0.2683 -0.1393 -0.2341
 2093SOL    HW116248   2.423   9.175  -0.031  2.6405 -0.0098 -0.8064
 2093SOL    HW216249   2.398   9.121   0.121 -0.9179 -0.8716 -1.6471
 2094SOL     OW16250   3.803   9.642   0.846  0.6212  0.3095 -0.1093
 2094SOL    HW116251   3.865   9.699   0.794  0.1502  1.5042  0.6151
 2094SOL    HW216252   3.710   9.676   0.837 -0.1044 -2.0440 -1.9836
 2095SOL     OW16253   1.857   4.508   0.014  0.3879  0.4117  0.6272
 2095SOL    HW116254   1.874   4.551  -0.074  0.6925  1.8688  1.3887
 2095SOL    HW216255   1.892   4.414   0.012  0.3431  0.4099 -0.8064
 2096SOL     OW16256   2.205   5.557   0.669  0.0512 -0.0380  0.7104
 2096SOL    HW116257   2.121   5.573   0.722  0.1528  1.0088  0.5801
 2096SOL    HW216258   2.283   5.597   0.718 -0.2165  3.2936 -1.4254
 2097SOL     OW16259   2.650   1.006   2.808 -0.6274  0.1471 -0.2375
 2097SOL    HW116260   2.563   0.968   2.777  0.2312 -1.8364 -0.3112
 2097SOL    HW216261   2.708   0.932   2.842 -0.3816  1.8689  3.3485
 2098SOL     OW16262   2.185   6.564   0.795  0.3559 -0.0547  0.7826
 2098SOL    HW116263   2.280   6.559   0.823  0.7744  2.4117 -0.0615
 2098SOL    HW216264   2.127   6.523   0.866  2.0470 -2.0868  1.0411
 2099SOL     OW16265   9.023   4.070   0.447 -0.3797  0.5575 -0.2597
 2099SOL    HW116266   8.953   4.017   0.496 -0.7414 -0.2553 -1.5979
 2099SOL    HW216267   9.113   4.048   0.483 -0.7743  1.3111  1.2204
 2100SOL     OW16268   0.988   4.050   1.450  0.7246 -0.0184 -0.3062
 2100SOL    HW116269   1.045   4.029   1.529  0.1123 -1.4289 -0.2322
 2100SOL    HW216270   0.998   4.147   1.427  0.6379  0.4994  1.7172
 2101SOL     OW16271   1.523   4.929   0.972 -0.4178 -0.3244  0.3956
 2101SOL    HW116272   1.494   4.865   0.902 -1.5813 -2.1353  2.4600
 2101SOL    HW216273   1.502   5.023   0.943 -0.4132 -1.0065 -1.8449
 2102SOL     OW16274   1.579   0.989   0.541 -0.0919 -1.1561 -0.4943
 2102SOL    HW116275   1.524   1.072   0.547  2.3568  0.6661 -2.0988
 2102SOL    HW216276   1.561   0.931   0.621 -2.0697  0.7507  0.5017
 2103SOL     OW16277   1.517   2.538   1.929  0.4335 -0.7302 -0.0910
 2103SOL    HW116278   1.490   2.490   2.013 -1.8517  0.3704 -0.1396
 2103SOL    HW216279   1.465   2.623   1.921  2.3057  0.3279 -1.4779
 2104SOL     OW16280   1.998   4.984   1.941  0.5900 -0.1408 -0.3807
 2104SOL    HW116281   2.008   4.931   1.857 -0.9117 -0.6770 -0.2429
 2104SOL    HW216282   1.903   5.015   1.949  0.3500 -1.4304  1.9046
 2105SOL     OW16283   1.741   2.295   1.643  0.4551 -0.1549 -0.1309
 2105SOL    HW116284   1.649   2.323   1.616  0.8382  0.2828 -0.9960
 2105SOL    HW216285   1.745   2.195   1.651  0.7407 -0.4767 -3.3712
 2106SOL     OW16286   4.218   2.668   2.726  0.2788 -0.8418 -0.0909
 2106SOL    HW116287   4.204   2.711   2.815 -0.3242 -0.1170 -0.5333
 2106SOL    HW216288   4.303   2.614   2.728 -1.0234 -2.9031  1.7125
 2107SOL     OW16289   3.828   3.496   2.788 -0.4460 -0.5541 -0.0338
 2107SOL    HW116290   3.770   3.500   2.707 -0.2778  0.3467 -0.1107
 2107SOL    HW216291   3.910   3.443   2.767  0.5238  1.3107 -1.0489
 2108SOL     OW16292   2.376   5.636   2.631 -0.1879  0.1149 -0.1910
 2108SOL    HW116293   2.315   5.665   2.705  0.8565  0.8819  0.3744
 2108SOL    HW216294   2.389   5.537   2.637  0.5854  0.2847  1.1983
 2109SOL     OW16295   2.793   6.586   0.831 -0.3823 -0.6102  0.1994
 2109SOL    HW116296   2.807   6.680   0.860  0.1434 -0.2655 -1.1700
 2109SOL    HW216297   2.695   6.570   0.814 -0.3458 -0.0427 -0.5230
 2110SOL     OW16298   2.667   7.951   1.564 -0.0676 -0.4343 -0.3794
 2110SOL    HW116299   2.614   7.977   1.483 -0.3917 -0.1943 -0.0889
 2110SOL    HW216300   2.634   8.001   1.643  0.6071 -0.2673 -0.1988
 2111SOL     OW16301   2.604   5.673   2.485 -0.5913 -0.3232 -0.0287
 2111SOL    HW116302   2.528   5.675   2.549 -0.4529 -0.5561  0.1398
 2111SOL    HW216303   2.690   5.666   2.535 -0.3894  0.9597 -0.1615
 2112SOL     OW16304   2.329   1.563   2.161 -0.2978  0.2097  0.3443
 2112SOL    HW116305   2.399   1.557   2.232 -0.5280  0.9927  0.6386
 2112SOL    HW216306   2.369   1.538   2.073  0.2431  0.2210  0.5825
 2113SOL     OW16307   4.538   3.465   1.210  0.9568 -0.1911 -0.8442
 2113SOL    HW116308   4.501   3.457   1.303  1.8296  0.6417 -0.4233
 2113SOL    HW216309   4.507   3.387   1.156  0.0861 -0.4626  0.0198
 2114SOL     OW16310   3.021   9.893   1.651 -0.3498 -0.2376 -1.0009
 2114SOL    HW116311   3.044   9.970   1.592 -0.5503 -0.3768 -1.2616
 2114SOL    HW216312   3.068   9.903   1.739  0.9955 -0.6833 -1.6456
 2115SOL     OW16313   2.298   4.884   2.605  0.2331 -0.4264  0.3955
 2115SOL    HW116314   2.392   4.854   2.620  0.7029 -0.9563 -3.2835
 2115SOL    HW216315   2.251   4.819   2.545 -1.7819  1.0710  0.2963
 2116SOL     OW16316   0.974   4.531   2.393 -0.3356  0.1696  0.5028
 2116SOL    HW116317   1.037   4.600   2.429  1.2650 -0.4220 -1.0581
 2116SOL    HW216318   0.923   4.570   2.316 -0.1336 -0.0711  0.2436
 2117SOL     OW16319   4.399   2.207   0.160 -0.5629 -0.1819 -0.5100
 2117SOL    HW116320   4.465   2.272   0.198 -1.9573  1.0292 -0.1194
 2117SOL    HW216321   4.323   2.257   0.119 -2.2743 -1.5762  0.8844
 2118SOL     OW16322   1.522   5.886   1.311 -0.1538  0.1138 -0.1021
 2118SOL    HW116323   1.544   5.851   1.402 -0.0546  0.4253 -0.0042
 2118SOL    HW216324   1.604   5.884   1.254  0.2844  1.8205  0.4415
 2119SOL     OW16325   0.298   5.544   0.344  0.3399 -0.3938 -0.0813
 2119SOL    HW116326   0.344   5.538   0.432 -0.1667  0.1953  0.2306
 2119SOL    HW216327   0.324   5.466   0.287 -1.9854 -2.6481  1.8345
 2120SOL     OW16328   2.431   7.798   1.133 -0.2824 -0.4887  0.0256
 2120SOL    HW116329   2.379   7.854   1.197 -0.1110  1.4924 -1.5093
 2120SOL    HW216330   2.522   7.838   1.120 -0.9197  0.1422 -2.7511
 2121SOL     OW16331   2.322   9.631   0.680 -0.0105 -0.1272 -0.0510
 2121SOL    HW116332   2.230   9.593   0.666 -0.4806  0.3983  1.5607
 2121SOL    HW216333   2.351   9.678   0.597 -1.6291  0.6076 -0.2182
 2122SOL     OW16334   3.667   4.653   0.374  0.1964  0.3123 -0.2228
 2122SOL    HW116335   3.683   4.590   0.298  2.0019  2.5691 -1.7777
 2122SOL    HW216336   3.569   4.668   0.385 -0.2153 -2.0902 -0.3426
 2123SOL     OW16337   2.644   4.937   0.479 -0.7369 -0.1857 -0.8399
 2123SOL    HW116338   2.578   4.863   0.467 -1.6505  0.1800  1.6649
 2123SOL    HW216339   2.689   4.929   0.568 -1.2952  2.5789 -0.2422
 2124SOL     OW16340   4.131   0.172   0.481 -0.4938 -0.3098  0.0522
 2124SOL    HW116341   4.100   0.122   0.400 -1.6710  0.3083  0.1045
 2124SOL    HW216342   4.172   0.108   0.547 -0.3273 -0.9328 -0.6526
 2125SOL     OW16343   2.812   8.819   2.088 -0.0293  0.0611 -0.4821
 2125SOL    HW116344   2.874   8.865   2.025 -0.2692  0.4859 -0.4054
 2125SOL    HW216345   2.859   8.800   2.174 -0.0546  0.5119 -0.3725
 2126SOL     OW16346   3.350   5.105   0.375 -0.3487  0.3909  0.8906
 2126SOL    HW116347   3.384   5.152   0.293  1.6890 -0.2123  1.3698
 2126SOL    HW216348   3.266   5.150   0.406 -1.0861  0.7106 -1.4315
 2127SOL     OW16349   1.670   4.747   2.438  0.1746  0.0538 -0.2251
 2127SOL    HW116350   1.621   4.676   2.489 -0.2893  0.5675  0.0359
 2127SOL    HW216351   1.727   4.703   2.367 -0.0936 -0.5786 -0.0530
 2128SOL     OW16352   0.048   5.073   2.108 -0.1539 -0.5525  0.2561
 2128SOL    HW116353   0.138   5.115   2.112 -1.4586  2.2321  3.7306
 2128SOL    HW216354   0.054   4.984   2.063  3.9439  0.3751 -1.2173
 2129SOL     OW16355   1.164   4.122   0.255 -0.3070 -0.4649  0.2112
 2129SOL    HW116356   1.220   4.204   0.268 -0.0060 -0.7954  1.0922
 2129SOL    HW216357   1.203   4.046   0.309 -0.4742 -1.2330 -0.7382
 2130SOL     OW16358   0.140   3.491   1.856 -0.4507 -0.2738 -0.7210
 2130SOL    HW116359   0.122   3.568   1.795  0.9728  0.1168 -0.6663
 2130SOL    HW216360   0.231   3.455   1.838 -1.1508 -2.0345 -0.8280
 2131SOL     OW16361   4.181   0.228   2.116  0.0573 -0.1434 -0.4032
 2131SOL    HW116362   4.105   0.198   2.173  0.8007  0.4537  0.9394
 2131SOL    HW216363   4.159   0.212   2.020 -0.4345 -2.9820  0.1292
 2132SOL     OW16364   1.187   3.076   1.230 -0.4958 -0.1666  0.3199
 2132SOL    HW116365   1.120   3.144   1.203 -0.8253 -0.1879  1.0723
 2132SOL    HW216366   1.260   3.071   1.162 -0.3975  1.0329  0.3320
 2133SOL     OW16367   1.434   3.294   1.354 -0.0379 -0.1745  0.1536
 2133SOL    HW116368   1.335   3.280   1.352  0.0649 -0.8861  0.1184
 2133SOL    HW216369   1.480   3.208   1.375  0.6359 -0.1449 -1.1110
 2134SOL     OW16370   1.207   5.131   2.284  0.1963 -0.1553  0.6761
 2134SOL    HW116371   1.300   5.157   2.261  0.5493 -2.6051 -0.8511
 2134SOL    HW216372   1.143   5.202   2.251  1.4055  0.9960  0.7680
 2135SOL     OW16373   2.217   0.535   2.782 -0.3388  1.0569  0.3621
 2135SOL    HW116374   2.192   0.548   2.686 -0.0316 -1.9197 -0.1784
 2135SOL    HW216375   2.314   0.558   2.795 -0.3307  1.2801 -0.0788
 2136SOL     OW16376   2.452   9.225   1.868 -0.2838  0.2078 -0.1977
 2136SOL    HW116377   2.499   9.242   1.782 -1.8272 -1.2483 -1.3555
 2136SOL    HW216378   2.475   9.133   1.901 -0.6280  0.3082  0.3224
 2137SOL     OW16379   3.538   3.520   2.820  0.0770 -0.2160  0.4139
 2137SOL    HW116380   3.520   3.533   2.918 -1.7089  0.3312  0.0414
 2137SOL    HW216381   3.575   3.604   2.782  3.8211 -1.4155  1.2293
 2138SOL     OW16382   1.634   6.230   0.155 -0.0049 -1.0512 -0.7284
 2138SOL    HW116383   1.653   6.142   0.197 -1.0219 -0.5253  0.9073
 2138SOL    HW216384   1.549   6.224   0.102 -0.3871 -0.9379 -0.1468
 2139SOL     OW16385   2.584   3.743   1.377 -0.1173 -0.3746  0.2413
 2139SOL    HW116386   2.493   3.703   1.367  0.2351 -0.9284 -0.8824
 2139SOL    HW216387   2.651   3.670   1.392  0.4395 -0.1646 -1.1567
 2140SOL     OW16388   9.676   3.086   0.817  0.7931  0.7858 -0.1692
 2140SOL    HW116389   9.634   2.995   0.816  1.0154  0.6857 -0.8658
 2140SOL    HW216390   9.763   3.083   0.768  0.7506  1.3931 -0.2815
 2141SOL     OW16391   2.619   9.968   0.359  0.9667 -0.3823  0.7020
 2141SOL    HW116392   2.713  10.001   0.367  1.2092 -0.9621  0.2089
 2141SOL    HW216393   2.619   9.871   0.338  0.2974  0.1489 -1.9028
 2142SOL     OW16394   2.552   7.079   1.835 -0.1884 -0.3746  0.7053
 2142SOL    HW116395   2.573   7.177   1.824  1.0305 -0.5651  1.2745
 2142SOL    HW216396   2.507   7.046   1.752 -2.8551  1.2325  1.4760
 2143SOL     OW16397   4.194   0.681   2.114 -0.5721 -0.2140 -0.3033
 2143SOL    HW116398   4.245   0.615   2.168 -3.3039 -2.7055 -0.6633
 2143SOL    HW216399   4.231   0.773   2.130  0.2902 -1.1830  3.7824
 2144SOL     OW16400   0.390   5.112   0.458 -0.5491 -0.4243 -0.0307
 2144SOL    HW116401   0.387   5.024   0.411  0.9028  0.3475 -1.5962
 2144SOL    HW216402   0.396   5.096   0.557 -0.0441 -2.0845 -0.3107
 2145SOL     OW16403   4.079   2.140   1.956 -0.4570  0.3112  0.1341
 2145SOL    HW116404   4.115   2.202   1.886 -1.2023  0.3623 -0.2135
 2145SOL    HW216405   4.073   2.189   2.043 -0.8380  0.6721 -0.0899
 2146SOL     OW16406   0.817   2.365   0.908  0.3999 -0.4293 -0.5747
 2146SOL    HW116407   0.829   2.318   0.820 -0.7812 -0.4429 -0.7339
 2146SOL    HW216408   0.750   2.316   0.963  0.0252  0.4173 -0.2662
 2147SOL     OW16409   2.413   5.643   0.797 -0.6078  0.1322 -0.5154
 2147SOL    HW116410   2.390   5.725   0.849 -0.1713  0.6821 -1.1771
 2147SOL    HW216411   2.475   5.586   0.851  0.3913  1.0292 -0.6869
 2148SOL     OW16412   4.993   3.141   1.412  0.0570  0.1693  0.0707
 2148SOL    HW116413   5.080   3.165   1.368  0.4217 -1.0826  0.0916
 2148SOL    HW216414   4.964   3.051   1.382 -0.9806  0.3609  0.4711
 2149SOL     OW16415   0.143   2.659   1.765 -0.6220 -0.1847 -0.0346
 2149SOL    HW116416   0.064   2.601   1.748 -0.4146 -0.5088  0.0884
 2149SOL    HW216417   0.177   2.696   1.678 -0.5645 -0.5031 -0.1473
 2150SOL     OW16418   2.940   4.142   1.361 -1.1356  0.2089 -0.5792
 2150SOL    HW116419   2.847   4.172   1.342 -1.7178 -0.1094  1.5994
 2150SOL    HW216420   2.998   4.221   1.379 -1.0885  0.3817 -1.4883
 2151SOL     OW16421   2.391   0.927   1.315  0.3787  0.0937  0.1379
 2151SOL    HW116422   2.468   0.955   1.371  0.4791 -0.2923  0.1950
 2151SOL    HW216423   2.385   0.986   1.234  1.0192 -0.1727 -0.1057
 2152SOL     OW16424   0.945   6.691   2.759  0.1469 -0.3066  1.0405
 2152SOL    HW116425   0.916   6.649   2.673 -0.1673 -0.1608  1.0750
 2152SOL    HW216426   0.867   6.734   2.803  0.0319 -1.4720  2.0182
 2153SOL     OW16427   2.664   3.009   2.531 -0.5999 -0.3743 -0.0903
 2153SOL    HW116428   2.579   3.035   2.485 -0.3394 -2.0770 -1.5840
 2153SOL    HW216429   2.642   2.950   2.609 -0.8066 -0.5581 -0.2870
 2154SOL     OW16430   2.738   3.934   0.517  0.1332 -0.3945 -0.0705
 2154SOL    HW116431   2.710   3.914   0.423 -0.6259  1.1338 -0.1898
 2154SOL    HW216432   2.741   4.034   0.530  1.3365 -0.5800  1.2011
 2155SOL     OW16433   2.813   7.616   1.235 -0.5228 -0.1865 -0.2470
 2155SOL    HW116434   2.737   7.563   1.273 -0.7563 -0.9532 -1.7615
 2155SOL    HW216435   2.814   7.607   1.135  0.7039  0.9687 -0.3537
 2156SOL     OW16436   0.967   5.248   1.273  0.1203 -0.1542  0.0754
 2156SOL    HW116437   0.991   5.156   1.242  1.1335  0.5022 -1.1049
 2156SOL    HW216438   0.881   5.276   1.231 -0.0571 -0.4576  0.2344
 2157SOL     OW16439   4.143   1.217   2.819 -0.3474  0.3115 -0.0151
 2157SOL    HW116440   4.198   1.224   2.902 -0.7722 -1.2020  0.4130
 2157SOL    HW216441   4.055   1.263   2.833  0.2578  1.5563 -0.2358
 2158SOL     OW16442   0.246   4.471   2.722  0.3267  0.1750 -0.4349
 2158SOL    HW116443   0.285   4.416   2.649 -0.3246  1.0194 -1.4425
 2158SOL    HW216444   0.259   4.568   2.700 -1.5405  0.4525 -0.3642
 2159SOL     OW16445   0.998   5.952   2.271  0.3379 -0.5104 -0.3627
 2159SOL    HW116446   0.978   5.988   2.362 -0.3840 -1.3207 -0.1875
 2159SOL    HW216447   1.058   6.015   2.223  1.1536 -0.3192  0.8695
 2160SOL     OW16448   3.002   2.629   1.980 -0.0431  0.5192 -0.4614
 2160SOL    HW116449   3.047   2.694   2.041 -0.2964  1.6931 -1.4982
 2160SOL    HW216450   3.011   2.660   1.885  0.6280 -1.4398 -1.0652
 2161SOL     OW16451   0.168   5.048   1.089  0.3705 -0.5451 -0.0360
 2161SOL    HW116452   0.117   5.002   1.162  0.3296 -1.1865 -0.4676
 2161SOL    HW216453   0.168   5.147   1.106 -0.2916 -0.6184  0.4182
 2162SOL     OW16454   3.706   9.723   1.936  0.0265 -0.6156 -0.8139
 2162SOL    HW116455   3.740   9.816   1.945  0.4980 -0.8229 -0.4553
 2162SOL    HW216456   3.674   9.708   1.842  0.5375 -0.2982 -1.0391
 2163SOL     OW16457   1.965   0.772   2.445 -0.1037  0.1189 -0.3062
 2163SOL    HW116458   1.942   0.862   2.482 -2.9780 -0.5369 -0.3969
 2163SOL    HW216459   2.028   0.783   2.368  0.6576  1.9300  0.5243
 2164SOL     OW16460   2.629   8.606   2.819  0.1722 -0.5939 -0.0508
 2164SOL    HW116461   2.610   8.648   2.730 -0.4966 -0.9738 -0.0913
 2164SOL    HW216462   2.614   8.673   2.891  1.2048 -0.1353 -0.2482
 2165SOL     OW16463   2.225   6.713   0.096 -0.0321  0.1724 -0.2658
 2165SOL    HW116464   2.193   6.619   0.086  0.4759  0.0624 -0.9201
 2165SOL    HW216465   2.323   6.716   0.077 -0.2406  0.9992 -1.2266
 2166SOL     OW16466   2.849   1.121   2.620 -0.7907  0.5027 -0.0609
 2166SOL    HW116467   2.805   1.088   2.704  0.3094 -1.4415 -0.2253
 2166SOL    HW216468   2.817   1.067   2.542  0.9232 -0.1198 -0.3548
 2167SOL     OW16469   1.967   1.202   1.821 -1.2198  0.6549  0.0521
 2167SOL    HW116470   1.882   1.210   1.769 -1.5378 -1.2585  0.2536
 2167SOL    HW216471   2.030   1.141   1.773 -0.4101  1.1389  0.4917
 2168SOL     OW16472   9.134   5.391   1.836 -0.0899  0.0476 -0.1243
 2168SOL    HW116473   9.115   5.487   1.815  0.7521 -0.0724 -1.4490
 2168SOL    HW216474   9.125   5.336   1.754  1.0563 -0.7615  0.2850
 2169SOL     OW16475   2.464   8.094   1.720 -0.0920 -0.3325 -0.2575
 2169SOL    HW116476   2.537   8.074   1.786 -0.6117 -4.0073 -0.7157
 2169SOL    HW216477   2.384   8.127   1.769  0.8843  0.9328  0.5251
 2170SOL     OW16478   2.833   7.655   2.626  0.1579 -0.3030 -0.3321
 2170SOL    HW116479   2.880   7.639   2.713 -1.8573 -1.3786  0.5996
 2170SOL    HW216480   2.771   7.579   2.607 -2.4559  1.8143 -0.6470
 2171SOL     OW16481   4.006   1.704   2.109  0.2007  0.2832 -0.2099
 2171SOL    HW116482   4.000   1.758   2.025 -2.1704  1.2628  0.5744
 2171SOL    HW216483   3.920   1.655   2.124  1.5807 -2.1357  0.1801
 2172SOL     OW16484   0.230   3.820   2.122 -0.2245 -0.0685  0.1426
 2172SOL    HW116485   0.308   3.809   2.184  1.1370  0.8590 -1.3712
 2172SOL    HW216486   0.156   3.760   2.152  0.3948  0.3310  2.6515
 2173SOL     OW16487   1.152   4.982   1.871 -0.3655 -0.3018  0.2834
 2173SOL    HW116488   1.070   4.964   1.926 -1.0467 -0.9696 -0.9254
 2173SOL    HW216489   1.151   5.077   1.841 -1.4562 -0.6954 -0.9475
 2174SOL     OW16490   2.362   0.650   1.369  0.1786  0.5019  0.4501
 2174SOL    HW116491   2.316   0.606   1.292 -0.8415  0.0610  1.3070
 2174SOL    HW216492   2.345   0.749   1.366 -1.6337  0.2323  1.2918
 2175SOL     OW16493   0.724   6.062   0.555 -0.4436 -0.4116  0.3804
 2175SOL    HW116494   0.796   6.126   0.579 -1.4923  0.6831  0.6391
 2175SOL    HW216495   0.762   5.970   0.549  1.1035  0.2440 -0.1287
 2176SOL     OW16496   1.408   5.824   2.654 -0.0560  0.1080  0.2649
 2176SOL    HW116497   1.464   5.906   2.654 -1.3435  1.0037 -0.0708
 2176SOL    HW216498   1.382   5.801   2.560 -1.3729  0.4942  0.5186
 2177SOL     OW16499   4.624   3.133   1.557 -0.2346  0.6184 -0.3495
 2177SOL    HW116500   4.705   3.156   1.503  1.5875 -1.0620  1.5930
 2177SOL    HW216501   4.642   3.151   1.654 -2.3476  0.6091  0.0744
 2178SOL     OW16502   2.301   7.080   1.202  0.2544 -0.7702  0.1657
 2178SOL    HW116503   2.226   7.031   1.246 -0.9433 -0.1935 -1.2038
 2178SOL    HW216504   2.335   7.027   1.124 -0.0463 -0.1372 -0.4061
 2179SOL     OW16505   4.218   1.742   2.276 -0.0980 -0.8971  0.4898
 2179SOL    HW116506   4.191   1.681   2.350 -3.7457  1.9487  1.6668
 2179SOL    HW216507   4.148   1.742   2.205  1.7610 -1.0428 -1.3847
 2180SOL     OW16508   4.221   4.140   1.166 -0.2673 -0.2787 -0.0875
 2180SOL    HW116509   4.176   4.193   1.238  1.3885 -0.3350  1.0165
 2180SOL    HW216510   4.153   4.108   1.100 -1.5389  1.5160  0.3346
 2181SOL     OW16511   2.347   9.755   1.134 -0.4801 -0.2747  0.5826
 2181SOL    HW116512   2.405   9.723   1.059  0.8815 -0.1120  1.5402
 2181SOL    HW216513   2.333   9.681   1.199 -1.2725 -0.2826  0.4086
 2182SOL     OW16514   1.696   5.426   1.736 -0.1759  0.0775 -0.2547
 2182SOL    HW116515   1.624   5.392   1.676  0.3010  1.5719 -1.7257
 2182SOL    HW216516   1.685   5.525   1.748  0.3460 -0.0432  1.2950
 2183SOL     OW16517   2.244   4.044   2.788 -0.5823  0.3982 -0.4138
 2183SOL    HW116518   2.232   3.979   2.862 -1.7936  1.3161  0.2136
 2183SOL    HW216519   2.340   4.044   2.759 -0.9276 -3.0735 -1.7712
 2184SOL     OW16520   3.393   3.983   1.398  0.1078  0.2437  0.4701
 2184SOL    HW116521   3.482   3.939   1.397  0.2864  0.6006  0.6231
 2184SOL    HW216522   3.362   3.992   1.493  0.7235  1.7623  0.5361
 2185SOL     OW16523   2.933   7.487   0.390  0.1844  0.0766 -0.2482
 2185SOL    HW116524   2.902   7.494   0.485 -1.7234 -0.5245 -0.8223
 2185SOL    HW216525   2.878   7.546   0.332 -0.2070 -1.3442 -1.3548
 2186SOL     OW16526   3.188   6.774   0.669  0.2974 -0.0855 -0.7089
 2186SOL    HW116527   3.175   6.848   0.603 -0.0336  0.0547 -0.4868
 2186SOL    HW216528   3.286   6.754   0.678  0.2970 -0.5604 -1.7390
 2187SOL     OW16529   0.109   5.059   0.628  0.2203 -0.2580 -0.0977
 2187SOL    HW116530   0.139   5.152   0.651  0.0684 -0.3161  0.3322
 2187SOL    HW216531   0.132   5.040   0.532  1.0274 -0.0917  0.0625
 2188SOL     OW16532   3.241   4.705   1.676  0.1883  0.3715 -0.0148
 2188SOL    HW116533   3.260   4.755   1.760  0.3681  0.5227 -0.1469
 2188SOL    HW216534   3.283   4.614   1.681  1.5888  0.9756 -0.6171
 2189SOL     OW16535   1.284   4.892   2.818  0.3584 -0.4140 -0.6212
 2189SOL    HW116536   1.314   4.913   2.725  1.0880 -0.6268 -0.4349
 2189SOL    HW216537   1.218   4.817   2.815 -0.7124  0.5404 -1.0996
 2190SOL     OW16538   3.694   9.612   2.521 -0.4909 -0.4589 -0.5058
 2190SOL    HW116539   3.755   9.571   2.589 -0.1960  0.6633 -0.0760
 2190SOL    HW216540   3.672   9.706   2.548 -0.8794 -0.2101 -1.6393
 2191SOL     OW16541   3.333   1.088   2.432  0.2085  0.3236  0.1772
 2191SOL    HW116542   3.269   1.114   2.504 -0.1610  0.8831 -0.3490
 2191SOL    HW216543   3.427   1.096   2.466  0.0100 -0.2783  0.8792
 2192SOL     OW16544   2.821   9.082   0.292  0.2040 -0.0848 -0.4031
 2192SOL    HW116545   2.875   9.155   0.252 -0.9061  0.5090 -0.8551
 2192SOL    HW216546   2.873   8.997   0.291  0.8857  0.3410 -1.4054
 2193SOL     OW16547   2.815   4.003   2.688 -0.1342  0.6549 -0.2051
 2193SOL    HW116548   2.848   3.980   2.780  0.5440  0.0893 -0.5884
 2193SOL    HW216549   2.737   3.944   2.665  0.2872  0.1602 -0.3639
 2194SOL     OW16550   2.360   2.093   0.584  0.0336  0.2091  0.2135
 2194SOL    HW116551   2.310   2.106   0.499  0.7974  1.0785 -0.1100
 2194SOL    HW216552   2.418   2.012   0.577  0.9382  0.9003 -0.5141
 2195SOL     OW16553   0.157   4.482   1.766  0.3782 -1.3496  0.5183
 2195SOL    HW116554   0.124   4.530   1.684  1.9251 -1.6094 -0.2765
 2195SOL    HW216555   0.079   4.442   1.814 -0.7941  0.7815  0.4462
 2196SOL     OW16556   3.320   8.172   1.957  0.2444  0.4415  0.1060
 2196SOL    HW116557   3.261   8.170   1.877  1.7570  0.8801 -1.0287
 2196SOL    HW216558   3.333   8.078   1.991  0.5288  0.1308 -0.8528
 2197SOL     OW16559   3.610   1.684   0.256  0.4507  0.2886 -0.4568
 2197SOL    HW116560   3.661   1.654   0.336 -1.2082 -2.1363 -0.2591
 2197SOL    HW216561   3.624   1.782   0.242  2.0850  0.4069  1.8014
 2198SOL     OW16562   2.159   5.399   1.589  0.3576  0.2312  0.2833
 2198SOL    HW116563   2.128   5.475   1.532 -0.1551  1.4421  2.1401
 2198SOL    HW216564   2.259   5.398   1.593  0.5273 -1.3777 -2.6093
 2199SOL     OW16565   1.322   1.705   0.731 -0.1011  0.1483  0.6810
 2199SOL    HW116566   1.310   1.771   0.657  1.2552  1.2148  1.3943
 2199SOL    HW216567   1.297   1.748   0.818 -0.6451 -0.7530  0.9698
 2200SOL     OW16568   3.072   1.749   2.762 -0.2581  0.7330  0.1527
 2200SOL    HW116569   3.122   1.769   2.678  1.4360  0.4456  1.0684
 2200SOL    HW216570   2.999   1.684   2.743 -0.1477  0.9831 -1.1763
 2201SOL     OW16571   2.393   1.281   0.807 -0.0054  0.0687  0.3834
 2201SOL    HW116572   2.321   1.276   0.877 -0.3311 -0.2161  0.0269
 2201SOL    HW216573   2.455   1.203   0.818  0.3574  0.4084  0.8021
 2202SOL     OW16574   2.271   0.212   0.556  0.5137 -0.0631 -0.0612
 2202SOL    HW116575   2.180   0.253   0.557 -0.3556 -1.9501 -0.6845
 2202SOL    HW216576   2.333   0.273   0.506 -0.4483  1.0971  0.1189
 2203SOL     OW16577   1.350   2.558   2.452 -0.3759  0.5373  0.2782
 2203SOL    HW116578   1.267   2.504   2.449  0.1244 -0.1629 -1.1273
 2203SOL    HW216579   1.426   2.505   2.415  0.6635  1.2272  1.3918
 2204SOL     OW16580   2.942   5.033   0.429  0.4666  0.1628 -0.0820
 2204SOL    HW116581   2.924   5.002   0.523  1.7058  0.5464  0.3004
 2204SOL    HW216582   3.018   5.098   0.430  1.4863 -0.9722 -1.5283
 2205SOL     OW16583   1.576   3.149   1.094 -0.0052 -0.0752  0.0268
 2205SOL    HW116584   1.591   3.108   1.184  0.3493  0.3287  0.1492
 2205SOL    HW216585   1.584   3.248   1.100  3.2314 -0.2085 -1.0599
 2206SOL     OW16586   3.730   3.513   0.236 -0.1905 -1.0664 -0.0830
 2206SOL    HW116587   3.717   3.420   0.268 -2.3916 -1.2820 -1.5128
 2206SOL    HW216588   3.768   3.512   0.144  5.4100 -0.4463  2.0075
 2207SOL     OW16589   2.422   4.206   1.937 -0.0658 -0.2811 -0.2252
 2207SOL    HW116590   2.413   4.302   1.962  1.4498 -0.1494 -0.1647
 2207SOL    HW216591   2.369   4.150   2.001 -1.2052  0.5210 -0.4446
 2208SOL     OW16592   3.646   4.462   0.150 -0.1221  1.2856  0.1496
 2208SOL    HW116593   3.698   4.398   0.093  1.1119  3.5873 -1.3834
 2208SOL    HW216594   3.551   4.432   0.156 -0.2922  0.9846 -3.1706
 2209SOL     OW16595   3.743   8.323   2.235  0.1912  0.3747  0.0845
 2209SOL    HW116596   3.703   8.413   2.219 -1.0678 -0.3048 -0.6937
 2209SOL    HW216597   3.709   8.286   2.321 -0.0075  0.2594 -0.0432
 2210SOL     OW16598   2.984   4.992   1.169  0.0233 -0.3786  0.0360
 2210SOL    HW116599   2.933   4.987   1.255 -2.1580  0.0402 -1.1965
 2210SOL    HW216600   3.058   4.924   1.170 -1.6475 -2.2460  1.1915
 2211SOL     OW16601   1.728   1.844   1.428  0.2001  0.6511 -0.1983
 2211SOL    HW116602   1.688   1.760   1.464  0.0663  0.3683 -0.9902
 2211SOL    HW216603   1.819   1.825   1.392  0.8071  1.1692  1.0346
 2212SOL     OW16604   3.079   9.662   2.017 -0.5787  0.7293  0.0219
 2212SOL    HW116605   3.172   9.651   1.980 -0.8101 -1.4925  0.0772
 2212SOL    HW216606   3.075   9.747   2.071  1.5228  0.6505  0.3497
 2213SOL     OW16607   1.156   3.042   2.636  0.4898  0.4209 -0.3040
 2213SOL    HW116608   1.161   3.052   2.735 -0.6361 -0.0568 -0.1893
 2213SOL    HW216609   1.212   2.965   2.606  1.3309  0.9567 -0.1090
 2214SOL     OW16610   3.650   0.551   2.386 -0.6212  0.1701  0.1155
 2214SOL    HW116611   3.555   0.545   2.417 -0.5413 -0.1000  0.3105
 2214SOL    HW216612   3.711   0.519   2.459 -0.4651 -0.9869 -0.5074
 2215SOL     OW16613   2.657   8.024   1.900  0.1075  0.3384 -0.0251
 2215SOL    HW116614   2.723   7.986   1.965  0.3781 -0.3460 -0.7020
 2215SOL    HW216615   2.697   8.103   1.854  0.8241 -0.6855 -1.1651
 2216SOL     OW16616   9.819   3.957   0.401 -0.0895  0.1971  0.5062
 2216SOL    HW116617   9.915   3.930   0.397 -0.3382 -0.4703 -1.0399
 2216SOL    HW216618   9.797   3.987   0.494  1.7233  0.7895  0.7525
 2217SOL     OW16619   3.189   7.883   1.961  0.0430 -0.4197  0.0607
 2217SOL    HW116620   3.133   7.844   1.888 -0.5209  0.4511  0.0223
 2217SOL    HW216621   3.162   7.843   2.048 -0.4212 -0.2327  0.0012
 2218SOL     OW16622   3.179   8.025   2.441 -0.9984 -0.0317  0.5276
 2218SOL    HW116623   3.235   8.107   2.452 -0.3218 -0.3574 -0.4450
 2218SOL    HW216624   3.085   8.052   2.419 -0.9281  0.4910  0.8553
 2219SOL     OW16625   1.853   0.799   0.869 -0.1084 -0.3315 -0.3991
 2219SOL    HW116626   1.924   0.814   0.800 -1.3304  0.3696 -1.5131
 2219SOL    HW216627   1.861   0.706   0.905  1.6742 -0.1030 -0.1594
 2220SOL     OW16628   1.308   3.732   1.234  0.2471 -1.0072  0.5003
 2220SOL    HW116629   1.385   3.717   1.173 -1.6425  1.1324 -2.5835
 2220SOL    HW216630   1.244   3.655   1.227  0.5324 -1.2438  0.5318
 2221SOL     OW16631   1.052   3.312   2.640  0.6395  0.5743 -0.4296
 2221SOL    HW116632   1.134   3.334   2.693 -1.4980  0.1724  3.2217
 2221SOL    HW216633   1.048   3.214   2.625 -0.1275  0.3710  1.0661
 2222SOL     OW16634   2.705   4.467   1.953 -0.0208 -0.2074  0.4269
 2222SOL    HW116635   2.738   4.412   1.876 -0.8197 -0.1352  0.0307
 2222SOL    HW216636   2.688   4.560   1.922 -0.8340 -0.3073  0.5735
 2223SOL     OW16637   2.917   8.403   2.015  0.1118  0.4660 -0.3432
 2223SOL    HW116638   2.819   8.386   2.013  0.2687 -0.6164  0.5157
 2223SOL    HW216639   2.960   8.358   1.937  0.3116 -1.8228  1.0245
 2224SOL     OW16640   1.757   3.881   0.952  0.5222 -0.4370 -0.7779
 2224SOL    HW116641   1.708   3.919   1.030  2.0882  1.3466 -0.6309
 2224SOL    HW216642   1.822   3.812   0.984  1.4441  0.5740 -0.4412
 2225SOL     OW16643   2.218   1.882   1.925 -0.3110 -0.5372  0.3972
 2225SOL    HW116644   2.214   1.782   1.934  0.1253 -0.6762 -0.9017
 2225SOL    HW216645   2.146   1.912   1.862 -0.4384 -0.0223  0.7875
 2226SOL     OW16646   0.834   6.229   2.148 -0.5635 -0.0717  0.4691
 2226SOL    HW116647   0.744   6.273   2.145 -0.6500 -0.3305 -0.8200
 2226SOL    HW216648   0.825   6.133   2.122  0.3365  0.3277 -1.3619
 2227SOL     OW16649   2.694   0.934   2.182 -0.0659 -0.0209  0.1544
 2227SOL    HW116650   2.741   0.924   2.270  1.0583 -1.8948 -0.6088
 2227SOL    HW216651   2.648   1.022   2.178  3.1920  1.8275  1.0718
 2228SOL     OW16652   3.650   0.220   0.936 -0.5170  0.2307  0.2233
 2228SOL    HW116653   3.747   0.226   0.961 -0.6791  0.4888  0.8089
 2228SOL    HW216654   3.636   0.143   0.875 -0.2302 -0.8906  1.5340
 2229SOL     OW16655   2.565   7.013   1.431 -0.4297  0.2475  0.3505
 2229SOL    HW116656   2.538   6.924   1.393 -0.3156  1.3808 -2.4692
 2229SOL    HW216657   2.484   7.070   1.442 -0.0479  1.2907 -1.9087
 2230SOL     OW16658   4.042   2.708   0.702  0.0247 -0.5768  0.4470
 2230SOL    HW116659   3.961   2.656   0.676 -1.1558  1.2033  0.4620
 2230SOL    HW216660   4.118   2.645   0.719 -0.9300 -2.1778 -1.0305
 2231SOL     OW16661   0.521   6.237   2.627  0.5139 -0.3894 -0.7045
 2231SOL    HW116662   0.558   6.310   2.569  1.5292  0.8819  1.5068
 2231SOL    HW216663   0.512   6.269   2.721 -0.4620 -2.6466  0.0208
 2232SOL     OW16664   0.850   2.853   0.583  0.7041  0.3792 -0.1617
 2232SOL    HW116665   0.924   2.793   0.612  0.6735  0.4366  0.0362
 2232SOL    HW216666   0.845   2.932   0.644  0.4182  0.3257 -0.1133
 2233SOL     OW16667   2.331   4.405   0.988  0.2266 -0.1447  0.0635
 2233SOL    HW116668   2.267   4.382   0.915  1.2294  0.9248 -1.1789
 2233SOL    HW216669   2.398   4.330   0.998  0.6135  0.0908 -0.7183
 2234SOL     OW16670   3.090   4.399   1.128  0.3252 -0.2081  0.2412
 2234SOL    HW116671   3.141   4.327   1.082 -0.2029  0.5421 -1.5623
 2234SOL    HW216672   3.103   4.392   1.227  0.3701 -2.6711  0.0714
 2235SOL     OW16673   1.361   3.622   0.670  0.0155  0.8995  0.2189
 2235SOL    HW116674   1.413   3.537   0.669 -0.0105  0.8620  1.4990
 2235SOL    HW216675   1.374   3.668   0.758 -0.5484  1.8587 -0.1920
 2236SOL     OW16676   1.583   6.025   2.614  0.1272  0.2502  0.1338
 2236SOL    HW116677   1.615   6.074   2.533 -0.8782 -0.4724 -0.7026
 2236SOL    HW216678   1.660   5.980   2.658  0.3330 -1.3647 -1.7950
 2237SOL     OW16679   1.361   2.129   1.629  0.4477  0.0872  0.1698
 2237SOL    HW116680   1.348   2.135   1.530 -0.1756  1.0420  0.3002
 2237SOL    HW216681   1.384   2.220   1.665  0.7253 -0.2677  0.8849
 2238SOL     OW16682   2.806   9.948   1.918  0.2376  0.0586  0.7111
 2238SOL    HW116683   2.895   9.985   1.944  0.7586  0.2799 -1.3401
 2238SOL    HW216684   2.781   9.981   1.827 -1.1483 -1.3843  0.5421
 2239SOL     OW16685   9.686   4.879   0.534  0.0957 -0.1854 -0.1302
 2239SOL    HW116686   9.596   4.878   0.577  0.3537  4.3375  0.7709
 2239SOL    HW216687   9.749   4.823   0.587 -1.5972 -1.5062  0.5378
 2240SOL     OW16688   9.350   5.104   1.781  0.4584 -0.3847  0.4203
 2240SOL    HW116689   9.289   5.158   1.724  0.1927  0.1936  1.2378
 2240SOL    HW216690   9.355   5.145   1.872  0.5162 -1.5556  0.9461
 2241SOL     OW16691   3.636   2.449   2.593 -0.8038 -0.4952  0.0623
 2241SOL    HW116692   3.714   2.497   2.631 -1.1531  0.7630 -0.7519
 2241SOL    HW216693   3.596   2.504   2.519 -0.7510 -2.4062 -1.4121
 2242SOL     OW16694   2.479   3.233   1.640 -0.3882  0.3731 -0.0511
 2242SOL    HW116695   2.565   3.250   1.688 -0.5294  0.4457  0.1787
 2242SOL    HW216696   2.467   3.134   1.629 -1.3013  0.2359  1.8387
 2243SOL     OW16697   1.910   0.988   2.574  0.1333 -0.5229 -0.2960
 2243SOL    HW116698   1.956   0.983   2.663  0.8006 -2.4276 -0.7338
 2243SOL    HW216699   1.865   1.077   2.565  0.8428  0.0451  1.5590
 2244SOL     OW16700   3.518   7.633   0.204 -0.8205 -0.5016  0.2629
 2244SOL    HW116701   3.553   7.674   0.120 -1.1555 -2.3530 -0.8063
 2244SOL    HW216702   3.437   7.683   0.234 -0.5646  0.3203 -0.3876
 2245SOL     OW16703   3.067   8.535   0.007  0.6192 -0.2135 -0.1699
 2245SOL    HW116704   3.091   8.447  -0.033  1.7989 -0.3272  0.7645
 2245SOL    HW216705   3.063   8.527   0.106 -3.6673 -0.2857 -0.2405
 2246SOL     OW16706   2.833   1.159   1.671 -0.0586 -0.6475  0.1954
 2246SOL    HW116707   2.757   1.202   1.720  1.4248  1.9335  0.3404
 2246SOL    HW216708   2.917   1.173   1.723  0.6410 -2.9010 -0.2896
 2247SOL     OW16709   4.270   0.544   2.769  0.4695 -0.0802 -0.3171
 2247SOL    HW116710   4.317   0.557   2.857  1.6337  5.3512 -1.5526
 2247SOL    HW216711   4.330   0.573   2.695 -1.8753 -1.0318 -2.6504
 2248SOL     OW16712   4.471   0.794   1.931  0.9599  0.1113  0.0607
 2248SOL    HW116713   4.446   0.835   2.018  1.5079  1.5032 -0.4259
 2248SOL    HW216714   4.518   0.862   1.874  1.3481 -1.0199 -0.9884
 2249SOL     OW16715   0.691   5.628   1.462 -0.2712  0.0800 -1.0876
 2249SOL    HW116716   0.591   5.617   1.457 -0.2313 -0.5251 -0.6356
 2249SOL    HW216717   0.734   5.539   1.444  0.1119 -0.2862  1.5257
 2250SOL     OW16718   1.814   6.531   1.225 -0.5785  0.0835  0.2745
 2250SOL    HW116719   1.865   6.444   1.224 -0.7246 -0.0408  1.8375
 2250SOL    HW216720   1.837   6.582   1.308 -0.0477  1.8289 -0.9172
 2251SOL     OW16721   4.317   2.317   2.361 -0.0719 -0.1767 -0.3506
 2251SOL    HW116722   4.371   2.233   2.362 -2.0369 -1.4517  0.0681
 2251SOL    HW216723   4.274   2.329   2.450 -2.0194 -0.1885 -1.2711
 2252SOL     OW16724   1.968   7.970   1.466 -0.1994  0.1618 -1.2055
 2252SOL    HW116725   2.011   8.052   1.426 -1.1935  0.3356 -1.9393
 2252SOL    HW216726   1.870   7.972   1.448 -0.1666 -1.4167 -1.6153
 2253SOL     OW16727   2.584   7.616   2.468  0.3736  0.4568 -0.5055
 2253SOL    HW116728   2.520   7.541   2.451  0.7424  0.3087 -1.2509
 2253SOL    HW216729   2.608   7.660   2.381 -0.7530  2.1987  0.0365
 2254SOL     OW16730   2.675   3.279   1.371 -0.2461 -0.1923 -0.2253
 2254SOL    HW116731   2.600   3.304   1.431  1.3300  0.5049  1.4965
 2254SOL    HW216732   2.667   3.328   1.284 -1.4620  0.2938  0.1574
 2255SOL     OW16733   3.593   2.576   2.828  0.0022  0.1865 -0.3535
 2255SOL    HW116734   3.575   2.524   2.745  1.1256  1.9288 -1.7344
 2255SOL    HW216735   3.575   2.673   2.810 -2.5797  0.2543  2.3011
 2256SOL     OW16736   3.201   4.202   0.968  0.7857  0.0138 -0.3652
 2256SOL    HW116737   3.267   4.210   0.893  1.2847 -0.8247 -0.0140
 2256SOL    HW216738   3.231   4.133   1.033  0.1353  0.4371  0.4011
 2257SOL     OW16739   1.310   7.345   2.155  0.3883  0.6745  0.3619
 2257SOL    HW116740   1.401   7.322   2.190  0.8523  3.4303  1.0587
 2257SOL    HW216741   1.248   7.362   2.231  0.0096  1.4565 -0.1132
 2258SOL     OW16742   0.975   5.407   1.629  0.1335 -0.4083  0.5850
 2258SOL    HW116743   1.015   5.488   1.586 -0.2643 -1.0580 -1.0336
 2258SOL    HW216744   0.876   5.406   1.612  0.3998 -2.1562 -0.9286
 2259SOL     OW16745   0.247   3.464   1.515  0.3544  0.0054  0.2848
 2259SOL    HW116746   0.149   3.453   1.529  0.3189  0.8290  0.7274
 2259SOL    HW216747   0.297   3.433   1.597  0.4150  0.3567  0.3821
 2260SOL     OW16748   1.359   6.546   2.743  0.0656 -0.3232  0.5232
 2260SOL    HW116749   1.321   6.537   2.650 -0.1496  0.8695  0.4923
 2260SOL    HW216750   1.290   6.583   2.804  0.3911 -0.5643  1.0434
 2261SOL     OW16751   2.950   8.226   1.065 -0.2109 -0.1677  0.4132
 2261SOL    HW116752   2.853   8.243   1.050 -0.2547  0.7435  1.6070
 2261SOL    HW216753   3.002   8.253   0.984 -0.8005  0.8415  0.3596
 2262SOL     OW16754   2.518   0.963   1.597 -0.4310 -0.5095  0.4980
 2262SOL    HW116755   2.447   0.916   1.650  1.0232 -0.2979  2.7056
 2262SOL    HW216756   2.548   1.045   1.647  1.1688 -0.4370 -0.5411
 2263SOL     OW16757   1.341   2.053   0.655  0.0741  0.1142  0.2124
 2263SOL    HW116758   1.304   1.972   0.608  0.8112  0.1352 -0.4130
 2263SOL    HW216759   1.292   2.066   0.741  1.0526 -2.0019  1.1533
 2264SOL     OW16760   3.217   8.587   1.993 -0.7174 -0.7328  0.2595
 2264SOL    HW116761   3.287   8.515   2.000  1.4073  1.4132  1.5311
 2264SOL    HW216762   3.245   8.653   1.924 -1.8941 -0.2470  0.2392
 2265SOL     OW16763   9.679   3.346   2.178 -0.5065 -0.6459 -0.8866
 2265SOL    HW116764   9.777   3.358   2.192 -0.8066  0.6759  0.1514
 2265SOL    HW216765   9.644   3.280   2.244 -0.3959 -0.7947 -0.9761
 2266SOL     OW16766   1.522   2.709   2.190 -0.4504 -0.3331 -0.0509
 2266SOL    HW116767   1.460   2.785   2.212  1.4208  0.8169  1.3975
 2266SOL    HW216768   1.586   2.738   2.119 -0.7138 -1.0883 -0.6066
 2267SOL     OW16769   3.361   0.573   2.432  0.0372  0.2800  0.3970
 2267SOL    HW116770   3.332   0.665   2.459  2.5671  0.9466  0.9095
 2267SOL    HW216771   3.365   0.514   2.513 -0.4455  0.0178  0.2344
 2268SOL     OW16772   2.645   8.996   2.505 -0.4809 -0.1382 -0.1622
 2268SOL    HW116773   2.611   9.041   2.422  0.9544  0.6764 -0.3168
 2268SOL    HW216774   2.742   9.016   2.516 -0.1881 -1.9506  0.6112
 2269SOL     OW16775   2.110   8.073   0.032  0.3618 -0.2081 -0.3924
 2269SOL    HW116776   2.085   8.107  -0.059  0.9322 -1.0244 -0.8551
 2269SOL    HW216777   2.120   8.151   0.095 -0.9322  0.2984 -0.7956
 2270SOL     OW16778   3.212   1.656   2.317  1.1154  0.3424  0.1254
 2270SOL    HW116779   3.296   1.657   2.263  1.1214 -0.2480  0.1253
 2270SOL    HW216780   3.157   1.576   2.292  1.4146 -0.2852  1.4537
 2271SOL     OW16781   3.573   8.545   0.274  0.0987  0.0830  0.3344
 2271SOL    HW116782   3.587   8.485   0.195  2.1184 -0.8785  1.4078
 2271SOL    HW216783   3.654   8.603   0.287 -0.4924  0.7055  1.3179
 2272SOL     OW16784   2.801   2.181   2.195 -0.2871  0.5051 -0.2425
 2272SOL    HW116785   2.718   2.208   2.244 -1.4827  0.6253 -2.2918
 2272SOL    HW216786   2.860   2.261   2.182  0.3004  0.3653  1.4557
 2273SOL     OW16787   4.411   1.369   2.760  0.3168  1.0363 -0.1073
 2273SOL    HW116788   4.370   1.452   2.796  0.1701  1.0954 -0.4106
 2273SOL    HW216789   4.347   1.293   2.769  1.2232  0.4905  2.1154
 2274SOL     OW16790   1.990   3.340   1.913  0.1649  0.0775 -0.5931
 2274SOL    HW116791   1.959   3.246   1.902 -1.2884  0.1804  2.2397
 2274SOL    HW216792   2.081   3.350   1.871 -0.8428 -1.8261 -3.3869
 2275SOL     OW16793   0.482   4.411   1.577 -0.5430  0.1756  0.5879
 2275SOL    HW116794   0.484   4.511   1.585 -1.0007  0.1813  0.6587
 2275SOL    HW216795   0.490   4.370   1.667 -0.1677  0.1448  0.5405
 2276SOL     OW16796   9.665   5.447   2.164  1.0632  0.0218 -0.2260
 2276SOL    HW116797   9.743   5.422   2.106  2.0841  2.5994 -0.0566
 2276SOL    HW216798   9.637   5.541   2.143  1.1703  0.8697  3.1753
 2277SOL     OW16799   2.946   6.495   0.603  0.1489 -0.0230 -0.3348
 2277SOL    HW116800   2.855   6.518   0.569  0.2736  0.6395 -0.2268
 2277SOL    HW216801   2.952   6.516   0.700  0.3876 -0.1553 -0.3206
 2278SOL     OW16802   1.615   5.685   1.860 -0.6107  0.4178  0.6812
 2278SOL    HW116803   1.591   5.678   1.957 -2.0430  1.3107  0.4094
 2278SOL    HW216804   1.596   5.777   1.827  1.5960  0.6584 -0.0147
 2279SOL     OW16805   1.394   3.013   1.602 -1.0446  0.6194  0.3446
 2279SOL    HW116806   1.358   3.035   1.692  0.3784 -0.8164  1.2987
 2279SOL    HW216807   1.341   2.939   1.562  0.2430 -0.9047  1.3819
 2280SOL     OW16808   3.387   2.319   1.120  0.2001  0.2721  0.2990
 2280SOL    HW116809   3.432   2.238   1.158 -0.6221 -0.8073 -0.9752
 2280SOL    HW216810   3.411   2.399   1.174  1.5666 -0.7152  1.1830
 2281SOL     OW16811   0.870   5.746   1.608 -0.4236 -0.0361  0.0208
 2281SOL    HW116812   0.947   5.702   1.561  0.5384  1.5496  0.0730
 2281SOL    HW216813   0.784   5.714   1.568  0.2939 -1.1325 -0.6613
 2282SOL     OW16814   2.743   8.553   0.489 -0.0876 -0.2222  0.1008
 2282SOL    HW116815   2.776   8.639   0.528 -0.6042 -0.3969  0.9462
 2282SOL    HW216816   2.820   8.496   0.463  0.2918 -0.3723  1.4928
 2283SOL     OW16817   4.374   2.255   0.635  0.7991 -0.0180  0.0491
 2283SOL    HW116818   4.473   2.266   0.645  0.7246  0.1156  0.6443
 2283SOL    HW216819   4.328   2.302   0.710  0.3285 -1.2104  0.5070
 2284SOL     OW16820   9.955   3.111   2.309 -0.0172  0.2168 -0.4089
 2284SOL    HW116821  10.025   3.102   2.380  0.2699  0.5684 -0.6444
 2284SOL    HW216822   9.865   3.095   2.349 -0.1298  3.1016  0.6748
 2285SOL     OW16823   3.391   5.219   2.670 -0.0134 -0.1592  0.0529
 2285SOL    HW116824   3.441   5.178   2.594 -2.9827 -2.5770 -0.6822
 2285SOL    HW216825   3.409   5.168   2.753 -0.2482 -0.2305  0.0594
 2286SOL     OW16826   3.551   1.248   0.784  0.3629  0.1925 -0.3625
 2286SOL    HW116827   3.484   1.260   0.856  1.6084  0.4054  0.7866
 2286SOL    HW216828   3.639   1.287   0.813  0.9041  0.2158 -1.9538
 2287SOL     OW16829   3.168   2.156   1.258 -0.0958 -0.1549 -0.4928
 2287SOL    HW116830   3.131   2.089   1.323  0.5054  0.4823  0.5135
 2287SOL    HW216831   3.192   2.109   1.173  0.2269 -1.2134  0.1714
 2288SOL     OW16832   2.259   5.082   0.227 -0.5256 -0.0667 -0.4853
 2288SOL    HW116833   2.320   5.108   0.152 -0.5937 -0.9229 -0.8448
 2288SOL    HW216834   2.254   5.156   0.294 -0.3348  0.6274 -1.2471
 2289SOL     OW16835   2.889   3.668   0.836  0.2189  0.3288 -0.1992
 2289SOL    HW116836   2.943   3.677   0.752 -0.9777 -0.0758 -1.0251
 2289SOL    HW216837   2.898   3.576   0.872  2.5924  1.1472  1.4304
 2290SOL     OW16838   1.991   1.328   0.534  0.4180  0.2473 -0.1631
 2290SOL    HW116839   1.983   1.278   0.621  0.1615 -1.7912 -1.3366
 2290SOL    HW216840   1.924   1.294   0.469  1.3833  0.9503 -1.5588
 2291SOL     OW16841   4.030   3.347   1.245  0.2230  0.0616 -0.7055
 2291SOL    HW116842   4.068   3.265   1.288  0.2185  0.6192  0.3919
 2291SOL    HW216843   4.072   3.361   1.155 -0.9304 -2.0119 -1.5854
 2292SOL     OW16844   2.691   9.342   0.087  0.2725  0.2168 -0.3340
 2292SOL    HW116845   2.619   9.274   0.105 -1.4031  1.9301 -0.3881
 2292SOL    HW216846   2.735   9.322   0.000 -1.4565  0.2332 -1.2413
 2293SOL     OW16847   3.197   8.097   1.673 -0.4928 -0.0456  0.2355
 2293SOL    HW116848   3.227   8.117   1.580  1.1488 -1.7995  0.3655
 2293SOL    HW216849   3.099   8.073   1.671 -0.7834  1.1532 -0.8326
 2294SOL     OW16850   4.373   2.557   0.269  0.4617  0.4568 -0.1612
 2294SOL    HW116851   4.390   2.638   0.324 -0.1629  0.0313  0.6770
 2294SOL    HW216852   4.274   2.541   0.262  0.4557  1.3003 -2.5941
 2295SOL     OW16853   2.419   3.134   1.048  0.0666 -0.2237 -0.1772
 2295SOL    HW116854   2.327   3.107   1.022  0.0856 -0.7410  0.2876
 2295SOL    HW216855   2.422   3.233   1.063 -0.6710 -0.3654  0.9071
 2296SOL     OW16856   3.317   3.338   1.172  0.2876 -0.1163  0.2642
 2296SOL    HW116857   3.364   3.281   1.239 -0.8750 -0.6966  0.5824
 2296SOL    HW216858   3.232   3.294   1.143 -0.3581  1.2014  0.1148
 2297SOL     OW16859   9.778   3.292   0.406 -0.1986  1.0911  0.3294
 2297SOL    HW116860   9.784   3.275   0.307  1.6058 -1.5868  0.8453
 2297SOL    HW216861   9.825   3.377   0.428  2.3865 -0.0117 -0.7408
 2298SOL     OW16862   1.485   6.411   0.849  0.4805 -0.4771 -0.3349
 2298SOL    HW116863   1.565   6.470   0.866  0.2316 -0.4770  0.8707
 2298SOL    HW216864   1.416   6.462   0.799  0.8932 -0.2170 -0.6437
 2299SOL     OW16865   1.515   6.465   1.953 -0.6750 -0.0104 -0.4160
 2299SOL    HW116866   1.545   6.560   1.957 -0.4465 -0.0348 -1.4439
 2299SOL    HW216867   1.477   6.446   1.863  1.3393 -1.5198 -0.9788
 2300SOL     OW16868   1.722   7.273   1.320  0.1438 -0.3181  0.1570
 2300SOL    HW116869   1.675   7.199   1.369 -1.9263 -0.3862 -1.8395
 2300SOL    HW216870   1.660   7.313   1.252  2.8959 -0.1642 -2.3650
 2301SOL     OW16871   3.520   1.318   0.512  0.6726  0.3531  0.8457
 2301SOL    HW116872   3.553   1.301   0.605  0.4264 -0.2128  0.8293
 2301SOL    HW216873   3.432   1.367   0.518  1.3010  1.4929  0.8921
 2302SOL     OW16874   3.661   1.810   0.940  0.3367 -0.0687  0.3436
 2302SOL    HW116875   3.654   1.910   0.933 -0.9056 -0.0758  1.2002
 2302SOL    HW216876   3.756   1.784   0.953  1.0602  0.7939 -2.8192
 2303SOL     OW16877   1.636   2.468   2.299 -0.2194  0.1429  0.0268
 2303SOL    HW116878   1.607   2.548   2.246 -0.8628 -1.2132 -1.7252
 2303SOL    HW216879   1.726   2.438   2.267 -0.6866 -0.7863 -0.4465
 2304SOL     OW16880   2.556   6.902   2.363 -0.5445  0.6159  0.0276
 2304SOL    HW116881   2.542   6.937   2.270  0.9827  0.5177 -0.2636
 2304SOL    HW216882   2.606   6.970   2.417 -1.0905  0.5154  0.6597
 2305SOL     OW16883   0.876   5.677   0.110 -0.1542  0.7812 -0.2738
 2305SOL    HW116884   0.853   5.774   0.103  1.0853  1.1238  0.1263
 2305SOL    HW216885   0.960   5.659   0.058 -1.6271 -0.5486 -2.2906
 2306SOL     OW16886   1.229   4.078   0.790 -0.7285 -0.1100  0.5282
 2306SOL    HW116887   1.175   4.102   0.710 -2.8208  0.2672  2.0074
 2306SOL    HW216888   1.169   4.039   0.860  1.4417 -2.6763  1.0223
 2307SOL     OW16889   2.865   3.738   2.129 -0.4979 -0.6263 -0.0384
 2307SOL    HW116890   2.942   3.802   2.125 -2.1502  1.3391 -1.6583
 2307SOL    HW216891   2.849   3.711   2.224  0.1261  1.4919  0.6904
 2308SOL     OW16892   1.809   5.867   1.201  0.6332 -0.7329 -0.2468
 2308SOL    HW116893   1.829   5.886   1.105  0.1970 -1.3483 -0.4611
 2308SOL    HW216894   1.878   5.805   1.238  0.4794 -0.9496 -0.3225
 2309SOL     OW16895   3.290   4.606   2.419  0.0045  0.0845  0.0014
 2309SOL    HW116896   3.389   4.599   2.405 -0.1912 -2.5549 -0.4682
 2309SOL    HW216897   3.266   4.565   2.507 -0.7389  0.0970 -0.1928
 2310SOL     OW16898   0.065   5.262   0.135  0.0047 -0.3365  0.0748
 2310SOL    HW116899   0.071   5.351   0.090  0.5803  0.0562  0.9268
 2310SOL    HW216900   0.027   5.195   0.071  1.7136 -0.0021 -1.3353
 2311SOL     OW16901   2.981   9.102   2.294 -0.4423  0.2877  0.4724
 2311SOL    HW116902   3.023   9.035   2.233 -1.0360  2.0120 -1.8768
 2311SOL    HW216903   3.038   9.185   2.297 -0.7408  0.4503  1.7659
 2312SOL     OW16904   3.749   9.832   1.133  0.8239 -0.4820  0.2918
 2312SOL    HW116905   3.739   9.891   1.214  0.3919 -0.1101 -0.0294
 2312SOL    HW216906   3.711   9.742   1.152 -0.1390 -0.1021  0.1900
 2313SOL     OW16907   1.649   3.844   2.705  0.5432 -0.3450 -0.8761
 2313SOL    HW116908   1.687   3.913   2.643  0.9396  0.4342  0.2149
 2313SOL    HW216909   1.704   3.761   2.701  1.3667  0.1867 -0.5550
 2314SOL     OW16910   1.572   3.003   2.485 -0.5210  0.1175 -0.4116
 2314SOL    HW116911   1.555   3.013   2.583 -1.2889 -1.9125 -0.3038
 2314SOL    HW216912   1.490   3.033   2.434 -0.8826 -0.7381 -0.3358
 2315SOL     OW16913   3.095   1.141   1.780  0.8175  0.2661  0.1757
 2315SOL    HW116914   3.180   1.124   1.731  1.2001  0.1291  0.8835
 2315SOL    HW216915   3.099   1.232   1.822  0.0398  0.8471 -0.9757
 2316SOL     OW16916   3.321   2.435   1.786 -0.5654 -0.0911 -0.3966
 2316SOL    HW116917   3.268   2.519   1.799  1.6127  1.0882  1.1414
 2316SOL    HW216918   3.310   2.404   1.692 -0.6891  2.4535 -1.2774
 2317SOL     OW16919   1.980   8.197   0.697  0.2152 -0.2374  0.1178
 2317SOL    HW116920   1.984   8.220   0.600  0.7695 -2.1590 -0.3361
 2317SOL    HW216921   2.035   8.262   0.750 -1.2239  1.6694 -0.6670
 2318SOL     OW16922   0.151   2.473   0.478  0.1891  0.1397 -0.3971
 2318SOL    HW116923   0.207   2.394   0.452 -1.2496 -0.3146 -2.2104
 2318SOL    HW216924   0.202   2.557   0.462  1.2220 -0.3545  0.2236
 2319SOL     OW16925   3.799   8.171   1.394 -0.0659  0.3468 -0.1354
 2319SOL    HW116926   3.721   8.210   1.444  0.5497  2.1376 -0.5597
 2319SOL    HW216927   3.874   8.156   1.458 -0.8672 -1.7978  0.3639
 2320SOL     OW16928   2.839   9.763   0.171 -0.3026  0.0483  0.0653
 2320SOL    HW116929   2.891   9.826   0.112 -0.1903 -0.2065 -0.1090
 2320SOL    HW216930   2.890   9.748   0.256 -1.1212  1.5262  0.8486
 2321SOL     OW16931   2.664   4.691   1.030 -0.7861  0.0602  0.1355
 2321SOL    HW116932   2.700   4.692   0.937  0.2294  1.7080  0.5268
 2321SOL    HW216933   2.582   4.748   1.035 -0.2115  0.8643  0.4832
 2322SOL     OW16934   2.795   3.400   0.063 -0.2341  0.3205 -0.1773
 2322SOL    HW116935   2.714   3.390   0.004  0.1127 -0.5585 -0.5094
 2322SOL    HW216936   2.770   3.374   0.156 -0.4513  0.4577 -0.1960
 2323SOL     OW16937   3.053   5.705   0.894  0.0335 -0.2617  0.5166
 2323SOL    HW116938   3.055   5.656   0.806 -0.6460 -0.2018  0.4708
 2323SOL    HW216939   2.994   5.656   0.958  1.6043 -1.0512  1.3866
 2324SOL     OW16940   4.334   3.638   1.786 -0.2678 -0.4356  0.5612
 2324SOL    HW116941   4.389   3.645   1.703 -0.5813  1.1235  0.4630
 2324SOL    HW216942   4.237   3.649   1.762 -0.3978 -0.4581  1.0677
 2325SOL     OW16943   1.687   5.409   1.321  0.4598  0.4330 -0.0751
 2325SOL    HW116944   1.639   5.370   1.400  0.5028 -1.3392 -0.9091
 2325SOL    HW216945   1.641   5.493   1.292 -2.1407 -1.1824 -0.8064
 2326SOL     OW16946   3.577   1.177   2.478 -0.9703 -0.4686  0.4730
 2326SOL    HW116947   3.606   1.253   2.536 -2.2835  1.1049 -0.8895
 2326SOL    HW216948   3.622   1.093   2.509  0.4054  0.8148  2.0848
 2327SOL     OW16949   0.592   4.341   0.701 -0.5753  0.0272 -0.3212
 2327SOL    HW116950   0.534   4.414   0.663 -0.3110  0.3605 -0.0809
 2327SOL    HW216951   0.562   4.321   0.794  0.9508  1.5590  0.5103
 2328SOL     OW16952   3.916   9.322   2.497  0.3733 -0.0151 -0.4744
 2328SOL    HW116953   3.863   9.243   2.527  1.9878 -0.7727  0.4607
 2328SOL    HW216954   3.904   9.397   2.562 -0.2432  0.1104 -0.7353
 2329SOL     OW16955   1.298   2.590   0.550  0.4488  0.2811  0.0059
 2329SOL    HW116956   1.326   2.499   0.581  0.6153  1.0756  2.2684
 2329SOL    HW216957   1.345   2.660   0.605 -0.0584  1.7306 -1.3686
 2330SOL     OW16958   1.483   1.492   0.165  0.1444 -0.3391 -0.8582
 2330SOL    HW116959   1.526   1.546   0.092 -1.5237  1.7206 -0.3741
 2330SOL    HW216960   1.438   1.413   0.124 -0.2263  0.4418 -2.0129
 2331SOL     OW16961   1.306   4.718   1.959 -0.4697  0.0025 -0.2656
 2331SOL    HW116962   1.396   4.759   1.944 -0.8816  0.4506 -1.6220
 2331SOL    HW216963   1.238   4.790   1.969 -0.6730 -0.3364  0.8783
 2332SOL     OW16964   1.130   4.474   0.431 -0.1269 -0.6809 -0.0816
 2332SOL    HW116965   1.117   4.375   0.443 -1.5973 -0.5153 -0.1604
 2332SOL    HW216966   1.041   4.519   0.433  0.5415  0.6510 -0.0433
 2333SOL     OW16967   9.443   5.731   0.189  0.0896 -0.4742  0.0841
 2333SOL    HW116968   9.467   5.657   0.251 -0.1072 -1.5545 -1.1099
 2333SOL    HW216969   9.522   5.793   0.180  0.0085 -0.1476  1.6296
 2334SOL     OW16970   1.063   3.693   0.207 -0.4849  0.2025  0.2493
 2334SOL    HW116971   0.977   3.707   0.158 -0.8489  0.6892  1.0276
 2334SOL    HW216972   1.135   3.750   0.165 -1.0820  1.5721  1.0347
 2335SOL     OW16973   3.117   3.114   1.641 -0.0701 -0.0037 -0.5471
 2335SOL    HW116974   3.059   3.033   1.652 -0.5008  0.3367 -0.3086
 2335SOL    HW216975   3.072   3.180   1.581  0.0744  0.2598 -0.3685
 2336SOL     OW16976   0.605   3.043   0.857  0.1542  0.0634 -0.4387
 2336SOL    HW116977   0.696   3.005   0.837 -0.0288 -1.2442  1.0908
 2336SOL    HW216978   0.611   3.099   0.940 -0.3491  0.3331 -0.5844
 2337SOL     OW16979   3.368   7.687   0.717  0.1849  0.2186  0.9631
 2337SOL    HW116980   3.431   7.761   0.695  1.7643 -0.9920  1.3808
 2337SOL    HW216981   3.417   7.600   0.721 -1.9082 -1.1113 -1.0422
 2338SOL     OW16982   2.419   6.636   2.152 -0.2567  0.0602 -0.6975
 2338SOL    HW116983   2.450   6.607   2.243  1.0990  2.9065 -0.2041
 2338SOL    HW216984   2.497   6.641   2.090 -0.8328  0.3147 -1.4146
 2339SOL     OW16985   2.990   6.706   0.413 -0.0044 -0.4013  0.4219
 2339SOL    HW116986   3.047   6.785   0.431  2.3158 -2.1439  0.9844
 2339SOL    HW216987   3.019   6.630   0.471 -1.6436 -1.9226 -0.6786
 2340SOL     OW16988   1.794   6.749   2.371  0.2744 -0.0390 -0.5864
 2340SOL    HW116989   1.888   6.746   2.405 -0.1190  1.6544  0.7322
 2340SOL    HW216990   1.737   6.802   2.434 -1.8484 -2.0735 -0.7160
 2341SOL     OW16991   3.276   4.418   1.660 -0.1106  0.1571  0.0036
 2341SOL    HW116992   3.210   4.346   1.682  0.3473 -0.6888 -1.3777
 2341SOL    HW216993   3.344   4.424   1.733 -1.0685  0.2923  0.9000
 2342SOL     OW16994   2.616   6.242   1.472 -0.6407 -0.2646 -0.1133
 2342SOL    HW116995   2.622   6.146   1.499 -0.8437 -0.4904 -0.8555
 2342SOL    HW216996   2.657   6.253   1.381  4.8977  1.3705  2.3556
 2343SOL     OW16997   2.813   3.954   2.373 -0.0609 -0.2878  0.3358
 2343SOL    HW116998   2.778   3.933   2.465 -0.2987  1.5705  0.6896
 2343SOL    HW216999   2.899   4.003   2.381  0.4163 -0.9807 -0.4739
 2344SOL     OW17000   1.833   6.778   0.913 -0.3102  0.3912 -0.1354
 2344SOL    HW117001   1.810   6.843   0.841 -0.3238 -0.3776 -0.8283
 2344SOL    HW217002   1.759   6.776   0.981  0.6422  2.6481  1.0066
 2345SOL     OW17003   2.632   8.879   1.544  0.0974 -0.2116  0.3116
 2345SOL    HW117004   2.595   8.900   1.634 -3.7284 -1.0041 -0.9740
 2345SOL    HW217005   2.614   8.783   1.523 -0.1440  0.2672 -1.7569
 2346SOL     OW17006   0.055   5.102   1.495 -0.2474  0.1542  0.3204
 2346SOL    HW117007   0.143   5.056   1.484  1.3339  2.2940  3.2236
 2346SOL    HW217008   0.014   5.077   1.583  0.2272  3.4619  1.5540
 2347SOL     OW17009   3.207   8.846   1.156 -0.4040 -0.3794  0.1896
 2347SOL    HW117010   3.197   8.771   1.222  1.4736 -2.5800 -1.9088
 2347SOL    HW217011   3.187   8.933   1.201 -1.5076 -2.0171  3.0079
 2348SOL     OW17012   3.491   7.887   2.635  0.4051  1.0192 -0.3532
 2348SOL    HW117013   3.395   7.860   2.634  0.6816 -0.0025 -1.6790
 2348SOL    HW217014   3.517   7.920   2.544  1.5276  0.4528 -0.2418
 2349SOL     OW17015   3.569   2.715   2.218 -0.2737 -0.4432 -0.3874
 2349SOL    HW117016   3.512   2.708   2.299 -1.9033  1.3790 -1.3258
 2349SOL    HW217017   3.532   2.655   2.146 -0.1145 -0.3952 -0.5101
 2350SOL     OW17018   4.494   3.159   0.002 -0.5553 -0.5499 -0.0558
 2350SOL    HW117019   4.577   3.105   0.016 -0.1505  0.1938  0.4444
 2350SOL    HW217020   4.519   3.253  -0.019 -1.2765 -0.1040  1.0275
 2351SOL     OW17021   2.069   2.830   0.852 -0.1236 -0.2975 -0.3192
 2351SOL    HW117022   1.998   2.853   0.919  0.1316  2.2653 -0.8779
 2351SOL    HW217023   2.111   2.743   0.877 -1.1211 -0.1678  1.9441
 2352SOL     OW17024   1.741   2.357   1.285 -0.3626  0.0370 -0.2866
 2352SOL    HW117025   1.738   2.257   1.275 -0.8527  0.0613 -0.4020
 2352SOL    HW217026   1.686   2.400   1.213  1.8846  0.4989 -1.7433
 2353SOL     OW17027   3.399   8.498   2.315  0.4170 -0.3745  0.2179
 2353SOL    HW117028   3.339   8.570   2.351  0.4589  0.3130 -1.0478
 2353SOL    HW217029   3.352   8.447   2.243  0.2124 -1.9583  1.4466
 2354SOL     OW17030   1.195   1.783   1.838 -0.1932  0.3768  0.1124
 2354SOL    HW117031   1.294   1.789   1.830 -0.1482  0.0151  0.3828
 2354SOL    HW217032   1.159   1.868   1.876 -0.1167  0.9889 -1.1445
 2355SOL     OW17033   0.798   4.741   2.746 -0.0035 -0.4027 -0.2126
 2355SOL    HW117034   0.761   4.754   2.838 -0.5124  2.3624 -0.7530
 2355SOL    HW217035   0.722   4.730   2.682  0.2822 -0.5274 -0.5285
 2356SOL     OW17036   2.488   3.750   1.962  0.2251  0.8804  0.1563
 2356SOL    HW117037   2.402   3.714   1.927 -0.3002  0.7862  1.5125
 2356SOL    HW217038   2.509   3.836   1.917 -0.7814  1.0982  0.0899
 2357SOL     OW17039   0.619   3.052   1.687 -0.6959  0.4849 -0.4397
 2357SOL    HW117040   0.555   2.980   1.659 -0.7506  0.4379 -0.1952
 2357SOL    HW217041   0.619   3.059   1.787  1.9443 -1.5977 -0.2368
 2358SOL     OW17042   4.767   4.077   0.190 -0.5434  0.1253  0.3447
 2358SOL    HW117043   4.738   3.987   0.223  3.7661 -1.5804 -0.1981
 2358SOL    HW217044   4.835   4.115   0.252 -1.3361  2.4345 -0.1535
 2359SOL     OW17045   2.995   4.216   2.660  0.6751 -0.5689  0.0679
 2359SOL    HW117046   2.948   4.274   2.593  1.4109 -1.1565 -0.9779
 2359SOL    HW217047   2.963   4.122   2.650  0.5546 -0.5995  0.7636
 2360SOL     OW17048   2.145   1.106   2.733  0.2452  0.1458 -0.5668
 2360SOL    HW117049   2.121   1.194   2.692  1.2349  0.8072  0.2197
 2360SOL    HW217050   2.220   1.064   2.681 -0.0649 -0.1090 -0.8026
 2361SOL     OW17051   1.886   6.694   1.462  0.4749  0.1157  0.4599
 2361SOL    HW117052   1.899   6.785   1.423  3.3358  0.1139  1.2437
 2361SOL    HW217053   1.975   6.648   1.467 -0.7611 -2.2679  1.1809
 2362SOL     OW17054   3.137   1.825   0.357 -0.8545 -0.4124 -0.0726
 2362SOL    HW117055   3.078   1.764   0.409 -0.8700 -1.1126 -0.9057
 2362SOL    HW217056   3.201   1.772   0.302  0.3682  0.3443  0.6074
 2363SOL     OW17057   1.232   3.421   2.797  0.0980  0.2833 -0.2353
 2363SOL    HW117058   1.218   3.510   2.753  0.0459  0.1040 -0.5813
 2363SOL    HW217059   1.319   3.422   2.845  0.1340  0.4969 -0.3011
 2364SOL     OW17060   9.774   2.683   1.188 -0.9273  0.2003 -0.1753
 2364SOL    HW117061   9.805   2.647   1.101  1.9149  0.4630  0.6939
 2364SOL    HW217062   9.764   2.783   1.182  1.8959  0.5767  0.4934
 2365SOL     OW17063   2.466   3.114   2.379  0.2128  0.3413  0.3080
 2365SOL    HW117064   2.495   3.205   2.350 -0.3197  0.6979  0.8991
 2365SOL    HW217065   2.368   3.103   2.361  0.2246 -0.0293  0.4638
 2366SOL     OW17066   0.142   5.502   0.005 -0.1467  0.1330 -0.5207
 2366SOL    HW117067   0.239   5.526  -0.002 -0.2413  0.1665 -1.8165
 2366SOL    HW217068   0.105   5.537   0.092  1.1180 -0.3329  0.2057
 2367SOL     OW17069   2.099   3.608   2.162 -0.1550 -0.0222 -0.1227
 2367SOL    HW117070   2.137   3.664   2.235 -0.7727 -0.3669  0.4651
 2367SOL    HW217071   2.007   3.639   2.140 -0.1710 -0.2561 -0.3965
 2368SOL     OW17072   0.274   2.930   0.037  0.1601 -0.6874 -0.0206
 2368SOL    HW117073   0.319   3.008  -0.007  0.7643 -0.1821  1.4370
 2368SOL    HW217074   0.325   2.847   0.016 -0.1689 -0.6128 -1.1347
 2369SOL     OW17075   1.715   7.066   1.641  0.1716 -0.5105  0.1157
 2369SOL    HW117076   1.761   7.154   1.634 -0.2483 -0.2650  0.4181
 2369SOL    HW217077   1.647   7.059   1.568  2.1472 -1.7537 -1.6697
 2370SOL     OW17078   3.021   3.785   2.539 -0.1951 -0.0536 -0.0925
 2370SOL    HW117079   2.960   3.753   2.611  1.3098 -0.3102  1.1000
 2370SOL    HW217080   3.115   3.788   2.574  0.8071 -1.6687 -2.4703
 2371SOL     OW17081   4.068   0.734   2.701  0.2994  0.0125 -0.1414
 2371SOL    HW117082   4.116   0.821   2.702 -0.3309  0.3676 -0.2281
 2371SOL    HW217083   4.129   0.661   2.731  0.0336  0.8825  2.6037
 2372SOL     OW17084   1.886   8.391   0.456  0.2788  0.1270 -0.5130
 2372SOL    HW117085   1.797   8.433   0.439  1.0060  1.7121 -0.4669
 2372SOL    HW217086   1.922   8.354   0.370 -0.4301 -0.5389 -0.5253
 2373SOL     OW17087   3.279   9.246   1.032 -0.0977 -0.4053 -0.1857
 2373SOL    HW117088   3.190   9.208   1.008 -0.8413 -0.0586  1.8913
 2373SOL    HW217089   3.345   9.224   0.960 -1.8639 -0.5914 -1.7862
 2374SOL     OW17090   9.999   4.709   1.045 -0.1963 -0.8281  0.2521
 2374SOL    HW117091   9.963   4.619   1.019 -0.4613 -0.2776 -1.4018
 2374SOL    HW217092  10.006   4.766   0.963  0.1658  0.5884  1.2528
 2375SOL     OW17093   1.891   1.883   0.608 -0.1521 -0.1228  0.6381
 2375SOL    HW117094   1.958   1.916   0.674  1.4093 -0.0457 -0.9401
 2375SOL    HW217095   1.902   1.785   0.595  0.8462  0.1787 -0.9205
 2376SOL     OW17096   1.234   2.527   1.346 -0.2666 -0.4330 -0.2437
 2376SOL    HW117097   1.199   2.605   1.294  0.8234 -0.3205 -0.8262
 2376SOL    HW217098   1.158   2.464   1.366 -1.3401  1.2387  1.0959
 2377SOL     OW17099   1.439   6.803   1.442  0.0704 -0.0584 -0.3364
 2377SOL    HW117100   1.349   6.811   1.485  0.1116  0.2482 -0.3013
 2377SOL    HW217101   1.507   6.776   1.510 -0.1473 -1.1462 -0.5416
 2378SOL     OW17102   9.992   3.508   2.712 -0.6772 -0.1546  0.6463
 2378SOL    HW117103   9.905   3.466   2.685 -0.6436 -1.2225  2.1568
 2378SOL    HW217104   9.978   3.562   2.795 -0.0164  0.1425  0.5657
 2379SOL     OW17105   2.161   8.485   0.613  0.2966  0.1157 -0.4676
 2379SOL    HW117106   2.073   8.486   0.565 -1.3177  2.5121  2.4196
 2379SOL    HW217107   2.235   8.481   0.546 -1.9580 -0.3145 -3.0079
 2380SOL     OW17108   4.469   1.184   2.415 -0.0157  0.1997  0.0068
 2380SOL    HW117109   4.421   1.265   2.381 -0.0844  0.1913  0.0838
 2380SOL    HW217110   4.544   1.213   2.475  1.3782  0.3037 -1.7452
 2381SOL     OW17111   4.196   0.770   1.178 -0.2223  0.0699 -0.1626
 2381SOL    HW117112   4.252   0.743   1.257  0.8758  0.8007 -0.6730
 2381SOL    HW217113   4.195   0.869   1.170 -2.2019  0.1063  0.2509
 2382SOL     OW17114   9.049   5.280   0.202 -0.3489  0.4399  0.6255
 2382SOL    HW117115   9.140   5.313   0.179 -0.2293 -0.5844 -0.4656
 2382SOL    HW217116   8.983   5.311   0.133 -0.7217  0.6742  1.0807
 2383SOL     OW17117   2.864   6.038   0.276 -0.4956  0.1482  0.4309
 2383SOL    HW117118   2.856   6.062   0.372  1.2922 -1.0354  0.9009
 2383SOL    HW217119   2.951   6.072   0.239 -1.6245  1.5021 -1.0567
 2384SOL     OW17120   9.091   5.225   2.522 -0.1643  0.3339  0.2288
 2384SOL    HW117121   9.179   5.179   2.508 -0.2264  0.5366 -0.8382
 2384SOL    HW217122   9.020   5.177   2.471 -0.7868 -0.1730  1.5590
 2385SOL     OW17123   1.636   6.257   2.394  0.5114 -0.2358  0.1511
 2385SOL    HW117124   1.564   6.315   2.355 -0.4162 -1.3217  0.2124
 2385SOL    HW217125   1.684   6.209   2.321  0.3179 -0.4956  0.1946
 2386SOL     OW17126   2.076   2.649   2.795  0.3104  0.4790 -0.3819
 2386SOL    HW117127   2.083   2.657   2.695  0.7391  0.2969 -0.3670
 2386SOL    HW217128   2.134   2.574   2.827 -0.1106  0.2972 -0.0318
 2387SOL     OW17129   2.665   2.434   1.006  0.3073 -0.2284 -0.3422
 2387SOL    HW117130   2.704   2.422   0.914  0.4463 -0.7229 -0.2208
 2387SOL    HW217131   2.731   2.403   1.074  0.7391  1.4342 -0.0038
 2388SOL     OW17132   3.897   0.989   1.865  0.4411 -0.3270 -0.2829
 2388SOL    HW117133   3.929   0.898   1.893  0.1655 -1.0063 -2.1291
 2388SOL    HW217134   3.944   1.059   1.918  2.8997 -1.4207 -0.9880
 2389SOL     OW17135   1.680   7.012   1.168  0.4004  0.0595 -0.4974
 2389SOL    HW117136   1.778   7.035   1.171  1.1549 -2.9545  0.3315
 2389SOL    HW217137   1.670   6.914   1.151 -2.4076 -0.3829  3.0334
 2390SOL     OW17138   2.422   2.736   0.593 -0.6111  0.0781  0.3220
 2390SOL    HW117139   2.443   2.658   0.652  0.3888  0.0349 -0.0817
 2390SOL    HW217140   2.323   2.743   0.581 -0.7394 -0.7727  0.8376
 2391SOL     OW17141   1.748   4.823   1.351  0.8355 -0.0539  0.0523
 2391SOL    HW117142   1.680   4.875   1.404  0.0968 -2.2694  1.3618
 2391SOL    HW217143   1.708   4.735   1.324  3.2590 -1.5076  1.0691
 2392SOL     OW17144   1.826   3.621   2.764  0.2075  0.3843  0.2259
 2392SOL    HW117145   1.787   3.529   2.767  0.4109  0.3586  2.8715
 2392SOL    HW217146   1.925   3.614   2.752  0.2726  0.2489  0.8363
 2393SOL     OW17147   2.514   4.783   0.088  0.2397 -0.0573 -0.0315
 2393SOL    HW117148   2.572   4.765   0.167  1.2145  3.1383  0.0262
 2393SOL    HW217149   2.418   4.773   0.114  0.4968  2.2185  1.9429
 2394SOL     OW17150   4.852   2.632   1.410 -0.2618  0.4350  0.2246
 2394SOL    HW117151   4.913   2.589   1.477  0.5755  0.6905 -0.3567
 2394SOL    HW217152   4.842   2.572   1.331 -2.3594 -0.4869  1.1475
 2395SOL     OW17153   3.013   0.547   0.628  0.1342 -0.0154  0.1277
 2395SOL    HW117154   2.969   0.632   0.657 -0.2604  0.9178 -3.0172
 2395SOL    HW217155   3.109   0.565   0.605 -0.1910 -0.1789 -1.4355
 2396SOL     OW17156   2.477   5.986   0.327  0.3270 -0.5477  0.7231
 2396SOL    HW117157   2.515   6.073   0.297 -0.5621 -0.1766  0.6729
 2396SOL    HW217158   2.505   5.914   0.263  1.1694 -0.3309  0.8382
 2397SOL     OW17159   3.195   9.401   1.762  0.3234  0.0882  0.0648
 2397SOL    HW117160   3.165   9.482   1.710  3.7823  0.3975 -1.5932
 2397SOL    HW217161   3.214   9.326   1.699  2.3873 -0.2762  1.0968
 2398SOL     OW17162   2.844   7.066   0.514 -0.3888  0.0310 -0.2013
 2398SOL    HW117163   2.894   7.093   0.431 -0.0705 -0.2628 -0.1064
 2398SOL    HW217164   2.859   7.134   0.586 -0.6012  0.2452 -0.3599
 2399SOL     OW17165   7.373   0.048   1.084  0.5591  0.5077  0.2656
 2399SOL    HW117166   7.431  -0.022   1.041  2.6649  1.5523  1.3315
 2399SOL    HW217167   7.403   0.062   1.178 -2.8186 -0.4250  1.5381
 2400SOL     OW17168   3.462   4.433   1.217 -0.1168 -0.0266 -0.0397
 2400SOL    HW117169   3.429   4.348   1.257 -0.7684  0.4439  0.4238
 2400SOL    HW217170   3.555   4.419   1.182 -0.1364 -0.8646  0.2289
 2401SOL     OW17171   9.410   4.261   0.511  0.3935 -0.5521  0.6896
 2401SOL    HW117172   9.503   4.298   0.508  1.1063 -2.0292  2.8460
 2401SOL    HW217173   9.375   4.269   0.604 -0.6810 -2.2483  0.4541
 2402SOL     OW17174   0.932   5.506   0.316 -0.4737  0.2797 -0.2641
 2402SOL    HW117175   1.030   5.488   0.308 -0.1365  1.9336 -0.1086
 2402SOL    HW217176   0.902   5.560   0.237 -1.2444 -0.1660 -0.2732
 2403SOL     OW17177   8.884   4.303   0.393  0.1083  0.6255  0.3018
 2403SOL    HW117178   8.940   4.220   0.401  0.4351  0.7906 -0.2036
 2403SOL    HW217179   8.826   4.295   0.312 -2.9072 -0.9043  2.5444
 2404SOL     OW17180   3.835   9.969   0.921  0.2190 -0.1703  0.0671
 2404SOL    HW117181   3.905   9.898   0.923 -0.9474 -1.3639 -0.7262
 2404SOL    HW217182   3.772   9.955   0.998  0.6221  0.6586  0.5471
 2405SOL     OW17183   0.132   4.748   0.396 -0.5503 -0.1815  0.3537
 2405SOL    HW117184   0.062   4.815   0.372  0.1902  0.5912  0.3398
 2405SOL    HW217185   0.222   4.789   0.386 -0.0804 -1.2567  0.1166
 2406SOL     OW17186   3.421   3.148   1.348 -0.2664  0.0146  0.1700
 2406SOL    HW117187   3.337   3.093   1.346 -0.3955  0.2314 -0.2905
 2406SOL    HW217188   3.459   3.146   1.441 -1.7165  1.3448  0.8103
 2407SOL     OW17189   0.783   1.947   0.223  0.2116  0.5481  0.1188
 2407SOL    HW117190   0.845   1.903   0.158  1.2633  1.6113  0.3869
 2407SOL    HW217191   0.688   1.928   0.196  0.6143 -2.4317  0.6423
 2408SOL     OW17192   2.527   9.141   2.285  0.3274  0.4164 -0.7463
 2408SOL    HW117193   2.485   9.232   2.285  0.8331  0.6504 -1.1882
 2408SOL    HW217194   2.579   9.129   2.201  0.2790 -0.2782 -0.6740
 2409SOL     OW17195   0.976   6.202   0.573  0.2115  0.1954 -0.8689
 2409SOL    HW117196   1.033   6.124   0.549 -0.3986 -0.7887  0.8478
 2409SOL    HW217197   1.011   6.246   0.656  0.4930  1.6999 -1.7545
 2410SOL     OW17198   3.960   9.471   1.543 -0.1593 -0.2708  0.0651
 2410SOL    HW117199   3.992   9.431   1.629 -1.6699 -1.7480 -0.0375
 2410SOL    HW217200   3.920   9.400   1.485  2.6502  0.3088 -2.7659
 2411SOL     OW17201   9.986   2.573   0.240  0.5175  0.0407 -0.5958
 2411SOL    HW117202  10.024   2.516   0.167  0.3062  0.5760 -1.1313
 2411SOL    HW217203   9.971   2.518   0.322  0.9000 -0.5322 -0.9123
 2412SOL     OW17204   2.800   8.245   1.429  0.3651  1.0645 -0.0386
 2412SOL    HW117205   2.788   8.339   1.398  1.6218  1.6290  1.1902
 2412SOL    HW217206   2.785   8.239   1.527 -0.6811 -0.2109 -0.2491
 2413SOL     OW17207   2.184   8.773   0.253 -0.3097 -0.2129 -0.4955
 2413SOL    HW117208   2.154   8.715   0.177  1.2036 -0.4697 -0.9040
 2413SOL    HW217209   2.119   8.849   0.264 -0.2904  0.0988 -2.3447
 2414SOL     OW17210   3.109   1.021   0.288  0.2804 -0.5541  0.0388
 2414SOL    HW117211   3.178   1.093   0.303 -0.5960  0.1854  0.5714
 2414SOL    HW217212   3.050   1.048   0.211 -0.4388 -0.4131  0.6396
 2415SOL     OW17213   0.423   5.596   1.447 -0.3910 -0.0285  0.6761
 2415SOL    HW117214   0.343   5.654   1.429  0.6833  0.7971 -1.6177
 2415SOL    HW217215   0.416   5.512   1.394  1.2576  1.0054 -1.2720
 2416SOL     OW17216   3.815   2.110   0.688  0.0854 -0.0308 -0.5998
 2416SOL    HW117217   3.884   2.181   0.676  0.7019 -0.3159  1.1125
 2416SOL    HW217218   3.859   2.022   0.707 -0.7339 -0.2163  0.5092
 2417SOL     OW17219   1.627   7.811   1.892 -0.2967  0.7563  0.1063
 2417SOL    HW117220   1.656   7.774   1.981 -1.9360  0.8299  0.6973
 2417SOL    HW217221   1.535   7.777   1.871  0.4564 -0.0439 -2.0409
 2418SOL     OW17222   1.640   6.253   2.105  0.0681  0.4180 -0.1235
 2418SOL    HW117223   1.571   6.307   2.058 -0.1979  0.1324 -0.0620
 2418SOL    HW217224   1.691   6.197   2.039  0.5113  0.9306 -0.2172
 2419SOL     OW17225   1.806   3.300   1.241  0.4577 -0.5903 -0.4486
 2419SOL    HW117226   1.732   3.248   1.283  0.2838  0.6445  0.7948
 2419SOL    HW217227   1.891   3.248   1.249  0.3483 -0.5596  1.0623
 2420SOL     OW17228   9.878   2.427   0.500 -0.2764 -0.2773 -0.1494
 2420SOL    HW117229   9.977   2.429   0.513 -0.3446  2.2894  0.3332
 2420SOL    HW217230   9.845   2.333   0.505  1.9336 -1.0136  1.3877
 2421SOL     OW17231   1.233   6.315   2.422 -0.1594 -0.2729  0.2340
 2421SOL    HW117232   1.235   6.405   2.465 -2.1605  0.1159 -0.4811
 2421SOL    HW217233   1.300   6.312   2.347  0.4309  0.3538  0.7274
 2422SOL     OW17234   2.782   2.084   1.008 -0.6493 -0.9101  0.1018
 2422SOL    HW117235   2.832   2.009   1.052 -1.1849 -1.4821 -0.2435
 2422SOL    HW217236   2.794   2.168   1.060 -1.7822 -1.7148  1.7026
 2423SOL     OW17237   9.533   3.107   0.129 -0.3345  0.3368  0.0744
 2423SOL    HW117238   9.505   3.139   0.219 -0.7687 -2.3611  0.9356
 2423SOL    HW217239   9.623   3.066   0.134 -1.5766 -2.5095 -0.0693
 2424SOL     OW17240   3.042   4.890   0.236  0.2791 -0.2853  0.1405
 2424SOL    HW117241   3.003   4.949   0.166  1.5477  0.5203  0.0934
 2424SOL    HW217242   3.017   4.923   0.327  0.8641  0.2572  0.1105
 2425SOL     OW17243   3.723   8.875   1.193  0.1576 -0.1061  0.2718
 2425SOL    HW117244   3.774   8.789   1.187 -0.6318 -0.5383 -0.3032
 2425SOL    HW217245   3.635   8.865   1.147 -0.4247  0.6612  1.2021
 2426SOL     OW17246   1.087   5.094   0.072  0.0881  0.1831  0.0830
 2426SOL    HW117247   1.157   5.027   0.046 -0.8918 -0.5418 -0.6851
 2426SOL    HW217248   1.083   5.100   0.171  0.6914 -0.3530  0.1478
 2427SOL     OW17249   0.812   3.304   0.896  1.1099  0.3468 -0.6044
 2427SOL    HW117250   0.730   3.312   0.953 -1.1812 -3.9458 -3.0112
 2427SOL    HW217251   0.861   3.391   0.896 -1.9939  2.2599  3.0344
 2428SOL     OW17252   0.520   5.839   0.845 -0.5174 -0.2208  0.2356
 2428SOL    HW117253   0.577   5.918   0.868 -0.4177 -0.8847  2.3622
 2428SOL    HW217254   0.502   5.839   0.747  1.9980  0.7827 -0.2781
 2429SOL     OW17255   0.615   6.361   2.133 -0.0698 -0.0221  0.5035
 2429SOL    HW117256   0.669   6.439   2.100  0.8281 -0.6347  0.5185
 2429SOL    HW217257   0.543   6.341   2.067  1.8288 -1.3586 -1.2528
 2430SOL     OW17258   4.039   2.490   2.123  0.1482  0.2402 -0.5894
 2430SOL    HW117259   4.035   2.455   2.216 -0.7092 -0.8601 -1.0353
 2430SOL    HW217260   4.133   2.485   2.089  0.4550  0.6069  0.1871
 2431SOL     OW17261   2.326   4.193   1.663  0.1106 -0.2104 -0.2963
 2431SOL    HW117262   2.341   4.211   1.760 -2.3151  2.3415 -0.3322
 2431SOL    HW217263   2.282   4.104   1.652  0.4233 -0.5279  0.9121
 2432SOL     OW17264   0.937   6.635   1.806  0.0881  0.3429  0.6418
 2432SOL    HW117265   0.871   6.678   1.745 -0.1076  1.5205  1.6509
 2432SOL    HW217266   1.028   6.670   1.788  0.6246 -1.9229 -1.3395
 2433SOL     OW17267   1.335   5.606   0.303  0.5586  0.3190  0.0427
 2433SOL    HW117268   1.280   5.527   0.275 -0.2740  0.5712  0.9306
 2433SOL    HW217269   1.321   5.681   0.238 -0.1504  0.3762  0.2504
 2434SOL     OW17270   1.750   6.598   2.150  0.3110 -0.1741  0.1281
 2434SOL    HW117271   1.668   6.653   2.137 -0.3693 -1.0041  0.8571
 2434SOL    HW217272   1.799   6.631   2.231  0.8448  0.4836 -0.4509
 2435SOL     OW17273   1.796   5.682   0.834 -0.0964  0.5105  0.2071
 2435SOL    HW117274   1.889   5.715   0.820  0.5844 -1.8543 -0.9240
 2435SOL    HW217275   1.746   5.683   0.747 -0.0858 -1.3495  0.1662
 2436SOL     OW17276   4.193   1.562   2.775 -0.0491  0.6212  0.1218
 2436SOL    HW117277   4.153   1.608   2.696 -0.5360  0.1629  0.0944
 2436SOL    HW217278   4.130   1.491   2.807  1.7085 -1.6715 -1.3271
 2437SOL     OW17279   3.121   3.629   0.445  0.1469 -0.0611 -0.2594
 2437SOL    HW117280   3.041   3.569   0.447 -0.6080  0.9633  0.7706
 2437SOL    HW217281   3.155   3.642   0.539  0.5762  0.7528 -0.5276
 2438SOL     OW17282   3.617   9.052   1.975  0.1687  0.4946 -0.1135
 2438SOL    HW117283   3.684   8.993   2.020 -0.7556 -0.6476 -0.2273
 2438SOL    HW217284   3.662   9.137   1.948  1.7628 -0.5198 -0.7932
 2439SOL     OW17285   2.229   8.132   1.868 -0.3136  0.4452 -0.0884
 2439SOL    HW117286   2.147   8.079   1.890 -0.5165  0.6661 -0.3019
 2439SOL    HW217287   2.275   8.159   1.953 -0.1568 -0.1550  0.0149
 2440SOL     OW17288   2.202   1.604   1.748  0.4387  0.0241  0.1431
 2440SOL    HW117289   2.114   1.565   1.721  0.1519  0.9306 -0.2566
 2440SOL    HW217290   2.245   1.646   1.668  0.1506  1.6501  0.8251
 2441SOL     OW17291   2.155   1.619   1.129 -0.5937  0.4781  0.4172
 2441SOL    HW117292   2.084   1.685   1.104  0.1604  1.0157 -0.3004
 2441SOL    HW217293   2.160   1.548   1.059  0.8361  1.4441 -0.4773
 2442SOL     OW17294   3.774   2.740   0.780 -0.1110  0.6953 -0.2597
 2442SOL    HW117295   3.864   2.784   0.784 -0.1998  0.7307  2.2562
 2442SOL    HW217296   3.707   2.804   0.742  0.1674  2.0803  1.5099
 2443SOL     OW17297   1.935   7.868   0.053  0.8645  0.4642  1.0086
 2443SOL    HW117298   1.994   7.948   0.064  0.3787  0.8878  0.5419
 2443SOL    HW217299   1.879   7.879  -0.029 -1.1158  0.8655  2.3744
 2444SOL     OW17300   9.957   5.507   1.299 -0.1089  0.0582 -0.6494
 2444SOL    HW117301   9.875   5.475   1.252 -1.1619  1.1173  0.4525
 2444SOL    HW217302   9.940   5.513   1.397  1.4054 -0.0665 -0.3615
 2445SOL     OW17303   3.611   3.832   1.538  0.4869  0.0457 -0.6760
 2445SOL    HW117304   3.620   3.733   1.542 -0.0812  0.0136  0.0662
 2445SOL    HW217305   3.538   3.861   1.601  1.7353  1.0722  0.3339
 2446SOL     OW17306   0.977   4.309   1.028  0.6694  0.7289 -0.9917
 2446SOL    HW117307   1.043   4.327   1.100 -2.0869 -0.3189  1.9011
 2446SOL    HW217308   0.985   4.214   0.998  0.1008  0.4131 -0.1769
 2447SOL     OW17309   4.081   8.647   2.248 -0.9451 -0.0401  0.2351
 2447SOL    HW117310   4.164   8.595   2.267 -1.8713 -1.2825  0.9697
 2447SOL    HW217311   4.072   8.660   2.149  1.2887  2.0933  0.2812
 2448SOL     OW17312   2.931   8.011   1.678 -0.3249  0.0506 -0.4160
 2448SOL    HW117313   2.833   8.000   1.667 -0.0533 -1.0046 -1.9234
 2448SOL    HW217314   2.972   7.924   1.705  0.0345  0.8133  1.6131
 2449SOL     OW17315   1.352   4.878   1.489  0.3295 -0.1723 -0.1644
 2449SOL    HW117316   1.335   4.907   1.395  0.4093  1.7969  0.4065
 2449SOL    HW217317   1.326   4.782   1.500 -2.8755  0.5234 -1.3276
 2450SOL     OW17318   2.295   1.985   0.883  0.1131  0.1563 -0.1796
 2450SOL    HW117319   2.394   1.993   0.876  0.1239 -1.1699 -1.5811
 2450SOL    HW217320   2.264   2.038   0.963  1.9032  0.7177  0.1833
 2451SOL     OW17321   9.761   4.481   1.966  0.1888 -0.4274 -0.0406
 2451SOL    HW117322   9.794   4.407   2.025  1.6158 -1.1308 -1.6787
 2451SOL    HW217323   9.680   4.523   2.007 -0.4676 -2.6920  1.0731
 2452SOL     OW17324   2.298   3.057   0.698  0.2933 -0.3455 -0.8198
 2452SOL    HW117325   2.299   2.970   0.649  4.4925  0.2157 -1.8571
 2452SOL    HW217326   2.288   3.132   0.633 -1.8033  0.0805 -0.0535
 2453SOL     OW17327   3.126   9.558   2.287  0.1924  0.0832  0.2183
 2453SOL    HW117328   3.053   9.610   2.243  0.5661  0.6755  0.2774
 2453SOL    HW217329   3.214   9.585   2.247  0.4809  0.2213  0.9385
 2454SOL     OW17330   1.660   7.060   2.345 -0.1678  0.0950  0.6077
 2454SOL    HW117331   1.644   6.993   2.418  0.8035  0.4326  1.1402
 2454SOL    HW217332   1.733   7.123   2.373  0.3452  0.1157 -0.7392
 2455SOL     OW17333   4.433   3.329   1.481 -0.1017  0.5894 -0.0684
 2455SOL    HW117334   4.506   3.263   1.496 -0.5659  0.0943 -0.0049
 2455SOL    HW217335   4.346   3.292   1.514 -0.2644  1.4575  0.4979
 2456SOL     OW17336   2.187   5.166   1.278  0.7383  0.6016 -0.5285
 2456SOL    HW117337   2.197   5.084   1.221 -0.4389  0.8647 -1.1125
 2456SOL    HW217338   2.124   5.147   1.353  0.2160  1.0656 -0.8472
 2457SOL     OW17339   1.078   3.658   1.481 -0.0491  0.3313  0.0200
 2457SOL    HW117340   1.019   3.656   1.400  1.0430 -1.0394 -0.7745
 2457SOL    HW217341   1.113   3.750   1.494  1.2570  0.1997 -2.2113
 2458SOL     OW17342   2.463   5.585   2.255 -0.2124  0.1918  0.0368
 2458SOL    HW117343   2.371   5.624   2.255  0.3317  1.5349 -1.6466
 2458SOL    HW217344   2.514   5.621   2.334 -1.2329 -0.8816  1.2115
 2459SOL     OW17345   1.383   6.625   1.076 -0.1908 -0.2140 -0.0950
 2459SOL    HW117346   1.355   6.530   1.062  1.1685 -0.5316 -0.7991
 2459SOL    HW217347   1.392   6.671   0.987  0.4294  0.1844  0.1697
 2460SOL     OW17348   9.417   4.900   0.106  0.7839  0.2769  0.0629
 2460SOL    HW117349   9.346   4.844   0.063  0.2043  2.3976 -1.8543
 2460SOL    HW217350   9.393   4.918   0.201  0.7481 -2.3110  0.5578
 2461SOL     OW17351   3.610   3.974   0.107  0.0047 -0.4524  0.2067
 2461SOL    HW117352   3.550   4.018   0.041  2.2371  1.7568 -0.4139
 2461SOL    HW217353   3.664   3.904   0.061  0.6254  0.1864 -0.0393
 2462SOL     OW17354   2.075   1.895   1.069 -0.3853 -0.3290  0.4890
 2462SOL    HW117355   1.994   1.894   1.011  0.0081 -0.6969 -0.0480
 2462SOL    HW217356   2.156   1.879   1.014  0.0786  0.2348  0.9957
 2463SOL     OW17357   3.376   4.457   0.122  0.2445  0.1601 -0.1428
 2463SOL    HW117358   3.325   4.447   0.208 -0.0017  0.2746 -0.2767
 2463SOL    HW217359   3.312   4.474   0.047  0.5673  1.6278 -0.1055
 2464SOL     OW17360   3.086   2.700   1.714 -0.0119  0.0096  0.3453
 2464SOL    HW117361   3.172   2.700   1.662  0.1951  0.2987  0.6831
 2464SOL    HW217362   3.013   2.736   1.657  0.0092 -0.6220 -0.0813
 2465SOL     OW17363   2.654   8.333   2.522  0.5305 -0.2217 -0.1382
 2465SOL    HW117364   2.582   8.402   2.520 -0.1088 -0.8960 -1.0436
 2465SOL    HW217365   2.623   8.252   2.471  0.7176 -1.6998  2.0551
 2466SOL     OW17366   4.311   2.912   2.422  0.2315 -0.2676 -0.1924
 2466SOL    HW117367   4.362   2.826   2.428  0.2810 -0.3990 -1.9902
 2466SOL    HW217368   4.330   2.968   2.503  0.5415 -1.7558  0.7809
 2467SOL     OW17369   2.351   1.553   0.452 -0.0875 -0.4423  0.9203
 2467SOL    HW117370   2.321   1.593   0.365  2.0871  0.2053  0.4077
 2467SOL    HW217371   2.451   1.564   0.460 -0.0455 -1.9389  2.7674
 2468SOL     OW17372   0.971   7.168   1.775  0.7114  0.1682 -0.4903
 2468SOL    HW117373   1.034   7.203   1.844 -0.9418  1.4724  0.3821
 2468SOL    HW217374   0.887   7.136   1.819  0.3482 -0.6288 -1.7361
 2469SOL     OW17375   2.799   3.194   0.978 -0.2122 -0.4341  0.3223
 2469SOL    HW117376   2.870   3.126   0.997  0.1253  0.3571  2.0043
 2469SOL    HW217377   2.738   3.160   0.906  0.9621 -1.7643 -0.0712
 2470SOL     OW17378   2.666   7.782   0.076  0.6212 -0.2523 -0.0242
 2470SOL    HW117379   2.631   7.801  -0.016  0.1592  1.3260  0.4590
 2470SOL    HW217380   2.605   7.824   0.144  1.3003 -0.8720  0.9814
 2471SOL     OW17381   1.236   3.470   0.920  0.1954 -0.3001  0.1086
 2471SOL    HW117382   1.212   3.510   0.831  1.8109  2.4693  0.8315
 2471SOL    HW217383   1.169   3.499   0.988 -0.2990 -1.3178  0.0541
 2472SOL     OW17384   8.940   4.534   2.180  0.3305  0.3872 -0.4163
 2472SOL    HW117385   8.935   4.575   2.271 -4.1859 -0.5830 -0.1255
 2472SOL    HW217386   8.979   4.442   2.187 -1.4051 -0.2807  0.8063
 2473SOL     OW17387   2.485   2.337   0.311 -0.1131 -0.2205  0.1469
 2473SOL    HW117388   2.573   2.341   0.360 -0.2653  0.4924  0.3674
 2473SOL    HW217389   2.450   2.430   0.298 -1.0944 -0.5325  0.5236
 2474SOL     OW17390   1.285   3.533   0.351  0.3734 -0.2337  0.1995
 2474SOL    HW117391   1.245   3.462   0.408  1.9158 -2.0878 -0.9464
 2474SOL    HW217392   1.213   3.580   0.299 -0.8321  0.2458  2.2484
 2475SOL     OW17393   2.253   1.308   0.514  0.0593  0.3064 -0.2506
 2475SOL    HW117394   2.300   1.388   0.477 -0.5040 -0.3157 -2.3516
 2475SOL    HW217395   2.159   1.332   0.538 -0.4210  0.0170 -1.8484
 2476SOL     OW17396   1.086   3.689   0.694 -0.7110 -0.0328 -0.1656
 2476SOL    HW117397   1.170   3.667   0.645 -1.0778  0.2899 -0.9484
 2476SOL    HW217398   1.080   3.788   0.707 -0.1581 -0.1811  1.3710
 2477SOL     OW17399   4.224   4.673   0.783  0.8592  0.4950 -0.0125
 2477SOL    HW117400   4.230   4.722   0.869  1.6090 -0.5977  0.5628
 2477SOL    HW217401   4.288   4.712   0.717  2.3028 -0.4555  0.8176
 2478SOL     OW17402   1.115   3.336   0.463  0.0964 -0.0203 -0.0276
 2478SOL    HW117403   1.022   3.371   0.470 -0.6352 -1.9299  0.0887
 2478SOL    HW217404   1.154   3.325   0.554  0.0005 -0.3541 -0.0270
 2479SOL     OW17405   2.823   5.776   2.716  0.2742 -0.1298 -0.2097
 2479SOL    HW117406   2.826   5.769   2.816  3.1650 -0.6184 -0.2860
 2479SOL    HW217407   2.835   5.685   2.676 -1.6171 -0.0426 -1.0293
 2480SOL     OW17408   1.753   1.680   2.827 -0.1990 -0.1887  0.0563
 2480SOL    HW117409   1.751   1.777   2.800  0.3064  0.0144  0.7486
 2480SOL    HW217410   1.783   1.673   2.922  0.2190 -1.0619 -0.1443
 2481SOL     OW17411   3.771   0.737   1.315 -0.4708  0.4370 -0.0987
 2481SOL    HW117412   3.809   0.660   1.263 -0.4738  0.4063 -0.0556
 2481SOL    HW217413   3.842   0.777   1.372 -0.4836  0.4302 -0.0782
 2482SOL     OW17414   3.514   9.002   1.715 -0.4966  0.3870 -0.0768
 2482SOL    HW117415   3.560   9.054   1.788 -0.6391  1.6358 -0.8697
 2482SOL    HW217416   3.423   9.040   1.699  0.4383  1.6853 -2.5666
 2483SOL     OW17417   4.438   2.206   2.699 -0.0155 -0.2972  0.5983
 2483SOL    HW117418   4.396   2.118   2.676 -0.5085 -0.1041  0.7701
 2483SOL    HW217419   4.468   2.205   2.794 -0.5314 -0.0776  0.7648
 2484SOL     OW17420   2.812   0.154   2.419 -0.4929  0.3319 -1.0186
 2484SOL    HW117421   2.808   0.098   2.502  1.5343  0.8520 -0.5426
 2484SOL    HW217422   2.827   0.249   2.444 -2.5457  0.8952 -1.8887
 2485SOL     OW17423   3.568   2.136   1.221  0.6051  0.2166  0.2717
 2485SOL    HW117424   3.621   2.132   1.136  1.1086  0.5224  0.5694
 2485SOL    HW217425   3.550   2.043   1.253  3.4658  0.1142  1.7214
 2486SOL     OW17426   0.843   6.013   2.657 -0.5238 -0.0839  0.0981
 2486SOL    HW117427   0.848   6.110   2.630 -0.1213  0.2785  1.4499
 2486SOL    HW217428   0.846   6.006   2.757 -0.9281 -1.4768  0.0215
 2487SOL     OW17429   3.414   2.906   2.536 -0.9080 -0.3778  0.1206
 2487SOL    HW117430   3.418   2.971   2.460 -0.0314  0.3172  0.7512
 2487SOL    HW217431   3.319   2.889   2.561 -1.2200 -0.8841 -1.3613
 2488SOL     OW17432   0.820   2.197   1.953  0.2549 -0.1923  0.3144
 2488SOL    HW117433   0.829   2.224   1.857 -0.4949  0.8670  0.5359
 2488SOL    HW217434   0.742   2.135   1.962 -2.0161  2.6283  0.7978
 2489SOL     OW17435   0.073   5.133   0.364  0.3031  0.7880  0.0630
 2489SOL    HW117436   0.014   5.058   0.333 -1.3884  1.5154  1.4067
 2489SOL    HW217437   0.088   5.197   0.288  0.7199 -0.2487 -0.7396
 2490SOL     OW17438   2.933   2.763   0.076 -0.6884 -0.9275 -0.4883
 2490SOL    HW117439   2.862   2.699   0.046 -0.7876 -2.4195  2.7270
 2490SOL    HW217440   3.022   2.718   0.072 -0.2146  0.0727 -1.9263
 2491SOL     OW17441   2.459   6.217   2.581 -0.4301  0.0019  0.1485
 2491SOL    HW117442   2.527   6.147   2.601  0.1769  0.7610  0.7930
 2491SOL    HW217443   2.457   6.233   2.482  0.9947  0.6081  0.1944
 2492SOL     OW17444   2.071   3.371   1.301  0.9531 -0.1067 -0.3840
 2492SOL    HW117445   1.993   3.431   1.322  0.1855 -1.2393  0.0309
 2492SOL    HW217446   2.094   3.380   1.204  2.5162  2.8010  0.2145
 2493SOL     OW17447   4.736   4.007   0.685  0.4084 -0.3219 -0.0097
 2493SOL    HW117448   4.835   4.021   0.678  0.5619 -1.3538  0.0229
 2493SOL    HW217449   4.694   4.089   0.724  1.2744  0.0382  0.1954
 2494SOL     OW17450   0.208   4.091   0.903 -0.4640 -0.2042  0.4117
 2494SOL    HW117451   0.184   4.132   0.991 -0.1298 -1.8301  1.2800
 2494SOL    HW217452   0.134   4.032   0.872 -0.4335  0.0919 -0.2326
 2495SOL     OW17453   2.898   1.216   1.159  0.6730 -0.5933  0.2853
 2495SOL    HW117454   2.909   1.176   1.249  0.7881 -0.5678  0.2822
 2495SOL    HW217455   2.853   1.150   1.098  0.8518 -0.7118  0.2833
 2496SOL     OW17456   3.073   0.251   2.739  0.3538  0.1993  0.4915
 2496SOL    HW117457   3.031   0.202   2.814 -0.6128  0.1329 -0.0861
 2496SOL    HW217458   3.114   0.336   2.773  0.3821 -0.0865  1.1732
 2497SOL     OW17459   3.746   9.732   1.656  0.0521 -0.5064 -0.1231
 2497SOL    HW117460   3.677   9.795   1.619  3.0755  2.9626 -0.1030
 2497SOL    HW217461   3.747   9.649   1.601 -2.0606  0.6162 -1.9708
 2498SOL     OW17462   2.968   0.689   2.458  0.7630 -0.1598  0.2112
 2498SOL    HW117463   2.988   0.594   2.432 -0.0054 -0.1171 -0.5744
 2498SOL    HW217464   3.027   0.751   2.406 -1.2473 -0.0392 -2.0162
 2499SOL     OW17465   2.423   5.973   1.835  0.2416  0.1454  0.2206
 2499SOL    HW117466   2.435   5.955   1.933  3.1166  1.4843  0.1449
 2499SOL    HW217467   2.493   6.037   1.804 -0.0686 -0.9888 -2.9427
 2500SOL     OW17468   9.113   4.641   0.972 -0.1961 -0.2946  0.8911
 2500SOL    HW117469   9.131   4.547   1.000  1.2934 -0.2024  0.2769
 2500SOL    HW217470   9.020   4.648   0.937 -0.3389 -1.5222  1.0123
 2501SOL     OW17471   4.765   2.392   2.174  0.0709  0.1342  0.2500
 2501SOL    HW117472   4.725   2.478   2.205  0.5687  0.4096  0.1294
 2501SOL    HW217473   4.701   2.345   2.113 -1.2835 -0.7933  2.2983
 2502SOL     OW17474   9.216   4.129   1.189 -0.5277  0.0582 -0.2442
 2502SOL    HW117475   9.236   4.103   1.284  0.8984  0.1656 -0.5049
 2502SOL    HW217476   9.133   4.082   1.159 -1.0002  0.0372  1.0637
 2503SOL     OW17477   2.360   3.771   1.093 -0.0884  0.1836  0.2065
 2503SOL    HW117478   2.447   3.821   1.093 -0.9036  1.7354 -2.6770
 2503SOL    HW217479   2.365   3.695   1.157  2.7541  1.3338  1.4249
 2504SOL     OW17480   5.227   3.554   2.715  0.2008  0.0017 -0.1154
 2504SOL    HW117481   5.297   3.557   2.643 -1.8213 -0.5820 -2.1906
 2504SOL    HW217482   5.152   3.494   2.686 -0.6642 -0.2687  2.5263
 2505SOL     OW17483   0.616   4.324   1.814  0.2257  0.5387 -0.1402
 2505SOL    HW117484   0.647   4.405   1.864  2.1534 -0.2301 -0.0148
 2505SOL    HW217485   0.551   4.273   1.870 -1.3466  2.2269 -0.4072
 2506SOL     OW17486   3.404   5.108   0.801 -0.5836 -0.1517 -0.0572
 2506SOL    HW117487   3.331   5.174   0.786  1.8377  2.9843  1.3867
 2506SOL    HW217488   3.399   5.073   0.894 -0.3244 -0.0782 -0.0163
 2507SOL     OW17489   3.518   1.048   2.759 -0.1378  0.1899  0.0460
 2507SOL    HW117490   3.583   1.018   2.689  0.8199  0.4086  0.8239
 2507SOL    HW217491   3.517   0.983   2.834 -0.5012  0.4119  0.2364
 2508SOL     OW17492   1.083   6.924   1.936  0.5493 -0.1057 -0.4501
 2508SOL    HW117493   1.115   7.017   1.956 -1.5282  1.2490 -3.0983
 2508SOL    HW217494   1.061   6.877   2.021  0.3534  2.3033  0.8680
 2509SOL     OW17495   1.319   2.129   0.031  0.2957  0.2081  0.4747
 2509SOL    HW117496   1.341   2.034   0.009  0.2011  0.1672  0.5533
 2509SOL    HW217497   1.322   2.184  -0.053  0.7477  0.2146  0.4993
 2510SOL     OW17498   0.530   5.961   2.708  0.4304  0.3081  0.7791
 2510SOL    HW117499   0.539   5.968   2.808  1.7578  1.3147  0.6021
 2510SOL    HW217500   0.517   6.052   2.669 -2.5611 -0.3137  0.2272
 2511SOL     OW17501   3.995   1.320   2.324  0.1261  0.3917  0.3185
 2511SOL    HW117502   4.059   1.337   2.399  0.0707  1.0356  0.2230
 2511SOL    HW217503   3.936   1.400   2.312 -0.9606 -0.3379  0.6607
 2512SOL     OW17504   2.213   0.556   1.583  0.0098 -0.2750 -0.6423
 2512SOL    HW117505   2.214   0.456   1.581  2.9261 -0.3027  0.0732
 2512SOL    HW217506   2.256   0.591   1.499 -0.4411  0.3661 -0.6051
 2513SOL     OW17507   1.901   2.478   2.392 -0.2353  0.2329 -0.3533
 2513SOL    HW117508   1.812   2.488   2.437  0.3883  2.6707  0.3988
 2513SOL    HW217509   1.974   2.491   2.459  0.7308 -2.8509 -0.7400
 2514SOL     OW17510   1.141   6.182   1.579  0.0671 -0.2312 -0.1913
 2514SOL    HW117511   1.207   6.152   1.511  0.3331 -0.8390  0.3328
 2514SOL    HW217512   1.159   6.136   1.666  1.3859  2.4739  1.0243
 2515SOL     OW17513   0.609   3.336   1.136 -0.0226 -0.1652  0.3549
 2515SOL    HW117514   0.525   3.327   1.191 -1.4239  2.4261 -1.2395
 2515SOL    HW217515   0.624   3.433   1.115  0.7606 -1.0441 -3.3534
 2516SOL     OW17516   2.249   0.479   2.336  0.1400 -0.1476  1.0110
 2516SOL    HW117517   2.152   0.457   2.330 -0.3324  2.2503 -1.4833
 2516SOL    HW217518   2.303   0.397   2.320 -1.5076 -1.1198  0.2854
 2517SOL     OW17519   3.902   8.882   0.919  0.0245 -0.0114 -0.3255
 2517SOL    HW117520   3.835   8.951   0.891  0.5733  0.1939 -1.1268
 2517SOL    HW217521   3.871   8.839   1.005  0.0315  1.7422  0.5830
 2518SOL     OW17522   9.718   2.998   1.149 -0.4669 -0.2075 -0.5291
 2518SOL    HW117523   9.735   3.018   1.052  2.8218 -0.6433 -0.0954
 2518SOL    HW217524   9.661   3.071   1.188 -2.1417 -0.2228 -2.8479
 2519SOL     OW17525   1.877   3.574   1.309 -0.0822  0.2344  0.1655
 2519SOL    HW117526   1.903   3.620   1.394  2.5340 -0.9825  0.0820
 2519SOL    HW217527   1.796   3.518   1.324 -0.1666  0.7333  1.6225
 2520SOL     OW17528   3.926   0.237   0.942 -0.4602  0.1097  0.5523
 2520SOL    HW117529   4.011   0.279   0.909  0.0788  0.7607  2.6681
 2520SOL    HW217530   3.908   0.154   0.890  0.9854  0.4528 -0.5401
 2521SOL     OW17531   1.133   5.247   1.796 -0.1037 -0.2638 -0.2571
 2521SOL    HW117532   1.225   5.280   1.774  0.3363 -0.8805  0.6519
 2521SOL    HW217533   1.066   5.298   1.742  0.7412  0.4542 -0.6423
 2522SOL     OW17534   2.615   1.585   0.474 -0.2760 -0.0397  0.4514
 2522SOL    HW117535   2.611   1.535   0.561  0.7298  0.5038  0.8156
 2522SOL    HW217536   2.710   1.605   0.451 -0.6291  1.1517 -0.0197
 2523SOL     OW17537   3.387   3.453   1.593  0.0303  0.0722 -0.4632
 2523SOL    HW117538   3.300   3.448   1.544  0.6023  1.9633 -1.7381
 2523SOL    HW217539   3.374   3.425   1.688 -1.9349  0.1845 -0.6885
 2524SOL     OW17540   0.427   2.755   2.507 -0.1464 -0.1881 -0.1341
 2524SOL    HW117541   0.407   2.828   2.571 -0.0483  0.1408 -0.4752
 2524SOL    HW217542   0.346   2.736   2.451 -0.8275 -1.7404  1.3236
 2525SOL     OW17543   0.284   3.089   1.590 -0.0320  0.2108  0.0558
 2525SOL    HW117544   0.199   3.044   1.561 -1.4235  0.4973  3.5170
 2525SOL    HW217545   0.264   3.158   1.659  3.0273  0.1156  1.1257
 2526SOL     OW17546   2.693   4.790   2.006  0.1229  0.9346 -0.6745
 2526SOL    HW117547   2.672   4.884   1.980  2.1900  1.1515 -1.6811
 2526SOL    HW217548   2.711   4.786   2.104 -0.7586  1.4414 -0.4907
 2527SOL     OW17549   3.100   8.276   2.717  0.3499 -0.1364 -0.1048
 2527SOL    HW117550   3.073   8.306   2.626  1.1489 -2.1638 -1.0378
 2527SOL    HW217551   3.046   8.196   2.744  2.1659 -1.3872 -0.0746
 2528SOL     OW17552   3.835   8.293   1.912 -0.2018  0.7680  0.4352
 2528SOL    HW117553   3.918   8.341   1.941 -0.1395  0.5654  0.5907
 2528SOL    HW217554   3.785   8.260   1.992  1.9783 -3.1955  0.3056
 2529SOL     OW17555   1.927   3.682   1.587 -0.7113 -0.0868  0.2671
 2529SOL    HW117556   1.896   3.768   1.627 -0.3500  0.1396  0.0628
 2529SOL    HW217557   1.889   3.605   1.639 -3.0371  0.1430 -1.0073
 2530SOL     OW17558   4.540   2.159   2.410  0.0376  0.2641  0.6098
 2530SOL    HW117559   4.600   2.211   2.350  1.1843 -0.3176  1.2350
 2530SOL    HW217560   4.551   2.190   2.504 -2.2604  1.6484  0.4636
 2531SOL     OW17561   2.450   4.600   2.502 -0.6684 -0.3854  0.1316
 2531SOL    HW117562   2.408   4.641   2.421 -0.8636  0.0842  0.4626
 2531SOL    HW217563   2.486   4.510   2.480  3.2518  1.5003 -1.6389
 2532SOL     OW17564   3.012   8.346   1.751  0.4260 -0.3629  0.4164
 2532SOL    HW117565   2.989   8.440   1.727 -1.9293 -1.2760 -1.0566
 2532SOL    HW217566   3.064   8.304   1.677  1.2348 -0.3081  0.9523
 2533SOL     OW17567   2.929   4.659   0.025  0.0911  0.2689 -0.6589
 2533SOL    HW117568   2.876   4.711   0.091 -0.1423  1.3860 -1.6978
 2533SOL    HW217569   2.928   4.707  -0.063  1.2897 -0.6372 -1.1776
 2534SOL     OW17570   4.358   1.988   2.014  0.4179  0.2122 -0.5037
 2534SOL    HW117571   4.401   2.045   1.943 -0.6215  0.0341 -1.2793
 2534SOL    HW217572   4.259   1.996   2.009  0.2967 -0.6863  0.2070
 2535SOL     OW17573   2.270   5.013   1.638 -0.2531  0.2167 -0.9622
 2535SOL    HW117574   2.316   4.940   1.689 -0.6159  0.5998 -0.0892
 2535SOL    HW217575   2.181   4.981   1.606 -0.7703  0.5555  0.1390
 2536SOL     OW17576   9.480   4.543   2.046 -0.1731  0.1607  0.0548
 2536SOL    HW117577   9.401   4.489   2.075  0.8225 -1.1956  0.2726
 2536SOL    HW217578   9.476   4.558   1.948  0.6563 -2.1738 -0.3582
 2537SOL     OW17579   1.696   1.147   1.523 -0.1249  0.1261  0.0524
 2537SOL    HW117580   1.764   1.171   1.453 -0.0245  0.9733  0.4305
 2537SOL    HW217581   1.689   1.048   1.530 -1.3652  0.0152 -2.3618
 2538SOL     OW17582   3.748   9.251   1.827  0.1708  0.3407 -0.6951
 2538SOL    HW117583   3.671   9.315   1.823  1.1361  1.4221 -2.3429
 2538SOL    HW217584   3.834   9.300   1.817  1.4178 -0.3814  4.9075
 2539SOL     OW17585   3.870   2.274   2.626 -0.4003 -0.6379 -0.3051
 2539SOL    HW117586   3.816   2.232   2.698 -0.6477 -1.0800 -0.7491
 2539SOL    HW217587   3.809   2.313   2.557 -0.1900  0.9310  0.3716
 2540SOL     OW17588   4.812   3.533   2.746 -0.3695  0.5401 -0.4427
 2540SOL    HW117589   4.718   3.497   2.749  0.6563 -2.3790 -1.5751
 2540SOL    HW217590   4.864   3.496   2.823  0.0726  1.5509 -0.2519
 2541SOL     OW17591   2.973   2.463   1.312 -0.2001 -0.2690  0.1577
 2541SOL    HW117592   3.045   2.430   1.372 -0.3918  0.1223  0.6113
 2541SOL    HW217593   3.003   2.460   1.217 -0.8464 -3.4552  0.0050
 2542SOL     OW17594   9.901   4.862   2.575 -0.0928 -0.0704 -0.1520
 2542SOL    HW117595   9.857   4.903   2.495  0.3684  0.1580 -0.2890
 2542SOL    HW217596   9.833   4.852   2.648 -0.1201  1.3654  0.0494
 2543SOL     OW17597   4.516   2.629   1.032 -0.1599 -0.3650  0.5052
 2543SOL    HW117598   4.530   2.629   1.131 -0.5106  0.4009  0.5595
 2543SOL    HW217599   4.503   2.723   1.000  1.1172 -0.5027 -0.4345
 2544SOL     OW17600   2.558   5.843   0.079 -0.4288 -0.2831  0.2775
 2544SOL    HW117601   2.618   5.763   0.075 -1.8766 -1.4224  0.7446
 2544SOL    HW217602   2.474   5.824   0.028 -1.5002  0.3197  1.7939
 2545SOL     OW17603   3.208   8.706   1.386  0.2124  0.4553  0.0489
 2545SOL    HW117604   3.109   8.714   1.385 -0.1086 -2.6427  1.2302
 2545SOL    HW217605   3.240   8.692   1.480  1.7312  0.9850 -0.3644
 2546SOL     OW17606   2.907   9.460   2.464  0.0024 -0.4014 -0.3847
 2546SOL    HW117607   2.837   9.456   2.394 -0.7990  0.9741  0.3263
 2546SOL    HW217608   2.984   9.515   2.431 -0.1946 -0.1020 -0.3485
 2547SOL     OW17609   4.521   3.516   2.501  0.8440  0.3367 -0.1063
 2547SOL    HW117610   4.586   3.558   2.437 -0.3871 -0.2072 -1.7602
 2547SOL    HW217611   4.440   3.573   2.507  0.4513 -0.2404  0.0444
 2548SOL     OW17612   1.824   0.817   1.147  0.4153 -0.1638  0.0541
 2548SOL    HW117613   1.752   0.796   1.213  0.9484 -0.1341  0.6566
 2548SOL    HW217614   1.790   0.804   1.054 -0.5176  0.3678  0.3236
 2549SOL     OW17615   2.977   9.901   2.737 -0.0009  0.0421  0.4447
 2549SOL    HW117616   2.884   9.914   2.703 -0.0996  0.5018  0.8901
 2549SOL    HW217617   3.021   9.827   2.686  0.4779  1.9111 -1.9130
 2550SOL     OW17618   1.508   5.597   1.237  0.8594 -0.3395 -0.3844
 2550SOL    HW117619   1.481   5.583   1.141  0.1692  0.1945 -0.2710
 2550SOL    HW217620   1.485   5.690   1.265  1.3346 -0.4018  0.2102
 2551SOL     OW17621   3.036   3.261   1.157  0.4927 -0.1615  0.5314
 2551SOL    HW117622   2.965   3.208   1.111 -0.1200  1.0547  0.0614
 2551SOL    HW217623   2.997   3.344   1.197  1.4833  0.0778  1.0318
 2552SOL     OW17624   0.480   3.618   1.373 -0.2241 -0.1386 -0.0945
 2552SOL    HW117625   0.423   3.678   1.429 -2.4056 -0.8834 -1.4560
 2552SOL    HW217626   0.456   3.523   1.392  1.0227 -0.4894 -0.2298
 2553SOL     OW17627   2.595   4.407   0.115  0.4303  0.1506 -0.1677
 2553SOL    HW117628   2.497   4.398   0.098  0.4852  0.9567 -0.9742
 2553SOL    HW217629   2.645   4.396   0.029  0.8974  1.8937 -0.1355
 2554SOL     OW17630   0.897   4.102   1.958 -0.5350  0.5487  1.0081
 2554SOL    HW117631   0.901   4.117   1.860  0.0196  1.7989  1.2168
 2554SOL    HW217632   0.988   4.080   1.993 -1.0484 -1.7934  0.9617
 2555SOL     OW17633   2.843   9.471   1.165 -0.3298  0.2689 -0.6979
 2555SOL    HW117634   2.903   9.496   1.090 -0.4334  0.0574 -0.8519
 2555SOL    HW217635   2.833   9.372   1.168  0.2896  0.2250  0.0694
 2556SOL     OW17636   3.180   4.922   0.795  0.1013  0.4042 -0.5154
 2556SOL    HW117637   3.161   5.018   0.776  2.4366  1.3856  1.8219
 2556SOL    HW217638   3.108   4.884   0.853  0.2955  1.3711  0.3734
 2557SOL     OW17639   1.827   7.647   2.442 -0.1272 -0.4474 -0.2296
 2557SOL    HW117640   1.728   7.662   2.443 -0.1686 -0.6292 -1.1760
 2557SOL    HW217641   1.846   7.550   2.426  0.2121 -0.2134 -1.2722
 2558SOL     OW17642   1.648   1.962   2.818 -0.0493  0.2016  0.4281
 2558SOL    HW117643   1.622   2.036   2.756 -2.9177  0.0831  1.4552
 2558SOL    HW217644   1.712   1.997   2.886  0.7048  1.0554 -0.6805
 2559SOL     OW17645   0.509   5.389   0.508  0.4058  0.2331  0.1035
 2559SOL    HW117646   0.597   5.435   0.511  0.6227  0.0514 -2.6503
 2559SOL    HW217647   0.522   5.290   0.515  0.1287  0.3457  3.1374
 2560SOL     OW17648  10.000   4.195   1.559 -0.5792  0.0118 -0.3978
 2560SOL    HW117649  10.005   4.248   1.645 -0.2346 -1.7089  0.6639
 2560SOL    HW217650  10.060   4.237   1.491  0.7340  0.2248  0.8629
 2561SOL     OW17651   1.931   9.764   1.932 -0.3011 -0.2905  0.5672
 2561SOL    HW117652   1.913   9.667   1.949 -1.8575 -0.0367  0.4304
 2561SOL    HW217653   1.986   9.802   2.006  1.0227 -1.4630  0.2185
 2562SOL     OW17654   0.248   4.213   2.444  0.5923 -0.2134 -0.9787
 2562SOL    HW117655   0.337   4.183   2.478 -0.1597 -0.8408  0.4950
 2562SOL    HW217656   0.182   4.139   2.455 -0.6632  1.0495  0.1678
 2563SOL     OW17657   2.842   2.924   0.602 -0.2263  0.6515  0.6813
 2563SOL    HW117658   2.883   3.016   0.607  1.7144 -0.1531  0.1145
 2563SOL    HW217659   2.898   2.860   0.654 -0.3209 -0.6449 -0.7768
 2564SOL     OW17660   9.547   2.695   1.420 -0.1069 -0.7748  0.9263
 2564SOL    HW117661   9.618   2.670   1.355 -2.2263 -1.0643 -1.3518
 2564SOL    HW217662   9.521   2.615   1.473  1.6744 -0.5254  2.2274
 2565SOL     OW17663   3.543   9.882   1.562 -0.2953 -0.2891  0.2486
 2565SOL    HW117664   3.469   9.815   1.551 -1.8524  1.8359 -3.3816
 2565SOL    HW217665   3.524   9.940   1.641 -1.5185 -1.0081  0.4922
 2566SOL     OW17666   3.523   2.360   0.873  0.1863 -0.7494 -0.3046
 2566SOL    HW117667   3.610   2.402   0.899 -0.4763  0.6438 -0.2795
 2566SOL    HW217668   3.460   2.366   0.950 -0.4615 -0.2583 -0.8624
 2567SOL     OW17669   3.616   5.089   2.533 -0.5473  0.0190 -0.9044
 2567SOL    HW117670   3.573   4.999   2.525 -0.5372 -0.0619 -0.1166
 2567SOL    HW217671   3.711   5.083   2.501 -0.0250 -0.6627  0.6575
 2568SOL     OW17672   2.351   8.227   2.093  0.1524 -0.6845  0.1294
 2568SOL    HW117673   2.419   8.300   2.086  1.4422 -1.8168  0.5748
 2568SOL    HW217674   2.319   8.220   2.187 -0.2468 -0.4391  0.0100
 2569SOL     OW17675   0.888   4.408   0.189  0.4122 -0.2629 -0.2104
 2569SOL    HW117676   0.888   4.472   0.266  1.5063 -0.9474  0.3659
 2569SOL    HW217677   0.975   4.415   0.140  0.0971 -0.5184 -0.8155
 2570SOL     OW17678   3.462   0.033   1.180 -0.2666 -0.1899  0.5289
 2570SOL    HW117679   3.543   0.075   1.220  0.4001 -0.8420 -0.1170
 2570SOL    HW217680   3.452  -0.060   1.215  0.0243 -0.5782 -0.4078
 2571SOL     OW17681   2.140   4.790   0.489 -0.8516  0.3765 -0.0909
 2571SOL    HW117682   2.184   4.833   0.568 -1.3276 -0.9781  0.9247
 2571SOL    HW217683   2.045   4.818   0.484 -1.4542 -1.3640  1.2010
 2572SOL     OW17684   2.452   9.693   1.588  0.0416  0.0846  0.2701
 2572SOL    HW117685   2.542   9.654   1.571 -0.1315 -0.4490  0.5984
 2572SOL    HW217686   2.456   9.793   1.578  0.8312  0.1273  1.0074
 2573SOL     OW17687   0.036   2.795   1.986 -0.1475  0.3864 -0.1779
 2573SOL    HW117688  -0.033   2.849   1.939  0.7084  0.6782 -1.1244
 2573SOL    HW217689   0.084   2.736   1.920  1.0676  0.7993  0.3105
 2574SOL     OW17690   0.550   3.795   0.308  0.0715  0.1105 -0.0961
 2574SOL    HW117691   0.618   3.725   0.333  1.5690  0.5809 -2.6734
 2574SOL    HW217692   0.463   3.773   0.351  0.6556 -3.0452 -0.3625
 2575SOL     OW17693   0.105   4.003   0.396 -0.3053  0.2247 -0.1704
 2575SOL    HW117694   0.049   4.038   0.321 -0.1094 -0.2030 -0.5175
 2575SOL    HW217695   0.201   4.004   0.369 -0.0262  1.9770  0.8182
 2576SOL     OW17696   0.063   5.615   0.242 -0.4694 -1.0656  0.1784
 2576SOL    HW117697   0.148   5.616   0.294 -0.3281  1.9255 -0.0726
 2576SOL    HW217698  -0.004   5.557   0.290  1.5113 -3.0882  0.5998
 2577SOL     OW17699   4.250   0.734   1.743  0.2645  1.3854  0.2653
 2577SOL    HW117700   4.167   0.711   1.794  1.9941 -0.7948  2.1937
 2577SOL    HW217701   4.330   0.723   1.802  2.0606  2.1800 -1.9408
 2578SOL     OW17702   2.942   9.063   1.563 -0.1454 -0.5497  0.2818
 2578SOL    HW117703   2.909   9.106   1.479  0.4306 -0.6281  0.0084
 2578SOL    HW217704   3.026   9.109   1.592 -0.0846 -0.8358  0.5514
 2579SOL     OW17705   3.817   4.196   0.862  0.3282  0.8337  0.2372
 2579SOL    HW117706   3.758   4.277   0.857  0.1542  0.7230  0.4926
 2579SOL    HW217707   3.772   4.125   0.916  0.8429  0.8716  0.7221
 2580SOL     OW17708   2.044   4.901   1.509  0.3397 -0.4980  0.0482
 2580SOL    HW117709   2.086   4.852   1.433 -0.4031  0.6210 -1.0942
 2580SOL    HW217710   1.991   4.978   1.474 -0.2525 -0.1484  1.6810
 2581SOL     OW17711   3.332   3.750   1.823 -0.1791 -0.0560 -0.0615
 2581SOL    HW117712   3.235   3.776   1.818 -0.1579 -0.2966 -2.5615
 2581SOL    HW217713   3.339   3.651   1.832 -0.1665  0.1111  1.9423
 2582SOL     OW17714   3.359   8.603   0.039  0.2779 -0.3895 -0.5790
 2582SOL    HW117715   3.407   8.524   0.002  0.7685  0.5934 -2.1212
 2582SOL    HW217716   3.260   8.588   0.033  0.3462 -0.2093 -2.4309
 2583SOL     OW17717   4.359   0.534   1.603  0.0482  0.4079 -0.1851
 2583SOL    HW117718   4.427   0.495   1.665 -1.3272 -1.0174  0.4499
 2583SOL    HW217719   4.292   0.588   1.655  0.2880  1.2532 -0.7294
 2584SOL     OW17720   3.673   0.453   1.460  0.6073 -0.0713  0.1276
 2584SOL    HW117721   3.624   0.372   1.492 -0.5690  0.4425 -0.3548
 2584SOL    HW217722   3.618   0.500   1.390  1.1492  1.2905  0.6026
 2585SOL     OW17723   1.693   7.872   0.349  0.1666  0.1744 -0.3856
 2585SOL    HW117724   1.706   7.927   0.267  2.9479  0.4128  0.1655
 2585SOL    HW217725   1.717   7.927   0.430  1.8236 -1.4490  0.2480
 2586SOL     OW17726   3.352   4.937   2.049  0.8293  0.3345  0.1061
 2586SOL    HW117727   3.351   4.840   2.025 -1.2365  0.0896  1.0581
 2586SOL    HW217728   3.445   4.971   2.046  1.6394 -1.7920  0.1461
 2587SOL     OW17729   1.924   5.230   2.783 -0.0792 -0.1257 -0.5569
 2587SOL    HW117730   1.938   5.185   2.872 -0.1346  0.8772 -0.0353
 2587SOL    HW217731   1.925   5.161   2.711  2.2140 -0.6846 -0.0156
 2588SOL     OW17732   0.029   3.615   2.234  0.2168 -0.0705 -0.0337
 2588SOL    HW117733  -0.017   3.671   2.164 -0.4458 -0.9128 -0.2775
 2588SOL    HW217734   0.023   3.519   2.208  0.8792 -0.3001  0.6692
 2589SOL     OW17735   2.963   3.575   2.389  0.1456  0.2613 -0.0449
 2589SOL    HW117736   2.987   3.663   2.430 -0.6100  0.5618 -0.2247
 2589SOL    HW217737   3.005   3.500   2.441  1.7373  0.7753 -0.5672
 2590SOL     OW17738   9.291   4.994   0.419 -0.0183  0.2466  0.1088
 2590SOL    HW117739   9.343   4.925   0.470 -0.0709 -0.5989 -0.9525
 2590SOL    HW217740   9.204   5.011   0.466  0.2406  0.0119  0.6839
 2591SOL     OW17741   0.765   3.910   1.665  0.0709  0.4900 -0.6063
 2591SOL    HW117742   0.787   4.005   1.689 -2.2676  0.3651  2.2617
 2591SOL    HW217743   0.841   3.851   1.690  0.0073  1.1351  1.1802
 2592SOL     OW17744   3.893   4.132   1.986  0.0839 -0.0618  0.5025
 2592SOL    HW117745   3.942   4.191   2.050 -0.0297 -0.0265  0.5565
 2592SOL    HW217746   3.834   4.187   1.928  1.4486  0.0931 -0.7792
 2593SOL     OW17747   0.443   2.807   0.884  0.7112  0.2260  0.2269
 2593SOL    HW117748   0.515   2.877   0.892  0.6806  0.0681  2.1595
 2593SOL    HW217749   0.400   2.814   0.794  1.3853  2.0482  0.0167
 2594SOL     OW17750   3.642   2.890   1.228 -0.1029 -0.3062  0.0829
 2594SOL    HW117751   3.713   2.960   1.219  1.6797 -1.9205  1.4519
 2594SOL    HW217752   3.609   2.865   1.137  0.7200  0.8077 -0.5387
 2595SOL     OW17753   1.476   5.357   2.304 -0.1274  0.2918 -0.1227
 2595SOL    HW117754   1.380   5.375   2.280 -0.0497  0.3759 -0.3786
 2595SOL    HW217755   1.521   5.442   2.329 -0.9959 -0.1838  3.3050
 2596SOL     OW17756   1.918   2.478   0.092 -0.1480  0.1426  0.7764
 2596SOL    HW117757   1.984   2.407   0.064 -0.3207 -0.2350  1.3273
 2596SOL    HW217758   1.938   2.563   0.043  0.8383  0.0709  1.0464
 2597SOL     OW17759   0.442   4.156   0.049  0.4278 -0.3014  0.3111
 2597SOL    HW117760   0.394   4.119   0.128 -0.7978 -0.0793 -0.3055
 2597SOL    HW217761   0.521   4.209   0.079 -0.2174  0.0549  1.4082
 2598SOL     OW17762   0.838   2.721   1.318  0.2952 -0.2233  0.1805
 2598SOL    HW117763   0.754   2.751   1.363  0.3829  0.4942 -0.1291
 2598SOL    HW217764   0.818   2.642   1.260 -0.4507  0.7850 -0.9583
 2599SOL     OW17765   0.477   4.143   0.887  0.3419  0.4331 -0.0243
 2599SOL    HW117766   0.377   4.143   0.883  0.3201  1.8947  0.3816
 2599SOL    HW217767   0.507   4.189   0.971  1.3369 -1.4337  0.6764
 2600SOL     OW17768   0.295   2.771   1.557 -0.5664 -0.2259 -0.2312
 2600SOL    HW117769   0.314   2.854   1.609  0.3727  1.2530 -2.8062
 2600SOL    HW217770   0.210   2.782   1.506  0.3291 -0.1971 -1.7742
 2601SOL     OW17771   3.125   1.150   2.628  0.1936 -0.2366 -0.7870
 2601SOL    HW117772   3.025   1.147   2.619 -0.0694 -2.4268  1.9771
 2601SOL    HW217773   3.152   1.240   2.661 -1.3155 -0.8079  2.1888
 2602SOL     OW17774   1.563   5.137   0.362  0.0933 -0.6123  0.2957
 2602SOL    HW117775   1.542   5.228   0.397  0.1210  1.3471 -4.4070
 2602SOL    HW217776   1.483   5.101   0.312  1.2653 -1.6485 -0.8768
 2603SOL     OW17777   2.558   9.821   0.691 -0.6797  0.5186  0.2905
 2603SOL    HW117778   2.491   9.793   0.760  0.8991  0.9404  2.0403
 2603SOL    HW217779   2.570   9.920   0.694  0.2877  0.4080  0.2433
 2604SOL     OW17780   1.191   3.238   0.710 -0.6317 -0.1589  0.0386
 2604SOL    HW117781   1.181   3.220   0.808 -1.0288 -1.6660 -0.2603
 2604SOL    HW217782   1.216   3.153   0.663 -1.6944  0.2687 -1.3372
 2605SOL     OW17783   2.921   8.962   2.516  0.9467  0.2838 -0.1896
 2605SOL    HW117784   2.960   9.013   2.439 -0.4686 -0.3506 -1.3360
 2605SOL    HW217785   2.953   8.867   2.512  0.8003  0.2301 -0.0307
 2606SOL     OW17786   3.239   4.149   0.232  0.2327 -0.3873 -0.2775
 2606SOL    HW117787   3.260   4.207   0.311 -0.5581 -0.4312 -0.0323
 2606SOL    HW217788   3.163   4.188   0.180  1.9903  0.6754 -2.1282
 2607SOL     OW17789   1.747   8.104   1.951  0.4173  0.1742  0.0965
 2607SOL    HW117790   1.723   8.010   1.926  2.0034 -0.2268  0.0063
 2607SOL    HW217791   1.723   8.120   2.047  0.8094 -0.5534  0.3183
 2608SOL     OW17792   9.599   3.940   0.635  0.3019 -0.5247  0.0459
 2608SOL    HW117793   9.567   3.994   0.557  1.9237 -0.2429 -0.4395
 2608SOL    HW217794   9.620   3.848   0.605  1.1055 -0.3632  0.1202
 2609SOL     OW17795   0.437   3.630   0.887  0.4463  0.2992 -0.1853
 2609SOL    HW117796   0.440   3.608   0.789 -2.0797  0.7574 -0.4219
 2609SOL    HW217797   0.394   3.719   0.899 -1.2705 -0.7167  1.4467
 2610SOL     OW17798   1.228   5.439   2.275 -0.3821 -0.2790 -0.3614
 2610SOL    HW117799   1.182   5.440   2.187 -0.5060  1.1660 -0.2932
 2610SOL    HW217800   1.160   5.437   2.348 -0.3657  2.0468 -0.2577
 2611SOL     OW17801   9.489   4.098   0.840  0.3305 -0.6619 -0.4664
 2611SOL    HW117802   9.539   4.053   0.766 -0.3479  0.4527 -1.6290
 2611SOL    HW217803   9.555   4.138   0.905  0.9652  0.1479 -1.5856
 2612SOL     OW17804   3.112   7.340   0.262  0.0116 -0.1468 -0.2683
 2612SOL    HW117805   3.153   7.385   0.184  1.0028  0.1578  0.4259
 2612SOL    HW217806   3.031   7.390   0.291 -1.4033 -1.2339 -2.1834
 2613SOL     OW17807   0.112   4.498   1.256 -0.4622 -0.1957  0.2280
 2613SOL    HW117808   0.176   4.574   1.248  0.2584 -0.7139  0.9237
 2613SOL    HW217809   0.035   4.512   1.195 -0.0759  0.8373 -0.0251
 2614SOL     OW17810   0.941   4.954   0.932  0.2231  0.1340 -0.3946
 2614SOL    HW117811   0.860   4.985   0.882 -0.5361  0.4475  0.9947
 2614SOL    HW217812   1.023   4.990   0.887 -0.3511 -0.7555 -2.2165
 2615SOL     OW17813   0.766   3.856   1.972  0.3635 -0.1509  0.3111
 2615SOL    HW117814   0.831   3.799   1.922  1.0506  1.1992 -0.3585
 2615SOL    HW217815   0.791   3.952   1.962 -1.9334  0.4358 -0.2655
 2616SOL     OW17816   3.278   8.851   0.151 -0.8167 -0.4051  0.3884
 2616SOL    HW117817   3.183   8.854   0.120 -0.5597 -0.3488 -0.4259
 2616SOL    HW217818   3.324   8.775   0.104 -0.2789  0.0128  0.2465
 2617SOL     OW17819   2.455   1.663   0.122  0.4689 -0.2786  0.6479
 2617SOL    HW117820   2.368   1.682   0.168  0.1912 -0.2585  0.1239
 2617SOL    HW217821   2.442   1.587   0.058  1.1286 -1.0490  1.4235
 2618SOL     OW17822   2.449   4.091   2.540 -0.6549 -0.0526 -0.1305
 2618SOL    HW117823   2.478   4.001   2.510  1.0475  0.0479  1.1785
 2618SOL    HW217824   2.458   4.098   2.639  0.2802  1.9187 -0.3289
 2619SOL     OW17825   1.528   1.789   1.220  0.0167 -0.2332 -0.3626
 2619SOL    HW117826   1.560   1.820   1.310 -3.6592 -0.7860  1.2560
 2619SOL    HW217827   1.532   1.689   1.216  0.1254 -0.2100 -0.7805
 2620SOL     OW17828   4.332   1.206   0.190  0.0430 -0.3159  0.3678
 2620SOL    HW117829   4.268   1.178   0.262 -0.3686 -1.3193 -0.3616
 2620SOL    HW217830   4.385   1.285   0.220 -1.0312  0.0702  1.2713
 2621SOL     OW17831   4.786   3.366   1.212 -0.0689 -0.2168  0.2209
 2621SOL    HW117832   4.830   3.379   1.301  1.7983  0.6033 -0.7863
 2621SOL    HW217833   4.699   3.416   1.210 -0.0538 -0.1359  1.5281
 2622SOL     OW17834   2.727   2.583   0.647  0.2087  0.5478  0.1091
 2622SOL    HW117835   2.742   2.567   0.549  0.3003  2.1882 -0.1629
 2622SOL    HW217836   2.731   2.496   0.696 -1.3347 -0.4821 -1.5375
 2623SOL     OW17837   2.790   2.265   1.190  0.1990 -0.4134  0.4052
 2623SOL    HW117838   2.839   2.326   1.252  1.4625 -1.5160  0.5141
 2623SOL    HW217839   2.724   2.211   1.241  1.2764 -1.3566  0.7992
 2624SOL     OW17840   9.482   4.464   0.118  0.2667  1.1599 -0.0832
 2624SOL    HW117841   9.509   4.494   0.210 -0.4500  1.6160 -0.0199
 2624SOL    HW217842   9.439   4.540   0.070 -1.2728  0.3231 -0.0368
 2625SOL     OW17843   1.791   0.100   0.856 -0.1306 -0.0309  0.0688
 2625SOL    HW117844   1.802   0.029   0.787 -4.7042 -0.4301 -0.3679
 2625SOL    HW217845   1.749   0.181   0.814 -0.0956  0.8627  1.7315
 2626SOL     OW17846   4.509   3.246   0.808 -0.4199  0.2041 -0.3042
 2626SOL    HW117847   4.599   3.214   0.779 -0.4700  0.4923 -0.7976
 2626SOL    HW217848   4.441   3.222   0.738 -0.7883 -0.3527  0.2470
 2627SOL     OW17849   2.354   0.839   1.805 -0.1247  0.0338  0.5467
 2627SOL    HW117850   2.437   0.817   1.855 -0.1072 -0.3709  0.3422
 2627SOL    HW217851   2.288   0.764   1.813 -0.5139  0.4005  0.8005
 2628SOL     OW17852   1.156   7.474   0.504  0.0817 -0.6179  0.1500
 2628SOL    HW117853   1.156   7.564   0.547  1.6190 -1.1197  1.2397
 2628SOL    HW217854   1.072   7.462   0.451 -0.3118  1.2936  0.3197
 2629SOL     OW17855   2.490   8.471   2.179 -0.1694  0.1241 -0.0404
 2629SOL    HW117856   2.477   8.555   2.125 -1.6665  0.6152  1.0323
 2629SOL    HW217857   2.493   8.495   2.277 -0.6306 -1.0592  0.2734
 2630SOL     OW17858   3.256   9.128   1.258  0.1828  0.5742  0.7562
 2630SOL    HW117859   3.336   9.076   1.288  0.6582  1.4709  1.0969
 2630SOL    HW217860   3.281   9.186   1.180 -0.0154  1.1665  1.1236
 2631SOL     OW17861   9.581   9.401   0.742  0.1729  0.0441 -0.5714
 2631SOL    HW117862   9.558   9.314   0.699 -0.2026  0.0689 -0.4249
 2631SOL    HW217863   9.624   9.461   0.675 -0.8893  0.2831 -1.0596
 2632SOL     OW17864   3.541   3.991   0.388 -0.5699 -0.1674  0.0449
 2632SOL    HW117865   3.560   3.997   0.291  1.4313  0.7171  0.4716
 2632SOL    HW217866   3.542   4.083   0.429  1.1430 -0.7129  1.3264
 2633SOL     OW17867   1.930   1.494   1.415  0.3427 -0.0109 -0.3490
 2633SOL    HW117868   2.013   1.549   1.409  1.0276 -1.2428 -2.5474
 2633SOL    HW217869   1.950   1.399   1.390 -1.3565 -0.7442  0.8872
 2634SOL     OW17870   9.936   5.077   1.732  0.3399  0.3440  0.1709
 2634SOL    HW117871   9.840   5.050   1.726  0.6121 -0.2296 -2.3826
 2634SOL    HW217872   9.944   5.166   1.777 -1.2635 -0.1506  1.4786
 2635SOL     OW17873   1.814   7.651   1.633  0.2561 -0.9471 -0.0167
 2635SOL    HW117874   1.766   7.634   1.547 -1.1608  3.9746 -0.3244
 2635SOL    HW217875   1.762   7.611   1.709 -1.7671  0.0558 -0.8460
 2636SOL     OW17876   3.514   4.731   1.534 -0.6585 -0.3299 -0.6838
 2636SOL    HW117877   3.465   4.684   1.461  0.4892 -0.3507 -1.4535
 2636SOL    HW217878   3.595   4.678   1.560 -0.3824  0.2926 -0.2582
 2637SOL     OW17879   2.475   8.672   2.029  0.1416  0.6042 -0.6964
 2637SOL    HW117880   2.421   8.701   1.950  1.3347  1.0813 -1.3440
 2637SOL    HW217881   2.524   8.751   2.066  1.7790 -0.1718 -1.1929
 2638SOL     OW17882   9.985   3.340   2.138  0.5162  0.1519 -1.1018
 2638SOL    HW117883  10.075   3.358   2.099  1.8478  0.7876  2.1253
 2638SOL    HW217884   9.985   3.250   2.182 -0.0129  0.7089  0.0533
 2639SOL     OW17885   2.823   5.350   1.809  0.2663 -0.2783 -0.9941
 2639SOL    HW117886   2.847   5.440   1.844  2.4639 -0.6426 -1.4484
 2639SOL    HW217887   2.731   5.325   1.839  1.5091 -0.0274  3.4841
 2640SOL     OW17888   3.481   3.993   2.381 -0.1855  0.0230 -1.1693
 2640SOL    HW117889   3.483   3.978   2.480  2.4546  0.0752 -1.1719
 2640SOL    HW217890   3.417   4.067   2.359 -1.2291 -0.3881  0.4162
 2641SOL     OW17891   1.712   7.705   0.108  0.2626  0.3414 -0.5243
 2641SOL    HW117892   1.791   7.763   0.089 -0.2167  1.0202 -0.4606
 2641SOL    HW217893   1.683   7.718   0.203  0.6880 -0.6541 -0.2536
 2642SOL     OW17894   2.149   6.445   0.052 -0.1746 -0.4147  0.0749
 2642SOL    HW117895   2.082   6.373   0.032 -1.0381  0.6194 -0.8410
 2642SOL    HW217896   2.241   6.406   0.052 -0.4438 -1.1825 -2.4334
 2643SOL     OW17897   3.885   0.956   1.185 -0.4648  0.6195 -0.6501
 2643SOL    HW117898   3.984   0.964   1.191 -0.6351  2.5077  0.1628
 2643SOL    HW217899   3.853   0.880   1.241  0.6081 -0.6735 -1.7778
 2644SOL     OW17900   3.140   3.582   0.093  0.1546 -1.1064 -0.0937
 2644SOL    HW117901   3.130   3.489   0.056  1.6440 -1.1329 -0.4664
 2644SOL    HW217902   3.203   3.580   0.171  1.0602 -0.2483 -0.7895
 2645SOL     OW17903   0.470   4.466   0.999 -0.2027  0.0452  0.5226
 2645SOL    HW117904   0.565   4.486   0.975 -0.2859  1.2620  1.1483
 2645SOL    HW217905   0.412   4.477   0.919 -0.1240  1.6152  0.6532
 2646SOL     OW17906   2.729   6.873   0.693  0.1085 -0.4310 -0.0399
 2646SOL    HW117907   2.789   6.906   0.620  1.0198  2.1236  1.8045
 2646SOL    HW217908   2.778   6.873   0.780 -1.5795 -1.4839  0.9526
 2647SOL     OW17909   2.482   3.526   0.517 -0.4188 -0.4325 -0.1533
 2647SOL    HW117910   2.529   3.456   0.571 -0.1241 -0.6961 -0.7474
 2647SOL    HW217911   2.516   3.616   0.544 -0.3113 -0.5569  0.1397
 2648SOL     OW17912   2.025   3.352   1.563  0.0050  0.2048  0.2746
 2648SOL    HW117913   2.115   3.353   1.607  0.5006  0.2327 -0.7154
 2648SOL    HW217914   2.037   3.347   1.463 -1.0797  0.9022  0.0992
 2649SOL     OW17915   8.776   4.191   2.780  0.3735 -0.5556 -0.5233
 2649SOL    HW117916   8.747   4.198   2.684  1.6365 -0.6910 -0.9350
 2649SOL    HW217917   8.777   4.096   2.808  2.9953 -0.8277 -1.3736
 2650SOL     OW17918   2.252   5.291   0.414  0.0357  0.5839 -0.0208
 2650SOL    HW117919   2.170   5.347   0.418 -1.1059 -1.0550  0.1140
 2650SOL    HW217920   2.278   5.262   0.507 -0.3471 -0.4451 -0.2228
 2651SOL     OW17921   2.753   8.355   2.827  0.0354 -0.7084 -0.2936
 2651SOL    HW117922   2.701   8.440   2.825  0.4136 -0.5006 -1.9666
 2651SOL    HW217923   2.839   8.367   2.776  0.2888 -1.9505 -0.1686
 2652SOL     OW17924   3.922   8.397   2.716  0.3334 -0.2519  0.0285
 2652SOL    HW117925   3.837   8.435   2.679 -0.0458 -1.1681 -0.0711
 2652SOL    HW217926   3.938   8.435   2.808  0.2112  0.4914 -0.2511
 2653SOL     OW17927   0.328   4.914   1.439 -0.3907  0.0042  0.0186
 2653SOL    HW117928   0.317   4.815   1.431  0.7506 -0.1988  0.8345
 2653SOL    HW217929   0.315   4.942   1.534  1.9598  0.2632  0.2929
 2654SOL     OW17930   9.028   4.841   2.125  0.2329 -0.5703 -0.7720
 2654SOL    HW117931   9.005   4.744   2.123  0.8690 -0.7132 -1.2959
 2654SOL    HW217932   8.989   4.886   2.044 -1.0937 -0.1442  0.0784
 2655SOL     OW17933   1.534   7.322   1.131 -0.1999  0.4685 -0.3791
 2655SOL    HW117934   1.487   7.396   1.178  0.6316  1.2310 -0.7442
 2655SOL    HW217935   1.614   7.358   1.082  0.7075 -0.7889  0.1393
 2656SOL     OW17936   0.607   3.599   1.080 -0.0875 -0.1583 -0.1904
 2656SOL    HW117937   0.563   3.633   0.997 -1.6444 -1.0381  0.2606
 2656SOL    HW217938   0.547   3.614   1.159  0.6785 -0.8141  0.5332
 2657SOL     OW17939   2.646   6.091   0.129 -0.0462  0.3382 -0.2107
 2657SOL    HW117940   2.601   6.009   0.093 -0.4120  0.2393  0.4662
 2657SOL    HW217941   2.730   6.065   0.175 -0.8758  0.1853  1.2366
 2658SOL     OW17942   2.951   8.981   1.898 -0.2330 -0.0228  0.1330
 2658SOL    HW117943   2.879   8.948   1.836  0.4102 -0.8183 -0.1959
 2658SOL    HW217944   2.951   9.081   1.898 -1.4669 -0.0091  0.2875
 2659SOL     OW17945   3.673   4.424   0.880 -1.0182  0.1384  0.1840
 2659SOL    HW117946   3.589   4.386   0.843 -0.4191  0.0541 -1.1231
 2659SOL    HW217947   3.692   4.512   0.835 -0.8770  0.5876  1.1106
 2660SOL     OW17948   2.746   6.061   2.662  0.3236 -0.8194  0.3359
 2660SOL    HW117949   2.781   5.968   2.646  0.3139 -0.7787  0.0711
 2660SOL    HW217950   2.715   6.069   2.757  0.3984 -1.0630  0.3820
 2661SOL     OW17951   4.002   0.338   1.611 -0.0129  0.0845 -0.1926
 2661SOL    HW117952   3.916   0.297   1.579  0.0546  0.4487 -0.8420
 2661SOL    HW217953   4.073   0.324   1.542  0.1364  0.8764 -0.2044
 2662SOL     OW17954   2.519   8.781   2.586  0.0420 -0.0720  0.3682
 2662SOL    HW117955   2.588   8.837   2.541 -1.8024  0.6277 -1.6895
 2662SOL    HW217956   2.443   8.838   2.616 -0.8061 -1.1594  0.3423
 2663SOL     OW17957   3.320   5.029   2.302 -0.7483  0.0233  0.1211
 2663SOL    HW117958   3.356   5.122   2.308  0.8142 -0.6695  2.0101
 2663SOL    HW217959   3.325   4.997   2.207  2.0943  0.5570  0.0485
 2664SOL     OW17960   0.570   6.400   2.414  0.9096 -0.0427  0.0173
 2664SOL    HW117961   0.589   6.457   2.335 -0.1874  1.0203  0.5066
 2664SOL    HW217962   0.538   6.310   2.383 -1.4464  1.0232 -0.7763
 2665SOL     OW17963   3.867   8.701   0.290 -0.1082  0.1397 -0.1921
 2665SOL    HW117964   3.857   8.695   0.390 -1.5655 -0.5040 -0.3574
 2665SOL    HW217965   3.946   8.648   0.261 -0.5736 -0.9357  0.4741
 2666SOL     OW17966   0.758   5.212   1.132  0.3712  0.0964  0.2760
 2666SOL    HW117967   0.725   5.263   1.053 -1.1813  0.6213  1.2497
 2666SOL    HW217968   0.682   5.163   1.175  0.7399  1.5582  2.7257
 2667SOL     OW17969   1.534   5.201   0.918  0.2393 -0.4282  0.8355
 2667SOL    HW117970   1.605   5.270   0.915  0.6432 -0.8800 -0.0470
 2667SOL    HW217971   1.446   5.244   0.941  0.7550  0.1496  1.7580
 2668SOL     OW17972   3.813   3.886   2.066 -0.3080 -0.1018  0.2154
 2668SOL    HW117973   3.838   3.973   2.022 -1.2499  0.3342  0.5333
 2668SOL    HW217974   3.764   3.829   2.000 -0.0534 -0.2216  0.1301
 2669SOL     OW17975   4.141   4.303   1.356 -0.2357 -0.2503  0.8767
 2669SOL    HW117976   4.195   4.381   1.323 -1.3541  0.2988  0.2850
 2669SOL    HW217977   4.147   4.298   1.455 -1.0544  1.3004  1.0285
 2670SOL     OW17978   3.927   8.703   2.485  0.5078  0.5533 -0.3465
 2670SOL    HW117979   3.973   8.691   2.397  0.2483  1.0557 -0.5541
 2670SOL    HW217980   3.832   8.730   2.470  1.3767  4.1133  0.0695
 2671SOL     OW17981   0.836   3.865   1.089  0.1005 -0.6338 -0.6388
 2671SOL    HW117982   0.787   3.899   1.170  0.5279  2.2878 -1.5341
 2671SOL    HW217983   0.773   3.812   1.033 -1.4883  1.1394 -0.6238
 2672SOL     OW17984   2.832   5.458   0.724 -0.1210  0.1217  0.2920
 2672SOL    HW117985   2.917   5.503   0.696  0.1215 -0.6896 -0.3088
 2672SOL    HW217986   2.764   5.469   0.652 -0.0635 -0.4534  0.1464
 2673SOL     OW17987   4.061   3.741   0.732  0.5741 -0.1707 -0.1857
 2673SOL    HW117988   4.085   3.838   0.722 -1.4037  0.3358 -0.2517
 2673SOL    HW217989   4.069   3.715   0.828 -2.9386  1.2251  0.5611
 2674SOL     OW17990   4.145   4.360   1.620 -0.3129  0.3801 -0.0718
 2674SOL    HW117991   4.144   4.458   1.641 -2.0001  0.2096  0.7275
 2674SOL    HW217992   4.207   4.314   1.683  0.6219  0.9534 -0.5633
 2675SOL     OW17993   4.011   1.439   1.889  0.9970 -0.4188 -0.3885
 2675SOL    HW117994   4.090   1.454   1.949  1.3872 -2.2339 -0.4035
 2675SOL    HW217995   3.940   1.391   1.940  1.1794 -1.6350 -1.2375
 2676SOL     OW17996   0.317   3.331   0.892  0.8242 -0.0879  0.8349
 2676SOL    HW117997   0.360   3.283   0.815  2.9723  1.0231  1.3054
 2676SOL    HW217998   0.357   3.422   0.901 -0.7175  0.4842  2.1407
 2677SOL     OW17999   2.670   3.337   0.330 -0.6928  0.1265 -0.6880
 2677SOL    HW118000   2.576   3.340   0.365 -0.5604  1.1382 -0.3896
 2677SOL    HW218001   2.709   3.247   0.348 -1.2664  0.0257  0.1134
 2678SOL     OW18002   3.190   8.611   1.648 -0.5443  0.1920  0.6516
 2678SOL    HW118003   3.260   8.651   1.707 -2.7586  1.4002  2.5598
 2678SOL    HW218004   3.217   8.519   1.621  2.3024  1.0826  0.3679
 2679SOL     OW18005   0.063   4.569   0.606  0.0225 -0.3856 -0.1658
 2679SOL    HW118006   0.096   4.593   0.514 -0.4964  1.1789  0.0397
 2679SOL    HW218007   0.049   4.470   0.611  0.4291 -0.5377 -1.6585
 2680SOL     OW18008   4.080   1.857   0.540  0.4392 -0.0462 -0.7471
 2680SOL    HW118009   3.993   1.842   0.587  0.7061  2.2687  0.5756
 2680SOL    HW218010   4.063   1.883   0.445 -0.3262  0.5129 -0.4626
 2681SOL     OW18011   1.434   4.599   0.044  0.5540 -0.1368 -1.0333
 2681SOL    HW118012   1.452   4.649   0.128 -1.2390 -0.5867 -0.3508
 2681SOL    HW218013   1.466   4.504   0.054 -0.8674 -0.5546 -0.3469
 2682SOL     OW18014   0.949   4.037   0.922 -0.1056  0.0101 -0.1058
 2682SOL    HW118015   0.878   4.078   0.865  0.4671  0.4696 -0.4929
 2682SOL    HW218016   0.906   3.989   0.999 -0.7934  1.5503  0.5124
 2683SOL     OW18017   0.136   4.152   2.758  0.3484 -0.3740 -0.6342
 2683SOL    HW118018   0.193   4.198   2.827 -0.6270  1.2950 -0.9057
 2683SOL    HW218019   0.194   4.118   2.685  1.0256  1.4526 -0.9889
 2684SOL     OW18020   1.511   4.180   0.783  0.5394 -0.4529  0.2136
 2684SOL    HW118021   1.509   4.275   0.753  0.3816  0.3807  2.8173
 2684SOL    HW218022   1.445   4.127   0.728 -0.8377  1.3328  0.1034
 2685SOL     OW18023   2.534   8.769   0.193  0.1697  0.3746 -0.4941
 2685SOL    HW118024   2.495   8.707   0.261 -0.0621  0.8600 -0.1876
 2685SOL    HW218025   2.523   8.863   0.223  3.2932  0.4597  0.5014
 2686SOL     OW18026   4.535   1.088   1.796  0.1194 -0.8560 -0.4936
 2686SOL    HW118027   4.449   1.102   1.843  0.7207  1.1936  0.0697
 2686SOL    HW218028   4.518   1.052   1.704 -1.4999  1.5019 -1.1743
 2687SOL     OW18029   9.838   3.568   0.460  0.3945  0.6120  0.1107
 2687SOL    HW118030   9.790   3.585   0.374  0.8731  1.0811 -0.0660
 2687SOL    HW218031   9.795   3.620   0.534  2.1683  3.0686 -0.5179
 2688SOL     OW18032   2.623   8.049   0.375  0.3283  0.0316  0.5159
 2688SOL    HW118033   2.569   7.975   0.334  2.3105 -1.4944  0.5883
 2688SOL    HW218034   2.662   8.105   0.302 -1.6301  1.3944  0.4659
 2689SOL     OW18035   9.639   2.431   1.527  0.1499 -0.3554  0.2290
 2689SOL    HW118036   9.637   2.436   1.626  2.3516 -0.3423  0.3083
 2689SOL    HW218037   9.734   2.430   1.496 -0.4887  2.6062 -2.0233
 2690SOL     OW18038   1.499   4.288   2.628  0.7142 -0.0876 -0.2281
 2690SOL    HW118039   1.551   4.331   2.702 -1.4501  1.1355  0.6579
 2690SOL    HW218040   1.561   4.259   2.555  2.6550  0.7714  1.0391
 2691SOL     OW18041   3.044   4.588   0.727  0.5615  0.8224 -0.6192
 2691SOL    HW118042   3.140   4.588   0.755  0.4568  0.0887 -0.2356
 2691SOL    HW218043   3.034   4.531   0.646  0.3658  0.4888 -0.3591
 2692SOL     OW18044   3.574   1.963   0.191 -0.2988 -0.2515  0.6595
 2692SOL    HW118045   3.489   1.997   0.152 -1.2546  0.4648  3.2757
 2692SOL    HW218046   3.572   1.974   0.290  2.1856 -1.7157  0.9135
 2693SOL     OW18047   1.580   1.506   2.282  0.9352  0.1426  0.0984
 2693SOL    HW118048   1.648   1.561   2.328  0.6309  0.3905  0.2527
 2693SOL    HW218049   1.598   1.409   2.299  0.1746  0.2626  1.6748
 2694SOL     OW18050   2.470   3.301   1.921  0.2683  0.4521  0.6317
 2694SOL    HW118051   2.493   3.381   1.977  0.1081  0.5933  0.4966
 2694SOL    HW218052   2.389   3.322   1.866  0.3008  0.2378  0.5057
 2695SOL     OW18053   3.281   8.333   2.146  0.2750 -0.4018 -0.0379
 2695SOL    HW118054   3.192   8.297   2.173  0.6846 -0.0135  1.9410
 2695SOL    HW218055   3.317   8.281   2.069 -2.0278 -0.0253 -1.4146
 2696SOL     OW18056   0.890   2.533   1.094  0.6716 -0.2341  0.2258
 2696SOL    HW118057   0.867   2.464   1.025 -0.6186 -0.0182  0.4349
 2696SOL    HW218058   0.986   2.559   1.084  0.9986 -1.5951 -0.2591
 2697SOL     OW18059   3.006   9.855   2.183 -0.6948  0.4796 -0.4018
 2697SOL    HW118060   3.085   9.863   2.244 -0.0259 -1.0894 -1.0537
 2697SOL    HW218061   2.925   9.830   2.237 -0.4050  0.4766  0.0380
 2698SOL     OW18062   1.399   4.726   0.853  0.2936 -0.1758  0.5834
 2698SOL    HW118063   1.350   4.687   0.931 -1.4013  0.6743 -0.0184
 2698SOL    HW218064   1.344   4.714   0.770  0.5417  1.8732  0.0905
 2699SOL     OW18065   1.992   6.196   0.785  0.9662  0.2585  0.5439
 2699SOL    HW118066   2.075   6.206   0.731  0.7281 -1.5856 -0.1750
 2699SOL    HW218067   1.994   6.110   0.836 -0.5873  0.0952  0.3606
 2700SOL     OW18068   9.147   5.194   1.619 -0.0062 -0.2244  0.0079
 2700SOL    HW118069   9.090   5.257   1.565 -2.3855 -1.0935  1.4512
 2700SOL    HW218070   9.098   5.108   1.633  1.4330 -0.7811  1.7784
 2701SOL     OW18071   2.880   1.751   2.146 -0.3937  0.2683 -0.2793
 2701SOL    HW118072   2.937   1.671   2.165 -0.0640  0.3436 -0.9810
 2701SOL    HW218073   2.892   1.818   2.219  0.8772  0.5466 -0.7314
 2702SOL     OW18074   3.347   5.673   2.348 -0.5079  0.1471  0.4078
 2702SOL    HW118075   3.373   5.720   2.432 -1.0347 -0.3049  0.8269
 2702SOL    HW218076   3.418   5.607   2.324 -0.6259 -0.1343  0.8177
 2703SOL     OW18077   1.683   2.809   2.697 -0.4906  0.8227 -0.0494
 2703SOL    HW118078   1.597   2.760   2.710 -0.3987  1.0151  1.3518
 2703SOL    HW218079   1.688   2.843   2.603 -1.4932 -0.0329 -0.4245
 2704SOL     OW18080   0.888   3.544   2.801  0.6923  0.3208 -0.1822
 2704SOL    HW118081   0.828   3.495   2.738  0.4221  2.1003 -1.3650
 2704SOL    HW218082   0.969   3.576   2.752  1.0691  0.6663  0.6531
 2705SOL     OW18083   3.759   4.185   0.055 -0.4770 -0.9631 -0.4042
 2705SOL    HW118084   3.711   4.114   0.107  0.6164 -1.3839  0.0516
 2705SOL    HW218085   3.827   4.229   0.114  0.1877 -0.8623 -1.2350
 2706SOL     OW18086   3.371   7.881   1.718 -0.0546 -0.6145 -0.3512
 2706SOL    HW118087   3.359   7.819   1.641  0.3263 -1.1249 -0.0067
 2706SOL    HW218088   3.296   7.947   1.720 -0.4157 -1.0089 -0.7781
 2707SOL     OW18089   3.026   7.137   1.919 -0.1366 -0.0748 -0.5150
 2707SOL    HW118090   3.010   7.191   1.837 -0.4114 -1.5479 -1.4492
 2707SOL    HW218091   2.953   7.069   1.930 -0.2458  0.2721  1.0920
 2708SOL     OW18092   3.142   3.723   0.703  0.0253 -0.2417  0.1379
 2708SOL    HW118093   3.235   3.752   0.726  0.5847 -1.2855 -0.7648
 2708SOL    HW218094   3.090   3.801   0.669  1.2566 -0.0918 -1.4500
 2709SOL     OW18095   9.069   3.289   0.979 -0.8341 -0.4592 -0.1860
 2709SOL    HW118096   9.163   3.280   0.946  0.5384  1.8293  2.8405
 2709SOL    HW218097   9.061   3.243   1.068 -2.4066 -0.1211 -0.1417
 2710SOL     OW18098   0.169   5.302   1.247 -0.3949 -0.2774  0.6217
 2710SOL    HW118099   0.212   5.381   1.202  0.4446 -0.4763  1.0690
 2710SOL    HW218100   0.079   5.329   1.280 -0.2379  0.4220  0.5099
 2711SOL     OW18101   2.514   7.802   2.641 -0.1033  0.1215  0.8089
 2711SOL    HW118102   2.414   7.795   2.645  0.0496 -1.5403  2.0238
 2711SOL    HW218103   2.550   7.737   2.575  0.1450  1.0886 -0.0149
 2712SOL     OW18104   3.569   4.752   0.090  0.6489  0.0509  0.1020
 2712SOL    HW118105   3.562   4.652   0.094  1.0172 -0.0176 -1.0060
 2712SOL    HW218106   3.641   4.782   0.152 -0.9188 -0.1810  2.1347
 2713SOL     OW18107   2.359   6.279   1.199 -0.3135 -0.2682  0.1331
 2713SOL    HW118108   2.298   6.355   1.180  1.3216  1.3690  1.3323
 2713SOL    HW218109   2.383   6.278   1.296  0.1602 -1.9504  0.0175
 2714SOL     OW18110   0.719   6.179   0.290 -0.1619  0.4688  0.2525
 2714SOL    HW118111   0.767   6.267   0.287  1.1862 -0.1174  3.2077
 2714SOL    HW218112   0.698   6.155   0.385 -0.5629 -2.3826 -0.5010
 2715SOL     OW18113   1.189   3.920   1.012 -0.5466  0.1944 -0.5320
 2715SOL    HW118114   1.089   3.927   1.005 -0.7043 -3.0212 -2.8010
 2715SOL    HW218115   1.213   3.874   1.097 -0.9944  0.7047 -0.1244
 2716SOL     OW18116   1.467   2.355   1.730 -0.3220 -0.7313 -0.3792
 2716SOL    HW118117   1.476   2.421   1.656 -0.9865 -1.6055 -1.2443
 2716SOL    HW218118   1.473   2.403   1.818 -0.7858  0.4721 -0.9967
 2717SOL     OW18119   1.246   2.693   1.714  0.0291  0.0549  0.3996
 2717SOL    HW118120   1.314   2.668   1.645  1.1252  0.8658  1.1704
 2717SOL    HW218121   1.155   2.693   1.673  0.4535 -1.2491 -0.5954
 2718SOL     OW18122   1.878   9.933   1.279  0.1555  0.2923 -0.0505
 2718SOL    HW118123   1.837   9.990   1.208  0.8544 -0.2536 -0.9012
 2718SOL    HW218124   1.977   9.928   1.266  0.2454 -0.1410  0.7213
 2719SOL     OW18125   1.991   4.284   0.829 -0.1305 -0.0721 -0.6785
 2719SOL    HW118126   1.959   4.338   0.906 -0.0114  2.5423 -2.4083
 2719SOL    HW218127   1.916   4.227   0.795 -0.3115 -0.8855  1.0364
 2720SOL     OW18128   1.656   6.744   1.137  0.1953 -0.6616  0.3326
 2720SOL    HW118129   1.559   6.720   1.136 -0.0798  0.4479 -1.1486
 2720SOL    HW218130   1.708   6.671   1.180 -1.3621 -1.0089  1.6908
 2721SOL     OW18131   0.808   6.978   1.881 -0.0315 -0.0830  0.0376
 2721SOL    HW118132   0.903   6.949   1.890 -0.5974 -1.2968  2.4299
 2721SOL    HW218133   0.755   6.942   1.957 -2.0594  2.1006 -0.2992
 2722SOL     OW18134   0.514   2.986   2.657  0.2549 -0.3829 -0.4350
 2722SOL    HW118135   0.474   3.068   2.617 -0.8617  0.1295  1.6262
 2722SOL    HW218136   0.607   2.973   2.622  0.6100  2.0249 -0.4557
 2723SOL     OW18137   0.765   2.982   1.107  0.8317 -0.6894 -0.4231
 2723SOL    HW118138   0.801   3.065   1.149 -1.2838  0.0950 -0.0816
 2723SOL    HW218139   0.823   2.956   1.030  1.7820  0.8364 -0.2505
 2724SOL     OW18140   0.572   2.723   1.470 -0.2731 -0.3251 -0.2227
 2724SOL    HW118141   0.628   2.723   1.553  0.3893 -1.0249 -0.6672
 2724SOL    HW218142   0.477   2.743   1.494  0.0110 -0.0073  0.6401
 2725SOL     OW18143   1.449   7.523   1.954  0.3725 -0.4835 -0.4250
 2725SOL    HW118144   1.427   7.455   2.024 -1.5010  0.5744  0.0677
 2725SOL    HW218145   1.490   7.603   1.997 -0.5341  0.0588 -0.5516
 2726SOL     OW18146   3.478   8.015   1.121 -0.4356 -0.2684 -0.3887
 2726SOL    HW118147   3.558   8.074   1.107 -1.0550  0.5749 -0.4045
 2726SOL    HW218148   3.479   7.980   1.214 -0.3035  0.1391 -0.2319
 2727SOL     OW18149   4.759   3.046   0.270  0.9115  0.5394 -0.5964
 2727SOL    HW118150   4.719   2.967   0.224  1.0169  0.5894 -0.7753
 2727SOL    HW218151   4.825   3.090   0.209 -1.3372  2.5516 -1.6233
 2728SOL     OW18152   1.901   7.649   0.820  0.0441 -0.6335 -0.2124
 2728SOL    HW118153   1.857   7.668   0.732  0.1123 -0.9609 -0.3170
 2728SOL    HW218154   1.916   7.550   0.829 -0.6595 -0.6837  0.4876
 2729SOL     OW18155   1.893   3.787   2.089 -0.0644  0.4072  0.2815
 2729SOL    HW118156   1.868   3.864   2.148 -1.5338  0.7185 -0.7251
 2729SOL    HW218157   1.921   3.820   1.999  1.3293 -0.1262  0.4956
 2730SOL     OW18158   1.492   0.246   1.363 -0.1103  1.2628 -0.5185
 2730SOL    HW118159   1.427   0.203   1.300  0.1894  0.3435 -0.2167
 2730SOL    HW218160   1.576   0.267   1.314 -0.9036  3.1727 -1.0970
 2731SOL     OW18161   3.665   7.939   0.197  0.4065  0.5077  0.3527
 2731SOL    HW118162   3.699   7.900   0.283  0.3640  0.7608  0.4861
 2731SOL    HW218163   3.675   7.872   0.123 -1.5082 -0.4918  0.9642
 2732SOL     OW18164   1.821   8.518   0.694 -0.5691 -0.3389 -0.5800
 2732SOL    HW118165   1.851   8.462   0.616  2.0883 -0.6346  0.5679
 2732SOL    HW218166   1.761   8.463   0.752 -1.1631 -0.6875 -1.5001
 2733SOL     OW18167   1.772   4.099   0.767  0.6383 -0.3634 -0.0193
 2733SOL    HW118168   1.681   4.139   0.766 -0.4831 -2.8149  1.3572
 2733SOL    HW218169   1.778   4.029   0.838  2.8387 -1.9480 -1.6780
 2734SOL     OW18170   1.123   2.522   0.941 -0.2891 -0.6269  0.0453
 2734SOL    HW118171   1.127   2.433   0.896 -1.8636 -0.3335 -0.7371
 2734SOL    HW218172   1.206   2.536   0.995 -0.1176 -2.6373  0.3434
 2735SOL     OW18173   2.990   8.025   0.095 -0.4646 -0.0738 -0.2259
 2735SOL    HW118174   2.924   8.011   0.021 -0.8752 -1.1935  0.3425
 2735SOL    HW218175   3.078   8.053   0.056 -1.7344  3.2920 -0.8877
 2736SOL     OW18176   0.865   6.401   0.408  0.1509  0.3042 -0.1682
 2736SOL    HW118177   0.926   6.342   0.461  1.1026  0.7722 -0.7310
 2736SOL    HW218178   0.788   6.429   0.465 -0.5862 -1.8984 -0.0482
 2737SOL     OW18179   2.915   8.325   0.387  0.3399 -0.5872 -0.1265
 2737SOL    HW118180   2.956   8.266   0.456  0.9085 -0.5541 -0.4305
 2737SOL    HW218181   2.843   8.275   0.339 -0.2379 -0.5251  0.6614
 2738SOL     OW18182   9.019   4.129   0.785  0.0135  0.2848 -0.1640
 2738SOL    HW118183   8.982   4.186   0.712  0.0380  0.5184  0.0031
 2738SOL    HW218184   9.003   4.032   0.764 -1.0548  0.4005  0.0949
 2739SOL     OW18185   2.954   9.651   1.343 -0.3874  0.0637  0.6300
 2739SOL    HW118186   2.895   9.583   1.299 -1.2598  0.4960  1.1185
 2739SOL    HW218187   2.903   9.736   1.356  0.7874  0.9137 -0.2315
 2740SOL     OW18188   4.440   0.941   1.591  0.5321  0.0930 -0.3155
 2740SOL    HW118189   4.467   0.858   1.542  0.0750 -0.2697  0.0403
 2740SOL    HW218190   4.341   0.953   1.585  0.5308  0.3166  0.0880
 2741SOL     OW18191   3.888   0.883   2.238  0.5942 -0.3125 -0.3552
 2741SOL    HW118192   3.831   0.807   2.207 -1.1087 -0.0485  1.9976
 2741SOL    HW218193   3.964   0.848   2.292  0.1232 -0.4061  0.2568
 2742SOL     OW18194   3.825   1.830   0.671 -0.2158 -0.3744 -0.3228
 2742SOL    HW118195   3.777   1.758   0.620  1.1491 -0.4754 -1.5082
 2742SOL    HW218196   3.823   1.809   0.768 -1.2213 -1.1780 -0.5063
 2743SOL     OW18197   0.822   4.191   1.701  0.1651 -0.3314  0.3605
 2743SOL    HW118198   0.735   4.235   1.723 -0.6073 -0.9821 -1.2650
 2743SOL    HW218199   0.862   4.235   1.620 -0.6353 -2.5586 -1.3186
 2744SOL     OW18200   1.174   4.481   1.913 -0.3985  0.3035 -0.0383
 2744SOL    HW118201   1.190   4.441   2.004  1.4998 -1.1493 -0.9899
 2744SOL    HW218202   1.219   4.570   1.907 -0.2606  0.2574  0.3178
 2745SOL     OW18203   2.213   5.668   0.021 -0.1830 -0.1020  0.3484
 2745SOL    HW118204   2.201   5.766   0.004  1.9038  0.3650  1.3519
 2745SOL    HW218205   2.249   5.655   0.113  0.4266 -1.7556 -0.1127
 2746SOL     OW18206   4.058   2.993   0.625 -0.0495 -0.0938 -0.3218
 2746SOL    HW118207   4.075   3.051   0.705  1.9043 -0.5433 -0.3762
 2746SOL    HW218208   4.039   2.900   0.655 -0.6300  0.0234 -0.3286
 2747SOL     OW18209   2.490   3.870   2.371  0.2791  0.1693 -0.7031
 2747SOL    HW118210   2.576   3.910   2.338  0.5919  1.2379  1.2923
 2747SOL    HW218211   2.507   3.775   2.398  0.8270  0.3430 -0.4079
 2748SOL     OW18212   1.373   5.043   0.182  0.3448  0.2353  0.2987
 2748SOL    HW118213   1.348   4.964   0.126 -1.6931 -1.2038  3.1288
 2748SOL    HW218214   1.394   5.121   0.122 -2.0979 -1.1093 -2.4485
 2749SOL     OW18215   3.520   2.802   0.259  0.7047  0.0785 -0.0532
 2749SOL    HW118216   3.539   2.900   0.270  1.6498  0.0568 -1.2763
 2749SOL    HW218217   3.593   2.749   0.302  0.4180 -0.0733  0.2389
 2750SOL     OW18218   9.185   3.988   1.452  0.3169  0.7275  0.4050
 2750SOL    HW118219   9.225   3.942   1.532  3.0938  2.7203  0.2242
 2750SOL    HW218220   9.144   4.075   1.480 -0.7152  0.3809 -0.0004
 2751SOL     OW18221   2.920   0.503   0.355  0.2542 -0.0974 -0.0075
 2751SOL    HW118222   2.994   0.446   0.321 -2.6341 -3.1073 -1.5404
 2751SOL    HW218223   2.930   0.517   0.453  1.8615 -1.9219  0.0988
 2752SOL     OW18224   2.009   1.594   0.610 -0.1395  0.3404  0.5284
 2752SOL    HW118225   2.098   1.572   0.650 -1.6945 -1.1971  3.2775
 2752SOL    HW218226   1.968   1.511   0.573 -0.2603  1.1264 -1.1366
 2753SOL     OW18227   0.552   4.725   2.519 -0.4191 -0.2384 -0.2899
 2753SOL    HW118228   0.476   4.790   2.528 -0.4177  0.0203 -1.9649
 2753SOL    HW218229   0.542   4.674   2.433  0.0336 -1.8848  0.5988
 2754SOL     OW18230   1.980   5.030   0.124 -1.0133 -0.0350  0.5700
 2754SOL    HW118231   2.071   5.062   0.149 -0.2137 -1.0667 -0.9113
 2754SOL    HW218232   1.955   4.953   0.183 -0.4336 -0.4911  0.2309
 2755SOL     OW18233   2.026   8.691   0.731 -0.2758  0.3619 -0.4790
 2755SOL    HW118234   1.931   8.660   0.734  0.3055 -1.3746  2.5327
 2755SOL    HW218235   2.085   8.615   0.704  0.8406 -0.5311  3.9672
 2756SOL     OW18236   2.789   7.205   0.890  0.1245  0.2206 -0.4035
 2756SOL    HW118237   2.702   7.200   0.939 -0.7212  2.8439 -1.5547
 2756SOL    HW218238   2.860   7.239   0.952  0.4372 -2.1937  0.6152
 2757SOL     OW18239   2.188   6.960   0.228 -0.1290 -0.5958 -0.5846
 2757SOL    HW118240   2.184   6.869   0.186 -1.7426  0.0793 -1.9699
 2757SOL    HW218241   2.203   6.951   0.327  0.9967 -2.3031 -0.8962
 2758SOL     OW18242   0.239   2.905   1.093 -0.1236  0.3064 -0.0098
 2758SOL    HW118243   0.178   2.836   1.131 -0.3435  1.0572  1.0146
 2758SOL    HW218244   0.308   2.861   1.035 -0.3925 -0.7422  0.4637
 2759SOL     OW18245   0.959   2.709   1.999  1.6228 -0.1121  0.5953
 2759SOL    HW118246   0.963   2.774   1.923  0.6421 -2.7908 -1.8439
 2759SOL    HW218247   0.867   2.709   2.039  0.7413 -2.0038 -1.3178
 2760SOL     OW18248   3.681   0.518   1.817  0.0702  0.3974  0.6772
 2760SOL    HW118249   3.694   0.563   1.729 -1.8048 -1.2996 -0.5051
 2760SOL    HW218250   3.769   0.493   1.856  0.9060  1.0434 -0.7680
 2761SOL     OW18251   3.617   8.130   0.506 -1.4027  0.3829  0.3363
 2761SOL    HW118252   3.582   8.197   0.440 -1.8549 -1.1664 -1.0138
 2761SOL    HW218253   3.554   8.123   0.583 -1.7375  0.9354  0.1137
 2762SOL     OW18254   3.888   2.962   0.974 -0.3623  0.4325 -0.4643
 2762SOL    HW118255   3.873   3.000   1.065  1.4860  0.3931 -0.1254
 2762SOL    HW218256   3.841   2.874   0.967  1.3171 -0.6296  1.2365
 2763SOL     OW18257   1.265   5.786   0.102  0.2408  0.5362  0.9722
 2763SOL    HW118258   1.290   5.765   0.007 -1.3458  1.7255  0.2689
 2763SOL    HW218259   1.263   5.886   0.114  0.3005  0.3859  2.2161
 2764SOL     OW18260   4.508   4.020   0.434  0.7395  0.0198  0.0585
 2764SOL    HW118261   4.562   3.945   0.395  0.0692 -1.2046  1.4395
 2764SOL    HW218262   4.526   4.026   0.532 -1.1464  0.0125  0.4162
 2765SOL     OW18263   2.047   9.648   0.648  0.2683  0.3891 -0.3834
 2765SOL    HW118264   2.018   9.633   0.554  2.8831 -0.7098 -1.0309
 2765SOL    HW218265   2.084   9.740   0.658  2.0113 -0.2458 -0.9522
 2766SOL     OW18266   0.859   3.455   2.232 -0.3493 -0.3133 -0.1201
 2766SOL    HW118267   0.842   3.546   2.193 -0.9956 -1.1678 -1.8699
 2766SOL    HW218268   0.772   3.407   2.243  0.1737 -1.5340 -1.2277
 2767SOL     OW18269   3.208   2.719   2.809 -0.5646  0.5696 -0.2984
 2767SOL    HW118270   3.180   2.782   2.736  0.0622  1.0399 -0.1466
 2767SOL    HW218271   3.226   2.772   2.892 -1.3113  0.0310  0.2111
 2768SOL     OW18272   3.847   2.618   2.002  1.2568  0.1870  0.2718
 2768SOL    HW118273   3.904   2.562   2.062  1.7266  3.3009  2.8526
 2768SOL    HW218274   3.897   2.637   1.917  2.1004 -1.1821  0.4478
 2769SOL     OW18275   2.852   6.863   0.918 -0.3566  0.7447 -0.2675
 2769SOL    HW118276   2.828   6.883   1.013  0.1882  0.5740 -0.0943
 2769SOL    HW218277   2.947   6.889   0.901  1.5175 -4.6720  0.8947
 2770SOL     OW18278   2.578   2.571   2.589  0.7306 -0.0608 -0.0496
 2770SOL    HW118279   2.630   2.604   2.510 -0.7934  3.7469  0.4230
 2770SOL    HW218280   2.518   2.497   2.560  3.1022 -1.4911 -1.5389
 2771SOL     OW18281   3.229   1.718   1.773  0.4671 -0.2347  0.1138
 2771SOL    HW118282   3.171   1.661   1.831 -1.0489 -0.3104 -1.4365
 2771SOL    HW218283   3.287   1.776   1.830 -2.1006  0.8204  1.7236
 2772SOL     OW18284   4.347   3.750   1.092  0.1562  0.2724 -0.1524
 2772SOL    HW118285   4.405   3.669   1.084  0.6393  0.7674 -1.9490
 2772SOL    HW218286   4.405   3.831   1.104 -0.2404  0.5493 -0.1049
 2773SOL     OW18287   9.478   4.132   1.479  0.0438  0.6200 -0.3697
 2773SOL    HW118288   9.560   4.165   1.434 -0.0833  0.8754 -0.4099
 2773SOL    HW218289   9.481   4.156   1.576  1.1929 -1.5517  0.1703
 2774SOL     OW18290   1.093   5.632   1.523  0.1110  0.1854 -0.0851
 2774SOL    HW118291   1.147   5.685   1.588  0.8575 -1.4673  0.6720
 2774SOL    HW218292   1.153   5.597   1.450 -0.7835  2.3894 -1.9397
 2775SOL     OW18293   1.638   1.853   0.714  0.4932 -0.4708  0.0917
 2775SOL    HW118294   1.583   1.930   0.680 -0.2388  0.0239  2.3373
 2775SOL    HW218295   1.734   1.869   0.693  0.4731  1.5737  1.4333
 2776SOL     OW18296   1.666   1.083   2.029 -0.2013  0.2097 -0.8582
 2776SOL    HW118297   1.618   0.995   2.030 -0.3109  0.2664  0.9366
 2776SOL    HW218298   1.671   1.117   1.935  3.3527 -3.5987 -2.2012
 2777SOL     OW18299   2.889   6.914   2.126 -0.0501  0.2232  0.0838
 2777SOL    HW118300   2.985   6.888   2.120 -0.4997 -2.3423  2.7327
 2777SOL    HW218301   2.848   6.911   2.035  2.5205  2.0538 -1.1710
 2778SOL     OW18302   2.899   2.939   1.613  0.4113 -0.5716  0.4025
 2778SOL    HW118303   2.837   2.914   1.687 -0.0612  0.4348  0.3556
 2778SOL    HW218304   2.850   2.937   1.526  0.4251  0.2671  0.3702
 2779SOL     OW18305   3.965   1.429   0.028  0.7134  0.3020  0.9487
 2779SOL    HW118306   3.945   1.519   0.066 -0.0622 -1.1745  4.1317
 2779SOL    HW218307   3.885   1.370   0.035  0.6753 -0.2056 -2.6346
 2780SOL     OW18308   4.318   3.039   2.668 -0.1668 -0.0818 -0.1869
 2780SOL    HW118309   4.240   3.001   2.719  0.2870 -0.2020  0.4270
 2780SOL    HW218310   4.383   3.079   2.732 -0.4894  1.4794 -0.8015
 2781SOL     OW18311   9.964   4.884   1.244  0.1479  0.3870 -0.2836
 2781SOL    HW118312   9.881   4.862   1.295  1.7249  0.0440  2.2532
 2781SOL    HW218313   9.987   4.807   1.184 -0.9442  0.1548 -0.4095
 2782SOL     OW18314   3.317   9.054   2.746 -0.3863 -0.5791 -0.1506
 2782SOL    HW118315   3.226   9.088   2.724 -0.2224  0.9661  1.4136
 2782SOL    HW218316   3.317   9.016   2.839  0.6765 -0.0275  0.0936
 2783SOL     OW18317   1.028   4.990   1.227 -0.0612 -0.2535 -0.1944
 2783SOL    HW118318   1.120   4.956   1.213  1.2279  3.5225 -1.5916
 2783SOL    HW218319   0.980   4.996   1.139 -0.3296  1.1756  0.0232
 2784SOL     OW18320   9.354   5.021   0.831 -0.1480 -0.1105  0.2121
 2784SOL    HW118321   9.403   5.091   0.882 -0.2085 -0.1409  0.3106
 2784SOL    HW218322   9.331   4.944   0.891  2.3536 -1.4703 -0.5104
 2785SOL     OW18323   9.288   3.980   1.792  0.2128  0.3669  0.0204
 2785SOL    HW118324   9.206   3.980   1.850  0.5348 -0.7434  0.4870
 2785SOL    HW218325   9.367   4.007   1.846  0.7917 -2.2392  0.5268
 2786SOL     OW18326   0.689   5.524   0.001  0.0101 -0.7002  0.7195
 2786SOL    HW118327   0.769   5.566   0.044  0.0450 -1.4618  1.4127
 2786SOL    HW218328   0.646   5.590  -0.060  1.2391 -0.3196  0.2412
 2787SOL     OW18329   2.854   2.039   0.377 -0.2492  0.3349 -0.4431
 2787SOL    HW118330   2.928   2.037   0.310  1.6515 -0.2900  1.5811
 2787SOL    HW218331   2.868   1.966   0.444 -2.6433  0.3063  0.0658
 2788SOL     OW18332   3.736   1.609   1.768  0.2532  0.2278  0.4094
 2788SOL    HW118333   3.821   1.558   1.776 -0.7756 -1.5246  0.4160
 2788SOL    HW218334   3.744   1.696   1.816  1.7926 -0.2364  1.0121
 2789SOL     OW18335   2.727   2.819   1.787  0.6553 -0.2084  0.4906
 2789SOL    HW118336   2.668   2.818   1.868 -0.1812  1.5401 -0.0900
 2789SOL    HW218337   2.701   2.744   1.726 -0.3306 -0.0325  0.6893
 2790SOL     OW18338   3.763   1.224   1.504  0.2724  0.4187 -0.1053
 2790SOL    HW118339   3.838   1.277   1.543  1.5157 -1.2352 -0.2122
 2790SOL    HW218340   3.729   1.159   1.572 -0.2701  0.3568 -0.4371
 2791SOL     OW18341   2.085   4.058   1.130  0.0783  0.2681  0.2560
 2791SOL    HW118342   1.998   4.100   1.105 -0.0512 -0.5123 -0.6457
 2791SOL    HW218343   2.086   3.963   1.099  0.5012 -0.3053  1.9493
 2792SOL     OW18344   3.386   4.243   1.369 -0.4560  0.0554 -0.2074
 2792SOL    HW118345   3.388   4.159   1.314 -0.2601  0.1945 -0.4090
 2792SOL    HW218346   3.458   4.240   1.437 -0.0312  0.3509 -0.6392
 2793SOL     OW18347   2.310   5.849   0.926 -0.3058  0.2563  0.3016
 2793SOL    HW118348   2.320   5.891   1.016 -0.6551 -0.2650  0.5892
 2793SOL    HW218349   2.334   5.915   0.855  2.7992 -0.1834  0.8718
 2794SOL     OW18350   2.500   9.372   0.584 -0.5371 -0.1867 -0.1504
 2794SOL    HW118351   2.442   9.453   0.583 -0.7735 -0.3547 -0.0477
 2794SOL    HW218352   2.530   9.353   0.678  1.1549  0.9494 -0.4369
 2795SOL     OW18353   9.157   3.747   2.826 -0.3010 -0.3963 -0.2980
 2795SOL    HW118354   9.074   3.771   2.876  1.3314  2.1727  1.2890
 2795SOL    HW218355   9.203   3.830   2.794  2.7759 -1.6109  0.7327
 2796SOL     OW18356   3.317   2.714   1.592  0.0907 -0.0776  0.0943
 2796SOL    HW118357   3.397   2.685   1.645  0.4695  2.4670  1.0167
 2796SOL    HW218358   3.345   2.734   1.498  0.5921  0.8787  0.4320
 2797SOL     OW18359   2.806   9.881   2.387 -0.0699  0.1213 -0.1035
 2797SOL    HW118360   2.794   9.980   2.376 -0.0348  0.1721  0.2926
 2797SOL    HW218361   2.774   9.854   2.478 -0.2959 -0.2677 -0.2988
 2798SOL     OW18362   1.256   2.985   0.634 -0.2572 -0.2304 -0.3055
 2798SOL    HW118363   1.346   2.974   0.592  0.3680 -0.6703  1.1499
 2798SOL    HW218364   1.225   2.898   0.671 -0.5387  0.2777  0.6707
 2799SOL     OW18365   2.424   6.608   1.044  0.2084 -0.2603 -0.4710
 2799SOL    HW118366   2.477   6.579   0.964  1.5423 -1.8438  0.9474
 2799SOL    HW218367   2.365   6.533   1.073  2.0326 -0.8620  1.8880
 2800SOL     OW18368   3.338   1.076   1.659 -0.0744  0.6488  0.2279
 2800SOL    HW118369   3.316   1.067   1.562 -0.8739  2.6482  0.1984
 2800SOL    HW218370   3.412   1.013   1.683  0.4796  0.5037 -1.7952
 2801SOL     OW18371   9.585   3.794   2.125 -0.3700 -0.1104 -0.6429
 2801SOL    HW118372   9.561   3.834   2.213 -0.8102 -0.8269 -0.4335
 2801SOL    HW218373   9.516   3.727   2.099 -0.4178  0.3281 -1.6896
 2802SOL     OW18374   3.364   8.588   0.412  0.2490  0.8536 -0.2500
 2802SOL    HW118375   3.285   8.627   0.365  0.1901  1.7978  0.6062
 2802SOL    HW218376   3.434   8.563   0.345 -0.4844  0.6717 -0.9586
 2803SOL     OW18377   0.435   3.221   2.507 -0.0693 -0.2738  0.0435
 2803SOL    HW118378   0.378   3.256   2.432 -0.3473 -0.4050  0.1933
 2803SOL    HW218379   0.446   3.292   2.577 -1.6708 -0.8911  0.9428
 2804SOL     OW18380   1.760   4.201   1.475  0.1086  0.5553  0.7617
 2804SOL    HW118381   1.766   4.253   1.389  0.6769 -0.0511  0.4338
 2804SOL    HW218382   1.682   4.140   1.471 -0.3161  1.0828  0.9812
 2805SOL     OW18383   9.881   5.206   1.338 -0.1306  0.2938  0.1768
 2805SOL    HW118384   9.959   5.163   1.383 -0.3768 -0.6969 -0.3237
 2805SOL    HW218385   9.877   5.178   1.243 -0.3629  1.3576 -0.1346
 2806SOL     OW18386   2.891   5.152   2.016  0.4487 -0.2365  0.0806
 2806SOL    HW118387   2.961   5.093   1.974 -0.9224 -0.5463 -1.8421
 2806SOL    HW218388   2.866   5.224   1.951  0.8528  1.4589  1.7592
 2807SOL     OW18389   0.545   4.184   2.238  0.1670  0.9349 -0.1435
 2807SOL    HW118390   0.546   4.101   2.182  0.6789 -0.0673  1.3117
 2807SOL    HW218391   0.451   4.218   2.246 -0.3652 -0.7255  0.9809
 2808SOL     OW18392   1.832   7.151   0.178 -0.0015  0.0771  0.1999
 2808SOL    HW118393   1.884   7.210   0.117 -0.9002 -0.2672 -0.9043
 2808SOL    HW218394   1.762   7.102   0.126 -3.5569  2.8994  2.1021
 2809SOL     OW18395   0.935   5.162   2.651 -0.0452  0.1386  0.1207
 2809SOL    HW118396   0.947   5.122   2.741 -0.1967 -0.9561 -0.3453
 2809SOL    HW218397   0.975   5.103   2.581 -0.7995  0.4912 -0.6281
 2810SOL     OW18398   2.221   1.932   2.630 -0.5396  0.0046 -0.9811
 2810SOL    HW118399   2.319   1.931   2.606  0.4421  1.8734  2.5714
 2810SOL    HW218400   2.199   1.852   2.686 -1.0154 -0.3301 -1.6449
 2811SOL     OW18401   1.875   4.430   1.324 -0.8863  0.2581  0.0900
 2811SOL    HW118402   1.957   4.389   1.283 -1.4849  0.1147 -0.9978
 2811SOL    HW218403   1.897   4.468   1.413  0.7415  1.6168 -0.8568
 2812SOL     OW18404   4.922   2.903   1.334  0.2464  0.0081  0.2590
 2812SOL    HW118405   4.878   2.901   1.245  1.7658 -0.6673 -0.4886
 2812SOL    HW218406   4.910   2.815   1.380 -1.3478  0.6542  1.1589
 2813SOL     OW18407   2.599   7.381   1.760  0.2630  0.0121 -0.1444
 2813SOL    HW118408   2.650   7.336   1.687 -1.9380 -0.8430 -1.2087
 2813SOL    HW218409   2.619   7.479   1.759  1.5919 -0.2591 -0.7728
 2814SOL     OW18410   4.277   8.456   0.562  0.7530  0.0283  0.0219
 2814SOL    HW118411   4.294   8.365   0.525  0.3381 -0.7626  1.7075
 2814SOL    HW218412   4.348   8.478   0.629  0.0998  0.3810  0.6018
 2815SOL     OW18413   2.431   4.450   2.052  0.1023 -0.3356 -0.3410
 2815SOL    HW118414   2.412   4.495   1.965  0.9540  0.2104 -0.2484
 2815SOL    HW218415   2.527   4.463   2.077  0.2408 -1.7644 -0.0498
 2816SOL     OW18416   2.096   4.558   1.042 -0.2209 -0.0135 -0.3071
 2816SOL    HW118417   2.192   4.531   1.050 -0.4807 -1.4436 -1.6751
 2816SOL    HW218418   2.041   4.479   1.015 -1.5481  1.1352 -1.0811
 2817SOL     OW18419   2.043   1.975   0.791 -0.4222 -0.1400 -0.0831
 2817SOL    HW118420   2.001   2.045   0.847  0.1590 -0.0985  0.3086
 2817SOL    HW218421   2.139   1.965   0.817 -0.5286 -1.1570 -0.0544
 2818SOL     OW18422   4.032   3.056   2.512 -0.0638 -0.4246 -0.2191
 2818SOL    HW118423   4.044   3.028   2.608  0.6451  1.9220  0.4064
 2818SOL    HW218424   4.118   3.045   2.463  1.2056  3.6505  0.8787
 2819SOL     OW18425   1.974   4.707   1.245 -0.0330  0.2932 -0.3023
 2819SOL    HW118426   1.991   4.641   1.172 -3.2582 -1.3451  0.2869
 2819SOL    HW218427   1.887   4.753   1.229 -0.6435  0.1548  2.2665
 2820SOL     OW18428   4.112   4.779   1.040 -0.1764 -0.3111  0.7550
 2820SOL    HW118429   4.075   4.849   1.102  0.4340  0.9677 -0.3221
 2820SOL    HW218430   4.038   4.716   1.015 -1.1563  0.9846  0.3125
 2821SOL     OW18431   4.111   9.622   1.092  0.0649 -0.7402  0.1219
 2821SOL    HW118432   4.109   9.532   1.049  0.5201  0.7600 -3.1572
 2821SOL    HW218433   4.020   9.644   1.127 -0.3039 -2.0082 -0.0142
 2822SOL     OW18434   1.967   0.804   1.373 -0.1889  0.1404  0.1439
 2822SOL    HW118435   1.994   0.709   1.391  0.5196  0.7562  2.4575
 2822SOL    HW218436   1.924   0.809   1.283  0.4841 -2.2319 -0.3609
 2823SOL     OW18437   2.701   2.639   0.016  0.1568 -0.2506 -0.3287
 2823SOL    HW118438   2.672   2.634  -0.079  2.1092 -0.8277 -0.9250
 2823SOL    HW218439   2.622   2.655   0.075 -1.4370 -2.5249 -1.7956
 2824SOL     OW18440   3.735   3.871   2.319  0.2601 -0.6285  0.0175
 2824SOL    HW118441   3.664   3.940   2.336 -0.7685 -1.7635  0.3774
 2824SOL    HW218442   3.768   3.880   2.226  1.0514  1.1832  0.4427
 2825SOL     OW18443   4.141   1.506   1.485 -0.0339  0.0131 -0.0988
 2825SOL    HW118444   4.239   1.485   1.493  0.1030  0.3503 -0.8438
 2825SOL    HW218445   4.130   1.594   1.439 -0.6452  0.8813  1.6860
 2826SOL     OW18446   2.007   3.407   0.203  0.1178  0.1477  0.0396
 2826SOL    HW118447   1.978   3.371   0.292 -0.6844  1.7186  0.4244
 2826SOL    HW218448   2.000   3.335   0.134 -0.7694 -0.6291  0.9276
 2827SOL     OW18449   2.873   3.643   2.800  0.0283  0.4619  0.0216
 2827SOL    HW118450   2.858   3.548   2.827  0.5288  0.1466 -0.7826
 2827SOL    HW218451   2.944   3.683   2.859 -0.2677  0.3749  0.4377
 2828SOL     OW18452   3.409   8.142   0.709 -0.5562 -0.5768  0.1603
 2828SOL    HW118453   3.338   8.084   0.668  0.6396 -2.2659  0.4296
 2828SOL    HW218454   3.467   8.087   0.768  1.4826  0.6123 -0.6718
 2829SOL     OW18455   1.286   7.223   2.647  0.1523 -0.0644 -0.2931
 2829SOL    HW118456   1.376   7.191   2.676  0.5504  1.3375  0.0617
 2829SOL    HW218457   1.242   7.152   2.592  0.5702 -1.6203  1.3049
 2830SOL     OW18458   1.479   6.560   1.324  0.2948 -0.0782 -0.1914
 2830SOL    HW118459   1.462   6.562   1.225  1.6368 -1.2518 -0.4689
 2830SOL    HW218460   1.471   6.652   1.361  0.6701  0.5231 -1.5726
 2831SOL     OW18461   0.619   6.997   0.576 -0.3543  0.2758 -0.0104
 2831SOL    HW118462   0.590   6.947   0.657  1.8547 -0.9478  0.0607
 2831SOL    HW218463   0.644   7.090   0.602 -0.4008  0.1237  0.5916
 2832SOL     OW18464   4.182   1.927   0.954  0.5072  0.3952  0.1404
 2832SOL    HW118465   4.210   1.882   0.869 -2.4725  1.9432 -1.7447
 2832SOL    HW218466   4.213   2.021   0.954  0.2375  0.4860  0.6202
 2833SOL     OW18467   1.365   1.050   2.191 -0.3029  0.7353  0.1201
 2833SOL    HW118468   1.405   1.123   2.246 -1.5292 -0.3933  2.5618
 2833SOL    HW218469   1.271   1.074   2.168 -0.3378  0.4289 -0.0533
 2834SOL     OW18470   3.980   1.076   0.714 -0.5245  0.0467 -0.5293
 2834SOL    HW118471   3.983   1.165   0.670 -2.1226  0.2394 -0.2770
 2834SOL    HW218472   3.933   1.083   0.802  0.3010 -0.8376 -0.0002
 2835SOL     OW18473   2.976   6.259   1.836 -0.2772 -0.2894 -0.0775
 2835SOL    HW118474   3.008   6.308   1.755 -2.2868 -0.2327 -0.8626
 2835SOL    HW218475   2.950   6.325   1.907 -0.2162 -0.2935 -0.0507
 2836SOL     OW18476   1.505   3.846   0.607 -0.6994 -0.1048 -0.2224
 2836SOL    HW118477   1.604   3.849   0.593 -0.9719  0.4580 -2.2154
 2836SOL    HW218478   1.473   3.751   0.598 -0.1906 -0.4854  1.7335
 2837SOL     OW18479   1.937   6.256   2.469  0.1984 -0.0701 -0.5621
 2837SOL    HW118480   1.865   6.306   2.518  1.3306  1.8479 -0.7877
 2837SOL    HW218481   1.970   6.312   2.393  2.6963 -0.4206  0.2149
 2838SOL     OW18482   2.661   0.685   1.206  0.0053 -0.4107 -0.2971
 2838SOL    HW118483   2.673   0.628   1.287 -1.2094 -1.1834 -0.6612
 2838SOL    HW218484   2.685   0.780   1.229  0.5952 -0.7911  0.6944
 2839SOL     OW18485   4.114   3.665   0.984 -0.2496 -0.6810 -0.3440
 2839SOL    HW118486   4.047   3.706   1.046  1.1143 -0.9207  1.3139
 2839SOL    HW218487   4.206   3.693   1.011  0.5060 -2.5938 -0.8602
 2840SOL     OW18488   2.395   6.345   2.823 -0.4069 -0.6526  0.2552
 2840SOL    HW118489   2.420   6.326   2.728 -1.4121 -0.8999  0.0367
 2840SOL    HW218490   2.380   6.259   2.871 -0.3303 -0.5157  0.5245
 2841SOL     OW18491   3.765   3.043   2.413  0.6605  0.9294  0.4522
 2841SOL    HW118492   3.857   3.019   2.443  1.6873  2.9825 -0.9431
 2841SOL    HW218493   3.712   3.077   2.491  0.6588 -1.4298  1.5103
 2842SOL     OW18494   1.440   4.453   1.431 -0.3574 -0.4324 -0.3631
 2842SOL    HW118495   1.390   4.415   1.354 -0.3578 -1.7344  0.2656
 2842SOL    HW218496   1.432   4.392   1.510  0.5559  0.3292  0.3401
 2843SOL     OW18497   3.632   2.031   0.478 -0.1985 -0.2817  0.0888
 2843SOL    HW118498   3.711   2.062   0.531 -1.1390  1.9530  0.2334
 2843SOL    HW218499   3.573   1.976   0.537 -0.6785  1.2732  1.0887
 2844SOL     OW18500   3.357   1.848   1.960 -0.1313  0.6278  0.4683
 2844SOL    HW118501   3.364   1.946   1.976 -0.3338  0.9842 -1.5393
 2844SOL    HW218502   3.437   1.802   2.000  0.4931  1.7220  0.4883
 2845SOL     OW18503   1.333   3.502   1.896 -0.4411  0.2473  0.0593
 2845SOL    HW118504   1.399   3.436   1.932 -0.8674  0.4787  1.3158
 2845SOL    HW218505   1.312   3.570   1.967  1.0067  2.5558 -1.6384
 2846SOL     OW18506   2.031   2.787   2.450  0.1320  0.0162  0.4976
 2846SOL    HW118507   2.034   2.831   2.361  0.4188 -1.6631 -0.3468
 2846SOL    HW218508   1.937   2.761   2.472  0.0736  0.3536  0.6452
 2847SOL     OW18509   3.367   4.786   2.744 -0.4193 -0.9697  0.2768
 2847SOL    HW118510   3.317   4.700   2.750 -0.5266 -0.7496  2.8073
 2847SOL    HW218511   3.451   4.780   2.796  1.0378 -0.4971 -1.9547
 2848SOL     OW18512   3.141   3.044   1.359 -0.6527 -0.0687  0.0714
 2848SOL    HW118513   3.114   3.119   1.299  0.5019  0.8576  0.6899
 2848SOL    HW218514   3.092   3.052   1.446  1.1261  1.3051  0.9924
 2849SOL     OW18515   1.265   4.618   1.551 -0.0279  0.3931  0.2548
 2849SOL    HW118516   1.339   4.577   1.497 -0.4158  0.6956 -0.5262
 2849SOL    HW218517   1.218   4.547   1.603  0.5987  0.1514  0.5023
 2850SOL     OW18518   8.684   4.455   0.886 -0.0921 -0.2429 -0.5669
 2850SOL    HW118519   8.666   4.522   0.814  0.5961 -0.0529 -0.5617
 2850SOL    HW218520   8.658   4.364   0.854 -0.1862 -0.0979 -0.9013
 2851SOL     OW18521   2.679   2.061   1.371  0.1631 -0.0350 -0.0172
 2851SOL    HW118522   2.618   1.982   1.380  0.9441 -0.6318  0.0617
 2851SOL    HW218523   2.710   2.090   1.461  1.2524 -0.7247 -0.1610
 2852SOL     OW18524   2.258   0.133   1.882 -0.2866 -0.3205  0.5149
 2852SOL    HW118525   2.233   0.167   1.972 -1.3596 -0.5340  0.3076
 2852SOL    HW218526   2.257   0.033   1.882 -0.8639 -0.3221  0.1233
 2853SOL     OW18527   1.311   2.745   0.199 -0.4926 -0.5955  0.0640
 2853SOL    HW118528   1.244   2.677   0.231 -1.9684 -0.1394 -2.0047
 2853SOL    HW218529   1.401   2.721   0.236 -1.6585 -1.4943  2.5016
 2854SOL     OW18530   1.656   2.931   0.945  0.3478 -0.4899 -0.4197
 2854SOL    HW118531   1.636   3.017   0.992 -0.5269 -0.7663 -0.2756
 2854SOL    HW218532   1.629   2.939   0.849  1.6028 -0.1198 -0.7483
 2855SOL     OW18533   2.140   7.269   2.786  0.9631 -0.0270 -0.8307
 2855SOL    HW118534   2.101   7.315   2.866 -1.4837 -1.3713 -1.1930
 2855SOL    HW218535   2.212   7.206   2.816  1.3843  0.8943  0.1062
 2856SOL     OW18536   1.888   2.862   1.046 -0.2251 -0.0882  0.3374
 2856SOL    HW118537   1.906   2.899   1.137 -1.5722  0.9580  0.2034
 2856SOL    HW218538   1.794   2.883   1.019 -0.3253 -1.7212 -0.6783
 2857SOL     OW18539   3.304   9.398   2.020  0.0815 -0.2279 -0.4723
 2857SOL    HW118540   3.253   9.419   1.936  0.8301 -1.1358 -1.1652
 2857SOL    HW218541   3.333   9.484   2.063  0.9931  0.2431 -1.9635
 2858SOL     OW18542   2.372   2.719   1.695 -0.2028  0.4486  0.7894
 2858SOL    HW118543   2.461   2.691   1.657 -0.3452  0.8793  0.1299
 2858SOL    HW218544   2.386   2.765   1.783  0.3742  1.9171 -0.0426
 2859SOL     OW18545   3.124   3.875   2.075 -0.5274 -0.5061  0.1725
 2859SOL    HW118546   3.206   3.831   2.112  1.3777  3.7988  1.3531
 2859SOL    HW218547   3.110   3.843   1.981  2.2878 -1.6463  0.0614
 2860SOL     OW18548   9.295   5.647   2.354 -0.6290  0.0641 -0.1518
 2860SOL    HW118549   9.215   5.669   2.298 -0.3176  0.0860 -0.5908
 2860SOL    HW218550   9.270   5.577   2.421 -0.2871 -2.1178 -2.2292
 2861SOL     OW18551   2.946   0.663   1.057 -0.3621 -0.0132  0.5052
 2861SOL    HW118552   2.939   0.571   1.018  2.3594 -0.2192  0.4183
 2861SOL    HW218553   2.903   0.664   1.148 -3.4962 -0.4373 -0.9082
 2862SOL     OW18554   9.254   5.459   2.566 -0.3956  0.3761 -0.2853
 2862SOL    HW118555   9.318   5.472   2.643  0.4933 -0.4936 -0.8701
 2862SOL    HW218556   9.185   5.391   2.592  0.7039 -0.9279 -0.7356
 2863SOL     OW18557   3.692   1.615   0.551 -0.5889  0.1413 -0.4440
 2863SOL    HW118558   3.701   1.516   0.547 -0.5208  0.1819 -1.3054
 2863SOL    HW218559   3.635   1.640   0.630  1.5942 -0.4286  1.3694
 2864SOL     OW18560   2.523   1.063   0.915 -0.8203  0.3143  0.5875
 2864SOL    HW118561   2.617   1.046   0.885 -1.4287 -2.5578  0.0740
 2864SOL    HW218562   2.523   1.107   1.004  1.0658 -2.7213  2.1600
 2865SOL     OW18563   1.403   3.769   0.868 -0.2115  0.0485 -0.4217
 2865SOL    HW118564   1.325   3.815   0.910  0.2590  0.8629 -0.4204
 2865SOL    HW218565   1.436   3.824   0.791 -0.6929 -1.1295 -1.4854
 2866SOL     OW18566   9.637   3.251   2.573  0.0303 -0.1524 -0.6583
 2866SOL    HW118567   9.708   3.229   2.640  2.1846  1.7096 -2.2629
 2866SOL    HW218568   9.615   3.348   2.579  0.7869  0.1837 -3.1557
 2867SOL     OW18569   3.048   0.922   1.949  0.0154  0.8182 -0.1142
 2867SOL    HW118570   3.131   0.885   1.990 -0.9799 -1.2245  0.1390
 2867SOL    HW218571   3.072   0.996   1.885  1.9918  0.3776  0.0930
 2868SOL     OW18572   2.103   4.832   0.832 -0.0548  0.0742  0.1344
 2868SOL    HW118573   2.079   4.743   0.872  0.1559 -0.6745 -1.3792
 2868SOL    HW218574   2.063   4.905   0.888 -1.2026 -0.9950  0.7456
 2869SOL     OW18575   2.202   0.287   1.654  0.2292  0.1188  0.2429
 2869SOL    HW118576   2.104   0.269   1.641  0.5870 -0.9438 -1.1742
 2869SOL    HW218577   2.232   0.246   1.740 -0.9912  2.2556  1.7307
 2870SOL     OW18578   2.377   5.250   1.704  0.6767  0.3856  0.0464
 2870SOL    HW118579   2.300   5.300   1.744  0.1709 -0.1560 -0.2453
 2870SOL    HW218580   2.346   5.160   1.673  1.2260  0.5160 -0.9018
 2871SOL     OW18581   0.891   6.311   1.582  0.4020  0.0776  0.0541
 2871SOL    HW118582   0.877   6.310   1.483  0.3569 -0.6078  0.0622
 2871SOL    HW218583   0.981   6.273   1.603  0.6435  0.7461  0.2450
 2872SOL     OW18584   3.751   1.563   2.071  0.2336  0.4985 -0.1614
 2872SOL    HW118585   3.729   1.581   1.975  0.1000 -1.3188 -0.4758
 2872SOL    HW218586   3.666   1.550   2.123  0.3150  1.2121  0.1642
 2873SOL     OW18587   1.937   7.135   1.206  0.7800  0.0054  0.0527
 2873SOL    HW118588   2.003   7.134   1.131 -0.1101  0.4639 -0.7434
 2873SOL    HW218589   1.902   7.228   1.219  1.4682  0.0730  1.5195
 2874SOL     OW18590   1.230   7.426   2.823  0.1984  0.2162 -0.5347
 2874SOL    HW118591   1.251   7.352   2.759  1.2426 -0.7288  0.8827
 2874SOL    HW218592   1.148   7.475   2.790  0.2294 -0.7535 -2.1442
 2875SOL     OW18593   3.346   3.971   1.669  0.0961 -0.4620 -0.0806
 2875SOL    HW118594   3.362   3.892   1.727  1.4083  0.3005  0.6356
 2875SOL    HW218595   3.257   4.011   1.690  0.4627 -0.3244  1.2592
 2876SOL     OW18596   4.156   2.326   2.598  0.0775  0.0888 -0.4575
 2876SOL    HW118597   4.122   2.416   2.571  0.4713  0.4701  0.3255
 2876SOL    HW218598   4.079   2.262   2.606 -0.6752  1.3121  2.7555
 2877SOL     OW18599   2.137   9.914   1.260  0.0395  0.4459 -0.3238
 2877SOL    HW118600   2.220   9.869   1.227  0.6498 -0.2662  2.0452
 2877SOL    HW218601   2.162   9.985   1.326 -1.1380  1.7019 -1.1964
 2878SOL     OW18602   2.282   6.156   0.184 -0.2854  0.3176 -0.3741
 2878SOL    HW118603   2.279   6.086   0.255  0.6457 -0.2051 -0.8324
 2878SOL    HW218604   2.258   6.245   0.223 -0.5728 -0.1040  0.4141
 2879SOL     OW18605   0.978   4.348   1.504  0.5670 -0.6782 -0.1651
 2879SOL    HW118606   0.912   4.421   1.523 -0.7224 -1.4710 -1.5455
 2879SOL    HW218607   1.055   4.356   1.568  1.3964  3.0247 -1.5210
 2880SOL     OW18608   1.695   4.626   0.241  0.0368 -0.1625 -0.2931
 2880SOL    HW118609   1.739   4.597   0.156  0.6349 -0.3129  0.0617
 2880SOL    HW218610   1.693   4.550   0.305 -0.6429 -0.1195 -0.2631
 2881SOL     OW18611   2.494   3.599   2.417 -0.3296 -0.2277  0.5433
 2881SOL    HW118612   2.423   3.568   2.355  1.4100 -0.9807 -1.1172
 2881SOL    HW218613   2.574   3.540   2.409  1.0351  1.4668  1.2941
 2882SOL     OW18614   3.484   9.024   1.400 -0.1080  0.0168 -0.2474
 2882SOL    HW118615   3.560   9.002   1.339 -1.2284 -0.1189 -1.6206
 2882SOL    HW218616   3.517   9.080   1.475  1.4173 -0.3472 -0.6276
 2883SOL     OW18617   5.075   3.688   2.362  0.0547  0.0946 -0.4902
 2883SOL    HW118618   5.022   3.606   2.384  0.4562  0.2448  1.1462
 2883SOL    HW218619   5.061   3.756   2.435  2.6330  0.0563  0.0742
 2884SOL     OW18620   1.581   5.989   1.764  0.1273  0.2567 -0.2651
 2884SOL    HW118621   1.483   5.990   1.784  0.1148  0.4327 -0.3335
 2884SOL    HW218622   1.596   5.958   1.670  0.3184 -2.8187  0.7415
 2885SOL     OW18623   1.196   7.048   2.441  0.2457  0.4810 -0.3790
 2885SOL    HW118624   1.105   7.056   2.401  0.3062  1.2973 -0.3521
 2885SOL    HW218625   1.259   7.010   2.373 -0.5013 -1.8454  0.1649
 2886SOL     OW18626   1.255   7.117   1.395  0.1407 -0.4726 -0.8648
 2886SOL    HW118627   1.314   7.193   1.424 -0.8712  0.2658 -0.7117
 2886SOL    HW218628   1.301   7.065   1.324  1.4705 -0.6046  0.0801
 2887SOL     OW18629   1.291   4.944   1.238 -0.1228  0.0159  0.6403
 2887SOL    HW118630   1.319   4.876   1.169  0.3584  2.0608 -1.2335
 2887SOL    HW218631   1.356   5.020   1.237 -3.3903  2.8677 -0.8267
 2888SOL     OW18632   2.543   8.966   1.813 -0.0211 -0.6079  0.3526
 2888SOL    HW118633   2.596   9.049   1.800  0.9251 -1.5105 -1.7614
 2888SOL    HW218634   2.605   8.888   1.827 -0.8750 -1.1243  1.3898
 2889SOL     OW18635   2.208   6.800   2.224  0.1045 -0.3880  0.4733
 2889SOL    HW118636   2.135   6.803   2.156 -0.5935  0.1786  1.2390
 2889SOL    HW218637   2.284   6.746   2.189  0.8614  2.1358 -1.8523
 2890SOL     OW18638   2.253   4.676   1.388  0.0240  0.3189  0.3784
 2890SOL    HW118639   2.174   4.677   1.326  0.1759  1.5099  0.2011
 2890SOL    HW218640   2.222   4.649   1.480 -0.4614  0.0806  0.1516
 2891SOL     OW18641   1.615   7.807   0.755  0.3399  0.8454  0.0422
 2891SOL    HW118642   1.581   7.783   0.664  0.3840 -0.6228  0.3959
 2891SOL    HW218643   1.603   7.729   0.816  3.7392  0.4896  0.3450
 2892SOL     OW18644   2.606   1.171   2.289  0.1969  0.0613  0.6628
 2892SOL    HW118645   2.531   1.232   2.264 -0.5748 -1.5803 -1.2280
 2892SOL    HW218646   2.599   1.148   2.387 -0.1305  2.0884  1.1340
 2893SOL     OW18647   1.721   2.095   1.255 -0.3018 -0.1687 -0.0706
 2893SOL    HW118648   1.720   2.016   1.317  1.5093 -0.6005 -0.5531
 2893SOL    HW218649   1.635   2.098   1.203 -0.1296 -2.2316 -0.5258
 2894SOL     OW18650   4.246   1.581   2.005 -0.6393 -0.7332  1.2028
 2894SOL    HW118651   4.155   1.621   2.013 -0.6919 -1.0517  2.2439
 2894SOL    HW218652   4.295   1.624   1.929 -0.4735  1.7017  2.6377
 2895SOL     OW18653   3.392   3.076   2.333  0.7153  0.5399  0.0826
 2895SOL    HW118654   3.320   3.132   2.373 -0.8697  0.7218 -2.8737
 2895SOL    HW218655   3.469   3.134   2.306 -0.2986  1.1218 -1.6150
 2896SOL     OW18656   2.503   6.464   0.817  0.1529 -0.2257 -0.1182
 2896SOL    HW118657   2.529   6.373   0.848  3.5780  0.8274  0.3623
 2896SOL    HW218658   2.470   6.459   0.723 -2.2152 -2.2729  0.7659
 2897SOL     OW18659   2.685   1.469   2.241  0.5980  0.7193 -0.2178
 2897SOL    HW118660   2.668   1.566   2.225 -2.5718  0.4193  1.0174
 2897SOL    HW218661   2.654   1.416   2.162  0.1685  0.5496  0.0594
 2898SOL     OW18662   2.263   4.804   0.256 -0.3331 -0.9330 -0.1948
 2898SOL    HW118663   2.226   4.776   0.345  0.8029  0.5979  0.7895
 2898SOL    HW218664   2.277   4.903   0.255  0.9052 -1.0964 -1.6046
 2899SOL     OW18665   0.805   6.859   0.106  0.1779 -0.3192 -0.0450
 2899SOL    HW118666   0.748   6.933   0.143  0.6822  0.4890 -0.8586
 2899SOL    HW218667   0.803   6.781   0.169 -0.9398  0.1111  0.4716
 2900SOL     OW18668   1.938   5.159   1.421  0.4473  0.5039 -0.1050
 2900SOL    HW118669   1.924   5.206   1.508 -2.4864  1.7675 -1.2194
 2900SOL    HW218670   1.931   5.224   1.345  0.3927 -1.0282 -1.4509
 2901SOL     OW18671   2.618   0.596   2.656  0.0804 -0.2932 -0.1123
 2901SOL    HW118672   2.561   0.515   2.669  0.7802 -0.8067 -0.2300
 2901SOL    HW218673   2.694   0.594   2.721  0.7340 -0.3017 -0.8686
 2902SOL     OW18674   1.116   2.187   0.507 -0.6433  0.1979  0.0342
 2902SOL    HW118675   1.136   2.222   0.415 -1.2116 -1.8270 -0.8763
 2902SOL    HW218676   1.201   2.182   0.560  0.0539 -0.8239 -1.1644
 2903SOL     OW18677   3.274   4.414   0.389  0.1758 -0.0308  0.0965
 2903SOL    HW118678   3.200   4.380   0.447 -0.4418  1.6550  0.3196
 2903SOL    HW218679   3.294   4.509   0.413  1.4530 -0.0208 -0.9364
 2904SOL     OW18680   1.708   0.075   1.120  0.5142  0.6264 -0.1559
 2904SOL    HW118681   1.727   0.065   1.023  1.0271  1.0188 -0.0969
 2904SOL    HW218682   1.631   0.016   1.145  1.0551 -0.2762 -0.5807
 2905SOL     OW18683   2.505   9.685   0.438  0.0126 -0.4224 -0.1223
 2905SOL    HW118684   2.575   9.623   0.402  0.7597  0.7510 -0.7156
 2905SOL    HW218685   2.524   9.706   0.534  0.5297 -0.0423 -0.3052
 2906SOL     OW18686   2.318   3.434   2.245  0.7458 -0.0610 -0.0599
 2906SOL    HW118687   2.391   3.473   2.189 -0.1307  0.5881 -0.7744
 2906SOL    HW218688   2.230   3.450   2.200  0.1901 -1.1450  0.6115
 2907SOL     OW18689   0.120   3.177   1.027 -0.0223 -0.1898  0.4441
 2907SOL    HW118690   0.199   3.225   0.989 -0.3313 -0.1692 -0.1797
 2907SOL    HW218691   0.144   3.081   1.043 -0.8289 -1.0459 -2.9113
 2908SOL     OW18692   0.534   3.657   1.856 -0.5456  0.3283  0.4134
 2908SOL    HW118693   0.623   3.685   1.891 -0.5948  0.7577  0.2030
 2908SOL    HW218694   0.482   3.738   1.828 -1.0367  0.0897  0.6152
 2909SOL     OW18695   3.348   7.377   0.611  0.1142 -0.1329  0.6234
 2909SOL    HW118696   3.275   7.327   0.565  0.1516 -1.9248  2.4251
 2909SOL    HW218697   3.417   7.405   0.544  1.1259 -4.2959 -0.2617
 2910SOL     OW18698   1.825   4.414   0.425 -0.1494  0.2705 -0.4551
 2910SOL    HW118699   1.861   4.496   0.383  0.6858  0.5139  0.7182
 2910SOL    HW218700   1.900   4.359   0.462 -0.7979 -0.3337 -0.0112
 2911SOL     OW18701   1.213   4.569   1.012 -0.3656  0.1862  0.0562
 2911SOL    HW118702   1.262   4.492   1.053 -0.9654  0.8326  2.0254
 2911SOL    HW218703   1.158   4.615   1.082  0.5450  2.8571 -0.8966
 2912SOL     OW18704   2.853   6.442   1.067 -0.0071 -0.2970  0.3755
 2912SOL    HW118705   2.909   6.359   1.060 -1.7593 -1.5183  0.3345
 2912SOL    HW218706   2.852   6.490   0.980  1.9750  0.4208  0.7308
 2913SOL     OW18707   2.817   8.569   1.002  0.0874 -0.1230 -0.2825
 2913SOL    HW118708   2.777   8.646   0.952  0.4189  0.7361  0.7382
 2913SOL    HW218709   2.749   8.496   1.011 -1.6779  1.7476  2.3734
 2914SOL     OW18710   4.547   1.866   1.160  0.5017 -0.6678  0.3897
 2914SOL    HW118711   4.573   1.917   1.243 -1.2036 -1.3651  1.3886
 2914SOL    HW218712   4.538   1.930   1.084 -0.6572  0.4231  1.4081
 2915SOL     OW18713   4.619   1.816   0.705 -0.1455  0.5361 -0.0813
 2915SOL    HW118714   4.614   1.716   0.701 -0.9540  0.5197  0.9749
 2915SOL    HW218715   4.613   1.854   0.613 -0.1590 -0.3791 -0.4585
 2916SOL     OW18716   2.963   8.023   1.310  0.6662  0.2761 -0.7417
 2916SOL    HW118717   2.938   8.099   1.370 -2.3653 -0.1413 -1.4417
 2916SOL    HW218718   2.919   8.034   1.221  0.1125 -2.3212 -0.8364
 2917SOL     OW18719   9.668   3.779   1.119  0.3916  1.0595 -0.6801
 2917SOL    HW118720   9.754   3.817   1.083 -0.3062  2.4105 -0.9541
 2917SOL    HW218721   9.602   3.853   1.131 -0.6685  0.0505 -0.2669
 2918SOL     OW18722   0.864   2.520   1.779 -0.1610  0.2200  0.2728
 2918SOL    HW118723   0.862   2.497   1.876  0.5841  0.9765  0.4723
 2918SOL    HW218724   0.932   2.461   1.733 -0.7474 -0.3643  0.1419
 2919SOL     OW18725   9.505   5.394   0.311  0.1681  0.3468  0.0209
 2919SOL    HW118726   9.591   5.444   0.295  0.7032 -0.3510  0.6482
 2919SOL    HW218727   9.526   5.308   0.357 -0.8971  0.2555  0.3345
 2920SOL     OW18728   1.539   5.609   2.417  0.2638  0.0416  0.1447
 2920SOL    HW118729   1.470   5.608   2.489  0.5384  0.1537  0.4090
 2920SOL    HW218730   1.630   5.606   2.458  0.4050 -1.2498 -0.2411
 2921SOL     OW18731   3.859   2.574   2.726  0.6992 -0.1094 -0.1535
 2921SOL    HW118732   3.843   2.504   2.797  1.6831 -0.1249  0.0705
 2921SOL    HW218733   3.940   2.549   2.673  1.1806  0.9677  0.0577
 2922SOL     OW18734   0.913   2.100   1.556 -0.6998  0.3543  0.7946
 2922SOL    HW118735   0.981   2.157   1.510  0.7978 -0.3136  2.1227
 2922SOL    HW218736   0.948   2.007   1.565 -1.9073 -0.0698  1.2497
 2923SOL     OW18737   3.410   5.476   2.559  0.3616 -0.0489 -0.5795
 2923SOL    HW118738   3.391   5.399   2.620 -0.9901 -0.9593 -2.0995
 2923SOL    HW218739   3.503   5.470   2.525  0.8223 -0.0492  0.6379
 2924SOL     OW18740   4.315   1.956   2.681  0.2990  0.2685 -0.1288
 2924SOL    HW118741   4.342   1.901   2.603  0.7303 -0.7319  0.7179
 2924SOL    HW218742   4.217   1.978   2.674  0.3149  0.0929 -0.8870
 2925SOL     OW18743   2.147   3.419   1.013  0.0863 -0.2521 -0.2553
 2925SOL    HW118744   2.138   3.508   0.968 -0.4073  0.1825  0.6945
 2925SOL    HW218745   2.111   3.348   0.953 -0.7072  0.3407 -0.4947
 2926SOL     OW18746   2.207   8.900   2.678 -0.3132 -0.7156 -0.1118
 2926SOL    HW118747   2.109   8.917   2.683  0.1935  2.2534  1.6484
 2926SOL    HW218748   2.255   8.987   2.664  2.1524 -1.8400  0.9698
 2927SOL     OW18749   1.664   3.484   0.816  0.3131 -0.9400  0.5129
 2927SOL    HW118750   1.609   3.451   0.892 -0.8128  0.3730  0.2717
 2927SOL    HW218751   1.641   3.432   0.733 -0.3600 -0.5573  0.4671
 2928SOL     OW18752   0.535   6.306   0.052  0.4798  0.3269 -0.0559
 2928SOL    HW118753   0.617   6.359   0.037 -0.2576  1.9350  1.4005
 2928SOL    HW218754   0.521   6.292   0.151 -1.5155  0.9793 -0.2076
 2929SOL     OW18755   2.825   5.811   0.691 -1.0153 -0.3893 -0.3824
 2929SOL    HW118756   2.906   5.778   0.738 -2.7826 -2.0101  1.6043
 2929SOL    HW218757   2.797   5.745   0.621  0.3470  0.9837 -2.2553
 2930SOL     OW18758   0.411   2.363   1.400 -0.5459  0.3888  0.2051
 2930SOL    HW118759   0.413   2.352   1.500 -0.1495 -0.2972  0.1300
 2930SOL    HW218760   0.486   2.423   1.372  0.2358 -0.5660  0.2003
 2931SOL     OW18761   9.967   3.158   1.670 -0.1508 -0.0810 -0.3277
 2931SOL    HW118762   9.922   3.168   1.759 -0.0814 -0.1977 -0.2795
 2931SOL    HW218763   9.926   3.081   1.622 -1.8810  1.4836 -1.4200
 2932SOL     OW18764   1.132   2.438   0.002  0.4442  0.0824  0.5946
 2932SOL    HW118765   1.145   2.536  -0.010  0.4597  0.2865  2.1114
 2932SOL    HW218766   1.214   2.389  -0.029  0.0218  0.4512 -1.1643
 2933SOL     OW18767   1.907   1.367   2.042 -0.0368  0.3378  0.1645
 2933SOL    HW118768   1.849   1.338   2.118  1.1210 -0.1515  0.8694
 2933SOL    HW218769   1.920   1.291   1.979 -1.0413  0.7601 -0.5559
 2934SOL     OW18770   1.083   3.145   1.545 -0.2471 -0.0101  0.0797
 2934SOL    HW118771   1.026   3.205   1.488 -3.1950 -1.2765  1.5955
 2934SOL    HW218772   1.143   3.092   1.486 -0.7066  1.2718 -1.5956
 2935SOL     OW18773   0.779   5.848   1.045 -0.2403  0.1315  0.1633
 2935SOL    HW118774   0.706   5.780   1.036  0.4627 -0.5820 -0.1792
 2935SOL    HW218775   0.829   5.833   1.129  0.4286 -0.2741 -0.3059
 2936SOL     OW18776   4.623   2.657   2.293 -0.8655 -0.2117 -0.1054
 2936SOL    HW118777   4.557   2.626   2.361  0.4338 -1.3068  0.6755
 2936SOL    HW218778   4.665   2.743   2.323  1.7690 -2.1332  1.8862
 2937SOL     OW18779   2.143   7.983   2.463 -0.1900  0.0179 -0.0741
 2937SOL    HW118780   2.167   7.891   2.432  2.0917  0.2986  0.7778
 2937SOL    HW218781   2.053   8.008   2.427  0.6756 -1.1635 -3.2394
 2938SOL     OW18782   2.023   2.554   1.785  0.5995 -0.0812  0.3255
 2938SOL    HW118783   1.928   2.546   1.816  1.4255  0.6889  3.1273
 2938SOL    HW218784   2.026   2.616   1.707 -1.3012 -0.7629 -0.3376
 2939SOL     OW18785   3.868   2.779   0.248 -0.2185 -0.6308 -0.3131
 2939SOL    HW118786   3.814   2.705   0.287 -1.8236  0.4264 -0.5081
 2939SOL    HW218787   3.825   2.812   0.164  1.1154 -0.2548 -0.8712
 2940SOL     OW18788   0.084   3.599   0.593  0.0689  0.3925  0.0456
 2940SOL    HW118789   0.007   3.598   0.530 -0.7499  0.5724  1.0363
 2940SOL    HW218790   0.157   3.656   0.555 -1.5781  2.9523  0.6142
 2941SOL     OW18791   3.303   7.122   0.768 -0.3971  0.7293  0.7022
 2941SOL    HW118792   3.310   7.134   0.669  1.9603 -3.3226  0.2627
 2941SOL    HW218793   3.349   7.197   0.814 -0.0151  1.7796 -1.3175
 2942SOL     OW18794   1.154   6.797   1.473 -0.4114 -0.4310  0.2683
 2942SOL    HW118795   1.159   6.757   1.382 -0.1018 -2.0900  0.9836
 2942SOL    HW218796   1.087   6.871   1.474 -0.8903 -0.8391 -1.1346
 2943SOL     OW18797   2.681   3.957   0.230  0.4096 -0.3371 -0.2870
 2943SOL    HW118798   2.747   4.002   0.171  0.8921 -1.9155 -0.9778
 2943SOL    HW218799   2.588   3.979   0.200  0.6314  0.6949 -0.2173
 2944SOL     OW18800   1.931   5.962   1.707 -0.2972  0.7955 -0.1435
 2944SOL    HW118801   2.031   5.961   1.701 -0.4445 -0.9062 -3.1301
 2944SOL    HW218802   1.893   6.005   1.625 -2.0936 -1.7230 -0.6606
 2945SOL     OW18803   3.248   2.255   2.624 -0.4425 -0.1494  0.3420
 2945SOL    HW118804   3.231   2.219   2.715  0.1115  2.2090  1.4103
 2945SOL    HW218805   3.226   2.352   2.621 -0.5049 -0.1991 -2.0600
 2946SOL     OW18806   2.559   8.466   1.797  0.4963  0.1046 -0.5211
 2946SOL    HW118807   2.550   8.526   1.877  0.5803  0.5557 -0.8498
 2946SOL    HW218808   2.474   8.414   1.786  0.4026  0.1991 -0.2618
 2947SOL     OW18809   4.542   1.156   1.362  0.0062  0.0140  0.1400
 2947SOL    HW118810   4.640   1.170   1.377  0.2414  0.2637 -1.6185
 2947SOL    HW218811   4.528   1.071   1.312 -0.6663  0.0983  0.1869
 2948SOL     OW18812   2.308   5.136   2.290 -0.3611  0.3574 -0.0414
 2948SOL    HW118813   2.282   5.116   2.195 -0.2736 -1.4677  0.3121
 2948SOL    HW218814   2.383   5.076   2.317  1.3626  2.6131  0.3756
 2949SOL     OW18815   3.776   9.029   1.574  0.2750 -0.0217  0.3055
 2949SOL    HW118816   3.763   8.937   1.536  0.3910  0.3846 -0.7414
 2949SOL    HW218817   3.729   9.035   1.662  1.0957 -1.3796  0.8581
 2950SOL     OW18818   2.773   2.700   0.329  0.1374 -0.0788 -0.5886
 2950SOL    HW118819   2.791   2.736   0.237  0.1390 -0.5041 -0.7559
 2950SOL    HW218820   2.698   2.753   0.370  0.7112  0.6700 -0.4961
 2951SOL     OW18821   3.566   3.331   1.994  0.1645  0.0977  0.3178
 2951SOL    HW118822   3.573   3.318   2.093 -0.1933 -0.8992  0.2181
 2951SOL    HW218823   3.585   3.244   1.947 -2.6523 -0.2165 -0.3531
 2952SOL     OW18824   2.634   0.414   2.061  0.4840  0.2896  0.2936
 2952SOL    HW118825   2.674   0.327   2.089 -0.6981  0.3697  2.2732
 2952SOL    HW218826   2.548   0.397   2.012 -0.3720  0.3944  1.7589
 2953SOL     OW18827   3.121   1.372   2.771  0.3249 -0.3500  0.6567
 2953SOL    HW118828   3.205   1.400   2.724 -0.3963 -1.3537 -1.3089
 2953SOL    HW218829   3.096   1.441   2.839  1.9002  0.7011  0.2033
 2954SOL     OW18830   0.010   3.856   0.805  0.1503 -0.3492 -0.6034
 2954SOL    HW118831  -0.027   3.844   0.897 -0.0023 -0.4559 -0.6791
 2954SOL    HW218832   0.100   3.812   0.799 -0.7428 -2.1502 -1.1042
 2955SOL     OW18833   0.825   5.269   1.935 -0.1942 -0.0535  0.3328
 2955SOL    HW118834   0.824   5.172   1.907 -0.7581  0.0244  0.0717
 2955SOL    HW218835   0.797   5.326   1.857 -1.0522  0.2254  0.8358
 2956SOL     OW18836   1.859   6.503   0.311 -0.5057  0.3927 -0.5519
 2956SOL    HW118837   1.902   6.442   0.378  0.0141  0.7164 -0.5870
 2956SOL    HW218838   1.853   6.595   0.349 -2.7105 -0.0067  0.0963
 2957SOL     OW18839   1.446   7.909   1.180 -0.8114 -0.0879  0.0102
 2957SOL    HW118840   1.441   7.887   1.083  1.1466 -0.4837 -0.0282
 2957SOL    HW218841   1.535   7.953   1.199 -0.9951 -0.4235  1.6898
 2958SOL     OW18842   3.198   1.473   1.380  0.4598 -0.8058  0.6677
 2958SOL    HW118843   3.293   1.503   1.383  0.2908 -0.4602  2.9276
 2958SOL    HW218844   3.168   1.445   1.471 -2.5052  1.9667  0.6314
 2959SOL     OW18845   3.533   5.000   1.643 -0.3000  0.2079 -0.5131
 2959SOL    HW118846   3.576   5.041   1.562 -0.7256 -1.2819 -1.5106
 2959SOL    HW218847   3.513   4.904   1.625 -0.1549 -0.2138  1.4705
 2960SOL     OW18848   9.307   3.399   0.655  0.0169 -0.1982  0.0238
 2960SOL    HW118849   9.319   3.432   0.749  2.1033  0.2849 -0.3927
 2960SOL    HW218850   9.210   3.378   0.640 -0.6036  1.1910  1.7956
 2961SOL     OW18851   2.218   8.278   0.276  0.1144  0.7314 -0.1748
 2961SOL    HW118852   2.318   8.273   0.278  0.1457  1.7213  0.7513
 2961SOL    HW218853   2.179   8.199   0.324  0.4274  0.2003 -0.7696
 2962SOL     OW18854   3.072   9.585   0.251  0.1581 -0.1030 -0.2737
 2962SOL    HW118855   3.150   9.618   0.198  1.3490 -2.0727  0.2192
 2962SOL    HW218856   3.057   9.645   0.330 -0.0509  1.3791 -1.4190
 2963SOL     OW18857   3.827   3.165   0.033 -0.3695  0.2011  0.8157
 2963SOL    HW118858   3.811   3.174   0.131 -1.4122  0.3844  0.6356
 2963SOL    HW218859   3.878   3.245   0.000 -1.5596  1.0044  0.8931
 2964SOL     OW18860   2.233   8.243   2.357 -0.1525 -0.0708 -0.2242
 2964SOL    HW118861   2.274   8.304   2.425  1.6170 -1.1791 -0.2743
 2964SOL    HW218862   2.206   8.157   2.401 -1.7532  0.3449 -0.3490
 2965SOL     OW18863   0.098   2.271   2.562 -0.0550  0.0108 -0.6613
 2965SOL    HW118864   0.187   2.248   2.522  0.2915  0.0626  0.0791
 2965SOL    HW218865   0.073   2.202   2.629  0.0700  0.7298  0.1273
 2966SOL     OW18866   3.886   9.949   1.712  0.0196 -0.6521 -0.8425
 2966SOL    HW118867   3.860   9.854   1.701 -0.5022 -0.6729  0.4172
 2966SOL    HW218868   3.980   9.962   1.682 -0.1475 -1.4063 -1.7068
 2967SOL     OW18869   4.276   4.609   0.104 -0.4559 -0.9530  0.3825
 2967SOL    HW118870   4.273   4.510   0.119 -1.2694 -0.8474  0.9885
 2967SOL    HW218871   4.300   4.628   0.009 -2.3404 -1.7684 -0.2830
 2968SOL     OW18872   0.728   4.771   1.005 -0.3705  0.1157 -0.1792
 2968SOL    HW118873   0.813   4.802   0.962 -0.9885  1.6416 -0.2978
 2968SOL    HW218874   0.650   4.799   0.950 -1.0363 -0.0464  0.6652
 2969SOL     OW18875   2.243   2.509   0.579 -0.0838 -0.6683 -0.0526
 2969SOL    HW118876   2.324   2.452   0.592 -0.1989 -0.6697  0.6600
 2969SOL    HW218877   2.194   2.518   0.665 -1.5548 -1.7434 -0.7487
 2970SOL     OW18878   2.860   4.884   1.619  0.2481  0.2443 -0.2230
 2970SOL    HW118879   2.827   4.944   1.693 -0.8764 -1.5123  0.7180
 2970SOL    HW218880   2.839   4.926   1.531 -2.6906  0.1765  0.3767
 2971SOL     OW18881   3.969   9.451   1.818 -0.1009  0.3640 -0.0178
 2971SOL    HW118882   3.965   9.433   1.916 -0.2796  0.0213 -0.0914
 2971SOL    HW218883   3.935   9.543   1.800 -1.5927 -0.1701  0.0568
 2972SOL     OW18884   0.812   2.884   0.315 -0.3949  0.1518 -0.1709
 2972SOL    HW118885   0.748   2.957   0.291  3.1165  2.7619 -2.2215
 2972SOL    HW218886   0.822   2.878   0.414 -2.3816  0.9647  0.0886
 2973SOL     OW18887   2.040   5.055   2.384 -0.0796  0.1701 -0.4960
 2973SOL    HW118888   2.030   5.032   2.481  0.0860  0.9414 -0.2939
 2973SOL    HW218889   2.137   5.056   2.360 -0.0755  0.8573 -0.4532
 2974SOL     OW18890   1.566   1.110   0.210 -0.8256  0.3587 -0.2900
 2974SOL    HW118891   1.616   1.033   0.249 -1.2961  0.9374  1.5174
 2974SOL    HW218892   1.597   1.127   0.117  0.2073 -1.1809 -0.2329
 2975SOL     OW18893   0.980   6.431   2.214 -0.4327 -0.0815  0.6314
 2975SOL    HW118894   0.914   6.356   2.208  0.3652 -0.7098 -0.4169
 2975SOL    HW218895   1.071   6.398   2.187  0.0141  1.1501  0.5919
 2976SOL     OW18896   4.954   2.312   0.154  0.0593  0.5899 -0.2646
 2976SOL    HW118897   4.923   2.407   0.162  0.4772  0.9484 -2.6480
 2976SOL    HW218898   4.887   2.259   0.101 -1.2894 -1.0294  2.9122
 2977SOL     OW18899   3.048   4.361   0.524  0.6245  0.4928  0.3564
 2977SOL    HW118900   3.026   4.369   0.427  1.6121  0.6405  0.1292
 2977SOL    HW218901   2.964   4.353   0.577 -0.0030  1.7768 -0.3923
 2978SOL     OW18902   2.011   6.730   2.048 -0.1980  0.2087 -0.3633
 2978SOL    HW118903   1.913   6.738   2.061 -0.2492 -0.3107 -0.4094
 2978SOL    HW218904   2.030   6.660   1.979  0.2034  0.3111 -0.3604
 2979SOL     OW18905   1.726   1.270   2.234 -0.6186  0.2117 -0.3970
 2979SOL    HW118906   1.723   1.201   2.162 -0.4215 -1.7925  1.4510
 2979SOL    HW218907   1.789   1.239   2.306 -2.3746  1.1989  1.5972
 2980SOL     OW18908   9.937   2.813   0.744 -0.0921  0.0375  0.4155
 2980SOL    HW118909   9.917   2.777   0.652 -0.2288 -1.5101  1.0427
 2980SOL    HW218910   9.944   2.913   0.739  1.4499 -0.1324 -1.5647
 2981SOL     OW18911   2.337   1.176   2.098  0.4272 -0.3727 -0.0233
 2981SOL    HW118912   2.265   1.204   2.160  1.4310 -2.6065  2.2548
 2981SOL    HW218913   2.376   1.089   2.129  3.2676  0.1610 -1.8626
 2982SOL     OW18914   1.464   7.656   0.965 -0.4928 -0.5631 -0.8210
 2982SOL    HW118915   1.388   7.593   0.981 -0.5860 -0.6245 -1.4974
 2982SOL    HW218916   1.550   7.608   0.983 -0.6391 -0.2133  0.8734
 2983SOL     OW18917   0.275   3.017   1.972  0.2659 -0.1108  0.7075
 2983SOL    HW118918   0.186   2.971   1.963  0.0162  0.5328 -0.2075
 2983SOL    HW218919   0.347   2.957   1.938 -0.0322  0.0790 -0.2829
 2984SOL     OW18920   3.886   9.416   2.075  0.0520  0.0317 -0.0744
 2984SOL    HW118921   3.885   9.500   2.130 -1.4517 -0.5929  0.8847
 2984SOL    HW218922   3.924   9.341   2.129 -0.2879 -0.2994 -0.2932
 2985SOL     OW18923   4.017   8.291   2.219 -0.2417 -0.5005  0.0044
 2985SOL    HW118924   3.919   8.275   2.235  0.1244 -1.1055  1.7190
 2985SOL    HW218925   4.053   8.351   2.291  0.7777 -0.7526 -0.2878
 2986SOL     OW18926   8.829   4.632   1.037 -0.3900  0.3990  0.1565
 2986SOL    HW118927   8.827   4.604   1.133  0.5734 -2.3328 -0.5728
 2986SOL    HW218928   8.767   4.574   0.984 -1.0876  2.0368 -0.8439
 2987SOL     OW18929   0.648   4.738   0.135  0.2335 -0.2487  0.4824
 2987SOL    HW118930   0.584   4.814   0.134  0.3627 -0.1387  0.5752
 2987SOL    HW218931   0.601   4.656   0.167 -0.0688 -0.3584 -0.2291
  10.00000  10.00000   2.82800
